FOO
135168
    1MOL0     O    1   7.460   4.419   3.627  0.3123 -0.3830 -0.4601
    1MOL0     C    2   7.551   4.350   3.664 -0.6570 -0.4953 -0.2907
    1MOL0     O    3   7.545   4.235   3.739 -0.0298  0.4675  0.3518
    1MOL0     C    4   7.437   4.196   3.803 -0.1067 -0.1518 -0.1264
    1MOL0     C    5   7.416   4.060   3.816 -0.6836 -0.8984  0.0889
    1MOL0     C    6   7.311   4.028   3.901 -0.1334 -0.3639  0.2625
    1MOL0     C    7   7.221   4.113   3.966 -0.5622  0.7215  0.3252
    1MOL0     O    8   7.108   4.066   4.018  0.3574  0.2028  0.0822
    1MOL0     C    9   7.044   4.119   4.144 -0.7662 -0.2209 -0.0033
    1MOL0     C   10   7.106   4.026   4.256  0.4150 -0.2437 -0.0336
    1MOL0     C   11   7.245   4.064   4.293 -0.6582  0.8557  0.5555
    1MOL0     C   12   7.295   3.983   4.418 -0.0710 -0.5778 -0.2469
    1MOL0     C   13   7.448   4.022   4.428  0.1763 -0.7506  0.2884
    1MOL0     C   14   7.471   4.162   4.490 -0.4592  0.5230 -0.8547
    1MOL0     C   15   7.626   4.179   4.547  0.0740  0.3720  0.1027
    1MOL0     C   16   7.668   4.317   4.599 -0.1984  0.7648 -0.1137
    1MOL0     N   17   7.579   4.339   4.711 -0.1620 -0.2218  0.2587
    1MOL0     C   18   7.603   4.291   4.842  0.9232  0.9294 -0.0827
    1MOL0     C   19   7.505   4.344   4.913 -0.4762  1.1964  0.8949
    1MOL0     C   20   7.486   4.336   5.065  0.0213 -0.5386  0.2350
    1MOL0     C   21   7.347   4.292   5.114  0.1583  0.1632  0.6654
    1MOL0     C   22   7.243   4.405   5.143 -0.3053  0.0651  0.5636
    1MOL0     C   23   7.112   4.340   5.188 -0.1599 -0.2027 -0.2169
    1MOL0     O   24   7.019   4.451   5.205 -1.0954  0.6158  0.2829
    1MOL0     C   25   6.904   4.425   5.274  0.5501 -0.3758  0.5744
    1MOL0     C   26   6.873   4.324   5.369 -0.6154  0.7198  0.6147
    1MOL0     C   27   6.751   4.308   5.428  0.5351 -0.4867  1.4930
    1MOL0     C   28   6.640   4.395   5.396 -1.2977  0.3727  0.6311
    1MOL0     C   29   6.509   4.363   5.465  0.9750 -0.1128  0.0042
    1MOL0     O   30   6.402   4.440   5.428 -0.0853  0.0582  0.2853
    1MOL0     C   31   6.280   4.427   5.489 -0.0324 -0.4866  0.3691
    1MOL0     C   32   6.220   4.297   5.507  0.3457 -0.0349 -0.7949
    1MOL0     C   33   6.097   4.293   5.567 -0.7340 -0.4782 -0.9468
    1MOL0     C   34   6.039   4.409   5.623  0.2450  0.7200  0.2851
    1MOL0     O   35   5.919   4.384   5.683  0.0847 -0.1385  0.5882
    1MOL0     C   36   5.843   4.493   5.752  0.5789  0.2559  0.2046
    1MOL0     C   37   5.710   4.432   5.815  0.2013 -0.1111 -0.0233
    1MOL0     C   38   5.729   4.338   5.937  0.1490  0.2202  0.6563
    1MOL0     C   39   5.586   4.307   5.977  0.5550  0.4491 -1.1252
    1MOL0     C   40   5.513   4.415   6.068  0.9627  0.7643  1.2116
    1MOL0     C   41   5.365   4.389   6.081  0.4026 -0.5178 -0.1213
    1MOL0     C   42   5.346   4.264   6.161 -0.1222 -0.5941  0.2842
    1MOL0     C   43   5.208   4.244   6.214  0.0035 -0.1566 -0.4515
    1MOL0    Cl   44   5.076   4.250   6.089 -0.3366  0.4773 -0.2710
    1MOL0     C   45   6.109   4.531   5.617  0.3224 -0.1861 -0.1209
    1MOL0     C   46   6.227   4.544   5.542  0.6166 -0.1970  0.5724
    1MOL0     O   47   6.500   4.271   5.550  0.2874  0.3736  0.3246
    1MOL0     C   48   6.667   4.497   5.304  0.6609 -0.1154  0.6508
    1MOL0     C   49   6.793   4.514   5.240 -0.6534  0.6138 -0.5201
    1MOL0     N   50   7.423   4.419   4.828 -0.0463 -0.3071  0.6369
    1MOL0     N   51   7.472   4.416   4.710 -0.1938 -0.3006  0.4284
    1MOL0     C   52   7.240   4.251   3.949 -0.3463  1.3209 -0.1339
    1MOL0     C   53   7.348   4.287   3.869 -0.7042 -1.1158 -0.1119
    1MOL0     C   54   7.683   4.398   3.603 -0.7386  0.5397 -0.0519
    1MOL0     C   55   7.804   4.343   3.636  0.7219  0.2869 -0.3384
    1MOL0     C   56   7.921   4.384   3.577 -0.8428  0.4832 -0.2477
    1MOL0     C   57   7.924   4.489   3.483 -0.1745  0.6801 -0.4603
    1MOL0     O   58   8.028   4.549   3.417 -0.4855 -0.2182  0.4923
    1MOL0     C   59   8.155   4.538   3.484  0.7158  0.5626  0.2641
    1MOL0     C   60   8.271   4.620   3.427 -0.3245  0.4448  0.1343
    1MOL0     C   61   8.240   4.769   3.399  1.1090  0.2987 -0.2024
    1MOL0     C   62   8.150   4.789   3.278 -0.3791 -0.0529 -0.6069
    1MOL0     C   63   8.149   4.934   3.245  0.2523 -0.1765 -1.0561
    1MOL0     C   64   8.153   5.054   3.214  0.3126  0.2447  0.9756
    1MOL0     C   65   7.807   4.548   3.450  0.2403 -0.4602  1.6885
    1MOL0     C   66   7.690   4.502   3.503  0.0197  0.4898 -0.3320
    1MOL0     H   67   7.483   3.982   3.782  0.3867 -0.2740  0.7004
    1MOL0     H   68   7.294   3.923   3.921  3.6310 -1.5087 -1.6391
    1MOL0     H   69   6.935   4.111   4.136 -0.6546 -0.1965 -2.5321
    1MOL0     H   70   7.064   4.225   4.160 -2.7887  0.4791 -1.6359
    1MOL0     H   71   7.099   3.921   4.225 -0.7886  0.0915 -1.0261
    1MOL0     H   72   7.047   4.037   4.347 -0.9878  2.5197 -1.1472
    1MOL0     H   73   7.258   4.170   4.319  0.6990  0.2052  2.8036
    1MOL0     H   74   7.317   4.042   4.213  2.0989 -0.2266  3.1330
    1MOL0     H   75   7.237   4.001   4.509  0.2066 -0.9553  0.0040
    1MOL0     H   76   7.290   3.876   4.396  0.5672 -0.1127 -3.0206
    1MOL0     H   77   7.491   4.024   4.328 -2.6490 -1.6771 -1.0515
    1MOL0     H   78   7.494   3.941   4.486 -0.3538 -0.2561  1.4468
    1MOL0     H   79   7.408   4.175   4.578  0.6290  0.5713 -0.0533
    1MOL0     H   80   7.449   4.237   4.414 -2.1263  1.8263  0.7978
    1MOL0     H   81   7.630   4.113   4.634 -0.5933  1.8557  1.3092
    1MOL0     H   82   7.703   4.142   4.479  0.0690 -0.2983  0.4521
    1MOL0     H   83   7.660   4.386   4.514  0.3445  2.2393  0.9775
    1MOL0     H   84   7.775   4.315   4.623 -0.0563 -0.6145 -0.7639
    1MOL0     H   85   7.684   4.234   4.885 -2.7095 -3.8553  1.2968
    1MOL0     H   86   7.517   4.433   5.106 -0.2189  0.3220 -1.5171
    1MOL0     H   87   7.556   4.262   5.105 -0.3443 -0.5243  0.9065
    1MOL0     H   88   7.369   4.233   5.204 -0.8161 -2.5054 -0.7252
    1MOL0     H   89   7.304   4.223   5.041  0.7747  0.9816 -0.4920
    1MOL0     H   90   7.272   4.467   5.228 -1.5204 -0.0154  1.0435
    1MOL0     H   91   7.225   4.468   5.055  0.7829  1.0353  1.0028
    1MOL0     H   92   7.131   4.292   5.284  0.5274  0.7824  0.1547
    1MOL0     H   93   7.077   4.261   5.120  1.1178 -0.7274 -0.2829
    1MOL0     H   94   6.949   4.256   5.407 -1.5080  0.3091  1.7077
    1MOL0     H   95   6.728   4.220   5.486 -4.9594  0.3550  1.0882
    1MOL0     H   96   6.264   4.204   5.476 -0.0361 -0.7132  0.6104
    1MOL0     H   97   6.046   4.200   5.591 -1.3651  0.2040  0.4760
    1MOL0     H   98   5.814   4.565   5.675  0.8697  1.4895  1.2162
    1MOL0     H   99   5.900   4.543   5.831  1.1039  0.9923 -0.6306
    1MOL0     H  100   5.667   4.378   5.730  0.4788  0.7417 -0.7293
    1MOL0     H  101   5.637   4.511   5.836  0.2629 -0.5199  1.8742
    1MOL0     H  102   5.790   4.388   6.011  1.7697 -0.8325  0.0797
    1MOL0     H  103   5.786   4.253   5.897  1.7152  1.0994  0.9689
    1MOL0     H  104   5.517   4.299   5.893 -1.8007  1.1078  0.6298
    1MOL0     H  105   5.603   4.205   6.015  2.3112 -0.2764 -3.5897
    1MOL0     H  106   5.520   4.517   6.028 -1.8312 -0.2347 -2.2445
    1MOL0     H  107   5.569   4.423   6.162  3.7535 -0.8591 -0.1739
    1MOL0     H  108   5.316   4.386   5.983 -0.2112 -1.2216  0.2024
    1MOL0     H  109   5.323   4.481   6.125  2.6078  1.3201 -1.6067
    1MOL0     H  110   5.362   4.184   6.088  2.4371  1.2478 -1.3298
    1MOL0     H  111   5.418   4.268   6.243  0.7032  1.8024 -0.4663
    1MOL0     H  112   5.191   4.313   6.298  2.3328  1.0407 -0.8923
    1MOL0     H  113   5.204   4.142   6.255 -4.0100 -0.5242 -1.3177
    1MOL0     H  114   6.066   4.615   5.670  2.2205  1.0724 -0.4796
    1MOL0     H  115   6.280   4.636   5.522 -2.7710  1.3333 -2.3668
    1MOL0     H  116   6.581   4.557   5.274  0.2246 -0.2640  1.5852
    1MOL0     H  117   6.817   4.598   5.176  3.4120  3.0188  3.5491
    1MOL0     H  118   7.165   4.315   3.993 -1.3224 -0.0771  0.3123
    1MOL0     H  119   7.363   4.392   3.849  1.0692 -1.4040 -0.5277
    1MOL0     H  120   7.803   4.266   3.713 -1.6196  2.4613  2.0169
    1MOL0     H  121   8.018   4.336   3.583  0.0307  1.6463 -3.2258
    1MOL0     H  122   8.183   4.432   3.481  0.3689  0.4561  0.5564
    1MOL0     H  123   8.136   4.574   3.586  2.2015  0.9149  0.4355
    1MOL0     H  124   8.353   4.607   3.499 -0.7710 -1.1582  0.3880
    1MOL0     H  125   8.303   4.569   3.336 -1.2656 -3.5145  1.7831
    1MOL0     H  126   8.338   4.814   3.380  0.4508  1.0805 -2.0342
    1MOL0     H  127   8.187   4.813   3.484  1.6829 -1.8269  1.3362
    1MOL0     H  128   8.186   4.724   3.198 -2.0334 -2.2009  0.2870
    1MOL0     H  129   8.045   4.766   3.300  0.4958 -1.3728  2.6750
    1MOL0     H  130   8.140   5.146   3.161 -0.2241  0.1097  0.8662
    1MOL0     H  131   7.805   4.638   3.389 -1.2566 -1.9585 -0.6460
    1MOL0     H  132   7.592   4.541   3.480 -0.4539  0.1616  1.0014
    2MOL0     O  133   1.353   9.498   7.667 -0.0415 -0.4852  0.1766
    2MOL0     C  134   1.383   9.557   7.767 -0.2598 -0.1776 -0.7091
    2MOL0     O  135   1.298   9.625   7.849 -1.1425 -1.4455  0.0451
    2MOL0     C  136   1.162   9.624   7.816 -0.1037  1.0215  0.8072
    2MOL0     C  137   1.089   9.512   7.770 -0.4712  0.3340 -0.6093
    2MOL0     C  138   0.949   9.501   7.762  0.4084  1.0252 -0.4532
    2MOL0     C  139   0.868   9.617   7.796  0.5971  0.3888  0.0101
    2MOL0     O  140   0.729   9.624   7.788  0.1887  0.6573 -0.2113
    2MOL0     C  141   0.673   9.553   7.681  0.1988 -0.0393  0.2804
    2MOL0     C  142   0.564   9.645   7.618 -0.2873  0.7162 -0.1657
    2MOL0     C  143   0.448   9.653   7.715 -0.2119 -0.1830 -0.7245
    2MOL0     C  144   0.317   9.710   7.652 -0.2983  0.7302 -1.1737
    2MOL0     C  145   0.220   9.761   7.766  0.0241 -0.2157  0.2048
    2MOL0     C  146   0.139   9.659   7.847  0.6169 -0.1309 -0.4511
    2MOL0     C  147   0.079   9.744   7.968 -1.2041  0.2062  0.2506
    2MOL0     C  148   0.007   9.654   8.068  0.0349 -0.0371 -0.2609
    2MOL0     N  149  -0.092   9.718   8.148 -0.4931 -0.1078  0.0031
    2MOL0     C  150  -0.141   9.662   8.265  0.4534 -0.4985  0.0791
    2MOL0     C  151  -0.245   9.743   8.291  0.5093  0.1815  0.1977
    2MOL0     C  152  -0.347   9.701   8.396  1.0731 -0.3043 -0.1158
    2MOL0     C  153  -0.479   9.778   8.370  0.5566  0.2627 -0.3761
    2MOL0     C  154  -0.582   9.782   8.487  0.1088  0.1167 -0.1598
    2MOL0     C  155  -0.723   9.818   8.448 -0.1686  0.0057 -0.1006
    2MOL0     O  156  -0.780   9.718   8.360 -0.7273 -0.2400  1.0498
    2MOL0     C  157  -0.838   9.605   8.411 -0.7664  0.2769  0.0917
    2MOL0     C  158  -0.892   9.501   8.320 -1.1915  0.9667 -0.5024
    2MOL0     C  159  -0.958   9.390   8.371  0.3340  0.2603  0.3327
    2MOL0     C  160  -0.991   9.383   8.505 -1.0780 -0.0153  0.6069
    2MOL0     C  161  -1.092   9.293   8.562  0.2617 -0.1541 -0.0828
    2MOL0     O  162  -1.185   9.258   8.464  0.1181  0.9774 -0.2920
    2MOL0     C  163  -1.297   9.190   8.505  0.2573 -0.2868  0.3634
    2MOL0     C  164  -1.388   9.248   8.593  1.0467  1.5354  0.0732
    2MOL0     C  165  -1.500   9.167   8.633  0.4274 -0.6791 -0.8352
    2MOL0     C  166  -1.530   9.036   8.583 -0.6228 -0.5540 -0.3269
    2MOL0     O  167  -1.649   8.962   8.613 -0.1220 -0.1366 -0.4254
    2MOL0     C  168  -1.697   8.880   8.508 -0.6155  0.2993 -0.7384
    2MOL0     C  169  -1.850   8.893   8.502 -0.2537 -0.6473  0.3837
    2MOL0     C  170  -1.921   8.772   8.436  0.9713 -1.2726  0.3486
    2MOL0     C  171  -2.068   8.820   8.404 -0.3258  0.0229  0.3554
    2MOL0     C  172  -2.168   8.693   8.380  0.4032 -0.6013  0.0581
    2MOL0     C  173  -2.306   8.711   8.340 -0.3082 -0.2894  0.4689
    2MOL0     C  174  -2.345   8.834   8.263  0.2975  0.0158  0.1287
    2MOL0     C  175  -2.491   8.843   8.255  0.8668 -0.1293 -0.3508
    2MOL0    Cl  176  -2.575   8.920   8.393 -0.1597 -0.3788  0.7570
    2MOL0     C  177  -1.434   8.984   8.498  0.1932 -0.5097 -0.4202
    2MOL0     C  178  -1.316   9.058   8.466 -0.0621 -0.4845  0.1281
    2MOL0     O  179  -1.104   9.274   8.687  0.4300 -0.3692 -0.3281
    2MOL0     C  180  -0.926   9.474   8.585 -0.2552 -0.3570 -0.0009
    2MOL0     C  181  -0.848   9.582   8.546  0.6422  0.1292 -0.3425
    2MOL0     N  182  -0.259   9.847   8.198 -0.2341  0.3920  0.5959
    2MOL0     N  183  -0.169   9.827   8.107 -0.0780 -0.5390 -0.9970
    2MOL0     C  184   0.940   9.731   7.847 -0.6518  0.1027  0.1977
    2MOL0     C  185   1.085   9.727   7.866 -0.0271 -1.1228 -0.2050
    2MOL0     C  186   1.527   9.575   7.794  0.3368 -0.2624  0.9184
    2MOL0     C  187   1.627   9.498   7.733 -0.7394 -0.0731 -0.1385
    2MOL0     C  188   1.760   9.528   7.740  0.5865 -0.3985 -0.3413
    2MOL0     C  189   1.808   9.640   7.813  0.0991  0.2852 -0.4413
    2MOL0     O  190   1.945   9.665   7.825  0.6087  0.1120 -0.0695
    2MOL0     C  191   2.041   9.563   7.783  0.3288 -0.2447 -1.1942
    2MOL0     C  192   2.184   9.612   7.794  0.6857  0.0006  0.8677
    2MOL0     C  193   2.202   9.716   7.680  0.9867 -0.7717 -0.6530
    2MOL0     C  194   2.350   9.770   7.678  0.1002 -0.1284  0.3440
    2MOL0     C  195   2.446   9.661   7.656 -0.4416  0.1616  0.0392
    2MOL0     C  196   2.543   9.584   7.651 -0.1834 -0.3826 -0.8272
    2MOL0     C  197   1.711   9.723   7.874 -0.0324  0.3331  0.7347
    2MOL0     C  198   1.573   9.688   7.864  0.5535 -0.0287 -0.2245
    2MOL0     H  199   1.144   9.422   7.748 -0.0770  0.4190  0.0126
    2MOL0     H  200   0.904   9.408   7.730  0.0387  1.7344 -2.1099
    2MOL0     H  201   0.622   9.468   7.726 -1.7252  1.7249  1.6196
    2MOL0     H  202   0.746   9.517   7.608  0.7371  1.2255  0.1693
    2MOL0     H  203   0.526   9.609   7.522 -3.8203  0.3729  1.2303
    2MOL0     H  204   0.599   9.748   7.611 -1.5075  1.0441 -2.3852
    2MOL0     H  205   0.477   9.716   7.800  2.4381  1.7681 -2.8940
    2MOL0     H  206   0.412   9.559   7.757 -1.6425 -0.1264 -1.7726
    2MOL0     H  207   0.345   9.790   7.583  0.5944  2.2500  0.8560
    2MOL0     H  208   0.273   9.631   7.591 -0.5827 -0.3471  0.3649
    2MOL0     H  209   0.154   9.831   7.715  0.7940  1.9071  1.9229
    2MOL0     H  210   0.269   9.835   7.831 -0.6261  2.0703 -1.7745
    2MOL0     H  211   0.201   9.577   7.888  0.6191 -0.0416 -0.2737
    2MOL0     H  212   0.057   9.625   7.784 -0.0040  1.7065 -0.6897
    2MOL0     H  213   0.164   9.793   8.017  1.9550  0.3945 -4.6468
    2MOL0     H  214   0.021   9.829   7.931  0.4392  2.1076  1.7862
    2MOL0     H  215   0.082   9.591   8.117  2.8778  1.6034 -2.2335
    2MOL0     H  216  -0.038   9.582   7.999 -0.2822  1.4022 -1.5989
    2MOL0     H  217  -0.124   9.569   8.318 -1.5536 -0.6940  0.4383
    2MOL0     H  218  -0.310   9.714   8.498  0.3403  0.9659 -0.0002
    2MOL0     H  219  -0.362   9.594   8.377 -0.8809  0.0840 -0.9508
    2MOL0     H  220  -0.529   9.733   8.283 -0.7846 -0.6408  0.7982
    2MOL0     H  221  -0.458   9.882   8.345  1.1714  0.7217  1.8803
    2MOL0     H  222  -0.588   9.690   8.547 -0.0683  1.4889  2.0481
    2MOL0     H  223  -0.534   9.854   8.555  0.0253 -0.0402  0.0676
    2MOL0     H  224  -0.733   9.919   8.406 -0.8594 -0.0157  0.0064
    2MOL0     H  225  -0.775   9.821   8.544  0.8445 -1.1437  0.5052
    2MOL0     H  226  -0.870   9.512   8.214 -0.1877  1.7735 -0.2306
    2MOL0     H  227  -0.996   9.322   8.295  2.6981  0.8677 -1.4873
    2MOL0     H  228  -1.376   9.344   8.640  1.7187  1.2157  0.5671
    2MOL0     H  229  -1.564   9.217   8.705  2.4539  0.7545  0.0455
    2MOL0     H  230  -1.661   8.777   8.513  0.0987  0.3897 -3.0545
    2MOL0     H  231  -1.667   8.923   8.412 -0.1693  1.2275 -0.1993
    2MOL0     H  232  -1.869   8.988   8.451  0.1762 -0.0118  1.3582
    2MOL0     H  233  -1.894   8.903   8.602 -1.2736  0.2965 -0.1313
    2MOL0     H  234  -1.917   8.683   8.500 -3.7905 -1.6338  0.4669
    2MOL0     H  235  -1.864   8.745   8.347 -0.3125  0.9760 -1.2261
    2MOL0     H  236  -2.105   8.879   8.489  1.5955 -0.9277  1.9573
    2MOL0     H  237  -2.068   8.885   8.316  0.2816  0.2252  0.4971
    2MOL0     H  238  -2.162   8.633   8.471  2.1717 -2.1372 -1.0050
    2MOL0     H  239  -2.128   8.635   8.296  2.2149 -0.5530  0.8402
    2MOL0     H  240  -2.362   8.727   8.432 -1.6874  3.8065 -0.8730
    2MOL0     H  241  -2.337   8.621   8.286  0.6026 -0.9020  0.9318
    2MOL0     H  242  -2.308   8.931   8.296  1.9133 -1.3361  2.6369
    2MOL0     H  243  -2.303   8.813   8.164  0.2526  0.3641  0.0377
    2MOL0     H  244  -2.541   8.747   8.240 -3.3993  1.0380  4.1212
    2MOL0     H  245  -2.512   8.899   8.163 -0.3181  0.6233  0.3599
    2MOL0     H  246  -1.421   8.882   8.464  1.1501 -0.7985  0.7356
    2MOL0     H  247  -1.240   9.011   8.404  0.0234 -0.5556  0.2843
    2MOL0     H  248  -0.949   9.464   8.691 -0.0425 -1.3947 -0.0482
    2MOL0     H  249  -0.791   9.637   8.619  0.1306 -1.5551  1.4180
    2MOL0     H  250   0.878   9.814   7.878 -1.3419 -1.0424  2.0780
    2MOL0     H  251   1.149   9.802   7.913 -0.2094 -2.6227  2.6586
    2MOL0     H  252   1.593   9.411   7.677  2.3303 -1.5862  0.1538
    2MOL0     H  253   1.824   9.458   7.687 -1.9169 -4.6830  1.8060
    2MOL0     H  254   2.032   9.535   7.678  0.3933  0.1944 -1.3218
    2MOL0     H  255   2.025   9.479   7.850  0.9932  1.7594  1.6690
    2MOL0     H  256   2.211   9.649   7.894 -1.7515  3.0447  0.5531
    2MOL0     H  257   2.250   9.527   7.775 -1.4874 -1.2029 -1.8882
    2MOL0     H  258   2.134   9.802   7.689  3.0208  0.7705  0.9896
    2MOL0     H  259   2.182   9.661   7.588 -1.4020 -1.3952  0.1540
    2MOL0     H  260   2.372   9.843   7.599  0.0987  0.1629  0.6079
    2MOL0     H  261   2.359   9.806   7.780 -0.5673  2.0566 -0.3075
    2MOL0     H  262   2.630   9.523   7.649 -2.0321 -3.1884 -1.9378
    2MOL0     H  263   1.742   9.821   7.908 -0.1413  0.0509  1.6779
    2MOL0     H  264   1.495   9.751   7.906  0.3460 -0.7021  0.4221
    3MOL0     O  265   1.033   1.690   5.395 -0.1124  0.1161 -0.3195
    3MOL0     C  266   1.129   1.760   5.345 -0.2327  0.6975 -0.4265
    3MOL0     O  267   1.159   1.883   5.393 -0.4178 -0.2886 -0.0237
    3MOL0     C  268   1.119   1.900   5.530  0.3385  0.2684  0.0329
    3MOL0     C  269   1.004   1.971   5.565  0.0636  0.2494  0.1203
    3MOL0     C  270   0.951   1.964   5.693  0.6392 -0.9065 -0.0586
    3MOL0     C  271   1.033   1.889   5.790  0.2303 -0.2978  0.6889
    3MOL0     O  272   0.986   1.868   5.912  0.2999 -0.1342  0.5349
    3MOL0     C  273   0.846   1.876   5.949  0.2909 -0.0108  0.2566
    3MOL0     C  274   0.811   1.817   6.088  0.0396  0.5058  0.6102
    3MOL0     C  275   0.793   1.666   6.074 -0.1751 -0.3671  0.6359
    3MOL0     C  276   0.739   1.598   6.195 -0.0220 -1.1385 -0.3972
    3MOL0     C  277   0.799   1.453   6.207  0.4442  0.1331 -0.1579
    3MOL0     C  278   0.734   1.371   6.094  0.5675 -0.0922  0.3356
    3MOL0     C  279   0.581   1.386   6.088  0.3966  0.8657  0.3817
    3MOL0     C  280   0.521   1.273   5.995 -0.1516 -0.4153  0.0786
    3MOL0     N  281   0.374   1.275   6.004  0.0172  0.3831  0.4236
    3MOL0     C  282   0.292   1.364   5.944 -0.2848 -0.1498  0.1245
    3MOL0     C  283   0.171   1.330   5.982  0.8481  0.7491 -1.0617
    3MOL0     C  284   0.044   1.405   5.942  0.3063  0.4631 -0.8562
    3MOL0     C  285  -0.035   1.446   6.069  0.5226 -0.3771 -0.2520
    3MOL0     C  286  -0.175   1.490   6.042  0.5264  0.7079  0.8274
    3MOL0     C  287  -0.249   1.531   6.174  0.0397  0.6906 -0.0144
    3MOL0     O  288  -0.382   1.555   6.128 -0.4912  0.5111 -1.2313
    3MOL0     C  289  -0.422   1.681   6.112  0.7037 -0.9375  0.5212
    3MOL0     C  290  -0.560   1.705   6.088  0.3483 -0.5220 -0.2446
    3MOL0     C  291  -0.614   1.834   6.087 -0.2377  0.4278  0.2275
    3MOL0     C  292  -0.538   1.945   6.099  0.5960  0.2562  0.8830
    3MOL0     C  293  -0.603   2.079   6.118  0.2488 -0.3394 -0.1730
    3MOL0     O  294  -0.521   2.191   6.094 -0.3919 -0.2647  0.3926
    3MOL0     C  295  -0.536   2.314   6.152 -0.5199 -0.8799  0.9700
    3MOL0     C  296  -0.655   2.364   6.214 -0.5604 -0.2814  0.5369
    3MOL0     C  297  -0.666   2.497   6.259  0.0579  0.3833 -0.3174
    3MOL0     C  298  -0.562   2.588   6.226 -0.4066 -0.1068 -0.0041
    3MOL0     O  299  -0.566   2.722   6.254 -0.6012 -0.3144  0.1771
    3MOL0     C  300  -0.696   2.778   6.280 -0.7123  0.1871  0.4659
    3MOL0     C  301  -0.712   2.920   6.225 -0.1201  0.9538 -0.3425
    3MOL0     C  302  -0.837   2.998   6.274  0.8047 -0.2855  1.0994
    3MOL0     C  303  -0.967   2.927   6.226 -0.6840 -0.9507  0.1691
    3MOL0     C  304  -1.074   3.031   6.235 -0.2160  0.0026 -0.5186
    3MOL0     C  305  -1.202   3.002   6.157 -0.3065  1.2661  0.5518
    3MOL0     C  306  -1.240   2.847   6.152  0.0816 -1.2519  0.2531
    3MOL0     C  307  -1.386   2.833   6.131  0.1262  0.7969  0.3015
    3MOL0    Cl  308  -1.475   2.893   6.274  0.4449  0.0854  0.5393
    3MOL0     C  309  -0.443   2.541   6.184 -1.2922 -0.0358 -0.2421
    3MOL0     C  310  -0.431   2.409   6.135 -0.0811 -0.1081  0.3551
    3MOL0     O  311  -0.721   2.080   6.155  0.1951 -0.1185  0.3308
    3MOL0     C  312  -0.395   1.930   6.086 -0.2249  0.2554 -0.1746
    3MOL0     C  313  -0.342   1.802   6.098 -0.4538  0.3662  0.1762
    3MOL0     N  314   0.176   1.227   6.077  0.2138  0.2772 -0.7070
    3MOL0     N  315   0.296   1.179   6.061  0.6169  0.1449  0.2119
    3MOL0     C  316   1.157   1.834   5.764 -0.5619  0.0659  0.2887
    3MOL0     C  317   1.193   1.824   5.625 -0.3962 -0.2850  0.2550
    3MOL0     C  318   1.205   1.709   5.224 -0.3671 -0.0055  0.4206
    3MOL0     C  319   1.304   1.794   5.168 -0.2192  0.3786 -1.1764
    3MOL0     C  320   1.386   1.749   5.066 -0.0258  0.0161  0.2270
    3MOL0     C  321   1.363   1.622   5.007  0.1751 -0.0493 -0.3903
    3MOL0     O  322   1.436   1.586   4.895 -0.4065  0.3344 -0.0152
    3MOL0     C  323   1.563   1.523   4.918 -0.6319  0.3121  1.0783
    3MOL0     C  324   1.567   1.397   4.999 -0.7672 -0.7597  0.1217
    3MOL0     C  325   1.704   1.318   4.989  0.2401  0.3796  0.5997
    3MOL0     C  326   1.705   1.217   5.096  0.2314  1.1641  0.8906
    3MOL0     C  327   1.611   1.106   5.057 -0.2623 -0.5474 -0.4425
    3MOL0     C  328   1.536   1.009   5.032 -0.2807  0.2729  0.0150
    3MOL0     C  329   1.266   1.541   5.058  0.0675 -0.4044 -0.7139
    3MOL0     C  330   1.190   1.585   5.168  0.0469  0.9914  1.2047
    3MOL0     H  331   0.948   2.029   5.493  1.4619  2.0510  0.3900
    3MOL0     H  332   0.863   2.023   5.718  0.3049 -2.4260  2.7072
    3MOL0     H  333   0.778   1.826   5.880 -0.2642  2.4828 -1.1395
    3MOL0     H  334   0.817   1.981   5.959  1.1696  0.1216  1.7383
    3MOL0     H  335   0.716   1.853   6.128 -0.0141  0.2369  0.7294
    3MOL0     H  336   0.885   1.842   6.164  0.0793  2.9885 -0.1646
    3MOL0     H  337   0.891   1.624   6.052  0.4367  1.5710 -0.6474
    3MOL0     H  338   0.726   1.649   5.989 -3.6703 -2.1995  3.4730
    3MOL0     H  339   0.773   1.659   6.279 -0.5345 -1.9782  0.4374
    3MOL0     H  340   0.630   1.606   6.198  0.0878  0.9393 -0.5299
    3MOL0     H  341   0.783   1.402   6.303  1.8914 -2.1477 -1.0324
    3MOL0     H  342   0.908   1.449   6.196  0.9224  1.2147  3.1764
    3MOL0     H  343   0.773   1.269   6.102  2.8026  0.5272 -1.3809
    3MOL0     H  344   0.771   1.393   5.993  0.6963 -3.3614 -0.4311
    3MOL0     H  345   0.537   1.369   6.186  2.4716 -1.6125  0.9948
    3MOL0     H  346   0.548   1.479   6.041 -2.8230 -0.7317 -0.8723
    3MOL0     H  347   0.568   1.176   6.015  0.3253 -0.1759  0.1177
    3MOL0     H  348   0.561   1.295   5.896  0.9611  0.7002  0.7640
    3MOL0     H  349   0.330   1.441   5.878 -1.5163  0.6659  0.3329
    3MOL0     H  350  -0.004   1.332   5.876  1.9757 -1.6044  0.0943
    3MOL0     H  351   0.065   1.504   5.900  0.9026  2.0134  2.7381
    3MOL0     H  352   0.024   1.526   6.115  4.9006 -3.7122  0.5288
    3MOL0     H  353  -0.038   1.360   6.136 -1.2045 -1.2482 -1.3759
    3MOL0     H  354  -0.183   1.578   5.978 -2.0827 -1.9398 -2.9654
    3MOL0     H  355  -0.234   1.414   5.989  1.8489  0.7023 -0.7084
    3MOL0     H  356  -0.204   1.614   6.229 -0.7208  2.3198 -1.7461
    3MOL0     H  357  -0.254   1.447   6.245 -1.1899  0.4699 -0.3315
    3MOL0     H  358  -0.621   1.615   6.091  3.3531 -2.7218  0.6446
    3MOL0     H  359  -0.722   1.843   6.092 -0.4404 -1.7092  1.0876
    3MOL0     H  360  -0.732   2.290   6.232  0.3996 -1.2046  0.9460
    3MOL0     H  361  -0.756   2.535   6.307  1.0587  0.2118  1.8049
    3MOL0     H  362  -0.717   2.777   6.388  1.5285 -1.8379  0.9708
    3MOL0     H  363  -0.776   2.724   6.229  0.0736 -0.5892  0.0356
    3MOL0     H  364  -0.706   2.912   6.116 -1.7646 -0.1268 -0.3818
    3MOL0     H  365  -0.621   2.974   6.255  0.7729 -1.6591  2.0494
    3MOL0     H  366  -0.815   3.092   6.223  0.9403  0.2126  2.0500
    3MOL0     H  367  -0.845   3.013   6.382  0.8475  1.9223  0.8233
    3MOL0     H  368  -0.952   2.895   6.122  1.8619  0.9468 -0.1377
    3MOL0     H  369  -0.983   2.840   6.291  1.2385 -1.2321  0.3347
    3MOL0     H  370  -1.040   3.129   6.198 -1.2721  0.2043 -0.9916
    3MOL0     H  371  -1.095   3.033   6.342  0.2751  0.8868 -0.4328
    3MOL0     H  372  -1.189   3.046   6.058  0.0353  0.1170  0.0627
    3MOL0     H  373  -1.281   3.062   6.203  0.2105  1.2623  1.4592
    3MOL0     H  374  -1.190   2.795   6.070 -2.4313 -0.3895 -1.9827
    3MOL0     H  375  -1.206   2.803   6.246  1.1015 -0.7020  0.1572
    3MOL0     H  376  -1.411   2.728   6.113 -2.0680  1.2362  0.5857
    3MOL0     H  377  -1.407   2.897   6.045  0.8647 -1.2135 -1.4760
    3MOL0     H  378  -0.348   2.594   6.183  0.4187 -2.9072 -0.7061
    3MOL0     H  379  -0.334   2.367   6.111  0.8622  3.0925 -2.0862
    3MOL0     H  380  -0.322   2.010   6.089  2.0790 -1.6739 -1.3350
    3MOL0     H  381  -0.235   1.797   6.113  0.0803  2.2312 -2.3427
    3MOL0     H  382   1.219   1.786   5.838  1.6402 -0.1303 -1.5575
    3MOL0     H  383   1.281   1.769   5.594 -0.0876  0.2008  0.2551
    3MOL0     H  384   1.332   1.889   5.213 -1.7265 -0.4571  1.7945
    3MOL0     H  385   1.464   1.811   5.022 -1.2961  2.1568  0.8190
    3MOL0     H  386   1.624   1.599   4.968  1.3102 -0.5939  0.1928
    3MOL0     H  387   1.601   1.500   4.818 -0.6557 -2.1738  1.5584
    3MOL0     H  388   1.537   1.414   5.102 -0.9262  1.8515 -0.2933
    3MOL0     H  389   1.492   1.342   4.941 -0.4689  1.6718 -2.8704
    3MOL0     H  390   1.786   1.390   4.996 -1.7068  2.8539 -0.6276
    3MOL0     H  391   1.707   1.266   4.893  1.1719  0.2098  0.7099
    3MOL0     H  392   1.804   1.172   5.107 -1.4174 -3.3241 -0.5253
    3MOL0     H  393   1.673   1.250   5.196  1.3495 -0.6975  1.9144
    3MOL0     H  394   1.455   0.939   5.034 -0.8896  0.9788  2.4367
    3MOL0     H  395   1.269   1.448   5.002  0.8744  1.2306 -3.5634
    3MOL0     H  396   1.109   1.519   5.199 -0.9558  0.4904 -2.1105
    4MOL0     O  397   4.493   6.274   3.101  0.4555 -0.5455  0.1830
    4MOL0     C  398   4.554   6.375   3.143  0.0652  0.2944 -0.0375
    4MOL0     O  399   4.529   6.432   3.264  0.3139  0.3481 -0.2804
    4MOL0     C  400   4.416   6.398   3.329 -0.0188 -0.3420  0.2783
    4MOL0     C  401   4.383   6.262   3.370 -0.2899 -0.3291  0.6100
    4MOL0     C  402   4.259   6.232   3.418  0.7138  0.2329 -0.2087
    4MOL0     C  403   4.160   6.328   3.438  0.7765  0.0605  1.0726
    4MOL0     O  404   4.027   6.285   3.460  0.0572  0.6933 -0.1319
    4MOL0     C  405   3.973   6.344   3.582  0.3320  1.3259  0.0487
    4MOL0     C  406   3.825   6.299   3.604 -0.2083 -0.6253  0.1522
    4MOL0     C  407   3.773   6.315   3.748  0.3981 -0.1564 -0.1571
    4MOL0     C  408   3.634   6.262   3.761 -0.2058 -0.4876  0.5922
    4MOL0     C  409   3.594   6.264   3.906  0.3913  0.4437  0.1416
    4MOL0     C  410   3.438   6.229   3.926 -1.6192 -0.1348  0.5684
    4MOL0     C  411   3.406   6.259   4.070 -0.6015 -0.2505  0.0554
    4MOL0     C  412   3.272   6.208   4.116  0.7909  0.1843  0.1871
    4MOL0     N  413   3.151   6.223   4.031  0.1905 -0.0099  0.5688
    4MOL0     C  414   3.105   6.334   3.954 -0.4107 -0.4717  0.5072
    4MOL0     C  415   2.986   6.293   3.902  0.4781 -0.6981  0.4314
    4MOL0     C  416   2.900   6.374   3.814 -0.4640 -0.8418  0.2683
    4MOL0     C  417   2.758   6.371   3.874  0.3845  0.5345 -0.3149
    4MOL0     C  418   2.654   6.411   3.778  0.2441  0.3942  0.5478
    4MOL0     C  419   2.519   6.347   3.801  0.4637  0.4960  0.3581
    4MOL0     O  420   2.413   6.380   3.706 -0.5601 -0.4597 -0.3694
    4MOL0     C  421   2.287   6.351   3.736  0.4317 -0.2545 -0.0792
    4MOL0     C  422   2.194   6.397   3.638 -0.8219  0.5971  0.5799
    4MOL0     C  423   2.059   6.383   3.658 -0.7156  1.0454 -0.2821
    4MOL0     C  424   2.006   6.304   3.766 -0.1493  0.8115  0.2453
    4MOL0     C  425   1.864   6.283   3.781  0.5196 -0.3729 -0.3713
    4MOL0     O  426   1.779   6.333   3.681 -0.1763 -1.4043 -0.0737
    4MOL0     C  427   1.642   6.343   3.680  0.9780  0.3348 -1.5355
    4MOL0     C  428   1.571   6.389   3.802 -0.1317  0.0713  0.0643
    4MOL0     C  429   1.427   6.385   3.802  0.2667 -0.4501 -0.1317
    4MOL0     C  430   1.350   6.352   3.688 -0.3650  0.4641 -0.1825
    4MOL0     O  431   1.219   6.326   3.679  0.1965  0.2608 -0.6639
    4MOL0     C  432   1.134   6.343   3.792  0.3430 -0.5069 -0.2518
    4MOL0     C  433   0.982   6.379   3.739  0.3492 -0.5557  0.5385
    4MOL0     C  434   0.919   6.271   3.656  0.6866  0.1913  0.0114
    4MOL0     C  435   0.899   6.135   3.720 -0.3623 -0.6529  0.0277
    4MOL0     C  436   0.878   6.016   3.633  0.4515 -0.3529 -0.2208
    4MOL0     C  437   0.857   5.884   3.708 -0.2409 -0.2138  0.1038
    4MOL0     C  438   0.767   5.786   3.632  0.1919  0.5100  0.0187
    4MOL0     C  439   0.627   5.812   3.673 -0.2250  0.8137 -0.1875
    4MOL0    Cl  440   0.616   5.728   3.840 -0.0508  0.1555  0.0889
    4MOL0     C  441   1.418   6.310   3.581  0.1732  0.4838 -0.4590
    4MOL0     C  442   1.558   6.317   3.568  0.1673 -0.2547  0.6662
    4MOL0     O  443   1.828   6.222   3.879  0.7234  0.1324  0.2614
    4MOL0     C  444   2.101   6.250   3.857 -0.0110 -0.1081  0.4009
    4MOL0     C  445   2.238   6.275   3.839  0.0613  0.4618 -0.0506
    4MOL0     N  446   2.970   6.164   3.942  0.1000 -0.0580  1.1927
    4MOL0     N  447   3.069   6.117   4.009 -0.5227  0.2421  1.0490
    4MOL0     C  448   4.190   6.465   3.414  0.0452 -0.2524 -0.1369
    4MOL0     C  449   4.312   6.491   3.357  0.2944 -0.2564 -0.0228
    4MOL0     C  450   4.672   6.426   3.079 -0.3120 -0.0851  0.9467
    4MOL0     C  451   4.717   6.368   2.962  0.1734 -0.3183 -0.0605
    4MOL0     C  452   4.841   6.399   2.904  0.0932  0.5651 -0.3858
    4MOL0     C  453   4.921   6.498   2.967 -0.9527 -0.8263 -0.6411
    4MOL0     O  454   5.046   6.519   2.912  0.8595 -0.1105 -0.2238
    4MOL0     C  455   5.142   6.604   2.977 -0.1752 -0.0836 -0.0924
    4MOL0     C  456   5.273   6.620   2.887 -0.9021 -0.0691  0.7180
    4MOL0     C  457   5.342   6.486   2.891 -0.1927 -0.1759  0.5829
    4MOL0     C  458   5.450   6.484   2.785  0.2373 -0.1131 -0.3609
    4MOL0     C  459   5.546   6.382   2.835  0.0267  0.3146 -0.1215
    4MOL0     C  460   5.619   6.292   2.868  0.9201 -0.4316  0.2919
    4MOL0     C  461   4.880   6.550   3.088 -0.2022 -0.0645 -0.8871
    4MOL0     C  462   4.752   6.520   3.144 -0.3665  0.1269 -0.1919
    4MOL0     H  463   4.456   6.182   3.363 -1.0029 -0.9091 -0.5047
    4MOL0     H  464   4.227   6.131   3.442 -3.1837  1.4207  0.2454
    4MOL0     H  465   3.999   6.449   3.594 -0.2947  1.3669  1.2988
    4MOL0     H  466   4.022   6.276   3.652 -1.4778  0.0482  0.1745
    4MOL0     H  467   3.813   6.195   3.573 -3.0945 -0.1066 -0.7853
    4MOL0     H  468   3.755   6.351   3.537 -1.4109 -1.8645  0.4167
    4MOL0     H  469   3.772   6.420   3.776 -2.9405 -0.0165 -0.4448
    4MOL0     H  470   3.840   6.261   3.817 -2.0904  0.3911  2.9028
    4MOL0     H  471   3.553   6.316   3.710  1.0407  2.1435  1.2791
    4MOL0     H  472   3.627   6.155   3.737 -0.5313 -0.1478 -0.9404
    4MOL0     H  473   3.609   6.361   3.954  0.0998  0.3551  0.4149
    4MOL0     H  474   3.652   6.186   3.957 -1.0054  0.6561  2.1678
    4MOL0     H  475   3.408   6.126   3.904 -0.7797 -0.6108  1.5506
    4MOL0     H  476   3.378   6.295   3.862 -1.5503 -0.4817  0.1419
    4MOL0     H  477   3.477   6.220   4.144 -3.5674 -2.0384  2.1783
    4MOL0     H  478   3.396   6.366   4.091 -0.3755  0.6761 -3.7708
    4MOL0     H  479   3.248   6.257   4.210 -0.4569  2.4587 -1.2296
    4MOL0     H  480   3.275   6.101   4.140 -2.4534 -0.0696 -0.0900
    4MOL0     H  481   3.140   6.433   3.927 -1.3730 -0.4080 -0.5670
    4MOL0     H  482   2.905   6.319   3.720 -1.3853 -2.8954  1.3621
    4MOL0     H  483   2.930   6.478   3.799 -3.2433  0.5804  3.2674
    4MOL0     H  484   2.749   6.449   3.950  0.8977 -0.6421  0.9977
    4MOL0     H  485   2.734   6.275   3.920 -2.3631  1.3578  0.1211
    4MOL0     H  486   2.643   6.520   3.781  0.8231  0.4216  2.2270
    4MOL0     H  487   2.685   6.387   3.675 -2.1596  0.0971 -0.1753
    4MOL0     H  488   2.489   6.377   3.902 -1.7151 -1.7258  0.4614
    4MOL0     H  489   2.528   6.239   3.816 -0.5360  0.6707  2.6644
    4MOL0     H  490   2.237   6.446   3.552 -1.5902  0.4731  0.1152
    4MOL0     H  491   2.005   6.421   3.572 -0.2818  0.3593 -0.8633
    4MOL0     H  492   1.625   6.415   3.892  0.7123 -1.1953 -0.0561
    4MOL0     H  493   1.376   6.404   3.896  2.8591  1.7042  0.9574
    4MOL0     H  494   1.183   6.421   3.851  0.8613  1.0934 -2.6312
    4MOL0     H  495   1.131   6.259   3.862 -2.4515 -0.7576 -0.5359
    4MOL0     H  496   0.991   6.464   3.671 -2.5653 -0.1927  0.4759
    4MOL0     H  497   0.914   6.413   3.818 -1.9363 -0.9462 -1.1609
    4MOL0     H  498   0.977   6.254   3.565 -0.0613  0.6741 -0.5685
    4MOL0     H  499   0.823   6.309   3.619 -0.4216 -1.7942  0.7123
    4MOL0     H  500   0.983   6.106   3.784  2.5376  2.0299 -2.2292
    4MOL0     H  501   0.803   6.151   3.770 -1.7005 -2.4651 -1.8112
    4MOL0     H  502   0.958   6.004   3.560 -0.6937 -0.9319 -1.4292
    4MOL0     H  503   0.791   6.049   3.575 -1.8384 -2.5056  1.7738
    4MOL0     H  504   0.798   5.912   3.796  1.0799 -2.1477  1.7065
    4MOL0     H  505   0.958   5.850   3.733  0.2140 -0.2888 -1.6968
    4MOL0     H  506   0.773   5.785   3.523  1.3306 -1.5888  0.0464
    4MOL0     H  507   0.805   5.688   3.664 -1.8064 -0.3298 -0.0334
    4MOL0     H  508   0.560   5.755   3.608  2.1173  0.1678 -2.1926
    4MOL0     H  509   0.592   5.915   3.662  0.0639  0.8829 -0.4714
    4MOL0     H  510   1.365   6.265   3.497  1.1210 -3.0934  0.6762
    4MOL0     H  511   1.600   6.286   3.472 -0.0744 -0.3360  0.5847
    4MOL0     H  512   2.066   6.190   3.940  0.1036 -0.2042  0.3802
    4MOL0     H  513   2.317   6.236   3.903  0.6922 -1.1099 -1.6772
    4MOL0     H  514   4.117   6.544   3.427 -0.1745 -0.0232 -2.3497
    4MOL0     H  515   4.330   6.596   3.337 -1.0629  0.3749  1.8482
    4MOL0     H  516   4.660   6.286   2.919  1.0251  0.6186 -3.1601
    4MOL0     H  517   4.870   6.357   2.808  1.9318  3.5594 -1.3048
    4MOL0     H  518   5.163   6.562   3.076 -0.6461  1.1853  0.5819
    4MOL0     H  519   5.106   6.706   2.997  3.1522  1.1934 -0.0414
    4MOL0     H  520   5.256   6.654   2.784  0.5170 -1.7521 -0.1213
    4MOL0     H  521   5.337   6.701   2.925 -0.1774 -0.6934  0.8455
    4MOL0     H  522   5.277   6.401   2.871 -0.7427  0.0395  1.4408
    4MOL0     H  523   5.394   6.493   2.987  1.5989  0.8973 -0.4036
    4MOL0     H  524   5.421   6.462   2.682  4.1519 -0.4713 -1.5566
    4MOL0     H  525   5.509   6.575   2.770 -0.6373  0.4185 -0.6648
    4MOL0     H  526   5.680   6.209   2.899  1.4510  0.2633  1.1714
    4MOL0     H  527   4.934   6.629   3.139 -2.6042  0.3396  1.2232
    4MOL0     H  528   4.726   6.562   3.240  1.1472  2.5377 -0.7700
    5MOL0     O  529  10.277   2.414   9.645  0.4510  0.0691  0.2948
    5MOL0     C  530  10.328   2.373   9.538 -0.1240 -0.1072 -1.3679
    5MOL0     O  531  10.266   2.323   9.426  0.0734 -0.8917 -0.0876
    5MOL0     C  532  10.135   2.318   9.440 -0.7708  0.0256  0.7805
    5MOL0     C  533  10.054   2.425   9.418  0.1253 -0.2806 -0.6447
    5MOL0     C  534   9.918   2.421   9.426  0.5965  0.4183 -0.6164
    5MOL0     C  535   9.864   2.289   9.454  0.1850 -0.7664 -0.1939
    5MOL0     O  536   9.726   2.262   9.453  0.4014 -0.0370 -0.4367
    5MOL0     C  537   9.637   2.321   9.555 -0.9163 -0.6454 -0.1368
    5MOL0     C  538   9.500   2.267   9.534 -0.5082 -0.0742 -0.3212
    5MOL0     C  539   9.400   2.335   9.632 -0.2008  0.4538 -0.2319
    5MOL0     C  540   9.340   2.469   9.581  0.0754  0.4493  0.5552
    5MOL0     C  541   9.257   2.536   9.685 -0.3148  0.2549 -0.2603
    5MOL0     C  542   9.112   2.479   9.683 -1.4115 -0.7064 -0.0251
    5MOL0     C  543   9.026   2.559   9.774  0.0419  0.5560  1.0595
    5MOL0     C  544   8.901   2.477   9.819 -0.4897  0.0539 -0.6151
    5MOL0     N  545   8.804   2.564   9.888  0.9272 -0.9632  0.1003
    5MOL0     C  546   8.789   2.698   9.868 -0.2286 -0.0790  0.3931
    5MOL0     C  547   8.710   2.735   9.972 -0.0633  0.1059  0.1348
    5MOL0     C  548   8.658   2.870  10.001 -0.2542  0.2716 -0.6334
    5MOL0     C  549   8.765   2.966  10.049 -0.7852 -0.3271  1.5394
    5MOL0     C  550   8.820   2.945  10.197 -0.9217  0.4414 -0.1199
    5MOL0     C  551   8.964   3.003  10.216 -0.2544 -0.4841 -0.3341
    5MOL0     O  552   8.963   3.148  10.231 -0.3451  0.3587  0.1632
    5MOL0     C  553   9.078   3.209  10.266 -0.4620  0.1856 -0.3908
    5MOL0     C  554   9.065   3.347  10.298 -0.1829  0.4272 -0.7063
    5MOL0     C  555   9.180   3.422  10.324 -0.2911 -0.0283 -0.0358
    5MOL0     C  556   9.305   3.363  10.339 -0.1753  0.3227  0.0683
    5MOL0     C  557   9.430   3.444  10.358  0.1052 -0.1663 -0.0346
    5MOL0     O  558   9.553   3.390  10.327  0.4736 -0.0496 -0.1007
    5MOL0     C  559   9.660   3.472  10.363 -0.5427 -0.0303 -0.6244
    5MOL0     C  560   9.755   3.505  10.256  0.3101 -0.2620 -0.0174
    5MOL0     C  561   9.858   3.594  10.285  0.6153  0.4032  0.5627
    5MOL0     C  562   9.882   3.636  10.413  0.2914  0.1318 -0.8986
    5MOL0     O  563   9.992   3.714  10.450  0.2037  0.1523  0.3733
    5MOL0     C  564  10.115   3.672  10.388 -0.7345  0.2466 -0.3031
    5MOL0     C  565  10.228   3.682  10.492 -0.3066 -0.1903 -0.5444
    5MOL0     C  566  10.220   3.566  10.588  0.6336 -0.1243  0.7443
    5MOL0     C  567  10.331   3.577  10.692 -0.8181  0.0648 -0.5476
    5MOL0     C  568  10.323   3.458  10.794  0.0015 -0.5406  0.2324
    5MOL0     C  569  10.319   3.322  10.724 -0.5506 -0.1409 -0.5288
    5MOL0     C  570  10.451   3.280  10.663  0.5947 -0.8286  0.1052
    5MOL0     C  571  10.429   3.179  10.551  0.2381 -0.1311 -0.1481
    5MOL0    Cl  572  10.398   3.257  10.393 -0.2707 -0.3876  0.2462
    5MOL0     C  573   9.794   3.598  10.514  0.6338 -0.0875 -0.1466
    5MOL0     C  574   9.690   3.507  10.497  0.2870 -0.8187  0.6357
    5MOL0     O  575   9.412   3.560  10.403 -0.2373 -0.5309 -0.0423
    5MOL0     C  576   9.314   3.218  10.311 -0.4003 -0.5062 -0.0758
    5MOL0     C  577   9.203   3.151  10.266  0.8844 -0.7592  1.0890
    5MOL0     N  578   8.675   2.623  10.049 -0.1417 -0.1732 -0.4333
    5MOL0     N  579   8.743   2.531  10.007 -0.2264 -0.1006  0.0001
    5MOL0     C  580   9.947   2.176   9.463  0.0595 -0.0207  0.2048
    5MOL0     C  581  10.087   2.196   9.462  0.0959  0.2183  0.4753
    5MOL0     C  582  10.471   2.386   9.540 -0.4516 -0.0539  0.9179
    5MOL0     C  583  10.546   2.352   9.656 -0.6455 -0.3584  0.1948
    5MOL0     C  584  10.681   2.346   9.660  0.9135 -0.3553 -0.3586
    5MOL0     C  585  10.757   2.378   9.543 -0.2746  0.6586  0.2948
    5MOL0     O  586  10.897   2.380   9.548  0.5494  0.8203 -0.2059
    5MOL0     C  587  10.974   2.299   9.457 -1.0499  0.2966  0.2480
    5MOL0     C  588  10.970   2.146   9.491 -0.2801  0.0721 -0.6194
    5MOL0     C  589  11.096   2.063   9.499  0.4746  0.4317 -1.0376
    5MOL0     C  590  11.082   1.909   9.497 -0.6763 -0.0114  0.1343
    5MOL0     C  591  11.206   1.849   9.443 -0.9956 -0.1722  0.3585
    5MOL0     C  592  11.315   1.808   9.397  0.4277 -0.4441 -0.5576
    5MOL0     C  593  10.690   2.419   9.434  0.2080  0.1659  0.5369
    5MOL0     C  594  10.544   2.418   9.419 -0.4416  0.0769 -0.9501
    5MOL0     H  595  10.097   2.524   9.403  1.9279 -1.1832 -1.8184
    5MOL0     H  596   9.860   2.509   9.399  1.4685  0.5039 -2.3170
    5MOL0     H  597   9.645   2.430   9.554  3.0237 -0.7710  0.0851
    5MOL0     H  598   9.684   2.286   9.648  0.6912  0.5268 -0.4674
    5MOL0     H  599   9.506   2.161   9.562  3.2437  0.8377  3.3005
    5MOL0     H  600   9.464   2.283   9.432  3.6767  2.0343 -1.6516
    5MOL0     H  601   9.445   2.355   9.730  0.3302 -1.1271 -0.1124
    5MOL0     H  602   9.314   2.270   9.648 -0.8970  1.5370  0.5389
    5MOL0     H  603   9.421   2.537   9.552 -0.3516  0.7686  0.0916
    5MOL0     H  604   9.287   2.439   9.490 -3.9136  2.4494  1.9573
    5MOL0     H  605   9.258   2.642   9.658 -0.8837  0.1793 -0.5996
    5MOL0     H  606   9.294   2.528   9.788  0.4107 -0.0320 -0.5384
    5MOL0     H  607   9.110   2.374   9.713  0.0283 -0.1211  2.3187
    5MOL0     H  608   9.080   2.487   9.578 -1.1670 -0.6850 -0.0993
    5MOL0     H  609   9.078   2.584   9.866  2.2431 -0.6152  0.1971
    5MOL0     H  610   8.997   2.643   9.710 -3.8113 -0.2610  1.4948
    5MOL0     H  611   8.926   2.393   9.885  1.7401 -0.1815 -1.6820
    5MOL0     H  612   8.856   2.430   9.731 -0.8087 -1.4087  0.2897
    5MOL0     H  613   8.801   2.760   9.780 -0.7786 -0.2678  0.1800
    5MOL0     H  614   8.578   2.864  10.074  1.8853  0.4548  1.8774
    5MOL0     H  615   8.607   2.902   9.909 -1.3433 -0.0998 -0.1741
    5MOL0     H  616   8.722   3.067  10.048  1.7216  0.8233  0.7392
    5MOL0     H  617   8.855   2.973   9.986 -1.5578  1.8479  0.5859
    5MOL0     H  618   8.754   2.997  10.268  0.5915  1.3330  0.6768
    5MOL0     H  619   8.823   2.839  10.226 -1.0190  0.6467  0.6723
    5MOL0     H  620   9.041   2.973  10.144  3.6367  0.5959  3.0002
    5MOL0     H  621   8.995   2.970  10.316 -3.0427 -1.9619  0.1274
    5MOL0     H  622   8.972   3.401  10.283 -2.4556 -2.7200  0.8633
    5MOL0     H  623   9.192   3.530  10.330  0.7826 -0.1337 -0.1160
    5MOL0     H  624   9.739   3.459  10.159  1.8247 -1.5451  0.2988
    5MOL0     H  625   9.921   3.629  10.204  0.1310 -2.8929 -1.4622
    5MOL0     H  626  10.137   3.743  10.307  1.4050  0.5444  0.4761
    5MOL0     H  627  10.109   3.568  10.357 -0.7664 -0.2819  1.3709
    5MOL0     H  628  10.220   3.782  10.537  0.7192  1.8052 -4.3395
    5MOL0     H  629  10.328   3.680  10.446  0.5670  1.1164  1.1670
    5MOL0     H  630  10.239   3.471  10.537  0.9360 -0.2499  1.0952
    5MOL0     H  631  10.118   3.560  10.626 -0.7415  3.3434 -1.7888
    5MOL0     H  632  10.430   3.570  10.645  1.3572  1.8180  3.2942
    5MOL0     H  633  10.333   3.671  10.747  1.8809 -0.4915  0.4863
    5MOL0     H  634  10.227   3.464  10.846  0.2744 -0.9219  0.7827
    5MOL0     H  635  10.402   3.469  10.868 -0.0429  0.8420  0.1019
    5MOL0     H  636  10.233   3.318  10.657 -2.4637  2.0538  1.5976
    5MOL0     H  637  10.291   3.247  10.798 -2.0724 -1.3982 -2.2947
    5MOL0     H  638  10.500   3.373  10.631 -2.3456  1.5117  1.8147
    5MOL0     H  639  10.503   3.228  10.744  0.8114 -2.6806 -1.1649
    5MOL0     H  640  10.355   3.103  10.579 -2.2955  0.1615 -4.8906
    5MOL0     H  641  10.519   3.118  10.540 -0.1427 -1.0765  1.7027
    5MOL0     H  642   9.815   3.628  10.616 -2.1086 -0.0392  0.4755
    5MOL0     H  643   9.623   3.477  10.577 -1.6235 -2.3641 -1.4094
    5MOL0     H  644   9.408   3.164  10.313  0.9475  1.4754 -2.8754
    5MOL0     H  645   9.223   3.046  10.246  1.3572 -0.1429 -2.1777
    5MOL0     H  646   9.913   2.081   9.503  2.3682  0.1023  2.7260
    5MOL0     H  647  10.158   2.115   9.476 -0.6006 -0.4591  0.2033
    5MOL0     H  648  10.495   2.309   9.743  2.0645 -0.8591  1.6431
    5MOL0     H  649  10.734   2.312   9.749  2.3549  0.0812 -1.0156
    5MOL0     H  650  11.079   2.324   9.478 -1.5326  1.0683  1.8625
    5MOL0     H  651  10.956   2.328   9.353 -3.9818  0.9971  0.8828
    5MOL0     H  652  10.940   2.147   9.596 -1.8153  0.4175 -1.0411
    5MOL0     H  653  10.897   2.099   9.424 -1.2766  0.6348  0.0482
    5MOL0     H  654  11.149   2.087   9.591 -2.0925  2.5761  0.0135
    5MOL0     H  655  11.152   2.088   9.408 -0.9373  0.9873 -1.7910
    5MOL0     H  656  11.061   1.874   9.599 -0.4835  3.8725  1.6680
    5MOL0     H  657  10.994   1.883   9.437 -1.5311  2.3097  0.3219
    5MOL0     H  658  11.405   1.756   9.371 -0.8402 -2.4683 -1.1349
    5MOL0     H  659  10.751   2.461   9.355  0.5999  0.5319  1.0324
    5MOL0     H  660  10.493   2.451   9.329 -1.3160  0.9017 -0.1739
    6MOL0     O  661   6.070   5.015   3.832 -0.2842 -0.2548 -0.1671
    6MOL0     C  662   5.967   5.057   3.783 -0.9082  0.3811  0.1169
    6MOL0     O  663   5.843   5.019   3.804  0.5824 -0.0355  0.7766
    6MOL0     C  664   5.825   4.908   3.883 -0.0253 -0.3852  0.0667
    6MOL0     C  665   5.805   4.785   3.829 -0.3893  0.2369  0.2698
    6MOL0     C  666   5.783   4.667   3.905 -0.1949 -0.1419  0.3519
    6MOL0     C  667   5.789   4.673   4.046  0.1669  1.0406  0.8290
    6MOL0     O  668   5.781   4.557   4.113 -0.4819 -0.7781  0.6373
    6MOL0     C  669   5.787   4.551   4.254 -0.5376 -0.7227  0.3864
    6MOL0     C  670   5.767   4.399   4.288  0.4999 -0.7192 -1.0249
    6MOL0     C  671   5.633   4.364   4.235  0.6091  0.8071  0.7201
    6MOL0     C  672   5.582   4.230   4.284 -0.0041 -0.9996 -0.2578
    6MOL0     C  673   5.434   4.212   4.229 -0.0483 -1.0660 -0.3740
    6MOL0     C  674   5.434   4.184   4.077  0.4563  0.2953  0.2295
    6MOL0     C  675   5.291   4.208   4.034 -0.7886  1.0904 -0.2245
    6MOL0     C  676   5.255   4.124   3.910  0.7678  0.5340 -0.5903
    6MOL0     N  677   5.112   4.122   3.880 -0.0439  0.5048  0.1454
    6MOL0     C  678   5.056   4.103   3.752 -1.0455  0.2439  0.0613
    6MOL0     C  679   4.928   4.068   3.776 -0.1024  0.4607  0.7566
    6MOL0     C  680   4.841   4.044   3.657 -0.0993  0.0211  0.0250
    6MOL0     C  681   4.738   3.933   3.681 -0.2800 -0.6632 -0.0898
    6MOL0     C  682   4.660   3.918   3.560  0.4328 -1.1180  0.2755
    6MOL0     C  683   4.552   3.804   3.564 -0.2636  0.2828  0.5839
    6MOL0     O  684   4.493   3.788   3.433 -0.2561  0.5708  0.4579
    6MOL0     C  685   4.369   3.723   3.419 -0.1482 -0.7920  0.2229
    6MOL0     C  686   4.273   3.705   3.520  0.0901  0.3896  0.3559
    6MOL0     C  687   4.147   3.647   3.490  0.0312 -0.2917  1.2845
    6MOL0     C  688   4.112   3.627   3.357 -0.6124  0.2069 -0.2548
    6MOL0     C  689   3.973   3.592   3.312 -0.0121 -0.7623  0.3433
    6MOL0     O  690   3.945   3.602   3.178  0.6948  0.4688 -0.2747
    6MOL0     C  691   3.814   3.598   3.143  0.4792  0.1290  1.4291
    6MOL0     C  692   3.735   3.484   3.158  0.8615  0.1561  0.3558
    6MOL0     C  693   3.604   3.489   3.107  0.3595  0.4565 -1.5981
    6MOL0     C  694   3.548   3.598   3.060  0.2968 -0.1013 -0.3584
    6MOL0     O  695   3.417   3.595   3.015 -0.5215  0.2328 -0.4837
    6MOL0     C  696   3.336   3.627   3.128  0.5408  0.7323  0.6076
    6MOL0     C  697   3.183   3.581   3.090 -1.0594 -0.0659 -0.3755
    6MOL0     C  698   3.121   3.465   3.176  0.2466 -0.4310 -0.3782
    6MOL0     C  699   2.971   3.456   3.154  0.4447  0.0234  0.0866
    6MOL0     C  700   2.910   3.359   3.256  0.4561 -0.1373 -0.7397
    6MOL0     C  701   2.760   3.336   3.248  1.1725 -0.5566  0.0727
    6MOL0     C  702   2.722   3.229   3.143  0.3562 -0.9676 -0.5693
    6MOL0     C  703   2.562   3.204   3.152 -0.7701 -0.3714  0.1447
    6MOL0    Cl  704   2.524   3.064   3.038  0.2514 -0.0854 -0.0724
    6MOL0     C  705   3.622   3.707   3.045 -1.3857 -0.0767  0.3437
    6MOL0     C  706   3.752   3.712   3.089  1.1754 -0.0686  0.3416
    6MOL0     O  707   3.897   3.563   3.398 -0.0176  0.6865 -0.1654
    6MOL0     C  708   4.212   3.638   3.256  0.4316  0.8016 -0.5511
    6MOL0     C  709   4.340   3.678   3.288  0.2166  0.1226 -0.1127
    6MOL0     N  710   4.904   4.058   3.910  0.7211 -0.0232 -0.1701
    6MOL0     N  711   5.009   4.108   3.974  0.0926 -0.1412 -0.9695
    6MOL0     C  712   5.813   4.801   4.104  0.3696 -0.9626 -0.2206
    6MOL0     C  713   5.825   4.917   4.020  0.0077  0.4678 -0.3548
    6MOL0     C  714   5.980   5.156   3.665  0.0667  1.2809 -1.0525
    6MOL0     C  715   5.868   5.195   3.585 -0.5242  0.7162 -1.4145
    6MOL0     C  716   5.892   5.266   3.471  0.1679 -0.3791 -0.2580
    6MOL0     C  717   6.026   5.306   3.430 -0.0532 -0.2456 -0.1287
    6MOL0     O  718   6.025   5.389   3.318  0.2859 -0.3253 -0.5046
    6MOL0     C  719   6.151   5.438   3.265  0.8339  0.1123 -0.0417
    6MOL0     C  720   6.131   5.576   3.189  0.6380 -0.0263  0.4455
    6MOL0     C  721   6.104   5.695   3.280 -0.9522  0.1141  0.2680
    6MOL0     C  722   6.103   5.823   3.199 -0.1044  0.9233  0.3808
    6MOL0     C  723   5.981   5.817   3.122  0.3529  0.0678  0.8020
    6MOL0     C  724   5.873   5.797   3.073 -0.5360  0.5505  0.1126
    6MOL0     C  725   6.135   5.252   3.503 -0.0915 -0.2348  0.4356
    6MOL0     C  726   6.111   5.187   3.619 -0.2239  1.0349  0.1322
    6MOL0     H  727   5.809   4.774   3.721  3.0284 -0.8404  0.3829
    6MOL0     H  728   5.773   4.572   3.854  1.2685  0.3103 -0.8692
    6MOL0     H  729   5.713   4.613   4.305 -2.2235 -2.6117  0.3576
    6MOL0     H  730   5.887   4.578   4.290  0.3466 -2.7067 -0.4374
    6MOL0     H  731   5.758   4.387   4.396  0.8815 -1.8081 -1.0981
    6MOL0     H  732   5.837   4.326   4.246  0.2919 -1.7760  0.4015
    6MOL0     H  733   5.626   4.368   4.126 -0.0689  1.2860  0.7695
    6MOL0     H  734   5.567   4.445   4.270 -0.5687  0.1556  0.0880
    6MOL0     H  735   5.652   4.157   4.242  1.5880 -0.7775  1.8435
    6MOL0     H  736   5.586   4.232   4.393  0.4783 -0.4748 -0.2831
    6MOL0     H  737   5.367   4.296   4.244 -1.8628 -2.7249  1.3436
    6MOL0     H  738   5.383   4.130   4.280  2.1522 -0.5730  2.9229
    6MOL0     H  739   5.470   4.083   4.056  4.1374  1.2705  1.1115
    6MOL0     H  740   5.494   4.253   4.019  1.0416  1.4116  2.0791
    6MOL0     H  741   5.228   4.178   4.119  2.2788 -2.3036  1.1312
    6MOL0     H  742   5.289   4.316   4.016  4.7348  1.7179  1.3481
    6MOL0     H  743   5.293   4.023   3.924  1.5914  0.6635 -1.7537
    6MOL0     H  744   5.303   4.173   3.824  1.3528  1.8253  0.4433
    6MOL0     H  745   5.103   4.128   3.658  1.8641  0.4250  1.4402
    6MOL0     H  746   4.894   4.021   3.564  2.2343  0.3105  1.1972
    6MOL0     H  747   4.791   4.140   3.638  2.3371  1.7594  1.6754
    6MOL0     H  748   4.668   3.961   3.760  0.3005 -3.7919  1.6891
    6MOL0     H  749   4.796   3.843   3.703  0.5884 -0.2407 -0.5679
    6MOL0     H  750   4.618   4.017   3.539 -0.1764 -0.4387  4.0681
    6MOL0     H  751   4.733   3.884   3.486  0.6540 -0.3208  0.1133
    6MOL0     H  752   4.481   3.806   3.647  0.6819 -2.0670  1.5547
    6MOL0     H  753   4.608   3.714   3.592 -0.8233  0.6525  3.1446
    6MOL0     H  754   4.282   3.721   3.627 -2.2985  0.9863  0.5356
    6MOL0     H  755   4.064   3.639   3.560 -0.4366 -2.4909  0.5638
    6MOL0     H  756   3.780   3.388   3.179  0.2437 -0.2841 -0.2723
    6MOL0     H  757   3.559   3.390   3.113  2.1746 -0.4318 -1.9386
    6MOL0     H  758   3.336   3.733   3.155  1.4923  0.9908 -0.3198
    6MOL0     H  759   3.376   3.571   3.213  1.4788  2.0835  1.0852
    6MOL0     H  760   3.177   3.547   2.986  2.5976 -6.0929  0.8941
    6MOL0     H  761   3.122   3.670   3.110 -0.6417  0.7588 -2.4739
    6MOL0     H  762   3.125   3.484   3.284 -0.4468 -2.0390 -0.0283
    6MOL0     H  763   3.164   3.368   3.148 -0.4118 -2.0203  3.3908
    6MOL0     H  764   2.923   3.554   3.150 -2.2927 -1.2608 -0.7666
    6MOL0     H  765   2.949   3.420   3.053 -0.9637  3.3790 -0.9458
    6MOL0     H  766   2.935   3.419   3.345  0.9354  0.2225 -1.1106
    6MOL0     H  767   2.963   3.264   3.269  0.1909  0.0345  2.5340
    6MOL0     H  768   2.709   3.427   3.216 -1.8464 -2.1540 -0.0539
    6MOL0     H  769   2.721   3.299   3.343 -0.9568  1.0666 -0.1040
    6MOL0     H  770   2.755   3.270   3.047  1.9494  0.8511  0.6766
    6MOL0     H  771   2.771   3.134   3.162 -0.5910 -1.6505 -1.4825
    6MOL0     H  772   2.492   3.284   3.126  1.2794  0.9989 -1.4617
    6MOL0     H  773   2.539   3.170   3.253 -0.4983 -2.8432 -0.5752
    6MOL0     H  774   3.573   3.791   2.997 -1.8402 -1.0563 -0.9585
    6MOL0     H  775   3.807   3.805   3.082 -0.4039  0.9090  0.5644
    6MOL0     H  776   4.200   3.611   3.152  0.2201 -0.8906 -0.1339
    6MOL0     H  777   4.409   3.677   3.204  1.5257 -1.4288  0.9188
    6MOL0     H  778   5.834   4.842   4.202 -0.1179  3.5006 -1.7589
    6MOL0     H  779   5.821   5.012   4.071  1.8103  1.1812 -1.4579
    6MOL0     H  780   5.768   5.158   3.609 -0.2232  2.2575  3.1168
    6MOL0     H  781   5.818   5.317   3.411  0.8913  2.5457  1.1643
    6MOL0     H  782   6.185   5.360   3.197  0.2292  0.2281 -0.4766
    6MOL0     H  783   6.226   5.460   3.342  0.5986 -3.1690  1.2738
    6MOL0     H  784   6.220   5.596   3.129  0.0875 -1.8944 -1.0929
    6MOL0     H  785   6.039   5.554   3.135  0.4342  0.0023  0.7771
    6MOL0     H  786   6.191   5.708   3.344 -1.6042 -0.0837  1.2123
    6MOL0     H  787   6.023   5.672   3.349 -1.7560 -2.2128 -1.3222
    6MOL0     H  788   6.126   5.916   3.253  3.6351  0.2685  0.1649
    6MOL0     H  789   6.192   5.808   3.138 -0.2020  2.9599 -0.3286
    6MOL0     H  790   5.772   5.789   3.039  0.0257  0.5385 -1.6824
    6MOL0     H  791   6.229   5.269   3.453  0.8044 -3.8566  0.6397
    6MOL0     H  792   6.196   5.143   3.672 -1.6439 -1.9241  0.1520
    7MOL0     O  793   7.142   7.111   0.857  0.1337 -0.0841 -0.1701
    7MOL0     C  794   7.261   7.099   0.891 -0.8264  0.5798  0.4974
    7MOL0     O  795   7.354   7.009   0.834  0.2138 -0.6992  0.5054
    7MOL0     C  796   7.334   6.941   0.718  0.4206  0.4296  0.1096
    7MOL0     C  797   7.275   7.002   0.616  0.0219  0.1763 -0.1873
    7MOL0     C  798   7.248   6.927   0.500 -0.7793  0.1170  0.5367
    7MOL0     C  799   7.279   6.796   0.484  0.2476 -0.0212  1.2604
    7MOL0     O  800   7.239   6.737   0.368  0.6027 -0.4475  0.1646
    7MOL0     C  801   7.253   6.596   0.342  0.0090 -0.0473 -0.0031
    7MOL0     C  802   7.173   6.567   0.213  0.4988  0.4186 -0.5307
    7MOL0     C  803   7.242   6.636   0.095 -0.2366  0.3681 -0.4245
    7MOL0     C  804   7.178   6.593  -0.041  0.8416  0.1980 -0.6067
    7MOL0     C  805   7.026   6.623  -0.062 -0.2911  1.1227  0.2305
    7MOL0     C  806   6.992   6.773  -0.042  0.1268  0.0218  0.1048
    7MOL0     C  807   6.837   6.789  -0.067  0.4578  0.2407 -0.1716
    7MOL0     C  808   6.781   6.896   0.028  0.4943  0.2069 -0.3659
    7MOL0     N  809   6.844   7.031   0.015 -0.4394 -0.3035 -0.8578
    7MOL0     C  810   6.941   7.072   0.105 -0.6383 -0.1182  0.5142
    7MOL0     C  811   6.985   7.184   0.042 -0.1212  0.8681  0.0312
    7MOL0     C  812   7.085   7.276   0.101 -0.2064  0.3533 -0.5873
    7MOL0     C  813   7.223   7.212   0.089 -1.1306  0.2507 -0.8424
    7MOL0     C  814   7.337   7.299   0.148 -0.1897 -0.7149  0.3260
    7MOL0     C  815   7.481   7.242   0.155 -0.0589  0.2366  1.2269
    7MOL0     O  816   7.480   7.140   0.253 -0.0060 -0.6870  0.1190
    7MOL0     C  817   7.527   7.010   0.220  0.3301  0.9018 -0.0955
    7MOL0     C  818   7.547   6.918   0.324 -0.7484 -0.5079 -0.7599
    7MOL0     C  819   7.590   6.786   0.300  0.2095 -0.5310  1.0660
    7MOL0     C  820   7.633   6.739   0.168  0.3520 -0.8543  0.6797
    7MOL0     C  821   7.673   6.598   0.141  0.4067 -0.5665  0.1783
    7MOL0     O  822   7.605   6.548   0.039  0.9506 -0.7168  0.3323
    7MOL0     C  823   7.605   6.411   0.012 -0.2214  0.2438  0.2143
    7MOL0     C  824   7.707   6.323   0.042 -0.1289  0.4574  0.3373
    7MOL0     C  825   7.672   6.187   0.021  0.2076 -0.1630  0.5087
    7MOL0     C  826   7.566   6.142  -0.056  0.8037  0.0973 -1.0835
    7MOL0     O  827   7.539   6.018  -0.105 -0.6034  0.2725  0.0261
    7MOL0     C  828   7.656   5.946  -0.134 -0.0110  0.4346  0.0927
    7MOL0     C  829   7.620   5.856  -0.249 -0.0854 -1.0545  0.1047
    7MOL0     C  830   7.500   5.764  -0.220  0.8055  0.9855  0.0898
    7MOL0     C  831   7.360   5.820  -0.268 -0.3326 -0.3409 -0.0170
    7MOL0     C  832   7.240   5.728  -0.225 -0.8559 -0.1904 -1.0395
    7MOL0     C  833   7.121   5.748  -0.313  0.3138 -0.3117  0.7658
    7MOL0     C  834   6.995   5.690  -0.239 -0.5418  0.2926  0.0207
    7MOL0     C  835   6.857   5.726  -0.292 -0.0582 -0.7586 -0.3336
    7MOL0    Cl  836   6.814   5.893  -0.257  0.0531  0.0372 -0.4199
    7MOL0     C  837   7.474   6.234  -0.104 -0.0466  0.8524 -0.4127
    7MOL0     C  838   7.495   6.364  -0.058 -0.1938  0.1567 -0.3565
    7MOL0     O  839   7.742   6.538   0.219  0.4739 -0.2096 -0.7843
    7MOL0     C  840   7.603   6.824   0.060 -0.3038  0.5991 -0.1021
    7MOL0     C  841   7.550   6.950   0.095  0.9141 -0.7306  0.3682
    7MOL0     N  842   6.921   7.210  -0.077  0.5350 -0.2262 -0.0601
    7MOL0     N  843   6.836   7.113  -0.089  0.7383 -0.2584 -0.3141
    7MOL0     C  844   7.362   6.743   0.584 -0.1052  0.6300  0.0412
    7MOL0     C  845   7.396   6.813   0.697  0.6327 -0.6126  0.4069
    7MOL0     C  846   7.312   7.175   1.005  0.2708  0.0985  0.2393
    7MOL0     C  847   7.231   7.277   1.062  0.1504  0.3346  0.0608
    7MOL0     C  848   7.269   7.356   1.168 -0.4946  0.3008 -0.1894
    7MOL0     C  849   7.405   7.344   1.207  0.3600  0.1602 -0.6734
    7MOL0     O  850   7.443   7.402   1.322 -0.3430 -1.0045 -0.2876
    7MOL0     C  851   7.564   7.472   1.335 -0.1913  0.5234 -1.1324
    7MOL0     C  852   7.538   7.568   1.460 -0.9806 -0.2112  0.8180
    7MOL0     C  853   7.518   7.486   1.595 -0.1925 -0.4304  0.8885
    7MOL0     C  854   7.461   7.585   1.703 -0.0633 -0.3831 -0.0633
    7MOL0     C  855   7.475   7.515   1.836  0.1600  0.0226  0.3011
    7MOL0     C  856   7.491   7.454   1.941 -0.0813 -0.5028  0.4876
    7MOL0     C  857   7.489   7.259   1.145 -0.3252 -0.4542  0.2447
    7MOL0     C  858   7.443   7.169   1.054 -0.1065 -0.3951  0.6404
    7MOL0     H  859   7.232   7.101   0.624 -0.1021  0.1847 -0.8966
    7MOL0     H  860   7.199   6.980   0.419 -1.1517 -2.9980 -1.4212
    7MOL0     H  861   7.186   6.546   0.413 -1.9435  1.2113 -0.8846
    7MOL0     H  862   7.357   6.565   0.333 -0.4382 -2.2610  1.4093
    7MOL0     H  863   7.071   6.605   0.220 -1.6095 -4.4159 -0.5600
    7MOL0     H  864   7.172   6.459   0.194 -3.1910  0.4265 -0.9482
    7MOL0     H  865   7.348   6.613   0.085  0.0030  2.1366 -2.6464
    7MOL0     H  866   7.241   6.742   0.120 -2.0572 -0.4833  4.1481
    7MOL0     H  867   7.234   6.652  -0.113 -1.4421  2.9270 -0.3225
    7MOL0     H  868   7.199   6.491  -0.074 -0.9836  0.0606 -1.4569
    7MOL0     H  869   6.970   6.562   0.009 -0.6162 -1.4480 -2.0384
    7MOL0     H  870   7.008   6.594  -0.166 -0.0943  1.8438 -0.0128
    7MOL0     H  871   7.040   6.845  -0.108 -2.3884 -1.7661 -4.0794
    7MOL0     H  872   6.998   6.810   0.061 -0.9017  0.9603 -0.1426
    7MOL0     H  873   6.818   6.801  -0.174  1.9962  0.9736 -0.3991
    7MOL0     H  874   6.792   6.692  -0.047  0.1516  0.5773  0.8528
    7MOL0     H  875   6.797   6.864   0.131  0.9170 -1.1512 -0.8252
    7MOL0     H  876   6.673   6.898   0.012  0.2083 -0.2732  1.3164
    7MOL0     H  877   6.972   7.024   0.197  0.7485 -0.1247  0.0550
    7MOL0     H  878   7.065   7.285   0.208 -1.5504 -1.7800 -0.5922
    7MOL0     H  879   7.081   7.379   0.067  1.5760  0.1777 -1.4417
    7MOL0     H  880   7.244   7.206  -0.018  0.3558 -2.7358 -0.4974
    7MOL0     H  881   7.224   7.118   0.145 -2.3033  0.5303 -0.3349
    7MOL0     H  882   7.338   7.390   0.087 -3.2736  0.1070  1.3150
    7MOL0     H  883   7.310   7.337   0.247  2.9522  5.2177 -0.6452
    7MOL0     H  884   7.560   7.310   0.188 -1.7673  3.0288 -0.0727
    7MOL0     H  885   7.496   7.214   0.050 -2.8117  1.1702  0.5179
    7MOL0     H  886   7.523   6.943   0.427 -1.1783 -0.8262 -0.7810
    7MOL0     H  887   7.597   6.707   0.374 -0.3118 -0.9519  0.6715
    7MOL0     H  888   7.803   6.339   0.090  1.3036 -5.6397  0.3776
    7MOL0     H  889   7.750   6.117   0.049  0.7623  0.4175  0.4407
    7MOL0     H  890   7.681   5.875  -0.055  0.0629  0.9634  0.5460
    7MOL0     H  891   7.742   6.008  -0.159 -1.4169  2.3889 -0.0842
    7MOL0     H  892   7.705   5.797  -0.285  0.4683 -0.6445  0.7224
    7MOL0     H  893   7.594   5.926  -0.328 -0.6731  1.1071  2.0792
    7MOL0     H  894   7.491   5.746  -0.113 -1.9981  0.0987 -0.1871
    7MOL0     H  895   7.518   5.668  -0.269  2.4370  1.8808 -1.1543
    7MOL0     H  896   7.343   5.920  -0.226 -1.7663 -2.0834  4.0655
    7MOL0     H  897   7.352   5.816  -0.377 -0.0450 -1.3227 -0.0075
    7MOL0     H  898   7.222   5.758  -0.122 -1.3084 -0.4804 -1.0326
    7MOL0     H  899   7.272   5.624  -0.238 -2.2135 -0.3939 -3.4133
    7MOL0     H  900   7.119   5.711  -0.416 -5.4168  2.1859 -0.4385
    7MOL0     H  901   7.101   5.855  -0.327  1.0733 -0.3996 -1.4451
    7MOL0     H  902   7.010   5.583  -0.226 -1.4140  0.1990  0.3309
    7MOL0     H  903   6.989   5.722  -0.134  1.6724 -2.7793  1.2182
    7MOL0     H  904   6.782   5.662  -0.244 -1.1009 -0.0895 -1.0230
    7MOL0     H  905   6.843   5.698  -0.397 -3.0975  1.2761 -0.6158
    7MOL0     H  906   7.393   6.207  -0.171  0.2184 -2.6600  0.4887
    7MOL0     H  907   7.413   6.433  -0.074 -2.8192 -2.6092  0.2916
    7MOL0     H  908   7.602   6.788  -0.042 -0.9738  1.6078 -0.4688
    7MOL0     H  909   7.531   7.001   0.001  0.6435  1.0357  1.3393
    7MOL0     H  910   7.389   6.639   0.565 -2.2810 -0.2571  1.4300
    7MOL0     H  911   7.443   6.771   0.785  1.2534  1.0851  0.9170
    7MOL0     H  912   7.131   7.278   1.020  0.2556  1.5677 -0.2062
    7MOL0     H  913   7.198   7.415   1.224  2.1356  1.5506  2.0392
    7MOL0     H  914   7.578   7.529   1.242  0.9928 -1.6883 -2.3892
    7MOL0     H  915   7.645   7.404   1.362 -1.6383 -0.0845  2.1714
    7MOL0     H  916   7.626   7.631   1.475  1.2313 -3.1849  1.2436
    7MOL0     H  917   7.443   7.623   1.451  0.7530  3.0803  0.9870
    7MOL0     H  918   7.616   7.449   1.628  0.6116  0.4593 -0.3854
    7MOL0     H  919   7.455   7.399   1.575  0.1147 -0.3602 -0.5403
    7MOL0     H  920   7.527   7.672   1.716  1.8312 -2.0493  2.5935
    7MOL0     H  921   7.357   7.609   1.681  0.4159  1.3653 -0.5341
    7MOL0     H  922   7.509   7.403   2.033  2.1607  0.7106  0.8079
    7MOL0     H  923   7.588   7.243   1.187 -1.2195 -1.1617  2.2166
    7MOL0     H  924   7.512   7.095   1.015  0.3724 -0.4787  1.6036
    8MOL0     O  925   7.062   9.263  10.703  0.0594 -0.6228  0.5984
    8MOL0     C  926   7.104   9.333  10.611 -0.4956 -0.3564 -0.0214
    8MOL0     O  927   7.088   9.300  10.481  0.4434 -0.1874  0.1489
    8MOL0     C  928   7.018   9.181  10.454  0.3927 -0.9338 -0.6061
    8MOL0     C  929   7.077   9.057  10.477  1.2435  0.0646  0.2854
    8MOL0     C  930   7.004   8.939  10.461  0.0066  0.2935 -0.3593
    8MOL0     C  931   6.870   8.937  10.407  0.3553 -0.0750 -0.4140
    8MOL0     O  932   6.792   8.827  10.413  0.4796  0.4531  0.6846
    8MOL0     C  933   6.797   8.747  10.536 -0.0404  0.3150  0.0822
    8MOL0     C  934   6.681   8.651  10.547  0.1530  0.6212 -1.0127
    8MOL0     C  935   6.545   8.733  10.565 -0.8391  0.4500  0.6182
    8MOL0     C  936   6.435   8.642  10.614 -0.1132  0.9010 -0.7154
    8MOL0     C  937   6.301   8.714  10.602  0.0830  0.5291 -0.0792
    8MOL0     C  938   6.187   8.628  10.665  0.1981  0.4145 -0.6657
    8MOL0     C  939   6.049   8.688  10.642  0.3595 -0.7992 -0.5305
    8MOL0     C  940   6.043   8.833  10.699  0.6444  1.0211 -0.5163
    8MOL0     N  941   5.914   8.900  10.675  0.6229  0.4471  0.0584
    8MOL0     C  942   5.877   8.955  10.557 -0.4179 -0.9417  1.0742
    8MOL0     C  943   5.751   9.001  10.574 -0.9324 -0.0420 -0.6429
    8MOL0     C  944   5.669   9.065  10.462 -0.1892 -0.2775 -0.8969
    8MOL0     C  945   5.517   9.045  10.490 -0.0919  0.9710  0.0982
    8MOL0     C  946   5.484   8.905  10.450 -0.5658 -0.5683 -1.2819
    8MOL0     C  947   5.340   8.870  10.467 -0.4927 -0.8477  0.6101
    8MOL0     O  948   5.320   8.860  10.607 -0.1171 -0.3685 -0.0484
    8MOL0     C  949   5.212   8.799  10.658 -0.2838  0.7452  0.0776
    8MOL0     C  950   5.109   8.742  10.587  0.0713 -0.3763  0.3690
    8MOL0     C  951   4.999   8.693  10.649  0.4090 -0.3344 -0.0528
    8MOL0     C  952   4.987   8.684  10.788 -0.5720  1.1904  0.0618
    8MOL0     C  953   4.861   8.628  10.859 -0.9603  0.6371 -0.5144
    8MOL0     O  954   4.789   8.554  10.792 -1.0532  0.3824 -0.4132
    8MOL0     C  955   4.677   8.503  10.864  0.2950 -0.6376  0.7826
    8MOL0     C  956   4.551   8.558  10.855  0.0850 -0.0411 -0.1711
    8MOL0     C  957   4.447   8.498  10.919 -0.3698 -0.2129 -0.5465
    8MOL0     C  958   4.470   8.394  11.013 -0.3607 -0.2834  1.0209
    8MOL0     O  959   4.365   8.324  11.067  0.1823 -0.4415  0.7817
    8MOL0     C  960   4.284   8.402  11.155 -0.5786 -0.3987 -0.2028
    8MOL0     C  961   4.213   8.306  11.240 -0.0791 -1.2677 -0.3043
    8MOL0     C  962   4.081   8.271  11.163  0.0309  0.3661  0.1437
    8MOL0     C  963   3.970   8.366  11.190  0.3742 -0.3866 -0.2008
    8MOL0     C  964   3.851   8.329  11.110 -0.5558 -0.1568 -0.1701
    8MOL0     C  965   3.756   8.448  11.139 -0.7260  0.3560  0.0991
    8MOL0     C  966   3.607   8.415  11.090 -0.8363  0.5313 -0.3299
    8MOL0     C  967   3.522   8.541  11.085  0.3730  0.1507  0.8899
    8MOL0    Cl  968   3.354   8.516  11.035 -0.0781  0.4919  0.8543
    8MOL0     C  969   4.602   8.334  11.015  0.3177 -0.0672 -0.6948
    8MOL0     C  970   4.707   8.398  10.952 -0.6755 -0.7298 -1.2879
    8MOL0     O  971   4.845   8.659  10.980  0.1201  0.2439  1.0896
    8MOL0     C  972   5.096   8.728  10.867 -1.0858  0.7670  0.9003
    8MOL0     C  973   5.208   8.790  10.802 -0.4368 -0.1415 -0.0156
    8MOL0     N  974   5.722   8.977  10.708 -0.2783  0.0848  0.1411
    8MOL0     N  975   5.818   8.924  10.774 -0.7711  0.1847  0.7364
    8MOL0     C  976   6.818   9.067  10.375 -0.1162  0.0503 -0.2601
    8MOL0     C  977   6.891   9.190  10.401  0.1514  0.1289  0.3963
    8MOL0     C  978   7.143   9.468  10.631 -0.9603 -0.1655 -0.5341
    8MOL0     C  979   7.182   9.553  10.529  0.2035  0.4391 -0.5846
    8MOL0     C  980   7.244   9.681  10.552  0.2982  0.0659  0.1917
    8MOL0     C  981   7.281   9.713  10.683  0.7754  0.2781 -0.1858
    8MOL0     O  982   7.337   9.835  10.710 -0.0750 -0.5458  0.9777
    8MOL0     C  983   7.444   9.838  10.810  0.5596  0.5110  0.2973
    8MOL0     C  984   7.516   9.977  10.819  0.1211  0.4219 -0.7640
    8MOL0     C  985   7.624   9.984  10.921 -0.4990 -0.3647  0.5626
    8MOL0     C  986   7.749   9.924  10.856  0.1302  0.2451  0.1527
    8MOL0     C  987   7.852   9.927  10.956 -0.4537  0.2548 -0.3302
    8MOL0     C  988   7.946   9.922  11.037  0.1164 -0.2600  1.6124
    8MOL0     C  989   7.237   9.633  10.793  0.2034 -0.2525 -0.1468
    8MOL0     C  990   7.171   9.515  10.761 -0.1425  0.7149 -1.4899
    8MOL0     H  991   7.179   9.052  10.513  1.0873  0.3845  0.7933
    8MOL0     H  992   7.051   8.843  10.482  1.2132  0.8088 -0.6463
    8MOL0     H  993   6.786   8.818  10.618  0.5445 -1.0187  1.3507
    8MOL0     H  994   6.891   8.693  10.547  0.8008  1.7246  0.1488
    8MOL0     H  995   6.700   8.596  10.640  1.4025  1.6258 -0.6529
    8MOL0     H  996   6.686   8.577  10.467  2.1656 -0.6098  0.1684
    8MOL0     H  997   6.528   8.777  10.466  1.6550 -0.5265 -0.3326
    8MOL0     H  998   6.552   8.817  10.635 -2.5702 -0.0022  1.3904
    8MOL0     H  999   6.426   8.547  10.561  3.5481 -0.8097  1.3533
    8MOL0     H 1000   6.448   8.613  10.718 -2.1461 -1.3922 -1.0052
    8MOL0     H 1001   6.278   8.732  10.496 -3.6976 -1.1489  0.2703
    8MOL0     H 1002   6.304   8.816  10.641 -0.2188  0.4583  0.1345
    8MOL0     H 1003   6.207   8.619  10.772  1.6124  0.3110 -0.9143
    8MOL0     H 1004   6.184   8.523  10.636 -2.2417  0.2792 -0.1507
    8MOL0     H 1005   6.021   8.687  10.536 -2.0285 -0.7168  0.0492
    8MOL0     H 1006   5.977   8.633  10.702  3.2078 -2.7808  1.3254
    8MOL0     H 1007   6.119   8.900  10.656  1.3225  0.6370  0.0596
    8MOL0     H 1008   6.050   8.834  10.808  1.6869  2.6552 -0.5622
    8MOL0     H 1009   5.935   8.965  10.466  1.5968  2.4585  2.5451
    8MOL0     H 1010   5.696   9.018  10.367 -0.1186 -3.5251  0.6039
    8MOL0     H 1011   5.693   9.171  10.447  0.2934 -0.4057 -1.0583
    8MOL0     H 1012   5.455   9.103  10.421 -2.3878 -0.2847  1.0095
    8MOL0     H 1013   5.488   9.069  10.592 -0.2362  0.0995  0.2707
    8MOL0     H 1014   5.511   8.899  10.344  0.9824 -4.8927 -0.8208
    8MOL0     H 1015   5.547   8.838  10.509  1.3654  1.4940 -0.8804
    8MOL0     H 1016   5.336   8.775  10.412 -1.3544 -0.1110 -0.6779
    8MOL0     H 1017   5.278   8.940  10.409  1.9705 -0.2124 -1.4542
    8MOL0     H 1018   5.106   8.751  10.478  0.2183 -1.5301  0.2587
    8MOL0     H 1019   4.921   8.665  10.580 -0.2227 -1.8458  1.2137
    8MOL0     H 1020   4.529   8.647  10.795  0.1950  1.5612  2.0433
    8MOL0     H 1021   4.344   8.523  10.895 -1.1486 -2.3394  0.3170
    8MOL0     H 1022   4.219   8.474  11.105  0.0047 -1.6731 -2.9352
    8MOL0     H 1023   4.361   8.452  11.216 -2.7616  0.8123  1.7554
    8MOL0     H 1024   4.180   8.346  11.337  2.0060 -1.0482  0.3684
    8MOL0     H 1025   4.277   8.218  11.250  0.7326 -0.8278 -1.3995
    8MOL0     H 1026   4.058   8.173  11.207  0.8967  0.8572  1.7552
    8MOL0     H 1027   4.102   8.263  11.056 -0.5619  3.1783 -0.2448
    8MOL0     H 1028   3.948   8.361  11.297  2.3797 -0.5560  0.2461
    8MOL0     H 1029   4.002   8.464  11.152 -1.4646 -0.9480 -3.5896
    8MOL0     H 1030   3.814   8.239  11.158  0.3262 -1.7792 -2.3540
    8MOL0     H 1031   3.872   8.312  11.004 -0.6798 -3.2275  0.2231
    8MOL0     H 1032   3.795   8.530  11.079 -0.5711  0.5076  0.4079
    8MOL0     H 1033   3.762   8.459  11.247  0.4429  0.6858  0.0105
    8MOL0     H 1034   3.624   8.376  10.989 -1.8548 -1.1576  0.1175
    8MOL0     H 1035   3.572   8.330  11.150 -2.4297  1.4066  0.0060
    8MOL0     H 1036   3.567   8.616  11.020 -4.3357  1.1270 -1.6671
    8MOL0     H 1037   3.531   8.582  11.186 -0.4636  1.4827  0.4448
    8MOL0     H 1038   4.613   8.261  11.095  0.7362  0.8118  0.0739
    8MOL0     H 1039   4.809   8.373  10.979 -0.4915  2.5375  1.7891
    8MOL0     H 1040   5.096   8.720  10.976 -2.0191 -0.6096  0.8269
    8MOL0     H 1041   5.295   8.817  10.860  1.0325 -3.0177 -0.6882
    8MOL0     H 1042   6.718   9.081  10.335 -0.4459 -2.2420 -0.3290
    8MOL0     H 1043   6.843   9.286  10.386 -1.2403  0.1226  3.9200
    8MOL0     H 1044   7.168   9.522  10.426  2.2740 -0.8267 -0.5521
    8MOL0     H 1045   7.258   9.747  10.467 -0.6548 -1.2363 -1.0129
    8MOL0     H 1046   7.525   9.773  10.775 -2.5527 -1.6843 -3.7720
    8MOL0     H 1047   7.399   9.811  10.905 -3.0867 -3.3669 -2.1839
    8MOL0     H 1048   7.555   9.997  10.718 -1.4700 -0.0969 -1.5104
    8MOL0     H 1049   7.441  10.053  10.841  0.4561  0.7785 -0.8347
    8MOL0     H 1050   7.597   9.946  11.020 -0.0192  1.9736  1.6601
    8MOL0     H 1051   7.646  10.089  10.946 -0.2685 -0.8530  2.5219
    8MOL0     H 1052   7.726   9.822  10.825  1.0613 -0.1850  0.8135
    8MOL0     H 1053   7.797   9.979  10.774 -1.3247  2.0637  0.4577
    8MOL0     H 1054   8.037   9.904  11.091  0.7828  0.9771  0.9528
    8MOL0     H 1055   7.257   9.660  10.896  0.8415  1.1897 -0.6228
    8MOL0     H 1056   7.151   9.449  10.844  0.7155  0.0986 -1.7601
    9MOL0     O 1057   9.334   9.422   9.471  0.3971  0.0271  0.0869
    9MOL0     C 1058   9.279   9.529   9.479 -0.6077  0.5700  0.3695
    9MOL0     O 1059   9.150   9.552   9.490  0.5892 -0.3798 -0.1175
    9MOL0     C 1060   9.059   9.446   9.499  0.0923 -0.4224 -0.2797
    9MOL0     C 1061   8.933   9.455   9.443  0.2888 -0.0588  0.6027
    9MOL0     C 1062   8.839   9.352   9.456  1.0755 -0.6366 -0.0056
    9MOL0     C 1063   8.855   9.241   9.533 -0.5793 -0.1968 -0.8097
    9MOL0     O 1064   8.767   9.137   9.567  0.0290  0.6410 -0.5985
    9MOL0     C 1065   8.635   9.137   9.508 -0.0321  0.1537  0.2819
    9MOL0     C 1066   8.547   9.036   9.590 -0.1866 -0.0191  0.0249
    9MOL0     C 1067   8.409   9.027   9.534  0.5412  0.0557 -0.0217
    9MOL0     C 1068   8.324   9.156   9.555  0.5699  0.4476 -0.4911
    9MOL0     C 1069   8.175   9.130   9.543 -0.7478  0.0291 -0.3927
    9MOL0     C 1070   8.125   9.058   9.414  0.3959  0.5357 -0.2390
    9MOL0     C 1071   7.977   9.091   9.398  0.6482 -0.3701 -0.2273
    9MOL0     C 1072   7.913   9.023   9.268 -0.0255  0.2754  0.2608
    9MOL0     N 1073   7.773   9.051   9.250 -0.4190  0.5035 -0.5887
    9MOL0     C 1074   7.711   9.086   9.132 -0.1844  0.6320 -0.8830
    9MOL0     C 1075   7.579   9.104   9.173  1.3153 -0.5753  0.7374
    9MOL0     C 1076   7.466   9.154   9.089 -1.1933  1.0790 -0.3250
    9MOL0     C 1077   7.438   9.301   9.132  0.5038 -1.0976 -0.5488
    9MOL0     C 1078   7.386   9.390   9.011  0.7531  0.0193 -0.0787
    9MOL0     C 1079   7.346   9.530   9.061  0.3118 -0.1349 -0.4565
    9MOL0     O 1080   7.223   9.506   9.124 -0.2943 -0.7938 -0.0018
    9MOL0     C 1081   7.161   9.608   9.193 -0.0129 -0.0439  0.8363
    9MOL0     C 1082   7.046   9.563   9.262 -0.1329 -0.7786 -0.1162
    9MOL0     C 1083   6.959   9.653   9.315 -0.1052  0.2988  0.3797
    9MOL0     C 1084   6.991   9.793   9.317 -0.0900  0.4751 -0.4120
    9MOL0     C 1085   6.885   9.892   9.373 -0.3780  0.5121  0.1439
    9MOL0     O 1086   6.776   9.837   9.433 -0.1766  0.3582 -0.0581
    9MOL0     C 1087   6.658   9.913   9.425 -0.2170  0.2721 -0.3059
    9MOL0     C 1088   6.636  10.010   9.525 -0.0531  0.4923  0.3894
    9MOL0     C 1089   6.518  10.094   9.519 -0.1606 -0.3984  0.1639
    9MOL0     C 1090   6.426  10.095   9.413  0.1560 -0.0892  1.4562
    9MOL0     O 1091   6.315  10.168   9.405 -0.0389 -0.1316 -0.0833
    9MOL0     C 1092   6.217  10.178   9.507 -0.0551 -0.1584  0.4306
    9MOL0     C 1093   6.091  10.254   9.454 -0.8750  0.2534 -0.1038
    9MOL0     C 1094   5.985  10.269   9.573 -0.5374  0.3566  0.2537
    9MOL0     C 1095   5.872  10.354   9.515  0.4090  0.6589  0.0417
    9MOL0     C 1096   5.772  10.413   9.619 -0.8400 -0.4724  0.2163
    9MOL0     C 1097   5.718  10.312   9.719 -0.1289  0.3717 -0.2104
    9MOL0     C 1098   5.593  10.358   9.783  0.0292 -0.3798 -0.5730
    9MOL0     C 1099   5.527  10.246   9.866  0.5868 -0.3195  0.5599
    9MOL0    Cl 1100   5.634  10.207  10.001 -0.3207  0.4265  0.2586
    9MOL0     C 1101   6.456   9.994   9.310  0.4263  0.8648  0.0394
    9MOL0     C 1102   6.572   9.910   9.320 -0.6674 -0.1928  1.1535
    9MOL0     O 1103   6.894  10.010   9.343 -0.2619 -0.2928 -0.3858
    9MOL0     C 1104   7.112   9.836   9.258 -0.5177 -0.0569 -0.0347
    9MOL0     C 1105   7.201   9.742   9.202 -0.3214 -0.4783 -0.3720
    9MOL0     N 1106   7.568   9.056   9.297  0.1168 -0.0640 -0.9994
    9MOL0     N 1107   7.683   9.032   9.350  0.0869  0.3438  0.1884
    9MOL0     C 1108   8.983   9.238   9.600 -0.7462  0.2131 -0.6767
    9MOL0     C 1109   9.081   9.330   9.574 -0.0291 -0.6276 -0.1442
    9MOL0     C 1110   9.369   9.648   9.481  0.7145 -0.0431  0.3271
    9MOL0     C 1111   9.321   9.774   9.528 -0.0860  1.2136  0.3090
    9MOL0     C 1112   9.415   9.878   9.543  0.2936  0.1471  1.5495
    9MOL0     C 1113   9.553   9.864   9.517  0.1818  0.3822  0.8274
    9MOL0     O 1114   9.633   9.969   9.535 -0.1377 -0.3703  0.0028
    9MOL0     C 1115   9.769   9.960   9.495 -0.2384 -0.1474 -0.3939
    9MOL0     C 1116   9.841  10.094   9.515 -0.3219  0.5332 -0.6953
    9MOL0     C 1117   9.986  10.082   9.457  0.0499 -0.5959  0.3458
    9MOL0     C 1118  10.054  10.214   9.480  0.0273  0.1652 -0.2757
    9MOL0     C 1119  10.200  10.206   9.459  0.9591  0.6862 -0.9145
    9MOL0     C 1120  10.322  10.195   9.447  0.5239 -0.4231  0.0462
    9MOL0     C 1121   9.597   9.744   9.462  0.3823  0.5980  0.2453
    9MOL0     C 1122   9.502   9.634   9.453  0.0811 -0.3857 -0.3765
    9MOL0     H 1123   8.905   9.537   9.378  1.7418 -1.8766 -2.5515
    9MOL0     H 1124   8.742   9.368   9.409  1.2639  1.8961  0.3031
    9MOL0     H 1125   8.642   9.098   9.406  0.2647  1.0952 -0.0633
    9MOL0     H 1126   8.595   9.238   9.517  2.9172  1.3601  1.0251
    9MOL0     H 1127   8.537   9.068   9.694  1.4125  1.3764 -0.1981
    9MOL0     H 1128   8.589   8.936   9.603 -0.1861  0.1173  1.1852
    9MOL0     H 1129   8.349   8.953   9.590  0.8814  0.3277  0.7163
    9MOL0     H 1130   8.408   9.001   9.428  1.4020 -1.1840  0.2497
    9MOL0     H 1131   8.339   9.197   9.656 -1.6067  3.4314 -1.2434
    9MOL0     H 1132   8.345   9.238   9.486  1.2299  0.2623 -0.5183
    9MOL0     H 1133   8.133   9.229   9.562 -0.6349 -0.5399  3.5957
    9MOL0     H 1134   8.131   9.074   9.626  0.3644  1.8023  1.4830
    9MOL0     H 1135   8.135   8.950   9.422 -0.6341  0.4778  0.5797
    9MOL0     H 1136   8.179   9.094   9.326 -3.4846 -2.2025 -4.1360
    9MOL0     H 1137   7.925   9.050   9.485  0.7889  0.9094  0.4850
    9MOL0     H 1138   7.960   9.199   9.401 -3.7470 -0.8471 -0.8231
    9MOL0     H 1139   7.917   8.914   9.273 -0.7503  0.2107 -0.3553
    9MOL0     H 1140   7.957   9.065   9.178  3.6692  2.9813  3.0027
    9MOL0     H 1141   7.769   9.096   9.041  2.6709 -1.6090  0.5255
    9MOL0     H 1142   7.373   9.098   9.107 -1.4948  1.3801 -0.9268
    9MOL0     H 1143   7.498   9.134   8.986 -0.1420 -2.8311  0.5778
    9MOL0     H 1144   7.534   9.348   9.153  1.4322 -2.6131 -1.2569
    9MOL0     H 1145   7.383   9.315   9.226  6.7311  1.3848  3.3526
    9MOL0     H 1146   7.465   9.420   8.942  1.6889  1.5772  1.5872
    9MOL0     H 1147   7.303   9.342   8.959 -2.1097  2.3864  1.9320
    9MOL0     H 1148   7.333   9.597   8.976  1.0585  2.5717  1.4428
    9MOL0     H 1149   7.426   9.573   9.122 -0.7491  0.1952  0.7466
    9MOL0     H 1150   7.013   9.459   9.256 -3.1947 -0.1705  3.0068
    9MOL0     H 1151   6.858   9.643   9.352 -0.0035  0.2889  0.6541
    9MOL0     H 1152   6.708  10.025   9.605  2.3619 -0.3107 -1.4949
    9MOL0     H 1153   6.498  10.161   9.602 -2.5723 -1.0962  0.2274
    9MOL0     H 1154   6.264  10.236   9.587  3.7302  1.9491 -2.9011
    9MOL0     H 1155   6.183  10.082   9.546 -0.6454 -0.6477 -1.2280
    9MOL0     H 1156   6.042  10.201   9.373 -0.1933 -2.2009  1.0117
    9MOL0     H 1157   6.128  10.352   9.421  0.1520  1.4997  4.0547
    9MOL0     H 1158   6.021  10.323   9.661 -1.1518  2.1634 -0.5538
    9MOL0     H 1159   5.953  10.168   9.596 -2.2417  1.0501  1.0775
    9MOL0     H 1160   5.915  10.448   9.479 -0.5839  2.2515  2.7101
    9MOL0     H 1161   5.827  10.292   9.437 -1.8493  1.5950  0.5063
    9MOL0     H 1162   5.687  10.453   9.563  0.8064  2.4229 -0.4013
    9MOL0     H 1163   5.822  10.494   9.673  1.9416 -1.3884 -0.8297
    9MOL0     H 1164   5.799  10.302   9.793  0.4522  0.9426 -0.7626
    9MOL0     H 1165   5.700  10.219   9.665 -0.0916  1.1821 -1.6539
    9MOL0     H 1166   5.613  10.447   9.844  3.7410 -0.6763 -1.0939
    9MOL0     H 1167   5.524  10.367   9.699 -0.9337  0.6034  0.2861
    9MOL0     H 1168   5.514  10.157   9.803 -0.4727  0.2592 -0.0614
    9MOL0     H 1169   5.426  10.279   9.888  0.2093 -0.9858 -0.1287
    9MOL0     H 1170   6.380   9.996   9.233 -1.8504  0.2001  2.1656
    9MOL0     H 1171   6.598   9.835   9.246  0.4212 -1.4835  2.7736
    9MOL0     H 1172   7.147   9.938   9.254  0.1519 -0.3273 -1.7486
    9MOL0     H 1173   7.297   9.773   9.162  2.2271 -1.3114  4.3550
    9MOL0     H 1174   9.010   9.151   9.659 -0.1690 -2.1260 -4.0813
    9MOL0     H 1175   9.176   9.323   9.624 -0.9246 -0.5650  1.6235
    9MOL0     H 1176   9.218   9.786   9.561 -1.0042 -2.5855 -0.6908
    9MOL0     H 1177   9.377   9.973   9.579 -0.1184  1.0783 -1.1104
    9MOL0     H 1178   9.781   9.926   9.392  3.9827  1.4007 -0.5948
    9MOL0     H 1179   9.815   9.886   9.562  2.1315 -0.0355 -1.7963
    9MOL0     H 1180   9.793  10.175   9.460 -0.5631 -0.6728 -2.3402
    9MOL0     H 1181   9.840  10.117   9.622  0.6487 -2.6280  0.1142
    9MOL0     H 1182   9.985  10.057   9.350 -0.2655  0.5645  0.0677
    9MOL0     H 1183  10.041  10.008   9.516  0.9942  0.9944  1.5287
    9MOL0     H 1184  10.024  10.284   9.402  0.7119 -0.0982 -0.7801
    9MOL0     H 1185  10.026  10.263   9.575 -2.1094 -0.1142 -0.7002
    9MOL0     H 1186  10.426  10.205   9.424  0.4511 -1.2559 -0.7118
    9MOL0     H 1187   9.701   9.724   9.438  0.6140 -0.9282  2.2883
    9MOL0     H 1188   9.541   9.544   9.405  1.5072  0.1118 -0.2208
   10MOL0     O 1189   8.910   2.409   8.300  0.2626  0.0689 -0.0639
   10MOL0     C 1190   8.988   2.336   8.348 -0.3479  0.8703  0.3080
   10MOL0     O 1191   8.975   2.197   8.345  0.0664 -0.1866 -0.2358
   10MOL0     C 1192   8.856   2.148   8.292 -0.3273  0.9675 -1.2440
   10MOL0     C 1193   8.864   2.053   8.190 -0.1578 -0.6446  0.8440
   10MOL0     C 1194   8.759   1.972   8.150 -0.2169  0.3101 -0.6090
   10MOL0     C 1195   8.626   1.981   8.215  0.4642 -0.3123 -0.0927
   10MOL0     O 1196   8.515   1.903   8.188 -0.7287  0.3402  0.4278
   10MOL0     C 1197   8.446   1.941   8.064  0.1479  0.4418 -1.1593
   10MOL0     C 1198   8.325   1.860   8.042  0.1204  0.6812  0.1281
   10MOL0     C 1199   8.233   1.867   8.170  0.1384  0.0378 -0.2095
   10MOL0     C 1200   8.099   1.821   8.132  0.2588 -0.0253 -0.1602
   10MOL0     C 1201   7.989   1.819   8.244  0.4577  0.3313  0.0922
   10MOL0     C 1202   7.945   1.952   8.297  0.0575 -0.2032  0.5104
   10MOL0     C 1203   7.802   1.920   8.365  0.0427 -0.2384  0.7495
   10MOL0     C 1204   7.733   2.049   8.402  0.1857 -0.0482 -0.4772
   10MOL0     N 1205   7.607   2.012   8.458  0.7125 -0.0513 -0.4831
   10MOL0     C 1206   7.575   2.016   8.593 -0.0695 -0.7618 -0.3008
   10MOL0     C 1207   7.445   1.975   8.593 -0.5576 -0.4124  0.3674
   10MOL0     C 1208   7.357   1.943   8.712 -0.1157  0.0052  0.4809
   10MOL0     C 1209   7.231   2.029   8.731 -0.1106 -0.3929  0.1613
   10MOL0     C 1210   7.272   2.175   8.754  0.6154 -0.9774  0.1976
   10MOL0     C 1211   7.158   2.272   8.789 -0.5856 -0.6962  0.7711
   10MOL0     O 1212   7.125   2.257   8.928  0.4089 -0.0740  0.7186
   10MOL0     C 1213   7.016   2.330   8.978  0.6042  0.0231  0.2307
   10MOL0     C 1214   6.953   2.283   9.096 -0.1978 -0.0064 -0.3436
   10MOL0     C 1215   6.855   2.365   9.154 -0.2331  0.5412 -0.2122
   10MOL0     C 1216   6.816   2.491   9.104  0.4858  1.1702  0.0138
   10MOL0     C 1217   6.711   2.569   9.175  0.1479  0.0270  1.0814
   10MOL0     O 1218   6.676   2.534   9.307 -0.0357 -0.1627 -0.7082
   10MOL0     C 1219   6.580   2.601   9.374 -0.3202 -0.3068 -0.3295
   10MOL0     C 1220   6.598   2.635   9.511 -0.6425 -0.6518  0.2424
   10MOL0     C 1221   6.487   2.679   9.582 -0.3826 -0.0283  0.6538
   10MOL0     C 1222   6.358   2.690   9.520 -0.4513 -0.7276  0.6997
   10MOL0     O 1223   6.262   2.746   9.600 -0.2894  0.5015  0.1716
   10MOL0     C 1224   6.130   2.767   9.553  0.2775 -0.5714 -0.2209
   10MOL0     C 1225   6.052   2.862   9.649  0.6217 -0.5469 -0.4258
   10MOL0     C 1226   6.002   2.784   9.769  0.7566  0.9181  0.0845
   10MOL0     C 1227   5.931   2.882   9.863  0.6895  0.6915 -0.3676
   10MOL0     C 1228   5.846   2.810   9.959  0.1330 -0.0975  0.0559
   10MOL0     C 1229   5.851   2.890  10.088 -0.6847  1.1051  0.0595
   10MOL0     C 1230   5.763   2.834  10.201  0.7082  0.0156  0.4930
   10MOL0     C 1231   5.617   2.821  10.157  0.2051  0.2734 -0.1109
   10MOL0    Cl 1232   5.565   2.967  10.061 -0.3307  0.3592 -0.3958
   10MOL0     C 1233   6.345   2.647   9.386 -0.2886 -0.1486 -0.3907
   10MOL0     C 1234   6.457   2.604   9.319 -0.7240  0.7813  0.7100
   10MOL0     O 1235   6.659   2.663   9.112 -0.1422 -0.1592  0.6897
   10MOL0     C 1236   6.859   2.513   8.978 -0.2414 -0.2720  0.4338
   10MOL0     C 1237   6.961   2.444   8.916  0.4692 -0.4871  0.0710
   10MOL0     N 1238   7.397   1.964   8.463  0.0793 -0.1296  0.3896
   10MOL0     N 1239   7.491   1.985   8.384 -0.3836 -0.4220  0.6727
   10MOL0     C 1240   8.622   2.078   8.314  0.2468  0.6148  0.0706
   10MOL0     C 1241   8.734   2.157   8.352  0.0858 -0.0350 -0.0857
   10MOL0     C 1242   9.110   2.395   8.399  0.3970  0.2747 -0.4900
   10MOL0     C 1243   9.220   2.319   8.409 -0.2407 -0.7419 -0.3795
   10MOL0     C 1244   9.343   2.378   8.462 -0.0985  0.0697 -0.8885
   10MOL0     C 1245   9.345   2.515   8.498 -1.2663  0.4227  0.5961
   10MOL0     O 1246   9.468   2.549   8.556  0.2875  0.0370 -0.3423
   10MOL0     C 1247   9.467   2.681   8.605 -1.6205  0.0031 -0.5385
   10MOL0     C 1248   9.595   2.702   8.688 -0.9875  0.1378  0.0595
   10MOL0     C 1249   9.723   2.625   8.625  0.6889 -0.7404 -0.1281
   10MOL0     C 1250   9.752   2.688   8.489 -0.6136 -0.5945  0.8461
   10MOL0     C 1251   9.843   2.806   8.498  0.7231  1.1446  1.2555
   10MOL0     C 1252   9.926   2.899   8.508 -0.0723  0.6007  0.0382
   10MOL0     C 1253   9.226   2.593   8.496  0.2119 -0.0285 -1.1446
   10MOL0     C 1254   9.110   2.526   8.455 -0.4974 -0.3936 -0.7798
   10MOL0     H 1255   8.965   2.051   8.149 -1.6724  3.2065 -4.1098
   10MOL0     H 1256   8.766   1.892   8.076  0.6734 -1.1422  0.9859
   10MOL0     H 1257   8.502   1.915   7.973  0.3837 -2.2407 -0.3492
   10MOL0     H 1258   8.417   2.046   8.072  0.7074  0.4498  3.1378
   10MOL0     H 1259   8.347   1.755   8.019  0.3532  0.6717  0.3799
   10MOL0     H 1260   8.266   1.894   7.957 -0.1877  2.3330  0.9558
   10MOL0     H 1261   8.232   1.972   8.199 -1.6958 -0.1450  0.4805
   10MOL0     H 1262   8.277   1.810   8.253  2.7005  1.1187 -0.7094
   10MOL0     H 1263   8.060   1.877   8.047  2.1456  1.6161 -0.0008
   10MOL0     H 1264   8.112   1.715   8.107 -1.8798 -1.2761  3.1907
   10MOL0     H 1265   8.019   1.763   8.333 -2.3943 -1.4538  0.0775
   10MOL0     H 1266   7.905   1.770   8.193  0.4071  1.3419 -0.8395
   10MOL0     H 1267   7.938   2.027   8.218  1.7166  1.4209  1.7940
   10MOL0     H 1268   8.011   1.982   8.379 -0.3246 -1.6475  1.3877
   10MOL0     H 1269   7.738   1.867   8.294 -1.6113 -0.1175  2.0916
   10MOL0     H 1270   7.810   1.844   8.443  2.1458 -1.1893 -0.3031
   10MOL0     H 1271   7.716   2.117   8.318  0.9305  0.6404 -0.0900
   10MOL0     H 1272   7.795   2.093   8.481  1.0285 -2.7271  0.4745
   10MOL0     H 1273   7.636   2.045   8.678 -2.8030 -1.1214  1.9184
   10MOL0     H 1274   7.419   1.949   8.801 -0.2814  1.2026  0.5357
   10MOL0     H 1275   7.332   1.836   8.708  2.1636 -0.5466 -0.7064
   10MOL0     H 1276   7.175   1.986   8.814  0.6706 -1.0092  0.3711
   10MOL0     H 1277   7.193   2.020   8.628  0.2750 -1.2052  0.0826
   10MOL0     H 1278   7.353   2.173   8.827 -0.3834  0.1895  1.4059
   10MOL0     H 1279   7.313   2.207   8.658 -0.0867  0.2799  0.2928
   10MOL0     H 1280   7.079   2.256   8.715  1.5648  1.2693 -2.1712
   10MOL0     H 1281   7.207   2.366   8.763 -0.3002  0.2162  4.2045
   10MOL0     H 1282   6.977   2.194   9.153  1.9467  1.8619  1.8797
   10MOL0     H 1283   6.816   2.340   9.253 -0.2202 -1.6138 -0.7249
   10MOL0     H 1284   6.698   2.632   9.551 -1.5845  2.3749  3.3163
   10MOL0     H 1285   6.502   2.711   9.685  2.6499 -0.7131  0.5269
   10MOL0     H 1286   6.084   2.671   9.529 -1.8353  0.9245 -2.6028
   10MOL0     H 1287   6.141   2.823   9.459  0.3022 -2.8577 -1.6525
   10MOL0     H 1288   5.965   2.909   9.602 -1.3438 -2.7891  0.7474
   10MOL0     H 1289   6.118   2.947   9.672 -0.3927  0.3735 -0.8023
   10MOL0     H 1290   6.091   2.742   9.815  0.6338 -0.3535 -0.7780
   10MOL0     H 1291   5.931   2.703   9.747 -0.9110  2.3430 -0.0140
   10MOL0     H 1292   6.009   2.945   9.906 -0.3157  1.2275  0.7220
   10MOL0     H 1293   5.858   2.938   9.804  2.1136  2.6531 -0.3759
   10MOL0     H 1294   5.892   2.715   9.985  2.2209  1.1149  1.0794
   10MOL0     H 1295   5.744   2.795   9.922  0.4705 -0.8820 -0.5990
   10MOL0     H 1296   5.816   2.989  10.057 -0.3086  1.1356 -0.2756
   10MOL0     H 1297   5.953   2.897  10.128 -1.0344  1.0679  0.9803
   10MOL0     H 1298   5.799   2.737  10.236 -2.2872 -0.7864  1.6626
   10MOL0     H 1299   5.764   2.902  10.287 -0.3078  0.8071 -0.1010
   10MOL0     H 1300   5.552   2.805  10.244 -0.4131  0.3893 -0.5427
   10MOL0     H 1301   5.607   2.734  10.092  0.8324  1.7181 -2.2574
   10MOL0     H 1302   6.245   2.645   9.344 -0.0153 -1.6235 -1.0288
   10MOL0     H 1303   6.441   2.574   9.216 -0.7052 -0.2298  0.9862
   10MOL0     H 1304   6.819   2.593   8.916  0.3027  0.5121  1.0771
   10MOL0     H 1305   6.996   2.482   8.820 -1.0411  1.7182  0.3238
   10MOL0     H 1306   8.538   2.075   8.383  2.2465 -1.5446  2.6108
   10MOL0     H 1307   8.730   2.235   8.427 -3.3993  1.4659 -1.6354
   10MOL0     H 1308   9.232   2.215   8.384  0.8659 -0.5253 -0.8219
   10MOL0     H 1309   9.425   2.310   8.479 -0.1507 -0.2721 -1.9629
   10MOL0     H 1310   9.383   2.714   8.668  0.1390  0.4276  1.7208
   10MOL0     H 1311   9.462   2.742   8.515 -3.4941 -1.7100 -1.7084
   10MOL0     H 1312   9.617   2.809   8.687 -0.4310  0.0718  1.9212
   10MOL0     H 1313   9.580   2.663   8.789 -0.9706  0.3775  0.1545
   10MOL0     H 1314   9.693   2.520   8.617 -1.2839 -0.1959 -0.3623
   10MOL0     H 1315   9.803   2.627   8.700  1.6254 -3.2301 -0.9553
   10MOL0     H 1316   9.809   2.608   8.442 -0.9606  0.4381 -1.4581
   10MOL0     H 1317   9.659   2.708   8.435  0.5430 -0.7209 -1.3246
   10MOL0     H 1318  10.002   2.974   8.499  0.2613  0.2438 -0.1741
   10MOL0     H 1319   9.211   2.686   8.549  1.3523 -0.6244  0.3175
   10MOL0     H 1320   9.015   2.578   8.466 -0.5040 -0.7489  1.1740
   11MOL0     O 1321   9.601   1.408   1.499  0.1340 -0.4300 -0.1493
   11MOL0     C 1322   9.711   1.426   1.445  0.3062 -0.1980  0.1365
   11MOL0     O 1323   9.821   1.477   1.509  0.2505 -0.8889  0.4652
   11MOL0     C 1324   9.815   1.490   1.642 -0.1109 -0.3147 -0.4518
   11MOL0     C 1325   9.752   1.601   1.688  0.0288 -0.7535 -0.6419
   11MOL0     C 1326   9.767   1.627   1.826  0.5100  0.6127  0.3502
   11MOL0     C 1327   9.819   1.539   1.911  0.2138  0.5238 -0.0960
   11MOL0     O 1328   9.832   1.565   2.046  0.1782 -0.2090 -0.6517
   11MOL0     C 1329   9.958   1.635   2.081 -0.2881 -0.7101  0.5864
   11MOL0     C 1330  10.026   1.601   2.213  0.1262 -0.2386  0.3998
   11MOL0     C 1331  10.073   1.452   2.224  0.3398  0.4162  0.7184
   11MOL0     C 1332  10.200   1.433   2.144  0.5272 -0.4769  0.2446
   11MOL0     C 1333  10.253   1.288   2.122  0.2951 -0.3153 -0.7254
   11MOL0     C 1334  10.326   1.224   2.239 -0.4642 -0.5757  0.3674
   11MOL0     C 1335  10.444   1.304   2.288  0.6925  0.3532 -0.2335
   11MOL0     C 1336  10.507   1.226   2.401  0.8808 -0.7524  1.1740
   11MOL0     N 1337  10.634   1.287   2.447  0.4838 -0.8316  0.5907
   11MOL0     C 1338  10.666   1.334   2.570  0.6838 -0.1892 -0.3731
   11MOL0     C 1339  10.795   1.367   2.561  0.1375  0.1313 -0.7699
   11MOL0     C 1340  10.891   1.430   2.666  0.0357 -0.6372 -0.4642
   11MOL0     C 1341  11.020   1.348   2.682  0.4892  0.3345  0.7369
   11MOL0     C 1342  11.139   1.433   2.716 -0.0907 -0.5370  0.3804
   11MOL0     C 1343  11.266   1.344   2.723  0.2554 -0.4355  0.0792
   11MOL0     O 1344  11.380   1.419   2.764 -0.1279 -0.6510  0.6482
   11MOL0     C 1345  11.501   1.394   2.710 -0.4293 -0.3634  0.5297
   11MOL0     C 1346  11.584   1.503   2.707 -0.0921  0.2184 -1.2333
   11MOL0     C 1347  11.708   1.499   2.654 -0.4495  0.2131  0.1832
   11MOL0     C 1348  11.756   1.383   2.591 -0.7170  0.2904 -0.4633
   11MOL0     C 1349  11.901   1.366   2.546  0.0417 -0.6087 -0.9530
   11MOL0     O 1350  11.999   1.459   2.594  0.0857  0.7459  0.4049
   11MOL0     C 1351  12.116   1.446   2.525 -0.0788 -0.1427 -0.0752
   11MOL0     C 1352  12.140   1.505   2.405 -0.1477 -1.1502  0.1209
   11MOL0     C 1353  12.257   1.479   2.332 -0.2259 -0.7111 -0.2943
   11MOL0     C 1354  12.363   1.400   2.383 -0.3281 -0.0680  0.0080
   11MOL0     O 1355  12.471   1.358   2.307 -0.2631  0.6617 -0.0079
   11MOL0     C 1356  12.502   1.440   2.187  0.4421 -0.1143  0.4973
   11MOL0     C 1357  12.618   1.389   2.111 -0.1089  0.2354  0.3118
   11MOL0     C 1358  12.752   1.413   2.179 -0.1654 -0.2001 -0.8311
   11MOL0     C 1359  12.865   1.345   2.107  0.3154 -0.1577  0.7086
   11MOL0     C 1360  12.921   1.426   1.988  0.8180 -0.4865  0.3760
   11MOL0     C 1361  12.995   1.330   1.898 -0.0600 -0.1993  0.1903
   11MOL0     C 1362  13.046   1.411   1.773  0.8593  0.1228 -0.4873
   11MOL0     C 1363  13.149   1.338   1.687 -0.5006  0.3446 -0.1661
   11MOL0    Cl 1364  13.214   1.453   1.572  0.0607 -0.2168  0.3800
   11MOL0     C 1365  12.344   1.340   2.514  0.4507 -0.2036  0.0725
   11MOL0     C 1366  12.218   1.360   2.579  0.7358  0.0030  1.2884
   11MOL0     O 1367  11.924   1.271   2.478  0.0778  0.1242 -0.9474
   11MOL0     C 1368  11.668   1.268   2.588  0.3991  0.1114  0.7417
   11MOL0     C 1369  11.534   1.275   2.644  0.2471 -0.2847 -0.1133
   11MOL0     N 1370  10.847   1.328   2.437  0.3871 -0.0042 -0.0117
   11MOL0     N 1371  10.745   1.298   2.363 -0.5490 -0.2934  0.3178
   11MOL0     C 1372   9.887   1.425   1.868 -0.6131 -1.0041 -1.1345
   11MOL0     C 1373   9.885   1.400   1.729 -0.5325 -0.3585  1.2288
   11MOL0     C 1374   9.720   1.360   1.308  0.0161  0.1853  0.1196
   11MOL0     C 1375   9.607   1.305   1.246 -1.3455 -1.3969  0.1451
   11MOL0     C 1376   9.621   1.242   1.126  0.8527  0.5422 -0.3424
   11MOL0     C 1377   9.747   1.233   1.066 -0.3077  0.9887  0.9619
   11MOL0     O 1378   9.753   1.168   0.944 -0.0257  0.0758  1.0774
   11MOL0     C 1379   9.852   1.191   0.841  0.4193  0.0958 -0.7246
   11MOL0     C 1380   9.867   1.332   0.800  0.6257 -0.8927 -0.4053
   11MOL0     C 1381   9.720   1.382   0.768  0.0599  0.1703  0.2455
   11MOL0     C 1382   9.708   1.526   0.706  0.4809 -0.4054  0.4940
   11MOL0     C 1383   9.577   1.587   0.662 -0.3147  0.5127  0.2888
   11MOL0     C 1384   9.481   1.650   0.636 -0.0749  0.3702 -0.3849
   11MOL0     C 1385   9.854   1.291   1.124 -0.0909 -0.4499 -0.6412
   11MOL0     C 1386   9.845   1.357   1.241 -0.0819  0.3431 -0.1247
   11MOL0     H 1387   9.696   1.668   1.623  1.0365  0.4349 -0.3477
   11MOL0     H 1388   9.727   1.718   1.870  1.5003  0.6040  1.3149
   11MOL0     H 1389   9.922   1.738   2.087 -0.3059 -0.3172 -3.2995
   11MOL0     H 1390  10.033   1.625   2.001 -1.4781 -3.7959 -0.2752
   11MOL0     H 1391   9.972   1.622   2.306  1.0037  0.5514  0.7373
   11MOL0     H 1392  10.107   1.672   2.229 -0.0747  0.4422 -1.3286
   11MOL0     H 1393   9.999   1.375   2.201 -0.4071  0.1644  3.5498
   11MOL0     H 1394  10.100   1.439   2.329 -0.7909  2.0440  1.2468
   11MOL0     H 1395  10.196   1.474   2.042 -1.0406  0.9201  0.8156
   11MOL0     H 1396  10.274   1.493   2.198 -1.7063  0.8094  2.0931
   11MOL0     H 1397  10.328   1.291   2.043  1.8566  1.5835  0.7225
   11MOL0     H 1398  10.165   1.230   2.092 -0.0839 -0.3100  0.3193
   11MOL0     H 1399  10.356   1.120   2.225  0.2565 -0.5380  1.5368
   11MOL0     H 1400  10.250   1.217   2.317 -0.7099  3.0245  0.6138
   11MOL0     H 1401  10.516   1.300   2.206 -2.4536 -1.8692 -3.1853
   11MOL0     H 1402  10.433   1.410   2.314  1.5431  0.2812  0.4430
   11MOL0     H 1403  10.516   1.118   2.382  1.8343 -0.4758 -0.0817
   11MOL0     H 1404  10.427   1.225   2.476  1.0066  0.9708  1.3530
   11MOL0     H 1405  10.600   1.327   2.657  1.6036 -0.5990  0.3088
   11MOL0     H 1406  10.844   1.436   2.764  0.3770 -3.6533 -0.0037
   11MOL0     H 1407  10.910   1.530   2.626 -2.2816  0.3455  0.7486
   11MOL0     H 1408  11.041   1.289   2.593 -0.9298 -0.6033  0.9985
   11MOL0     H 1409  10.996   1.275   2.760 -0.2807  0.1243  0.3100
   11MOL0     H 1410  11.152   1.514   2.644 -2.2088  0.4931  1.0548
   11MOL0     H 1411  11.125   1.472   2.818 -1.6562 -1.9097  0.7276
   11MOL0     H 1412  11.279   1.301   2.624 -0.7629 -0.3700 -0.0907
   11MOL0     H 1413  11.257   1.261   2.794 -0.4295 -0.7031 -0.3180
   11MOL0     H 1414  11.541   1.587   2.761 -1.1801 -0.6514 -0.6829
   11MOL0     H 1415  11.762   1.590   2.674 -0.7097 -0.2522  3.6189
   11MOL0     H 1416  12.058   1.551   2.350  0.6112 -2.5419 -2.3519
   11MOL0     H 1417  12.265   1.524   2.234 -1.4270 -0.5750 -0.3425
   11MOL0     H 1418  12.515   1.547   2.208  0.0727  0.2883 -1.2266
   11MOL0     H 1419  12.417   1.446   2.118  1.2126  4.9363 -0.4343
   11MOL0     H 1420  12.614   1.426   2.008  0.3406 -2.2157 -0.6563
   11MOL0     H 1421  12.604   1.281   2.098 -3.0779  0.5909 -0.1950
   11MOL0     H 1422  12.733   1.357   2.271 -2.6096 -0.0204 -1.1763
   11MOL0     H 1423  12.764   1.520   2.201  0.6942 -0.0746 -1.8053
   11MOL0     H 1424  12.946   1.312   2.172  1.5865 -0.7022 -1.0692
   11MOL0     H 1425  12.822   1.253   2.066  0.5617 -0.3733  0.9359
   11MOL0     H 1426  12.982   1.514   2.009 -1.3270  1.3743 -0.7166
   11MOL0     H 1427  12.834   1.460   1.930 -1.4921 -0.0092  3.8007
   11MOL0     H 1428  12.926   1.254   1.860  0.8163  0.1885 -2.3784
   11MOL0     H 1429  13.081   1.279   1.942 -0.7664 -1.3010  0.3452
   11MOL0     H 1430  12.957   1.432   1.713 -0.2533  1.3568  1.4736
   11MOL0     H 1431  13.080   1.509   1.806 -2.8474  0.9507  1.3717
   11MOL0     H 1432  13.113   1.248   1.636 -3.9397  1.3998  0.1358
   11MOL0     H 1433  13.234   1.314   1.751 -0.2193  0.3548 -0.5265
   11MOL0     H 1434  12.418   1.272   2.555 -1.6730 -1.7401  1.5799
   11MOL0     H 1435  12.193   1.305   2.670 -1.0548 -1.7410 -0.1602
   11MOL0     H 1436  11.697   1.177   2.536 -0.6765  0.6994 -0.9711
   11MOL0     H 1437  11.463   1.194   2.654 -2.5654  2.2729  2.4723
   11MOL0     H 1438   9.943   1.362   1.936 -1.2968 -0.2292  0.1845
   11MOL0     H 1439   9.934   1.314   1.685 -2.6719 -1.4610  0.8706
   11MOL0     H 1440   9.502   1.311   1.272 -1.1153 -0.1152  0.8779
   11MOL0     H 1441   9.536   1.205   1.069  1.7610 -0.7528 -0.9067
   11MOL0     H 1442   9.839   1.128   0.752  2.4453 -2.3086  0.5399
   11MOL0     H 1443   9.949   1.160   0.882 -0.5555 -3.0174 -0.5104
   11MOL0     H 1444   9.917   1.398   0.871  0.3538 -1.2965  0.1754
   11MOL0     H 1445   9.930   1.329   0.710  1.1318 -2.5046 -0.0301
   11MOL0     H 1446   9.664   1.382   0.862 -2.1666  1.2163 -1.0166
   11MOL0     H 1447   9.665   1.309   0.709 -2.2138 -0.6748  3.1645
   11MOL0     H 1448   9.744   1.587   0.789  0.8342 -2.0823  1.6272
   11MOL0     H 1449   9.778   1.536   0.623 -0.6262  0.7549 -0.3331
   11MOL0     H 1450   9.411   1.718   0.591  0.1745  2.8983  2.7094
   11MOL0     H 1451   9.955   1.286   1.085 -0.5854  0.5952 -2.1593
   11MOL0     H 1452   9.926   1.393   1.304  0.3036  0.9428 -0.9430
   12MOL0     O 1453   7.871   5.203  10.316  0.3751  0.3617  0.0918
   12MOL0     C 1454   7.888   5.260  10.423 -0.4446 -0.7835  0.2467
   12MOL0     O 1455   7.781   5.314  10.493 -0.2176  0.5240 -0.1813
   12MOL0     C 1456   7.660   5.340  10.425 -0.6225 -1.1672  0.0171
   12MOL0     C 1457   7.623   5.470  10.431 -0.4630 -0.1326  0.7850
   12MOL0     C 1458   7.501   5.512  10.375  0.7233 -0.8337 -0.0773
   12MOL0     C 1459   7.419   5.417  10.311 -0.4313 -0.0582 -0.1378
   12MOL0     O 1460   7.301   5.455  10.243 -0.1923  0.1421 -0.1147
   12MOL0     C 1461   7.187   5.482  10.329 -0.5205  0.1722 -0.2535
   12MOL0     C 1462   7.062   5.426  10.258  1.1428  0.0376 -0.1518
   12MOL0     C 1463   6.930   5.418  10.349 -0.8759 -0.0969  0.0512
   12MOL0     C 1464   6.823   5.338  10.271  0.5444 -0.1771  0.1385
   12MOL0     C 1465   6.714   5.298  10.374 -1.3752 -0.3331  0.2612
   12MOL0     C 1466   6.642   5.171  10.335  0.8640 -0.0423 -0.5161
   12MOL0     C 1467   6.536   5.142  10.440  0.4113  0.2888 -0.4728
   12MOL0     C 1468   6.437   5.036  10.408 -0.6309 -0.2742 -0.3770
   12MOL0     N 1469   6.489   4.901  10.427  0.2369 -0.0469 -0.7620
   12MOL0     C 1470   6.524   4.814  10.322 -0.1200  0.0093 -0.3784
   12MOL0     C 1471   6.523   4.691  10.379 -0.0782  0.4223 -0.1148
   12MOL0     C 1472   6.537   4.556  10.317 -0.2726 -0.7064 -0.2848
   12MOL0     C 1473   6.640   4.464  10.381 -0.0858 -0.5555 -0.0028
   12MOL0     C 1474   6.605   4.323  10.348  0.5042  0.4104  0.6569
   12MOL0     C 1475   6.616   4.299  10.197 -0.9119  0.8426  0.0638
   12MOL0     O 1476   6.561   4.169  10.162  0.1051  0.1823  0.0720
   12MOL0     C 1477   6.428   4.158  10.167  0.8064  0.6596  0.0199
   12MOL0     C 1478   6.341   4.230  10.075 -0.1350 -0.8978 -0.8381
   12MOL0     C 1479   6.207   4.212  10.080  0.1049  0.0136 -0.1087
   12MOL0     C 1480   6.150   4.120  10.163  1.1030  0.1654 -0.0687
   12MOL0     C 1481   6.008   4.109  10.174  0.6748  0.3689  0.0819
   12MOL0     O 1482   5.966   4.001  10.248 -0.6763 -0.2543  0.7049
   12MOL0     C 1483   5.831   3.972  10.272 -0.0919  0.4790 -0.5049
   12MOL0     C 1484   5.715   4.051  10.255 -0.1065 -0.1900  0.2700
   12MOL0     C 1485   5.591   3.996  10.286 -0.2433 -0.0530  0.8612
   12MOL0     C 1486   5.576   3.861  10.315  0.0993 -0.4335 -0.2596
   12MOL0     O 1487   5.444   3.820  10.321 -0.0037 -0.0965  0.1379
   12MOL0     C 1488   5.424   3.683  10.364 -0.5320  0.2044 -0.0487
   12MOL0     C 1489   5.285   3.644  10.333  0.1248  0.4492  0.0657
   12MOL0     C 1490   5.238   3.507  10.386 -1.0864  0.2955  0.2356
   12MOL0     C 1491   5.090   3.488  10.354  0.5518  0.8566  0.9293
   12MOL0     C 1492   5.039   3.364  10.415  0.0498  0.4495 -0.7804
   12MOL0     C 1493   4.907   3.322  10.342 -0.4469  0.4237  0.9159
   12MOL0     C 1494   4.789   3.409  10.381  0.0420  0.0568 -0.8408
   12MOL0     C 1495   4.665   3.354  10.308 -0.1016 -0.7704  0.3948
   12MOL0    Cl 1496   4.518   3.430  10.368  0.0600  0.0061 -0.1488
   12MOL0     C 1497   5.693   3.776  10.323  0.4280 -0.0612 -0.4294
   12MOL0     C 1498   5.820   3.837  10.314 -0.0886  0.2253  0.1504
   12MOL0     O 1499   5.933   4.193  10.120 -0.8071 -0.4395 -0.0383
   12MOL0     C 1500   6.225   4.052  10.251  0.3977  0.6767 -0.5818
   12MOL0     C 1501   6.367   4.071  10.247  0.0455 -0.0389 -0.2262
   12MOL0     N 1502   6.496   4.709  10.515  0.1932 -0.2806  0.4261
   12MOL0     N 1503   6.470   4.829  10.543  0.1909  0.0908  0.6497
   12MOL0     C 1504   7.450   5.277  10.309  0.5282 -0.6505 -1.1707
   12MOL0     C 1505   7.578   5.245  10.364 -0.3535 -0.6500  0.4776
   12MOL0     C 1506   8.031   5.293  10.467  0.4833 -0.4188 -0.6991
   12MOL0     C 1507   8.052   5.363  10.589 -1.0977  0.3294 -0.7006
   12MOL0     C 1508   8.192   5.390  10.628 -0.3067 -0.5739  0.4290
   12MOL0     C 1509   8.299   5.345  10.551 -0.3703 -0.5657  0.1616
   12MOL0     O 1510   8.430   5.370  10.591 -0.3202 -0.4025  0.0429
   12MOL0     C 1511   8.454   5.482  10.672  0.6325  0.2401  0.0492
   12MOL0     C 1512   8.605   5.500  10.687 -0.2319 -0.3671 -0.1455
   12MOL0     C 1513   8.651   5.409  10.804 -0.3384  0.0610 -0.7398
   12MOL0     C 1514   8.807   5.418  10.831 -0.3376 -0.9008  0.3650
   12MOL0     C 1515   8.859   5.552  10.851 -0.9980  0.3643  0.4493
   12MOL0     C 1516   8.891   5.670  10.869 -0.3635 -0.6376  0.0985
   12MOL0     C 1517   8.274   5.281  10.430  0.0069  0.2877 -0.1501
   12MOL0     C 1518   8.144   5.249  10.394 -0.1944  0.8112 -0.4033
   12MOL0     H 1519   7.673   5.549  10.487 -1.5932  2.9285 -2.1719
   12MOL0     H 1520   7.469   5.616  10.375 -0.5921 -1.1730 -2.1349
   12MOL0     H 1521   7.168   5.588  10.347 -3.1438 -0.4765  1.2896
   12MOL0     H 1522   7.197   5.434  10.426 -0.9115 -0.9263 -0.7359
   12MOL0     H 1523   7.082   5.324  10.223  1.0842 -0.5003  1.2986
   12MOL0     H 1524   7.042   5.486  10.170 -0.3292  0.3464  0.3662
   12MOL0     H 1525   6.883   5.512  10.378 -0.6764 -0.0588  0.2527
   12MOL0     H 1526   6.955   5.359  10.437  0.1429 -5.0776 -3.1446
   12MOL0     H 1527   6.777   5.393  10.188 -0.5902 -1.8366 -0.3955
   12MOL0     H 1528   6.872   5.251  10.225 -3.5234 -2.2810 -0.7100
   12MOL0     H 1529   6.638   5.377  10.384 -0.3018  0.6009  1.2208
   12MOL0     H 1530   6.753   5.282  10.474  2.4323  1.8561 -0.6791
   12MOL0     H 1531   6.716   5.091  10.342  0.9900  0.1365  0.2844
   12MOL0     H 1532   6.587   5.177  10.240 -2.6664  1.5384  1.4204
   12MOL0     H 1533   6.593   5.112  10.528 -0.1284  2.8175  0.8141
   12MOL0     H 1534   6.470   5.224  10.469  0.4845 -0.2227  1.2739
   12MOL0     H 1535   6.398   5.045  10.306  0.0748  3.6172 -0.4554
   12MOL0     H 1536   6.354   5.048  10.479 -2.1384  0.6368 -2.1785
   12MOL0     H 1537   6.524   4.824  10.214 -2.8863 -5.4001 -1.2326
   12MOL0     H 1538   6.565   4.589  10.216  1.7556  2.5562  1.1790
   12MOL0     H 1539   6.435   4.519  10.312 -0.6650  0.4551 -1.5054
   12MOL0     H 1540   6.640   4.473  10.490  0.5485 -3.3904  0.3294
   12MOL0     H 1541   6.737   4.507  10.355 -1.5496  2.6112 -0.6434
   12MOL0     H 1542   6.679   4.258  10.394 -0.1118 -1.0183 -0.3110
   12MOL0     H 1543   6.501   4.310  10.378  0.5040 -3.9389 -0.5832
   12MOL0     H 1544   6.721   4.282  10.172 -0.8618 -2.1073  1.8671
   12MOL0     H 1545   6.574   4.381  10.138 -0.8053  0.4416 -0.5872
   12MOL0     H 1546   6.390   4.295  10.003  1.1645  0.2175  0.9956
   12MOL0     H 1547   6.140   4.257  10.007 -0.8011 -1.9144 -0.5178
   12MOL0     H 1548   5.719   4.152  10.214  1.0708 -1.3995 -2.8787
   12MOL0     H 1549   5.500   4.055  10.289 -1.5909 -2.0757  2.4152
   12MOL0     H 1550   5.444   3.673  10.471  2.0468  2.7104 -0.1712
   12MOL0     H 1551   5.488   3.606  10.320 -1.0571 -0.9307  1.0905
   12MOL0     H 1552   5.280   3.641  10.224  2.3602  1.0360 -0.1056
   12MOL0     H 1553   5.219   3.718  10.379 -0.6466 -0.7152  0.8893
   12MOL0     H 1554   5.257   3.504  10.494  3.2740  2.2073 -0.2358
   12MOL0     H 1555   5.306   3.438  10.335  2.7837  4.9695 -1.7577
   12MOL0     H 1556   5.041   3.574  10.401  1.1505  1.1565  1.0073
   12MOL0     H 1557   5.081   3.486  10.245  0.2650  0.9699  0.9483
   12MOL0     H 1558   5.032   3.384  10.522  4.8640  2.2787 -0.5441
   12MOL0     H 1559   5.116   3.287  10.404 -0.5198 -0.0877 -1.0707
   12MOL0     H 1560   4.888   3.219  10.373 -0.3915  0.0538 -0.2186
   12MOL0     H 1561   4.912   3.314  10.233 -1.6492 -1.1882  0.9305
   12MOL0     H 1562   4.766   3.412  10.488  3.1898  0.0712 -0.0760
   12MOL0     H 1563   4.811   3.513  10.355 -2.2457  2.0287  3.9778
   12MOL0     H 1564   4.657   3.245  10.312 -0.3720 -0.8345 -1.3071
   12MOL0     H 1565   4.683   3.384  10.204 -1.9432  1.9744  0.7803
   12MOL0     H 1566   5.687   3.668  10.332  2.6044 -0.1983 -0.3110
   12MOL0     H 1567   5.912   3.781  10.325  0.9615  2.0033  0.7250
   12MOL0     H 1568   6.187   3.985  10.327  0.7009  2.1810  0.9461
   12MOL0     H 1569   6.427   4.011  10.313 -0.0424  1.1077  0.9347
   12MOL0     H 1570   7.391   5.202  10.257 -2.1168  0.9404 -0.6398
   12MOL0     H 1571   7.612   5.142  10.356  0.6469 -0.1966 -3.8478
   12MOL0     H 1572   7.970   5.397  10.652 -1.3756 -1.7319  0.1414
   12MOL0     H 1573   8.201   5.457  10.713 -0.5126  1.1232 -0.8343
   12MOL0     H 1574   8.405   5.483  10.769  0.9355  2.8425  0.2447
   12MOL0     H 1575   8.408   5.570  10.628 -0.3510 -0.7368 -0.9332
   12MOL0     H 1576   8.639   5.475  10.586  0.7893  2.7423 -0.6739
   12MOL0     H 1577   8.633   5.602  10.714  3.6365 -1.7340  1.8133
   12MOL0     H 1578   8.626   5.305  10.785  0.1714  0.1200 -1.8681
   12MOL0     H 1579   8.602   5.438  10.897  0.8757  0.0156 -0.0696
   12MOL0     H 1580   8.827   5.361  10.922  0.3095 -1.8079 -0.3231
   12MOL0     H 1581   8.876   5.388  10.751  0.0843  0.7494  0.0601
   12MOL0     H 1582   8.918   5.771  10.896 -1.1132 -0.2205 -0.6888
   12MOL0     H 1583   8.349   5.230  10.371 -1.8248 -1.1085 -1.3937
   12MOL0     H 1584   8.125   5.207  10.295  0.6782 -0.0627 -0.2150
   13MOL0     O 1585   6.883   0.001   6.696 -0.0180  0.2021  0.2328
   13MOL0     C 1586   6.878  -0.111   6.747  0.1931 -0.4635  0.2061
   13MOL0     O 1587   6.771  -0.199   6.740  0.2704 -0.4313 -0.1401
   13MOL0     C 1588   6.674  -0.189   6.650  0.0661 -0.2487 -0.3439
   13MOL0     C 1589   6.671  -0.114   6.532  0.3421 -0.0310 -0.9301
   13MOL0     C 1590   6.568  -0.126   6.445 -0.9192  0.6028  0.0088
   13MOL0     C 1591   6.460  -0.206   6.468  0.7949  0.2207  0.3262
   13MOL0     O 1592   6.351  -0.211   6.390 -0.4750 -0.1331 -0.4968
   13MOL0     C 1593   6.308  -0.347   6.347 -0.5863 -0.8631 -0.1314
   13MOL0     C 1594   6.160  -0.365   6.384 -0.9119  0.1368  0.3094
   13MOL0     C 1595   6.099  -0.501   6.358  0.5087 -0.1321 -0.1830
   13MOL0     C 1596   6.141  -0.545   6.215  0.4351  0.5864  0.6978
   13MOL0     C 1597   6.090  -0.687   6.179 -0.5929  0.3180  0.2137
   13MOL0     C 1598   5.937  -0.714   6.183  0.2993 -0.7733 -0.2111
   13MOL0     C 1599   5.866  -0.632   6.071  0.2661  0.3956 -0.2293
   13MOL0     C 1600   5.721  -0.684   6.057  0.4682 -0.5376 -0.8423
   13MOL0     N 1601   5.644  -0.659   6.182 -0.2795  0.0726 -0.0230
   13MOL0     C 1602   5.599  -0.542   6.242 -1.1149 -1.5671  0.4175
   13MOL0     C 1603   5.538  -0.578   6.360 -0.2938  0.7813 -0.4860
   13MOL0     C 1604   5.461  -0.497   6.463 -0.5025  0.2304 -0.1009
   13MOL0     C 1605   5.566  -0.467   6.568  0.8832 -0.5306  0.9352
   13MOL0     C 1606   5.567  -0.576   6.668 -0.3186  0.7674 -0.6308
   13MOL0     C 1607   5.449  -0.559   6.763  0.6175  0.0831 -0.4139
   13MOL0     O 1608   5.440  -0.434   6.829  0.5628  0.0500  0.3640
   13MOL0     C 1609   5.324  -0.405   6.912 -0.8734 -0.5997  0.0790
   13MOL0     C 1610   5.353  -0.314   7.005  0.8635  0.0286  0.2097
   13MOL0     C 1611   5.251  -0.259   7.092 -0.4123  0.3106  1.0609
   13MOL0     C 1612   5.114  -0.291   7.070 -1.2810  0.1598 -0.5932
   13MOL0     C 1613   5.011  -0.218   7.158  0.2226  0.0294 -0.3093
   13MOL0     O 1614   4.887  -0.204   7.095 -0.1054 -0.0538 -0.6164
   13MOL0     C 1615   4.793  -0.116   7.142 -0.5898 -0.4001  1.1880
   13MOL0     C 1616   4.805   0.028   7.115  1.0207  0.3894 -0.3449
   13MOL0     C 1617   4.724   0.118   7.186 -0.2198 -0.0548 -0.4926
   13MOL0     C 1618   4.616   0.068   7.262  0.0041  0.0894 -0.3984
   13MOL0     O 1619   4.532   0.168   7.317  0.4583  1.1120  0.2623
   13MOL0     C 1620   4.424   0.122   7.400  0.6721  0.5739 -0.9328
   13MOL0     C 1621   4.359   0.263   7.447 -0.7175 -0.0477 -0.0907
   13MOL0     C 1622   4.238   0.266   7.542  1.0659 -0.5854 -0.1925
   13MOL0     C 1623   4.157   0.404   7.535 -0.5908  0.6120  1.2602
   13MOL0     C 1624   4.051   0.409   7.643  0.3132 -0.1985 -0.2221
   13MOL0     C 1625   3.924   0.319   7.631  0.0444 -0.5712  0.3242
   13MOL0     C 1626   3.827   0.354   7.740 -0.9366  0.4059  0.3775
   13MOL0     C 1627   3.702   0.272   7.751 -0.7609 -0.1825  0.1726
   13MOL0    Cl 1628   3.633   0.326   7.910  0.2689 -0.2045  0.2722
   13MOL0     C 1629   4.600  -0.073   7.278  0.0396 -0.5781  0.3410
   13MOL0     C 1630   4.694  -0.163   7.226  0.7602 -1.3650  0.2546
   13MOL0     O 1631   5.039  -0.164   7.263 -1.7604  0.2971  0.4862
   13MOL0     C 1632   5.082  -0.384   6.965 -0.6651  0.8998  0.5092
   13MOL0     C 1633   5.191  -0.436   6.885  0.1099  0.5255 -0.3304
   13MOL0     N 1634   5.549  -0.714   6.373  0.2051  0.6511 -0.0383
   13MOL0     N 1635   5.615  -0.755   6.268  0.0459  0.2767  0.8229
   13MOL0     C 1636   6.450  -0.274   6.590  0.1820 -0.5145  0.0994
   13MOL0     C 1637   6.559  -0.264   6.675 -0.1446  0.0203 -0.0549
   13MOL0     C 1638   6.993  -0.134   6.839  0.0428  0.9499  0.9259
   13MOL0     C 1639   6.978  -0.221   6.946 -0.4817 -0.5343  0.4760
   13MOL0     C 1640   7.093  -0.241   7.032  0.8630  0.2225 -0.0868
   13MOL0     C 1641   7.211  -0.177   7.010 -0.4594  0.3148  0.3898
   13MOL0     O 1642   7.315  -0.168   7.106 -0.1092  0.1316  0.5509
   13MOL0     C 1643   7.437  -0.226   7.056 -0.4083  0.0923 -0.2996
   13MOL0     C 1644   7.550  -0.156   7.134 -0.9930  1.4436  1.0307
   13MOL0     C 1645   7.600  -0.027   7.061 -0.5142 -0.3269  0.5655
   13MOL0     C 1646   7.681   0.066   7.153 -0.7127  0.1038  0.2098
   13MOL0     C 1647   7.697   0.197   7.096 -0.4856 -0.1892  0.1874
   13MOL0     C 1648   7.732   0.299   7.041 -1.0128 -0.0762 -0.3209
   13MOL0     C 1649   7.225  -0.106   6.890 -0.1622  0.2212  0.2537
   13MOL0     C 1650   7.115  -0.088   6.803  0.3400 -0.7515 -1.0414
   13MOL0     H 1651   6.749  -0.045   6.500  1.2097 -1.2827 -1.6289
   13MOL0     H 1652   6.562  -0.076   6.348 -2.5713 -0.7159 -0.6170
   13MOL0     H 1653   6.373  -0.430   6.374  2.4289  0.9306 -1.4069
   13MOL0     H 1654   6.302  -0.349   6.238 -3.1213 -1.0499 -0.0481
   13MOL0     H 1655   6.093  -0.290   6.342 -2.3546 -1.0362  0.4562
   13MOL0     H 1656   6.142  -0.350   6.491  3.1100 -3.3849  1.7803
   13MOL0     H 1657   5.990  -0.504   6.372  0.2928 -0.8913 -1.7917
   13MOL0     H 1658   6.136  -0.568   6.436  1.6448  1.3534  0.6019
   13MOL0     H 1659   6.119  -0.465   6.144  3.3345  0.6351 -0.2509
   13MOL0     H 1660   6.249  -0.536   6.201  0.3436 -0.0041 -0.4841
   13MOL0     H 1661   6.149  -0.747   6.248  1.0832  0.1070 -1.3066
   13MOL0     H 1662   6.124  -0.716   6.079 -3.0987  0.3057 -0.7164
   13MOL0     H 1663   5.901  -0.665   6.274  0.6577  3.7214 -2.1841
   13MOL0     H 1664   5.917  -0.821   6.182 -0.0584 -0.8659  3.2387
   13MOL0     H 1665   5.883  -0.525   6.083  1.7188  0.1289  0.3031
   13MOL0     H 1666   5.907  -0.662   5.974 -0.0731 -2.7833  0.4957
   13MOL0     H 1667   5.728  -0.792   6.044  7.2158 -0.5237 -0.8812
   13MOL0     H 1668   5.683  -0.625   5.973  3.2227  1.2100 -0.9839
   13MOL0     H 1669   5.605  -0.442   6.202 -1.4896 -1.6694  0.1036
   13MOL0     H 1670   5.392  -0.571   6.505  1.9607 -1.9328  0.4267
   13MOL0     H 1671   5.409  -0.408   6.427 -0.0048 -0.0953 -1.7042
   13MOL0     H 1672   5.546  -0.370   6.614  0.5326  0.6606 -1.5545
   13MOL0     H 1673   5.664  -0.459   6.520 -0.3514 -2.1681 -2.2003
   13MOL0     H 1674   5.567  -0.670   6.613  1.0597  1.8484 -2.5922
   13MOL0     H 1675   5.663  -0.569   6.719  0.8097 -2.0738 -2.1706
   13MOL0     H 1676   5.456  -0.636   6.840  2.5111 -0.3207 -0.9254
   13MOL0     H 1677   5.352  -0.580   6.718  1.5011 -0.8531 -1.9660
   13MOL0     H 1678   5.457  -0.287   7.015  0.8530  2.4112 -3.9645
   13MOL0     H 1679   5.284  -0.187   7.166  1.1369 -0.3444  1.0365
   13MOL0     H 1680   4.898   0.067   7.072  2.5150 -2.3695  0.1821
   13MOL0     H 1681   4.737   0.226   7.182  2.2550 -0.1218  2.6374
   13MOL0     H 1682   4.445   0.057   7.485 -1.7802 -0.4711 -1.0529
   13MOL0     H 1683   4.347   0.063   7.348  2.6561 -4.3138  1.0781
   13MOL0     H 1684   4.329   0.323   7.360 -2.3942 -0.0535  0.4612
   13MOL0     H 1685   4.436   0.315   7.505 -1.9177  3.0607 -1.0829
   13MOL0     H 1686   4.274   0.259   7.645  2.3252 -1.3072 -0.6569
   13MOL0     H 1687   4.173   0.184   7.512  0.2585  0.6940 -2.1801
   13MOL0     H 1688   4.229   0.485   7.543 -0.0845  0.1435  1.5281
   13MOL0     H 1689   4.118   0.406   7.433  2.7885 -4.1949 -0.5364
   13MOL0     H 1690   4.019   0.513   7.640 -1.3776 -0.6375 -4.5340
   13MOL0     H 1691   4.098   0.410   7.741 -0.3394  4.1731  0.2362
   13MOL0     H 1692   3.960   0.215   7.636 -1.5534 -1.2231 -0.7797
   13MOL0     H 1693   3.871   0.319   7.536 -0.4807 -1.2239  0.6080
   13MOL0     H 1694   3.890   0.342   7.829  0.6944  2.1986 -0.4640
   13MOL0     H 1695   3.782   0.453   7.728 -1.2408  0.2770  0.4416
   13MOL0     H 1696   3.722   0.165   7.744  0.3705  0.1440 -2.6865
   13MOL0     H 1697   3.644   0.300   7.663  0.3838 -0.1064 -0.5745
   13MOL0     H 1698   4.511  -0.114   7.324  0.3135 -3.0741 -1.2081
   13MOL0     H 1699   4.693  -0.272   7.219 -1.9465 -1.3860 -0.1590
   13MOL0     H 1700   4.981  -0.409   6.935 -0.5054  0.0028  0.6792
   13MOL0     H 1701   5.159  -0.504   6.806 -0.3883 -0.9621  1.1150
   13MOL0     H 1702   6.360  -0.323   6.625 -0.4367  2.0650  2.5157
   13MOL0     H 1703   6.551  -0.309   6.773  1.7108 -0.9392 -0.3112
   13MOL0     H 1704   6.884  -0.266   6.973 -0.6298  0.6738  2.0800
   13MOL0     H 1705   7.086  -0.299   7.124  0.4195  1.8762  0.9631
   13MOL0     H 1706   7.442  -0.241   6.948 -0.6428 -3.3235  0.0664
   13MOL0     H 1707   7.433  -0.329   7.093  3.4824  0.5757  2.0753
   13MOL0     H 1708   7.516  -0.127   7.234 -2.6417  0.7462  0.6973
   13MOL0     H 1709   7.635  -0.223   7.122 -0.1593  2.6025  0.1938
   13MOL0     H 1710   7.516   0.035   7.027  1.3864  0.4576 -3.2263
   13MOL0     H 1711   7.659  -0.054   6.973  0.6979 -3.1405  2.1265
   13MOL0     H 1712   7.623   0.087   7.243 -0.5106 -0.6954  0.5401
   13MOL0     H 1713   7.781   0.021   7.163 -2.4572 -3.9053  2.3150
   13MOL0     H 1714   7.774   0.381   6.986  0.9385 -0.4343  0.5615
   13MOL0     H 1715   7.322  -0.058   6.878  0.1972  0.2637  2.8550
   13MOL0     H 1716   7.138  -0.029   6.715 -0.5131 -1.8916 -2.0588
   14MOL0     O 1717   4.980   0.460   0.146  0.3341 -0.4005  0.1302
   14MOL0     C 1718   4.968   0.549   0.062 -0.9718 -0.4368 -0.3086
   14MOL0     O 1719   5.079   0.620   0.008  1.0188  0.4389 -0.9352
   14MOL0     C 1720   5.201   0.575   0.054  0.4256 -0.3393  1.1794
   14MOL0     C 1721   5.259   0.453   0.004 -0.5003  0.0353 -0.2990
   14MOL0     C 1722   5.402   0.432   0.041 -0.2652  0.4162 -0.4133
   14MOL0     C 1723   5.462   0.518   0.135  1.0488 -0.7943  0.6222
   14MOL0     O 1724   5.586   0.476   0.167  0.5186 -0.5763 -0.1688
   14MOL0     C 1725   5.671   0.551   0.246  0.1663 -0.0430  0.3948
   14MOL0     C 1726   5.786   0.471   0.299 -0.3930  0.5191  0.0962
   14MOL0     C 1727   5.873   0.553   0.401  0.6910 -0.4756 -0.1540
   14MOL0     C 1728   5.964   0.480   0.488 -0.4555 -0.4304  0.1485
   14MOL0     C 1729   6.054   0.574   0.580 -0.4479  0.1193  0.6620
   14MOL0     C 1730   6.153   0.490   0.669 -0.1877  0.0132 -0.1120
   14MOL0     C 1731   6.084   0.404   0.776  0.2919  0.3179  0.6618
   14MOL0     C 1732   6.176   0.284   0.814  0.5413 -1.1255 -0.8044
   14MOL0     N 1733   6.117   0.197   0.915  0.1910  0.5651 -0.4789
   14MOL0     C 1734   6.099   0.229   1.044 -0.0038 -0.3373 -0.0955
   14MOL0     C 1735   6.049   0.120   1.101  0.3250 -0.8508 -0.2814
   14MOL0     C 1736   6.021   0.100   1.243  0.1755 -0.2115  0.0327
   14MOL0     C 1737   5.877   0.126   1.283  0.3194 -0.3845 -0.7507
   14MOL0     C 1738   5.793   0.008   1.233 -0.7683 -0.3197  0.1193
   14MOL0     C 1739   5.658   0.009   1.314  0.3919 -0.6953 -0.3623
   14MOL0     O 1740   5.586  -0.116   1.288  0.5690 -0.5340  0.0162
   14MOL0     C 1741   5.490  -0.150   1.381  1.2236  0.6090  0.5290
   14MOL0     C 1742   5.435  -0.056   1.469 -0.2312 -0.4715  0.4061
   14MOL0     C 1743   5.339  -0.082   1.556  0.1801  0.5338 -0.4728
   14MOL0     C 1744   5.285  -0.211   1.563  0.1986 -0.6188 -0.7735
   14MOL0     C 1745   5.192  -0.256   1.669  0.3806 -0.5381 -0.1834
   14MOL0     O 1746   5.184  -0.386   1.695 -0.4420 -0.2013 -0.5932
   14MOL0     C 1747   5.093  -0.430   1.800 -0.1066 -0.4102 -0.5577
   14MOL0     C 1748   4.961  -0.433   1.782 -0.7721 -0.2556  0.3609
   14MOL0     C 1749   4.870  -0.492   1.866  0.0866 -0.1063  0.0564
   14MOL0     C 1750   4.913  -0.543   1.981  0.2169  0.5594 -0.7190
   14MOL0     O 1751   4.826  -0.594   2.069 -0.1619  0.0339 -0.3491
   14MOL0     C 1752   4.858  -0.711   2.154 -0.0926  0.4879 -0.1885
   14MOL0     C 1753   4.730  -0.766   2.219 -0.0079  0.3989  0.5327
   14MOL0     C 1754   4.756  -0.885   2.314 -0.2251 -0.3937  0.1234
   14MOL0     C 1755   4.637  -0.926   2.391  0.3736  0.7816  0.0335
   14MOL0     C 1756   4.664  -1.038   2.500  0.2954 -0.4993 -0.8934
   14MOL0     C 1757   4.557  -1.051   2.604  0.3056 -0.1038  0.1078
   14MOL0     C 1758   4.590  -1.136   2.724 -0.1258  0.2294 -0.2376
   14MOL0     C 1759   4.489  -1.127   2.830  0.1427  0.2971 -0.1164
   14MOL0    Cl 1760   4.529  -1.206   2.979 -0.4953 -0.0239 -0.3267
   14MOL0     C 1761   5.048  -0.542   2.010 -0.4736  0.2989  0.1027
   14MOL0     C 1762   5.137  -0.488   1.915 -0.9119 -0.8710  0.2640
   14MOL0     O 1763   5.125  -0.173   1.727 -0.3199  0.0803  0.3580
   14MOL0     C 1764   5.335  -0.311   1.473  0.5424 -0.0214 -0.0445
   14MOL0     C 1765   5.437  -0.282   1.382 -0.3275  0.7288  0.4048
   14MOL0     N 1766   6.034   0.017   1.008 -0.0625  0.1436 -0.1999
   14MOL0     N 1767   6.077   0.068   0.893  0.2675  0.7512 -0.0184
   14MOL0     C 1768   5.400   0.635   0.184 -0.5837  0.9137  0.1465
   14MOL0     C 1769   5.269   0.661   0.137 -1.0375 -0.7270 -0.6283
   14MOL0     C 1770   4.840   0.600   0.015  0.1147 -1.0774  0.9125
   14MOL0     C 1771   4.828   0.695  -0.089  0.4841 -0.2703 -1.9709
   14MOL0     C 1772   4.702   0.743  -0.129 -0.2946 -0.6872 -0.1582
   14MOL0     C 1773   4.591   0.690  -0.075 -0.3596 -0.4864  0.0078
   14MOL0     O 1774   4.468   0.737  -0.097 -0.8759  0.7479  0.6176
   14MOL0     C 1775   4.442   0.823  -0.212 -0.1247 -0.4575  0.4858
   14MOL0     C 1776   4.307   0.886  -0.170 -0.2372 -0.2470 -0.3924
   14MOL0     C 1777   4.256   0.990  -0.276  1.0696  0.3495 -0.0391
   14MOL0     C 1778   4.125   1.055  -0.242  0.0107  0.1297 -0.6929
   14MOL0     C 1779   4.014   0.969  -0.283  0.0221 -0.4447  0.2056
   14MOL0     C 1780   3.910   0.911  -0.303  0.2990 -0.2794 -0.0587
   14MOL0     C 1781   4.602   0.588   0.023 -0.2030  0.7729 -0.1411
   14MOL0     C 1782   4.725   0.537   0.068  0.4237  0.3318 -0.3329
   14MOL0     H 1783   5.200   0.383  -0.056  1.1211 -0.5152 -1.3096
   14MOL0     H 1784   5.468   0.355   0.003  1.0446  1.5209 -0.4604
   14MOL0     H 1785   5.614   0.578   0.336 -1.6271  0.0562 -0.7114
   14MOL0     H 1786   5.701   0.642   0.193 -0.8526 -0.1302 -0.3674
   14MOL0     H 1787   5.839   0.442   0.208  0.5632  2.1820  0.0862
   14MOL0     H 1788   5.751   0.385   0.356 -1.5940  0.2010 -1.0552
   14MOL0     H 1789   5.810   0.620   0.461  0.7987  0.6195 -1.2324
   14MOL0     H 1790   5.926   0.621   0.333 -2.5382  0.2989 -2.1076
   14MOL0     H 1791   5.908   0.412   0.553  0.1317 -0.4310  0.6668
   14MOL0     H 1792   6.038   0.428   0.426  2.4848  2.8034  0.6516
   14MOL0     H 1793   5.995   0.630   0.652  1.0848  0.1502  1.9617
   14MOL0     H 1794   6.110   0.642   0.514 -0.1045 -1.2055 -0.4713
   14MOL0     H 1795   6.239   0.542   0.712 -0.3485  1.0391 -0.9766
   14MOL0     H 1796   6.206   0.418   0.606  2.9425  0.1368  2.1496
   14MOL0     H 1797   6.056   0.454   0.869  1.3136 -1.0137  1.7201
   14MOL0     H 1798   5.997   0.355   0.729  2.1654 -2.1249 -0.4685
   14MOL0     H 1799   6.262   0.334   0.861 -2.4532  3.9952  0.0047
   14MOL0     H 1800   6.211   0.224   0.730  1.2596 -1.3269 -0.3752
   14MOL0     H 1801   6.133   0.315   1.101  0.9423 -2.4654  2.8051
   14MOL0     H 1802   6.086   0.178   1.286 -1.2202  0.2354  1.4394
   14MOL0     H 1803   6.055   0.003   1.280 -0.4180 -0.9219 -1.2450
   14MOL0     H 1804   5.844   0.225   1.249 -1.7105 -0.9728 -0.6612
   14MOL0     H 1805   5.888   0.119   1.391  1.5042 -0.1627 -0.8486
   14MOL0     H 1806   5.789   0.019   1.124  2.0447 -0.6383 -0.1012
   14MOL0     H 1807   5.843  -0.087   1.252 -2.5913 -0.9083  2.4770
   14MOL0     H 1808   5.608   0.103   1.291 -1.0193 -1.5326 -0.8071
   14MOL0     H 1809   5.679   0.017   1.421 -1.2668  2.8835 -0.1656
   14MOL0     H 1810   5.482   0.041   1.477  2.0812 -1.2649 -1.9493
   14MOL0     H 1811   5.300   0.001   1.615  0.8123  1.1693 -0.9233
   14MOL0     H 1812   4.924  -0.404   1.685 -0.9474  0.0057  0.5032
   14MOL0     H 1813   4.771  -0.525   1.838 -0.2067 -0.1175  1.0663
   14MOL0     H 1814   4.931  -0.672   2.225 -1.0189  3.4955 -0.7375
   14MOL0     H 1815   4.892  -0.784   2.079  2.1764  1.6465 -0.3548
   14MOL0     H 1816   4.664  -0.807   2.142 -2.9164  1.2555  2.4066
   14MOL0     H 1817   4.683  -0.684   2.275 -0.0120  0.5072  0.3704
   14MOL0     H 1818   4.836  -0.856   2.383  0.5366  1.2689 -1.3806
   14MOL0     H 1819   4.795  -0.965   2.250 -1.3853  0.9271 -2.3935
   14MOL0     H 1820   4.599  -0.835   2.439  2.8689  3.1925 -2.2126
   14MOL0     H 1821   4.561  -0.967   2.324 -0.8425  1.9254  0.6765
   14MOL0     H 1822   4.758  -1.004   2.545 -0.4305 -0.2684  0.5052
   14MOL0     H 1823   4.683  -1.132   2.447 -1.8080 -2.5087  1.6414
   14MOL0     H 1824   4.461  -1.082   2.561 -0.2022  0.7448  0.5977
   14MOL0     H 1825   4.534  -0.956   2.652  0.0864 -0.9111  1.6578
   14MOL0     H 1826   4.588  -1.243   2.704 -0.2892 -0.0472  1.1352
   14MOL0     H 1827   4.693  -1.110   2.750 -0.1555 -0.0607  0.1831
   14MOL0     H 1828   4.391  -1.157   2.792  0.0722 -1.5072  1.3456
   14MOL0     H 1829   4.468  -1.021   2.847 -0.2087  0.4444 -1.3360
   14MOL0     H 1830   5.081  -0.586   2.103 -2.2147  0.0698  0.6619
   14MOL0     H 1831   5.245  -0.493   1.919 -0.8851 -1.0496 -0.4305
   14MOL0     H 1832   5.298  -0.413   1.478 -0.4018 -0.1580 -4.6191
   14MOL0     H 1833   5.475  -0.363   1.320 -2.1074  0.9894 -1.1306
   14MOL0     H 1834   5.447   0.704   0.253  2.0559  0.7118 -1.3131
   14MOL0     H 1835   5.219   0.749   0.175  0.8684  2.2589 -4.3377
   14MOL0     H 1836   4.918   0.736  -0.135  0.1407  1.1798 -1.4131
   14MOL0     H 1837   4.694   0.822  -0.203  2.2657  1.9883  2.1557
   14MOL0     H 1838   4.426   0.765  -0.304 -2.7172  0.7032  0.1168
   14MOL0     H 1839   4.514   0.902  -0.230 -0.4774 -0.6355 -2.0335
   14MOL0     H 1840   4.234   0.806  -0.159 -1.8674  1.2758  0.5057
   14MOL0     H 1841   4.323   0.937  -0.075 -1.6404 -1.4675  0.5311
   14MOL0     H 1842   4.230   0.939  -0.369 -1.8895  2.4625 -0.5014
   14MOL0     H 1843   4.325   1.073  -0.290 -0.3810  1.4720 -0.7626
   14MOL0     H 1844   4.130   1.067  -0.133 -0.2241 -2.3455 -0.3649
   14MOL0     H 1845   4.117   1.155  -0.286  0.5333 -0.2852 -1.7551
   14MOL0     H 1846   3.813   0.866  -0.310 -0.7515  1.5462  1.7865
   14MOL0     H 1847   4.513   0.558   0.076  0.3752  1.7543  1.4476
   14MOL0     H 1848   4.733   0.451   0.134 -2.2752  1.0009  1.0487
   15MOL0     O 1849   1.107   6.040   4.018  0.4597  0.1538 -0.2111
   15MOL0     C 1850   1.139   5.994   4.131  0.2560 -0.4748  0.6728
   15MOL0     O 1851   1.058   5.954   4.227 -0.1249  0.6034  0.1832
   15MOL0     C 1852   0.925   5.964   4.214  0.1106 -0.4857  0.0121
   15MOL0     C 1853   0.844   5.926   4.105 -0.7266  0.5496  0.4042
   15MOL0     C 1854   0.704   5.939   4.097  0.1360 -0.1067 -0.7417
   15MOL0     C 1855   0.640   5.997   4.213 -0.2320 -0.0741 -0.1618
   15MOL0     O 1856   0.508   6.011   4.206 -0.0182  0.0476 -0.3972
   15MOL0     C 1857   0.445   6.130   4.265  0.3857  0.7135 -0.1775
   15MOL0     C 1858   0.307   6.133   4.199  0.6462 -0.2781 -0.2538
   15MOL0     C 1859   0.212   6.251   4.242 -0.3819  0.4670 -0.1744
   15MOL0     C 1860   0.072   6.227   4.185  0.4924 -0.5155 -0.4824
   15MOL0     C 1861  -0.005   6.355   4.224  0.4588  0.3415  0.3534
   15MOL0     C 1862  -0.162   6.330   4.181 -0.3574  0.0455 -0.3454
   15MOL0     C 1863  -0.244   6.458   4.203  0.2622 -0.0923  0.5005
   15MOL0     C 1864  -0.393   6.430   4.171  0.1235 -0.0102 -0.5681
   15MOL0     N 1865  -0.450   6.557   4.124  0.3664 -1.5996 -0.8490
   15MOL0     C 1866  -0.418   6.623   4.004 -0.4336 -0.7980 -0.7348
   15MOL0     C 1867  -0.499   6.733   4.000 -0.1965  0.4555 -0.1249
   15MOL0     C 1868  -0.509   6.842   3.888  0.5904  0.0540 -0.2143
   15MOL0     C 1869  -0.648   6.900   3.865  0.5774  1.1716  0.2359
   15MOL0     C 1870  -0.647   7.021   3.769 -0.3823 -0.0710  0.0585
   15MOL0     C 1871  -0.789   7.062   3.735 -0.7019 -0.2263 -0.7043
   15MOL0     O 1872  -0.783   7.204   3.707 -0.3361 -0.0850 -0.1899
   15MOL0     C 1873  -0.885   7.270   3.641  0.5667  0.0785 -0.9747
   15MOL0     C 1874  -1.017   7.224   3.632  0.3380 -0.2728  0.4537
   15MOL0     C 1875  -1.127   7.296   3.574 -0.6042 -0.2091 -0.2621
   15MOL0     C 1876  -1.103   7.417   3.521  0.3732  0.5291 -1.1369
   15MOL0     C 1877  -1.214   7.484   3.450 -0.2416 -0.7310  0.0837
   15MOL0     O 1878  -1.340   7.433   3.455  0.0661  0.0944  0.6658
   15MOL0     C 1879  -1.452   7.507   3.416  0.1021  0.5385 -0.0793
   15MOL0     C 1880  -1.471   7.641   3.371  0.8075  0.2306 -0.1365
   15MOL0     C 1881  -1.602   7.691   3.340  0.1033 -0.2703  0.2023
   15MOL0     C 1882  -1.717   7.617   3.352  0.6842 -0.0467 -0.9353
   15MOL0     O 1883  -1.840   7.669   3.317 -0.3727  0.6671 -0.5465
   15MOL0     C 1884  -1.952   7.581   3.334  0.0127  0.2627  0.1238
   15MOL0     C 1885  -2.077   7.644   3.280  0.0599 -0.0634 -0.6520
   15MOL0     C 1886  -2.139   7.757   3.371  0.4266 -0.0480 -0.4112
   15MOL0     C 1887  -2.259   7.832   3.299  1.0270 -0.3893  0.2015
   15MOL0     C 1888  -2.305   7.946   3.378 -0.9751 -0.8317  0.4465
   15MOL0     C 1889  -2.446   7.990   3.345 -0.7534 -0.4676  0.2217
   15MOL0     C 1890  -2.501   8.085   3.443 -0.5379  0.5952  0.5514
   15MOL0     C 1891  -2.637   8.144   3.411  0.2193  1.1964 -0.5672
   15MOL0    Cl 1892  -2.684   8.245   3.550  0.0373  0.0818 -0.2914
   15MOL0     C 1893  -1.703   7.485   3.400 -0.4592  0.0962 -0.4763
   15MOL0     C 1894  -1.575   7.435   3.442  0.5834 -0.6541 -0.2655
   15MOL0     O 1895  -1.179   7.590   3.388  0.7431 -0.3742  0.6675
   15MOL0     C 1896  -0.977   7.470   3.531  0.0382 -0.2598 -0.0073
   15MOL0     C 1897  -0.872   7.394   3.587  0.1898 -1.0949  0.1091
   15MOL0     N 1898  -0.562   6.742   4.126  0.5964 -0.8807  0.7111
   15MOL0     N 1899  -0.545   6.632   4.188  0.3494 -0.4334 -0.4208
   15MOL0     C 1900   0.722   6.038   4.322  0.2842 -0.8219  0.1805
   15MOL0     C 1901   0.864   6.020   4.322  0.5071  1.2355 -0.3362
   15MOL0     C 1902   1.285   5.981   4.157 -0.4519  0.7179 -0.0758
   15MOL0     C 1903   1.381   6.029   4.059  0.3547  0.2017 -0.0611
   15MOL0     C 1904   1.519   6.005   4.080 -0.2366  0.4161  0.0712
   15MOL0     C 1905   1.569   5.940   4.190  0.0995 -1.0963 -0.5237
   15MOL0     O 1906   1.700   5.939   4.200 -0.6846 -0.8495 -0.2060
   15MOL0     C 1907   1.771   5.848   4.280 -0.5456  0.7095 -1.4066
   15MOL0     C 1908   1.785   5.709   4.211 -0.4104  0.6392  0.3767
   15MOL0     C 1909   1.860   5.611   4.303 -0.1282 -0.2064  0.6405
   15MOL0     C 1910   1.841   5.462   4.264  0.7058  0.0998 -0.3537
   15MOL0     C 1911   1.872   5.442   4.123  0.0836  0.8421 -0.4521
   15MOL0     C 1912   1.905   5.440   4.009  0.8414  0.8914  0.1576
   15MOL0     C 1913   1.482   5.887   4.285 -0.8487 -0.1592 -0.3824
   15MOL0     C 1914   1.339   5.904   4.267 -0.4697 -0.1059  0.0320
   15MOL0     H 1915   0.890   5.887   4.016 -0.0419  0.5539  0.7474
   15MOL0     H 1916   0.647   5.904   4.011  0.3698  1.4369 -1.5772
   15MOL0     H 1917   0.510   6.215   4.243 -1.7526  2.1140 -1.4409
   15MOL0     H 1918   0.430   6.113   4.372 -0.9685 -2.9552 -0.7913
   15MOL0     H 1919   0.244   6.045   4.212 -0.3708  0.3470 -0.8519
   15MOL0     H 1920   0.312   6.134   4.090 -1.1633 -0.1210 -0.3626
   15MOL0     H 1921   0.254   6.349   4.215 -0.5395  1.3974  2.6102
   15MOL0     H 1922   0.209   6.259   4.351  3.0608  2.7476 -0.0873
   15MOL0     H 1923   0.071   6.212   4.077  0.7016  4.9851 -1.5187
   15MOL0     H 1924   0.020   6.154   4.248  0.3280 -0.0380 -0.0589
   15MOL0     H 1925   0.029   6.447   4.173  1.7828 -1.9621 -3.3331
   15MOL0     H 1926  -0.002   6.372   4.332  2.7400  2.8614  0.0027
   15MOL0     H 1927  -0.204   6.244   4.232  3.8695 -1.5498  0.8505
   15MOL0     H 1928  -0.162   6.304   4.075 -0.0672 -0.3692 -0.2444
   15MOL0     H 1929  -0.244   6.488   4.308 -3.6905  0.7119  0.4089
   15MOL0     H 1930  -0.220   6.544   4.139 -2.0671  2.1256  2.3986
   15MOL0     H 1931  -0.446   6.399   4.261  2.9426 -0.0987  1.2061
   15MOL0     H 1932  -0.404   6.351   4.096 -0.7561  2.7321 -3.5580
   15MOL0     H 1933  -0.339   6.603   3.932  2.1687  0.1589  1.6523
   15MOL0     H 1934  -0.469   6.814   3.790 -1.3076 -2.2591 -0.4028
   15MOL0     H 1935  -0.452   6.928   3.924 -1.8984  0.4631  3.1909
   15MOL0     H 1936  -0.692   6.934   3.959  2.4104 -2.8447  2.8497
   15MOL0     H 1937  -0.719   6.828   3.823  1.0243  1.7561 -1.6183
   15MOL0     H 1938  -0.591   7.105   3.812 -0.3190 -0.5971  1.0190
   15MOL0     H 1939  -0.605   6.999   3.670 -0.2644 -0.1484  0.1259
   15MOL0     H 1940  -0.846   7.038   3.825 -0.3486 -1.4349 -0.7873
   15MOL0     H 1941  -0.828   7.000   3.654  0.4625 -0.9189 -0.7605
   15MOL0     H 1942  -1.033   7.127   3.677 -0.3579 -1.2894 -1.8351
   15MOL0     H 1943  -1.227   7.253   3.572 -1.1862  1.0103  1.2099
   15MOL0     H 1944  -1.383   7.705   3.365  1.5841 -0.4927  2.2391
   15MOL0     H 1945  -1.596   7.792   3.301  0.0846  1.1031  3.3905
   15MOL0     H 1946  -1.970   7.562   3.440 -2.3015 -1.5438 -0.5122
   15MOL0     H 1947  -1.934   7.483   3.288 -1.1930 -0.7844  1.7327
   15MOL0     H 1948  -2.152   7.565   3.289  2.7342 -2.6722  0.3782
   15MOL0     H 1949  -2.049   7.682   3.181  0.8727  3.7299  0.8409
   15MOL0     H 1950  -2.052   7.820   3.391  1.5649 -1.3928 -0.9322
   15MOL0     H 1951  -2.161   7.693   3.457 -0.4534 -1.5016 -1.6498
   15MOL0     H 1952  -2.235   7.863   3.197  2.3503  0.7164  0.8261
   15MOL0     H 1953  -2.343   7.763   3.283  0.2831  0.9636 -2.3175
   15MOL0     H 1954  -2.240   8.032   3.360 -0.7678 -1.0066  0.3524
   15MOL0     H 1955  -2.306   7.914   3.483 -3.6728  0.0685  0.7793
   15MOL0     H 1956  -2.500   7.895   3.338 -0.4853 -0.5066 -2.0868
   15MOL0     H 1957  -2.437   8.034   3.246  1.6540  0.1599  0.6548
   15MOL0     H 1958  -2.519   8.025   3.533 -0.8249 -1.4900 -0.8347
   15MOL0     H 1959  -2.428   8.166   3.455  1.8738 -0.6776 -3.6188
   15MOL0     H 1960  -2.705   8.059   3.398  0.9616  0.6815 -1.1475
   15MOL0     H 1961  -2.642   8.207   3.321 -1.3813  2.7732  0.5410
   15MOL0     H 1962  -1.782   7.412   3.411  1.1532 -1.5751  0.5191
   15MOL0     H 1963  -1.567   7.331   3.474  2.4902  0.0326  1.7333
   15MOL0     H 1964  -0.953   7.562   3.480 -0.0290 -0.4438 -0.3800
   15MOL0     H 1965  -0.769   7.430   3.585 -0.1060 -0.1412  1.1428
   15MOL0     H 1966   0.686   6.089   4.411  1.7142  2.2183 -0.8364
   15MOL0     H 1967   0.930   6.049   4.403 -2.4926  3.9253  1.3929
   15MOL0     H 1968   1.346   6.072   3.965 -0.3553  1.2759  0.6618
   15MOL0     H 1969   1.590   6.041   4.006 -1.4553  0.4291 -1.1292
   15MOL0     H 1970   1.730   5.839   4.381 -1.1767  0.2602 -1.6902
   15MOL0     H 1971   1.868   5.892   4.306  0.5738 -0.8618 -2.7225
   15MOL0     H 1972   1.690   5.663   4.185  0.8703 -1.4899 -0.7892
   15MOL0     H 1973   1.839   5.723   4.117 -1.4497 -2.8887 -0.9038
   15MOL0     H 1974   1.826   5.627   4.406  0.8200  1.1017  0.7795
   15MOL0     H 1975   1.967   5.631   4.314 -0.7468  4.8289 -0.1982
   15MOL0     H 1976   1.911   5.399   4.320  1.2646  1.2894  0.3328
   15MOL0     H 1977   1.737   5.437   4.288 -0.0688  2.6199 -0.8500
   15MOL0     H 1978   1.928   5.452   3.904  0.8422 -4.2940 -0.6884
   15MOL0     H 1979   1.512   5.828   4.370 -0.2848  0.6626  0.0027
   15MOL0     H 1980   1.270   5.863   4.340  0.0276  2.2262  1.9624
   16MOL0     O 1981  10.271   9.707   2.049 -0.2712  0.1887  0.4626
   16MOL0     C 1982  10.248   9.646   2.152  0.0259 -0.2533 -0.4453
   16MOL0     O 1983  10.132   9.584   2.185 -0.5894  0.5055 -0.0734
   16MOL0     C 1984  10.037   9.582   2.085 -0.4005 -0.3584 -0.1350
   16MOL0     C 1985   9.936   9.677   2.094  0.5033 -0.6034 -0.1788
   16MOL0     C 1986   9.854   9.697   1.976 -0.1736 -0.8674  0.1938
   16MOL0     C 1987   9.867   9.621   1.865  0.5719 -0.4833  0.8506
   16MOL0     O 1988   9.788   9.618   1.749 -0.0391 -0.1454  0.0443
   16MOL0     C 1989   9.682   9.710   1.725  0.1514 -0.3030  0.2688
   16MOL0     C 1990   9.720   9.847   1.685 -1.1364  0.3632  0.6174
   16MOL0     C 1991   9.611   9.955   1.692  0.1708 -0.7800  0.3514
   16MOL0     C 1992   9.497   9.931   1.789 -0.3952 -0.2868  0.1801
   16MOL0     C 1993   9.414  10.062   1.823  0.7869  0.6425  0.6774
   16MOL0     C 1994   9.317  10.116   1.714 -0.2477  0.0753 -0.0877
   16MOL0     C 1995   9.224  10.222   1.784 -0.0934  0.6690 -0.2927
   16MOL0     C 1996   9.172  10.337   1.700 -0.6395  0.4024  0.0981
   16MOL0     N 1997   9.083  10.430   1.774  0.2662  0.4407 -0.3829
   16MOL0     C 1998   8.950  10.427   1.758 -0.0687  0.0811  0.3506
   16MOL0     C 1999   8.900  10.551   1.767  0.2683 -0.0342 -0.6362
   16MOL0     C 2000   8.758  10.588   1.743  0.2319 -0.2528  0.4524
   16MOL0     C 2001   8.721  10.680   1.867 -0.1969 -0.5240 -0.6036
   16MOL0     C 2002   8.580  10.756   1.849  0.6053  0.1015  0.5233
   16MOL0     C 2003   8.474  10.654   1.840  0.6652  0.3863 -0.1694
   16MOL0     O 2004   8.351  10.733   1.832  0.3471  0.4173  0.5638
   16MOL0     C 2005   8.245  10.677   1.880 -0.0733  0.1943 -0.6486
   16MOL0     C 2006   8.227  10.538   1.895  0.3713 -1.3165  0.1418
   16MOL0     C 2007   8.106  10.485   1.941 -0.0660 -0.3366 -0.2729
   16MOL0     C 2008   8.007  10.572   1.985  0.3259 -0.6103  0.3751
   16MOL0     C 2009   7.889  10.517   2.046  0.3845  0.1640  0.3603
   16MOL0     O 2010   7.900  10.397   2.109 -0.5175 -0.1418  0.1208
   16MOL0     C 2011   7.788  10.325   2.160 -1.6834  0.7356 -0.9227
   16MOL0     C 2012   7.656  10.373   2.180 -0.4729 -0.3775  0.4866
   16MOL0     C 2013   7.554  10.288   2.195  0.8689  0.2363  0.0447
   16MOL0     C 2014   7.564  10.146   2.191  0.5778 -0.1804 -0.9124
   16MOL0     O 2015   7.458  10.059   2.209  0.1678 -0.2699 -0.3384
   16MOL0     C 2016   7.338  10.080   2.135 -0.5979  0.5071 -0.2325
   16MOL0     C 2017   7.278   9.946   2.092  0.4042  0.6477 -0.6161
   16MOL0     C 2018   7.137   9.977   2.031  0.1178  0.3800  0.4740
   16MOL0     C 2019   7.079   9.862   1.943  0.4667  0.6079 -0.3632
   16MOL0     C 2020   7.046   9.737   2.025  0.7549 -0.5991 -0.3761
   16MOL0     C 2021   6.934   9.748   2.128  0.1100  0.6856  0.9543
   16MOL0     C 2022   6.874   9.623   2.191 -0.8256 -0.0235 -0.4348
   16MOL0     C 2023   6.764   9.642   2.297  0.8957  0.0363  0.3640
   16MOL0    Cl 2024   6.749   9.496   2.393  0.0711 -0.2667 -0.1568
   16MOL0     C 2025   7.699  10.091   2.190 -0.3454 -1.1687  1.0217
   16MOL0     C 2026   7.804  10.185   2.174  1.0654 -0.3173 -0.4893
   16MOL0     O 2027   7.792  10.585   2.041  0.0602 -0.7046 -0.2601
   16MOL0     C 2028   8.024  10.712   1.966  0.2509  0.9750  0.1950
   16MOL0     C 2029   8.141  10.766   1.912  1.0883 -0.1374  1.2070
   16MOL0     N 2030   9.009  10.631   1.807 -0.1786  0.0930 -0.5635
   16MOL0     N 2031   9.119  10.556   1.809 -0.0535 -0.8305  0.0737
   16MOL0     C 2032   9.961   9.522   1.871 -0.2442 -0.5841  0.3162
   16MOL0     C 2033  10.039   9.498   1.984  0.3830 -0.3261 -0.6703
   16MOL0     C 2034  10.362   9.653   2.247  0.0660 -0.1625  0.0539
   16MOL0     C 2035  10.355   9.614   2.383  1.1707 -0.2160  0.2525
   16MOL0     C 2036  10.458   9.662   2.474 -0.0622  0.2620 -0.7952
   16MOL0     C 2037  10.567   9.725   2.429 -0.7653  0.3164 -0.2327
   16MOL0     O 2038  10.645   9.773   2.531  0.0223  0.5024  0.3745
   16MOL0     C 2039  10.744   9.879   2.491 -0.2220  0.3977  0.6031
   16MOL0     C 2040  10.878   9.828   2.517 -1.5835  0.5933 -0.1981
   16MOL0     C 2041  10.908   9.831   2.674 -0.4380 -0.9904 -0.9168
   16MOL0     C 2042  11.030   9.746   2.702 -0.0390  0.1120 -0.1952
   16MOL0     C 2043  11.145   9.781   2.619  0.1620 -0.6206  0.9318
   16MOL0     C 2044  11.231   9.820   2.542  1.0968 -0.0493  0.0930
   16MOL0     C 2045  10.591   9.729   2.288 -0.3465  0.1563 -0.5993
   16MOL0     C 2046  10.484   9.706   2.199  0.1256 -0.1722  0.1140
   16MOL0     H 2047   9.918   9.721   2.191  2.9113 -1.3741  0.6903
   16MOL0     H 2048   9.780   9.776   1.969  1.8679  1.3266  1.8195
   16MOL0     H 2049   9.611   9.710   1.808 -0.6743 -0.9798 -0.4122
   16MOL0     H 2050   9.627   9.664   1.642 -0.3976 -1.6350  1.3328
   16MOL0     H 2051   9.779   9.863   1.594  0.0781  4.7713  1.9229
   16MOL0     H 2052   9.790   9.882   1.762  0.7265 -1.3364 -0.2159
   16MOL0     H 2053   9.570   9.978   1.593  0.2361  0.4622  0.6050
   16MOL0     H 2054   9.660  10.050   1.713 -0.0545 -0.3687 -0.9051
   16MOL0     H 2055   9.427   9.856   1.751 -2.0712  0.9271  0.7525
   16MOL0     H 2056   9.552   9.904   1.880  2.6881 -1.9290 -1.9870
   16MOL0     H 2057   9.485  10.141   1.850 -0.4688  1.7172  0.9430
   16MOL0     H 2058   9.355  10.039   1.912  0.5612  4.1706  1.5992
   16MOL0     H 2059   9.254  10.029   1.696  0.6181 -0.4994 -0.4437
   16MOL0     H 2060   9.364  10.147   1.620  0.3719  1.1596  0.5474
   16MOL0     H 2061   9.142  10.167   1.831 -0.8873  2.1907  0.1853
   16MOL0     H 2062   9.276  10.261   1.872  0.7570 -0.7710 -0.1221
   16MOL0     H 2063   9.111  10.294   1.620  1.0196 -0.1951 -0.8889
   16MOL0     H 2064   9.258  10.383   1.650 -1.3498 -2.1986 -3.9795
   16MOL0     H 2065   8.886  10.348   1.719  3.5152 -2.2180 -1.4211
   16MOL0     H 2066   8.698  10.497   1.743  2.2562 -1.7879  3.7799
   16MOL0     H 2067   8.747  10.639   1.647 -2.7997  0.2670  0.9601
   16MOL0     H 2068   8.801  10.754   1.875 -1.5403  0.9568 -0.4567
   16MOL0     H 2069   8.708  10.625   1.961 -2.8352  2.2202  0.8330
   16MOL0     H 2070   8.553  10.813   1.938 -0.5546  0.5298 -0.0830
   16MOL0     H 2071   8.587  10.823   1.763  0.8172 -0.4618  0.0977
   16MOL0     H 2072   8.467  10.577   1.918 -0.1497  0.9645  0.3539
   16MOL0     H 2073   8.476  10.596   1.747  1.8389  2.6299 -1.6183
   16MOL0     H 2074   8.296  10.473   1.843  1.7366 -0.4858  0.8633
   16MOL0     H 2075   8.087  10.379   1.954  0.3117 -0.2911  0.7526
   16MOL0     H 2076   7.637  10.480   2.177  1.8228  0.0757 -0.3021
   16MOL0     H 2077   7.457  10.333   2.209 -0.1050 -1.5309 -0.7026
   16MOL0     H 2078   7.349  10.141   2.045 -2.5080  0.5309 -0.5041
   16MOL0     H 2079   7.264  10.131   2.198 -4.2018 -2.0305 -2.0424
   16MOL0     H 2080   7.268   9.869   2.169  5.3854  1.1863  0.9750
   16MOL0     H 2081   7.341   9.895   2.019 -0.0850 -0.8785  0.0020
   16MOL0     H 2082   7.151  10.062   1.963  0.5415  1.2122  1.5692
   16MOL0     H 2083   7.077  10.020   2.112  1.4427  2.3871  0.4793
   16MOL0     H 2084   6.996   9.903   1.885  1.8460  0.9715 -2.1767
   16MOL0     H 2085   7.146   9.827   1.864  1.9482  0.3529  0.9494
   16MOL0     H 2086   7.137   9.712   2.079  2.0039 -0.1712 -2.1801
   16MOL0     H 2087   7.027   9.651   1.960 -0.1797 -1.9975  1.6303
   16MOL0     H 2088   6.847   9.804   2.093 -0.4220 -1.5126 -1.5551
   16MOL0     H 2089   6.978   9.813   2.204 -0.2766 -0.0163  1.7888
   16MOL0     H 2090   6.830   9.563   2.111 -2.3025 -0.2813  0.5207
   16MOL0     H 2091   6.950   9.558   2.236 -1.7923 -0.4110  0.7007
   16MOL0     H 2092   6.668   9.665   2.251  1.9624  0.6779 -1.6672
   16MOL0     H 2093   6.785   9.725   2.365 -0.6582  1.2428 -0.5576
   16MOL0     H 2094   7.713   9.985   2.207  2.2601 -0.8144  1.5109
   16MOL0     H 2095   7.902  10.142   2.158  1.6412  0.9353 -0.4925
   16MOL0     H 2096   7.955  10.780   2.014 -0.7236 -0.8170  1.4552
   16MOL0     H 2097   8.145  10.873   1.889 -3.9296  0.0475 -0.0787
   16MOL0     H 2098   9.966   9.463   1.780  0.5866 -3.7755  2.2811
   16MOL0     H 2099  10.113   9.418   1.987  0.3241 -0.4247  3.3168
   16MOL0     H 2100  10.259   9.572   2.414  1.0968 -2.2000 -2.3228
   16MOL0     H 2101  10.453   9.634   2.579 -2.9592 -0.0229 -0.9305
   16MOL0     H 2102  10.715   9.962   2.556  1.2883  0.4142  1.2890
   16MOL0     H 2103  10.731   9.919   2.390 -0.3297 -0.9861  0.0443
   16MOL0     H 2104  10.875   9.728   2.473 -1.1239  0.9660 -1.0945
   16MOL0     H 2105  10.953   9.891   2.467 -0.5564  2.1276  2.9643
   16MOL0     H 2106  10.817   9.790   2.720 -2.2931  3.0811 -0.5449
   16MOL0     H 2107  10.927   9.934   2.705  1.7229 -1.4622 -0.5162
   16MOL0     H 2108  11.057   9.772   2.805  2.2658  0.1511 -0.7597
   16MOL0     H 2109  11.000   9.642   2.688 -0.2544  0.3572 -1.6715
   16MOL0     H 2110  11.290   9.843   2.455  2.1659  1.2579  1.1254
   16MOL0     H 2111  10.690   9.756   2.255  0.6765 -1.3639  1.0022
   16MOL0     H 2112  10.505   9.714   2.093 -0.0404  0.4042  0.1255
   17MOL0     O 2113   9.240   8.685   6.632 -0.2402  0.0310 -0.0516
   17MOL0     C 2114   9.217   8.724   6.746 -0.4432  1.3719  0.0329
   17MOL0     O 2115   9.113   8.688   6.824 -0.2390  0.5475 -0.1805
   17MOL0     C 2116   8.997   8.631   6.769 -0.6105  0.3268 -0.0174
   17MOL0     C 2117   8.923   8.678   6.655  1.0969  0.2171  0.5510
   17MOL0     C 2118   8.789   8.630   6.627  0.2816  0.6932 -0.1059
   17MOL0     C 2119   8.731   8.537   6.705 -1.0861 -0.4494  0.7168
   17MOL0     O 2120   8.608   8.492   6.662  0.0827  0.0972  0.5291
   17MOL0     C 2121   8.543   8.395   6.755 -0.3881  0.2478 -0.0187
   17MOL0     C 2122   8.582   8.251   6.729 -0.8543 -0.4859  0.0410
   17MOL0     C 2123   8.483   8.140   6.775  1.0991 -0.4003 -1.2588
   17MOL0     C 2124   8.350   8.145   6.689  0.6175 -0.0089 -0.4729
   17MOL0     C 2125   8.262   8.024   6.723 -0.1897  0.6724 -0.7074
   17MOL0     C 2126   8.200   8.003   6.865  0.0746 -0.4111  0.2659
   17MOL0     C 2127   8.134   8.132   6.908  0.1678 -0.2163  0.1155
   17MOL0     C 2128   8.048   8.136   7.037  0.1496  0.8315 -0.3809
   17MOL0     N 2129   7.901   8.094   7.028 -0.2689  0.1330 -0.0921
   17MOL0     C 2130   7.806   8.170   6.960 -0.0810 -0.0892 -0.8835
   17MOL0     C 2131   7.692   8.104   6.978  0.8735  0.9364 -1.0160
   17MOL0     C 2132   7.565   8.148   6.918  0.5382  0.3016  0.4460
   17MOL0     C 2133   7.532   8.087   6.776 -1.0994  0.2013 -0.1886
   17MOL0     C 2134   7.390   8.131   6.743  0.4654  1.3130  0.5388
   17MOL0     C 2135   7.350   8.064   6.615  0.9816  0.5173 -0.0284
   17MOL0     O 2136   7.365   7.924   6.615 -0.6446  0.1244  0.0463
   17MOL0     C 2137   7.284   7.855   6.696  0.6111  0.4533  0.7085
   17MOL0     C 2138   7.316   7.730   6.723  0.5553  0.6513  0.6455
   17MOL0     C 2139   7.251   7.640   6.802  0.2766  0.0970 -0.0234
   17MOL0     C 2140   7.140   7.693   6.862  0.3831 -0.4064  0.4396
   17MOL0     C 2141   7.063   7.609   6.958  0.4915  0.0189  1.3235
   17MOL0     O 2142   6.957   7.659   7.009 -0.3484 -0.2999  0.4121
   17MOL0     C 2143   6.879   7.595   7.093 -0.6423  0.5187 -0.2257
   17MOL0     C 2144   6.921   7.552   7.225 -0.8708 -0.6193 -0.4422
   17MOL0     C 2145   6.831   7.495   7.314 -0.1659  0.4902  0.4596
   17MOL0     C 2146   6.695   7.491   7.274 -0.2578 -0.7644  0.2903
   17MOL0     O 2147   6.579   7.455   7.346 -0.9891 -0.6519 -0.0508
   17MOL0     C 2148   6.595   7.392   7.469 -0.8139 -0.4454  0.4231
   17MOL0     C 2149   6.466   7.330   7.509  0.8604 -0.2668  0.1200
   17MOL0     C 2150   6.344   7.433   7.484  0.4878  0.9667  0.4483
   17MOL0     C 2151   6.365   7.559   7.574  0.3432 -0.1403  0.5264
   17MOL0     C 2152   6.246   7.655   7.576  0.7252 -0.5657 -0.4219
   17MOL0     C 2153   6.134   7.601   7.678 -0.2309 -0.1729  0.0473
   17MOL0     C 2154   6.008   7.685   7.671  0.1674 -0.0447 -0.2681
   17MOL0     C 2155   5.909   7.661   7.778  0.2161  1.3286 -0.3549
   17MOL0    Cl 2156   5.810   7.515   7.742 -0.1129 -0.3217 -0.2358
   17MOL0     C 2157   6.661   7.521   7.146  0.0286  1.0013  0.6216
   17MOL0     C 2158   6.749   7.572   7.059  0.4465  0.9257  0.2923
   17MOL0     O 2159   7.099   7.494   6.970 -0.6216 -0.2623 -0.0852
   17MOL0     C 2160   7.092   7.819   6.825  0.6094 -1.1214  0.2423
   17MOL0     C 2161   7.171   7.903   6.748  1.0570 -0.1325  0.3531
   17MOL0     N 2162   7.724   7.982   7.032 -0.4324 -0.4278  0.6662
   17MOL0     N 2163   7.847   7.974   7.058 -0.2859  0.4040  0.5592
   17MOL0     C 2164   8.804   8.499   6.818 -0.5377  0.7453  0.1539
   17MOL0     C 2165   8.927   8.536   6.848  0.5513 -0.8579  0.7890
   17MOL0     C 2166   9.331   8.800   6.806 -0.2414 -0.3874 -0.9453
   17MOL0     C 2167   9.307   8.862   6.925 -0.0032  0.1594  0.9095
   17MOL0     C 2168   9.415   8.904   7.001 -0.7054  0.0912  0.2945
   17MOL0     C 2169   9.547   8.916   6.960  0.4141  0.9157  0.5364
   17MOL0     O 2170   9.630   8.984   7.044 -0.3608  0.1990 -0.5149
   17MOL0     C 2171   9.759   9.035   7.003  0.2368  0.0103  0.7457
   17MOL0     C 2172   9.824   9.068   7.134  0.0775 -0.9079 -0.2345
   17MOL0     C 2173   9.965   9.120   7.129 -0.3923  0.1192 -0.5071
   17MOL0     C 2174  10.010   9.167   7.268 -0.7088  0.0469  0.8182
   17MOL0     C 2175  10.119   9.263   7.244 -0.2306  0.5227  0.5549
   17MOL0     C 2176  10.191   9.349   7.199  0.1769  0.2432 -0.2114
   17MOL0     C 2177   9.561   8.868   6.829 -0.7072 -0.0142 -0.6076
   17MOL0     C 2178   9.461   8.805   6.763 -0.4751 -0.5064  0.1345
   17MOL0     H 2179   8.978   8.751   6.595 -0.6803 -0.4978 -2.1508
   17MOL0     H 2180   8.737   8.681   6.546 -2.0952  1.4192  1.7840
   17MOL0     H 2181   8.441   8.398   6.716 -1.0067 -5.4340  0.4017
   17MOL0     H 2182   8.540   8.426   6.860  1.2377  1.5253 -0.3032
   17MOL0     H 2183   8.681   8.234   6.773 -0.5540  0.5083 -0.2442
   17MOL0     H 2184   8.590   8.227   6.623 -0.1464 -0.1305  0.0090
   17MOL0     H 2185   8.466   8.140   6.883  0.5995 -1.4656 -1.3323
   17MOL0     H 2186   8.520   8.040   6.751  2.2636 -0.6268  1.2215
   17MOL0     H 2187   8.286   8.232   6.705 -3.0623 -1.8394 -3.3525
   17MOL0     H 2188   8.377   8.128   6.584  0.4136 -2.5363 -0.1883
   17MOL0     H 2189   8.320   7.932   6.710 -2.7487 -1.3329  0.9098
   17MOL0     H 2190   8.182   8.029   6.649 -0.3142 -0.4018 -0.6586
   17MOL0     H 2191   8.287   7.986   6.928  0.3530 -0.5586 -0.1488
   17MOL0     H 2192   8.125   7.923   6.870 -1.1727  0.6529 -0.5246
   17MOL0     H 2193   8.216   8.204   6.905  2.1977 -2.4309 -0.8773
   17MOL0     H 2194   8.077   8.171   6.823  1.0841  0.1882 -0.3290
   17MOL0     H 2195   8.067   8.231   7.088  0.7801  0.4518  0.0970
   17MOL0     H 2196   8.091   8.061   7.104 -2.1306  1.3039  1.7820
   17MOL0     H 2197   7.836   8.263   6.913  1.5053 -1.1954 -2.1509
   17MOL0     H 2198   7.557   8.257   6.923 -1.2953  0.1687  1.4426
   17MOL0     H 2199   7.485   8.110   6.983 -2.0591  0.6270 -2.3248
   17MOL0     H 2200   7.538   7.978   6.786  3.1988 -0.2236 -3.6741
   17MOL0     H 2201   7.609   8.108   6.700 -0.8080 -0.0801  0.0235
   17MOL0     H 2202   7.328   8.096   6.826 -1.6797  1.1932 -1.0099
   17MOL0     H 2203   7.385   8.240   6.734 -2.5874  1.2501  0.4146
   17MOL0     H 2204   7.422   8.099   6.540  0.9691 -1.0667 -0.8216
   17MOL0     H 2205   7.252   8.102   6.586 -0.0819 -1.4569  0.8201
   17MOL0     H 2206   7.414   7.695   6.689  0.4719  1.0025  0.0330
   17MOL0     H 2207   7.291   7.543   6.828 -0.2691 -0.3294 -0.7416
   17MOL0     H 2208   7.029   7.557   7.238 -0.5473  0.2447 -2.9291
   17MOL0     H 2209   6.869   7.447   7.404 -0.2541 -2.4546 -0.9490
   17MOL0     H 2210   6.617   7.472   7.540 -1.8088 -0.6641  0.9902
   17MOL0     H 2211   6.672   7.314   7.474 -0.1447 -0.1406 -2.7830
   17MOL0     H 2212   6.465   7.290   7.611  1.0449 -3.1436 -0.8979
   17MOL0     H 2213   6.463   7.234   7.456 -0.7867 -0.2509  0.1451
   17MOL0     H 2214   6.255   7.379   7.518  2.6264 -2.1352  1.6520
   17MOL0     H 2215   6.320   7.461   7.381 -2.2883  1.8435  1.2688
   17MOL0     H 2216   6.392   7.525   7.674 -1.6262 -0.4997  0.9803
   17MOL0     H 2217   6.452   7.608   7.529  0.4625  0.0321  0.9411
   17MOL0     H 2218   6.197   7.676   7.481 -1.6779  0.4925  0.9296
   17MOL0     H 2219   6.281   7.751   7.616 -0.2844 -0.2668 -0.2042
   17MOL0     H 2220   6.178   7.586   7.777  0.5209 -0.2929 -0.2897
   17MOL0     H 2221   6.107   7.502   7.640 -0.0080 -0.4627  0.6414
   17MOL0     H 2222   6.046   7.788   7.674  1.2442 -0.4293 -0.2657
   17MOL0     H 2223   5.952   7.675   7.578 -3.5074  2.5472  1.3821
   17MOL0     H 2224   5.838   7.742   7.797 -1.4199  0.5549 -2.7684
   17MOL0     H 2225   5.969   7.638   7.866 -0.4639  0.2991 -0.1374
   17MOL0     H 2226   6.564   7.490   7.110 -1.1392  3.4915  1.4200
   17MOL0     H 2227   6.718   7.599   6.959  0.4652  2.6922  0.7432
   17MOL0     H 2228   6.991   7.855   6.842  0.8709 -0.4058  0.3048
   17MOL0     H 2229   7.135   8.004   6.726 -1.5064  0.0312  4.3668
   17MOL0     H 2230   8.761   8.433   6.892 -1.9130  2.4906  0.9953
   17MOL0     H 2231   8.974   8.499   6.939  1.1213 -0.6290  0.5947
   17MOL0     H 2232   9.209   8.864   6.973  0.2225 -1.4657  1.5045
   17MOL0     H 2233   9.390   8.944   7.098  0.3845 -2.0290  1.5366
   17MOL0     H 2234   9.752   9.117   6.932  2.4061 -0.4537 -0.0982
   17MOL0     H 2235   9.820   8.952   6.964  1.5032  1.9274 -1.6281
   17MOL0     H 2236   9.758   9.147   7.170  0.5268 -2.2811  4.1509
   17MOL0     H 2237   9.803   8.989   7.207 -0.2270 -0.9717 -0.3865
   17MOL0     H 2238   9.972   9.202   7.058  0.0019 -2.0604 -3.1678
   17MOL0     H 2239  10.040   9.055   7.081  0.5059  0.9919 -0.3107
   17MOL0     H 2240   9.925   9.213   7.320 -1.3394 -1.1395  0.8793
   17MOL0     H 2241  10.046   9.088   7.334 -1.4126 -0.7759  0.2447
   17MOL0     H 2242  10.248   9.432   7.163 -0.2233  1.1848  1.2204
   17MOL0     H 2243   9.656   8.874   6.778 -0.4294  0.8308 -0.0142
   17MOL0     H 2244   9.472   8.754   6.667 -3.5079 -0.8653 -0.1083
   18MOL0     O 2245   1.247   1.288   0.484 -0.2252  0.5806  0.4197
   18MOL0     C 2246   1.250   1.240   0.602  0.0920 -0.8845 -0.5911
   18MOL0     O 2247   1.152   1.235   0.686 -0.1898  0.4415 -0.1032
   18MOL0     C 2248   1.021   1.259   0.656  0.8206 -0.8068 -0.2055
   18MOL0     C 2249   0.944   1.358   0.732 -0.2381 -0.0691  0.4301
   18MOL0     C 2250   0.818   1.390   0.683  0.7680  0.0234  0.2790
   18MOL0     C 2251   0.754   1.329   0.574 -0.3325  0.4586  0.4554
   18MOL0     O 2252   0.628   1.368   0.541  0.1810 -0.2051  0.4925
   18MOL0     C 2253   0.587   1.337   0.403 -0.4723 -0.3442 -0.3118
   18MOL0     C 2254   0.501   1.445   0.350  0.2529 -0.0607  0.1812
   18MOL0     C 2255   0.361   1.435   0.408  0.1500  0.3770 -0.1189
   18MOL0     C 2256   0.343   1.512   0.534 -0.1322 -0.6290  1.0204
   18MOL0     C 2257   0.198   1.536   0.565  0.2338 -0.6434 -0.8808
   18MOL0     C 2258   0.130   1.644   0.481  0.1104 -0.0619 -0.4107
   18MOL0     C 2259  -0.024   1.653   0.502  0.7694  0.4221  0.6765
   18MOL0     C 2260  -0.054   1.695   0.641 -0.3631  0.2760  0.7182
   18MOL0     N 2261  -0.190   1.758   0.631  0.5539 -0.1829 -0.0092
   18MOL0     C 2262  -0.228   1.885   0.605 -0.8484  0.2060  0.3927
   18MOL0     C 2263  -0.366   1.883   0.606  0.4444  0.2312 -1.0125
   18MOL0     C 2264  -0.469   1.998   0.587  0.3116  0.1586  0.3264
   18MOL0     C 2265  -0.595   1.992   0.665  0.3212 -0.6744  0.0156
   18MOL0     C 2266  -0.694   2.096   0.614 -0.5968  0.5266  0.2486
   18MOL0     C 2267  -0.813   2.113   0.703  0.1955 -0.1997 -0.3814
   18MOL0     O 2268  -0.887   2.229   0.660  0.1684 -0.9022 -0.3777
   18MOL0     C 2269  -1.015   2.247   0.710  0.4394 -0.0729 -0.2071
   18MOL0     C 2270  -1.118   2.319   0.637  0.7578  0.1605 -0.4551
   18MOL0     C 2271  -1.241   2.341   0.689  1.0623  0.0565 -0.8561
   18MOL0     C 2272  -1.275   2.302   0.819  0.0765 -1.3010 -1.1192
   18MOL0     C 2273  -1.415   2.310   0.879  0.0131 -0.0180  0.5996
   18MOL0     O 2274  -1.435   2.290   1.010 -0.6626  0.1974  0.2121
   18MOL0     C 2275  -1.566   2.263   1.053 -0.0291 -0.4741 -0.6633
   18MOL0     C 2276  -1.621   2.134   1.046  0.5731 -0.7413  0.4690
   18MOL0     C 2277  -1.737   2.110   1.113  0.6090 -0.3434  0.4649
   18MOL0     C 2278  -1.806   2.213   1.186 -0.3341 -0.6847 -0.2114
   18MOL0     O 2279  -1.923   2.207   1.248 -0.1315 -0.4466 -0.0066
   18MOL0     C 2280  -1.951   2.104   1.346  0.3077 -0.7803  0.9444
   18MOL0     C 2281  -1.984   2.162   1.481 -0.9724  0.1952  0.3575
   18MOL0     C 2282  -2.049   2.058   1.573  1.0665  0.5988 -0.1325
   18MOL0     C 2283  -1.954   1.942   1.607 -0.6668 -0.3868 -0.7457
   18MOL0     C 2284  -1.980   1.893   1.744 -0.3659 -0.5703  0.3241
   18MOL0     C 2285  -1.891   1.768   1.786  0.2555  0.7394 -0.6768
   18MOL0     C 2286  -1.919   1.644   1.695  0.2486  0.4719  0.3445
   18MOL0     C 2287  -1.911   1.515   1.771  0.2604 -0.9477  0.7144
   18MOL0    Cl 2288  -2.058   1.484   1.893 -0.3045  0.3154 -0.2891
   18MOL0     C 2289  -1.745   2.329   1.201 -0.5154  0.3132  0.6028
   18MOL0     C 2290  -1.629   2.359   1.143 -0.5279  0.2150  0.0218
   18MOL0     O 2291  -1.504   2.342   0.801 -0.3811  0.2556  0.5687
   18MOL0     C 2292  -1.176   2.240   0.894  0.8709 -0.0600 -0.2652
   18MOL0     C 2293  -1.045   2.209   0.845 -0.4817  0.0867  1.2258
   18MOL0     N 2294  -0.406   1.749   0.623 -0.4954 -0.7448 -0.0391
   18MOL0     N 2295  -0.303   1.684   0.649 -0.0938  0.3865 -0.3032
   18MOL0     C 2296   0.825   1.225   0.509 -0.2099 -0.7520  0.6336
   18MOL0     C 2297   0.957   1.205   0.549 -1.0436  0.5564  0.6405
   18MOL0     C 2298   1.384   1.188   0.647  0.7750 -0.5861  0.7501
   18MOL0     C 2299   1.498   1.210   0.563  0.6370  0.8203 -0.0793
   18MOL0     C 2300   1.618   1.149   0.596  0.1703 -0.4242 -0.1497
   18MOL0     C 2301   1.638   1.087   0.720  1.0471  0.8004  0.2973
   18MOL0     O 2302   1.767   1.045   0.764  0.2386  0.1754 -0.1167
   18MOL0     C 2303   1.883   1.055   0.680 -0.2391  0.4679  0.1873
   18MOL0     C 2304   2.012   1.022   0.753 -0.0673  0.9593 -0.4544
   18MOL0     C 2305   2.002   0.895   0.837  0.2202 -1.3275  0.4555
   18MOL0     C 2306   2.136   0.851   0.887  0.3885  0.6123  0.2404
   18MOL0     C 2307   2.185   0.954   0.979  0.1254  0.1805  0.3873
   18MOL0     C 2308   2.232   1.034   1.063 -0.2669  0.4172 -0.4245
   18MOL0     C 2309   1.524   1.059   0.796  0.9882 -0.3091 -0.2734
   18MOL0     C 2310   1.396   1.102   0.758 -0.5430 -0.3867  0.9323
   18MOL0     H 2311   0.996   1.403   0.816  3.9358 -1.7186 -0.9749
   18MOL0     H 2312   0.760   1.472   0.723 -2.0171  0.3840 -3.9152
   18MOL0     H 2313   0.535   1.240   0.400 -0.8753 -0.1157 -1.6440
   18MOL0     H 2314   0.671   1.318   0.335  2.4853 -0.7400  3.1383
   18MOL0     H 2315   0.494   1.434   0.241  0.4435  1.2108  0.0168
   18MOL0     H 2316   0.550   1.540   0.374  0.5717  0.1058 -1.0575
   18MOL0     H 2317   0.336   1.330   0.426  2.2853  0.0720  1.4908
   18MOL0     H 2318   0.293   1.474   0.331  0.0799  0.0158 -0.2474
   18MOL0     H 2319   0.388   1.453   0.615  1.8615 -0.4619  0.0931
   18MOL0     H 2320   0.397   1.608   0.534 -0.6420 -0.3160 -0.7904
   18MOL0     H 2321   0.171   1.554   0.669  1.4825 -2.9902 -0.0817
   18MOL0     H 2322   0.146   1.441   0.550 -1.3106 -0.6825  3.3458
   18MOL0     H 2323   0.150   1.630   0.374  1.5825  2.9470 -0.6381
   18MOL0     H 2324   0.182   1.738   0.499  0.1437 -0.0348 -0.6435
   18MOL0     H 2325  -0.073   1.722   0.433 -1.6931  1.2112  3.0104
   18MOL0     H 2326  -0.066   1.552   0.499  1.6739 -0.0476  2.4653
   18MOL0     H 2327   0.013   1.773   0.676  1.3131 -1.3002  1.1770
   18MOL0     H 2328  -0.056   1.613   0.714 -0.4322 -1.9451 -1.6155
   18MOL0     H 2329  -0.166   1.966   0.568 -1.7295  0.3710 -0.7684
   18MOL0     H 2330  -0.487   2.006   0.479  2.4210 -0.8804 -0.1653
   18MOL0     H 2331  -0.421   2.093   0.610 -5.7621  2.9097  3.8061
   18MOL0     H 2332  -0.581   2.016   0.771 -1.2593 -3.1676  0.9097
   18MOL0     H 2333  -0.641   1.892   0.667 -1.9304  0.3104  0.7868
   18MOL0     H 2334  -0.630   2.184   0.621  0.4012  0.1745 -3.0753
   18MOL0     H 2335  -0.729   2.082   0.512 -1.5737 -2.0283  0.8660
   18MOL0     H 2336  -0.766   2.139   0.798  0.2391  2.0036 -0.9583
   18MOL0     H 2337  -0.881   2.029   0.720  1.3566 -1.1739 -0.4327
   18MOL0     H 2338  -1.099   2.358   0.538 -0.4974  0.9175 -0.4104
   18MOL0     H 2339  -1.311   2.384   0.617  1.8994  2.8229 -0.1513
   18MOL0     H 2340  -1.571   2.057   0.988 -1.4054 -0.2894 -2.0521
   18MOL0     H 2341  -1.796   2.019   1.111 -0.5315  0.3705  0.8139
   18MOL0     H 2342  -1.867   2.034   1.357 -1.3984 -3.4167 -1.3563
   18MOL0     H 2343  -2.042   2.049   1.322 -1.5177  2.1549  0.6799
   18MOL0     H 2344  -2.057   2.242   1.462  0.8896  1.6623 -1.0070
   18MOL0     H 2345  -1.899   2.215   1.524 -2.3870  2.8260  0.1427
   18MOL0     H 2346  -2.138   2.012   1.530  2.4283 -2.2121 -0.1816
   18MOL0     H 2347  -2.079   2.117   1.660  2.3111 -1.9775  2.1906
   18MOL0     H 2348  -1.965   1.868   1.528 -0.7762 -5.1517  3.2452
   18MOL0     H 2349  -1.846   1.963   1.603 -0.8862  1.2889  0.7556
   18MOL0     H 2350  -2.082   1.854   1.749  0.0503 -1.6548  0.6293
   18MOL0     H 2351  -1.960   1.972   1.817 -0.2191  0.5018 -0.8498
   18MOL0     H 2352  -1.905   1.761   1.894 -3.0372 -1.4231 -1.1126
   18MOL0     H 2353  -1.788   1.799   1.763 -0.1444  1.4714 -1.5467
   18MOL0     H 2354  -2.016   1.654   1.646  0.7535  1.4096 -0.4884
   18MOL0     H 2355  -1.840   1.635   1.621 -1.3944  2.7700 -1.8481
   18MOL0     H 2356  -1.820   1.515   1.832  0.4394 -1.4946  0.4452
   18MOL0     H 2357  -1.893   1.438   1.696  1.1929 -0.1298  0.0748
   18MOL0     H 2358  -1.796   2.417   1.239  0.3319  0.8277  0.5735
   18MOL0     H 2359  -1.586   2.458   1.148 -1.0430  0.3863  1.8545
   18MOL0     H 2360  -1.208   2.231   0.998 -0.1328  2.3474 -0.2972
   18MOL0     H 2361  -0.970   2.175   0.915 -1.5245 -1.4288  1.6567
   18MOL0     H 2362   0.789   1.181   0.417 -0.9324  0.3970  0.3496
   18MOL0     H 2363   1.004   1.124   0.494  0.6664  1.6583  0.3985
   18MOL0     H 2364   1.497   1.273   0.474  3.3625  0.1329 -0.6951
   18MOL0     H 2365   1.708   1.178   0.542  1.6165  1.9977  3.2055
   18MOL0     H 2366   1.892   1.159   0.650 -4.2002  0.6210 -1.0483
   18MOL0     H 2367   1.878   0.991   0.591  4.2992  0.7427 -0.4820
   18MOL0     H 2368   2.103   1.028   0.692  1.2499 -4.0466  0.5879
   18MOL0     H 2369   2.006   1.099   0.830 -1.9990  0.2763  0.1402
   18MOL0     H 2370   1.956   0.813   0.782  0.7162 -0.5608 -1.1364
   18MOL0     H 2371   1.935   0.915   0.922  0.4091 -0.2047  0.3587
   18MOL0     H 2372   2.123   0.759   0.944  0.7950  0.6863  0.4574
   18MOL0     H 2373   2.203   0.833   0.803  0.0316 -4.0764  0.6958
   18MOL0     H 2374   2.285   1.100   1.129  1.8889  0.4435 -2.0686
   18MOL0     H 2375   1.524   1.012   0.894 -1.4824  1.5225  0.7045
   18MOL0     H 2376   1.311   1.069   0.818 -1.8124 -0.8949 -1.0376
   19MOL0     O 2377   0.931   8.191   9.161 -0.2801 -0.8028 -0.0298
   19MOL0     C 2378   0.990   8.228   9.062 -0.8287  0.1482 -0.8604
   19MOL0     O 2379   0.928   8.255   8.944  0.5508  0.3721 -0.9062
   19MOL0     C 2380   0.792   8.262   8.949 -0.5689 -0.5728 -0.5690
   19MOL0     C 2381   0.725   8.203   8.842 -0.2117  0.7664 -0.1303
   19MOL0     C 2382   0.585   8.210   8.823 -0.3591 -0.5241  0.0311
   19MOL0     C 2383   0.512   8.299   8.912 -0.9329 -0.1145  0.5800
   19MOL0     O 2384   0.381   8.330   8.909  0.0045  0.1961  0.1341
   19MOL0     C 2385   0.292   8.271   8.806 -0.0685 -0.0351  0.1754
   19MOL0     C 2386   0.156   8.344   8.811 -0.6048 -0.4173 -0.2850
   19MOL0     C 2387   0.030   8.272   8.755  0.3556 -0.5718  0.0565
   19MOL0     C 2388  -0.079   8.377   8.752  0.0723  0.0086  0.2472
   19MOL0     C 2389  -0.204   8.321   8.703  0.7934 -0.1458 -0.0633
   19MOL0     C 2390  -0.319   8.429   8.693  1.2157  0.2252 -0.5476
   19MOL0     C 2391  -0.443   8.390   8.620  1.0713  0.5991 -0.4889
   19MOL0     C 2392  -0.445   8.414   8.468 -0.4159 -0.5669 -1.6324
   19MOL0     N 2393  -0.582   8.402   8.420 -0.2701  0.1702 -0.6405
   19MOL0     C 2394  -0.659   8.291   8.388  0.0128  0.0839  0.0124
   19MOL0     C 2395  -0.781   8.349   8.357  0.7610 -0.3793 -0.0368
   19MOL0     C 2396  -0.908   8.298   8.297  0.2278  0.0043  0.3028
   19MOL0     C 2397  -1.027   8.297   8.392  0.1954  0.3690 -0.0298
   19MOL0     C 2398  -1.014   8.176   8.487 -0.0792  0.0080 -0.2447
   19MOL0     C 2399  -1.148   8.147   8.555  1.1733 -0.0439  0.4393
   19MOL0     O 2400  -1.248   8.117   8.442  0.0143 -1.3451 -0.6499
   19MOL0     C 2401  -1.364   8.054   8.468  0.4634  0.5586 -0.1545
   19MOL0     C 2402  -1.383   7.944   8.558  0.3234 -0.5281 -0.6916
   19MOL0     C 2403  -1.509   7.886   8.573  0.2100  0.2880  0.1597
   19MOL0     C 2404  -1.615   7.933   8.494 -0.1970 -0.4353 -0.2773
   19MOL0     C 2405  -1.748   7.868   8.505 -0.4216  0.2683  0.5608
   19MOL0     O 2406  -1.851   7.935   8.453  0.0750  0.5535  0.7139
   19MOL0     C 2407  -1.966   7.863   8.427  0.1574  0.2877  0.4344
   19MOL0     C 2408  -2.037   7.806   8.536  0.0771  0.0648  0.5500
   19MOL0     C 2409  -2.117   7.691   8.505  0.7331 -0.1513  0.7247
   19MOL0     C 2410  -2.157   7.649   8.372 -0.2892 -0.6473  1.5606
   19MOL0     O 2411  -2.253   7.556   8.350  0.3704  0.4412 -0.1964
   19MOL0     C 2412  -2.243   7.482   8.222  0.5892 -0.0025  0.3979
   19MOL0     C 2413  -2.344   7.366   8.243 -0.5768 -0.1824 -0.0901
   19MOL0     C 2414  -2.329   7.271   8.361 -0.0521  0.7795 -0.3518
   19MOL0     C 2415  -2.218   7.153   8.342  0.2053 -0.3164 -0.4875
   19MOL0     C 2416  -2.222   7.064   8.468  0.7745 -0.5692 -0.6109
   19MOL0     C 2417  -2.115   6.957   8.476 -0.0036  0.1959 -0.7362
   19MOL0     C 2418  -2.135   6.829   8.389  0.0718  0.0979  0.3034
   19MOL0     C 2419  -2.057   6.716   8.453  0.0588  0.2857 -0.3449
   19MOL0    Cl 2420  -1.889   6.743   8.495  0.0228 -0.3172 -0.2117
   19MOL0     C 2421  -2.099   7.727   8.270 -0.2296  0.2641  0.1885
   19MOL0     C 2422  -2.008   7.830   8.295 -0.3104  0.2903 -0.1950
   19MOL0     O 2423  -1.756   7.756   8.553  0.1727  0.1045  0.3997
   19MOL0     C 2424  -1.598   8.036   8.398  0.4342 -0.2895  0.4510
   19MOL0     C 2425  -1.477   8.103   8.387  0.1369  0.3998  0.1655
   19MOL0     N 2426  -0.765   8.480   8.365 -0.1991 -0.3532 -0.9927
   19MOL0     N 2427  -0.652   8.514   8.411  0.9679 -0.4141 -0.5568
   19MOL0     C 2428   0.579   8.357   9.009  0.3879 -0.6330  0.2760
   19MOL0     C 2429   0.716   8.335   9.041  1.3236 -0.2574 -0.4308
   19MOL0     C 2430   1.133   8.259   9.085  0.1566  0.1490  0.5137
   19MOL0     C 2431   1.199   8.307   8.968  0.2851  0.7672 -0.1842
   19MOL0     C 2432   1.337   8.320   8.970  0.1501 -0.0301 -0.2597
   19MOL0     C 2433   1.406   8.289   9.091 -0.9087 -0.4285 -0.3840
   19MOL0     O 2434   1.533   8.338   9.086  0.0074  0.3795 -0.8966
   19MOL0     C 2435   1.636   8.258   9.151 -0.5312  0.2098 -0.5555
   19MOL0     C 2436   1.780   8.290   9.099  0.4428 -0.8873  0.0201
   19MOL0     C 2437   1.791   8.238   8.955 -0.4095  0.2538 -0.2765
   19MOL0     C 2438   1.942   8.230   8.904  0.6694 -0.3245  0.0922
   19MOL0     C 2439   2.018   8.113   8.943 -0.0083  0.4127 -0.8095
   19MOL0     C 2440   2.083   8.017   8.972  0.4354  0.2703  0.8705
   19MOL0     C 2441   1.343   8.233   9.206  0.0746 -1.0229  0.0462
   19MOL0     C 2442   1.205   8.225   9.202  0.2255 -0.2480 -0.5810
   19MOL0     H 2443   0.784   8.163   8.762 -0.8441  1.3486 -0.9054
   19MOL0     H 2444   0.522   8.173   8.743 -2.2365  1.7249  0.3601
   19MOL0     H 2445   0.270   8.166   8.832 -1.4172  0.3504  0.6911
   19MOL0     H 2446   0.343   8.270   8.710  2.0333  0.7213  1.2342
   19MOL0     H 2447   0.167   8.438   8.756  3.6087 -0.5592 -0.0347
   19MOL0     H 2448   0.147   8.378   8.914 -0.0961  0.1946 -0.4356
   19MOL0     H 2449  -0.001   8.189   8.820  1.3875 -0.4032  0.7688
   19MOL0     H 2450   0.044   8.229   8.655 -3.1919 -3.5273  0.6091
   19MOL0     H 2451  -0.083   8.414   8.854 -0.9393 -1.3924  0.7424
   19MOL0     H 2452  -0.049   8.464   8.693 -0.5069 -0.3371 -0.5706
   19MOL0     H 2453  -0.237   8.237   8.765  1.4477 -1.8889 -1.9746
   19MOL0     H 2454  -0.183   8.279   8.605  0.4474  0.3808 -0.3667
   19MOL0     H 2455  -0.295   8.527   8.649  1.1902  0.5225  0.0956
   19MOL0     H 2456  -0.357   8.449   8.793 -0.7540  2.0450 -1.5665
   19MOL0     H 2457  -0.456   8.282   8.626  1.1073  0.6855  2.4781
   19MOL0     H 2458  -0.531   8.436   8.667 -0.3745 -1.4981 -0.9877
   19MOL0     H 2459  -0.397   8.330   8.417 -0.8323 -1.9254  0.1181
   19MOL0     H 2460  -0.409   8.516   8.450  0.3591  0.3293  3.5677
   19MOL0     H 2461  -0.641   8.184   8.386  1.3776  0.2512  1.2046
   19MOL0     H 2462  -0.894   8.200   8.251  1.8089  0.7351 -0.8462
   19MOL0     H 2463  -0.929   8.360   8.209  3.2975  0.5025 -0.1853
   19MOL0     H 2464  -1.114   8.292   8.326 -0.3759 -1.8054  0.7981
   19MOL0     H 2465  -1.024   8.389   8.452 -2.0403 -0.0757  0.8953
   19MOL0     H 2466  -0.989   8.086   8.430  0.5400  0.0218 -0.0052
   19MOL0     H 2467  -0.931   8.190   8.557 -0.6130 -0.5380  0.5129
   19MOL0     H 2468  -1.188   8.237   8.602 -0.2870  0.1766 -1.1281
   19MOL0     H 2469  -1.148   8.067   8.629 -1.2651  0.7808  1.4441
   19MOL0     H 2470  -1.294   7.915   8.613  2.0586  2.6482 -1.5118
   19MOL0     H 2471  -1.525   7.806   8.644  1.0820 -1.0285 -1.0663
   19MOL0     H 2472  -2.007   7.833   8.637  0.7855  0.3987  0.2561
   19MOL0     H 2473  -2.176   7.662   8.592 -1.0075  2.0357  0.3442
   19MOL0     H 2474  -2.144   7.451   8.189  0.4618 -0.6335  0.5966
   19MOL0     H 2475  -2.285   7.553   8.150  0.9625  0.0901  0.2704
   19MOL0     H 2476  -2.346   7.308   8.151  1.7682  2.1447 -1.7815
   19MOL0     H 2477  -2.442   7.409   8.264 -1.0298 -2.0145  1.9307
   19MOL0     H 2478  -2.421   7.217   8.385 -1.5757  1.6288 -3.6774
   19MOL0     H 2479  -2.297   7.326   8.450 -2.3435  0.0196  1.0073
   19MOL0     H 2480  -2.239   7.091   8.254  1.5535 -0.0567 -1.0280
   19MOL0     H 2481  -2.114   7.186   8.329  1.9893 -4.7436  0.6016
   19MOL0     H 2482  -2.316   7.009   8.471 -0.0094  0.7734  0.4739
   19MOL0     H 2483  -2.209   7.131   8.554 -2.3101 -0.0206 -0.4326
   19MOL0     H 2484  -2.118   6.925   8.581 -2.1767 -1.6949 -1.2872
   19MOL0     H 2485  -2.017   7.005   8.473  1.5565 -2.4641  1.7233
   19MOL0     H 2486  -2.238   6.794   8.395  0.1646 -0.4447 -1.0252
   19MOL0     H 2487  -2.115   6.840   8.282  1.9393  1.2024  0.7152
   19MOL0     H 2488  -2.063   6.638   8.377 -1.0546  0.2592 -0.2493
   19MOL0     H 2489  -2.111   6.681   8.542  0.9695  1.3448  0.6471
   19MOL0     H 2490  -2.113   7.693   8.168 -2.4357 -3.4813  1.5185
   19MOL0     H 2491  -1.952   7.854   8.206 -0.2972 -2.7177 -1.1157
   19MOL0     H 2492  -1.684   8.055   8.335 -0.8469  0.4274  2.3361
   19MOL0     H 2493  -1.477   8.191   8.323  0.4263  0.1114 -0.2381
   19MOL0     H 2494   0.521   8.426   9.070 -0.0348  0.3551 -1.1856
   19MOL0     H 2495   0.757   8.391   9.125  0.3715  0.8209 -0.6630
   19MOL0     H 2496   1.144   8.324   8.876  2.7382 -4.1075 -2.9313
   19MOL0     H 2497   1.380   8.364   8.880 -2.5505  0.4419 -1.4070
   19MOL0     H 2498   1.616   8.151   9.136  1.2730 -0.1340 -0.7319
   19MOL0     H 2499   1.644   8.279   9.258  5.4329  1.5144 -0.9099
   19MOL0     H 2500   1.808   8.396   9.102  1.4502 -1.1690  2.3131
   19MOL0     H 2501   1.847   8.229   9.160  2.1469 -0.7401 -1.6204
   19MOL0     H 2502   1.745   8.315   8.891  0.4882  2.0319  1.1095
   19MOL0     H 2503   1.739   8.143   8.941  0.1702 -0.3678  1.5176
   19MOL0     H 2504   1.922   8.222   8.797 -3.5984 -1.4179  0.7706
   19MOL0     H 2505   2.006   8.316   8.924 -0.2229  0.2869  0.3381
   19MOL0     H 2506   2.140   7.926   8.969 -1.2018 -0.7755 -0.2431
   19MOL0     H 2507   1.405   8.222   9.294  2.0275 -0.0883 -1.1501
   19MOL0     H 2508   1.164   8.170   9.285  0.3791  0.7950  0.2048
   20MOL0     O 2509   5.009   3.534   7.589  0.9708  0.6013  0.3625
   20MOL0     C 2510   4.981   3.435   7.657 -0.8994  1.2534  0.5202
   20MOL0     O 2511   5.059   3.380   7.756 -0.4817 -0.1200  0.0429
   20MOL0     C 2512   5.180   3.438   7.788 -1.3705 -0.3820  0.4617
   20MOL0     C 2513   5.197   3.578   7.810  0.4424  1.1072 -0.0204
   20MOL0     C 2514   5.316   3.629   7.855 -0.0356  0.6857  0.3075
   20MOL0     C 2515   5.426   3.542   7.887  0.1804 -0.6826 -0.3793
   20MOL0     O 2516   5.545   3.588   7.938  0.2043  0.7071 -0.0625
   20MOL0     C 2517   5.587   3.727   7.914  0.7110  1.3517  1.0242
   20MOL0     C 2518   5.714   3.766   7.995  0.8920  0.3092  0.1279
   20MOL0     C 2519   5.789   3.873   7.912 -0.4745  0.5734  0.0431
   20MOL0     C 2520   5.936   3.859   7.926  0.3387  0.8503  0.2643
   20MOL0     C 2521   6.017   3.985   7.884 -0.4155 -0.7983 -0.1436
   20MOL0     C 2522   6.164   4.005   7.938 -0.3402 -0.9275 -0.3275
   20MOL0     C 2523   6.270   3.888   7.913  1.1851 -0.3213 -0.0742
   20MOL0     C 2524   6.296   3.867   7.771 -0.2847  0.4985  0.5106
   20MOL0     N 2525   6.370   3.985   7.712 -0.3058 -0.0998 -0.1271
   20MOL0     C 2526   6.485   4.040   7.762 -0.6690 -1.3165  0.4805
   20MOL0     C 2527   6.509   4.146   7.684  0.1964  0.6738  0.1055
   20MOL0     C 2528   6.626   4.240   7.717 -0.1254 -0.2727 -0.0608
   20MOL0     C 2529   6.575   4.376   7.764  0.8395 -0.5631  0.0889
   20MOL0     C 2530   6.478   4.365   7.881 -0.3168  0.0150 -0.8374
   20MOL0     C 2531   6.429   4.508   7.916 -0.0779  1.0913 -0.0736
   20MOL0     O 2532   6.333   4.539   7.814  0.5548 -0.7775  0.1931
   20MOL0     C 2533   6.209   4.476   7.839 -0.1921 -0.6987 -0.1901
   20MOL0     C 2534   6.154   4.370   7.764  0.4032 -1.4074 -0.4386
   20MOL0     C 2535   6.021   4.330   7.773  0.5639  0.5767 -0.3922
   20MOL0     C 2536   5.932   4.391   7.866 -0.1094  0.1697  0.3346
   20MOL0     C 2537   5.791   4.346   7.867  0.1550  0.5803  0.1366
   20MOL0     O 2538   5.753   4.229   7.793  0.2228 -0.2484 -0.3048
   20MOL0     C 2539   5.620   4.183   7.787  0.0223 -0.1067  0.2131
   20MOL0     C 2540   5.571   4.129   7.664 -0.1833 -0.2382 -0.6783
   20MOL0     C 2541   5.444   4.078   7.661 -0.2878  1.1109  0.4028
   20MOL0     C 2542   5.370   4.062   7.782 -0.5668  0.2830  0.3111
   20MOL0     O 2543   5.246   4.001   7.786 -0.2476 -1.0931  0.1796
   20MOL0     C 2544   5.185   3.972   7.657 -0.4499  0.5539  0.0640
   20MOL0     C 2545   5.039   3.940   7.679 -0.3780  0.5118  0.7099
   20MOL0     C 2546   4.968   4.056   7.737  0.0274 -0.0999  0.1747
   20MOL0     C 2547   4.974   4.190   7.661  0.4615 -0.0821 -0.0265
   20MOL0     C 2548   4.872   4.287   7.722  0.5472  0.5568 -0.0962
   20MOL0     C 2549   4.848   4.401   7.621 -0.0572  0.5911 -1.0463
   20MOL0     C 2550   4.759   4.515   7.672 -0.8650 -0.2525  0.4398
   20MOL0     C 2551   4.714   4.609   7.559 -0.1946 -0.5051 -0.2963
   20MOL0    Cl 2552   4.663   4.768   7.629 -0.0641 -0.7704  0.1940
   20MOL0     C 2553   5.418   4.127   7.894 -0.1899 -0.0864 -0.3063
   20MOL0     C 2554   5.545   4.187   7.901  0.1276  1.2446 -1.0761
   20MOL0     O 2555   5.713   4.417   7.929 -0.6138 -0.1414 -0.0637
   20MOL0     C 2556   5.980   4.501   7.942 -0.3967 -0.0539 -0.5525
   20MOL0     C 2557   6.113   4.540   7.931 -0.3562  0.1241 -0.2305
   20MOL0     N 2558   6.427   4.145   7.574 -0.3539  0.1252 -1.0670
   20MOL0     N 2559   6.332   4.064   7.603 -0.8856 -0.3816  0.2249
   20MOL0     C 2560   5.407   3.402   7.873 -0.1395 -0.4382 -0.2400
   20MOL0     C 2561   5.288   3.350   7.823 -0.2389 -0.4184  0.4462
   20MOL0     C 2562   4.858   3.348   7.613  0.1593  0.4656 -0.6872
   20MOL0     C 2563   4.783   3.394   7.500 -0.5047  0.0986  0.4864
   20MOL0     C 2564   4.666   3.332   7.452 -0.1225  0.4805  1.1167
   20MOL0     C 2565   4.621   3.220   7.518 -0.2520 -0.6196 -1.0520
   20MOL0     O 2566   4.506   3.163   7.474 -0.0237 -0.3053  0.0868
   20MOL0     C 2567   4.449   3.046   7.545  0.3837 -0.0852 -0.1356
   20MOL0     C 2568   4.317   3.028   7.485  0.9789 -0.4568  0.3000
   20MOL0     C 2569   4.201   3.120   7.548 -0.0650  0.1500  0.7155
   20MOL0     C 2570   4.075   3.049   7.576 -0.1457  0.7114 -0.9234
   20MOL0     C 2571   3.996   3.011   7.458 -0.7097  0.2008  0.5332
   20MOL0     C 2572   3.935   2.998   7.350  0.3166  0.0489 -0.5676
   20MOL0     C 2573   4.688   3.181   7.632  1.3566  0.5915  0.6622
   20MOL0     C 2574   4.803   3.242   7.677  1.0834 -0.9475  0.3304
   20MOL0     H 2575   5.115   3.643   7.782 -0.7887 -0.0387  0.8317
   20MOL0     H 2576   5.329   3.737   7.863 -0.6153  0.7839 -0.0207
   20MOL0     H 2577   5.511   3.799   7.945 -0.2051 -0.0848  2.3278
   20MOL0     H 2578   5.593   3.743   7.806 -1.4176  1.1725  0.8409
   20MOL0     H 2579   5.775   3.676   8.006  0.6496  0.1146 -0.0952
   20MOL0     H 2580   5.690   3.794   8.098 -1.6427 -2.4403  0.4398
   20MOL0     H 2581   5.755   3.974   7.939  0.5890  0.6839  1.0208
   20MOL0     H 2582   5.765   3.880   7.805 -0.4471  2.0128  0.1124
   20MOL0     H 2583   5.968   3.854   8.030  1.9827  1.5779 -0.1731
   20MOL0     H 2584   5.965   3.769   7.871 -0.0045  0.5069  0.6419
   20MOL0     H 2585   5.967   4.075   7.920  0.3313 -0.2239 -0.5118
   20MOL0     H 2586   6.012   3.980   7.775 -1.3237 -2.0484 -0.0655
   20MOL0     H 2587   6.155   4.012   8.046 -1.6745  1.4261 -0.5071
   20MOL0     H 2588   6.204   4.100   7.901 -3.5223  2.3893  3.7494
   20MOL0     H 2589   6.361   3.911   7.970  0.3024  0.4122  1.0983
   20MOL0     H 2590   6.222   3.798   7.953 -1.7144  1.0496 -0.1553
   20MOL0     H 2591   6.201   3.850   7.721  0.1181  1.1872 -0.5158
   20MOL0     H 2592   6.359   3.779   7.752  2.1391  2.5858 -2.0452
   20MOL0     H 2593   6.533   4.004   7.853  0.7680 -1.1452 -0.1790
   20MOL0     H 2594   6.684   4.255   7.626  0.9535  0.9268  0.7724
   20MOL0     H 2595   6.690   4.199   7.796 -0.3013 -1.2487 -0.4174
   20MOL0     H 2596   6.530   4.431   7.681 -0.3906 -3.7165 -1.5400
   20MOL0     H 2597   6.658   4.435   7.803  2.0565  0.0300 -3.1204
   20MOL0     H 2598   6.392   4.300   7.858  0.6314 -0.9987 -1.6183
   20MOL0     H 2599   6.530   4.340   7.974 -0.6211  1.0397 -0.3761
   20MOL0     H 2600   6.509   4.583   7.911  0.2066  0.7298 -1.1668
   20MOL0     H 2601   6.392   4.515   8.019  3.0477 -2.7598  1.5880
   20MOL0     H 2602   6.210   4.320   7.686  1.7091 -0.2089 -0.3135
   20MOL0     H 2603   5.994   4.250   7.705 -0.9709  0.7297 -0.0020
   20MOL0     H 2604   5.630   4.124   7.573 -0.9907  0.0635 -1.2353
   20MOL0     H 2605   5.401   4.032   7.573 -3.8153  1.6281  1.6821
   20MOL0     H 2606   5.236   3.880   7.627 -1.4380  0.3796 -1.1425
   20MOL0     H 2607   5.202   4.037   7.571  1.1497 -3.0418 -2.6121
   20MOL0     H 2608   5.033   3.851   7.742  1.3051  0.1974  0.4638
   20MOL0     H 2609   4.990   3.913   7.585 -1.3130 -1.8346  1.7906
   20MOL0     H 2610   5.005   4.085   7.836 -0.5381 -1.1331  0.7060
   20MOL0     H 2611   4.867   4.032   7.772 -0.7224  0.3254 -1.5549
   20MOL0     H 2612   5.077   4.227   7.660 -0.2380  2.5596  3.9985
   20MOL0     H 2613   4.936   4.183   7.559 -2.1693  1.9075  0.7042
   20MOL0     H 2614   4.912   4.324   7.817 -1.1060  0.9182  0.4981
   20MOL0     H 2615   4.778   4.241   7.756  0.5309 -0.1878 -1.1319
   20MOL0     H 2616   4.810   4.357   7.528 -0.8574 -2.9491  0.7636
   20MOL0     H 2617   4.948   4.442   7.609  0.5732  0.0195  1.6379
   20MOL0     H 2618   4.667   4.479   7.719 -2.0227  2.3340  0.3581
   20MOL0     H 2619   4.814   4.584   7.737  1.0600  1.8170 -3.0714
   20MOL0     H 2620   4.638   4.570   7.491 -1.3189 -0.9382  1.1623
   20MOL0     H 2621   4.797   4.623   7.488 -2.4623  0.6679 -2.8790
   20MOL0     H 2622   5.355   4.136   7.982 -1.1025 -1.0450 -0.8429
   20MOL0     H 2623   5.571   4.232   7.997 -3.3041 -0.6569  0.9419
   20MOL0     H 2624   5.914   4.559   8.006  0.3764 -0.2136  0.4130
   20MOL0     H 2625   6.158   4.629   7.975  2.6303 -0.6166 -1.5427
   20MOL0     H 2626   5.483   3.328   7.896 -1.1279 -2.0447 -1.8180
   20MOL0     H 2627   5.269   3.244   7.810 -0.8918 -0.1708 -0.7105
   20MOL0     H 2628   4.798   3.494   7.459 -3.3999 -0.1225 -1.3958
   20MOL0     H 2629   4.603   3.374   7.373 -2.3906 -2.3091  1.2751
   20MOL0     H 2630   4.438   3.065   7.652 -2.1912 -2.3192  0.1139
   20MOL0     H 2631   4.511   2.956   7.536 -1.2329 -1.3621  0.8380
   20MOL0     H 2632   4.325   3.026   7.376  0.3112 -0.1499  0.2397
   20MOL0     H 2633   4.281   2.928   7.513  0.6142 -0.3381  0.2628
   20MOL0     H 2634   4.182   3.197   7.473  0.3794 -0.5078 -0.0905
   20MOL0     H 2635   4.235   3.166   7.641 -1.1826 -1.1762  1.8243
   20MOL0     H 2636   4.082   2.966   7.647 -0.8353  0.4107 -1.1982
   20MOL0     H 2637   4.007   3.117   7.628  0.4083 -0.6358  1.7429
   20MOL0     H 2638   3.871   2.992   7.264  1.6191  1.8792 -1.7459
   20MOL0     H 2639   4.661   3.095   7.692 -0.6655  0.4470 -0.3718
   20MOL0     H 2640   4.837   3.201   7.772 -2.2314 -1.4509  1.4204
   21MOL0     O 2641   0.625   7.773   8.569  0.2605 -0.5923 -0.4979
   21MOL0     C 2642   0.668   7.884   8.546  0.5100  0.2009 -0.2663
   21MOL0     O 2643   0.590   7.983   8.500 -0.2211 -0.2451  0.5910
   21MOL0     C 2644   0.456   7.970   8.474 -0.1033  0.6737 -0.0728
   21MOL0     C 2645   0.367   7.924   8.570 -0.3229 -0.2116 -0.0586
   21MOL0     C 2646   0.229   7.932   8.533  0.2399 -0.0102  1.3467
   21MOL0     C 2647   0.174   7.995   8.412 -0.2085  0.4634 -0.1995
   21MOL0     O 2648   0.035   7.996   8.396 -0.1776  0.1166  0.8308
   21MOL0     C 2649  -0.006   8.036   8.264 -0.3429 -0.4492 -0.2412
   21MOL0     C 2650  -0.159   8.041   8.264 -0.4626  0.1598  0.0224
   21MOL0     C 2651  -0.236   8.057   8.126  0.2575 -0.4920 -0.2451
   21MOL0     C 2652  -0.235   7.937   8.045  0.2573 -0.6431 -0.1987
   21MOL0     C 2653  -0.293   7.803   8.108  0.2167 -0.7714  0.1578
   21MOL0     C 2654  -0.437   7.819   8.165  0.2183  0.6008  0.5720
   21MOL0     C 2655  -0.480   7.690   8.231 -0.4331 -0.6188 -0.4480
   21MOL0     C 2656  -0.573   7.728   8.354  0.3106  0.4309 -1.1930
   21MOL0     N 2657  -0.704   7.775   8.313  0.2007 -0.3701  0.6525
   21MOL0     C 2658  -0.819   7.699   8.320 -0.7399  0.2603  0.8510
   21MOL0     C 2659  -0.928   7.781   8.306 -0.6247 -0.2055  0.8797
   21MOL0     C 2660  -1.068   7.743   8.324 -0.3169 -0.0570 -0.2103
   21MOL0     C 2661  -1.138   7.699   8.202 -0.1160  0.2090  0.5053
   21MOL0     C 2662  -1.291   7.705   8.224  0.6969 -0.0423 -0.0196
   21MOL0     C 2663  -1.372   7.678   8.091  0.4568  0.8436 -0.0945
   21MOL0     O 2664  -1.364   7.540   8.044 -0.7892 -0.7869 -0.4282
   21MOL0     C 2665  -1.386   7.518   7.909  0.0045  0.4080  0.3886
   21MOL0     C 2666  -1.367   7.387   7.854  0.3620  0.7922 -1.1345
   21MOL0     C 2667  -1.407   7.353   7.728  0.1640 -0.1474 -0.5037
   21MOL0     C 2668  -1.486   7.442   7.652 -1.7058  1.0465 -0.0062
   21MOL0     C 2669  -1.556   7.408   7.524 -0.1142  0.1203 -0.1030
   21MOL0     O 2670  -1.677   7.474   7.499  0.2770 -0.2298  0.9070
   21MOL0     C 2671  -1.742   7.481   7.379  0.7056 -0.1914  0.3543
   21MOL0     C 2672  -1.680   7.464   7.252  0.7735 -0.2905 -0.2067
   21MOL0     C 2673  -1.758   7.487   7.138  0.0542  0.3933 -0.6808
   21MOL0     C 2674  -1.894   7.507   7.142  0.9507  0.2728 -0.6282
   21MOL0     O 2675  -1.975   7.517   7.030 -0.0301 -0.3695  0.6200
   21MOL0     C 2676  -1.935   7.452   6.911  0.1809 -0.2838  0.2300
   21MOL0     C 2677  -2.057   7.442   6.830 -0.1186 -0.2015  0.2129
   21MOL0     C 2678  -2.028   7.342   6.714  0.9441 -0.7497  0.4725
   21MOL0     C 2679  -2.137   7.340   6.601  0.6416 -0.1063 -0.8012
   21MOL0     C 2680  -2.088   7.263   6.494  0.1965 -0.5234  0.2867
   21MOL0     C 2681  -2.171   7.268   6.358 -0.3398 -0.3420  0.1752
   21MOL0     C 2682  -2.313   7.215   6.373 -0.3939 -0.9880 -0.2287
   21MOL0     C 2683  -2.405   7.248   6.244 -0.5619  0.3601 -0.5288
   21MOL0    Cl 2684  -2.571   7.213   6.285  0.0195  0.0104 -0.4659
   21MOL0     C 2685  -1.949   7.539   7.263 -0.1756  0.3369  0.6277
   21MOL0     C 2686  -1.873   7.529   7.379  0.2483  0.6070 -0.0265
   21MOL0     O 2687  -1.499   7.321   7.461  0.0673  0.7941 -0.0934
   21MOL0     C 2688  -1.503   7.572   7.706 -0.2815  0.3055  0.2056
   21MOL0     C 2689  -1.458   7.607   7.836 -0.2807  0.9679 -0.0526
   21MOL0     N 2690  -0.881   7.905   8.288 -0.6615  0.4237  0.2081
   21MOL0     N 2691  -0.750   7.907   8.293 -0.0157  0.3792 -0.1394
   21MOL0     C 2692   0.272   8.051   8.325  1.2237 -0.1910  0.0550
   21MOL0     C 2693   0.404   8.028   8.358  0.6487 -0.6857 -0.3697
   21MOL0     C 2694   0.809   7.914   8.576 -0.3347  0.9104  0.7715
   21MOL0     C 2695   0.877   8.009   8.505  0.0008 -0.2492 -0.1477
   21MOL0     C 2696   1.008   8.047   8.532  0.0786 -1.4026 -0.8676
   21MOL0     C 2697   1.081   7.977   8.627  0.4301 -1.1695 -0.6854
   21MOL0     O 2698   1.215   7.989   8.650  0.0204 -0.1644  0.2950
   21MOL0     C 2699   1.290   8.108   8.597 -0.3621  0.1324 -0.3442
   21MOL0     C 2700   1.420   8.122   8.665 -0.2361 -0.1305 -0.7891
   21MOL0     C 2701   1.523   8.032   8.596  0.6489 -0.3631  0.0372
   21MOL0     C 2702   1.667   8.043   8.654  0.2891  0.1450 -0.0101
   21MOL0     C 2703   1.757   7.939   8.599 -0.2231 -0.0982 -0.5232
   21MOL0     C 2704   1.826   7.847   8.556 -0.7377 -0.9893  0.3150
   21MOL0     C 2705   1.013   7.877   8.699 -0.3198 -0.1257 -0.4436
   21MOL0     C 2706   0.873   7.852   8.682 -0.3719 -0.2950 -0.7112
   21MOL0     H 2707   0.388   7.859   8.654  1.0210  2.9998  2.2899
   21MOL0     H 2708   0.156   7.898   8.607 -0.0598 -0.6811  0.7581
   21MOL0     H 2709   0.032   7.962   8.193  0.8243 -0.6003  0.5131
   21MOL0     H 2710   0.035   8.131   8.228  0.9122 -0.7147  0.4178
   21MOL0     H 2711  -0.184   8.126   8.328 -0.1591 -2.5377  4.0962
   21MOL0     H 2712  -0.194   7.952   8.316 -1.0218 -1.1738 -2.5090
   21MOL0     H 2713  -0.205   8.142   8.064 -0.2585  0.1725  0.4029
   21MOL0     H 2714  -0.338   8.085   8.153  0.9093 -0.5960  2.6611
   21MOL0     H 2715  -0.291   7.961   7.954 -3.0326  0.9559  2.0328
   21MOL0     H 2716  -0.129   7.916   8.030  0.2109 -1.3818  0.4520
   21MOL0     H 2717  -0.225   7.785   8.191  1.8424 -0.2571 -1.0133
   21MOL0     H 2718  -0.288   7.728   8.028  1.5525 -0.1757 -0.3429
   21MOL0     H 2719  -0.514   7.842   8.090  0.2330 -4.3276 -1.3347
   21MOL0     H 2720  -0.436   7.899   8.239  1.6454 -0.7981  2.1572
   21MOL0     H 2721  -0.535   7.621   8.166  0.0821 -0.2852 -1.2637
   21MOL0     H 2722  -0.388   7.643   8.267 -0.0526  0.1864 -0.3376
   21MOL0     H 2723  -0.522   7.796   8.422 -0.7268 -0.1320  0.1895
   21MOL0     H 2724  -0.591   7.641   8.418 -0.2392  0.2008 -1.6409
   21MOL0     H 2725  -0.831   7.591   8.323 -1.1801 -0.0706 -4.2393
   21MOL0     H 2726  -1.110   7.831   8.374  1.2970 -0.0788  1.2756
   21MOL0     H 2727  -1.061   7.659   8.393 -0.7595 -0.2116 -0.3547
   21MOL0     H 2728  -1.100   7.599   8.182  0.1561 -0.7301  4.7578
   21MOL0     H 2729  -1.107   7.756   8.114  0.8077  0.8225  1.2026
   21MOL0     H 2730  -1.330   7.640   8.303 -3.1758  0.2344 -1.4614
   21MOL0     H 2731  -1.326   7.806   8.247 -1.4716 -0.4425 -1.2178
   21MOL0     H 2732  -1.333   7.751   8.019 -0.2521 -0.2253 -1.6170
   21MOL0     H 2733  -1.479   7.691   8.105 -0.2994 -2.6563 -1.4413
   21MOL0     H 2734  -1.313   7.318   7.918 -1.7365 -0.4216 -0.5628
   21MOL0     H 2735  -1.387   7.254   7.689  0.9528 -0.4994  0.7414
   21MOL0     H 2736  -1.576   7.443   7.229 -0.2391 -2.4975 -3.3762
   21MOL0     H 2737  -1.715   7.472   7.039  0.9704 -2.1051 -0.0020
   21MOL0     H 2738  -1.916   7.348   6.936 -4.1354 -1.1604  0.5917
   21MOL0     H 2739  -1.847   7.491   6.858  0.2245 -1.6542 -0.7814
   21MOL0     H 2740  -2.097   7.532   6.783 -1.5033 -2.3778 -3.1760
   21MOL0     H 2741  -2.139   7.421   6.898  0.4203  0.2588  1.0235
   21MOL0     H 2742  -2.006   7.243   6.754  2.7288 -0.4456  0.3139
   21MOL0     H 2743  -1.935   7.379   6.670 -1.0786 -0.2855 -3.9465
   21MOL0     H 2744  -2.229   7.304   6.647 -2.4508  4.5470 -2.6125
   21MOL0     H 2745  -2.147   7.442   6.564  0.2509  0.6090  1.1402
   21MOL0     H 2746  -2.075   7.158   6.522  1.1892 -1.4014 -2.9556
   21MOL0     H 2747  -1.989   7.305   6.476 -0.1512 -0.0856 -0.6797
   21MOL0     H 2748  -2.120   7.203   6.286  0.4241 -1.2221  1.4544
   21MOL0     H 2749  -2.188   7.370   6.324  0.6959 -0.3710 -0.4798
   21MOL0     H 2750  -2.314   7.107   6.390  2.7576 -1.0453  0.1821
   21MOL0     H 2751  -2.363   7.261   6.459 -0.6785 -2.1953  0.2812
   21MOL0     H 2752  -2.363   7.188   6.163 -1.1141 -2.8369  1.3930
   21MOL0     H 2753  -2.384   7.346   6.199 -1.6202  1.2306  0.8120
   21MOL0     H 2754  -2.056   7.555   7.256 -0.3856 -1.5603 -2.0754
   21MOL0     H 2755  -1.929   7.544   7.471 -0.9779 -1.5049 -0.3652
   21MOL0     H 2756  -1.571   7.650   7.677 -0.9594 -0.3235  0.0853
   21MOL0     H 2757  -1.487   7.706   7.868 -2.7538  0.4283 -0.3836
   21MOL0     H 2758   0.240   8.096   8.232 -0.6301 -1.4278  0.0552
   21MOL0     H 2759   0.469   8.073   8.283  0.6719  0.8075  0.5156
   21MOL0     H 2760   0.830   8.068   8.426  4.0127  0.8321 -2.0025
   21MOL0     H 2761   1.063   8.120   8.474 -0.7548  2.3717  2.6053
   21MOL0     H 2762   1.230   8.198   8.617 -0.2268 -0.2171  1.7922
   21MOL0     H 2763   1.303   8.114   8.488 -2.9864  1.0915 -0.6856
   21MOL0     H 2764   1.455   8.225   8.657 -2.1874  0.6405 -0.0873
   21MOL0     H 2765   1.406   8.097   8.771  0.4562 -0.8754 -0.8640
   21MOL0     H 2766   1.541   8.053   8.490  2.3451  0.9523  0.5380
   21MOL0     H 2767   1.498   7.926   8.607  0.8278 -0.4507 -0.3567
   21MOL0     H 2768   1.706   8.143   8.636 -0.6859  0.0833 -3.1117
   21MOL0     H 2769   1.654   8.019   8.760 -2.0770 -2.4402 -0.7561
   21MOL0     H 2770   1.890   7.764   8.535 -0.0236 -1.3437  3.3640
   21MOL0     H 2771   1.071   7.825   8.775 -1.4222  0.2425  0.6904
   21MOL0     H 2772   0.823   7.792   8.758  1.8392  1.5271  2.4538
   22MOL0     O 2773  10.912   7.892   3.726  0.6980  0.1583  0.3840
   22MOL0     C 2774  10.913   7.788   3.787 -0.6545  0.3907 -0.1360
   22MOL0     O 2775  10.803   7.717   3.832 -0.5900  0.0901  0.0716
   22MOL0     C 2776  10.680   7.745   3.773 -0.7680 -0.2170 -0.4326
   22MOL0     C 2777  10.572   7.783   3.856 -0.0910 -0.3037 -0.1628
   22MOL0     C 2778  10.446   7.824   3.818 -0.1223  0.7763 -0.3005
   22MOL0     C 2779  10.417   7.816   3.680 -0.4348 -0.9579  0.7943
   22MOL0     O 2780  10.303   7.867   3.623  0.8030 -0.0267  0.4065
   22MOL0     C 2781  10.181   7.885   3.703 -0.1489  0.4067  0.7342
   22MOL0     C 2782  10.056   7.876   3.618 -0.0096 -0.6101 -0.5748
   22MOL0     C 2783   9.943   7.936   3.701 -0.5401 -0.4275  0.1465
   22MOL0     C 2784   9.810   7.910   3.629 -0.4438 -0.0026  0.6940
   22MOL0     C 2785   9.690   7.979   3.708  0.8479  0.5105  0.2728
   22MOL0     C 2786   9.558   7.969   3.632 -0.7160 -0.4606 -0.6297
   22MOL0     C 2787   9.435   8.019   3.706  0.7071  0.6761  1.5035
   22MOL0     C 2788   9.307   7.987   3.620  0.3422 -0.7285 -0.3674
   22MOL0     N 2789   9.189   8.056   3.686  0.2168 -1.4143 -0.1602
   22MOL0     C 2790   9.167   8.190   3.663  0.6054 -0.1565  0.4067
   22MOL0     C 2791   9.046   8.216   3.723 -0.5774 -0.2984  0.5089
   22MOL0     C 2792   8.982   8.354   3.710 -0.8789 -0.6746  0.5054
   22MOL0     C 2793   9.072   8.466   3.746  0.2516  0.3346 -0.4862
   22MOL0     C 2794   9.075   8.505   3.900  0.1562  0.3415  0.3589
   22MOL0     C 2795   9.139   8.641   3.914 -1.0453 -1.0240  0.7826
   22MOL0     O 2796   9.128   8.687   4.055 -0.7128  0.1251  0.1224
   22MOL0     C 2797   9.000   8.713   4.105  0.2874 -0.7631  0.1079
   22MOL0     C 2798   8.959   8.654   4.225 -0.0491 -0.3574  0.7567
   22MOL0     C 2799   8.828   8.667   4.272  0.3639 -0.0136 -0.6038
   22MOL0     C 2800   8.731   8.734   4.202  0.9913 -0.8024  0.6418
   22MOL0     C 2801   8.593   8.752   4.238  0.2305 -1.2022  0.7709
   22MOL0     O 2802   8.506   8.831   4.170 -0.3329 -0.2033 -0.0439
   22MOL0     C 2803   8.380   8.836   4.223 -0.1413  0.3539  0.0115
   22MOL0     C 2804   8.268   8.781   4.146  0.4101 -0.0874  0.7240
   22MOL0     C 2805   8.138   8.773   4.204 -0.0386 -0.5731 -0.4699
   22MOL0     C 2806   8.123   8.801   4.342  0.1469 -0.9932  0.4113
   22MOL0     O 2807   8.002   8.783   4.417 -0.8117  0.0862 -0.6311
   22MOL0     C 2808   7.891   8.712   4.358  0.3113 -0.2282  0.5006
   22MOL0     C 2809   7.775   8.672   4.459  0.2955  0.2454 -0.8050
   22MOL0     C 2810   7.742   8.802   4.534  0.2828 -0.6551 -0.0803
   22MOL0     C 2811   7.625   8.799   4.634 -0.1732 -0.1547  0.0350
   22MOL0     C 2812   7.490   8.768   4.570  0.2238 -0.1722 -0.7298
   22MOL0     C 2813   7.388   8.741   4.690  0.1548  0.3283  0.5327
   22MOL0     C 2814   7.248   8.732   4.635  0.1118 -0.3847 -0.0965
   22MOL0     C 2815   7.216   8.631   4.521  0.8599 -0.5488  0.6610
   22MOL0    Cl 2816   7.040   8.612   4.501  0.7676  0.0390  0.2238
   22MOL0     C 2817   8.225   8.861   4.408 -0.3358 -1.8385  0.8107
   22MOL0     C 2818   8.352   8.886   4.344  0.1376 -0.6377 -0.7904
   22MOL0     O 2819   8.556   8.691   4.339 -0.4088  0.0077 -0.0932
   22MOL0     C 2820   8.778   8.813   4.089 -0.7540 -0.0932  0.7515
   22MOL0     C 2821   8.901   8.782   4.037 -0.6322  0.0292  1.1558
   22MOL0     N 2822   8.998   8.099   3.756 -0.4951  0.4049 -0.7873
   22MOL0     N 2823   9.087   8.011   3.752  0.0662  0.6720  0.4246
   22MOL0     C 2824  10.518   7.783   3.588 -1.0303 -0.0833 -0.1937
   22MOL0     C 2825  10.649   7.745   3.640 -0.7688  0.2693 -0.0451
   22MOL0     C 2826  11.043   7.740   3.834 -0.5084 -0.5677  0.7119
   22MOL0     C 2827  11.159   7.822   3.819 -0.1770  0.5016 -0.9744
   22MOL0     C 2828  11.284   7.782   3.870 -0.4233 -0.6401 -0.1635
   22MOL0     C 2829  11.306   7.654   3.922 -0.0125  0.2139 -0.4109
   22MOL0     O 2830  11.425   7.611   3.974 -0.0176 -1.1631 -0.5661
   22MOL0     C 2831  11.513   7.710   4.040 -0.4714 -0.0962  0.6906
   22MOL0     C 2832  11.613   7.624   4.113  0.6482 -0.4163  0.6328
   22MOL0     C 2833  11.532   7.575   4.230 -0.2253  0.3385  0.0398
   22MOL0     C 2834  11.590   7.459   4.313  0.5838  0.7720 -0.1687
   22MOL0     C 2835  11.491   7.414   4.410  0.2080 -0.5928  0.4350
   22MOL0     C 2836  11.431   7.387   4.510  0.2201 -0.6764  0.8655
   22MOL0     C 2837  11.196   7.566   3.926  0.7574 -0.0186 -0.7836
   22MOL0     C 2838  11.066   7.612   3.885  0.2833 -0.0587 -0.7616
   22MOL0     H 2839  10.591   7.776   3.962  2.5821 -0.9055 -0.5919
   22MOL0     H 2840  10.373   7.849   3.894  1.0976 -0.2319  1.2486
   22MOL0     H 2841  10.180   7.984   3.750 -1.3326  1.1545 -0.7551
   22MOL0     H 2842  10.172   7.811   3.782  1.5227  0.3448  0.9043
   22MOL0     H 2843  10.039   7.772   3.591 -0.0097 -0.3229 -1.7577
   22MOL0     H 2844  10.070   7.916   3.516 -3.4882 -0.7223 -1.1951
   22MOL0     H 2845   9.944   8.045   3.708 -0.4991 -0.2526 -1.9143
   22MOL0     H 2846   9.939   7.902   3.805  0.7641  1.7664  0.9875
   22MOL0     H 2847   9.813   7.927   3.521  0.3358 -4.2932 -0.1410
   22MOL0     H 2848   9.805   7.801   3.645 -0.0532 -0.0743  0.3272
   22MOL0     H 2849   9.724   8.082   3.721  1.2495  0.3328  0.6468
   22MOL0     H 2850   9.680   7.942   3.811  1.8958 -4.3893 -1.1000
   22MOL0     H 2851   9.549   7.861   3.618  1.7898 -0.8610  0.3725
   22MOL0     H 2852   9.564   8.022   3.536  0.0444 -0.8437 -0.7939
   22MOL0     H 2853   9.424   7.975   3.806  1.3697 -0.4713  1.0807
   22MOL0     H 2854   9.447   8.128   3.711 -2.6916  1.2545 -0.2094
   22MOL0     H 2855   9.287   7.880   3.615 -1.3578 -0.5513  1.2730
   22MOL0     H 2856   9.325   8.025   3.519  1.0337  0.4248  0.1669
   22MOL0     H 2857   9.230   8.263   3.614  1.1272 -0.9155 -0.0693
   22MOL0     H 2858   8.883   8.363   3.754 -0.4529  1.6079  1.1569
   22MOL0     H 2859   8.977   8.367   3.602  2.2742  0.2884  0.3783
   22MOL0     H 2860   9.049   8.556   3.688  0.5224 -1.3443 -3.3554
   22MOL0     H 2861   9.172   8.437   3.712 -0.4048 -0.0751 -2.1307
   22MOL0     H 2862   8.970   8.512   3.931 -0.3606  1.4275 -1.4733
   22MOL0     H 2863   9.127   8.424   3.952  2.4679 -2.3888 -5.3474
   22MOL0     H 2864   9.108   8.713   3.838  1.2644 -3.0288 -2.2886
   22MOL0     H 2865   9.242   8.615   3.892 -0.9825 -0.5417  0.5073
   22MOL0     H 2866   9.019   8.576   4.271 -0.9872 -1.5717 -0.0138
   22MOL0     H 2867   8.808   8.605   4.359  5.7470  0.0674  1.0727
   22MOL0     H 2868   8.298   8.759   4.044  3.2530 -0.1373  1.4674
   22MOL0     H 2869   8.055   8.743   4.140 -0.6310 -0.7084  0.3432
   22MOL0     H 2870   7.936   8.618   4.324  2.1771 -0.0484  2.2266
   22MOL0     H 2871   7.837   8.770   4.283 -5.2780 -0.5008  3.7612
   22MOL0     H 2872   7.804   8.599   4.536 -5.3268 -1.2740  0.3968
   22MOL0     H 2873   7.692   8.621   4.408  0.7671 -2.6987  1.0920
   22MOL0     H 2874   7.713   8.878   4.460  0.2145  1.0128  1.5695
   22MOL0     H 2875   7.828   8.844   4.587  1.4296 -3.1871  0.1952
   22MOL0     H 2876   7.643   8.717   4.704 -1.0450  1.0697  1.7594
   22MOL0     H 2877   7.620   8.884   4.703 -0.2416 -0.2081  0.0950
   22MOL0     H 2878   7.509   8.680   4.508  0.2371 -2.4674  2.2669
   22MOL0     H 2879   7.465   8.852   4.505  1.3735  1.2975  0.6577
   22MOL0     H 2880   7.392   8.822   4.763 -0.3879  0.4758  0.4054
   22MOL0     H 2881   7.415   8.648   4.742  1.9142  0.8839  0.6646
   22MOL0     H 2882   7.183   8.712   4.721 -2.1706  1.0114 -1.4113
   22MOL0     H 2883   7.219   8.826   4.588 -1.0648 -0.1965  0.9406
   22MOL0     H 2884   7.249   8.533   4.556  2.0266 -0.3077  0.2782
   22MOL0     H 2885   7.273   8.655   4.431  2.4586  1.2841  2.0714
   22MOL0     H 2886   8.211   8.902   4.507 -0.7561 -1.3744  0.5628
   22MOL0     H 2887   8.433   8.949   4.381 -1.5806  0.5453  1.1489
   22MOL0     H 2888   8.704   8.866   4.031 -2.1346 -1.8715  0.8169
   22MOL0     H 2889   8.916   8.821   3.936  0.3976  1.8245  1.9629
   22MOL0     H 2890  10.499   7.784   3.481  0.0278  0.2236 -0.3882
   22MOL0     H 2891  10.721   7.704   3.570  1.2897 -0.8024  2.5286
   22MOL0     H 2892  11.166   7.915   3.764  0.1608 -1.1898 -4.0246
   22MOL0     H 2893  11.362   7.857   3.865 -1.6273  0.8232  1.5508
   22MOL0     H 2894  11.460   7.784   4.101  0.7098 -0.2262  1.9247
   22MOL0     H 2895  11.569   7.775   3.972 -0.4542  1.7246  2.3444
   22MOL0     H 2896  11.641   7.543   4.046  0.8047  1.2665 -1.4275
   22MOL0     H 2897  11.706   7.671   4.148  2.0171 -2.7222  0.2885
   22MOL0     H 2898  11.435   7.536   4.197 -0.7056 -0.5969  2.3458
   22MOL0     H 2899  11.509   7.653   4.302 -1.5380 -0.3784  0.4369
   22MOL0     H 2900  11.629   7.381   4.247 -0.3185  0.6806 -0.6207
   22MOL0     H 2901  11.679   7.495   4.365  2.0952 -2.1222 -0.5067
   22MOL0     H 2902  11.362   7.354   4.584  0.4573  0.5745  1.6717
   22MOL0     H 2903  11.225   7.465   3.952  1.8618 -0.2649 -2.7608
   22MOL0     H 2904  10.988   7.537   3.890  0.2542 -0.0870 -1.5535
   23MOL0     O 2905   4.158   6.320   6.977  0.3334 -0.1482 -0.4244
   23MOL0     C 2906   4.207   6.413   6.917 -0.6069  0.5324  0.8904
   23MOL0     O 2907   4.133   6.504   6.846 -0.0246  0.1633 -0.2903
   23MOL0     C 2908   3.999   6.481   6.810 -0.5130  1.0452  0.4269
   23MOL0     C 2909   3.903   6.563   6.856 -0.2932  0.5529  0.1358
   23MOL0     C 2910   3.770   6.538   6.830  0.3253 -0.6313  0.5383
   23MOL0     C 2911   3.727   6.431   6.752 -0.4308  0.1656 -0.1176
   23MOL0     O 2912   3.602   6.413   6.712  1.3465  0.0094  1.2564
   23MOL0     C 2913   3.492   6.485   6.768 -0.1115 -0.0343 -0.4271
   23MOL0     C 2914   3.377   6.471   6.659  0.1709  0.4734  0.4080
   23MOL0     C 2915   3.250   6.561   6.682  0.1169 -0.0317 -0.4150
   23MOL0     C 2916   3.135   6.531   6.583  0.3682 -0.3931  0.2529
   23MOL0     C 2917   3.024   6.449   6.652 -0.6814  0.0114  0.0143
   23MOL0     C 2918   3.042   6.295   6.670  1.0164  0.5101  0.3586
   23MOL0     C 2919   2.907   6.229   6.703 -0.3281  0.0188  0.3929
   23MOL0     C 2920   2.932   6.093   6.763 -0.4366 -0.3205  0.4541
   23MOL0     N 2921   2.816   6.010   6.745 -0.2143 -0.3913  0.9430
   23MOL0     C 2922   2.758   5.960   6.627  0.3418  0.3580  0.0053
   23MOL0     C 2923   2.665   5.873   6.666 -0.3815  0.7357  0.5002
   23MOL0     C 2924   2.580   5.786   6.576  0.7374 -0.4532  0.6463
   23MOL0     C 2925   2.431   5.773   6.604  0.1916  0.5710 -0.3868
   23MOL0     C 2926   2.362   5.744   6.472 -0.5969 -0.1837  0.5567
   23MOL0     C 2927   2.225   5.692   6.482 -0.2348  0.6636 -0.0675
   23MOL0     O 2928   2.231   5.557   6.458 -0.0605 -0.6403 -0.2394
   23MOL0     C 2929   2.110   5.489   6.454  0.5196 -0.6765  0.2424
   23MOL0     C 2930   2.100   5.363   6.390  0.5897 -0.3260 -0.1495
   23MOL0     C 2931   1.988   5.281   6.383  0.3823  0.1336 -0.4246
   23MOL0     C 2932   1.875   5.326   6.454  0.1519  0.5948  0.7342
   23MOL0     C 2933   1.740   5.261   6.441  1.2212 -0.0094  0.6841
   23MOL0     O 2934   1.743   5.145   6.369  0.4403 -0.2208  0.1034
   23MOL0     C 2935   1.622   5.081   6.357  0.7894  0.1482  0.1776
   23MOL0     C 2936   1.542   5.037   6.469 -0.4684 -0.7078  0.2351
   23MOL0     C 2937   1.434   4.954   6.454 -0.4926  0.4419 -0.5715
   23MOL0     C 2938   1.388   4.919   6.328  0.5072 -0.7294  0.1190
   23MOL0     O 2939   1.286   4.825   6.330  0.4042  0.3080  0.1961
   23MOL0     C 2940   1.237   4.770   6.208  0.5757 -1.0586  0.0977
   23MOL0     C 2941   1.126   4.681   6.247  0.5034 -0.1476  0.5096
   23MOL0     C 2942   1.082   4.599   6.122  0.4449  1.1582 -0.5819
   23MOL0     C 2943   0.968   4.504   6.161 -0.1458 -0.5052  0.0681
   23MOL0     C 2944   0.923   4.420   6.038  0.2797  0.2221 -0.7868
   23MOL0     C 2945   0.866   4.502   5.925 -0.2741  0.8328  0.6483
   23MOL0     C 2946   0.794   4.412   5.818  0.2934  0.1341 -0.9013
   23MOL0     C 2947   0.747   4.481   5.697  0.4573  0.7767  0.1645
   23MOL0    Cl 2948   0.592   4.575   5.727  0.1773  0.3906  0.2706
   23MOL0     C 2949   1.448   4.975   6.219 -0.4476 -0.2970  0.7001
   23MOL0     C 2950   1.572   5.046   6.225 -0.2020  0.3030 -0.2546
   23MOL0     O 2951   1.647   5.299   6.516  0.1506 -0.7125  0.0247
   23MOL0     C 2952   1.888   5.442   6.530 -0.6405 -0.5563 -0.4499
   23MOL0     C 2953   2.003   5.521   6.535  0.0031 -0.4600 -0.1547
   23MOL0     N 2954   2.675   5.872   6.808 -0.1873  0.6515 -0.0196
   23MOL0     N 2955   2.763   5.951   6.852  0.3326  0.5368 -0.7344
   23MOL0     C 2956   3.828   6.350   6.703 -0.7817  0.0276 -0.7039
   23MOL0     C 2957   3.964   6.374   6.733  0.5993  0.0382  0.2227
   23MOL0     C 2958   4.356   6.431   6.911 -1.1214 -0.9519  1.2051
   23MOL0     C 2959   4.438   6.337   6.971  0.0915  0.6964  0.4464
   23MOL0     C 2960   4.578   6.341   6.949 -0.9478  0.7209  0.5508
   23MOL0     C 2961   4.640   6.440   6.872 -0.5437  0.6177 -0.4437
   23MOL0     O 2962   4.774   6.410   6.854 -0.4146  0.5102 -0.1762
   23MOL0     C 2963   4.844   6.508   6.769 -0.1712 -0.2715 -0.2796
   23MOL0     C 2964   4.983   6.450   6.720  0.6881 -0.1900 -0.9591
   23MOL0     C 2965   5.102   6.506   6.806  0.2496  0.4219 -0.4323
   23MOL0     C 2966   5.163   6.644   6.762  0.4561 -0.1888  0.4314
   23MOL0     C 2967   5.070   6.753   6.761 -0.4057 -0.4492 -0.3392
   23MOL0     C 2968   4.984   6.838   6.730 -0.1755 -0.2293  1.0027
   23MOL0     C 2969   4.558   6.541   6.824  0.5541 -1.5465 -0.1966
   23MOL0     C 2970   4.418   6.540   6.845  0.4766  0.7207 -0.4020
   23MOL0     H 2971   3.925   6.654   6.911 -0.3752 -0.6203  2.2277
   23MOL0     H 2972   3.698   6.613   6.861  1.3663 -0.1715  1.9224
   23MOL0     H 2973   3.510   6.593   6.775 -0.1093 -0.0980  0.7623
   23MOL0     H 2974   3.462   6.443   6.865  1.5524  0.3780  0.2912
   23MOL0     H 2975   3.341   6.369   6.646  2.4076  0.0621 -4.4514
   23MOL0     H 2976   3.416   6.500   6.561  1.8501 -2.9316 -0.0651
   23MOL0     H 2977   3.272   6.667   6.667  0.6791 -0.3034 -1.6797
   23MOL0     H 2978   3.210   6.550   6.783 -2.7592 -0.4343 -1.4881
   23MOL0     H 2979   3.099   6.631   6.557  0.5405  0.1550  1.9554
   23MOL0     H 2980   3.156   6.475   6.492  0.0275 -0.3588  0.1555
   23MOL0     H 2981   2.945   6.459   6.576 -0.1660  0.6364 -0.4605
   23MOL0     H 2982   3.002   6.496   6.748  0.4314 -1.9854  1.2971
   23MOL0     H 2983   3.123   6.284   6.743  1.2591 -0.4645 -0.0340
   23MOL0     H 2984   3.085   6.257   6.577 -0.0120 -0.5741  0.3029
   23MOL0     H 2985   2.860   6.292   6.780  2.1700  2.4890  0.0624
   23MOL0     H 2986   2.843   6.227   6.615  1.3814 -1.0950 -0.8759
   23MOL0     H 2987   2.965   6.100   6.867  0.4174  0.6766  0.1404
   23MOL0     H 2988   3.016   6.046   6.710  0.2256 -1.7160  2.5742
   23MOL0     H 2989   2.767   5.993   6.524 -0.5128  0.6514  0.0155
   23MOL0     H 2990   2.618   5.683   6.589  2.1869  0.1821  1.8585
   23MOL0     H 2991   2.604   5.822   6.476  1.1362 -0.7881  0.6147
   23MOL0     H 2992   2.385   5.850   6.665  0.6813  0.8985 -0.4280
   23MOL0     H 2993   2.422   5.686   6.670  2.1127  0.8444  0.2903
   23MOL0     H 2994   2.358   5.834   6.409  0.5752  0.7415  1.7455
   23MOL0     H 2995   2.425   5.667   6.427 -0.3716  0.5878 -0.4701
   23MOL0     H 2996   2.162   5.729   6.400  0.1631 -1.5961 -1.4617
   23MOL0     H 2997   2.172   5.717   6.574 -3.9780 -0.5950 -1.6819
   23MOL0     H 2998   2.179   5.318   6.331 -1.1867 -0.3955 -2.6482
   23MOL0     H 2999   1.996   5.185   6.334 -1.0421 -0.0119 -0.4162
   23MOL0     H 3000   1.572   5.062   6.570  0.0602  1.9103 -0.4853
   23MOL0     H 3001   1.380   4.927   6.545  0.0517  1.1627 -0.0213
   23MOL0     H 3002   1.323   4.716   6.167  1.6134 -1.0907  2.1511
   23MOL0     H 3003   1.195   4.849   6.146 -0.7036 -2.0638 -0.3583
   23MOL0     H 3004   1.049   4.748   6.286 -0.0093 -0.6353  0.3507
   23MOL0     H 3005   1.161   4.624   6.333  0.7738  0.4378  0.7921
   23MOL0     H 3006   1.166   4.549   6.073  0.6459  0.7717  0.1417
   23MOL0     H 3007   1.032   4.665   6.051 -1.1398  1.9418  1.1661
   23MOL0     H 3008   1.004   4.437   6.239  0.0144  1.9179  2.1793
   23MOL0     H 3009   0.886   4.561   6.205 -0.6117 -1.0829 -0.0290
   23MOL0     H 3010   0.846   4.350   6.074  1.4161 -0.2409  0.8602
   23MOL0     H 3011   1.000   4.350   6.004 -0.2096 -0.1721 -1.0981
   23MOL0     H 3012   0.951   4.552   5.877 -0.9044  0.2844 -1.1128
   23MOL0     H 3013   0.797   4.579   5.960 -1.4809 -0.0520  0.2615
   23MOL0     H 3014   0.871   4.341   5.787 -0.2967 -1.1394  0.4384
   23MOL0     H 3015   0.719   4.346   5.863  0.0361  1.1213  0.1831
   23MOL0     H 3016   0.726   4.407   5.619  1.1170  1.2574 -0.4851
   23MOL0     H 3017   0.830   4.538   5.655  2.2006 -2.8245 -1.7266
   23MOL0     H 3018   1.406   4.958   6.120  0.2825  0.9340  0.1522
   23MOL0     H 3019   1.637   5.084   6.147  0.2850 -1.1017 -0.5578
   23MOL0     H 3020   1.806   5.464   6.598 -1.2306 -1.0475 -0.9877
   23MOL0     H 3021   2.012   5.605   6.602  0.2072 -1.4015  1.0413
   23MOL0     H 3022   3.799   6.257   6.656 -0.9395 -1.3303  1.8954
   23MOL0     H 3023   4.037   6.297   6.708 -1.0029 -1.0102 -1.5707
   23MOL0     H 3024   4.397   6.257   7.031 -0.0724  1.7497  1.7847
   23MOL0     H 3025   4.643   6.260   6.981 -1.2422  1.5025  3.4517
   23MOL0     H 3026   4.853   6.602   6.824  0.0088 -0.9203  0.8271
   23MOL0     H 3027   4.779   6.540   6.687 -1.6636 -0.5673  0.7460
   23MOL0     H 3028   4.983   6.341   6.721  0.8750 -0.1831 -0.2041
   23MOL0     H 3029   4.999   6.477   6.615  0.6511  1.6703 -0.5341
   23MOL0     H 3030   5.187   6.436   6.803  0.7363  1.0059 -0.6216
   23MOL0     H 3031   5.072   6.522   6.909  1.2104  0.3565 -0.1307
   23MOL0     H 3032   5.245   6.672   6.829  0.6611  0.9387 -0.2612
   23MOL0     H 3033   5.214   6.642   6.665  1.5612  1.2541  0.9372
   23MOL0     H 3034   4.911   6.900   6.682 -0.0165 -0.7345  0.0686
   23MOL0     H 3035   4.602   6.627   6.775  0.2465 -0.7233  0.9170
   23MOL0     H 3036   4.350   6.612   6.800  0.3026  1.9139  1.6183
   24MOL0     O 3037   2.421   8.778   2.057 -1.2060 -0.5876  0.0341
   24MOL0     C 3038   2.497   8.689   2.111  0.5421  0.1739  0.7404
   24MOL0     O 3039   2.630   8.675   2.093  0.1567 -0.7693  0.5787
   24MOL0     C 3040   2.706   8.781   2.055 -0.8624  0.6417  0.8718
   24MOL0     C 3041   2.681   8.925   2.050  0.7449  0.0190  0.2351
   24MOL0     C 3042   2.786   9.015   2.016  0.2431 -0.1552  0.5860
   24MOL0     C 3043   2.914   8.966   1.997  0.6605  0.6403  0.1786
   24MOL0     O 3044   3.007   9.055   1.965  0.0537 -0.3337 -0.3362
   24MOL0     C 3045   3.107   9.032   1.870  0.5219  0.0727 -0.0141
   24MOL0     C 3046   3.191   9.170   1.844  0.0620 -0.0834 -0.0079
   24MOL0     C 3047   3.303   9.194   1.938  0.0731 -0.2041  0.2666
   24MOL0     C 3048   3.359   9.332   1.910 -1.2330 -0.1913  0.0001
   24MOL0     C 3049   3.434   9.393   2.024 -1.0910 -1.2903  0.0098
   24MOL0     C 3050   3.577   9.341   2.044  0.1230 -0.0555  0.6406
   24MOL0     C 3051   3.679   9.414   1.957  0.8067  0.2750 -0.2751
   24MOL0     C 3052   3.825   9.365   2.004  0.2641  0.3455  0.9053
   24MOL0     N 3053   3.931   9.401   1.902 -0.8674  1.0124  0.1513
   24MOL0     C 3054   3.951   9.517   1.835  0.6025 -0.0710 -0.2663
   24MOL0     C 3055   4.017   9.475   1.725  0.0876 -0.1670 -0.2758
   24MOL0     C 3056   4.073   9.550   1.610 -0.3537 -0.1544 -0.0009
   24MOL0     C 3057   3.960   9.584   1.518 -0.8074  0.1873  0.1369
   24MOL0     C 3058   3.890   9.461   1.457  0.1226 -0.6323 -0.4108
   24MOL0     C 3059   3.788   9.520   1.362  0.1291 -0.8190 -0.2051
   24MOL0     O 3060   3.740   9.407   1.293  0.0710  0.6488  0.6568
   24MOL0     C 3061   3.619   9.414   1.231 -1.0101  0.2178 -0.3963
   24MOL0     C 3062   3.519   9.504   1.258 -0.4413  0.5586 -0.0862
   24MOL0     C 3063   3.400   9.506   1.184 -0.3819 -0.2686 -0.0040
   24MOL0     C 3064   3.382   9.409   1.088  0.9447 -0.7461 -1.0067
   24MOL0     C 3065   3.253   9.395   1.007 -0.4292  0.0516  0.1390
   24MOL0     O 3066   3.158   9.491   1.014  0.1320  0.2060  0.0228
   24MOL0     C 3067   3.034   9.498   0.952 -0.4081  0.3534 -0.0016
   24MOL0     C 3068   2.947   9.585   1.008  0.3878 -0.0669  0.7750
   24MOL0     C 3069   2.814   9.592   0.956 -0.6541 -0.0330  0.1361
   24MOL0     C 3070   2.772   9.512   0.852 -0.7329  1.3499  0.2197
   24MOL0     O 3071   2.646   9.504   0.827  0.1307  0.3789  0.0204
   24MOL0     C 3072   2.592   9.409   0.730 -0.0457 -0.9952  0.3440
   24MOL0     C 3073   2.437   9.421   0.728  0.3692  0.1344 -0.0598
   24MOL0     C 3074   2.373   9.334   0.610 -0.0117  0.1195 -0.5215
   24MOL0     C 3075   2.241   9.365   0.549  0.1659 -0.2433 -0.0562
   24MOL0     C 3076   2.135   9.338   0.652  0.2176 -0.0059  0.1350
   24MOL0     C 3077   2.008   9.411   0.628  0.0320  0.3541  0.8108
   24MOL0     C 3078   1.906   9.404   0.745  0.3091  0.1556  0.4821
   24MOL0     C 3079   1.765   9.437   0.696 -0.8237 -0.9249 -0.5978
   24MOL0    Cl 3080   1.745   9.619   0.666  0.3952 -0.1985 -0.3052
   24MOL0     C 3081   2.870   9.425   0.799 -0.0731  0.2678 -0.0170
   24MOL0     C 3082   2.997   9.420   0.840  0.1367  0.3084  0.3574
   24MOL0     O 3083   3.238   9.292   0.953  0.6276  0.3619 -0.4914
   24MOL0     C 3084   3.476   9.314   1.071 -0.4886 -0.2277 -0.4817
   24MOL0     C 3085   3.601   9.314   1.143  0.5503 -0.0525 -0.0682
   24MOL0     N 3086   4.053   9.346   1.738  0.2913 -0.0326  0.2970
   24MOL0     N 3087   3.996   9.297   1.843  0.1732 -0.0973  0.5410
   24MOL0     C 3088   2.945   8.827   2.011  0.2249  0.7581  0.0153
   24MOL0     C 3089   2.840   8.742   2.041 -0.5943 -0.4807  1.0243
   24MOL0     C 3090   2.423   8.597   2.189 -0.6426 -0.8630  0.6833
   24MOL0     C 3091   2.297   8.621   2.250 -0.1489  0.3038 -0.1678
   24MOL0     C 3092   2.227   8.527   2.331 -0.0952 -0.4782  0.0573
   24MOL0     C 3093   2.289   8.406   2.356 -0.0539 -0.5081 -0.8198
   24MOL0     O 3094   2.208   8.313   2.427 -0.2997  0.1679  0.1872
   24MOL0     C 3095   2.214   8.184   2.381 -0.3079 -0.6165  0.6927
   24MOL0     C 3096   2.105   8.104   2.437  0.5504  0.0737 -1.5160
   24MOL0     C 3097   2.130   7.955   2.408 -1.1975 -0.0055  0.2393
   24MOL0     C 3098   2.050   7.859   2.492 -0.0451 -0.9127 -0.1657
   24MOL0     C 3099   1.909   7.866   2.471 -0.4698 -0.3721  0.5151
   24MOL0     C 3100   1.792   7.875   2.466  0.4952  0.5859 -0.0466
   24MOL0     C 3101   2.416   8.375   2.301 -0.0080  0.1074  0.0159
   24MOL0     C 3102   2.479   8.479   2.223  0.1861 -0.0641  0.1070
   24MOL0     H 3103   2.588   8.975   2.075  0.3385 -0.4850 -0.2308
   24MOL0     H 3104   2.749   9.117   2.012 -0.9304 -0.5673  0.5696
   24MOL0     H 3105   3.053   9.019   1.776  0.7065 -2.6402  0.1884
   24MOL0     H 3106   3.167   8.941   1.870  2.4272  1.2757  0.4839
   24MOL0     H 3107   3.122   9.254   1.845  0.7575  0.5036 -0.1862
   24MOL0     H 3108   3.225   9.173   1.740 -0.1712 -1.2761 -0.1335
   24MOL0     H 3109   3.382   9.121   1.921 -0.2395 -0.0006 -2.7594
   24MOL0     H 3110   3.249   9.183   2.033 -0.6359  0.1441 -0.0804
   24MOL0     H 3111   3.434   9.325   1.831 -1.3428 -4.0040  0.0595
   24MOL0     H 3112   3.286   9.411   1.888  0.0789  1.8203  2.3591
   24MOL0     H 3113   3.364   9.386   2.108 -1.0909  1.4909  0.3471
   24MOL0     H 3114   3.451   9.500   2.005  1.7901 -1.0845  2.9442
   24MOL0     H 3115   3.578   9.235   2.016 -0.6704  0.5648 -2.0757
   24MOL0     H 3116   3.609   9.358   2.147  1.2291  1.3318  0.0903
   24MOL0     H 3117   3.662   9.408   1.849  1.8722  0.1546 -0.4558
   24MOL0     H 3118   3.671   9.520   1.981  0.6054  0.4600 -1.1324
   24MOL0     H 3119   3.817   9.257   2.020 -0.5096  0.6771  3.0746
   24MOL0     H 3120   3.850   9.405   2.103  2.0759 -1.7106  1.3525
   24MOL0     H 3121   3.902   9.609   1.864  1.9040  0.6726 -0.3617
   24MOL0     H 3122   4.146   9.495   1.550 -1.2400 -2.9626  1.3584
   24MOL0     H 3123   4.122   9.639   1.650  2.6847 -0.9896 -1.5548
   24MOL0     H 3124   4.006   9.637   1.433  1.1215 -2.8231 -0.8579
   24MOL0     H 3125   3.900   9.656   1.573 -0.6431  0.2819  0.1937
   24MOL0     H 3126   3.959   9.400   1.398 -0.5894 -1.2802 -0.5980
   24MOL0     H 3127   3.841   9.395   1.530 -0.9420 -0.1516 -0.6699
   24MOL0     H 3128   3.828   9.592   1.289  0.7918 -0.8164  0.1498
   24MOL0     H 3129   3.715   9.580   1.417  3.6326  0.5168  3.6021
   24MOL0     H 3130   3.531   9.581   1.334  2.1444 -0.2265  0.3839
   24MOL0     H 3131   3.331   9.588   1.200 -0.4103 -0.2543 -0.2018
   24MOL0     H 3132   2.983   9.657   1.080  0.3478  1.0968 -0.3231
   24MOL0     H 3133   2.736   9.655   0.997 -1.1878 -0.9762  0.6060
   24MOL0     H 3134   2.632   9.309   0.752 -0.4991 -1.4101 -0.6589
   24MOL0     H 3135   2.620   9.425   0.626 -0.1310 -3.1934 -0.0746
   24MOL0     H 3136   2.397   9.522   0.724  0.0914  0.0645  0.7909
   24MOL0     H 3137   2.395   9.379   0.820  1.3845 -0.1744  0.2746
   24MOL0     H 3138   2.378   9.228   0.636  2.5724  0.6558  1.5421
   24MOL0     H 3139   2.447   9.362   0.534 -1.5376  3.1655 -1.0426
   24MOL0     H 3140   2.256   9.472   0.535 -1.2106  0.1655  1.3447
   24MOL0     H 3141   2.209   9.327   0.452  1.9198 -0.0878 -0.7241
   24MOL0     H 3142   2.172   9.374   0.748 -2.9147 -0.5082  1.6382
   24MOL0     H 3143   2.119   9.230   0.661  0.4395 -0.1401 -0.8919
   24MOL0     H 3144   1.959   9.365   0.542  0.4430 -0.0939  0.8081
   24MOL0     H 3145   2.028   9.515   0.603 -0.5908  0.2092 -0.3316
   24MOL0     H 3146   1.897   9.298   0.773 -0.5692 -0.6268 -2.4462
   24MOL0     H 3147   1.936   9.468   0.829  1.4642  0.0631  0.1517
   24MOL0     H 3148   1.697   9.395   0.771  0.7425 -0.9459  0.8655
   24MOL0     H 3149   1.753   9.384   0.601  1.5996 -0.0157 -1.4977
   24MOL0     H 3150   2.847   9.365   0.711 -1.7056  0.8485 -0.0163
   24MOL0     H 3151   3.072   9.361   0.789 -1.2518 -1.4886  0.2914
   24MOL0     H 3152   3.464   9.222   1.015  1.0420 -2.6717  2.8585
   24MOL0     H 3153   3.681   9.241   1.136 -0.4922 -1.4545  1.8500
   24MOL0     H 3154   3.043   8.783   1.993 -0.5537 -3.3662  4.0554
   24MOL0     H 3155   2.865   8.636   2.046  0.5790 -0.1795  2.0719
   24MOL0     H 3156   2.245   8.714   2.230  2.8340  2.1317 -0.0634
   24MOL0     H 3157   2.137   8.555   2.385  1.0209  0.7225  1.3391
   24MOL0     H 3158   2.312   8.141   2.404  0.4096  0.8990  0.6131
   24MOL0     H 3159   2.203   8.173   2.272  0.9947  2.6055  0.1221
   24MOL0     H 3160   2.106   8.133   2.543  1.4291  0.0754 -1.5210
   24MOL0     H 3161   2.003   8.130   2.405 -1.2329  0.6812  3.6543
   24MOL0     H 3162   2.235   7.928   2.408 -1.6616 -1.9087  0.4988
   24MOL0     H 3163   2.113   7.941   2.301  0.8876  0.0811 -0.1361
   24MOL0     H 3164   2.091   7.760   2.472  0.6460 -1.2700  2.6444
   24MOL0     H 3165   2.064   7.882   2.598  3.2163  0.5491 -0.7897
   24MOL0     H 3166   1.686   7.868   2.455  0.6186 -0.4924 -0.7171
   24MOL0     H 3167   2.471   8.283   2.319  1.1646  0.2400 -2.4049
   24MOL0     H 3168   2.581   8.462   2.190  2.0885  1.5798  4.3396
   25MOL0     O 3169   8.263   9.831   8.240  0.3067 -0.1390 -0.1624
   25MOL0     C 3170   8.278   9.871   8.352 -0.7235 -0.3324  0.1677
   25MOL0     O 3171   8.184   9.939   8.423 -0.2398  0.7293 -1.0316
   25MOL0     C 3172   8.057   9.946   8.376  0.2521 -0.0977  0.6145
   25MOL0     C 3173   7.992  10.070   8.368  0.9686 -0.4122  0.5632
   25MOL0     C 3174   7.853  10.082   8.330  0.1303  0.0415 -0.0318
   25MOL0     C 3175   7.790   9.969   8.289  0.3873 -0.4062  0.5807
   25MOL0     O 3176   7.654   9.968   8.250  0.1708  0.1201 -0.3983
   25MOL0     C 3177   7.576  10.062   8.319 -0.3666 -0.9098 -0.3397
   25MOL0     C 3178   7.438  10.037   8.279 -0.1037  0.0605  0.8457
   25MOL0     C 3179   7.333  10.109   8.355 -0.4652 -0.1709  0.4563
   25MOL0     C 3180   7.302  10.047   8.496  0.4714 -1.0460  0.3416
   25MOL0     C 3181   7.226   9.915   8.486  0.3717 -0.9791  0.0028
   25MOL0     C 3182   7.073   9.932   8.463 -0.2366  0.5982 -0.5999
   25MOL0     C 3183   6.992   9.795   8.469 -0.4802  0.5793 -0.2263
   25MOL0     C 3184   6.846   9.828   8.504 -0.7044  0.3645  0.2157
   25MOL0     N 3185   6.749   9.713   8.510  0.8309 -0.2255  0.0203
   25MOL0     C 3186   6.607   9.719   8.497 -1.1963  0.0554 -0.5849
   25MOL0     C 3187   6.572   9.592   8.494 -0.1125 -0.5763 -0.0146
   25MOL0     C 3188   6.445   9.536   8.452 -0.0888 -0.5747  0.3836
   25MOL0     C 3189   6.344   9.520   8.569  0.2207 -0.1297 -0.1851
   25MOL0     C 3190   6.373   9.397   8.653 -0.2301 -0.0266  0.5966
   25MOL0     C 3191   6.268   9.373   8.761 -0.2107  0.6005 -0.0626
   25MOL0     O 3192   6.250   9.488   8.846 -0.6846  0.0933 -0.3101
   25MOL0     C 3193   6.142   9.499   8.931  0.2417  0.4895 -0.8140
   25MOL0     C 3194   6.057   9.395   8.970 -0.0848 -0.6001  0.5273
   25MOL0     C 3195   5.949   9.421   9.042  1.0585  1.1411  0.4332
   25MOL0     C 3196   5.927   9.545   9.099  0.4374  0.1515  0.1576
   25MOL0     C 3197   5.815   9.546   9.200 -0.0019 -0.2758 -0.0940
   25MOL0     O 3198   5.791   9.673   9.255 -0.2317  0.1663  0.1064
   25MOL0     C 3199   5.696   9.718   9.341  0.4449  0.6755 -0.6961
   25MOL0     C 3200   5.730   9.821   9.420 -0.2902 -1.8382  1.4517
   25MOL0     C 3201   5.645   9.896   9.504 -0.5637 -1.2553  0.0127
   25MOL0     C 3202   5.508   9.856   9.508  0.2604 -0.4042  0.1170
   25MOL0     O 3203   5.412   9.934   9.562 -0.3151 -0.4898 -0.6914
   25MOL0     C 3204   5.316   9.868   9.646  1.1638 -0.0156  0.0028
   25MOL0     C 3205   5.237   9.960   9.731 -0.1145 -0.0860 -0.3734
   25MOL0     C 3206   5.153   9.884   9.831 -0.1807  0.8415  0.4129
   25MOL0     C 3207   5.061   9.978   9.910 -0.3158  0.2545  0.7273
   25MOL0     C 3208   4.931  10.025   9.828 -0.7650 -0.7387 -0.4549
   25MOL0     C 3209   4.839   9.907   9.790  0.4820 -0.6574 -0.2097
   25MOL0     C 3210   4.711   9.943   9.713  0.2752  0.1710  0.8289
   25MOL0     C 3211   4.610  10.021   9.799 -0.5471  0.1147  0.0168
   25MOL0    Cl 3212   4.511   9.914   9.907 -0.6171  0.3047 -0.3667
   25MOL0     C 3213   5.483   9.727   9.453  0.8296  0.1404 -1.0384
   25MOL0     C 3214   5.577   9.659   9.369  0.1965 -0.7410  0.1881
   25MOL0     O 3215   5.739   9.446   9.214 -1.0826  0.2493 -0.5158
   25MOL0     C 3216   6.023   9.650   9.087  0.3253  0.6800 -0.0702
   25MOL0     C 3217   6.134   9.624   9.005  0.6000  0.0116 -0.8142
   25MOL0     N 3218   6.671   9.519   8.563  0.4805 -0.1014  0.3865
   25MOL0     N 3219   6.778   9.594   8.560  0.1262 -0.0710 -0.5106
   25MOL0     C 3220   7.858   9.852   8.294  0.5520  0.7006  0.2951
   25MOL0     C 3221   7.990   9.829   8.339 -0.3309  0.4112  0.3747
   25MOL0     C 3222   8.412   9.844   8.423  0.9153 -0.0619  0.2335
   25MOL0     C 3223   8.415   9.865   8.563  0.5997  0.0351 -0.7139
   25MOL0     C 3224   8.535   9.847   8.632 -0.6430  0.0983  0.2239
   25MOL0     C 3225   8.651   9.809   8.564 -0.1988 -0.3207  1.1684
   25MOL0     O 3226   8.764   9.785   8.616 -0.5304  0.0187  0.3374
   25MOL0     C 3227   8.785   9.774   8.763  0.3142 -0.8265 -0.0158
   25MOL0     C 3228   8.879   9.890   8.806  1.2621  0.0838 -1.0567
   25MOL0     C 3229   9.031   9.862   8.802 -0.0476  0.8119 -0.3136
   25MOL0     C 3230   9.063   9.853   8.648  0.4141  0.1573  0.0667
   25MOL0     C 3231   9.205   9.848   8.616 -0.0830  0.4890 -0.0560
   25MOL0     C 3232   9.326   9.848   8.599 -0.4327 -0.0966 -0.5378
   25MOL0     C 3233   8.640   9.786   8.424  0.9156  0.3639  0.0650
   25MOL0     C 3234   8.527   9.811   8.349  0.1035  0.2961 -0.4940
   25MOL0     H 3235   8.053  10.155   8.400  0.9506 -1.6677  4.4081
   25MOL0     H 3236   7.809  10.180   8.313  0.9928  0.6287  1.0297
   25MOL0     H 3237   7.598  10.165   8.288 -0.2832 -0.6008  0.7063
   25MOL0     H 3238   7.589  10.046   8.426 -0.9890 -1.8352 -0.3913
   25MOL0     H 3239   7.414   9.930   8.285 -1.9544  0.4633  1.4731
   25MOL0     H 3240   7.418  10.063   8.174  0.9306  1.5023  0.9833
   25MOL0     H 3241   7.239  10.114   8.299 -0.3502  1.1549  0.3487
   25MOL0     H 3242   7.358  10.214   8.373  1.9148 -0.7692  0.9763
   25MOL0     H 3243   7.397  10.037   8.549  2.4415  0.1691 -2.6293
   25MOL0     H 3244   7.246  10.125   8.549  2.9702  1.6145 -0.6338
   25MOL0     H 3245   7.226   9.866   8.584  2.5923 -0.1814  0.4680
   25MOL0     H 3246   7.276   9.859   8.406  0.3657 -0.6179 -0.2588
   25MOL0     H 3247   7.055   9.967   8.360  2.4237  1.6441 -0.7955
   25MOL0     H 3248   7.031  10.004   8.533  0.3765  2.7462 -2.3132
   25MOL0     H 3249   6.989   9.751   8.369 -0.0293 -2.3810  0.9434
   25MOL0     H 3250   7.041   9.721   8.534 -1.5542  0.7651  0.8274
   25MOL0     H 3251   6.804   9.901   8.434 -2.4949 -0.0745  0.7582
   25MOL0     H 3252   6.832   9.871   8.603 -1.3392  0.5113  0.0699
   25MOL0     H 3253   6.535   9.798   8.482 -1.7241 -0.4971 -0.9963
   25MOL0     H 3254   6.464   9.439   8.404 -1.0192 -0.3287 -0.5055
   25MOL0     H 3255   6.395   9.594   8.374  2.4728  0.6378 -0.4769
   25MOL0     H 3256   6.245   9.506   8.523  0.3876 -4.0300  0.2688
   25MOL0     H 3257   6.341   9.616   8.622 -0.9587  1.8116 -3.4750
   25MOL0     H 3258   6.368   9.311   8.585 -1.4813 -0.4497  1.1800
   25MOL0     H 3259   6.472   9.410   8.697 -0.1688 -2.0800  1.2027
   25MOL0     H 3260   6.301   9.282   8.812 -1.3243  0.7712  1.0031
   25MOL0     H 3261   6.170   9.356   8.715  0.6613 -0.0193 -1.7934
   25MOL0     H 3262   6.069   9.295   8.929 -0.9081 -1.6875  2.7915
   25MOL0     H 3263   5.881   9.341   9.069  0.6956 -0.0662 -3.4842
   25MOL0     H 3264   5.830   9.860   9.405 -1.6647  3.3375  3.5417
   25MOL0     H 3265   5.677   9.986   9.555  2.0928 -2.3530  0.4169
   25MOL0     H 3266   5.350   9.794   9.720 -0.7395 -0.1775  0.7875
   25MOL0     H 3267   5.246   9.810   9.585 -0.3346  0.8461  0.8460
   25MOL0     H 3268   5.176  10.027   9.668 -1.1790  0.7536  1.4739
   25MOL0     H 3269   5.306  10.029   9.781  0.1020  0.8367 -1.8714
   25MOL0     H 3270   5.211   9.830   9.906  1.4350  0.3260 -1.1469
   25MOL0     H 3271   5.097   9.802   9.785 -0.8105  1.5014 -0.0139
   25MOL0     H 3272   5.034   9.926  10.002 -1.5904  3.0829  2.1015
   25MOL0     H 3273   5.116  10.070   9.934  2.0209 -0.8968  0.0232
   25MOL0     H 3274   4.960  10.086   9.742 -0.2318 -0.2385  0.0696
   25MOL0     H 3275   4.885  10.095   9.898  0.9369 -0.0439  0.0297
   25MOL0     H 3276   4.815   9.871   9.891  1.1868 -2.2360 -0.5849
   25MOL0     H 3277   4.895   9.834   9.731  0.2057 -0.3034 -0.9149
   25MOL0     H 3278   4.752  10.010   9.638 -0.0530  0.5982  1.0313
   25MOL0     H 3279   4.665   9.849   9.681  0.5056 -0.2840  1.7814
   25MOL0     H 3280   4.547  10.069   9.724 -0.6056 -1.4482 -0.9765
   25MOL0     H 3281   4.669  10.100   9.845 -2.6150  0.9843  1.3605
   25MOL0     H 3282   5.384   9.683   9.461 -0.2758  2.8037  2.0654
   25MOL0     H 3283   5.560   9.560   9.327 -0.2049 -0.9178  0.7592
   25MOL0     H 3284   6.023   9.746   9.138 -1.8439 -0.0772  1.4927
   25MOL0     H 3285   6.206   9.704   8.989 -1.2185  1.3440 -2.8350
   25MOL0     H 3286   7.785   9.774   8.279  0.4481  0.2962  2.4712
   25MOL0     H 3287   8.039   9.731   8.339  0.5103  0.8205  0.3537
   25MOL0     H 3288   8.331   9.885   8.629  0.6240 -0.6903 -0.4523
   25MOL0     H 3289   8.541   9.872   8.737  1.0977 -2.4555  0.8329
   25MOL0     H 3290   8.827   9.678   8.793 -1.4347 -1.0988  1.7786
   25MOL0     H 3291   8.688   9.785   8.813 -0.4577  5.1220 -1.9981
   25MOL0     H 3292   8.849   9.980   8.752  0.9743 -0.0084 -1.0550
   25MOL0     H 3293   8.854   9.895   8.913 -0.2553 -4.0407 -1.0257
   25MOL0     H 3294   9.055   9.774   8.863  1.4634  2.5832  1.8098
   25MOL0     H 3295   9.082   9.947   8.849  2.9371 -0.2561 -1.3986
   25MOL0     H 3296   9.019   9.764   8.603  0.7460  0.0429 -0.0349
   25MOL0     H 3297   9.013   9.940   8.604 -2.4951  0.3976  3.3721
   25MOL0     H 3298   9.432   9.858   8.589 -0.5752  1.7546 -0.5445
   25MOL0     H 3299   8.728   9.756   8.369 -0.9109 -1.1303 -2.2753
   25MOL0     H 3300   8.522   9.787   8.243 -0.0249 -0.5367 -0.3050
   26MOL0     O 3301   2.967   7.605   2.994 -0.2993  0.8211  0.3140
   26MOL0     C 3302   2.961   7.724   2.991  0.5776  0.9483  0.7603
   26MOL0     O 3303   2.855   7.791   3.036 -0.3718  0.6135  0.5234
   26MOL0     C 3304   2.751   7.709   3.081  0.5190 -0.8887  0.0136
   26MOL0     C 3305   2.658   7.659   2.995 -0.6374 -0.2533  0.0638
   26MOL0     C 3306   2.549   7.589   3.039 -0.6496  0.3211 -0.0611
   26MOL0     C 3307   2.538   7.550   3.176  0.2909  1.0051 -0.2220
   26MOL0     O 3308   2.429   7.474   3.229  0.1738 -0.2364  0.4750
   26MOL0     C 3309   2.331   7.422   3.140 -1.1082  0.3901 -0.8089
   26MOL0     C 3310   2.240   7.322   3.209  0.4148 -0.5159  0.6910
   26MOL0     C 3311   2.303   7.210   3.286  0.2960 -0.1212  0.0858
   26MOL0     C 3312   2.397   7.123   3.197 -0.2701  0.5338  0.7907
   26MOL0     C 3313   2.468   7.009   3.289 -0.2745  0.5139 -0.1903
   26MOL0     C 3314   2.542   7.063   3.404 -0.8923  0.1949  0.6027
   26MOL0     C 3315   2.650   7.160   3.358  0.6452  0.5315  0.5596
   26MOL0     C 3316   2.748   7.185   3.471 -0.1180  0.5059  0.6831
   26MOL0     N 3317   2.865   7.255   3.437  0.0402 -0.1563 -0.2729
   26MOL0     C 3318   2.912   7.319   3.321 -0.0507  0.6286 -0.3470
   26MOL0     C 3319   3.016   7.379   3.349 -0.7536  0.8501 -0.7573
   26MOL0     C 3320   3.094   7.461   3.253  0.1728  0.3326  0.4377
   26MOL0     C 3321   3.236   7.489   3.285  1.1105 -0.4005 -0.1189
   26MOL0     C 3322   3.312   7.584   3.186 -0.1513  0.7039 -0.1161
   26MOL0     C 3323   3.457   7.597   3.210  0.2320  0.1341 -0.1207
   26MOL0     O 3324   3.522   7.683   3.117  0.2616 -0.2087 -0.1852
   26MOL0     C 3325   3.654   7.718   3.129  0.0720 -0.8657  0.0011
   26MOL0     C 3326   3.730   7.721   3.246  0.6065 -0.3709 -0.6607
   26MOL0     C 3327   3.853   7.784   3.255 -0.3942  0.7935 -0.3020
   26MOL0     C 3328   3.915   7.827   3.138  0.6532  0.5756  0.2487
   26MOL0     C 3329   4.045   7.900   3.141 -0.2575 -0.0211  0.3160
   26MOL0     O 3330   4.088   7.964   3.027 -1.1745 -0.0088  0.2047
   26MOL0     C 3331   4.219   8.017   3.033  0.4942  0.6099  0.8081
   26MOL0     C 3332   4.312   7.964   2.944  0.1860  0.3436  0.1746
   26MOL0     C 3333   4.435   8.027   2.917  0.2075  0.8675  0.1402
   26MOL0     C 3334   4.472   8.141   3.001 -0.2365  1.0599 -0.4355
   26MOL0     O 3335   4.597   8.190   2.993 -0.2101 -0.6884  0.7447
   26MOL0     C 3336   4.639   8.229   2.857 -0.2283 -0.5065  0.6038
   26MOL0     C 3337   4.548   8.326   2.778 -0.2560 -0.3242  0.5047
   26MOL0     C 3338   4.539   8.473   2.844 -0.3646  1.5687 -1.3551
   26MOL0     C 3339   4.508   8.590   2.750 -0.6023 -0.3382 -0.5870
   26MOL0     C 3340   4.556   8.728   2.815 -0.1913 -0.5021 -0.4467
   26MOL0     C 3341   4.580   8.829   2.701  0.7662  0.1780  0.0445
   26MOL0     C 3342   4.694   8.781   2.604 -0.6417 -0.7534  0.1297
   26MOL0     C 3343   4.796   8.891   2.590 -0.0915 -0.4727  0.4126
   26MOL0    Cl 3344   4.900   8.843   2.451  0.1600 -0.1044  0.1091
   26MOL0     C 3345   4.379   8.191   3.090  0.3784 -0.1225  0.4477
   26MOL0     C 3346   4.254   8.129   3.101  0.8265  0.3360  0.7682
   26MOL0     O 3347   4.115   7.886   3.241 -0.0883  0.1854 -0.3662
   26MOL0     C 3348   3.843   7.819   3.017  0.2829 -0.5181  0.3228
   26MOL0     C 3349   3.710   7.776   3.017  1.0425  0.5240 -0.0388
   26MOL0     N 3350   3.041   7.361   3.488  0.5363  0.9121  0.2179
   26MOL0     N 3351   2.953   7.288   3.535  0.6750  0.8275 -0.3708
   26MOL0     C 3352   2.631   7.597   3.270 -0.6363 -0.1000  0.4376
   26MOL0     C 3353   2.727   7.685   3.220 -0.8201  0.1298  0.9269
   26MOL0     C 3354   3.071   7.812   2.926  1.0501 -0.0274 -0.0362
   26MOL0     C 3355   3.066   7.950   2.934  0.7240 -0.0559  0.0944
   26MOL0     C 3356   3.163   8.028   2.866 -0.0868  0.4568 -0.6730
   26MOL0     C 3357   3.279   7.960   2.812  0.5516 -0.3926  0.1178
   26MOL0     O 3358   3.388   8.022   2.755 -0.4138  0.1382  0.0649
   26MOL0     C 3359   3.387   8.164   2.728 -0.1706  0.1464  0.7809
   26MOL0     C 3360   3.517   8.205   2.650 -0.4608  0.5497 -0.4771
   26MOL0     C 3361   3.658   8.187   2.721  0.1926 -0.1848 -1.7305
   26MOL0     C 3362   3.650   8.227   2.866 -0.0074 -0.4060 -0.4402
   26MOL0     C 3363   3.783   8.234   2.934  0.5832 -0.2898 -0.0715
   26MOL0     C 3364   3.879   8.214   3.006  0.3165 -0.3572 -0.0379
   26MOL0     C 3365   3.275   7.825   2.800  0.7882 -0.5259  0.5705
   26MOL0     C 3366   3.164   7.749   2.847  0.7286  0.0369  0.1292
   26MOL0     H 3367   2.662   7.684   2.890  1.5039  2.9533  0.7521
   26MOL0     H 3368   2.474   7.569   2.963  0.9418  0.5819 -1.7472
   26MOL0     H 3369   2.370   7.366   3.054 -1.8452 -1.1866 -0.1634
   26MOL0     H 3370   2.271   7.505   3.103  0.9775  0.9901 -3.1104
   26MOL0     H 3371   2.167   7.276   3.142 -0.2849 -1.9516  2.3706
   26MOL0     H 3372   2.186   7.381   3.283 -3.1071  0.2858 -2.2099
   26MOL0     H 3373   2.229   7.145   3.334 -1.3012 -0.1780 -2.2669
   26MOL0     H 3374   2.362   7.255   3.366  3.8065 -1.0104 -1.7985
   26MOL0     H 3375   2.340   7.079   3.116  3.0962 -0.2108 -1.4003
   26MOL0     H 3376   2.479   7.176   3.146  1.4272 -1.9093  0.7728
   26MOL0     H 3377   2.536   6.936   3.243 -1.5140  0.6445 -2.3583
   26MOL0     H 3378   2.389   6.945   3.328  0.5670 -0.7862 -0.5232
   26MOL0     H 3379   2.587   6.983   3.463 -2.1926 -0.9321  0.1458
   26MOL0     H 3380   2.472   7.127   3.459  0.5242  2.8309 -0.4494
   26MOL0     H 3381   2.706   7.118   3.274 -0.2217  1.9302 -0.7638
   26MOL0     H 3382   2.607   7.256   3.328  1.7817  1.7104  2.4980
   26MOL0     H 3383   2.777   7.094   3.524 -1.7430  0.2076  1.1187
   26MOL0     H 3384   2.685   7.233   3.547 -1.0346 -1.8130  1.4922
   26MOL0     H 3385   2.874   7.318   3.219 -0.1124 -1.0667 -0.3356
   26MOL0     H 3386   3.036   7.553   3.235 -1.4512 -0.0747  2.9861
   26MOL0     H 3387   3.101   7.414   3.154  1.0750  2.1194 -0.3931
   26MOL0     H 3388   3.292   7.395   3.277  0.2560 -0.8142 -1.5124
   26MOL0     H 3389   3.240   7.534   3.385  2.7262  2.0477 -1.1677
   26MOL0     H 3390   3.289   7.547   3.085 -7.7237  1.2452  0.8134
   26MOL0     H 3391   3.251   7.675   3.193 -2.6383 -0.9390  1.1898
   26MOL0     H 3392   3.491   7.494   3.199  0.4905 -0.0879  2.2495
   26MOL0     H 3393   3.480   7.633   3.310  2.1745  1.4103 -0.9550
   26MOL0     H 3394   3.677   7.710   3.340 -0.7300  3.0450 -0.8774
   26MOL0     H 3395   3.915   7.787   3.345 -1.2454 -0.2870  0.3531
   26MOL0     H 3396   4.281   7.878   2.885 -0.4535  2.9489 -3.6462
   26MOL0     H 3397   4.500   7.989   2.839  0.9744 -2.2431  2.1161
   26MOL0     H 3398   4.671   8.139   2.803  1.6786 -0.6404  1.8654
   26MOL0     H 3399   4.732   8.282   2.879 -1.3209  1.1267  1.4546
   26MOL0     H 3400   4.457   8.274   2.747  1.1219 -2.2099 -0.6185
   26MOL0     H 3401   4.599   8.350   2.685 -0.5933  4.6641  1.3311
   26MOL0     H 3402   4.628   8.485   2.906  0.3108 -0.9354 -1.7501
   26MOL0     H 3403   4.464   8.458   2.921 -1.7835  2.4172 -2.5019
   26MOL0     H 3404   4.548   8.571   2.650 -0.8133  1.2778 -1.0005
   26MOL0     H 3405   4.400   8.601   2.736 -1.1040 -3.8622 -0.4272
   26MOL0     H 3406   4.650   8.718   2.871  0.6157 -0.5227 -1.7498
   26MOL0     H 3407   4.474   8.763   2.878  0.5511 -1.0119  0.8364
   26MOL0     H 3408   4.593   8.931   2.739  0.5426  0.2199  0.0120
   26MOL0     H 3409   4.495   8.832   2.632  2.3311  1.5024 -1.9160
   26MOL0     H 3410   4.749   8.697   2.648  1.0046 -0.1459 -0.6558
   26MOL0     H 3411   4.655   8.750   2.507  1.6204 -0.8810 -0.8200
   26MOL0     H 3412   4.855   8.911   2.680  0.3615  2.0209 -0.3404
   26MOL0     H 3413   4.727   8.970   2.557 -1.5921 -1.5720  0.8153
   26MOL0     H 3414   4.411   8.274   3.152 -1.1406  0.3927  0.5845
   26MOL0     H 3415   4.172   8.163   3.163  0.1510 -0.0655  0.1090
   26MOL0     H 3416   3.887   7.849   2.923 -2.5613 -0.4890 -1.1097
   26MOL0     H 3417   3.649   7.780   2.927 -1.3218  0.8636  1.5060
   26MOL0     H 3418   2.627   7.557   3.371 -2.1301 -1.8223 -0.2463
   26MOL0     H 3419   2.801   7.731   3.284 -0.9477  1.9155 -0.1476
   26MOL0     H 3420   2.987   8.008   2.980  0.3035 -0.3139 -0.2885
   26MOL0     H 3421   3.158   8.136   2.863 -3.9580  0.4224 -0.2501
   26MOL0     H 3422   3.387   8.218   2.823  0.8193 -0.7395  1.3167
   26MOL0     H 3423   3.307   8.196   2.661 -0.5080 -0.3510  0.9413
   26MOL0     H 3424   3.522   8.147   2.556  0.2771  0.9236 -0.6802
   26MOL0     H 3425   3.523   8.312   2.632  0.0799  0.5234 -0.4662
   26MOL0     H 3426   3.734   8.244   2.667 -0.5535  1.8552 -0.7203
   26MOL0     H 3427   3.676   8.079   2.729  0.0014 -0.1081  0.3473
   26MOL0     H 3428   3.594   8.321   2.861 -1.7779 -1.4277 -5.4886
   26MOL0     H 3429   3.589   8.150   2.913 -1.1256  0.7119  0.0108
   26MOL0     H 3430   3.973   8.207   3.058  0.1347 -0.4424  0.2786
   26MOL0     H 3431   3.360   7.780   2.750  0.4347  0.0367 -0.5623
   26MOL0     H 3432   3.176   7.643   2.826 -1.5465 -0.5350  1.4301
   27MOL0     O 3433   1.000  11.094   9.582 -0.6304  0.0601  0.7313
   27MOL0     C 3434   1.016  11.209   9.628  0.5834 -0.5052  0.2854
   27MOL0     O 3435   0.926  11.283   9.705  0.6019 -0.0318 -0.0446
   27MOL0     C 3436   0.812  11.219   9.740  0.0162  0.1318 -0.5541
   27MOL0     C 3437   0.689  11.276   9.719 -0.1500 -0.1872  0.0077
   27MOL0     C 3438   0.572  11.203   9.739  0.0107  0.6793 -0.1198
   27MOL0     C 3439   0.580  11.069   9.778 -0.2244  0.3757 -0.2276
   27MOL0     O 3440   0.468  10.990   9.771  0.2839 -0.0764 -0.0610
   27MOL0     C 3441   0.485  10.849   9.741  0.5099 -0.0724  0.4811
   27MOL0     C 3442   0.346  10.784   9.714  0.1256 -0.5846  0.2890
   27MOL0     C 3443   0.344  10.660   9.628  1.1042 -0.0193 -0.6880
   27MOL0     C 3444   0.201  10.596   9.656 -0.0651  0.0719 -0.0245
   27MOL0     C 3445   0.156  10.493   9.553  0.5974  0.6508  0.1525
   27MOL0     C 3446   0.022  10.513   9.471 -0.0498  0.7462 -0.2255
   27MOL0     C 3447  -0.101  10.523   9.554 -0.1731  0.5311 -0.5085
   27MOL0     C 3448  -0.219  10.451   9.488  0.2258 -0.2089  0.5153
   27MOL0     N 3449  -0.206  10.310   9.452  0.2966  0.2083 -0.3426
   27MOL0     C 3450  -0.249  10.207   9.533  0.4070 -0.1190 -0.2539
   27MOL0     C 3451  -0.257  10.098   9.445 -0.4964 -0.6655  0.6259
   27MOL0     C 3452  -0.309   9.963   9.478 -0.1724 -0.9803 -0.1392
   27MOL0     C 3453  -0.213   9.904   9.581 -0.8375 -0.0578 -0.6220
   27MOL0     C 3454  -0.084   9.850   9.529 -0.2196 -0.1605  0.6079
   27MOL0     C 3455   0.027   9.950   9.483  0.3906  0.1021  0.4013
   27MOL0     O 3456   0.143   9.949   9.568  0.0838  0.3176  0.1650
   27MOL0     C 3457   0.253  10.023   9.528  0.7270 -0.5052 -0.7346
   27MOL0     C 3458   0.369  10.005   9.601 -0.3666  0.2892  0.5935
   27MOL0     C 3459   0.480  10.083   9.557  0.3222  0.2622  0.1245
   27MOL0     C 3460   0.480  10.173   9.447  0.0295 -0.3140  0.4464
   27MOL0     C 3461   0.614  10.219   9.391 -0.4755 -0.0932 -0.0711
   27MOL0     O 3462   0.720  10.149   9.434  0.1118  0.1762  0.0071
   27MOL0     C 3463   0.845  10.202   9.425 -0.8173  1.0286  0.0628
   27MOL0     C 3464   0.956  10.112   9.393  0.6935  0.2340 -0.0308
   27MOL0     C 3465   1.089  10.156   9.413  0.0787  0.4247 -0.3951
   27MOL0     C 3466   1.114  10.286   9.453  0.2713  0.0488  1.4708
   27MOL0     O 3467   1.246  10.315   9.466 -1.1854 -0.1215 -0.3398
   27MOL0     C 3468   1.283  10.393   9.581  0.2923  0.2615 -0.2601
   27MOL0     C 3469   1.437  10.375   9.603  0.3390 -0.8447 -0.0243
   27MOL0     C 3470   1.489  10.229   9.629 -0.3433  0.0529 -0.0232
   27MOL0     C 3471   1.635  10.225   9.592 -0.0480  0.2585  0.0084
   27MOL0     C 3472   1.671  10.075   9.597 -0.0251  0.2896  0.1069
   27MOL0     C 3473   1.826  10.053   9.598 -0.4566  0.8079  0.2008
   27MOL0     C 3474   1.899  10.078   9.731  0.7995 -0.0083 -0.0465
   27MOL0     C 3475   1.907   9.950   9.830  0.1812 -1.0761 -0.3499
   27MOL0    Cl 3476   1.985   9.809   9.761  0.0554  0.3912 -0.0735
   27MOL0     C 3477   1.011  10.375   9.460 -0.9994  0.0682 -0.7133
   27MOL0     C 3478   0.875  10.338   9.450 -0.1599  0.5129 -0.0063
   27MOL0     O 3479   0.618  10.321   9.320  0.0821 -0.2407  0.2568
   27MOL0     C 3480   0.362  10.171   9.373  0.5358 -0.4659  0.1062
   27MOL0     C 3481   0.252  10.103   9.418 -0.0343  0.9335 -0.6633
   27MOL0     N 3482  -0.224  10.140   9.324 -0.1783 -0.6129 -0.0117
   27MOL0     N 3483  -0.190  10.268   9.321 -0.6477  0.4739 -0.2366
   27MOL0     C 3484   0.698  11.021   9.829  0.4513 -1.0729  0.1602
   27MOL0     C 3485   0.811  11.092   9.809 -0.9437 -0.2860 -0.5280
   27MOL0     C 3486   1.145  11.274   9.606  0.3767  0.2127  0.8376
   27MOL0     C 3487   1.237  11.223   9.514 -1.1609 -0.2113 -1.0993
   27MOL0     C 3488   1.355  11.289   9.477  0.6823  0.0465 -0.0279
   27MOL0     C 3489   1.390  11.407   9.541 -0.3741 -0.5066 -0.4308
   27MOL0     O 3490   1.518  11.454   9.493 -0.3666 -0.0809  0.0159
   27MOL0     C 3491   1.574  11.572   9.544  0.0829  0.0914 -0.5289
   27MOL0     C 3492   1.523  11.711   9.478  0.8088 -0.2523 -0.5511
   27MOL0     C 3493   1.603  11.831   9.529  0.3586  1.0663 -0.1603
   27MOL0     C 3494   1.578  11.867   9.677 -0.0344  0.5126  0.0584
   27MOL0     C 3495   1.667  11.969   9.722  0.0259  0.4428  0.5881
   27MOL0     C 3496   1.755  12.049   9.752 -0.5238  0.5012  0.1017
   27MOL0     C 3497   1.297  11.464   9.630 -0.0719 -0.2280  0.6821
   27MOL0     C 3498   1.181  11.402   9.657  0.5090  0.1263  0.7830
   27MOL0     H 3499   0.689  11.380   9.686  1.6547 -0.5759 -1.3591
   27MOL0     H 3500   0.478  11.254   9.719  0.3718  0.7087 -1.9491
   27MOL0     H 3501   0.535  10.796   9.822  1.3745  0.4358  0.3077
   27MOL0     H 3502   0.550  10.851   9.652 -1.5566 -1.6125 -1.1818
   27MOL0     H 3503   0.287  10.866   9.672 -1.3230 -1.3666  0.7367
   27MOL0     H 3504   0.301  10.750   9.808 -1.0944 -2.9328 -1.0717
   27MOL0     H 3505   0.419  10.593   9.672  1.4391  0.7080 -0.1160
   27MOL0     H 3506   0.371  10.687   9.525  0.9312  1.7776 -0.2961
   27MOL0     H 3507   0.193  10.560   9.759 -0.9500 -0.1745 -0.1746
   27MOL0     H 3508   0.120  10.669   9.652 -2.4285 -2.3253  1.1544
   27MOL0     H 3509   0.148  10.397   9.604 -0.8905 -0.6267 -2.2607
   27MOL0     H 3510   0.242  10.477   9.486  0.1629 -0.8013 -0.0975
   27MOL0     H 3511   0.020  10.422   9.410  1.7095  0.8835 -0.5624
   27MOL0     H 3512   0.027  10.598   9.402  0.1969  0.1690 -0.9313
   27MOL0     H 3513  -0.082  10.486   9.655 -0.2214 -0.7519 -0.9493
   27MOL0     H 3514  -0.127  10.629   9.563  0.0158  0.5195  0.1569
   27MOL0     H 3515  -0.232  10.506   9.395  1.7155  1.9658  1.4850
   27MOL0     H 3516  -0.306  10.462   9.554  0.4312  0.2475  0.7222
   27MOL0     H 3517  -0.286  10.222   9.635  0.7258  3.0157 -0.5038
   27MOL0     H 3518  -0.314   9.899   9.390 -1.2281 -0.7489 -0.2607
   27MOL0     H 3519  -0.408   9.973   9.524  0.3078 -1.1760  0.9569
   27MOL0     H 3520  -0.253   9.816   9.633  0.6283 -1.1240 -1.1853
   27MOL0     H 3521  -0.185   9.971   9.662 -1.2541  0.2546 -0.7376
   27MOL0     H 3522  -0.032   9.796   9.608  0.8963 -0.0137 -0.0021
   27MOL0     H 3523  -0.100   9.785   9.443  0.3268  2.2030 -1.4056
   27MOL0     H 3524  -0.011  10.052   9.491  2.3156  0.7847  1.9087
   27MOL0     H 3525   0.049   9.927   9.379 -3.0560  2.6118 -1.0782
   27MOL0     H 3526   0.375   9.941   9.688 -3.5119 -1.6003 -0.4017
   27MOL0     H 3527   0.571  10.060   9.612  0.7683 -0.1407 -0.7673
   27MOL0     H 3528   0.934  10.008   9.371  0.8629  0.0407  0.6999
   27MOL0     H 3529   1.157  10.075   9.386 -0.9153  0.1068 -2.1295
   27MOL0     H 3530   1.237  10.350   9.670 -1.7875 -0.6797 -1.6821
   27MOL0     H 3531   1.247  10.497   9.576 -1.1632 -0.0968  1.6885
   27MOL0     H 3532   1.477  10.440   9.682 -1.4523  1.2797 -0.7814
   27MOL0     H 3533   1.482  10.425   9.517 -0.0859  2.8571  1.7047
   27MOL0     H 3534   1.431  10.165   9.562  0.8002 -1.1974  0.1590
   27MOL0     H 3535   1.488  10.197   9.733  4.9745 -1.0732 -0.0832
   27MOL0     H 3536   1.642  10.273   9.494 -1.6853  0.8267  0.1285
   27MOL0     H 3537   1.687  10.282   9.670  1.0477  2.5303 -2.2416
   27MOL0     H 3538   1.644  10.026   9.502  1.2326  2.0325 -1.2136
   27MOL0     H 3539   1.633  10.025   9.686  2.1832 -1.8700 -0.0585
   27MOL0     H 3540   1.883  10.106   9.520 -0.3432  0.7187  0.2224
   27MOL0     H 3541   1.839   9.949   9.569  0.7330  1.4248 -1.6676
   27MOL0     H 3542   2.004  10.108   9.719  1.3501 -0.0505  3.6488
   27MOL0     H 3543   1.847  10.163   9.776 -1.7136 -0.0097 -2.6651
   27MOL0     H 3544   1.807   9.910   9.848  0.0055 -0.9546 -1.0142
   27MOL0     H 3545   1.957   9.973   9.924 -0.1483 -1.8105  0.0089
   27MOL0     H 3546   1.036  10.476   9.489  0.3352 -0.3150 -0.4782
   27MOL0     H 3547   0.800  10.415   9.468 -1.7075 -0.8304 -0.4701
   27MOL0     H 3548   0.350  10.225   9.280 -1.3676  1.8658  1.5814
   27MOL0     H 3549   0.162  10.112   9.357 -0.5385  1.4141  0.1347
   27MOL0     H 3550   0.707  10.922   9.872  0.1959 -1.2457 -0.1849
   27MOL0     H 3551   0.910  11.054   9.834 -0.6246  0.3882 -0.7217
   27MOL0     H 3552   1.209  11.128   9.469 -0.9814 -0.2154 -1.2061
   27MOL0     H 3553   1.420  11.239   9.406  0.9152 -1.5941  1.2914
   27MOL0     H 3554   1.677  11.589   9.511 -0.8589 -0.5989 -4.1580
   27MOL0     H 3555   1.575  11.570   9.654 -0.4293  0.4888 -0.5145
   27MOL0     H 3556   1.554  11.700   9.373 -0.7629 -2.0211 -0.8988
   27MOL0     H 3557   1.415  11.724   9.470  0.6972 -0.7006  0.1665
   27MOL0     H 3558   1.590  11.915   9.461 -1.2272  2.4836  1.7705
   27MOL0     H 3559   1.709  11.804   9.521  0.5146  2.0736 -1.7965
   27MOL0     H 3560   1.472  11.888   9.692 -0.1257 -0.4093  0.7954
   27MOL0     H 3561   1.614  11.783   9.737  0.8204  1.3860  0.7960
   27MOL0     H 3562   1.832  12.123   9.767 -0.8829  0.5438  2.0257
   27MOL0     H 3563   1.330  11.560   9.669  0.4557  0.8277 -2.1891
   27MOL0     H 3564   1.109  11.442   9.728 -0.9537  1.8335 -1.5100
   28MOL0     O 3565   4.361   1.719   9.444 -0.1819 -0.0895 -0.8432
   28MOL0     C 3566   4.355   1.655   9.339  0.0637 -1.0973 -0.1240
   28MOL0     O 3567   4.237   1.621   9.280 -1.0846  0.5367  0.4765
   28MOL0     C 3568   4.112   1.644   9.340 -0.5283 -0.0401 -0.7147
   28MOL0     C 3569   4.001   1.686   9.260  0.0654  0.5519 -0.5254
   28MOL0     C 3570   3.883   1.705   9.317 -0.6923  0.1075  0.7461
   28MOL0     C 3571   3.856   1.678   9.449 -0.2616  0.6419 -0.7228
   28MOL0     O 3572   3.742   1.717   9.507  0.5272 -0.4297  0.1335
   28MOL0     C 3573   3.651   1.607   9.536 -0.1100 -0.4250  0.5457
   28MOL0     C 3574   3.514   1.670   9.534  0.6759  0.2838  0.1677
   28MOL0     C 3575   3.483   1.729   9.389 -0.6838  0.3827  0.7982
   28MOL0     C 3576   3.357   1.811   9.367 -1.0689 -0.4783 -1.0604
   28MOL0     C 3577   3.342   1.854   9.216 -0.0291  0.1949 -0.3921
   28MOL0     C 3578   3.211   1.914   9.171 -0.2844 -0.5305 -0.1864
   28MOL0     C 3579   3.190   1.913   9.024 -1.3532 -0.6313 -0.5372
   28MOL0     C 3580   3.058   1.987   8.994  0.6948  0.3957  1.1649
   28MOL0     N 3581   2.935   1.904   9.037  0.4829  0.1326  0.3964
   28MOL0     C 3582   2.901   1.790   8.974  0.1589 -0.2785 -0.2930
   28MOL0     C 3583   2.809   1.725   9.055 -0.4516 -0.2595  0.4192
   28MOL0     C 3584   2.757   1.582   9.040 -0.1341  0.1604 -0.0228
   28MOL0     C 3585   2.613   1.599   9.002  0.4416  0.9569  0.7840
   28MOL0     C 3586   2.549   1.458   8.983  0.6712 -0.1959 -0.0594
   28MOL0     C 3587   2.393   1.469   8.999  0.4648 -0.4683 -0.3321
   28MOL0     O 3588   2.319   1.344   8.983 -0.8360 -0.1048 -0.2638
   28MOL0     C 3589   2.223   1.305   9.075  0.7511 -0.0270  0.2620
   28MOL0     C 3590   2.158   1.384   9.174  0.4357  0.9847 -1.0445
   28MOL0     C 3591   2.045   1.336   9.241  0.2630  0.1502  0.3837
   28MOL0     C 3592   1.995   1.208   9.221  0.3964 -0.0205 -0.0264
   28MOL0     C 3593   1.869   1.159   9.285 -0.2503 -0.4609 -0.7020
   28MOL0     O 3594   1.787   1.258   9.337 -0.4098 -0.1080  0.6298
   28MOL0     C 3595   1.675   1.216   9.391  0.1757 -0.0252  0.4606
   28MOL0     C 3596   1.664   1.144   9.510  0.2222 -0.0172  0.2134
   28MOL0     C 3597   1.546   1.106   9.564  1.0900  0.4089  0.2120
   28MOL0     C 3598   1.425   1.140   9.492  0.8230 -0.0078 -0.3058
   28MOL0     O 3599   1.298   1.124   9.540 -0.5287 -0.1896  0.1124
   28MOL0     C 3600   1.277   1.044   9.655  0.0796  0.5404  0.1118
   28MOL0     C 3601   1.304   0.897   9.620  0.3789 -0.2290 -0.8759
   28MOL0     C 3602   1.177   0.814   9.610  0.5952  0.3265 -0.5064
   28MOL0     C 3603   1.178   0.660   9.580  0.4006 -0.3359 -0.3905
   28MOL0     C 3604   1.046   0.588   9.607  0.3795 -0.3068 -0.0173
   28MOL0     C 3605   1.051   0.446   9.546 -0.4583 -2.0208 -1.1579
   28MOL0     C 3606   0.905   0.382   9.541  0.7180 -0.4726 -0.2072
   28MOL0     C 3607   0.904   0.266   9.438 -0.2517  0.4325  1.1524
   28MOL0    Cl 3608   0.740   0.181   9.448 -0.0602 -0.1521  0.1127
   28MOL0     C 3609   1.434   1.223   9.378 -0.2354 -0.2739 -0.6854
   28MOL0     C 3610   1.561   1.251   9.324  0.1937  0.0025  0.0190
   28MOL0     O 3611   1.846   1.038   9.309  0.3262  0.1832 -0.1681
   28MOL0     C 3612   2.052   1.125   9.121 -0.3349  0.2711  0.0399
   28MOL0     C 3613   2.162   1.181   9.049  0.7895 -0.6293 -0.4132
   28MOL0     N 3614   2.778   1.815   9.165  0.6221 -0.2047  0.3325
   28MOL0     N 3615   2.873   1.906   9.153 -0.7020  0.0444 -0.4304
   28MOL0     C 3616   3.966   1.625   9.528 -0.1899  1.2911  0.3439
   28MOL0     C 3617   4.088   1.609   9.470 -0.9680  0.7239 -0.0217
   28MOL0     C 3618   4.490   1.626   9.277 -0.1882 -0.1755  0.2027
   28MOL0     C 3619   4.502   1.538   9.170  0.0459 -0.6489 -0.5503
   28MOL0     C 3620   4.630   1.523   9.111  0.2026 -0.0664 -1.0540
   28MOL0     C 3621   4.749   1.574   9.168 -0.2370 -0.4701 -0.2284
   28MOL0     O 3622   4.879   1.560   9.113  0.2471 -0.4296 -1.0088
   28MOL0     C 3623   4.902   1.472   9.019  0.6343  0.5011 -0.0614
   28MOL0     C 3624   5.052   1.432   9.028  0.1786 -0.5210  0.0139
   28MOL0     C 3625   5.141   1.537   8.951  0.1623  0.1506 -1.0350
   28MOL0     C 3626   5.124   1.518   8.796 -0.6772  0.4680  0.0150
   28MOL0     C 3627   5.204   1.603   8.717 -0.1295 -0.0795 -0.0735
   28MOL0     C 3628   5.255   1.685   8.644  0.2885  0.4127  0.9086
   28MOL0     C 3629   4.732   1.653   9.282  0.0718  1.1194  0.2633
   28MOL0     C 3630   4.607   1.678   9.337 -1.3618  0.4800  0.7205
   28MOL0     H 3631   4.027   1.709   9.158 -0.1653 -2.1765 -1.2776
   28MOL0     H 3632   3.812   1.755   9.252  0.0306 -0.3280 -0.4056
   28MOL0     H 3633   3.677   1.554   9.628  0.9218 -1.8563 -0.5165
   28MOL0     H 3634   3.652   1.531   9.457 -1.4820  0.2298 -0.1355
   28MOL0     H 3635   3.514   1.751   9.608 -0.5195 -1.5345  2.2710
   28MOL0     H 3636   3.436   1.597   9.555  1.7168 -0.0981  3.3051
   28MOL0     H 3637   3.468   1.645   9.321 -4.0012 -0.7519  2.7152
   28MOL0     H 3638   3.561   1.792   9.346 -1.5381  0.2510 -1.0400
   28MOL0     H 3639   3.273   1.747   9.398  0.5964 -1.4911  1.8181
   28MOL0     H 3640   3.348   1.897   9.435 -1.5325 -1.1866 -0.1964
   28MOL0     H 3641   3.363   1.769   9.151  0.6553  1.4705 -1.9139
   28MOL0     H 3642   3.427   1.919   9.194  0.9264 -1.2651 -1.1503
   28MOL0     H 3643   3.199   2.015   9.211  2.2298 -0.9365  1.8328
   28MOL0     H 3644   3.135   1.851   9.218  2.7571 -1.1179  4.6636
   28MOL0     H 3645   3.278   1.966   8.986 -1.6102 -0.5454 -1.0224
   28MOL0     H 3646   3.175   1.818   8.972  2.3243 -0.2362 -2.6807
   28MOL0     H 3647   3.055   1.991   8.884  5.1450  0.2192  0.8545
   28MOL0     H 3648   3.057   2.089   9.032 -0.1324  0.4842  0.9207
   28MOL0     H 3649   2.942   1.740   8.887  0.8633  0.3626 -0.3376
   28MOL0     H 3650   2.762   1.524   9.133 -2.1112 -2.5934 -1.4740
   28MOL0     H 3651   2.805   1.518   8.965 -2.0198 -0.3788 -0.8350
   28MOL0     H 3652   2.602   1.653   8.908 -4.5457 -1.0970 -0.1027
   28MOL0     H 3653   2.561   1.653   9.082 -1.1676 -1.0036  1.1272
   28MOL0     H 3654   2.572   1.411   8.887  0.2286  0.7930 -0.6722
   28MOL0     H 3655   2.591   1.391   9.058 -1.3591 -0.3253  1.0484
   28MOL0     H 3656   2.372   1.521   8.905  0.7547 -3.2738 -2.0615
   28MOL0     H 3657   2.366   1.529   9.086  1.1769  0.2443 -0.5871
   28MOL0     H 3658   2.172   1.490   9.192 -0.5434  1.0960 -0.9005
   28MOL0     H 3659   2.003   1.402   9.316  0.0645 -1.9636  2.2438
   28MOL0     H 3660   1.752   1.113   9.564  0.9176  0.2424 -0.7471
   28MOL0     H 3661   1.540   1.054   9.659 -0.7156  1.8328  0.9366
   28MOL0     H 3662   1.172   1.060   9.678 -0.2489  0.0143 -0.9500
   28MOL0     H 3663   1.343   1.083   9.733 -0.9315  0.6982  0.9012
   28MOL0     H 3664   1.366   0.848   9.697  0.4516 -2.1809 -2.0920
   28MOL0     H 3665   1.352   0.889   9.522  2.4429  0.9055 -0.0283
   28MOL0     H 3666   1.109   0.854   9.533 -1.0777  1.2458  1.3652
   28MOL0     H 3667   1.132   0.825   9.709  2.3491  2.4177  0.1390
   28MOL0     H 3668   1.208   0.650   9.475  1.2168  0.6245 -0.2667
   28MOL0     H 3669   1.267   0.617   9.628  0.1035  1.8229  2.3629
   28MOL0     H 3670   0.963   0.647   9.566  0.4057 -1.9222 -2.6629
   28MOL0     H 3671   1.026   0.567   9.712  0.2672 -1.2150 -0.2060
   28MOL0     H 3672   1.120   0.380   9.599  0.7651  1.6115  2.2980
   28MOL0     H 3673   1.086   0.472   9.446 -1.4569  1.3276 -0.7538
   28MOL0     H 3674   0.881   0.344   9.641 -2.4138  2.7988  0.4806
   28MOL0     H 3675   0.824   0.451   9.517 -1.0170 -1.8898  1.3149
   28MOL0     H 3676   0.986   0.195   9.456  0.4130 -0.3267 -3.5857
   28MOL0     H 3677   0.931   0.301   9.338 -0.7475  0.8704  1.1714
   28MOL0     H 3678   1.339   1.243   9.329 -0.8122  3.7270  1.6213
   28MOL0     H 3679   1.567   1.295   9.225 -2.4064  0.2183 -0.1146
   28MOL0     H 3680   2.026   1.024   9.093 -2.1206  1.1973 -1.9021
   28MOL0     H 3681   2.211   1.125   8.969 -0.8768 -3.2151  0.2579
   28MOL0     H 3682   3.959   1.610   9.636  1.0151 -3.6265 -0.0302
   28MOL0     H 3683   4.163   1.560   9.531 -1.3545  2.2629  1.7903
   28MOL0     H 3684   4.409   1.499   9.131 -0.4937 -1.4959  1.4488
   28MOL0     H 3685   4.637   1.476   9.013 -0.4771 -1.6467 -0.3630
   28MOL0     H 3686   4.868   1.516   8.925 -2.4299 -1.5803 -0.0854
   28MOL0     H 3687   4.848   1.378   9.033 -1.8607  1.8519 -0.0595
   28MOL0     H 3688   5.076   1.434   9.134 -1.0777 -0.4375  0.3128
   28MOL0     H 3689   5.060   1.328   8.994  3.0611  0.4180 -2.5676
   28MOL0     H 3690   5.245   1.524   8.982  0.4561  0.2638 -1.9537
   28MOL0     H 3691   5.106   1.638   8.976  0.7630  0.3288 -0.9048
   28MOL0     H 3692   5.155   1.417   8.768  0.9096  1.2182 -1.1290
   28MOL0     H 3693   5.025   1.535   8.755  0.1677 -0.4723 -2.5895
   28MOL0     H 3694   5.278   1.771   8.584 -0.4714 -0.1415 -0.2125
   28MOL0     H 3695   4.825   1.699   9.315 -1.1206  2.2663  2.1708
   28MOL0     H 3696   4.599   1.752   9.416  1.5379  0.4638  1.1354
   29MOL0     O 3697   0.943   3.754   3.347  0.1183 -0.3869  0.0448
   29MOL0     C 3698   0.991   3.736   3.457 -0.3808 -0.7763 -0.3678
   29MOL0     O 3699   0.917   3.726   3.571  0.4111  0.9907  0.1781
   29MOL0     C 3700   0.780   3.752   3.591 -0.1964 -0.1002  1.2429
   29MOL0     C 3701   0.713   3.714   3.704 -0.3207  0.0500 -0.5561
   29MOL0     C 3702   0.575   3.735   3.725  0.6041  0.5826  0.0399
   29MOL0     C 3703   0.505   3.803   3.638  1.1370 -0.1209  0.2119
   29MOL0     O 3704   0.376   3.829   3.685 -0.1008  0.3185  0.0682
   29MOL0     C 3705   0.284   3.869   3.584 -0.2022 -0.5962 -0.4270
   29MOL0     C 3706   0.144   3.869   3.628  0.4131  1.1339 -0.0249
   29MOL0     C 3707   0.097   3.722   3.664 -0.1982 -0.5316 -0.2354
   29MOL0     C 3708  -0.050   3.701   3.689  0.6090 -0.2902 -0.8304
   29MOL0     C 3709  -0.094   3.555   3.694  0.2146 -0.1105 -0.0706
   29MOL0     C 3710  -0.230   3.544   3.768  0.0892 -0.1860  0.1158
   29MOL0     C 3711  -0.321   3.643   3.700 -0.5215  0.2977  0.2804
   29MOL0     C 3712  -0.462   3.590   3.726 -0.6524  0.3703 -0.4617
   29MOL0     N 3713  -0.576   3.678   3.674  0.1128  0.1722 -0.2308
   29MOL0     C 3714  -0.589   3.810   3.680 -0.2276  0.5303  0.9023
   29MOL0     C 3715  -0.700   3.847   3.610  0.9046 -0.1804 -0.2847
   29MOL0     C 3716  -0.759   3.976   3.581  0.3816 -0.1273 -0.6154
   29MOL0     C 3717  -0.818   4.052   3.703  0.2580 -0.5726 -0.5995
   29MOL0     C 3718  -0.912   3.956   3.771 -0.8024 -0.5669  0.2047
   29MOL0     C 3719  -1.027   3.908   3.686  0.2758 -0.8683 -0.2882
   29MOL0     O 3720  -1.098   4.018   3.616  0.4376 -0.4600 -1.0402
   29MOL0     C 3721  -1.212   3.995   3.547  0.0835  0.2733 -0.3919
   29MOL0     C 3722  -1.272   3.869   3.508 -0.2464 -0.1827 -0.0821
   29MOL0     C 3723  -1.392   3.863   3.430  0.1733 -0.1781  0.6616
   29MOL0     C 3724  -1.459   3.978   3.389  0.9106 -0.2124 -0.7487
   29MOL0     C 3725  -1.580   3.984   3.303  0.4343 -0.0715  0.1766
   29MOL0     O 3726  -1.577   4.063   3.189  0.1299  0.8886 -1.1858
   29MOL0     C 3727  -1.692   4.074   3.114 -0.3854 -0.1745 -0.3962
   29MOL0     C 3728  -1.828   4.075   3.156 -0.1681  0.3196 -0.4870
   29MOL0     C 3729  -1.931   4.092   3.059  0.6765 -0.1533  0.4517
   29MOL0     C 3730  -1.898   4.091   2.922 -0.5801  0.9383  0.4918
   29MOL0     O 3731  -1.987   4.113   2.814 -0.8996 -0.2734  0.1291
   29MOL0     C 3732  -2.118   4.172   2.844 -0.7107 -0.5906 -0.3509
   29MOL0     C 3733  -2.176   4.237   2.720  0.4278 -0.2115  1.1472
   29MOL0     C 3734  -2.087   4.345   2.654  0.6486  0.6911 -0.6761
   29MOL0     C 3735  -2.139   4.379   2.515 -0.2255  0.4165  0.1002
   29MOL0     C 3736  -2.292   4.406   2.494 -0.4204  0.6005 -0.2276
   29MOL0     C 3737  -2.331   4.537   2.558  0.2318  0.4356 -0.2729
   29MOL0     C 3738  -2.469   4.591   2.512 -0.2740 -1.1468 -0.3441
   29MOL0     C 3739  -2.474   4.744   2.542 -0.3010 -0.9419  0.4789
   29MOL0    Cl 3740  -2.643   4.808   2.540  0.0654  0.0396  0.6341
   29MOL0     C 3741  -1.769   4.082   2.880  0.0791 -0.0774 -0.2028
   29MOL0     C 3742  -1.670   4.082   2.978 -0.4609 -0.0239  0.7646
   29MOL0     O 3743  -1.675   3.928   3.343  0.4602  0.6296  0.3496
   29MOL0     C 3744  -1.409   4.100   3.430  0.0828 -0.0060 -0.1590
   29MOL0     C 3745  -1.285   4.104   3.504  0.2738 -0.6122  0.2823
   29MOL0     N 3746  -0.749   3.729   3.567 -0.0669 -0.0051  0.1263
   29MOL0     N 3747  -0.669   3.632   3.595  0.6606  0.5927 -0.1030
   29MOL0     C 3748   0.570   3.864   3.531  1.2119 -0.2409  0.1117
   29MOL0     C 3749   0.703   3.828   3.505 -0.4337 -0.2792 -1.2327
   29MOL0     C 3750   1.135   3.726   3.468  1.7485  0.8802  1.7650
   29MOL0     C 3751   1.196   3.716   3.338  0.3055 -0.4516 -0.2889
   29MOL0     C 3752   1.336   3.709   3.335  0.4626 -1.0440 -1.1328
   29MOL0     C 3753   1.414   3.722   3.455 -0.1009 -0.1889 -0.7338
   29MOL0     O 3754   1.549   3.729   3.460 -0.1547  0.9598 -0.5227
   29MOL0     C 3755   1.633   3.753   3.354 -0.0973 -0.1946  0.3215
   29MOL0     C 3756   1.776   3.698   3.376  0.1966 -0.1009 -0.1514
   29MOL0     C 3757   1.875   3.789   3.441 -0.0013 -0.9117 -0.7281
   29MOL0     C 3758   2.016   3.723   3.461  0.3392 -0.1622  0.1392
   29MOL0     C 3759   2.120   3.816   3.506  0.1040  0.3661 -0.9719
   29MOL0     C 3760   2.220   3.886   3.533  1.0488 -0.0001  0.1017
   29MOL0     C 3761   1.350   3.743   3.574 -0.1466  0.0324 -0.5887
   29MOL0     C 3762   1.209   3.745   3.588 -0.7053  0.6397  0.3593
   29MOL0     H 3763   0.762   3.642   3.770 -2.6832 -1.6119 -0.4870
   29MOL0     H 3764   0.515   3.688   3.803 -1.3444  0.3794 -1.4732
   29MOL0     H 3765   0.300   3.799   3.501 -0.9688 -1.6444  0.2923
   29MOL0     H 3766   0.321   3.967   3.550  3.0734 -0.8383  1.9706
   29MOL0     H 3767   0.071   3.904   3.554  0.6976  0.9100 -0.4100
   29MOL0     H 3768   0.114   3.937   3.709 -4.0601  2.1352 -2.1783
   29MOL0     H 3769   0.152   3.690   3.754  0.3776  1.4984  0.2033
   29MOL0     H 3770   0.129   3.657   3.582 -2.7319  0.6909 -2.3076
   29MOL0     H 3771  -0.079   3.753   3.781 -1.7115 -3.0304  0.1605
   29MOL0     H 3772  -0.094   3.745   3.599  0.3424 -0.0092 -0.5670
   29MOL0     H 3773  -0.018   3.491   3.741 -0.8563 -3.3826 -2.4149
   29MOL0     H 3774  -0.105   3.519   3.591 -1.5880 -0.5215  0.2310
   29MOL0     H 3775  -0.202   3.566   3.872  2.0988  0.7185 -0.5490
   29MOL0     H 3776  -0.263   3.440   3.767 -3.0959  0.7197 -0.4413
   29MOL0     H 3777  -0.310   3.744   3.742  3.4243 -1.2668  3.6890
   29MOL0     H 3778  -0.320   3.629   3.591 -0.7048  0.8622  0.1997
   29MOL0     H 3779  -0.466   3.581   3.835  0.9576 -0.4165 -0.4424
   29MOL0     H 3780  -0.491   3.490   3.692 -1.7324  0.5240 -0.0623
   29MOL0     H 3781  -0.525   3.881   3.732 -1.1866  1.3722  0.9620
   29MOL0     H 3782  -0.838   3.944   3.513  0.1007  1.2235 -0.9456
   29MOL0     H 3783  -0.690   4.035   3.521  0.9264  0.3581  0.4450
   29MOL0     H 3784  -0.860   4.152   3.692  1.2304 -0.1005 -0.1947
   29MOL0     H 3785  -0.735   4.066   3.774 -2.6601  0.4706  2.9017
   29MOL0     H 3786  -0.859   3.872   3.816  0.9575 -0.1413 -0.9674
   29MOL0     H 3787  -0.968   4.000   3.854  0.3985 -0.8100  1.1821
   29MOL0     H 3788  -1.100   3.863   3.754  0.9574  1.2973  2.0364
   29MOL0     H 3789  -1.000   3.833   3.611  2.7852 -1.0952  0.7578
   29MOL0     H 3790  -1.210   3.785   3.536  1.8641  1.6591  1.0387
   29MOL0     H 3791  -1.423   3.761   3.413  1.7046 -0.9152  2.0240
   29MOL0     H 3792  -1.847   4.068   3.263  1.0191 -0.4986 -0.3233
   29MOL0     H 3793  -2.035   4.097   3.090  0.7973 -1.3267  1.0802
   29MOL0     H 3794  -2.101   4.250   2.920 -3.3479 -2.8808  2.8859
   29MOL0     H 3795  -2.191   4.107   2.895 -0.2436 -1.4471 -0.7648
   29MOL0     H 3796  -2.274   4.280   2.745  0.0208 -0.3718 -0.1024
   29MOL0     H 3797  -2.193   4.157   2.648  0.1162  1.4108 -0.6625
   29MOL0     H 3798  -1.991   4.294   2.642  0.0141 -0.5177 -0.7469
   29MOL0     H 3799  -2.077   4.429   2.723  0.7373  1.3435 -1.4789
   29MOL0     H 3800  -2.071   4.461   2.490  1.9657 -1.1601  0.5667
   29MOL0     H 3801  -2.111   4.295   2.451 -2.0939  1.0514 -1.6357
   29MOL0     H 3802  -2.346   4.320   2.535  1.4620 -0.1896  0.7271
   29MOL0     H 3803  -2.306   4.424   2.387 -1.1187 -0.5031 -0.3438
   29MOL0     H 3804  -2.246   4.601   2.534  1.1674 -0.8394 -0.4581
   29MOL0     H 3805  -2.338   4.515   2.665 -0.4777  1.0809 -0.1734
   29MOL0     H 3806  -2.498   4.566   2.410 -0.5733 -0.9129 -0.3197
   29MOL0     H 3807  -2.544   4.533   2.566 -0.4444 -0.7654 -0.1620
   29MOL0     H 3808  -2.412   4.799   2.472  0.3859 -1.8685  0.3516
   29MOL0     H 3809  -2.432   4.763   2.641 -0.2016 -0.8500  0.4183
   29MOL0     H 3810  -1.752   4.068   2.774  1.1956  3.2779 -0.5826
   29MOL0     H 3811  -1.568   4.070   2.942 -0.1403  1.6906  0.9918
   29MOL0     H 3812  -1.460   4.189   3.393  0.5701  0.6582  0.7345
   29MOL0     H 3813  -1.247   4.204   3.520  1.0739 -0.8238 -0.2322
   29MOL0     H 3814   0.517   3.927   3.461 -2.2911  0.0911  2.8360
   29MOL0     H 3815   0.742   3.877   3.416  1.7229  1.2723  0.4559
   29MOL0     H 3816   1.137   3.696   3.249  0.4637 -0.4917 -0.3866
   29MOL0     H 3817   1.384   3.680   3.242 -0.6932 -0.0458 -2.0811
   29MOL0     H 3818   1.650   3.855   3.317  0.2852  0.5100  2.2955
   29MOL0     H 3819   1.595   3.701   3.266 -0.6093  0.2534  0.2753
   29MOL0     H 3820   1.771   3.600   3.424 -2.2052 -0.0150 -0.0746
   29MOL0     H 3821   1.827   3.693   3.280  1.8216  3.1656  0.4016
   29MOL0     H 3822   1.824   3.824   3.532  1.0023  2.6268 -1.3648
   29MOL0     H 3823   1.877   3.881   3.381  1.4316 -0.1393  0.4319
   29MOL0     H 3824   2.007   3.629   3.516 -0.9151  0.0092  0.2565
   29MOL0     H 3825   2.053   3.712   3.359 -0.5077  0.8348 -0.3021
   29MOL0     H 3826   2.295   3.955   3.567 -0.4681  1.5460  0.4531
   29MOL0     H 3827   1.399   3.770   3.668  0.4677  0.4241 -1.0132
   29MOL0     H 3828   1.147   3.765   3.675  0.1218 -0.7446  1.3214
   30MOL0     O 3829   8.908   2.411   3.421  0.0256 -0.7684  0.9724
   30MOL0     C 3830   8.894   2.331   3.328  0.5468 -0.1356 -0.0233
   30MOL0     O 3831   8.787   2.260   3.300  0.4460 -0.4073  0.0274
   30MOL0     C 3832   8.673   2.255   3.380 -0.2111 -0.2720  0.2992
   30MOL0     C 3833   8.558   2.222   3.310 -0.3072 -0.0564  0.0207
   30MOL0     C 3834   8.438   2.223   3.369  0.2800 -0.5047 -0.9978
   30MOL0     C 3835   8.426   2.251   3.508  0.5224 -0.6653  0.2124
   30MOL0     O 3836   8.309   2.254   3.583  0.1670  0.6279 -0.1170
   30MOL0     C 3837   8.187   2.283   3.523 -0.4983  0.7622 -0.6699
   30MOL0     C 3838   8.077   2.301   3.627 -0.6845  0.4261 -0.8382
   30MOL0     C 3839   7.944   2.346   3.582 -0.2120  0.1707 -0.6595
   30MOL0     C 3840   7.835   2.328   3.690  0.1141  0.7694  0.6954
   30MOL0     C 3841   7.690   2.364   3.634  0.4797  0.4693  0.4139
   30MOL0     C 3842   7.589   2.361   3.740  0.3740  0.1397 -1.6608
   30MOL0     C 3843   7.444   2.413   3.701  0.4253 -0.2000  0.8022
   30MOL0     C 3844   7.333   2.364   3.800 -0.6693 -0.8365  0.2896
   30MOL0     N 3845   7.199   2.387   3.753 -0.0736  0.6660 -0.0630
   30MOL0     C 3846   7.149   2.463   3.645  0.2349 -0.3283 -0.1160
   30MOL0     C 3847   7.014   2.459   3.657  0.5749  0.8401  0.3928
   30MOL0     C 3848   6.912   2.533   3.576  0.0511 -0.4287 -0.2534
   30MOL0     C 3849   6.937   2.687   3.582  0.2317  1.0370  0.3518
   30MOL0     C 3850   6.866   2.773   3.485 -0.3147 -0.8849  0.1572
   30MOL0     C 3851   6.711   2.762   3.488 -0.3188 -0.3036 -0.0057
   30MOL0     O 3852   6.679   2.641   3.415  0.0078 -0.1325 -0.4325
   30MOL0     C 3853   6.551   2.613   3.371 -0.2803 -0.4734  0.4821
   30MOL0     C 3854   6.441   2.663   3.438  0.5335 -0.2817  0.0223
   30MOL0     C 3855   6.311   2.631   3.391 -0.2145  1.3268  0.1832
   30MOL0     C 3856   6.290   2.574   3.267 -0.6460 -0.5026 -0.6570
   30MOL0     C 3857   6.152   2.558   3.214  0.2749  0.6153  0.3125
   30MOL0     O 3858   6.052   2.629   3.274 -0.0814  0.3000  0.3174
   30MOL0     C 3859   5.926   2.627   3.219  0.0785 -0.2702 -0.4569
   30MOL0     C 3860   5.827   2.600   3.321  0.3729 -0.8365 -0.4329
   30MOL0     C 3861   5.692   2.595   3.287 -0.3304 -0.1908  0.5894
   30MOL0     C 3862   5.648   2.615   3.159 -0.0893 -0.7743  1.7394
   30MOL0     O 3863   5.514   2.592   3.135  0.6521 -0.2997 -0.5034
   30MOL0     C 3864   5.490   2.458   3.090 -0.8821  1.2915  1.0123
   30MOL0     C 3865   5.342   2.421   3.105  0.8338  0.2063  0.1222
   30MOL0     C 3866   5.332   2.314   3.220 -0.4332 -0.1658 -0.9475
   30MOL0     C 3867   5.195   2.271   3.233  0.1729  0.7332  0.2410
   30MOL0     C 3868   5.187   2.139   3.307  0.2971  0.2437  0.4232
   30MOL0     C 3869   5.231   2.161   3.447 -0.4787 -0.6999 -0.4726
   30MOL0     C 3870   5.174   2.053   3.543 -0.1257 -0.0849  0.2911
   30MOL0     C 3871   5.212   2.075   3.690  0.3950  0.5067 -0.4624
   30MOL0    Cl 3872   5.139   2.222   3.746 -0.0721 -0.4921  0.1221
   30MOL0     C 3873   5.744   2.639   3.060 -0.0759 -0.2469 -0.1710
   30MOL0     C 3874   5.878   2.646   3.087 -0.3113  1.0769 -0.2807
   30MOL0     O 3875   6.131   2.480   3.113 -0.5952  0.5106 -1.1539
   30MOL0     C 3876   6.404   2.546   3.191  0.1615  0.6325  0.5495
   30MOL0     C 3877   6.529   2.547   3.250  0.1493 -0.1230  0.8687
   30MOL0     N 3878   6.986   2.364   3.748  0.1278  0.9251  0.2873
   30MOL0     N 3879   7.093   2.326   3.812  0.1157  0.3724  0.0326
   30MOL0     C 3880   8.544   2.258   3.582 -0.5495  0.9134  0.3248
   30MOL0     C 3881   8.676   2.271   3.524 -0.4238 -0.3551  0.4852
   30MOL0     C 3882   9.006   2.334   3.225  1.2697  0.4637  0.4273
   30MOL0     C 3883   8.986   2.286   3.097 -0.1607 -0.5854 -0.3789
   30MOL0     C 3884   9.096   2.288   3.006 -0.1444 -0.2711 -0.0655
   30MOL0     C 3885   9.217   2.340   3.044  0.4700 -1.0978 -1.0006
   30MOL0     O 3886   9.308   2.335   2.948  0.1568  0.4342 -0.4170
   30MOL0     C 3887   9.412   2.431   2.964  0.5183  0.2502  0.0017
   30MOL0     C 3888   9.503   2.425   2.841 -0.1826  0.0235  0.1411
   30MOL0     C 3889   9.615   2.520   2.856 -1.2834  0.7063  0.5559
   30MOL0     C 3890   9.714   2.523   2.736 -0.0802  0.9394 -0.2245
   30MOL0     C 3891   9.809   2.627   2.760  0.4027 -0.2067  0.0874
   30MOL0     C 3892   9.889   2.711   2.773  0.5438  0.5482 -0.5841
   30MOL0     C 3893   9.237   2.381   3.177 -0.3110 -0.4315  0.1393
   30MOL0     C 3894   9.133   2.373   3.265 -0.5128 -1.3267  0.7103
   30MOL0     H 3895   8.583   2.195   3.208 -1.9963 -3.8955  0.4521
   30MOL0     H 3896   8.344   2.190   3.326 -0.7231 -3.1274  2.6744
   30MOL0     H 3897   8.160   2.193   3.467  1.7187 -1.3012  1.3606
   30MOL0     H 3898   8.190   2.370   3.458 -3.8052 -0.0027 -2.0958
   30MOL0     H 3899   8.122   2.363   3.705  0.5631  1.4251 -2.2805
   30MOL0     H 3900   8.061   2.203   3.672  0.9377  0.5954  0.1898
   30MOL0     H 3901   7.922   2.296   3.487  2.6981 -0.1549 -1.2530
   30MOL0     H 3902   7.960   2.453   3.569  2.1150  0.2038  1.7369
   30MOL0     H 3903   7.836   2.227   3.733  0.6028  0.7917  0.7490
   30MOL0     H 3904   7.866   2.395   3.771  0.8609  1.8661 -0.4634
   30MOL0     H 3905   7.661   2.293   3.557 -0.3570 -0.6123  1.6879
   30MOL0     H 3906   7.701   2.458   3.579 -0.1106  0.2348 -0.1046
   30MOL0     H 3907   7.621   2.418   3.827  0.0947 -3.1458  0.7939
   30MOL0     H 3908   7.570   2.263   3.784 -0.1126  0.8631 -0.1878
   30MOL0     H 3909   7.444   2.522   3.691  0.7189 -0.2388  0.3240
   30MOL0     H 3910   7.437   2.382   3.596  1.1112  2.5757 -0.1634
   30MOL0     H 3911   7.350   2.410   3.898  0.4059 -3.2921  1.3286
   30MOL0     H 3912   7.338   2.257   3.821 -0.4106 -0.3993  2.7098
   30MOL0     H 3913   7.204   2.529   3.579 -0.5319 -1.0912 -1.5570
   30MOL0     H 3914   6.813   2.517   3.621  0.5776 -1.2775  0.6224
   30MOL0     H 3915   6.906   2.492   3.475  0.2691  1.2533 -0.9931
   30MOL0     H 3916   7.046   2.694   3.568 -0.0702  0.6908 -3.3040
   30MOL0     H 3917   6.903   2.717   3.681 -1.8151 -0.2781  0.0926
   30MOL0     H 3918   6.903   2.872   3.512 -1.1069 -0.4880 -0.1728
   30MOL0     H 3919   6.902   2.752   3.384 -0.3754  0.8826 -0.2705
   30MOL0     H 3920   6.665   2.848   3.439  2.0771  1.5845  0.8167
   30MOL0     H 3921   6.657   2.760   3.583 -5.1103  0.5866 -2.4005
   30MOL0     H 3922   6.464   2.718   3.529  2.4653  1.3999 -1.3952
   30MOL0     H 3923   6.225   2.669   3.445 -0.3876  1.0203  0.1271
   30MOL0     H 3924   5.861   2.595   3.424  0.6749  2.5625 -0.2520
   30MOL0     H 3925   5.623   2.594   3.371 -2.3330  1.6224 -0.9259
   30MOL0     H 3926   5.555   2.384   3.138  1.9914  0.1883 -3.9041
   30MOL0     H 3927   5.514   2.451   2.984 -0.3461 -2.2286  1.2449
   30MOL0     H 3928   5.306   2.378   3.012  0.6599 -1.0172  0.7428
   30MOL0     H 3929   5.281   2.506   3.136 -0.1512  0.1561 -1.5627
   30MOL0     H 3930   5.376   2.357   3.311 -2.7355 -2.7400  1.5877
   30MOL0     H 3931   5.394   2.228   3.190 -0.4568  0.0925 -1.7481
   30MOL0     H 3932   5.125   2.342   3.278 -2.2459 -2.2190  1.5627
   30MOL0     H 3933   5.156   2.274   3.131  0.5372  1.7035  0.1236
   30MOL0     H 3934   5.247   2.062   3.258  0.1118  1.6271 -2.1519
   30MOL0     H 3935   5.085   2.103   3.292 -0.2375  1.2624  1.3941
   30MOL0     H 3936   5.189   2.256   3.480 -1.6943 -0.8830 -1.4171
   30MOL0     H 3937   5.340   2.162   3.449 -0.3232  2.0744 -2.6687
   30MOL0     H 3938   5.065   2.052   3.532 -0.2499  1.9892  0.7748
   30MOL0     H 3939   5.211   1.952   3.526 -0.9378 -0.7097  1.9974
   30MOL0     H 3940   5.319   2.098   3.697  0.4160  0.4745 -0.6654
   30MOL0     H 3941   5.204   1.991   3.759 -0.4770  1.2513  0.3720
   30MOL0     H 3942   5.706   2.656   2.960  0.3291  0.5470 -0.1984
   30MOL0     H 3943   5.949   2.675   3.010 -1.8246 -0.0332 -2.1742
   30MOL0     H 3944   6.401   2.516   3.087 -0.0798 -2.5522  1.3735
   30MOL0     H 3945   6.616   2.518   3.191  0.6708  1.1224  0.9975
   30MOL0     H 3946   8.549   2.270   3.689 -2.3505  4.1624  0.2032
   30MOL0     H 3947   8.767   2.278   3.582 -0.6143 -0.5953  0.8126
   30MOL0     H 3948   8.886   2.254   3.070 -0.6254 -1.0810  1.7116
   30MOL0     H 3949   9.094   2.235   2.911 -0.1614 -3.0806  1.3847
   30MOL0     H 3950   9.457   2.397   3.058  0.7352  0.6945  0.0628
   30MOL0     H 3951   9.375   2.530   2.993  2.3181  0.5140  1.5916
   30MOL0     H 3952   9.539   2.323   2.827  0.9489  0.3240  0.7343
   30MOL0     H 3953   9.440   2.458   2.758 -0.6213  1.5700  1.0493
   30MOL0     H 3954   9.680   2.491   2.939  0.1446  1.6709 -0.1809
   30MOL0     H 3955   9.578   2.622   2.870  2.1196  2.4543 -1.7860
   30MOL0     H 3956   9.768   2.428   2.728 -0.2311  0.5958  2.1266
   30MOL0     H 3957   9.668   2.549   2.641  0.8780  0.8621 -0.7180
   30MOL0     H 3958   9.953   2.797   2.775  1.0336  0.1779  0.5689
   30MOL0     H 3959   9.335   2.404   3.217 -1.0012  0.9437  1.1243
   30MOL0     H 3960   9.150   2.400   3.369 -1.1032 -0.5703  0.6206
   31MOL0     O 3961   5.947   7.930   8.017 -0.7178  0.2012  0.2063
   31MOL0     C 3962   5.908   7.993   7.923 -0.7108 -0.2988  0.1596
   31MOL0     O 3963   5.981   8.031   7.811  0.0095  0.3860 -0.3252
   31MOL0     C 3964   6.121   8.025   7.814  0.5927 -0.0415  0.1093
   31MOL0     C 3965   6.204   8.024   7.932  0.2588 -0.1709  0.6555
   31MOL0     C 3966   6.345   8.013   7.913  0.5300 -0.4743  0.2054
   31MOL0     C 3967   6.404   8.007   7.789  0.3750 -0.6706 -0.4398
   31MOL0     O 3968   6.537   8.018   7.771 -0.0234  1.0547 -0.6496
   31MOL0     C 3969   6.599   7.910   7.840 -0.1342 -0.5703  0.0270
   31MOL0     C 3970   6.746   7.912   7.782 -0.0560 -0.6237  0.4654
   31MOL0     C 3971   6.775   7.860   7.635  0.5735 -0.3126 -0.5522
   31MOL0     C 3972   6.689   7.940   7.531  1.0801  0.7776 -0.3319
   31MOL0     C 3973   6.740   7.892   7.397  0.0963 -0.6980  0.3473
   31MOL0     C 3974   6.685   7.965   7.272  0.4370 -0.8833  1.1519
   31MOL0     C 3975   6.531   7.994   7.276  0.7054 -0.7056  0.3219
   31MOL0     C 3976   6.463   7.850   7.272 -0.5387 -0.3840  0.2018
   31MOL0     N 3977   6.312   7.850   7.275 -0.9107  1.8940  0.8234
   31MOL0     C 3978   6.227   7.797   7.183  0.3165  0.1878 -0.1780
   31MOL0     C 3979   6.104   7.835   7.218  0.4240 -0.8101 -0.6998
   31MOL0     C 3980   5.990   7.803   7.122  0.8325 -0.0814  0.2984
   31MOL0     C 3981   5.953   7.652   7.140  0.7439 -0.9439  0.9648
   31MOL0     C 3982   5.887   7.585   7.022  0.2010  0.4507 -1.5962
   31MOL0     C 3983   5.733   7.587   7.012 -0.8824  0.5648  0.1202
   31MOL0     O 3984   5.667   7.541   7.130  0.0205  0.1654 -0.0039
   31MOL0     C 3985   5.533   7.542   7.118  1.0422  0.2445  1.0800
   31MOL0     C 3986   5.463   7.665   7.112  0.5693 -0.1898  0.8894
   31MOL0     C 3987   5.328   7.672   7.100 -0.3449 -0.1692 -0.0498
   31MOL0     C 3988   5.250   7.557   7.111  0.7386  0.6009 -0.1440
   31MOL0     C 3989   5.094   7.564   7.107 -0.5093  0.1251  0.7546
   31MOL0     O 3990   5.023   7.448   7.084 -0.4884  0.1419  0.1010
   31MOL0     C 3991   4.886   7.461   7.075 -0.1126  0.1730  0.4881
   31MOL0     C 3992   4.818   7.532   6.976 -0.1574  0.0217 -0.5273
   31MOL0     C 3993   4.679   7.521   6.964 -0.3750  0.6599 -0.1180
   31MOL0     C 3994   4.596   7.446   7.046 -0.2270 -0.9690 -0.1572
   31MOL0     O 3995   4.460   7.450   7.038  0.0136 -0.2654 -0.4715
   31MOL0     C 3996   4.384   7.349   7.098  1.1165  0.2844  0.3311
   31MOL0     C 3997   4.246   7.339   7.035  0.5820  0.5850  0.5306
   31MOL0     C 3998   4.253   7.277   6.893 -0.7808  0.6085  0.1119
   31MOL0     C 3999   4.130   7.316   6.813  0.0300 -0.1779 -0.4155
   31MOL0     C 4000   4.126   7.465   6.777  0.1179 -0.3039  0.5419
   31MOL0     C 4001   4.252   7.531   6.722  0.2605  0.6647  0.3561
   31MOL0     C 4002   4.229   7.678   6.677  0.0543  0.0935 -0.2353
   31MOL0     C 4003   4.323   7.710   6.564  0.4022 -0.4577 -0.0488
   31MOL0    Cl 4004   4.487   7.715   6.612  0.5121 -0.5056  0.5918
   31MOL0     C 4005   4.666   7.385   7.153  0.8568 -0.3598 -0.4393
   31MOL0     C 4006   4.807   7.394   7.166  0.7108  1.2076 -0.1935
   31MOL0     O 4007   5.038   7.672   7.123 -0.1263 -0.4176  0.2818
   31MOL0     C 4008   5.321   7.437   7.141  0.6415  0.0299  1.0371
   31MOL0     C 4009   5.462   7.428   7.138  0.0027 -0.5648 -0.4987
   31MOL0     N 4010   6.107   7.917   7.325 -0.5292  0.5331  0.6535
   31MOL0     N 4011   6.232   7.917   7.361  0.5014 -0.3499 -0.7293
   31MOL0     C 4012   6.323   8.005   7.674  0.0229 -0.1535 -0.7009
   31MOL0     C 4013   6.181   8.018   7.685 -0.6085 -0.8478  0.1932
   31MOL0     C 4014   5.765   8.014   7.933  0.6371 -0.1044  0.7362
   31MOL0     C 4015   5.685   7.946   8.031 -0.4935  0.4961 -0.4479
   31MOL0     C 4016   5.546   7.971   8.046 -0.0653 -0.4493 -0.1149
   31MOL0     C 4017   5.477   8.047   7.947 -0.3188  0.6432 -0.0193
   31MOL0     O 4018   5.339   8.063   7.941 -0.5151 -0.4776 -0.0740
   31MOL0     C 4019   5.269   8.069   8.065  0.4038 -0.4241 -0.0454
   31MOL0     C 4020   5.118   8.060   8.029  1.0749  0.0193  0.5898
   31MOL0     C 4021   5.091   7.931   7.954 -0.4019 -0.1773  0.8695
   31MOL0     C 4022   4.944   7.896   7.930 -0.0471 -1.0657  1.0793
   31MOL0     C 4023   4.869   8.002   7.859  0.0889 -0.2626  0.6139
   31MOL0     C 4024   4.806   8.090   7.805 -0.0213 -0.0013 -0.4840
   31MOL0     C 4025   5.560   8.110   7.851  0.1713 -0.8548 -0.3379
   31MOL0     C 4026   5.700   8.100   7.844 -0.4127 -0.8999 -0.2031
   31MOL0     H 4027   6.167   8.058   8.028 -1.0259  0.8335 -0.1565
   31MOL0     H 4028   6.410   8.022   7.999  1.0517  1.4418 -0.3501
   31MOL0     H 4029   6.565   7.808   7.819  1.1672 -0.7847 -1.1289
   31MOL0     H 4030   6.601   7.934   7.947  0.4965 -0.6655  0.0432
   31MOL0     H 4031   6.818   7.867   7.851  0.5294 -1.5990 -0.7431
   31MOL0     H 4032   6.774   8.016   7.764 -0.2445 -0.5670  0.4965
   31MOL0     H 4033   6.750   7.754   7.625  0.4882 -0.1094 -3.0402
   31MOL0     H 4034   6.882   7.866   7.618  0.5230  2.4191 -0.4385
   31MOL0     H 4035   6.581   7.930   7.539  0.7699  3.5864 -0.1702
   31MOL0     H 4036   6.702   8.048   7.535  1.0330  0.8394 -1.6967
   31MOL0     H 4037   6.707   7.788   7.387 -3.0208  0.1570  0.6188
   31MOL0     H 4038   6.849   7.887   7.393  0.1250  0.0004  0.2518
   31MOL0     H 4039   6.696   7.908   7.180 -0.9747  0.4535  0.1088
   31MOL0     H 4040   6.748   8.055   7.266  0.9341 -1.3280 -1.7566
   31MOL0     H 4041   6.505   8.046   7.368 -0.6447 -1.4365  0.3826
   31MOL0     H 4042   6.494   8.061   7.198 -0.2813 -1.1663  0.3883
   31MOL0     H 4043   6.499   7.796   7.360  0.7006 -0.8654 -0.5546
   31MOL0     H 4044   6.497   7.798   7.181  0.3224  0.9450 -0.2750
   31MOL0     H 4045   6.248   7.743   7.091  1.4360  3.1887 -1.8254
   31MOL0     H 4046   6.016   7.821   7.017 -0.6451  2.9418  0.3627
   31MOL0     H 4047   5.901   7.860   7.149 -0.0609 -0.6484 -1.2834
   31MOL0     H 4048   5.887   7.643   7.226 -0.0381  2.8740  0.9374
   31MOL0     H 4049   6.046   7.600   7.167  1.2366 -0.6187 -0.0289
   31MOL0     H 4050   5.932   7.621   6.929  1.4714 -2.5209 -2.2432
   31MOL0     H 4051   5.902   7.478   7.039 -0.1976  0.6883  0.5391
   31MOL0     H 4052   5.701   7.526   6.927  2.2276  0.0025 -0.7633
   31MOL0     H 4053   5.705   7.690   6.987  0.9314  0.6995 -1.5436
   31MOL0     H 4054   5.514   7.760   7.120  0.4968  0.0345 -0.9246
   31MOL0     H 4055   5.275   7.766   7.090 -1.6718 -1.1675 -5.1188
   31MOL0     H 4056   4.873   7.595   6.907 -0.1114  0.3462 -0.1993
   31MOL0     H 4057   4.632   7.572   6.880  1.6186 -1.1785 -2.5115
   31MOL0     H 4058   4.351   7.380   7.197  0.5859  1.8519 -0.3078
   31MOL0     H 4059   4.429   7.249   7.089 -1.8429 -1.2986  1.6472
   31MOL0     H 4060   4.193   7.434   7.036 -2.4570 -0.8501 -2.5232
   31MOL0     H 4061   4.182   7.282   7.103 -0.5241  1.7542  0.4913
   31MOL0     H 4062   4.274   7.170   6.893  2.0180  1.0292 -2.0974
   31MOL0     H 4063   4.344   7.313   6.844  0.7504  1.3585  3.2263
   31MOL0     H 4064   4.127   7.249   6.727  2.8535  1.4439 -1.9130
   31MOL0     H 4065   4.043   7.284   6.870  0.7858 -2.7396 -0.5372
   31MOL0     H 4066   4.098   7.529   6.862  1.5825  1.8255 -0.4906
   31MOL0     H 4067   4.048   7.476   6.701  2.4766 -1.0905 -2.1230
   31MOL0     H 4068   4.280   7.471   6.635 -2.1927  1.0115 -0.7449
   31MOL0     H 4069   4.336   7.538   6.792  0.3991 -1.6833  0.4916
   31MOL0     H 4070   4.127   7.700   6.645 -0.5539 -0.6734  1.0626
   31MOL0     H 4071   4.248   7.749   6.758 -2.1650  1.1065 -0.5108
   31MOL0     H 4072   4.296   7.809   6.526 -0.6206  0.7188  3.3710
   31MOL0     H 4073   4.306   7.630   6.491 -3.9230 -1.5854  1.8556
   31MOL0     H 4074   4.607   7.341   7.233  1.1079  0.3936  0.1776
   31MOL0     H 4075   4.853   7.347   7.253  2.4675 -0.2788 -1.8145
   31MOL0     H 4076   5.254   7.352   7.141 -1.2068  1.4161  1.2824
   31MOL0     H 4077   5.508   7.333   7.162  2.6782  1.1794  1.8119
   31MOL0     H 4078   6.377   8.002   7.579 -0.0450  0.6271 -0.7719
   31MOL0     H 4079   6.119   8.010   7.596  1.7023 -0.8476 -1.4990
   31MOL0     H 4080   5.736   7.883   8.103 -0.1577 -0.4267 -1.4635
   31MOL0     H 4081   5.485   7.912   8.114 -0.2932 -0.7481 -0.5701
   31MOL0     H 4082   5.309   8.160   8.111  3.8277 -1.6466 -0.3686
   31MOL0     H 4083   5.292   7.987   8.133  2.3077  0.7115  0.7690
   31MOL0     H 4084   5.068   8.067   8.126 -1.2737  2.8417 -0.6654
   31MOL0     H 4085   5.089   8.147   7.970  1.0748  0.0151  0.5835
   31MOL0     H 4086   5.134   7.847   8.009 -2.4594 -1.4889  0.5817
   31MOL0     H 4087   5.137   7.942   7.855 -1.2894  2.1323  0.6614
   31MOL0     H 4088   4.933   7.812   7.861 -4.1657  1.6135 -2.0177
   31MOL0     H 4089   4.897   7.882   8.028 -0.9082  0.5477  0.9298
   31MOL0     H 4090   4.766   8.178   7.758 -0.5142 -0.5642 -1.1480
   31MOL0     H 4091   5.497   8.147   7.770 -0.9458 -2.5209 -0.2885
   31MOL0     H 4092   5.748   8.155   7.765  1.7485  0.8737  2.1727
   32MOL0     O 4093   1.027   7.880  11.245  0.4038  0.6351  0.0421
   32MOL0     C 4094   0.998   7.775  11.310 -0.6272 -0.6408 -0.4051
   32MOL0     O 4095   0.872   7.719  11.327 -0.3700 -0.5532 -0.3783
   32MOL0     C 4096   0.761   7.772  11.265 -0.0041  0.1401 -0.4586
   32MOL0     C 4097   0.655   7.800  11.351 -0.1902 -0.2196 -0.1123
   32MOL0     C 4098   0.533   7.864  11.307  0.2901  0.6206  0.5664
   32MOL0     C 4099   0.520   7.891  11.169  0.1749  0.4121  0.8503
   32MOL0     O 4100   0.404   7.935  11.119  0.9195 -0.3369 -0.1881
   32MOL0     C 4101   0.382   7.901  10.978  0.1899 -0.1018 -0.6764
   32MOL0     C 4102   0.231   7.936  10.954  0.3133 -0.2160  0.9027
   32MOL0     C 4103   0.159   7.861  10.846  0.4759  1.1025 -0.1310
   32MOL0     C 4104   0.009   7.902  10.837 -0.5381  0.5393 -0.3179
   32MOL0     C 4105  -0.066   7.815  10.742 -0.0348 -0.0339 -0.0337
   32MOL0     C 4106  -0.209   7.863  10.724  0.1208  0.3348 -1.0957
   32MOL0     C 4107  -0.282   7.749  10.639  0.2577 -1.8491 -0.2435
   32MOL0     C 4108  -0.379   7.791  10.527 -0.7661 -0.0949 -0.2384
   32MOL0     N 4109  -0.476   7.890  10.568  0.1531  0.0379 -0.0463
   32MOL0     C 4110  -0.549   7.957  10.473  0.1506 -0.6171 -0.5633
   32MOL0     C 4111  -0.640   8.031  10.543  0.0082  0.0880  0.0015
   32MOL0     C 4112  -0.747   8.118  10.489 -0.5585  0.2501 -0.8867
   32MOL0     C 4113  -0.833   8.209  10.583 -1.1941 -0.7592 -0.7645
   32MOL0     C 4114  -0.955   8.257  10.506  0.6547 -0.2878 -0.8795
   32MOL0     C 4115  -1.059   8.341  10.592 -0.0175 -0.3935 -0.7853
   32MOL0     O 4116  -1.163   8.358  10.499 -0.2143 -0.0697  0.1888
   32MOL0     C 4117  -1.282   8.429  10.533  0.5547 -0.2669 -0.3226
   32MOL0     C 4118  -1.301   8.496  10.647 -0.7786 -0.0143 -0.5108
   32MOL0     C 4119  -1.412   8.561  10.678  0.9671 -0.5646  0.0389
   32MOL0     C 4120  -1.516   8.574  10.582 -0.0256  0.5179 -0.0635
   32MOL0     C 4121  -1.643   8.639  10.612  0.7608 -0.0790 -0.0645
   32MOL0     O 4122  -1.644   8.760  10.679 -0.2856  0.9011 -0.7784
   32MOL0     C 4123  -1.756   8.807  10.744 -0.2380  0.5076 -0.5361
   32MOL0     C 4124  -1.741   8.939  10.778 -0.1216 -0.3489 -0.4939
   32MOL0     C 4125  -1.835   8.999  10.858 -0.4237  1.0677 -0.0873
   32MOL0     C 4126  -1.951   8.941  10.891  0.4025 -0.7450  0.3096
   32MOL0     O 4127  -2.051   9.016  10.957 -0.4843  0.6585 -0.3622
   32MOL0     C 4128  -2.076   9.148  10.918  0.6830 -0.6944  0.0254
   32MOL0     C 4129  -2.202   9.195  11.005 -0.8393 -0.4652 -0.0978
   32MOL0     C 4130  -2.165   9.219  11.151 -0.1692 -0.1450  0.1798
   32MOL0     C 4131  -2.236   9.332  11.220  0.4854 -0.8010 -0.4696
   32MOL0     C 4132  -2.173   9.374  11.359  0.3440 -0.4771  0.1779
   32MOL0     C 4133  -2.186   9.273  11.475 -0.0440  0.1981 -0.1045
   32MOL0     C 4134  -2.152   9.325  11.618  0.3222  0.4578  0.2900
   32MOL0     C 4135  -2.180   9.224  11.726 -0.9260 -0.2759 -0.0594
   32MOL0    Cl 4136  -2.066   9.248  11.862 -0.7248  0.2618  0.1491
   32MOL0     C 4137  -1.977   8.809  10.853  0.8927  0.3366  0.5332
   32MOL0     C 4138  -1.869   8.739  10.792  0.6528 -0.4927  0.3405
   32MOL0     O 4139  -1.741   8.567  10.579 -0.1381 -0.8337 -0.7194
   32MOL0     C 4140  -1.499   8.501  10.463  0.2364  0.3893  0.0796
   32MOL0     C 4141  -1.381   8.427  10.436  0.8212 -0.0735 -0.7744
   32MOL0     N 4142  -0.605   8.019  10.680 -0.3860  0.4321  0.4919
   32MOL0     N 4143  -0.506   7.942  10.690 -0.4214 -0.1947  0.5999
   32MOL0     C 4144   0.633   7.863  11.083  0.3734  0.7053 -0.5385
   32MOL0     C 4145   0.752   7.804  11.132  0.9011  0.4885 -0.6337
   32MOL0     C 4146   1.102   7.692  11.379  0.3153 -0.2266  0.2127
   32MOL0     C 4147   1.067   7.576  11.452  0.2526  0.5641 -0.1561
   32MOL0     C 4148   1.161   7.501  11.514 -0.3992  0.8006 -0.6019
   32MOL0     C 4149   1.296   7.538  11.504 -0.6993 -0.0901 -0.6365
   32MOL0     O 4150   1.410   7.466  11.550 -0.2406 -0.1690  0.1940
   32MOL0     C 4151   1.393   7.335  11.604 -0.1253 -0.2772  0.1432
   32MOL0     C 4152   1.369   7.361  11.754 -0.5952  0.0550  0.1856
   32MOL0     C 4153   1.494   7.393  11.835 -0.8474  0.7440 -0.4267
   32MOL0     C 4154   1.590   7.270  11.855  0.2767 -0.2280  0.2106
   32MOL0     C 4155   1.543   7.178  11.961  0.1991 -1.1157  0.2357
   32MOL0     C 4156   1.485   7.106  12.042  0.0706  1.0010  0.5243
   32MOL0     C 4157   1.333   7.663  11.440  0.4528  0.0854  0.0547
   32MOL0     C 4158   1.231   7.736  11.376 -0.0820 -0.6333  0.2418
   32MOL0     H 4159   0.664   7.757  11.451  1.7339  2.9480  1.2482
   32MOL0     H 4160   0.450   7.878  11.375 -0.2112 -1.5380  0.4687
   32MOL0     H 4161   0.398   7.794  10.960 -0.1540 -0.4680  1.0633
   32MOL0     H 4162   0.454   7.961  10.920  1.8147  0.9280  2.2119
   32MOL0     H 4163   0.230   8.043  10.932 -0.8711 -0.3114  0.3957
   32MOL0     H 4164   0.174   7.907  11.043 -0.2011  0.0222  0.6589
   32MOL0     H 4165   0.177   7.753  10.849  0.5803  1.0409 -1.7469
   32MOL0     H 4166   0.207   7.889  10.752  0.6524 -1.5238 -0.8986
   32MOL0     H 4167  -0.033   7.880  10.936 -0.3725 -0.4533 -0.4539
   32MOL0     H 4168   0.001   8.010  10.823 -0.2100  0.9032  1.9389
   32MOL0     H 4169  -0.071   7.714  10.784 -1.1123  0.7297  1.7794
   32MOL0     H 4170  -0.017   7.820  10.644 -0.7839 -0.3407 -0.4239
   32MOL0     H 4171  -0.217   7.958  10.671 -0.5180 -0.0425 -1.6853
   32MOL0     H 4172  -0.265   7.875  10.817  1.6527  4.7556 -0.4634
   32MOL0     H 4173  -0.217   7.677  10.588 -1.9242 -4.1362 -0.0278
   32MOL0     H 4174  -0.342   7.691  10.709 -1.7662  1.0157  0.5708
   32MOL0     H 4175  -0.430   7.701  10.492  0.4145 -0.3616 -1.3386
   32MOL0     H 4176  -0.322   7.829  10.442 -1.7289  1.3671 -0.2676
   32MOL0     H 4177  -0.544   7.943  10.365  3.5182  0.9520 -0.7548
   32MOL0     H 4178  -0.806   8.039  10.441  3.4124 -2.8208 -1.2106
   32MOL0     H 4179  -0.716   8.190  10.414 -0.5847  0.4869 -0.6723
   32MOL0     H 4180  -0.777   8.302  10.599  1.4109 -2.3018 -0.3415
   32MOL0     H 4181  -0.870   8.176  10.681  0.9123  0.5765  0.5709
   32MOL0     H 4182  -0.926   8.320  10.422 -1.2062  0.8846 -0.6875
   32MOL0     H 4183  -1.012   8.171  10.469  0.8448 -0.3270 -1.0848
   32MOL0     H 4184  -1.022   8.441  10.616 -1.9247  0.3546 -0.7783
   32MOL0     H 4185  -1.093   8.280  10.677  0.1110 -1.2097 -1.3087
   32MOL0     H 4186  -1.217   8.512  10.714 -2.6859  2.7547  1.4734
   32MOL0     H 4187  -1.423   8.615  10.772 -1.0464 -1.0728  0.1422
   32MOL0     H 4188  -1.659   9.004  10.748 -1.6292  0.3648 -3.3674
   32MOL0     H 4189  -1.821   9.100  10.897  2.6324  1.1876 -1.2173
   32MOL0     H 4190  -2.106   9.164  10.814 -0.6401 -0.2778  0.4601
   32MOL0     H 4191  -1.993   9.215  10.942  0.5974 -0.9632  1.1033
   32MOL0     H 4192  -2.282   9.121  10.997 -0.1954 -1.0564 -1.1815
   32MOL0     H 4193  -2.243   9.288  10.963  0.1736 -0.1651 -0.4661
   32MOL0     H 4194  -2.059   9.246  11.156 -0.9597  3.5763 -0.5171
   32MOL0     H 4195  -2.194   9.129  11.206 -0.8633  1.1341  1.9962
   32MOL0     H 4196  -2.235   9.408  11.142 -1.5560 -3.1284 -2.9526
   32MOL0     H 4197  -2.340   9.302  11.235 -0.5301  2.3842 -0.4274
   32MOL0     H 4198  -2.220   9.472  11.368 -3.2879 -2.0068 -0.3517
   32MOL0     H 4199  -2.065   9.390  11.348  0.4481 -1.7517 -1.0722
   32MOL0     H 4200  -2.113   9.196  11.449 -0.4840 -0.3676  0.3178
   32MOL0     H 4201  -2.285   9.227  11.480  1.0383 -2.1647  1.9743
   32MOL0     H 4202  -2.044   9.337  11.617  0.1790  1.8594  0.2984
   32MOL0     H 4203  -2.193   9.426  11.633 -2.4370 -0.3529 -1.0760
   32MOL0     H 4204  -2.169   9.120  11.694 -1.1564  0.5782 -3.3508
   32MOL0     H 4205  -2.283   9.236  11.761 -0.7977  3.2175 -0.5192
   32MOL0     H 4206  -2.070   8.764  10.885 -0.0923  1.6362 -0.3550
   32MOL0     H 4207  -1.884   8.635  10.766 -1.5191  0.6206 -3.6430
   32MOL0     H 4208  -1.577   8.510  10.388 -1.1284 -3.2496  0.8394
   32MOL0     H 4209  -1.369   8.376  10.341 -0.4389  0.6904 -1.3787
   32MOL0     H 4210   0.632   7.892  10.979  2.5902  1.0295 -0.5185
   32MOL0     H 4211   0.827   7.780  11.058 -0.4374  1.0907 -2.2487
   32MOL0     H 4212   0.968   7.530  11.450  1.1384 -1.4223 -1.7736
   32MOL0     H 4213   1.135   7.411  11.568 -1.3242 -0.2041 -2.6044
   32MOL0     H 4214   1.480   7.270  11.588  0.6283  0.2068  2.0048
   32MOL0     H 4215   1.304   7.284  11.565 -0.2852 -1.8766  2.3740
   32MOL0     H 4216   1.305   7.448  11.770 -0.4827 -0.0209  1.1110
   32MOL0     H 4217   1.306   7.286  11.802  3.3153 -2.9876  1.1408
   32MOL0     H 4218   1.477   7.442  11.932 -2.5508  0.9628 -0.7996
   32MOL0     H 4219   1.551   7.457  11.767  1.1881 -2.0868 -1.5689
   32MOL0     H 4220   1.594   7.214  11.761  2.6138 -1.4610  0.9558
   32MOL0     H 4221   1.690   7.305  11.883  1.2820 -1.1914 -1.9677
   32MOL0     H 4222   1.424   7.044  12.105  0.3194 -0.1426 -0.3475
   32MOL0     H 4223   1.437   7.696  11.440 -0.0921  1.8869 -0.1016
   32MOL0     H 4224   1.268   7.824  11.324  0.2956  0.9842  3.0224
   33MOL0     O 4225  11.293   1.745   1.947 -0.4201 -0.7598 -0.6284
   33MOL0     C 4226  11.406   1.772   1.974  0.6200  0.7124  0.4516
   33MOL0     O 4227  11.447   1.844   2.078  0.7510 -0.3469  0.4224
   33MOL0     C 4228  11.349   1.889   2.157 -0.4358  0.8354 -1.0250
   33MOL0     C 4229  11.320   2.025   2.176  0.1504 -0.0185 -0.1167
   33MOL0     C 4230  11.209   2.057   2.250 -0.1278  0.4411  0.7695
   33MOL0     C 4231  11.123   1.964   2.314  0.2742  0.4762 -0.7682
   33MOL0     O 4232  11.009   2.006   2.377 -0.2470  0.5192 -1.4419
   33MOL0     C 4233  10.916   1.908   2.428 -0.1575 -0.1761  0.5261
   33MOL0     C 4234  10.792   1.982   2.482  0.1394 -0.2456  0.0973
   33MOL0     C 4235  10.835   2.095   2.576  0.1608 -0.0948 -0.7582
   33MOL0     C 4236  10.716   2.164   2.653  0.3617 -0.6461 -0.4937
   33MOL0     C 4237  10.736   2.170   2.806 -0.5482  0.2451 -0.2801
   33MOL0     C 4238  10.646   2.280   2.863  0.8908 -0.4056 -0.2400
   33MOL0     C 4239  10.663   2.279   3.016  0.1449 -0.6822  0.2961
   33MOL0     C 4240  10.632   2.151   3.105  1.1088 -0.9275 -0.2165
   33MOL0     N 4241  10.487   2.121   3.106  0.6640 -0.3000  0.7885
   33MOL0     C 4242  10.396   2.151   3.205 -1.2182  0.3297  0.6221
   33MOL0     C 4243  10.277   2.108   3.164  0.2693 -0.1889  0.9456
   33MOL0     C 4244  10.145   2.157   3.225  0.5143  0.2649 -0.5473
   33MOL0     C 4245  10.035   2.049   3.252  0.3809 -0.3729 -0.6217
   33MOL0     C 4246  10.093   1.924   3.317  0.3648  0.5123  0.1956
   33MOL0     C 4247   9.975   1.816   3.331  0.0430 -0.4409 -0.0822
   33MOL0     O 4248   9.915   1.847   3.457 -0.4237 -0.8803 -0.2960
   33MOL0     C 4249   9.810   1.776   3.504 -0.7151  0.3451 -0.2092
   33MOL0     C 4250   9.773   1.789   3.641 -0.7152 -0.1092  0.3751
   33MOL0     C 4251   9.647   1.752   3.674  0.3344  0.0186  0.1180
   33MOL0     C 4252   9.558   1.672   3.591 -0.2571  0.5315  0.7780
   33MOL0     C 4253   9.416   1.643   3.624 -0.0541 -0.2654  0.2170
   33MOL0     O 4254   9.337   1.580   3.528 -0.1322  0.1804 -0.3775
   33MOL0     C 4255   9.205   1.550   3.558 -0.5838 -0.4840  0.1234
   33MOL0     C 4256   9.105   1.626   3.502  0.8177  0.3057  0.7268
   33MOL0     C 4257   8.966   1.597   3.527  0.1024 -0.3455  0.0264
   33MOL0     C 4258   8.926   1.490   3.601 -0.1480  0.2821  0.3721
   33MOL0     O 4259   8.796   1.456   3.622  0.3645 -0.1643  0.4705
   33MOL0     C 4260   8.734   1.422   3.490 -1.3771  0.4839  0.0213
   33MOL0     C 4261   8.599   1.360   3.512  0.2542 -0.1069 -0.4574
   33MOL0     C 4262   8.489   1.448   3.447 -0.3471  0.1848  0.2164
   33MOL0     C 4263   8.356   1.372   3.439 -0.0166 -0.3218 -0.1375
   33MOL0     C 4264   8.341   1.327   3.289 -0.1864 -0.0926 -0.3102
   33MOL0     C 4265   8.202   1.272   3.273 -0.3402  0.8866 -0.3909
   33MOL0     C 4266   8.163   1.260   3.128  0.2669  0.0078 -0.0757
   33MOL0     C 4267   8.009   1.232   3.111 -0.5849  0.7876 -0.6346
   33MOL0    Cl 4268   7.897   1.355   3.187 -0.1803 -0.0892 -0.5591
   33MOL0     C 4269   9.025   1.416   3.659 -1.3705 -0.2126 -0.5073
   33MOL0     C 4270   9.165   1.446   3.645 -0.1175  0.0805  0.2562
   33MOL0     O 4271   9.371   1.694   3.725 -0.1712 -0.6770  0.3567
   33MOL0     C 4272   9.608   1.641   3.465  0.2782 -0.4041  0.5368
   33MOL0     C 4273   9.733   1.696   3.418  0.1792 -0.8620  0.3587
   33MOL0     N 4274  10.296   2.051   3.037 -0.6191  0.1771  0.7409
   33MOL0     N 4275  10.423   2.063   3.005 -0.4847  1.1291  0.2690
   33MOL0     C 4276  11.161   1.827   2.308 -0.6787  0.4950  0.4708
   33MOL0     C 4277  11.279   1.790   2.231  0.6800  0.0390 -0.7930
   33MOL0     C 4278  11.507   1.744   1.872 -0.0811 -0.2794  0.1774
   33MOL0     C 4279  11.464   1.723   1.740 -0.1699 -0.3352  0.0184
   33MOL0     C 4280  11.555   1.687   1.636  0.1833 -0.2654  0.2171
   33MOL0     C 4281  11.684   1.643   1.675 -1.1114 -0.0264  0.3568
   33MOL0     O 4282  11.783   1.591   1.580  0.8116  0.7828 -0.6185
   33MOL0     C 4283  11.765   1.586   1.443  0.0394 -0.3140 -0.3793
   33MOL0     C 4284  11.900   1.546   1.368 -0.3023  0.2687 -0.7640
   33MOL0     C 4285  12.022   1.473   1.449  0.2508  0.3350  0.6236
   33MOL0     C 4286  12.149   1.474   1.371 -0.1996  0.3264 -0.4072
   33MOL0     C 4287  12.192   1.603   1.323 -0.3832 -0.5809 -0.2396
   33MOL0     C 4288  12.215   1.713   1.275 -0.9230 -0.0823  0.0419
   33MOL0     C 4289  11.727   1.658   1.813  0.3572 -0.0014 -0.0594
   33MOL0     C 4290  11.638   1.706   1.906  0.7480  0.2842 -0.2520
   33MOL0     H 4291  11.379   2.112   2.152  1.7417 -1.1394 -0.4315
   33MOL0     H 4292  11.188   2.162   2.265  2.0622  1.3275 -1.6009
   33MOL0     H 4293  10.960   1.857   2.515 -3.4326  1.1444  3.2008
   33MOL0     H 4294  10.881   1.852   2.342  0.4243  2.8607 -1.8530
   33MOL0     H 4295  10.728   1.913   2.537  2.4805 -3.9370 -1.4677
   33MOL0     H 4296  10.737   2.026   2.399 -0.3231  0.3795  0.7194
   33MOL0     H 4297  10.888   2.175   2.524  3.4473 -0.1737  2.1175
   33MOL0     H 4298  10.908   2.060   2.650 -1.1943  2.3493  1.9686
   33MOL0     H 4299  10.715   2.271   2.628  0.3724 -0.2656  1.0622
   33MOL0     H 4300  10.626   2.109   2.624  1.3989 -0.9522 -3.5681
   33MOL0     H 4301  10.838   2.203   2.828  0.4617 -2.8584  0.0707
   33MOL0     H 4302  10.738   2.068   2.844 -0.1615  0.4025  0.1240
   33MOL0     H 4303  10.547   2.248   2.829  3.4519 -3.7160 -5.9683
   33MOL0     H 4304  10.661   2.380   2.821  3.3364 -0.8781 -0.6428
   33MOL0     H 4305  10.767   2.310   3.027  0.0730  2.2849 -4.5105
   33MOL0     H 4306  10.589   2.355   3.043  0.4312  1.4082 -4.0256
   33MOL0     H 4307  10.672   2.167   3.205  0.3406 -0.2621  0.0016
   33MOL0     H 4308  10.686   2.064   3.067  1.2511 -0.6235 -0.7258
   33MOL0     H 4309  10.411   2.200   3.300 -2.7714  0.3621  0.8655
   33MOL0     H 4310  10.104   2.230   3.155 -2.0918  0.1187  0.7158
   33MOL0     H 4311  10.166   2.220   3.311 -1.3591 -0.1667  0.2702
   33MOL0     H 4312   9.983   2.026   3.158  0.0709 -1.4352 -0.2054
   33MOL0     H 4313   9.958   2.092   3.317 -2.2177 -2.9281 -1.7356
   33MOL0     H 4314  10.166   1.883   3.246  1.9117  0.8381  1.5467
   33MOL0     H 4315  10.152   1.953   3.405 -0.2870  4.2290 -0.4470
   33MOL0     H 4316  10.018   1.716   3.325  0.7031 -0.1591 -0.2721
   33MOL0     H 4317   9.895   1.827   3.257 -2.0028  2.3705  2.3336
   33MOL0     H 4318   9.830   1.867   3.690  2.8859 -1.1922 -1.6259
   33MOL0     H 4319   9.612   1.783   3.772  5.0127 -0.3899  2.1248
   33MOL0     H 4320   9.138   1.710   3.443  0.0415 -0.3875 -0.7321
   33MOL0     H 4321   8.891   1.655   3.473  0.6714  0.4599  0.0917
   33MOL0     H 4322   8.790   1.345   3.435 -2.7887  0.0478 -0.8645
   33MOL0     H 4323   8.726   1.516   3.434 -4.5696  1.0981  1.2992
   33MOL0     H 4324   8.575   1.362   3.618  0.1722  0.8841 -0.4873
   33MOL0     H 4325   8.600   1.254   3.487 -2.4935 -0.2645 -0.2356
   33MOL0     H 4326   8.526   1.468   3.346  0.9624 -2.1539  0.1626
   33MOL0     H 4327   8.468   1.541   3.502  1.5190 -0.1162  1.5531
   33MOL0     H 4328   8.352   1.284   3.504  1.3399 -1.1228 -1.0899
   33MOL0     H 4329   8.276   1.430   3.485  0.9427 -0.2571  1.5713
   33MOL0     H 4330   8.423   1.260   3.259 -0.4032 -1.2448  1.4899
   33MOL0     H 4331   8.344   1.409   3.217  2.1942 -1.6706 -2.1846
   33MOL0     H 4332   8.142   1.353   3.315  0.2863  1.3571 -0.3990
   33MOL0     H 4333   8.176   1.181   3.328 -4.7882  2.0169 -0.2065
   33MOL0     H 4334   8.184   1.354   3.075  3.3882 -0.1505  0.6695
   33MOL0     H 4335   8.219   1.179   3.080 -1.8116 -0.3441 -2.0971
   33MOL0     H 4336   7.993   1.133   3.155 -1.2842  0.2871 -1.9676
   33MOL0     H 4337   7.975   1.229   3.007 -2.2126 -1.7157 -0.1154
   33MOL0     H 4338   8.996   1.334   3.724  0.9073  0.3792  1.4063
   33MOL0     H 4339   9.240   1.402   3.710 -0.1953  0.5444  0.6638
   33MOL0     H 4340   9.550   1.583   3.394  1.8404 -0.4614 -0.7483
   33MOL0     H 4341   9.759   1.682   3.313 -2.3284  2.1894 -0.8396
   33MOL0     H 4342  11.114   1.752   2.369  0.0574  1.6324  2.5325
   33MOL0     H 4343  11.315   1.688   2.225 -0.9942 -0.7866  1.7136
   33MOL0     H 4344  11.362   1.753   1.717  0.0690  0.9719  0.5515
   33MOL0     H 4345  11.524   1.694   1.532 -0.8053  3.1186  0.5945
   33MOL0     H 4346  11.740   1.681   1.397 -0.9553 -0.3479  0.0631
   33MOL0     H 4347  11.688   1.513   1.416 -2.0221  1.6777 -0.1538
   33MOL0     H 4348  11.873   1.485   1.282 -2.4422  0.4625 -0.2871
   33MOL0     H 4349  11.942   1.642   1.335  2.2085 -0.2513  0.6426
   33MOL0     H 4350  11.993   1.368   1.461 -1.1865  0.2451 -2.6893
   33MOL0     H 4351  12.042   1.516   1.548 -0.3199  3.1558 -0.4053
   33MOL0     H 4352  12.227   1.432   1.435 -2.6367 -2.0341  1.2554
   33MOL0     H 4353  12.134   1.401   1.290 -2.1251 -1.5010  1.4541
   33MOL0     H 4354  12.237   1.804   1.223 -0.2930 -0.9945 -1.3524
   33MOL0     H 4355  11.820   1.616   1.851  0.4108 -0.2098 -0.4162
   33MOL0     H 4356  11.669   1.726   2.008 -3.2844  0.8483  1.0579
   34MOL0     O 4357   3.346   7.239   2.451 -0.5029  0.7143 -0.7447
   34MOL0     C 4358   3.424   7.143   2.446 -0.0879  0.1534 -0.1205
   34MOL0     O 4359   3.388   7.009   2.475  0.1005  0.5020  0.7802
   34MOL0     C 4360   3.257   6.994   2.507  0.4912  0.3892 -0.2732
   34MOL0     C 4361   3.163   7.003   2.408  1.0050  0.2910  0.3939
   34MOL0     C 4362   3.021   6.984   2.444  0.2384  0.1241 -0.1128
   34MOL0     C 4363   2.993   6.940   2.574  0.0799 -0.9696 -0.3579
   34MOL0     O 4364   2.868   6.909   2.613 -0.0633 -0.4384 -0.6056
   34MOL0     C 4365   2.747   6.953   2.543 -0.7104 -0.3863 -0.6199
   34MOL0     C 4366   2.625   6.894   2.613  0.2464  0.9525  0.6625
   34MOL0     C 4367   2.492   6.929   2.553 -0.0973  0.0962  0.3121
   34MOL0     C 4368   2.388   6.848   2.632 -0.4437  0.4723 -0.1276
   34MOL0     C 4369   2.253   6.865   2.553  0.1168 -0.0422 -0.5531
   34MOL0     C 4370   2.138   6.853   2.644  1.1430 -1.4183  0.5268
   34MOL0     C 4371   2.005   6.865   2.563 -1.3563 -0.0150  0.0337
   34MOL0     C 4372   1.887   6.880   2.655  0.3907  0.3060  0.8713
   34MOL0     N 4373   1.843   6.744   2.701 -0.4271 -0.0737 -0.4096
   34MOL0     C 4374   1.763   6.660   2.628 -0.4667 -0.0034  0.6140
   34MOL0     C 4375   1.752   6.548   2.704  0.2017  0.2813  0.2452
   34MOL0     C 4376   1.653   6.436   2.697 -0.1309  0.1869 -0.1719
   34MOL0     C 4377   1.524   6.464   2.773 -0.2410 -0.2443 -0.1430
   34MOL0     C 4378   1.439   6.577   2.710  0.3336 -0.0543  0.2879
   34MOL0     C 4379   1.306   6.589   2.770  0.7037  0.8844  1.0420
   34MOL0     O 4380   1.252   6.459   2.785 -0.0816 -0.1200  0.3420
   34MOL0     C 4381   1.125   6.456   2.823  0.2028  0.1872 -0.3072
   34MOL0     C 4382   1.038   6.370   2.742 -0.0131 -0.5207  0.4647
   34MOL0     C 4383   0.904   6.352   2.783  0.0276 -0.5729  0.2318
   34MOL0     C 4384   0.848   6.438   2.883 -0.1301  0.3915  0.7209
   34MOL0     C 4385   0.704   6.436   2.913  0.0762  0.4036  0.0024
   34MOL0     O 4386   0.631   6.334   2.851  0.2309  0.1865 -0.8596
   34MOL0     C 4387   0.496   6.357   2.845 -0.6670  0.3383  0.1004
   34MOL0     C 4388   0.420   6.378   2.965  0.2808  0.4941  0.5803
   34MOL0     C 4389   0.289   6.429   2.961 -0.0900  0.2203  0.7486
   34MOL0     C 4390   0.221   6.466   2.843 -0.0674 -0.5257  0.0721
   34MOL0     O 4391   0.091   6.514   2.858 -0.2996  0.8730  0.4813
   34MOL0     C 4392   0.006   6.481   2.744 -0.2819 -0.0191 -0.2513
   34MOL0     C 4393  -0.136   6.488   2.787  0.0955  0.4351 -0.9560
   34MOL0     C 4394  -0.225   6.475   2.672  0.1018  0.4250  0.4511
   34MOL0     C 4395  -0.376   6.490   2.715  0.4618  0.3956 -0.9841
   34MOL0     C 4396  -0.461   6.465   2.589 -0.2091  0.0329 -0.0207
   34MOL0     C 4397  -0.611   6.500   2.600  0.6730 -0.1404  0.9231
   34MOL0     C 4398  -0.693   6.375   2.624 -0.2769  0.4060  0.5234
   34MOL0     C 4399  -0.810   6.381   2.730  0.2957 -0.6207 -0.2147
   34MOL0    Cl 4400  -0.920   6.522   2.698  0.2523 -0.0183  0.0585
   34MOL0     C 4401   0.304   6.447   2.726  0.2254 -0.5926  1.0414
   34MOL0     C 4402   0.431   6.386   2.730  0.1917  0.7615  0.2165
   34MOL0     O 4403   0.659   6.529   2.983  0.0597 -0.0255  0.5637
   34MOL0     C 4404   0.929   6.534   2.948  0.2286  0.0111  0.0984
   34MOL0     C 4405   1.061   6.544   2.911 -0.1356  0.4297  0.3849
   34MOL0     N 4406   1.838   6.571   2.809 -0.2931  0.1154 -0.6200
   34MOL0     N 4407   1.892   6.690   2.811  0.1209 -0.1096 -0.4465
   34MOL0     C 4408   3.093   6.936   2.668 -0.1285  0.4809  0.2776
   34MOL0     C 4409   3.221   6.957   2.637  0.1908  0.1060 -1.2026
   34MOL0     C 4410   3.561   7.160   2.392  0.0489 -0.2576  0.4860
   34MOL0     C 4411   3.665   7.062   2.403  0.6277  0.0541 -0.1186
   34MOL0     C 4412   3.781   7.087   2.344  0.0386 -0.8916  0.7286
   34MOL0     C 4413   3.812   7.205   2.274  0.2552 -0.5858 -0.0842
   34MOL0     O 4414   3.930   7.245   2.225  0.2224  0.2641  0.2737
   34MOL0     C 4415   4.047   7.167   2.249 -0.0393  0.0298 -1.5356
   34MOL0     C 4416   4.057   7.059   2.143 -0.3129  0.6614 -0.6516
   34MOL0     C 4417   4.163   6.946   2.186  0.0197  0.2344 -0.4300
   34MOL0     C 4418   4.309   6.995   2.180  0.0578 -0.3253 -0.3172
   34MOL0     C 4419   4.354   7.075   2.059  0.4232  1.1878 -0.8711
   34MOL0     C 4420   4.407   7.151   1.980  0.7734 -0.5318  0.2417
   34MOL0     C 4421   3.720   7.305   2.278  0.4709  0.0122  0.0764
   34MOL0     C 4422   3.592   7.283   2.323 -0.6917  0.3602 -0.5203
   34MOL0     H 4423   3.199   7.024   2.308  0.7038  1.6247  0.5425
   34MOL0     H 4424   2.953   6.982   2.360  1.0594  0.3726 -0.8022
   34MOL0     H 4425   2.741   6.915   2.441 -0.5941 -0.8100 -0.4706
   34MOL0     H 4426   2.740   7.062   2.549  0.8813 -0.1695 -1.9357
   34MOL0     H 4427   2.629   6.925   2.718 -0.9408 -1.7106  1.5987
   34MOL0     H 4428   2.625   6.784   2.617  1.2660  0.9714  2.4731
   34MOL0     H 4429   2.495   6.904   2.446  1.8233  1.2785  0.0301
   34MOL0     H 4430   2.480   7.036   2.573 -0.2681 -0.4251  3.4591
   34MOL0     H 4431   2.414   6.742   2.644  0.0383  0.7217  1.2501
   34MOL0     H 4432   2.369   6.894   2.729  1.4775  0.0883  0.4756
   34MOL0     H 4433   2.254   6.802   2.464  4.7629  0.8585 -1.4135
   34MOL0     H 4434   2.253   6.967   2.512 -1.7132  0.1813 -0.0921
   34MOL0     H 4435   2.140   6.938   2.714  1.2776 -1.8381  1.0395
   34MOL0     H 4436   2.142   6.761   2.703  0.7204 -1.6244  0.2374
   34MOL0     H 4437   2.011   6.950   2.494 -1.4419  1.2416  1.5392
   34MOL0     H 4438   1.993   6.783   2.492 -3.3378 -0.4209  0.7588
   34MOL0     H 4439   1.803   6.930   2.605 -2.1987 -4.0002  0.4523
   34MOL0     H 4440   1.917   6.946   2.737  1.9022  3.0516 -1.6370
   34MOL0     H 4441   1.705   6.671   2.537  0.8636 -0.5598 -0.3341
   34MOL0     H 4442   1.706   6.353   2.745 -1.1481 -2.5367 -3.3901
   34MOL0     H 4443   1.639   6.403   2.594 -4.2050  3.2811 -0.8904
   34MOL0     H 4444   1.552   6.492   2.875 -0.7859  1.0077 -0.3223
   34MOL0     H 4445   1.465   6.372   2.781  2.0649 -1.6667  2.3578
   34MOL0     H 4446   1.486   6.676   2.719 -2.9962  1.6543  0.2647
   34MOL0     H 4447   1.430   6.550   2.604 -0.2979 -1.9708  0.8003
   34MOL0     H 4448   1.243   6.656   2.711 -0.3722 -0.3158  0.7572
   34MOL0     H 4449   1.314   6.648   2.861 -1.0593  2.8053  0.0347
   34MOL0     H 4450   1.070   6.309   2.658  2.3404 -1.2912  1.8450
   34MOL0     H 4451   0.843   6.277   2.733  1.0987  0.0504 -2.1978
   34MOL0     H 4452   0.462   6.372   3.064  1.3542 -0.0522  0.1095
   34MOL0     H 4453   0.239   6.422   3.057 -0.8298 -0.4168  0.3258
   34MOL0     H 4454   0.031   6.385   2.698  0.2008 -0.7143  1.3903
   34MOL0     H 4455   0.022   6.563   2.673 -0.1431  0.8546  0.7578
   34MOL0     H 4456  -0.162   6.584   2.834 -2.1185 -1.2783  1.6169
   34MOL0     H 4457  -0.158   6.421   2.870 -2.2607  3.0145  0.6881
   34MOL0     H 4458  -0.217   6.373   2.634  1.4681  0.4661  0.5862
   34MOL0     H 4459  -0.195   6.545   2.594  1.3060 -0.6134 -0.0491
   34MOL0     H 4460  -0.389   6.412   2.791  1.3084 -1.1377 -2.3455
   34MOL0     H 4461  -0.412   6.584   2.758  1.3300  0.7175 -0.9356
   34MOL0     H 4462  -0.445   6.367   2.543  2.4549  0.7541 -0.7834
   34MOL0     H 4463  -0.432   6.528   2.504  0.0334 -0.0014  0.0362
   34MOL0     H 4464  -0.649   6.552   2.512 -2.9576  1.8671  3.3969
   34MOL0     H 4465  -0.623   6.566   2.686 -0.4595 -0.3021  0.8973
   34MOL0     H 4466  -0.731   6.335   2.530 -1.4548 -0.0446  1.1683
   34MOL0     H 4467  -0.621   6.300   2.658  0.5415  0.8219 -0.2512
   34MOL0     H 4468  -0.760   6.377   2.827  1.2517  3.2695 -0.3835
   34MOL0     H 4469  -0.876   6.294   2.722  0.8041 -1.3773  2.6790
   34MOL0     H 4470   0.259   6.471   2.630 -0.2979 -1.1168  1.1464
   34MOL0     H 4471   0.479   6.358   2.637 -2.5826 -0.1857 -1.0334
   34MOL0     H 4472   0.877   6.602   3.016  1.9952  1.4369  0.0964
   34MOL0     H 4473   1.121   6.605   2.978 -0.3831 -1.0928  2.0708
   34MOL0     H 4474   3.073   6.902   2.770 -1.2054 -0.2536 -0.1527
   34MOL0     H 4475   3.300   6.936   2.709 -1.5213 -2.3386  0.0819
   34MOL0     H 4476   3.653   6.970   2.459  0.0221 -0.1980 -0.6499
   34MOL0     H 4477   3.849   7.002   2.346  1.3066  0.0221 -0.6864
   34MOL0     H 4478   4.050   7.121   2.348 -0.7715  0.3523 -1.3575
   34MOL0     H 4479   4.135   7.230   2.235 -0.3719  0.6226 -1.0172
   34MOL0     H 4480   3.962   7.011   2.120  0.1350 -1.9772  2.1922
   34MOL0     H 4481   4.087   7.113   2.053  0.3199 -0.3185 -1.0550
   34MOL0     H 4482   4.140   6.871   2.110  1.2374  0.0863 -0.6643
   34MOL0     H 4483   4.145   6.910   2.288  2.9412  4.8017  2.0399
   34MOL0     H 4484   4.319   7.058   2.268  0.3775 -1.0305  0.1564
   34MOL0     H 4485   4.372   6.906   2.186 -0.6789 -1.0656 -2.4163
   34MOL0     H 4486   4.446   7.223   1.911 -0.0499 -0.3622 -0.0618
   34MOL0     H 4487   3.739   7.402   2.234  1.8269 -1.6150 -3.2297
   34MOL0     H 4488   3.512   7.356   2.312 -0.7500  0.4070  0.1582
   35MOL0     O 4489   0.817   6.150   8.492 -0.5529  0.1631 -0.2776
   35MOL0     C 4490   0.893   6.104   8.409 -1.0022 -0.6603  0.5467
   35MOL0     O 4491   0.926   6.175   8.292  0.0774  0.2411 -0.7143
   35MOL0     C 4492   0.844   6.289   8.268  0.6090 -0.9000 -0.7010
   35MOL0     C 4493   0.765   6.291   8.147  0.4281 -0.2824  0.7545
   35MOL0     C 4494   0.661   6.380   8.119  0.0995  0.2468 -0.0081
   35MOL0     C 4495   0.658   6.505   8.195  0.0590 -0.1100 -0.0683
   35MOL0     O 4496   0.562   6.607   8.172  0.1090 -0.5813  0.9823
   35MOL0     C 4497   0.495   6.624   8.047 -1.3319  0.2951  0.2537
   35MOL0     C 4498   0.439   6.767   8.023  0.6252 -0.0521 -1.1932
   35MOL0     C 4499   0.400   6.798   7.877 -0.0194 -0.9775  0.3075
   35MOL0     C 4500   0.326   6.931   7.866  0.5536 -0.2683 -0.3941
   35MOL0     C 4501   0.175   6.922   7.898  0.4062 -0.8462  0.5596
   35MOL0     C 4502   0.101   6.870   7.762  0.6422  0.3526 -0.0885
   35MOL0     C 4503  -0.053   6.878   7.778  0.0478 -0.4148  0.1108
   35MOL0     C 4504  -0.104   6.761   7.885 -0.6675 -0.3526  0.2712
   35MOL0     N 4505  -0.244   6.715   7.876 -1.5275 -0.2190  0.1170
   35MOL0     C 4506  -0.357   6.783   7.900  0.0731 -0.3058 -0.3234
   35MOL0     C 4507  -0.454   6.689   7.905 -0.6330 -0.2756 -0.0509
   35MOL0     C 4508  -0.600   6.704   7.918  1.1079 -1.2404 -1.2093
   35MOL0     C 4509  -0.645   6.605   8.019  0.3854  0.7950  0.2559
   35MOL0     C 4510  -0.796   6.618   8.051 -0.2683 -0.3816  0.5694
   35MOL0     C 4511  -0.902   6.597   7.940  0.0974  0.0502 -0.0462
   35MOL0     O 4512  -1.029   6.612   8.007  0.8999  0.5783 -0.4344
   35MOL0     C 4513  -1.138   6.561   7.953 -0.3528 -0.3440 -0.1989
   35MOL0     C 4514  -1.148   6.508   7.818  0.6630 -0.3329 -0.0541
   35MOL0     C 4515  -1.280   6.491   7.767  0.3598 -0.2355 -0.1249
   35MOL0     C 4516  -1.390   6.518   7.845 -0.0229  0.6177  0.6060
   35MOL0     C 4517  -1.527   6.523   7.781  0.7629  0.1316  0.3233
   35MOL0     O 4518  -1.630   6.565   7.867 -1.2708 -0.5181  0.6742
   35MOL0     C 4519  -1.756   6.598   7.808  0.0965  0.8346 -0.8886
   35MOL0     C 4520  -1.806   6.727   7.836  0.1176  0.4173  0.2744
   35MOL0     C 4521  -1.918   6.774   7.769 -0.4425 -0.2436  1.0534
   35MOL0     C 4522  -1.986   6.694   7.674 -0.6118 -0.3619 -0.1075
   35MOL0     O 4523  -2.086   6.747   7.593 -0.4898  0.0915  0.2606
   35MOL0     C 4524  -2.153   6.871   7.629 -0.0399 -0.4634  0.3808
   35MOL0     C 4525  -2.275   6.878   7.545 -0.2176 -0.1976 -0.3152
   35MOL0     C 4526  -2.385   6.776   7.584  0.4175  0.3345  1.2618
   35MOL0     C 4527  -2.508   6.770   7.493 -0.6541  0.0979  0.1592
   35MOL0     C 4528  -2.607   6.669   7.547 -0.3245  0.0053  0.5691
   35MOL0     C 4529  -2.753   6.691   7.510 -0.0442 -0.9862  0.3556
   35MOL0     C 4530  -2.844   6.574   7.559 -0.6392 -0.5137  0.2117
   35MOL0     C 4531  -2.989   6.594   7.513  0.3810  0.0212 -0.6479
   35MOL0    Cl 4532  -3.099   6.473   7.598 -0.4478  0.0458 -0.3564
   35MOL0     C 4533  -1.948   6.559   7.661 -0.0891 -0.0299 -0.8091
   35MOL0     C 4534  -1.817   6.516   7.711 -0.0423 -0.0142 -0.8286
   35MOL0     O 4535  -1.537   6.507   7.659  0.6065  0.3438  0.0951
   35MOL0     C 4536  -1.376   6.555   7.984  0.3499  0.7132  0.4775
   35MOL0     C 4537  -1.245   6.575   8.034  0.1314  0.3530 -0.6599
   35MOL0     N 4538  -0.398   6.570   7.868  0.2296  0.1922 -1.4546
   35MOL0     N 4539  -0.282   6.588   7.850  0.3331  0.3665  0.4721
   35MOL0     C 4540   0.752   6.524   8.302  0.0983 -0.0807 -0.1058
   35MOL0     C 4541   0.828   6.412   8.342  1.0447  0.2615  0.2475
   35MOL0     C 4542   0.947   5.969   8.431 -0.0311 -0.4785  0.7891
   35MOL0     C 4543   0.930   5.890   8.539  0.7674 -0.2268 -0.5674
   35MOL0     C 4544   0.992   5.767   8.553 -0.2665  1.2063 -0.1332
   35MOL0     C 4545   1.089   5.723   8.466 -0.5969  0.0118  0.2666
   35MOL0     O 4546   1.171   5.622   8.504  0.0500  0.0185  1.0320
   35MOL0     C 4547   1.285   5.563   8.435  0.0392  0.5578 -0.9050
   35MOL0     C 4548   1.258   5.470   8.313 -0.6941  0.2836  0.3852
   35MOL0     C 4549   1.360   5.360   8.300  0.3704 -0.4972  0.8653
   35MOL0     C 4550   1.306   5.252   8.214  0.0920  0.3224 -0.1823
   35MOL0     C 4551   1.421   5.181   8.166  0.4812 -0.8453 -0.8330
   35MOL0     C 4552   1.509   5.116   8.126 -0.2720 -0.4840  0.7287
   35MOL0     C 4553   1.110   5.801   8.351 -0.1862  0.6614 -0.2477
   35MOL0     C 4554   1.039   5.921   8.335  0.4185  0.0459  0.1326
   35MOL0     H 4555   0.771   6.196   8.094  1.1479  0.7055 -1.0655
   35MOL0     H 4556   0.588   6.357   8.042 -1.1158  1.1922  0.8274
   35MOL0     H 4557   0.412   6.553   8.061 -0.0143 -1.6934 -1.4297
   35MOL0     H 4558   0.561   6.592   7.966  0.6582  0.5498  1.7074
   35MOL0     H 4559   0.504   6.842   8.070  0.6794 -1.8451  1.8103
   35MOL0     H 4560   0.347   6.771   8.081  0.9092  1.7270 -0.7914
   35MOL0     H 4561   0.324   6.728   7.839 -2.2786  0.3688  2.1063
   35MOL0     H 4562   0.494   6.794   7.821 -0.3757 -2.1078 -0.2520
   35MOL0     H 4563   0.380   7.003   7.928 -0.1575  0.0718 -0.1523
   35MOL0     H 4564   0.337   6.962   7.762  1.3352  1.0465  0.0544
   35MOL0     H 4565   0.137   7.024   7.909 -0.8064 -1.1986 -0.1657
   35MOL0     H 4566   0.149   6.868   7.990 -1.2534 -0.6419  0.2407
   35MOL0     H 4567   0.128   6.769   7.732 -1.1098  0.2339 -1.3561
   35MOL0     H 4568   0.129   6.925   7.672  1.0168 -3.3759 -2.4748
   35MOL0     H 4569  -0.079   6.980   7.809  1.4417  0.8533 -2.4901
   35MOL0     H 4570  -0.096   6.869   7.678  0.9847 -2.6231 -0.1415
   35MOL0     H 4571  -0.097   6.807   7.984 -1.2521 -2.1914  1.1994
   35MOL0     H 4572  -0.046   6.669   7.878 -0.6357 -0.2335 -1.7039
   35MOL0     H 4573  -0.372   6.886   7.928  1.8990 -0.0421 -0.2183
   35MOL0     H 4574  -0.648   6.691   7.821  3.0997  1.1720 -2.6218
   35MOL0     H 4575  -0.623   6.804   7.956  1.3674 -0.2798 -3.4390
   35MOL0     H 4576  -0.585   6.599   8.110  3.2413 -1.9163 -1.5754
   35MOL0     H 4577  -0.633   6.505   7.975 -0.3123  1.9382 -2.8191
   35MOL0     H 4578  -0.802   6.542   8.129  0.0790 -2.1445 -1.0440
   35MOL0     H 4579  -0.818   6.719   8.086  1.4416  0.0638  0.4490
   35MOL0     H 4580  -0.886   6.502   7.889  0.2903  0.6303 -1.0924
   35MOL0     H 4581  -0.882   6.677   7.868  2.1468  1.2841  1.7743
   35MOL0     H 4582  -1.064   6.486   7.753 -0.7081  0.9046 -2.3710
   35MOL0     H 4583  -1.298   6.464   7.664 -1.3448 -1.2366  0.3786
   35MOL0     H 4584  -1.752   6.786   7.910  1.5005 -0.7237  0.2240
   35MOL0     H 4585  -1.945   6.875   7.796 -1.0002  0.5236 -1.9985
   35MOL0     H 4586  -2.088   6.959   7.616 -1.0029  0.2578  0.3479
   35MOL0     H 4587  -2.185   6.873   7.733 -3.1984 -2.6293 -0.4316
   35MOL0     H 4588  -2.238   6.863   7.443 -0.0142  1.7324 -0.5585
   35MOL0     H 4589  -2.313   6.980   7.549 -0.8215 -0.4240 -0.1568
   35MOL0     H 4590  -2.425   6.777   7.686  2.2807 -2.8519  2.1501
   35MOL0     H 4591  -2.339   6.678   7.574 -2.0565 -0.6912 -1.9855
   35MOL0     H 4592  -2.558   6.867   7.486  1.8040  1.3450 -1.3430
   35MOL0     H 4593  -2.480   6.744   7.391 -0.3251  0.0250  0.2659
   35MOL0     H 4594  -2.600   6.684   7.655 -0.6299  0.7878  0.4848
   35MOL0     H 4595  -2.571   6.566   7.533 -0.0129  0.0943  0.7117
   35MOL0     H 4596  -2.747   6.691   7.401  2.5347 -1.7982  0.4444
   35MOL0     H 4597  -2.788   6.789   7.545 -1.7672 -1.3146 -0.3170
   35MOL0     H 4598  -2.816   6.478   7.516  0.3711 -1.2312  2.3463
   35MOL0     H 4599  -2.824   6.573   7.666  1.2441 -0.2662 -0.0894
   35MOL0     H 4600  -3.000   6.581   7.405 -1.4340  0.9482 -0.5954
   35MOL0     H 4601  -3.023   6.695   7.537 -2.2272 -1.5962  3.5482
   35MOL0     H 4602  -2.007   6.486   7.606  2.0026 -2.0177 -0.5903
   35MOL0     H 4603  -1.773   6.417   7.700  4.8716  1.8560 -0.5234
   35MOL0     H 4604  -1.462   6.578   8.046  0.8668  1.5167  0.9052
   35MOL0     H 4605  -1.235   6.598   8.139  1.5366  2.1507 -1.1301
   35MOL0     H 4606   0.760   6.622   8.348 -0.4477  0.2918 -0.7724
   35MOL0     H 4607   0.892   6.422   8.429  0.1141 -0.0026  0.9892
   35MOL0     H 4608   0.861   5.916   8.618  1.6683  1.4547 -0.2789
   35MOL0     H 4609   0.982   5.717   8.649  2.6676 -0.9672 -0.8240
   35MOL0     H 4610   1.342   5.513   8.515 -4.1773 -1.8267  0.9625
   35MOL0     H 4611   1.355   5.637   8.395  0.9456 -1.3937 -3.2480
   35MOL0     H 4612   1.157   5.429   8.321 -1.4009  1.6885 -0.7348
   35MOL0     H 4613   1.255   5.530   8.221 -1.0526  0.1406  0.3024
   35MOL0     H 4614   1.393   5.322   8.397  1.8861 -2.2481 -0.2687
   35MOL0     H 4615   1.443   5.406   8.245 -1.7048  0.8462 -1.3052
   35MOL0     H 4616   1.244   5.186   8.277 -3.3838  1.4393 -2.1584
   35MOL0     H 4617   1.250   5.294   8.130  1.1778 -0.4904 -1.3498
   35MOL0     H 4618   1.587   5.049   8.098 -1.8863 -3.0167  1.9755
   35MOL0     H 4619   1.194   5.770   8.290 -0.7245 -3.3237  0.7618
   35MOL0     H 4620   1.077   5.973   8.247 -2.7609 -0.6326 -1.7786
   36MOL0     O 4621   9.083   4.289   9.358 -0.1669 -0.6934  0.9577
   36MOL0     C 4622   8.999   4.209   9.399  0.5909  0.1623  0.4699
   36MOL0     O 4623   9.024   4.082   9.442 -0.3349  0.7401 -0.1571
   36MOL0     C 4624   9.156   4.038   9.437  0.4218 -0.0311 -0.4334
   36MOL0     C 4625   9.177   3.904   9.395  0.0240  0.2511 -0.8979
   36MOL0     C 4626   9.304   3.854   9.380  0.8015 -0.1476 -0.1874
   36MOL0     C 4627   9.423   3.931   9.411 -0.6211  0.4292 -0.3292
   36MOL0     O 4628   9.551   3.890   9.400 -0.2207 -0.1435  0.0670
   36MOL0     C 4629   9.574   3.773   9.317 -0.3001 -0.1389 -0.5226
   36MOL0     C 4630   9.723   3.759   9.307 -0.4107 -0.7866 -0.0185
   36MOL0     C 4631   9.787   3.691   9.429  0.3262 -0.9960 -1.1133
   36MOL0     C 4632   9.938   3.669   9.404  0.4725  0.2365  0.4358
   36MOL0     C 4633   9.998   3.593   9.527  0.2163  0.2332  0.1526
   36MOL0     C 4634  10.127   3.513   9.497  0.5212 -0.1184  0.0964
   36MOL0     C 4635  10.246   3.598   9.485  0.1147 -0.6028  0.0130
   36MOL0     C 4636  10.370   3.518   9.462 -0.2721  0.5688 -0.1124
   36MOL0     N 4637  10.483   3.601   9.424  0.1407 -0.3470  0.0501
   36MOL0     C 4638  10.523   3.721   9.482 -0.0963  0.0720  0.9289
   36MOL0     C 4639  10.605   3.771   9.387 -0.3600 -0.1820 -0.3911
   36MOL0     C 4640  10.677   3.908   9.391  0.8417 -0.3971 -0.0190
   36MOL0     C 4641  10.812   3.918   9.462  1.3569  0.3931 -0.9394
   36MOL0     C 4642  10.937   3.854   9.390  0.4379 -0.2394  0.0041
   36MOL0     C 4643  10.949   3.914   9.251 -0.5430  0.0765  0.4881
   36MOL0     O 4644  10.972   4.058   9.262 -0.0992 -0.0744 -0.5437
   36MOL0     C 4645  11.095   4.108   9.305  0.1122 -0.3169  1.2090
   36MOL0     C 4646  11.098   4.247   9.336  0.2732 -0.8992 -1.0721
   36MOL0     C 4647  11.214   4.307   9.378  0.2761 -0.2963 -0.8318
   36MOL0     C 4648  11.339   4.241   9.383  0.3020 -0.1006 -1.0226
   36MOL0     C 4649  11.457   4.308   9.434 -0.0860 -0.6277 -1.1772
   36MOL0     O 4650  11.574   4.237   9.440 -0.1318 -0.0907  0.2250
   36MOL0     C 4651  11.686   4.275   9.505 -0.3578  0.3740  0.4160
   36MOL0     C 4652  11.816   4.295   9.444  0.8426  0.1542  0.4310
   36MOL0     C 4653  11.919   4.334   9.522  0.1338 -0.0917  0.4127
   36MOL0     C 4654  11.905   4.354   9.657  0.9091 -0.9207 -0.6658
   36MOL0     O 4655  12.020   4.391   9.724  0.2178  0.0112 -0.7449
   36MOL0     C 4656  12.013   4.527   9.763  0.0398  0.1727 -0.4841
   36MOL0     C 4657  12.060   4.544   9.909 -0.2828 -0.3106  1.2091
   36MOL0     C 4658  12.217   4.527   9.920  0.4291  0.2758  0.6868
   36MOL0     C 4659  12.271   4.577  10.057  0.8367  1.2320 -0.2553
   36MOL0     C 4660  12.294   4.724  10.060  0.1421 -0.6235  0.1141
   36MOL0     C 4661  12.362   4.764  10.183 -0.2728  0.3418 -0.8350
   36MOL0     C 4662  12.401   4.910  10.190  0.5090 -0.2996 -0.4197
   36MOL0     C 4663  12.555   4.961  10.181  0.5933  0.0044 -0.7371
   36MOL0    Cl 4664  12.622   4.942  10.019  0.4560  0.0791  0.3757
   36MOL0     C 4665  11.778   4.334   9.712 -0.5190 -0.2230 -0.8490
   36MOL0     C 4666  11.673   4.305   9.641  1.1408 -0.5227  1.5853
   36MOL0     O 4667  11.444   4.423   9.471  0.7013  0.3777 -0.2081
   36MOL0     C 4668  11.339   4.107   9.336  0.4014  0.2004 -0.0887
   36MOL0     C 4669  11.219   4.043   9.306 -0.7410 -0.1437 -0.3762
   36MOL0     N 4670  10.617   3.689   9.279 -0.0473  0.3429 -0.1761
   36MOL0     N 4671  10.532   3.598   9.295 -0.2376 -0.8527  0.8176
   36MOL0     C 4672   9.401   4.066   9.461  0.4365  0.6514 -0.3027
   36MOL0     C 4673   9.268   4.111   9.473  0.0795 -0.7747  0.0514
   36MOL0     C 4674   8.858   4.255   9.418  0.5536  0.7735  0.7234
   36MOL0     C 4675   8.830   4.386   9.383  1.3636 -0.5776  0.6042
   36MOL0     C 4676   8.698   4.432   9.390 -0.5649  0.8614 -0.4768
   36MOL0     C 4677   8.607   4.351   9.455  0.5460 -1.2955 -0.4651
   36MOL0     O 4678   8.484   4.410   9.474  0.2345  0.4909  0.2670
   36MOL0     C 4679   8.364   4.340   9.511 -1.5960  0.2677  0.4967
   36MOL0     C 4680   8.238   4.438   9.531  0.3040  0.7783  0.6840
   36MOL0     C 4681   8.277   4.566   9.599  0.7397 -0.2477 -0.6550
   36MOL0     C 4682   8.309   4.535   9.749  0.4003 -0.3973 -1.1048
   36MOL0     C 4683   8.181   4.510   9.809  0.2513 -0.1301  0.1476
   36MOL0     C 4684   8.072   4.489   9.860 -0.2550  0.1146  0.2655
   36MOL0     C 4685   8.636   4.226   9.499  0.8007  0.6938 -1.0869
   36MOL0     C 4686   8.763   4.170   9.483 -0.6353 -0.2766 -0.2712
   36MOL0     H 4687   9.094   3.839   9.368  0.1494 -1.0998  1.6438
   36MOL0     H 4688   9.311   3.759   9.327  1.1093 -0.6392  0.7025
   36MOL0     H 4689   9.543   3.795   9.215  1.5425  3.3463 -0.4923
   36MOL0     H 4690   9.527   3.683   9.357 -1.6885  0.9945  0.5335
   36MOL0     H 4691   9.764   3.857   9.282 -1.9335 -0.7084 -2.5266
   36MOL0     H 4692   9.741   3.698   9.217  1.8886  0.9223 -0.7932
   36MOL0     H 4693   9.744   3.590   9.436 -1.8726 -0.0143  0.9759
   36MOL0     H 4694   9.768   3.751   9.519 -2.4658 -1.1918 -1.4945
   36MOL0     H 4695   9.952   3.612   9.311  4.7797  1.1822  0.3197
   36MOL0     H 4696   9.988   3.761   9.373  0.4305 -0.7051 -2.8348
   36MOL0     H 4697   9.924   3.522   9.565 -0.4939  0.5618 -0.5724
   36MOL0     H 4698  10.014   3.671   9.602 -0.7818 -0.4547  1.1167
   36MOL0     H 4699  10.110   3.442   9.415  0.7271 -2.2323  1.7936
   36MOL0     H 4700  10.139   3.442   9.580 -2.8785  0.2009  1.0349
   36MOL0     H 4701  10.244   3.667   9.400  0.0708 -0.1997  0.3424
   36MOL0     H 4702  10.241   3.665   9.571 -0.5654 -1.7697  0.9146
   36MOL0     H 4703  10.354   3.441   9.386 -1.0194 -0.5777  1.1511
   36MOL0     H 4704  10.400   3.475   9.558  1.6909 -1.3721 -1.4881
   36MOL0     H 4705  10.494   3.758   9.580  0.6082  0.3793  1.0239
   36MOL0     H 4706  10.608   3.976   9.442  0.4867  0.8876 -2.0766
   36MOL0     H 4707  10.679   3.954   9.292  0.6602 -0.5193 -0.0804
   36MOL0     H 4708  10.815   3.869   9.560  0.1184  4.6598  1.4856
   36MOL0     H 4709  10.838   4.021   9.491  1.9011 -0.1460  0.5706
   36MOL0     H 4710  11.030   3.861   9.447  0.8071 -3.5214  0.0105
   36MOL0     H 4711  10.930   3.745   9.381 -0.2521 -0.1490 -0.7145
   36MOL0     H 4712  10.868   3.894   9.180  1.5624  0.4575 -2.1965
   36MOL0     H 4713  11.035   3.869   9.200 -0.4483  1.8808 -1.0521
   36MOL0     H 4714  10.999   4.287   9.355 -1.0455 -4.5985  0.8301
   36MOL0     H 4715  11.198   4.407   9.416 -1.6239 -0.9703  0.2737
   36MOL0     H 4716  11.843   4.277   9.340 -1.3198  3.6534 -0.9199
   36MOL0     H 4717  12.011   4.339   9.464 -1.5365 -0.7177 -2.5020
   36MOL0     H 4718  11.912   4.569   9.757 -1.2233 -2.4004  0.9847
   36MOL0     H 4719  12.080   4.580   9.695  1.2339 -0.6686  0.0117
   36MOL0     H 4720  12.005   4.460   9.955 -0.8427 -1.5308 -1.4910
   36MOL0     H 4721  12.039   4.644   9.947 -1.6912 -0.1025 -0.0545
   36MOL0     H 4722  12.272   4.580   9.841  1.8040  0.4590  1.7337
   36MOL0     H 4723  12.239   4.424   9.893  2.3794  0.9685 -0.6857
   36MOL0     H 4724  12.193   4.549  10.128  0.0905  1.4994 -0.9638
   36MOL0     H 4725  12.363   4.521  10.078  0.3541 -0.6948 -2.8763
   36MOL0     H 4726  12.202   4.775  10.032  1.0160 -0.3311 -2.5053
   36MOL0     H 4727  12.370   4.763   9.992 -0.4399  1.1971  0.4652
   36MOL0     H 4728  12.453   4.704  10.189 -1.0601 -0.8225 -0.0028
   36MOL0     H 4729  12.309   4.747  10.277  2.6178 -1.2891  0.6439
   36MOL0     H 4730  12.339   4.964  10.118 -0.9810 -0.7238  0.5063
   36MOL0     H 4731  12.368   4.933  10.292  2.7359 -0.8718  0.5060
   36MOL0     H 4732  12.616   4.908  10.255 -0.7505 -0.7399 -0.1169
   36MOL0     H 4733  12.567   5.068  10.198  2.2619 -0.1803 -0.6156
   36MOL0     H 4734  11.771   4.373   9.813  2.7456  0.8045 -0.8826
   36MOL0     H 4735  11.581   4.287   9.696 -0.1500 -0.2515 -0.3683
   36MOL0     H 4736  11.432   4.056   9.313 -0.2544 -1.6413  1.1701
   36MOL0     H 4737  11.231   3.945   9.260  0.7849  0.4928 -1.4252
   36MOL0     H 4738   9.478   4.133   9.498  1.0900  0.3059 -1.0313
   36MOL0     H 4739   9.258   4.208   9.519 -2.0575  0.4431 -2.6957
   36MOL0     H 4740   8.911   4.442   9.336  0.1334  0.9899  0.2740
   36MOL0     H 4741   8.672   4.529   9.350 -1.0580  1.3113  0.8692
   36MOL0     H 4742   8.385   4.276   9.597 -0.2724  0.3701  0.2783
   36MOL0     H 4743   8.348   4.264   9.434  1.2122 -0.1124  0.1570
   36MOL0     H 4744   8.199   4.457   9.431 -0.7982 -1.7529  0.5593
   36MOL0     H 4745   8.150   4.391   9.577  1.0556 -1.1427  0.2317
   36MOL0     H 4746   8.189   4.630   9.593 -0.1132 -1.0952  1.4754
   36MOL0     H 4747   8.360   4.615   9.548 -0.1741  0.7432 -1.2163
   36MOL0     H 4748   8.365   4.444   9.771  1.2690  0.5369  0.7698
   36MOL0     H 4749   8.362   4.618   9.798 -2.0229 -0.8217  2.6609
   36MOL0     H 4750   7.986   4.480   9.923  1.0000 -0.3208  2.0135
   36MOL0     H 4751   8.555   4.164   9.536 -0.2526  2.4039 -0.4166
   36MOL0     H 4752   8.781   4.065   9.499  2.0655 -0.6531 -4.3905
   37MOL0     O 4753   6.784   5.867   3.093 -0.0479 -0.1203 -0.0025
   37MOL0     C 4754   6.762   5.771   3.024  0.5251 -0.6297  0.2917
   37MOL0     O 4755   6.849   5.704   2.954 -0.7112 -1.0974 -0.1832
   37MOL0     C 4756   6.980   5.741   2.950  0.2617 -0.7138  0.5347
   37MOL0     C 4757   7.073   5.646   2.964 -0.5199  0.1986 -0.2914
   37MOL0     C 4758   7.212   5.667   2.946 -0.1062  0.4514 -0.1897
   37MOL0     C 4759   7.253   5.793   2.903  0.5814  0.9057  0.1323
   37MOL0     O 4760   7.391   5.793   2.906  0.2773 -0.3581 -0.2426
   37MOL0     C 4761   7.449   5.922   2.866  0.2276  0.7821  0.0704
   37MOL0     C 4762   7.600   5.940   2.919  0.8060  0.0987 -0.4706
   37MOL0     C 4763   7.653   6.084   2.892 -0.0560 -0.2922 -0.5411
   37MOL0     C 4764   7.687   6.101   2.741  0.4791  0.3838 -0.5966
   37MOL0     C 4765   7.766   6.238   2.726 -0.8024 -0.0227 -0.1734
   37MOL0     C 4766   7.808   6.252   2.576  1.0910  0.3711  0.1380
   37MOL0     C 4767   7.899   6.370   2.546 -0.3107  0.0040 -0.5185
   37MOL0     C 4768   7.921   6.412   2.401  0.5298  0.6208 -0.2025
   37MOL0     N 4769   7.804   6.454   2.328  0.0325 -0.8315 -0.2534
   37MOL0     C 4770   7.719   6.374   2.260  0.0152  0.6255 -0.4011
   37MOL0     C 4771   7.624   6.454   2.206  0.2353  0.1208  0.0574
   37MOL0     C 4772   7.506   6.399   2.120 -0.4591  0.3002 -0.2181
   37MOL0     C 4773   7.575   6.353   1.999  0.0254  0.2243 -0.1915
   37MOL0     C 4774   7.469   6.296   1.909 -0.3642  0.1238 -0.2285
   37MOL0     C 4775   7.524   6.217   1.788  0.4036  0.0021  0.0683
   37MOL0     O 4776   7.620   6.299   1.720  0.5805 -0.2995  0.6487
   37MOL0     C 4777   7.670   6.262   1.601  0.2347 -0.1908 -0.2730
   37MOL0     C 4778   7.744   6.358   1.531 -0.4018 -0.4113  0.2027
   37MOL0     C 4779   7.812   6.324   1.416  0.8716 -0.4130  0.3334
   37MOL0     C 4780   7.799   6.202   1.362 -0.3966  1.1216 -0.5099
   37MOL0     C 4781   7.889   6.171   1.243 -0.3669 -0.1384 -0.6011
   37MOL0     O 4782   7.971   6.270   1.203  0.2362  0.1726  0.9695
   37MOL0     C 4783   8.049   6.250   1.088  0.2349  0.6091  0.0347
   37MOL0     C 4784   8.137   6.134   1.072  0.4372 -0.5908 -0.8827
   37MOL0     C 4785   8.183   6.108   0.940 -0.3801  1.1082 -0.0815
   37MOL0     C 4786   8.156   6.194   0.841  0.1236 -0.8669  0.7245
   37MOL0     O 4787   8.216   6.156   0.721  0.3391 -0.3388  0.6697
   37MOL0     C 4788   8.232   6.255   0.619 -0.2598  0.7001  0.5999
   37MOL0     C 4789   8.112   6.270   0.519 -0.1231 -0.2777  0.1220
   37MOL0     C 4790   8.043   6.126   0.500  0.5809 -0.3248 -0.5268
   37MOL0     C 4791   7.921   6.140   0.403  0.2391  0.3281  0.1463
   37MOL0     C 4792   7.807   6.205   0.460 -0.0523 -0.6251 -0.2840
   37MOL0     C 4793   7.698   6.225   0.354  0.5172 -0.2568 -0.6291
   37MOL0     C 4794   7.562   6.278   0.412  0.4610  0.6707  0.0164
   37MOL0     C 4795   7.441   6.234   0.317 -0.7075  0.3402 -0.0629
   37MOL0    Cl 4796   7.284   6.258   0.398 -0.5790 -0.1025  0.0907
   37MOL0     C 4797   8.075   6.304   0.863  0.6841  0.1689  0.3897
   37MOL0     C 4798   8.017   6.334   0.990 -0.4695 -0.1045  0.7179
   37MOL0     O 4799   7.878   6.061   1.183  0.1046  0.0221  0.0322
   37MOL0     C 4800   7.723   6.104   1.421 -0.1466 -0.2747  0.6466
   37MOL0     C 4801   7.653   6.137   1.545  0.3919 -0.4047  0.3489
   37MOL0     N 4802   7.654   6.584   2.227 -0.0112  0.6587 -0.6308
   37MOL0     N 4803   7.759   6.581   2.289 -0.6929 -0.1003  0.4739
   37MOL0     C 4804   7.154   5.895   2.899  0.8749  0.3093  0.2597
   37MOL0     C 4805   7.018   5.863   2.900 -0.5085  0.0761  0.2939
   37MOL0     C 4806   6.618   5.752   2.993  0.4191  0.0685 -1.5243
   37MOL0     C 4807   6.572   5.626   2.941 -0.3745 -0.1655 -1.0425
   37MOL0     C 4808   6.442   5.602   2.892 -0.4049 -0.2485 -0.0764
   37MOL0     C 4809   6.354   5.707   2.898  0.8742 -0.4443  0.3708
   37MOL0     O 4810   6.224   5.694   2.862 -0.5582  0.2212 -0.0520
   37MOL0     C 4811   6.198   5.601   2.752  0.0193  0.4407 -0.3094
   37MOL0     C 4812   6.067   5.619   2.682 -0.6732  0.2512  0.4485
   37MOL0     C 4813   5.958   5.548   2.759  0.3038  0.1891 -0.1222
   37MOL0     C 4814   5.829   5.609   2.722  0.2872  0.5550  0.4835
   37MOL0     C 4815   5.785   5.563   2.585 -0.2098  0.8550 -0.6120
   37MOL0     C 4816   5.792   5.513   2.478 -1.1775  0.0634  0.9725
   37MOL0     C 4817   6.390   5.830   2.959  0.5184  1.1348  0.1095
   37MOL0     C 4818   6.518   5.848   3.007  0.5572  0.4355 -1.0198
   37MOL0     H 4819   7.044   5.546   2.994  0.6572  0.3317  1.4661
   37MOL0     H 4820   7.293   5.597   2.965 -1.5062 -1.2222 -0.1791
   37MOL0     H 4821   7.387   6.003   2.906  1.6970  1.9711  0.0338
   37MOL0     H 4822   7.452   5.936   2.757  1.2128  0.9888  0.1200
   37MOL0     H 4823   7.653   5.857   2.872  1.3989 -1.0436  2.0154
   37MOL0     H 4824   7.587   5.911   3.024  0.6037 -0.6420 -0.6943
   37MOL0     H 4825   7.749   6.088   2.944  0.3978 -1.5013 -1.2488
   37MOL0     H 4826   7.592   6.164   2.934  3.2593  1.1601  1.9781
   37MOL0     H 4827   7.744   6.016   2.704 -4.1659 -2.4806 -2.0621
   37MOL0     H 4828   7.594   6.099   2.684 -0.4056 -1.4752  0.8104
   37MOL0     H 4829   7.843   6.230   2.803  0.0639 -1.1825 -1.1230
   37MOL0     H 4830   7.705   6.327   2.745 -1.3058 -0.4786  0.3941
   37MOL0     H 4831   7.719   6.265   2.514  1.1801 -1.2163 -0.3655
   37MOL0     H 4832   7.863   6.163   2.546  2.5424  1.2279  0.1941
   37MOL0     H 4833   7.866   6.458   2.601  4.1096  1.2382  0.5208
   37MOL0     H 4834   8.002   6.345   2.574 -1.6549 -2.3176  2.9401
   37MOL0     H 4835   7.955   6.326   2.342  0.3798  0.2118  0.3071
   37MOL0     H 4836   7.999   6.488   2.393 -1.4443  2.6209 -1.6164
   37MOL0     H 4837   7.732   6.266   2.257  0.2337  0.6287  0.3224
   37MOL0     H 4838   7.435   6.477   2.091  2.6943  2.7536 -2.1111
   37MOL0     H 4839   7.462   6.312   2.169 -1.8746  0.6917 -0.7667
   37MOL0     H 4840   7.637   6.264   2.012 -2.4211 -1.2518  3.1015
   37MOL0     H 4841   7.637   6.436   1.964  2.8325 -0.4771  2.6097
   37MOL0     H 4842   7.406   6.229   1.967  0.6596 -1.0211 -0.4108
   37MOL0     H 4843   7.396   6.371   1.877 -1.4205 -0.9621 -0.4541
   37MOL0     H 4844   7.442   6.209   1.716 -1.3769  0.2205  1.9903
   37MOL0     H 4845   7.567   6.120   1.816  0.7703 -0.3680 -1.6460
   37MOL0     H 4846   7.747   6.456   1.577 -1.3254  0.1655 -0.9223
   37MOL0     H 4847   7.864   6.403   1.363  0.1708 -0.4363 -0.3997
   37MOL0     H 4848   8.155   6.071   1.159  2.0823  0.3995 -0.4575
   37MOL0     H 4849   8.258   6.034   0.913 -1.3178  0.5083 -1.1347
   37MOL0     H 4850   8.318   6.226   0.557 -1.8381  0.4677 -1.6208
   37MOL0     H 4851   8.261   6.350   0.663 -3.1590  0.7798  2.6028
   37MOL0     H 4852   8.148   6.308   0.423 -4.2756  0.9727 -1.1112
   37MOL0     H 4853   8.038   6.342   0.555  1.5642  2.0414 -0.8031
   37MOL0     H 4854   8.012   6.089   0.598  0.8866  1.0549  0.1171
   37MOL0     H 4855   8.107   6.049   0.457 -1.4195 -1.6651 -1.2587
   37MOL0     H 4856   7.951   6.199   0.316 -0.1733 -0.3054 -0.4316
   37MOL0     H 4857   7.899   6.040   0.365 -2.5964  0.2929  1.5638
   37MOL0     H 4858   7.821   6.310   0.485 -1.1726  0.0476 -2.2244
   37MOL0     H 4859   7.773   6.158   0.553 -0.3545  0.3573  0.1173
   37MOL0     H 4860   7.676   6.122   0.324 -1.1409 -0.5400  1.3045
   37MOL0     H 4861   7.740   6.286   0.274 -2.0683  0.4039 -1.5810
   37MOL0     H 4862   7.541   6.225   0.506  1.0117 -0.5270 -0.5037
   37MOL0     H 4863   7.563   6.381   0.447  1.7355  0.8724 -0.5513
   37MOL0     H 4864   7.452   6.129   0.287 -1.3577  0.3710 -0.4293
   37MOL0     H 4865   7.442   6.299   0.229  0.6302 -0.4989 -0.6913
   37MOL0     H 4866   8.055   6.368   0.777  1.7128 -0.4877 -0.3562
   37MOL0     H 4867   7.938   6.407   1.003 -1.4216 -1.1575  1.0351
   37MOL0     H 4868   7.692   6.008   1.382 -6.4174  2.1726 -1.7255
   37MOL0     H 4869   7.598   6.058   1.595 -1.1367 -0.0864 -0.7581
   37MOL0     H 4870   7.181   6.000   2.893  4.4386 -0.5421 -0.9004
   37MOL0     H 4871   6.946   5.943   2.883 -2.6838 -1.8376  0.1138
   37MOL0     H 4872   6.643   5.545   2.932 -0.3212 -0.1013 -1.1977
   37MOL0     H 4873   6.398   5.510   2.855 -2.2000  0.2428  0.7275
   37MOL0     H 4874   6.198   5.497   2.787  1.3569  1.8084  4.3306
   37MOL0     H 4875   6.278   5.598   2.677 -0.3170 -1.3539 -0.6542
   37MOL0     H 4876   6.042   5.723   2.658  0.3685 -0.1641 -2.9793
   37MOL0     H 4877   6.079   5.573   2.584  0.4556  0.4457  0.4833
   37MOL0     H 4878   5.978   5.554   2.867  1.5729 -4.6787  0.1211
   37MOL0     H 4879   5.956   5.441   2.738 -1.1004  0.2361 -0.3538
   37MOL0     H 4880   5.749   5.579   2.789  0.4997 -0.2024  0.4093
   37MOL0     H 4881   5.826   5.719   2.724 -2.3555  0.5335  0.5753
   37MOL0     H 4882   5.819   5.467   2.385 -0.1435  2.7175 -0.1615
   37MOL0     H 4883   6.321   5.913   2.967  0.0502  0.6512  1.2531
   37MOL0     H 4884   6.558   5.942   3.042  3.2628  0.4669 -3.7965
   38MOL0     O 4885   4.085   4.144   7.341 -0.1237 -0.6225  0.6544
   38MOL0     C 4886   4.118   4.157   7.223 -0.6262 -0.3045 -0.0186
   38MOL0     O 4887   4.037   4.207   7.124  0.5577  0.9709  0.5031
   38MOL0     C 4888   3.907   4.229   7.158  0.6337 -0.6332 -0.7986
   38MOL0     C 4889   3.863   4.354   7.113  0.1525  0.1331 -0.5046
   38MOL0     C 4890   3.730   4.391   7.122 -0.6867  0.5009  0.2202
   38MOL0     C 4891   3.637   4.299   7.172 -0.5289 -1.1079  0.0343
   38MOL0     O 4892   3.500   4.317   7.179 -0.5683  0.9289 -1.0768
   38MOL0     C 4893   3.431   4.446   7.157 -0.8397 -0.4807  0.9116
   38MOL0     C 4894   3.341   4.476   7.272  0.1562 -0.2656 -0.3732
   38MOL0     C 4895   3.210   4.388   7.277 -0.2692 -0.8288 -0.4410
   38MOL0     C 4896   3.126   4.442   7.399 -0.2300 -0.0019 -0.1163
   38MOL0     C 4897   3.001   4.364   7.442  0.5700 -0.7538  0.9301
   38MOL0     C 4898   2.939   4.431   7.562 -0.3849 -0.1968 -0.6890
   38MOL0     C 4899   2.810   4.365   7.597  0.1371  0.2488 -0.9510
   38MOL0     C 4900   2.698   4.402   7.513 -0.6468  0.0708  0.4061
   38MOL0     N 4901   2.572   4.369   7.576  0.5315 -0.6886 -0.0229
   38MOL0     C 4902   2.471   4.463   7.587 -0.6477  0.2353  0.3325
   38MOL0     C 4903   2.366   4.399   7.653  0.4888 -0.0446  0.3514
   38MOL0     C 4904   2.240   4.458   7.708 -0.0815 -0.0497 -0.2230
   38MOL0     C 4905   2.256   4.554   7.837 -0.0371  1.0989  0.0220
   38MOL0     C 4906   2.342   4.680   7.800  0.1139 -0.1101 -0.7772
   38MOL0     C 4907   2.304   4.799   7.880  0.4489  0.5528 -0.2231
   38MOL0     O 4908   2.386   4.783   8.003 -0.6121 -0.0513 -0.1615
   38MOL0     C 4909   2.510   4.842   8.016 -0.3080 -0.2223  0.6731
   38MOL0     C 4910   2.582   4.914   7.917 -0.1774 -0.3096  0.1656
   38MOL0     C 4911   2.703   4.973   7.942  0.4094  0.6116 -0.6832
   38MOL0     C 4912   2.756   4.968   8.072 -0.2109 -0.5554 -0.4885
   38MOL0     C 4913   2.891   5.026   8.100  0.3166 -1.4461 -0.4850
   38MOL0     O 4914   2.959   5.099   8.008 -0.7382  0.6455  0.3575
   38MOL0     C 4915   3.052   5.201   8.036  0.1405  0.5444 -0.3728
   38MOL0     C 4916   3.049   5.279   8.157  0.1777 -0.9927  0.1210
   38MOL0     C 4917   3.149   5.383   8.165 -0.0997  0.6268  0.1766
   38MOL0     C 4918   3.234   5.407   8.053 -0.6872 -0.1666 -0.6396
   38MOL0     O 4919   3.296   5.526   8.058  0.1699 -0.3964  0.6250
   38MOL0     C 4920   3.441   5.511   8.041 -0.2995 -0.1164 -0.0277
   38MOL0     C 4921   3.528   5.634   8.062 -0.7202 -0.4659 -1.0058
   38MOL0     C 4922   3.496   5.701   8.195  0.2256 -0.2005  0.3163
   38MOL0     C 4923   3.541   5.598   8.303  0.0721 -0.0147  0.5814
   38MOL0     C 4924   3.588   5.676   8.430  0.2045  1.0574 -1.0208
   38MOL0     C 4925   3.490   5.756   8.512 -0.8237  0.0429 -0.0279
   38MOL0     C 4926   3.362   5.682   8.536 -0.8714  0.6515  0.2851
   38MOL0     C 4927   3.278   5.764   8.625  0.4092  0.7645  0.7526
   38MOL0    Cl 4928   3.344   5.801   8.779  0.3080  0.6055  0.2270
   38MOL0     C 4929   3.230   5.333   7.939  0.9780  0.3526 -0.5248
   38MOL0     C 4930   3.136   5.234   7.941  0.6164  0.3584  0.6143
   38MOL0     O 4931   2.938   5.002   8.211 -0.9261  0.3992  0.6323
   38MOL0     C 4932   2.691   4.892   8.171 -0.0377  1.0675  0.8836
   38MOL0     C 4933   2.563   4.832   8.140  0.0764 -0.4341 -0.1410
   38MOL0     N 4934   2.407   4.263   7.670  0.3699  0.2161 -0.5861
   38MOL0     N 4935   2.529   4.249   7.634  0.4085  0.2249 -0.1425
   38MOL0     C 4936   3.682   4.166   7.202  0.3494  0.4738  0.1236
   38MOL0     C 4937   3.814   4.134   7.201  0.1098  0.0310 -0.1005
   38MOL0     C 4938   4.268   4.167   7.204  0.8772  0.5156 -1.0240
   38MOL0     C 4939   4.317   4.241   7.100  0.6080  0.4589 -0.1083
   38MOL0     C 4940   4.454   4.263   7.086 -0.1741 -0.4624  0.0964
   38MOL0     C 4941   4.547   4.226   7.185 -0.5333 -0.4289 -0.5424
   38MOL0     O 4942   4.685   4.265   7.182 -0.2309  0.2747  0.7213
   38MOL0     C 4943   4.727   4.396   7.165  0.1737  0.1832  0.8532
   38MOL0     C 4944   4.880   4.397   7.142  0.3642  0.1130 -1.0658
   38MOL0     C 4945   4.932   4.387   6.993 -0.7411 -0.6848 -0.4516
   38MOL0     C 4946   5.086   4.378   6.995 -0.1401  0.0148 -0.5054
   38MOL0     C 4947   5.157   4.498   7.051  0.4759 -1.0319  0.9430
   38MOL0     C 4948   5.226   4.583   7.093  0.4683  0.1789 -0.3268
   38MOL0     C 4949   4.500   4.137   7.283 -0.8205  0.1677 -0.0645
   38MOL0     C 4950   4.363   4.109   7.290 -0.7058  0.7226  0.1268
   38MOL0     H 4951   3.938   4.424   7.077  3.5423 -2.6356  0.6076
   38MOL0     H 4952   3.698   4.479   7.067  0.6025  0.7967 -0.1111
   38MOL0     H 4953   3.382   4.458   7.060  0.9558  1.1124  0.1329
   38MOL0     H 4954   3.507   4.525   7.158 -1.0464 -0.2347 -0.6328
   38MOL0     H 4955   3.318   4.583   7.262  3.8603  0.6205 -0.6077
   38MOL0     H 4956   3.381   4.469   7.373  0.1623 -0.1853 -0.3698
   38MOL0     H 4957   3.241   4.286   7.302  1.0257 -0.8166 -1.8704
   38MOL0     H 4958   3.154   4.388   7.183 -2.2169 -2.2728  0.6389
   38MOL0     H 4959   3.189   4.451   7.487 -0.0719  0.4825 -0.2756
   38MOL0     H 4960   3.101   4.547   7.380 -0.5402 -0.0343  0.1078
   38MOL0     H 4961   3.027   4.260   7.463 -0.7066 -1.7074 -1.8598
   38MOL0     H 4962   2.929   4.383   7.363  0.3164  1.2489  1.5803
   38MOL0     H 4963   2.920   4.535   7.534 -0.6325  0.2855  1.1575
   38MOL0     H 4964   2.998   4.418   7.653  0.4505  0.8578 -1.0501
   38MOL0     H 4965   2.810   4.255   7.593  1.5385  0.0161  2.2423
   38MOL0     H 4966   2.793   4.378   7.705  1.6247  1.7555 -0.8761
   38MOL0     H 4967   2.705   4.346   7.419 -0.3310  0.4631  0.1892
   38MOL0     H 4968   2.715   4.506   7.482  3.2130 -0.2688  0.8290
   38MOL0     H 4969   2.469   4.570   7.571 -5.9635  0.6856  1.9346
   38MOL0     H 4970   2.175   4.373   7.729 -2.0835  1.5410  0.3976
   38MOL0     H 4971   2.180   4.504   7.629 -2.1576 -4.1079 -1.2754
   38MOL0     H 4972   2.287   4.502   7.929 -0.3425 -1.9526 -1.4858
   38MOL0     H 4973   2.154   4.584   7.860 -0.2922  0.4328 -0.2300
   38MOL0     H 4974   2.449   4.660   7.806 -0.2473 -2.8413 -1.8019
   38MOL0     H 4975   2.315   4.717   7.701 -0.0752  0.6205 -0.4578
   38MOL0     H 4976   2.195   4.802   7.895  0.1122 -2.2056 -1.4520
   38MOL0     H 4977   2.340   4.893   7.838  4.4442 -0.7238 -0.0009
   38MOL0     H 4978   2.540   4.906   7.817  1.6439  0.1243 -0.6727
   38MOL0     H 4979   2.751   5.021   7.858 -0.4598 -1.1251 -2.2428
   38MOL0     H 4980   2.991   5.245   8.242  1.8618 -0.9052  1.3717
   38MOL0     H 4981   3.160   5.462   8.239 -2.1385 -0.4421  1.7172
   38MOL0     H 4982   3.449   5.479   7.936 -0.3163 -1.8832  0.4792
   38MOL0     H 4983   3.473   5.424   8.099  1.9782 -0.0744 -1.1343
   38MOL0     H 4984   3.488   5.703   7.987  0.5898  1.0708 -0.3493
   38MOL0     H 4985   3.634   5.607   8.056 -0.7066 -1.4982  2.2492
   38MOL0     H 4986   3.389   5.725   8.202 -0.2290 -1.7152 -0.9276
   38MOL0     H 4987   3.557   5.792   8.199 -0.7909  0.4678  1.9387
   38MOL0     H 4988   3.454   5.535   8.322  0.5940 -0.8848  0.1710
   38MOL0     H 4989   3.624   5.532   8.274  1.4025  0.5226  2.9162
   38MOL0     H 4990   3.675   5.742   8.420  2.0993 -0.6338  2.4219
   38MOL0     H 4991   3.631   5.595   8.489  2.4158  1.5098 -1.8975
   38MOL0     H 4992   3.465   5.848   8.458  1.6074  0.3248 -0.7982
   38MOL0     H 4993   3.538   5.769   8.610 -0.9122 -1.3942  0.2342
   38MOL0     H 4994   3.318   5.657   8.439 -0.5018 -0.3170  0.3561
   38MOL0     H 4995   3.381   5.587   8.588  0.3359  0.3682 -0.6343
   38MOL0     H 4996   3.188   5.705   8.645  1.3131 -1.2227 -0.6769
   38MOL0     H 4997   3.247   5.855   8.573 -1.3796  0.0225  0.4401
   38MOL0     H 4998   3.280   5.373   7.851  1.9710 -1.8100 -1.0141
   38MOL0     H 4999   3.120   5.183   7.847 -4.0614  4.4350 -1.2562
   38MOL0     H 5000   2.733   4.884   8.271  0.5723  0.1876  0.5569
   38MOL0     H 5001   2.507   4.786   8.221 -0.2408 -0.9461 -0.6485
   38MOL0     H 5002   3.609   4.111   7.260 -1.1116  0.8604 -1.2564
   38MOL0     H 5003   3.852   4.035   7.225 -0.8055  0.4665  3.7997
   38MOL0     H 5004   4.240   4.289   7.040 -2.2653  1.1724  3.7969
   38MOL0     H 5005   4.499   4.308   6.999 -1.2755  0.9776  0.2295
   38MOL0     H 5006   4.706   4.452   7.256  0.1999 -0.4867  1.2754
   38MOL0     H 5007   4.684   4.434   7.072  3.5263  0.7714 -0.6260
   38MOL0     H 5008   4.904   4.499   7.171 -0.0950 -0.9153  3.8513
   38MOL0     H 5009   4.935   4.335   7.214 -0.7991 -1.4415 -1.4705
   38MOL0     H 5010   4.896   4.468   6.930 -0.1446 -0.8573 -1.0252
   38MOL0     H 5011   4.894   4.296   6.945  0.8615 -1.2181 -0.7922
   38MOL0     H 5012   5.131   4.291   7.045  1.6172  1.0625 -0.1711
   38MOL0     H 5013   5.121   4.360   6.892 -0.5833 -1.4735 -0.4175
   38MOL0     H 5014   5.283   4.661   7.138  0.8227 -0.0685 -0.3427
   38MOL0     H 5015   4.569   4.089   7.352  1.6074 -1.0122 -3.0187
   38MOL0     H 5016   4.332   4.051   7.376  0.8442  2.1195  1.7030
   39MOL0     O 5017   2.300   8.467   9.861 -0.3260 -0.5277  0.0134
   39MOL0     C 5018   2.350   8.419   9.760 -0.4744  0.5057 -1.2232
   39MOL0     O 5019   2.289   8.402   9.649 -0.0203  0.2002  0.7930
   39MOL0     C 5020   2.155   8.417   9.629  0.1490 -0.1466 -0.4395
   39MOL0     C 5021   2.081   8.319   9.566  0.1691 -0.3041 -0.4037
   39MOL0     C 5022   1.954   8.343   9.512  0.8959 -0.8652  0.7026
   39MOL0     C 5023   1.888   8.466   9.524  0.4804 -0.1766 -0.6208
   39MOL0     O 5024   1.765   8.482   9.465  0.4139  1.2110 -0.1026
   39MOL0     C 5025   1.699   8.606   9.499 -1.0566 -0.0251  0.0927
   39MOL0     C 5026   1.551   8.607   9.450 -0.6124 -0.1481 -0.4503
   39MOL0     C 5027   1.477   8.737   9.488  0.6187 -0.6647 -0.0725
   39MOL0     C 5028   1.494   8.851   9.377  0.0957 -1.1777 -0.1173
   39MOL0     C 5029   1.393   8.968   9.399 -0.9909 -0.5423  1.3145
   39MOL0     C 5030   1.267   8.919   9.322  0.7514 -0.5658  0.6326
   39MOL0     C 5031   1.157   9.028   9.312  1.1185  0.8230  0.2580
   39MOL0     C 5032   1.060   8.984   9.206 -0.1087 -1.0641 -0.2639
   39MOL0     N 5033   0.931   9.055   9.182  0.4924  0.3876  0.7732
   39MOL0     C 5034   0.925   9.187   9.169 -0.1305 -0.3790  0.0011
   39MOL0     C 5035   0.792   9.219   9.182 -0.3155 -0.4056  0.1200
   39MOL0     C 5036   0.737   9.363   9.184 -0.2870  0.1644 -0.1929
   39MOL0     C 5037   0.714   9.414   9.048 -0.0767  0.3600  0.1497
   39MOL0     C 5038   0.619   9.342   8.956  0.3395  0.4313 -0.5746
   39MOL0     C 5039   0.472   9.372   9.008 -0.2998 -1.3243  0.2896
   39MOL0     O 5040   0.404   9.317   8.902 -0.5470 -0.1487  0.7690
   39MOL0     C 5041   0.266   9.320   8.915 -0.3727 -0.1395 -0.2147
   39MOL0     C 5042   0.187   9.211   8.871 -0.1200 -0.3609 -0.1188
   39MOL0     C 5043   0.047   9.214   8.875 -0.6602 -0.1237 -0.8620
   39MOL0     C 5044  -0.018   9.332   8.926 -0.3895 -0.6395 -0.4712
   39MOL0     C 5045  -0.167   9.346   8.925 -0.2381  0.1598 -0.0763
   39MOL0     O 5046  -0.217   9.477   8.960 -0.4923  0.7378  0.4572
   39MOL0     C 5047  -0.349   9.502   8.943  0.1597 -0.5926 -0.1687
   39MOL0     C 5048  -0.424   9.535   9.063  0.1971  0.1451  1.0006
   39MOL0     C 5049  -0.554   9.582   9.054 -0.3010  0.1432  0.1053
   39MOL0     C 5050  -0.608   9.599   8.929 -0.2909  0.0702  0.0801
   39MOL0     O 5051  -0.734   9.644   8.909  0.0772 -0.1539  0.1488
   39MOL0     C 5052  -0.771   9.761   8.984 -0.1631  0.4215  0.2294
   39MOL0     C 5053  -0.916   9.790   8.935  0.7812  0.0416 -0.6152
   39MOL0     C 5054  -0.908   9.876   8.806 -0.3459  0.1366  0.5974
   39MOL0     C 5055  -1.043   9.933   8.759  0.1372 -0.0348  0.3994
   39MOL0     C 5056  -1.104   9.837   8.659 -0.0011  0.3692 -0.0662
   39MOL0     C 5057  -1.167   9.719   8.719 -0.0218 -0.4671  0.2421
   39MOL0     C 5058  -1.249   9.636   8.621  0.8215  0.8552  0.1704
   39MOL0     C 5059  -1.383   9.698   8.573 -1.7550  0.7837 -0.3161
   39MOL0    Cl 5060  -1.503   9.709   8.697  0.2114  0.0837 -0.0081
   39MOL0     C 5061  -0.537   9.560   8.812 -0.3379 -0.8485  0.8716
   39MOL0     C 5062  -0.410   9.504   8.820 -0.0443 -0.6931  0.9832
   39MOL0     O 5063  -0.235   9.249   8.892  0.1545 -0.3695  0.0409
   39MOL0     C 5064   0.061   9.449   8.970 -0.1803  0.0978 -0.4871
   39MOL0     C 5065   0.197   9.438   8.967  1.1109  0.8412  0.1098
   39MOL0     N 5066   0.728   9.097   9.213  0.2898 -0.1493 -0.6434
   39MOL0     N 5067   0.810   8.999   9.211  0.7397 -0.7155  0.8434
   39MOL0     C 5068   1.961   8.569   9.598  0.5598  0.3369 -0.6080
   39MOL0     C 5069   2.084   8.540   9.658 -0.0047 -0.4482  0.5449
   39MOL0     C 5070   2.493   8.402   9.771 -0.1286 -0.2751  0.0949
   39MOL0     C 5071   2.564   8.379   9.891  0.1252 -0.1168  0.4622
   39MOL0     C 5072   2.703   8.355   9.897  0.0437 -0.4557  0.4983
   39MOL0     C 5073   2.779   8.370   9.776  0.5524  0.1578 -0.0451
   39MOL0     O 5074   2.916   8.351   9.774  0.4509 -0.3712 -0.5412
   39MOL0     C 5075   3.003   8.422   9.679 -0.3878  0.2419 -0.2377
   39MOL0     C 5076   3.145   8.384   9.718 -0.3124 -0.6079 -0.1103
   39MOL0     C 5077   3.175   8.409   9.870  0.0414 -1.0644  0.1110
   39MOL0     C 5078   3.299   8.508   9.873 -0.5887  0.2889 -0.1149
   39MOL0     C 5079   3.413   8.463   9.797  0.2454 -0.2487 -0.3831
   39MOL0     C 5080   3.513   8.436   9.730 -0.2868 -0.4969  0.6814
   39MOL0     C 5081   2.711   8.411   9.664  0.5706 -0.3941  0.1543
   39MOL0     C 5082   2.574   8.411   9.651  0.1658  0.9461 -0.3158
   39MOL0     H 5083   2.130   8.227   9.537  0.5614  0.7754 -3.5609
   39MOL0     H 5084   1.901   8.262   9.463 -0.6959  0.9491 -0.6890
   39MOL0     H 5085   1.750   8.690   9.450  1.3067 -1.7563 -0.6071
   39MOL0     H 5086   1.695   8.619   9.607  1.1327 -0.4188  0.2650
   39MOL0     H 5087   1.501   8.530   9.509  1.4448 -1.0389  0.2110
   39MOL0     H 5088   1.548   8.583   9.343 -1.5290  2.4114 -1.0622
   39MOL0     H 5089   1.512   8.770   9.586 -1.9722  0.9145  0.4256
   39MOL0     H 5090   1.369   8.724   9.499  0.5852 -0.1235  0.2742
   39MOL0     H 5091   1.595   8.891   9.377  0.6332 -2.0882 -4.0004
   39MOL0     H 5092   1.471   8.813   9.277 -1.8213  0.5272 -0.3986
   39MOL0     H 5093   1.435   9.063   9.364 -1.1042  0.7772  4.4068
   39MOL0     H 5094   1.377   8.989   9.505 -0.1615  2.3268  0.9581
   39MOL0     H 5095   1.210   8.840   9.373 -3.0691  0.7544 -1.1812
   39MOL0     H 5096   1.293   8.888   9.220 -2.3789 -1.9625  0.1249
   39MOL0     H 5097   1.100   9.046   9.404 -1.4339 -2.0531 -0.6058
   39MOL0     H 5098   1.217   9.117   9.290 -0.3975  1.8227  0.0639
   39MOL0     H 5099   1.041   8.877   9.223  0.7907 -1.5587 -2.0194
   39MOL0     H 5100   1.121   8.970   9.116  1.3537 -1.4673  0.7514
   39MOL0     H 5101   1.010   9.255   9.166  0.2218 -0.7892  0.4655
   39MOL0     H 5102   0.815   9.424   9.230  0.1892 -1.4482  1.2447
   39MOL0     H 5103   0.645   9.350   9.242  0.2522 -0.3173  0.5723
   39MOL0     H 5104   0.812   9.415   8.999 -0.3170 -0.2128 -0.3538
   39MOL0     H 5105   0.683   9.519   9.054  0.6364  0.6173 -0.4482
   39MOL0     H 5106   0.631   9.377   8.853 -0.1906 -0.1904 -0.8588
   39MOL0     H 5107   0.642   9.236   8.956  2.0823  0.7893  0.0329
   39MOL0     H 5108   0.447   9.478   9.017 -3.3548 -1.7069 -1.9936
   39MOL0     H 5109   0.451   9.314   9.098 -0.1034 -4.5642 -1.5881
   39MOL0     H 5110   0.246   9.126   8.839  1.2596 -0.0224  1.3864
   39MOL0     H 5111  -0.003   9.121   8.851  0.1689 -0.2435 -2.2228
   39MOL0     H 5112  -0.363   9.525   9.153  0.8634 -2.0139  0.3917
   39MOL0     H 5113  -0.614   9.609   9.140 -3.2744 -1.1178 -1.4409
   39MOL0     H 5114  -0.702   9.842   8.960 -0.4300  0.3731 -0.7425
   39MOL0     H 5115  -0.767   9.725   9.087  1.3594  1.1964  0.4639
   39MOL0     H 5116  -0.961   9.841   9.021  0.5130 -1.7896  0.3970
   39MOL0     H 5117  -0.978   9.702   8.916 -1.3426  1.4488 -0.4668
   39MOL0     H 5118  -0.869   9.814   8.725  0.1989  2.2319 -0.8332
   39MOL0     H 5119  -0.829   9.950   8.818  2.5996 -2.8685  1.2680
   39MOL0     H 5120  -1.109   9.952   8.844  1.3043 -2.9975  2.1282
   39MOL0     H 5121  -1.036  10.029   8.708 -1.8763 -0.8137 -1.4869
   39MOL0     H 5122  -1.036   9.816   8.576 -0.3375  5.0438 -1.8154
   39MOL0     H 5123  -1.194   9.882   8.617  0.5362 -0.6636 -2.4838
   39MOL0     H 5124  -1.234   9.752   8.800 -2.0886  0.8136 -1.8477
   39MOL0     H 5125  -1.099   9.645   8.763 -1.9734 -2.2806  0.3522
   39MOL0     H 5126  -1.183   9.615   8.537 -0.0429  2.7902 -1.0767
   39MOL0     H 5127  -1.274   9.544   8.674  0.9347  1.7505  1.8794
   39MOL0     H 5128  -1.412   9.629   8.494  0.3191 -2.3471  1.4637
   39MOL0     H 5129  -1.353   9.794   8.529  1.2964  0.4848  0.8523
   39MOL0     H 5130  -0.591   9.566   8.718  0.4167  0.1752  0.4829
   39MOL0     H 5131  -0.360   9.465   8.732 -0.9852  1.4412 -0.5775
   39MOL0     H 5132   0.019   9.532   9.026  2.0429  1.0020 -0.0436
   39MOL0     H 5133   0.257   9.522   9.000 -0.2234  2.6882 -1.8800
   39MOL0     H 5134   1.912   8.662   9.626  1.1585 -0.1754  2.4217
   39MOL0     H 5135   2.145   8.616   9.705  4.3182 -2.2126 -1.5726
   39MOL0     H 5136   2.523   8.356   9.989  4.1249 -2.6587  1.8139
   39MOL0     H 5137   2.750   8.316   9.987 -0.1171  0.8628  1.1761
   39MOL0     H 5138   2.987   8.530   9.689 -0.2250  0.1664  1.0043
   39MOL0     H 5139   2.982   8.391   9.577 -0.5594 -0.1476 -0.0880
   39MOL0     H 5140   3.154   8.278   9.692  0.6413  0.0389 -2.7345
   39MOL0     H 5141   3.212   8.437   9.650 -0.2441  0.7294  0.9676
   39MOL0     H 5142   3.190   8.313   9.918 -0.4016 -0.9969  0.3935
   39MOL0     H 5143   3.090   8.461   9.916  0.5639  2.0746 -2.1027
   39MOL0     H 5144   3.279   8.605   9.828  1.3649 -0.0301 -1.8222
   39MOL0     H 5145   3.321   8.523   9.980 -3.5856 -3.9659  1.3794
   39MOL0     H 5146   3.585   8.411   9.655  2.7366  1.1695  2.8111
   39MOL0     H 5147   2.768   8.424   9.572 -0.4442 -2.1588 -0.7976
   39MOL0     H 5148   2.532   8.412   9.551 -1.0175 -0.8580  0.1050
   40MOL0     O 5149   5.477   4.584   6.706  0.4835 -1.0160  0.4206
   40MOL0     C 5150   5.528   4.576   6.590 -0.4514  0.1903 -0.9442
   40MOL0     O 5151   5.455   4.575   6.476 -0.1016 -0.2917  0.6847
   40MOL0     C 5152   5.315   4.564   6.475  0.2791 -0.4845  0.0663
   40MOL0     C 5153   5.243   4.617   6.365 -0.4966  0.7028  0.5802
   40MOL0     C 5154   5.107   4.579   6.345 -0.7003  0.0603 -0.6941
   40MOL0     C 5155   5.043   4.502   6.445 -0.2279  0.0161  0.2428
   40MOL0     O 5156   4.909   4.470   6.422 -0.3695  0.3858 -0.2433
   40MOL0     C 5157   4.868   4.335   6.402  0.4265 -0.3949 -0.0544
   40MOL0     C 5158   4.780   4.287   6.526  0.0741 -0.8510  0.6189
   40MOL0     C 5159   4.675   4.387   6.563 -0.0784  0.1346 -0.7682
   40MOL0     C 5160   4.587   4.343   6.676 -0.7922 -0.5453  1.2908
   40MOL0     C 5161   4.496   4.457   6.734  0.6288 -0.0143  0.3076
   40MOL0     C 5162   4.360   4.442   6.681  0.4821 -0.6018 -0.0921
   40MOL0     C 5163   4.285   4.333   6.745 -0.1136  0.3318 -0.5995
   40MOL0     C 5164   4.138   4.322   6.694 -0.3833  0.7362 -0.0511
   40MOL0     N 5165   4.056   4.438   6.716 -0.9375  0.1968  0.3237
   40MOL0     C 5166   4.049   4.546   6.635  0.0304  0.1249 -0.5387
   40MOL0     C 5167   3.952   4.632   6.687 -0.7233 -0.0530 -0.5069
   40MOL0     C 5168   3.908   4.763   6.629 -0.7116  0.1936  0.7461
   40MOL0     C 5169   3.980   4.882   6.678  0.4835 -0.0723 -0.6259
   40MOL0     C 5170   4.095   4.943   6.583  0.3321  0.3866  0.3237
   40MOL0     C 5171   4.211   4.849   6.583  0.0431 -0.1737  0.6406
   40MOL0     O 5172   4.302   4.898   6.485 -0.6602  0.0206 -0.0832
   40MOL0     C 5173   4.429   4.924   6.533  1.8609  0.1092 -0.2609
   40MOL0     C 5174   4.458   5.052   6.568  0.2234  0.0191  0.6805
   40MOL0     C 5175   4.581   5.081   6.631 -0.0571 -0.2541 -0.2728
   40MOL0     C 5176   4.680   4.981   6.641 -0.9161 -0.0654 -0.7582
   40MOL0     C 5177   4.808   5.026   6.702 -1.1527  0.1056  0.1490
   40MOL0     O 5178   4.900   4.921   6.724 -0.0101  0.2899  0.8184
   40MOL0     C 5179   5.032   4.942   6.742 -0.4698  0.1232 -0.4397
   40MOL0     C 5180   5.122   4.834   6.774  0.5529 -0.5279 -0.2619
   40MOL0     C 5181   5.253   4.854   6.793 -0.3240  0.2005 -1.3627
   40MOL0     C 5182   5.311   4.989   6.773  0.5435  0.4518 -1.1859
   40MOL0     O 5183   5.438   5.017   6.813 -0.9462 -0.7830  0.1609
   40MOL0     C 5184   5.518   4.910   6.857  0.1361 -0.0259 -0.0081
   40MOL0     C 5185   5.657   4.970   6.877 -0.3230 -0.0577  0.3900
   40MOL0     C 5186   5.744   4.955   6.745 -0.3605  0.3606  0.3767
   40MOL0     C 5187   5.881   4.997   6.762  0.3190 -0.2743  0.8021
   40MOL0     C 5188   5.963   4.958   6.640  0.1301 -0.7550  0.3950
   40MOL0     C 5189   6.106   5.014   6.644  0.3777 -0.2575 -0.6371
   40MOL0     C 5190   6.180   4.969   6.520  0.5513 -0.1354  0.4965
   40MOL0     C 5191   6.322   5.001   6.539 -0.0520 -0.1641  0.6066
   40MOL0    Cl 5192   6.414   4.950   6.394  0.9324  0.1877  0.2977
   40MOL0     C 5193   5.234   5.092   6.741  0.7724 -0.8103 -0.0743
   40MOL0     C 5194   5.096   5.065   6.721 -1.1662 -0.5324  0.2264
   40MOL0     O 5195   4.827   5.149   6.715  0.1983 -0.0051  0.2269
   40MOL0     C 5196   4.647   4.845   6.622  0.6278 -0.6183 -0.4123
   40MOL0     C 5197   4.521   4.826   6.564  0.2600 -0.1440  1.4052
   40MOL0     N 5198   3.911   4.579   6.805  0.1799  0.0028  0.6536
   40MOL0     N 5199   3.970   4.465   6.814  0.5046  0.3181 -0.3868
   40MOL0     C 5200   5.112   4.455   6.553  0.3340  0.5267 -0.2177
   40MOL0     C 5201   5.248   4.472   6.560 -0.3794  0.7750 -0.3106
   40MOL0     C 5202   5.675   4.579   6.577  0.0918  0.7884 -0.3549
   40MOL0     C 5203   5.739   4.613   6.458  0.2587  0.3703  0.3061
   40MOL0     C 5204   5.876   4.610   6.435 -0.3359  0.4360 -0.8991
   40MOL0     C 5205   5.957   4.581   6.543 -1.1177  0.0737 -0.2147
   40MOL0     O 5206   6.101   4.576   6.528  0.3992 -0.2071 -0.5820
   40MOL0     C 5207   6.149   4.562   6.395 -1.1207 -1.3281  0.0721
   40MOL0     C 5208   6.302   4.506   6.385 -0.8112  0.0466  0.3667
   40MOL0     C 5209   6.407   4.602   6.445  0.6056 -0.1300 -0.5376
   40MOL0     C 5210   6.550   4.560   6.424  0.4096 -1.2097  0.1722
   40MOL0     C 5211   6.650   4.633   6.505  0.2436 -0.3574 -0.0160
   40MOL0     C 5212   6.737   4.691   6.557 -0.6159 -0.3476 -0.3356
   40MOL0     C 5213   5.903   4.539   6.672  0.0223 -0.2890  1.5281
   40MOL0     C 5214   5.761   4.534   6.685  0.4381 -0.4624  0.7890
   40MOL0     H 5215   5.293   4.681   6.292  0.2233 -0.5953 -0.0911
   40MOL0     H 5216   5.050   4.616   6.260 -1.1485  2.3057  0.4960
   40MOL0     H 5217   4.946   4.257   6.396  0.9940  0.1881 -0.3961
   40MOL0     H 5218   4.804   4.327   6.314  1.3796  1.5984 -0.9877
   40MOL0     H 5219   4.841   4.268   6.615 -3.1110 -0.3743  3.0794
   40MOL0     H 5220   4.736   4.194   6.488  0.0011 -1.3322  1.8272
   40MOL0     H 5221   4.621   4.411   6.471  1.5100  0.7485 -1.5839
   40MOL0     H 5222   4.719   4.480   6.601 -0.9176 -0.2828  1.4113
   40MOL0     H 5223   4.541   4.252   6.638  0.6440 -0.4372 -0.8961
   40MOL0     H 5224   4.646   4.311   6.762 -1.9749 -1.0439  1.9406
   40MOL0     H 5225   4.536   4.557   6.714 -1.5598  0.7509 -0.6232
   40MOL0     H 5226   4.497   4.454   6.843  0.2835 -0.8814  0.2966
   40MOL0     H 5227   4.363   4.430   6.572 -5.1512 -0.6184 -0.5256
   40MOL0     H 5228   4.301   4.531   6.705 -0.8788 -1.1164 -1.4107
   40MOL0     H 5229   4.349   4.244   6.741  0.7227  0.8067  1.2840
   40MOL0     H 5230   4.273   4.350   6.852  2.5040  1.2390 -0.3851
   40MOL0     H 5231   4.089   4.241   6.750  0.5278  1.0892  1.2963
   40MOL0     H 5232   4.141   4.287   6.591  1.8330 -0.6962  0.4299
   40MOL0     H 5233   4.099   4.564   6.540  1.2553 -3.4769 -0.7359
   40MOL0     H 5234   3.800   4.776   6.639 -0.5447  2.4205  0.2853
   40MOL0     H 5235   3.940   4.752   6.525 -2.7813 -2.0469  0.2546
   40MOL0     H 5236   4.022   4.856   6.776 -0.9813  0.4558  0.1615
   40MOL0     H 5237   3.908   4.963   6.693  2.2987  1.1796  2.3753
   40MOL0     H 5238   4.053   4.962   6.484  0.6541  2.6598  0.5655
   40MOL0     H 5239   4.123   5.045   6.612 -0.7211  0.4501  1.1413
   40MOL0     H 5240   4.177   4.747   6.560 -0.2623  0.3551 -1.4312
   40MOL0     H 5241   4.247   4.839   6.686  1.1539 -0.5584  0.2361
   40MOL0     H 5242   4.386   5.131   6.553  2.5170  2.2315  0.6695
   40MOL0     H 5243   4.600   5.187   6.640  0.9541 -0.3548 -1.0189
   40MOL0     H 5244   5.068   4.743   6.800 -1.7979  1.5004  2.5999
   40MOL0     H 5245   5.306   4.762   6.817  0.5953  0.9345 -0.4631
   40MOL0     H 5246   5.523   4.825   6.788  1.3475 -1.9222  2.2947
   40MOL0     H 5247   5.485   4.879   6.956 -1.2689  1.2825 -0.0306
   40MOL0     H 5248   5.723   4.908   6.939  2.2164 -0.9348 -2.9044
   40MOL0     H 5249   5.646   5.067   6.926 -6.3794 -1.4565  2.7295
   40MOL0     H 5250   5.700   5.011   6.662 -2.3773 -4.4850 -2.2231
   40MOL0     H 5251   5.752   4.853   6.706  0.8871  0.3591  0.5984
   40MOL0     H 5252   5.882   5.106   6.761  0.1367 -0.2632 -1.1302
   40MOL0     H 5253   5.930   4.958   6.852 -1.1863 -1.4505  1.1491
   40MOL0     H 5254   5.907   4.998   6.555  0.5971 -0.1667  0.3615
   40MOL0     H 5255   5.968   4.850   6.622 -0.1251 -0.5788 -0.8377
   40MOL0     H 5256   6.156   4.973   6.732  3.3981  1.6651 -1.3254
   40MOL0     H 5257   6.098   5.123   6.640 -3.3432 -0.4316 -1.6892
   40MOL0     H 5258   6.156   4.864   6.507  1.8073 -0.2085 -1.7719
   40MOL0     H 5259   6.135   5.024   6.437  1.7910  1.7139  0.9872
   40MOL0     H 5260   6.362   4.961   6.633  0.0475 -0.8562  0.2820
   40MOL0     H 5261   6.336   5.109   6.543 -1.2779 -0.0064  1.1750
   40MOL0     H 5262   5.284   5.186   6.720  2.2322 -0.9964  2.1955
   40MOL0     H 5263   5.050   5.153   6.676  0.2718 -1.1164 -2.6799
   40MOL0     H 5264   4.714   4.764   6.649  0.6198  0.2394  2.5317
   40MOL0     H 5265   4.486   4.724   6.555 -0.4689  0.2328 -0.8476
   40MOL0     H 5266   5.065   4.405   6.637  0.0535 -1.9052 -1.7415
   40MOL0     H 5267   5.307   4.424   6.637  0.7668  0.9056 -1.0773
   40MOL0     H 5268   5.684   4.660   6.377 -1.5716 -2.9850 -0.5937
   40MOL0     H 5269   5.924   4.646   6.345  1.3553  2.6166  0.7450
   40MOL0     H 5270   6.157   4.659   6.344 -0.2469 -2.5065 -2.1878
   40MOL0     H 5271   6.088   4.487   6.344 -2.3248  0.8176 -1.8027
   40MOL0     H 5272   6.312   4.408   6.432 -1.7263 -1.2585 -1.9837
   40MOL0     H 5273   6.318   4.483   6.280 -1.8282 -0.4067  0.2950
   40MOL0     H 5274   6.394   4.599   6.553 -0.5220  1.4657 -0.5996
   40MOL0     H 5275   6.390   4.705   6.413 -1.9313 -0.9779 -2.2409
   40MOL0     H 5276   6.567   4.454   6.443  1.7141 -0.5096  3.6248
   40MOL0     H 5277   6.571   4.583   6.319 -0.0939  2.6532  0.7585
   40MOL0     H 5278   6.814   4.747   6.607 -0.0948 -2.4022  1.3194
   40MOL0     H 5279   5.970   4.515   6.753  3.1397  0.4481 -0.6468
   40MOL0     H 5280   5.714   4.522   6.782 -2.6216  2.5450 -0.1113
   41MOL0     O 5281   3.674   0.329   5.765 -0.2658 -0.3725  0.4039
   41MOL0     C 5282   3.605   0.240   5.703  0.2380 -0.7147 -0.6385
   41MOL0     O 5283   3.655   0.120   5.657 -0.2628  0.1148  0.2273
   41MOL0     C 5284   3.798   0.103   5.650 -0.1774  0.2406 -0.3313
   41MOL0     C 5285   3.860  -0.016   5.704 -0.0556 -1.2050  1.6960
   41MOL0     C 5286   3.996  -0.034   5.705  0.6980 -0.2443 -0.5327
   41MOL0     C 5287   4.083   0.053   5.634  0.4758  0.2184  0.0386
   41MOL0     O 5288   4.214   0.025   5.602 -0.0178  0.9205  0.2438
   41MOL0     C 5289   4.287  -0.095   5.655  0.4584  0.1377  0.3897
   41MOL0     C 5290   4.426  -0.103   5.600 -0.3302 -0.3432  0.0837
   41MOL0     C 5291   4.431  -0.163   5.456  0.1045 -0.1203 -0.4238
   41MOL0     C 5292   4.569  -0.197   5.403 -0.9880  0.4548 -1.0584
   41MOL0     C 5293   4.573  -0.255   5.260  0.2787  0.0932 -1.0819
   41MOL0     C 5294   4.722  -0.264   5.233  0.2171  0.2593 -0.7209
   41MOL0     C 5295   4.735  -0.344   5.106 -0.3620 -0.2444 -0.5120
   41MOL0     C 5296   4.884  -0.369   5.072  0.4212 -0.4735  0.3806
   41MOL0     N 5297   4.965  -0.250   5.044 -0.5756  1.0685  0.7646
   41MOL0     C 5298   4.933  -0.148   4.957 -0.8913  1.2281  0.3251
   41MOL0     C 5299   5.031  -0.048   4.968 -0.1001 -0.2094  0.0523
   41MOL0     C 5300   5.044   0.090   4.901 -0.0364  0.7524  0.2491
   41MOL0     C 5301   4.921   0.125   4.828 -0.2929  0.0001  0.0174
   41MOL0     C 5302   4.914   0.286   4.829 -0.5340  0.3830 -1.0059
   41MOL0     C 5303   4.801   0.321   4.737  0.0230  0.1490 -0.0682
   41MOL0     O 5304   4.679   0.289   4.811 -0.0242 -0.7522 -0.0025
   41MOL0     C 5305   4.583   0.390   4.831  0.0830 -0.1239  0.4468
   41MOL0     C 5306   4.599   0.529   4.816  0.5291 -0.6090  0.4471
   41MOL0     C 5307   4.487   0.617   4.822  0.0404 -0.8280  0.0643
   41MOL0     C 5308   4.364   0.578   4.872 -0.3475  0.5133 -0.1068
   41MOL0     C 5309   4.263   0.686   4.898 -0.1573  0.2762 -0.3984
   41MOL0     O 5310   4.294   0.815   4.866 -0.1471 -0.4502 -0.7419
   41MOL0     C 5311   4.209   0.916   4.879 -0.5478  0.1050  0.2836
   41MOL0     C 5312   4.256   1.017   4.957 -0.0521 -0.5607 -1.4539
   41MOL0     C 5313   4.173   1.130   4.965  1.1879  0.5937 -0.8398
   41MOL0     C 5314   4.082   1.151   4.866  0.3946 -0.2132 -0.5924
   41MOL0     O 5315   4.024   1.276   4.867  0.0689 -0.1447  0.4523
   41MOL0     C 5316   3.894   1.295   4.927  0.7782 -0.7817  0.1138
   41MOL0     C 5317   3.791   1.251   4.827 -0.2027 -0.3333 -0.0321
   41MOL0     C 5318   3.652   1.274   4.882 -0.6185 -0.5285 -1.0770
   41MOL0     C 5319   3.557   1.257   4.774  0.8689 -0.3500  0.5731
   41MOL0     C 5320   3.422   1.326   4.792  0.1972 -1.2951  0.3163
   41MOL0     C 5321   3.342   1.314   4.664 -0.4442 -0.4394  1.0396
   41MOL0     C 5322   3.193   1.334   4.670  0.4880  0.4224 -0.8833
   41MOL0     C 5323   3.132   1.257   4.791 -0.0371 -0.6533  0.0709
   41MOL0    Cl 5324   2.959   1.254   4.779  0.2119  0.2004  0.1707
   41MOL0     C 5325   4.038   1.048   4.786  0.2296  0.0412  0.3277
   41MOL0     C 5326   4.101   0.923   4.802  0.6444  1.0196 -0.4347
   41MOL0     O 5327   4.157   0.657   4.953 -0.3162  0.3506 -0.3562
   41MOL0     C 5328   4.347   0.438   4.894 -0.5944  0.9084  0.7317
   41MOL0     C 5329   4.454   0.346   4.866 -0.4875  0.2152  0.1322
   41MOL0     N 5330   5.122  -0.095   5.065  0.2772 -0.0789 -0.3140
   41MOL0     N 5331   5.076  -0.203   5.113  1.1916 -0.3671 -0.3020
   41MOL0     C 5332   4.033   0.173   5.584  0.5966  0.1349  0.4623
   41MOL0     C 5333   3.889   0.204   5.598  0.4191 -0.3775  0.5007
   41MOL0     C 5334   3.459   0.252   5.688 -0.4219 -1.0938  0.9675
   41MOL0     C 5335   3.376   0.150   5.631  0.5395  0.2673 -0.5403
   41MOL0     C 5336   3.243   0.166   5.613 -0.0895 -0.4288  0.4262
   41MOL0     C 5337   3.187   0.281   5.651  1.0694  0.1198 -1.3244
   41MOL0     O 5338   3.061   0.322   5.624  0.0225 -0.3537 -0.0425
   41MOL0     C 5339   2.962   0.223   5.617  1.2880 -0.4622 -0.7163
   41MOL0     C 5340   2.844   0.270   5.698  0.3648 -0.0454 -0.5361
   41MOL0     C 5341   2.809   0.419   5.685 -0.0078  0.2538  0.4150
   41MOL0     C 5342   2.742   0.445   5.548  0.2239  0.3307  0.8849
   41MOL0     C 5343   2.686   0.582   5.544 -0.2335 -0.1016 -0.1160
   41MOL0     C 5344   2.625   0.681   5.538  0.0550  0.2581  0.1633
   41MOL0     C 5345   3.265   0.380   5.721 -0.0274  0.0645  0.4284
   41MOL0     C 5346   3.403   0.368   5.735  0.1537 -0.2235 -0.0448
   41MOL0     H 5347   3.803  -0.096   5.750  1.1761 -4.3844 -1.8472
   41MOL0     H 5348   4.024  -0.132   5.741 -3.0408 -1.4164 -0.3943
   41MOL0     H 5349   4.225  -0.184   5.640 -0.3584  0.8505 -0.6265
   41MOL0     H 5350   4.304  -0.087   5.762  1.6123  0.6475  0.1802
   41MOL0     H 5351   4.494  -0.169   5.654  1.2299  0.3667 -0.9067
   41MOL0     H 5352   4.464   0.000   5.604 -1.6684  0.2650 -1.6364
   41MOL0     H 5353   4.392  -0.095   5.379 -0.9194 -0.4830 -0.2389
   41MOL0     H 5354   4.362  -0.248   5.461 -0.4361  0.2669 -1.1255
   41MOL0     H 5355   4.631  -0.107   5.409  0.1596 -0.3531 -0.3738
   41MOL0     H 5356   4.596  -0.269   5.481 -2.2849  1.7811  0.7171
   41MOL0     H 5357   4.527  -0.194   5.181 -2.4454 -2.4368 -1.6406
   41MOL0     H 5358   4.530  -0.355   5.267  2.7113 -0.9084  0.6054
   41MOL0     H 5359   4.773  -0.312   5.317 -5.1656  0.2769  3.1522
   41MOL0     H 5360   4.763  -0.163   5.227 -0.8145  0.7371 -0.1328
   41MOL0     H 5361   4.689  -0.443   5.115  4.1445 -2.5978 -0.1307
   41MOL0     H 5362   4.681  -0.298   5.023 -1.5346 -0.9370 -0.1491
   41MOL0     H 5363   4.902  -0.437   4.988 -3.3449 -0.2828 -0.7476
   41MOL0     H 5364   4.929  -0.415   5.161  3.3445  1.3340 -0.0306
   41MOL0     H 5365   4.842  -0.154   4.898 -1.1072  1.7518  0.6012
   41MOL0     H 5366   5.132   0.093   4.836 -2.7714  2.1122 -3.7906
   41MOL0     H 5367   5.046   0.160   4.985 -0.1462  0.2917  0.6407
   41MOL0     H 5368   4.827   0.092   4.872 -0.9454  0.0192 -1.3127
   41MOL0     H 5369   4.922   0.098   4.722  0.8130 -0.7226  0.1925
   41MOL0     H 5370   4.882   0.339   4.920  0.3937 -0.0514 -0.4190
   41MOL0     H 5371   5.011   0.325   4.796  0.6824 -0.9251  0.7978
   41MOL0     H 5372   4.805   0.253   4.651  0.0115  0.6844 -0.4952
   41MOL0     H 5373   4.801   0.426   4.707 -1.3182  0.2627  0.2912
   41MOL0     H 5374   4.690   0.574   4.776  0.7585 -1.7655 -0.3993
   41MOL0     H 5375   4.518   0.716   4.793 -0.1214 -0.6992  0.3287
   41MOL0     H 5376   4.349   0.998   5.009 -2.3426 -3.7197  2.0063
   41MOL0     H 5377   4.197   1.210   5.035  2.1814 -0.7022  0.3475
   41MOL0     H 5378   3.865   1.400   4.934 -2.6650 -1.4676 -1.3796
   41MOL0     H 5379   3.880   1.239   5.021  0.2355  0.8369  1.0483
   41MOL0     H 5380   3.800   1.148   4.792  3.2110  0.3333 -1.5671
   41MOL0     H 5381   3.798   1.308   4.734 -1.9819  0.5355  0.3234
   41MOL0     H 5382   3.654   1.379   4.914  2.8224 -1.1686  1.4160
   41MOL0     H 5383   3.638   1.211   4.971 -0.7498  0.4930 -0.3534
   41MOL0     H 5384   3.593   1.286   4.674 -3.3884  0.0997 -1.0618
   41MOL0     H 5385   3.531   1.151   4.766 -0.6718  0.0510 -0.1292
   41MOL0     H 5386   3.441   1.431   4.813 -0.3796 -1.3493  1.1716
   41MOL0     H 5387   3.369   1.284   4.879 -2.7203  1.3009 -0.0323
   41MOL0     H 5388   3.357   1.210   4.633  1.3010 -0.0263  0.3423
   41MOL0     H 5389   3.386   1.386   4.594  1.1240  0.8452  3.2404
   41MOL0     H 5390   3.159   1.438   4.671 -1.3274 -0.0826  2.1607
   41MOL0     H 5391   3.155   1.290   4.577  2.1073 -0.1754 -1.2886
   41MOL0     H 5392   3.159   1.304   4.886  0.7117 -2.6565  0.9150
   41MOL0     H 5393   3.169   1.154   4.792  1.8903 -0.0951 -2.9305
   41MOL0     H 5394   3.956   1.045   4.715 -1.0163  2.0676  1.6094
   41MOL0     H 5395   4.067   0.832   4.753  1.1967  0.5170  0.0899
   41MOL0     H 5396   4.264   0.393   4.948  0.7821  0.2795  2.4358
   41MOL0     H 5397   4.448   0.239   4.886  0.9816  0.0626 -0.1641
   41MOL0     H 5398   4.098   0.247   5.539  2.4684  0.0083  2.7276
   41MOL0     H 5399   3.840   0.293   5.560 -1.4211 -1.5999 -0.1574
   41MOL0     H 5400   3.408   0.050   5.606 -0.5651  0.0250 -1.0742
   41MOL0     H 5401   3.176   0.100   5.560 -0.3978  0.7021 -0.6360
   41MOL0     H 5402   2.992   0.125   5.653 -1.2791 -0.9694  0.2720
   41MOL0     H 5403   2.934   0.217   5.511 -0.1587 -0.1915 -0.3834
   41MOL0     H 5404   2.752   0.219   5.665 -0.1955  0.3268  0.4180
   41MOL0     H 5405   2.856   0.243   5.803 -2.5365  1.3315  0.2642
   41MOL0     H 5406   2.897   0.483   5.699 -0.7336  1.7064 -1.2965
   41MOL0     H 5407   2.729   0.444   5.756 -0.6749 -3.1491  1.0160
   41MOL0     H 5408   2.802   0.417   5.461  1.5025  1.4408  1.3704
   41MOL0     H 5409   2.663   0.370   5.539  1.2813 -0.6610 -0.6226
   41MOL0     H 5410   2.550   0.758   5.531 -1.0952 -0.8226  0.1868
   41MOL0     H 5411   3.210   0.469   5.751 -0.4039 -1.6686  6.1564
   41MOL0     H 5412   3.446   0.448   5.795 -0.5497  0.7374 -0.7703
   42MOL0     O 5413   3.998   4.840   9.302 -0.2321 -0.2300 -0.2454
   42MOL0     C 5414   4.074   4.862   9.207  0.1398  0.5018  0.0523
   42MOL0     O 5415   4.035   4.841   9.078  0.0668  0.1255  0.2132
   42MOL0     C 5416   3.907   4.887   9.038  0.3080 -0.6652  0.1553
   42MOL0     C 5417   3.866   5.020   9.054 -0.5010  0.3601  0.3509
   42MOL0     C 5418   3.750   5.061   9.003  0.4961  0.8388 -0.9272
   42MOL0     C 5419   3.645   4.967   8.978 -0.1566  0.9347  0.3318
   42MOL0     O 5420   3.519   5.024   8.954 -0.4455 -0.0745  0.9828
   42MOL0     C 5421   3.417   4.940   8.898  0.2400 -0.7191  0.7272
   42MOL0     C 5422   3.282   5.013   8.887  0.3637  0.6360 -0.5452
   42MOL0     C 5423   3.292   5.132   8.794  0.6057  0.2270 -0.1937
   42MOL0     C 5424   3.152   5.193   8.767 -0.0730  0.4136 -0.3169
   42MOL0     C 5425   3.174   5.305   8.670  0.2945 -0.0989 -0.1100
   42MOL0     C 5426   3.054   5.339   8.583  0.4440  0.7497 -0.3998
   42MOL0     C 5427   3.056   5.474   8.514  0.2308 -0.4490  0.5313
   42MOL0     C 5428   2.924   5.503   8.439 -0.6444 -0.3198  0.0637
   42MOL0     N 5429   2.939   5.627   8.372  0.0064  0.2164 -0.7092
   42MOL0     C 5430   2.832   5.696   8.327  0.8215 -0.1972  0.4925
   42MOL0     C 5431   2.887   5.817   8.288 -0.0710  0.2131  0.1114
   42MOL0     C 5432   2.817   5.949   8.255  0.2765 -0.3880  0.3367
   42MOL0     C 5433   2.778   5.961   8.106 -0.4615  0.4352 -0.0171
   42MOL0     C 5434   2.667   5.867   8.058  0.4220 -0.0798  0.5285
   42MOL0     C 5435   2.600   5.887   7.915 -0.8999 -0.0111 -0.2949
   42MOL0     O 5436   2.548   6.020   7.902 -0.7406  1.0385  0.1410
   42MOL0     C 5437   2.418   6.031   7.883  0.6462 -0.6158  0.1964
   42MOL0     C 5438   2.359   6.025   7.760  0.3708 -0.0875 -0.5354
   42MOL0     C 5439   2.220   6.045   7.749  0.6256  0.5843 -0.7195
   42MOL0     C 5440   2.136   6.057   7.864 -0.4894  0.0224 -1.1216
   42MOL0     C 5441   1.989   6.079   7.856 -0.5651  0.5841 -0.3769
   42MOL0     O 5442   1.921   6.090   7.977  0.1538  0.0219 -0.7222
   42MOL0     C 5443   1.797   6.145   7.991 -0.2555 -0.2367  0.5553
   42MOL0     C 5444   1.694   6.156   7.889 -0.1940 -0.4966 -0.0208
   42MOL0     C 5445   1.577   6.228   7.910 -0.0407  0.4292  0.3161
   42MOL0     C 5446   1.545   6.283   8.032  0.0606  0.2411 -0.6436
   42MOL0     O 5447   1.438   6.352   8.065 -0.2684 -0.9156 -0.1229
   42MOL0     C 5448   1.351   6.397   7.956  0.3450  0.0867 -0.6218
   42MOL0     C 5449   1.220   6.465   8.025 -0.2392 -0.4759  0.0013
   42MOL0     C 5450   1.137   6.543   7.917  0.0460  0.5803 -0.3512
   42MOL0     C 5451   0.999   6.587   7.978  0.6790 -0.4534 -0.1136
   42MOL0     C 5452   0.911   6.680   7.896  0.5179 -0.1821  0.4128
   42MOL0     C 5453   0.830   6.612   7.784  0.0858  0.1926  0.0723
   42MOL0     C 5454   0.765   6.703   7.680  0.4296  0.0324  0.8645
   42MOL0     C 5455   0.672   6.620   7.587  0.0980  0.6581 -0.6092
   42MOL0    Cl 5456   0.579   6.729   7.482  0.1953 -0.0302 -0.2463
   42MOL0     C 5457   1.645   6.266   8.134  0.3435  0.1539 -0.6709
   42MOL0     C 5458   1.762   6.190   8.115  0.7794 -0.2978 -0.0714
   42MOL0     O 5459   1.947   6.098   7.743  0.0828 -0.3523 -0.2398
   42MOL0     C 5460   2.198   6.063   7.989  0.5466 -0.0484  0.0022
   42MOL0     C 5461   2.338   6.055   8.000 -0.2905  0.0160  0.7589
   42MOL0     N 5462   3.021   5.815   8.313 -0.0694  0.1745 -0.3574
   42MOL0     N 5463   3.051   5.692   8.349 -0.1124  0.6526 -0.2416
   42MOL0     C 5464   3.674   4.832   8.976  0.2890  0.5818 -0.0406
   42MOL0     C 5465   3.806   4.795   9.005 -1.0860  0.6652  0.3247
   42MOL0     C 5466   4.217   4.878   9.238 -0.7079 -0.0623  0.4679
   42MOL0     C 5467   4.305   4.900   9.127 -0.1602  0.2818 -0.9071
   42MOL0     C 5468   4.447   4.902   9.148 -0.5791 -0.6442 -0.5197
   42MOL0     C 5469   4.499   4.907   9.282  0.7447 -0.2368 -0.6163
   42MOL0     O 5470   4.626   4.946   9.321  0.5021 -0.1529  0.1456
   42MOL0     C 5471   4.683   5.057   9.255  1.1707 -0.1273  0.7262
   42MOL0     C 5472   4.613   5.190   9.312 -0.2794  0.5794 -0.2227
   42MOL0     C 5473   4.720   5.291   9.311 -0.1135  0.4303  0.2289
   42MOL0     C 5474   4.800   5.285   9.451 -0.0751  0.3652 -0.1280
   42MOL0     C 5475   4.928   5.338   9.445 -0.4706 -0.2690  0.0884
   42MOL0     C 5476   5.038   5.394   9.444  0.0055 -0.2378 -0.2944
   42MOL0     C 5477   4.415   4.880   9.392  0.1443  0.1552 -0.0755
   42MOL0     C 5478   4.273   4.869   9.368  0.3199  0.4614  0.4682
   42MOL0     H 5479   3.938   5.092   9.093 -0.4231  1.8631 -2.2612
   42MOL0     H 5480   3.708   5.161   9.019 -1.5836 -0.3798  2.3829
   42MOL0     H 5481   3.410   4.843   8.947  0.7022 -2.4118 -2.3314
   42MOL0     H 5482   3.435   4.911   8.794 -0.1397  1.5606 -0.0296
   42MOL0     H 5483   3.250   5.053   8.984  0.1190 -0.6449 -0.0854
   42MOL0     H 5484   3.202   4.950   8.848  0.6945 -0.6798  0.8071
   42MOL0     H 5485   3.330   5.087   8.701 -3.5856  1.2483 -2.7004
   42MOL0     H 5486   3.370   5.195   8.838  1.0109 -1.3806  1.5023
   42MOL0     H 5487   3.091   5.115   8.720 -0.6992  1.6747 -1.7034
   42MOL0     H 5488   3.112   5.228   8.863 -1.2724 -0.6111 -0.4045
   42MOL0     H 5489   3.254   5.277   8.600 -0.0199 -2.4041  0.3780
   42MOL0     H 5490   3.200   5.394   8.728 -1.5395 -0.7353  1.8064
   42MOL0     H 5491   2.968   5.338   8.651  1.6904  0.3259  1.2530
   42MOL0     H 5492   3.038   5.262   8.508  0.7576  0.2597  0.0278
   42MOL0     H 5493   3.064   5.546   8.596  1.2716  0.0940 -0.0281
   42MOL0     H 5494   3.149   5.481   8.457 -1.2308  1.6945 -1.7850
   42MOL0     H 5495   2.834   5.504   8.502  0.2992  0.8653  1.4896
   42MOL0     H 5496   2.916   5.429   8.359 -0.2143  0.8216 -1.0771
   42MOL0     H 5497   2.730   5.667   8.350  0.5985 -1.7133 -1.9742
   42MOL0     H 5498   2.889   6.025   8.286 -0.8877  0.5509  0.7900
   42MOL0     H 5499   2.727   5.962   8.316 -0.2024 -1.7907 -0.0138
   42MOL0     H 5500   2.869   5.942   8.049 -0.2408 -1.3039  0.8376
   42MOL0     H 5501   2.749   6.066   8.096 -1.4445  0.1468 -0.2895
   42MOL0     H 5502   2.705   5.764   8.063 -2.0756 -1.0510  1.0402
   42MOL0     H 5503   2.587   5.875   8.132  1.3462 -2.1391  1.8390
   42MOL0     H 5504   2.519   5.817   7.890 -2.2783  0.6038  2.1351
   42MOL0     H 5505   2.685   5.878   7.846 -0.4627  1.0477  0.0856
   42MOL0     H 5506   2.428   6.027   7.677 -1.1722 -0.8693 -1.8935
   42MOL0     H 5507   2.166   6.056   7.655 -0.7689  0.4050  0.0394
   42MOL0     H 5508   1.716   6.105   7.796  0.4719  1.7184 -1.1500
   42MOL0     H 5509   1.505   6.216   7.829  1.0191 -0.7136 -0.4988
   42MOL0     H 5510   1.326   6.318   7.886  1.6329  0.5275 -1.6173
   42MOL0     H 5511   1.405   6.480   7.910 -0.1493  0.7649 -0.0105
   42MOL0     H 5512   1.268   6.539   8.089  1.5236  1.3309 -3.1344
   42MOL0     H 5513   1.145   6.400   8.071 -1.0521 -0.5161 -1.3186
   42MOL0     H 5514   1.121   6.479   7.830  1.9491  1.0547 -1.1007
   42MOL0     H 5515   1.196   6.629   7.883  4.0945 -0.1183  4.0357
   42MOL0     H 5516   0.940   6.502   8.015 -0.1831  0.8093  1.6083
   42MOL0     H 5517   1.035   6.647   8.062 -0.1825  0.8962 -0.6659
   42MOL0     H 5518   0.979   6.752   7.849 -1.9598  1.8262 -0.3313
   42MOL0     H 5519   0.845   6.740   7.960 -1.6613 -0.4970 -1.4434
   42MOL0     H 5520   0.750   6.555   7.832  0.6182 -1.2865 -0.7181
   42MOL0     H 5521   0.897   6.542   7.732 -3.4040 -4.2448  0.9320
   42MOL0     H 5522   0.694   6.771   7.728 -0.3214 -0.8485  1.0264
   42MOL0     H 5523   0.833   6.760   7.617 -1.2052  1.3658  0.2242
   42MOL0     H 5524   0.609   6.563   7.654  0.6326  1.2559  0.4265
   42MOL0     H 5525   0.720   6.548   7.520 -2.3092 -0.9588 -0.7002
   42MOL0     H 5526   1.625   6.309   8.232  2.2603 -0.7865  0.1753
   42MOL0     H 5527   1.829   6.174   8.199 -0.0019 -0.4947  0.5213
   42MOL0     H 5528   2.145   6.083   8.082 -1.5141 -2.8344 -0.4202
   42MOL0     H 5529   2.384   6.042   8.097  1.8067 -1.8972 -0.3944
   42MOL0     H 5530   3.595   4.762   8.951 -0.1007  0.5371  1.2785
   42MOL0     H 5531   3.831   4.690   9.006 -0.4384  0.8153  1.0078
   42MOL0     H 5532   4.267   4.919   9.027 -1.5738 -1.3229 -0.7287
   42MOL0     H 5533   4.502   4.914   9.055 -2.0524 -1.1220 -1.4729
   42MOL0     H 5534   4.664   5.075   9.149 -0.8398  0.3371  1.1161
   42MOL0     H 5535   4.789   5.055   9.281  1.1323 -4.2286  1.1741
   42MOL0     H 5536   4.534   5.229   9.248  0.0643 -0.1146 -1.0897
   42MOL0     H 5537   4.577   5.168   9.413  3.1329  0.1030  1.0334
   42MOL0     H 5538   4.681   5.392   9.294  1.2146  0.6522 -1.7285
   42MOL0     H 5539   4.787   5.267   9.229  0.8364 -2.2198  1.6687
   42MOL0     H 5540   4.757   5.360   9.518 -0.7584  1.2667 -1.5288
   42MOL0     H 5541   4.794   5.186   9.497  0.6211  0.6452  0.5816
   42MOL0     H 5542   5.128   5.451   9.453 -0.9738  1.2940  0.2335
   42MOL0     H 5543   4.461   4.856   9.487  1.6683 -2.4371 -1.3529
   42MOL0     H 5544   4.214   4.843   9.455 -0.0554  1.2083  0.4495
   43MOL0     O 5545   2.619  10.617   0.210 -0.7960  0.0900 -0.2347
   43MOL0     C 5546   2.676  10.608   0.100 -0.3288  0.4895  0.1784
   43MOL0     O 5547   2.617  10.622  -0.022  0.1034 -0.2526 -0.7304
   43MOL0     C 5548   2.487  10.660  -0.017  0.5248 -0.4085  0.5831
   43MOL0     C 5549   2.380  10.569  -0.036  0.8002  0.2620 -0.4698
   43MOL0     C 5550   2.250  10.632  -0.042  0.0157 -0.2877  1.1733
   43MOL0     C 5551   2.237  10.767  -0.031 -0.1066  0.1346 -0.0087
   43MOL0     O 5552   2.102  10.805  -0.054 -0.5062 -0.4696  0.1411
   43MOL0     C 5553   2.068  10.940  -0.071  0.1459 -0.1171  0.2056
   43MOL0     C 5554   1.945  10.965  -0.153  0.0372  0.1908  0.4839
   43MOL0     C 5555   1.823  10.897  -0.099 -0.1466  0.6414 -0.1936
   43MOL0     C 5556   1.688  10.940  -0.170 -0.2562  0.3237  0.3943
   43MOL0     C 5557   1.574  10.838  -0.154  0.4154  0.0436  1.9126
   43MOL0     C 5558   1.527  10.818  -0.017 -0.0577 -0.0771 -0.7320
   43MOL0     C 5559   1.423  10.710  -0.009  0.4467 -0.3502  0.2167
   43MOL0     C 5560   1.299  10.730  -0.104 -0.1552 -0.6112  0.3575
   43MOL0     N 5561   1.203  10.639  -0.051 -0.4578 -0.1659 -0.4653
   43MOL0     C 5562   1.096  10.670   0.030  0.2207 -0.1823 -0.3742
   43MOL0     C 5563   1.038  10.553   0.066 -0.1481 -0.6179  0.9167
   43MOL0     C 5564   0.918  10.541   0.164 -1.0736 -0.1618  0.8026
   43MOL0     C 5565   0.802  10.461   0.097 -0.2880 -0.8830 -0.2198
   43MOL0     C 5566   0.681  10.453   0.184 -0.1892  0.0176 -0.5373
   43MOL0     C 5567   0.550  10.388   0.116  0.3068  0.1165 -0.6807
   43MOL0     O 5568   0.471  10.490   0.058  0.3113  0.2186 -0.3098
   43MOL0     C 5569   0.373  10.547   0.137 -0.3250 -0.5705 -0.2250
   43MOL0     C 5570   0.343  10.517   0.269  0.3593 -0.8848 -0.9671
   43MOL0     C 5571   0.249  10.587   0.353 -0.9124  0.2542 -0.2371
   43MOL0     C 5572   0.179  10.693   0.291  0.3799 -0.0261  0.3589
   43MOL0     C 5573   0.072  10.758   0.360 -0.1490  0.0175 -1.3131
   43MOL0     O 5574   0.050  10.698   0.494  0.0941  0.1400 -0.1267
   43MOL0     C 5575  -0.072  10.717   0.565  0.0025  0.1627 -1.2843
   43MOL0     C 5576  -0.062  10.697   0.703  0.7164  0.0735 -0.0095
   43MOL0     C 5577  -0.175  10.719   0.785 -0.7027 -0.0108 -0.5933
   43MOL0     C 5578  -0.301  10.749   0.732 -0.6757  0.4226  0.7550
   43MOL0     O 5579  -0.417  10.760   0.799 -0.3589  0.2805 -0.6843
   43MOL0     C 5580  -0.412  10.730   0.939 -0.3626  0.2283 -0.5919
   43MOL0     C 5581  -0.535  10.768   1.024 -0.9359 -0.0337  0.3926
   43MOL0     C 5582  -0.626  10.647   1.031  0.4453  0.8524  0.3698
   43MOL0     C 5583  -0.750  10.688   1.107  0.8970  0.4096  0.9261
   43MOL0     C 5584  -0.812  10.569   1.188 -0.0575  0.0513 -0.2573
   43MOL0     C 5585  -0.926  10.612   1.273 -0.0108 -0.1713  0.0869
   43MOL0     C 5586  -0.979  10.490   1.350  0.5098  0.0418 -0.4198
   43MOL0     C 5587  -1.111  10.533   1.410 -0.3872  0.2789 -0.7827
   43MOL0    Cl 5588  -1.217  10.389   1.405 -0.5094  0.2442  0.0685
   43MOL0     C 5589  -0.310  10.789   0.600 -0.2413 -0.1175  0.6916
   43MOL0     C 5590  -0.192  10.768   0.514  0.2574  0.6248  0.7728
   43MOL0     O 5591   0.010  10.849   0.315 -0.3276  0.5316  0.1409
   43MOL0     C 5592   0.192  10.711   0.152 -0.4813 -0.0488  0.2764
   43MOL0     C 5593   0.290  10.642   0.075 -0.0366 -0.0823  0.4327
   43MOL0     N 5594   1.099  10.452  -0.008  0.3375  0.1562  0.7297
   43MOL0     N 5595   1.190  10.505  -0.079 -0.5490  0.2090  0.0634
   43MOL0     C 5596   2.340  10.851  -0.015 -0.1330 -0.7869  0.2775
   43MOL0     C 5597   2.467  10.796  -0.003 -0.0115  0.4498 -0.3230
   43MOL0     C 5598   2.825  10.588   0.091  0.4166 -0.2285  0.0693
   43MOL0     C 5599   2.892  10.565   0.212  0.1956  0.0175  0.7335
   43MOL0     C 5600   3.031  10.568   0.206  0.0343 -0.6028  0.3045
   43MOL0     C 5601   3.106  10.564   0.090 -0.2521 -0.6616 -0.4292
   43MOL0     O 5602   3.246  10.550   0.100  0.3981 -0.0074 -0.1038
   43MOL0     C 5603   3.328  10.514  -0.013  0.4596  0.4391 -0.0505
   43MOL0     C 5604   3.404  10.630  -0.073  0.3153  0.4851  0.5661
   43MOL0     C 5605   3.498  10.585  -0.179  0.0115 -0.1048 -0.1131
   43MOL0     C 5606   3.437  10.506  -0.297  0.3050  0.1542  0.5864
   43MOL0     C 5607   3.330  10.584  -0.362 -0.5139  0.3196 -0.2675
   43MOL0     C 5608   3.257  10.650  -0.426 -0.1914  0.0033  1.1173
   43MOL0     C 5609   3.037  10.585  -0.023  0.0474 -1.3856  0.6851
   43MOL0     C 5610   2.896  10.606  -0.030 -0.4241  1.1328  0.2350
   43MOL0     H 5611   2.387  10.461  -0.043  0.8950  0.3228 -1.5207
   43MOL0     H 5612   2.160  10.574  -0.061  1.4610 -3.4670  3.2023
   43MOL0     H 5613   2.152  10.980  -0.129 -0.2520 -2.2439 -2.0099
   43MOL0     H 5614   2.073  10.996   0.023 -0.5779  0.6530 -0.2093
   43MOL0     H 5615   1.969  10.925  -0.252  0.5532  0.6277  0.4256
   43MOL0     H 5616   1.919  11.071  -0.165  0.0237  0.3300  1.6678
   43MOL0     H 5617   1.817  10.928   0.005  3.2478 -0.9883  0.6471
   43MOL0     H 5618   1.833  10.788  -0.096  0.9843  0.7356 -0.0848
   43MOL0     H 5619   1.651  11.033  -0.127  1.6964  1.2901  0.0963
   43MOL0     H 5620   1.707  10.958  -0.277  0.4245 -0.7302  0.3220
   43MOL0     H 5621   1.609  10.742  -0.195  0.6389  1.4806 -1.6278
   43MOL0     H 5622   1.489  10.872  -0.214  1.1255 -0.5791  0.4990
   43MOL0     H 5623   1.477  10.910   0.012 -2.3525 -1.4953  0.0947
   43MOL0     H 5624   1.614  10.806   0.048 -0.7896  2.0298  0.7215
   43MOL0     H 5625   1.474  10.617  -0.035 -0.7720 -2.2627  3.9200
   43MOL0     H 5626   1.382  10.693   0.091 -2.8416 -0.9865 -1.1042
   43MOL0     H 5627   1.332  10.687  -0.199 -0.1979  1.2204 -0.5212
   43MOL0     H 5628   1.248  10.825  -0.125  1.0624 -0.2849 -1.3800
   43MOL0     H 5629   1.068  10.772   0.055 -0.4837 -0.5129  0.1905
   43MOL0     H 5630   0.875  10.640   0.182 -0.9621  0.2639 -1.1033
   43MOL0     H 5631   0.937  10.499   0.264 -0.3624 -1.9392 -0.0385
   43MOL0     H 5632   0.838  10.362   0.067 -0.5944 -1.1121  0.1546
   43MOL0     H 5633   0.784  10.511   0.002  1.1723  1.0784  0.4577
   43MOL0     H 5634   0.711  10.398   0.274  1.8529  1.5590 -0.1976
   43MOL0     H 5635   0.658  10.551   0.225 -0.4910 -0.9610  1.7632
   43MOL0     H 5636   0.506  10.322   0.191  1.4434  1.8204  1.6299
   43MOL0     H 5637   0.583  10.325   0.033 -3.3880 -2.1993 -0.6062
   43MOL0     H 5638   0.406  10.446   0.321 -0.9969 -0.9740  0.6519
   43MOL0     H 5639   0.246  10.556   0.457 -0.6487  1.6939  0.2233
   43MOL0     H 5640   0.036  10.668   0.740  1.4507  0.3850 -1.6133
   43MOL0     H 5641  -0.165  10.715   0.893 -0.2334  4.5496 -0.2828
   43MOL0     H 5642  -0.323  10.772   0.986 -0.6446 -0.4575  0.6023
   43MOL0     H 5643  -0.403  10.621   0.947 -2.5037 -0.1921 -2.7922
   43MOL0     H 5644  -0.583  10.860   0.989 -1.7668  0.1708  1.9774
   43MOL0     H 5645  -0.497  10.787   1.125  2.7178  1.8147 -1.1473
   43MOL0     H 5646  -0.576  10.569   1.090  3.0282  0.9811 -1.4466
   43MOL0     H 5647  -0.654  10.597   0.938  0.3072  0.1371  0.7894
   43MOL0     H 5648  -0.741  10.772   1.177  0.1830 -0.0521  1.5804
   43MOL0     H 5649  -0.822  10.728   1.035  1.6197  5.5316  2.5742
   43MOL0     H 5650  -0.730  10.535   1.252  1.0576  0.7448 -1.2706
   43MOL0     H 5651  -0.848  10.494   1.117 -3.0274 -0.3498  1.5046
   43MOL0     H 5652  -0.994  10.638   1.193  1.0140 -0.1841 -0.8134
   43MOL0     H 5653  -0.897  10.698   1.334  0.3515  0.8840 -1.5212
   43MOL0     H 5654  -0.993  10.403   1.285  2.3420  1.2710 -2.5966
   43MOL0     H 5655  -0.916  10.447   1.428 -0.7687 -1.1608 -0.0162
   43MOL0     H 5656  -1.161  10.614   1.356 -1.7535 -0.3658 -0.4974
   43MOL0     H 5657  -1.100  10.560   1.516 -0.5973 -2.1884 -0.0863
   43MOL0     H 5658  -0.405  10.829   0.568 -0.0938  1.7852  2.4571
   43MOL0     H 5659  -0.201  10.786   0.408 -0.3504  1.2804  0.9317
   43MOL0     H 5660   0.131  10.788   0.106 -0.4127 -0.5536 -0.6736
   43MOL0     H 5661   0.296  10.670  -0.030  2.3419 -1.1455  0.2211
   43MOL0     H 5662   2.331  10.959  -0.009  0.2203 -0.8304  2.1293
   43MOL0     H 5663   2.548  10.865   0.016  1.7899 -1.8567  1.0197
   43MOL0     H 5664   2.837  10.537   0.300 -1.8766 -1.1922 -0.8553
   43MOL0     H 5665   3.087  10.554   0.298  1.1687 -1.6060 -0.4946
   43MOL0     H 5666   3.260  10.475  -0.090 -2.5561 -3.8155  4.1997
   43MOL0     H 5667   3.399  10.433   0.007  1.3219  0.9024 -1.0887
   43MOL0     H 5668   3.329  10.702  -0.109 -1.1485 -0.0604  2.4056
   43MOL0     H 5669   3.467  10.684  -0.002 -0.6148  2.2200  0.1441
   43MOL0     H 5670   3.574  10.517  -0.139 -0.0684 -1.8775 -2.7272
   43MOL0     H 5671   3.541  10.673  -0.228  0.9540 -1.1290 -1.1991
   43MOL0     H 5672   3.520  10.480  -0.363  2.7975  1.5576  2.9294
   43MOL0     H 5673   3.385  10.415  -0.265 -4.3417  2.5544  0.7696
   43MOL0     H 5674   3.201  10.709  -0.497  1.7849 -0.9872 -1.4343
   43MOL0     H 5675   3.095  10.596  -0.115  1.6310 -0.0477  1.7900
   43MOL0     H 5676   2.846  10.644  -0.119 -0.1899  0.1589 -0.3316
   44MOL0     O 5677   1.497   3.960   1.049  0.0036  0.5576  0.2637
   44MOL0     C 5678   1.557   4.065   1.053 -0.4465 -0.4374 -0.3510
   44MOL0     O 5679   1.538   4.173   1.144  0.3253 -0.7532 -0.8239
   44MOL0     C 5680   1.427   4.159   1.230 -1.0204 -0.1506 -0.5278
   44MOL0     C 5681   1.305   4.091   1.205  0.1408  0.1495 -0.3869
   44MOL0     C 5682   1.210   4.066   1.304  0.1744  0.0837 -0.0757
   44MOL0     C 5683   1.219   4.133   1.430  0.0220 -1.1661 -0.6182
   44MOL0     O 5684   1.128   4.119   1.540 -0.3826  0.1801 -0.2133
   44MOL0     C 5685   1.019   4.026   1.523  0.4669 -0.4450  0.2165
   44MOL0     C 5686   0.899   4.098   1.460 -0.8138 -0.6007  1.5195
   44MOL0     C 5687   0.765   4.018   1.461  0.2143 -0.3096  0.1994
   44MOL0     C 5688   0.650   4.095   1.391 -1.2162 -0.4474 -0.4353
   44MOL0     C 5689   0.509   4.049   1.430  0.4900 -0.1651  0.7491
   44MOL0     C 5690   0.394   4.138   1.375 -0.1358 -0.0699  0.3485
   44MOL0     C 5691   0.256   4.103   1.441  0.5501 -0.1418 -0.6864
   44MOL0     C 5692   0.135   4.166   1.373  0.7810 -0.4309 -0.1073
   44MOL0     N 5693   0.020   4.104   1.429  0.3121 -0.2676 -0.0628
   44MOL0     C 5694  -0.062   4.156   1.516  0.1159  0.7382  0.2067
   44MOL0     C 5695  -0.155   4.062   1.545  0.0118  0.1377  1.1921
   44MOL0     C 5696  -0.282   4.069   1.632  0.0409 -0.2424  0.6198
   44MOL0     C 5697  -0.341   3.940   1.666  0.4524 -0.1894  0.6691
   44MOL0     C 5698  -0.490   3.944   1.674  0.5377  0.1984 -0.1059
   44MOL0     C 5699  -0.564   3.812   1.707  1.0854 -0.1012  0.3351
   44MOL0     O 5700  -0.524   3.769   1.842 -0.7403 -0.3033 -0.2073
   44MOL0     C 5701  -0.616   3.708   1.925 -0.0085  0.1079 -0.6038
   44MOL0     C 5702  -0.684   3.593   1.899  0.0051  0.5539 -0.2364
   44MOL0     C 5703  -0.781   3.542   1.995  0.7576  0.1183  0.2288
   44MOL0     C 5704  -0.813   3.606   2.119 -0.2878 -0.2259  0.5273
   44MOL0     C 5705  -0.893   3.541   2.217 -0.0574  0.4344  0.8269
   44MOL0     O 5706  -0.963   3.435   2.172  0.0122  0.3528 -0.1510
   44MOL0     C 5707  -1.072   3.390   2.240 -0.5146  0.2788  0.5825
   44MOL0     C 5708  -1.051   3.290   2.330 -0.7398  0.3231 -0.3267
   44MOL0     C 5709  -1.145   3.225   2.400  0.0392 -0.2464  0.0012
   44MOL0     C 5710  -1.281   3.263   2.391 -0.8017  0.7243 -0.5074
   44MOL0     O 5711  -1.381   3.212   2.466 -0.9318  0.5803  0.0479
   44MOL0     C 5712  -1.356   3.157   2.590 -0.0762  0.1043  0.3124
   44MOL0     C 5713  -1.495   3.155   2.662  0.3553 -0.1083 -0.0091
   44MOL0     C 5714  -1.495   3.091   2.801  0.2760 -0.4955 -0.4694
   44MOL0     C 5715  -1.629   3.102   2.867  0.6516  0.1756  0.8529
   44MOL0     C 5716  -1.622   3.019   2.995 -0.1460 -1.0772 -0.2215
   44MOL0     C 5717  -1.746   3.010   3.079  1.1933 -0.2546  0.4463
   44MOL0     C 5718  -1.857   2.934   3.005  0.0074 -0.0032 -0.3121
   44MOL0     C 5719  -1.979   2.914   3.103 -0.7043 -0.1630  0.3676
   44MOL0    Cl 5720  -1.959   2.753   3.187 -0.0485 -0.2632 -0.0586
   44MOL0     C 5721  -1.303   3.361   2.303  0.4263  0.4246  0.2646
   44MOL0     C 5722  -1.202   3.416   2.218  1.1355  0.4750  0.4011
   44MOL0     O 5723  -0.893   3.582   2.334  0.8275  0.8680 -0.3234
   44MOL0     C 5724  -0.732   3.725   2.138 -0.2806  0.2671  0.2185
   44MOL0     C 5725  -0.641   3.770   2.041  0.4704 -0.1377 -0.3683
   44MOL0     N 5726  -0.122   3.951   1.464  0.0404  0.5943 -0.1728
   44MOL0     N 5727  -0.019   3.978   1.392 -0.3211  0.5711 -0.3577
   44MOL0     C 5728   1.334   4.221   1.448  0.8177 -0.0535  0.6623
   44MOL0     C 5729   1.439   4.228   1.356 -0.4308 -0.0485  1.0905
   44MOL0     C 5730   1.671   4.079   0.962 -0.0029 -0.0355 -0.1949
   44MOL0     C 5731   1.775   3.978   0.947  0.0715 -0.9390  0.2971
   44MOL0     C 5732   1.887   3.992   0.874 -0.1331 -0.2030 -0.0546
   44MOL0     C 5733   1.911   4.103   0.804  0.1464 -0.2409  0.6967
   44MOL0     O 5734   2.027   4.113   0.739 -0.4833  0.1031 -0.9210
   44MOL0     C 5735   2.104   4.230   0.768  0.3255  1.6749  0.1144
   44MOL0     C 5736   2.156   4.230   0.910 -0.3646  0.6237  0.0603
   44MOL0     C 5737   2.285   4.142   0.923  1.1090 -0.6589 -0.1743
   44MOL0     C 5738   2.333   4.143   1.069  0.3565 -0.2406 -1.3991
   44MOL0     C 5739   2.423   4.033   1.086 -0.0506  0.3515  0.0771
   44MOL0     C 5740   2.508   3.949   1.119  0.2108 -0.0684 -0.4187
   44MOL0     C 5741   1.812   4.200   0.797 -0.9357 -0.1284  0.3183
   44MOL0     C 5742   1.694   4.185   0.876 -0.0946  0.3613  0.3402
   44MOL0     H 5743   1.283   4.050   1.107 -1.0323  5.0175 -2.4201
   44MOL0     H 5744   1.127   4.002   1.275  2.1987 -2.1431 -1.3669
   44MOL0     H 5745   1.005   3.996   1.627  4.5775 -4.1835  0.0069
   44MOL0     H 5746   1.039   3.939   1.459 -3.0403 -0.4801 -1.0451
   44MOL0     H 5747   0.926   4.125   1.357  1.4266 -2.6255  1.4782
   44MOL0     H 5748   0.882   4.185   1.524  0.0187 -0.0020  0.9466
   44MOL0     H 5749   0.761   3.999   1.568  0.6524  1.7457  0.6316
   44MOL0     H 5750   0.769   3.929   1.398 -1.7738  1.0119 -1.9745
   44MOL0     H 5751   0.658   4.199   1.421 -0.2326 -0.9786  1.2582
   44MOL0     H 5752   0.664   4.093   1.282  0.7384 -0.9048 -0.2126
   44MOL0     H 5753   0.510   4.051   1.540  2.3122 -2.4876  0.8639
   44MOL0     H 5754   0.505   3.945   1.398 -0.8027 -0.3998  1.6089
   44MOL0     H 5755   0.392   4.119   1.267  3.9333  1.1190 -0.1046
   44MOL0     H 5756   0.423   4.243   1.380  0.0527 -0.0260 -1.1850
   44MOL0     H 5757   0.253   3.994   1.436 -4.2441 -0.3410  0.9189
   44MOL0     H 5758   0.261   4.134   1.545 -0.4188 -0.1742 -0.6209
   44MOL0     H 5759   0.137   4.144   1.266  1.5442 -2.0101  0.2091
   44MOL0     H 5760   0.128   4.274   1.395 -5.8322 -0.4121 -0.3798
   44MOL0     H 5761  -0.046   4.257   1.552  2.5320  0.8416 -0.9053
   44MOL0     H 5762  -0.349   4.137   1.579  1.4324  0.1930 -0.6550
   44MOL0     H 5763  -0.247   4.113   1.725  2.1667  1.9605 -1.0910
   44MOL0     H 5764  -0.293   3.912   1.760  3.1794  1.2467 -0.1926
   44MOL0     H 5765  -0.324   3.862   1.592  0.6589  0.2319  0.2672
   44MOL0     H 5766  -0.514   4.027   1.742 -0.3961  2.0233 -2.5304
   44MOL0     H 5767  -0.525   3.970   1.574  1.1129  2.0731  0.1394
   44MOL0     H 5768  -0.535   3.731   1.639  1.6944 -1.9918  2.7050
   44MOL0     H 5769  -0.672   3.822   1.698  1.2358  2.2298  0.6719
   44MOL0     H 5770  -0.670   3.539   1.806 -0.8286 -0.1685  0.0474
   44MOL0     H 5771  -0.836   3.452   1.971 -1.0675  1.5376 -1.1580
   44MOL0     H 5772  -0.946   3.267   2.342 -0.2579  0.9308 -2.8324
   44MOL0     H 5773  -1.106   3.153   2.472  1.5949  2.4898  2.0997
   44MOL0     H 5774  -1.282   3.213   2.647  0.4557 -1.2755  1.0270
   44MOL0     H 5775  -1.322   3.055   2.572 -1.5380  0.1454 -3.9006
   44MOL0     H 5776  -1.569   3.099   2.605 -1.7352  0.2260  2.2592
   44MOL0     H 5777  -1.537   3.256   2.662  2.4868  0.8687 -1.6376
   44MOL0     H 5778  -1.424   3.136   2.871 -0.8427  1.9117 -0.7969
   44MOL0     H 5779  -1.467   2.986   2.793 -0.1427 -0.4748 -3.0863
   44MOL0     H 5780  -1.650   3.209   2.874  4.4542  1.1126 -0.0931
   44MOL0     H 5781  -1.709   3.064   2.803  0.8339 -0.2595  0.8769
   44MOL0     H 5782  -1.549   3.061   3.065  0.1661 -1.3100 -0.4016
   44MOL0     H 5783  -1.596   2.915   2.971 -0.3308 -2.2963  4.0910
   44MOL0     H 5784  -1.777   3.113   3.097  0.1269 -0.1672 -1.5846
   44MOL0     H 5785  -1.718   2.959   3.171 -2.0509 -1.5307  0.8480
   44MOL0     H 5786  -1.905   2.985   2.921 -0.0678  5.9350  2.8387
   44MOL0     H 5787  -1.804   2.843   2.974  0.5289 -0.5084  1.8893
   44MOL0     H 5788  -2.073   2.930   3.049 -1.5029  0.3579  1.8532
   44MOL0     H 5789  -1.982   2.990   3.182  0.2319 -1.2885  1.5133
   44MOL0     H 5790  -1.398   3.405   2.275  1.1287  1.1564 -1.0643
   44MOL0     H 5791  -1.224   3.481   2.134  0.9155  0.6770  0.6126
   44MOL0     H 5792  -0.746   3.768   2.237 -1.0329  0.4584  0.0333
   44MOL0     H 5793  -0.588   3.864   2.056 -1.5704  1.2539 -1.3211
   44MOL0     H 5794   1.344   4.286   1.533 -3.0019  1.7952 -0.0527
   44MOL0     H 5795   1.526   4.292   1.364  0.2612 -0.8598  0.1377
   44MOL0     H 5796   1.760   3.886   1.002 -0.7262 -0.3814  1.0433
   44MOL0     H 5797   1.955   3.908   0.884 -2.7775 -2.3434  1.3395
   44MOL0     H 5798   2.050   4.325   0.766 -0.0172  1.5112  1.0835
   44MOL0     H 5799   2.181   4.246   0.692  3.2926 -5.2350  0.9216
   44MOL0     H 5800   2.180   4.335   0.929 -1.8827  1.3858 -1.9012
   44MOL0     H 5801   2.088   4.188   0.985  0.8440  0.2753  0.9975
   44MOL0     H 5802   2.368   4.181   0.863  1.3008  0.4852  0.8001
   44MOL0     H 5803   2.253   4.042   0.890  1.4102 -0.0243 -2.5705
   44MOL0     H 5804   2.381   4.240   1.082 -0.9442  0.0259  3.9704
   44MOL0     H 5805   2.252   4.132   1.141  1.3075  0.8613 -0.1165
   44MOL0     H 5806   2.585   3.888   1.162  0.5024  0.9071  0.4739
   44MOL0     H 5807   1.813   4.281   0.725  1.5724 -1.3014 -1.1055
   44MOL0     H 5808   1.615   4.257   0.857 -0.2182  0.3189  0.6798
   45MOL0     O 5809   3.495   9.581   7.866  1.1050 -0.2284 -0.9785
   45MOL0     C 5810   3.591   9.595   7.801 -0.0694 -0.4775 -0.0764
   45MOL0     O 5811   3.599   9.662   7.682  0.3146  0.5020  0.0334
   45MOL0     C 5812   3.481   9.723   7.632  0.2950  0.4011 -0.9988
   45MOL0     C 5813   3.357   9.650   7.625 -1.1900  0.3363  0.8997
   45MOL0     C 5814   3.244   9.713   7.565 -0.6540  0.8283  0.3389
   45MOL0     C 5815   3.255   9.844   7.513  0.5832  0.1243 -0.8639
   45MOL0     O 5816   3.149   9.906   7.454  0.7524  0.4272 -0.7420
   45MOL0     C 5817   3.017   9.844   7.464 -0.0431 -0.1688  0.4940
   45MOL0     C 5818   2.914   9.958   7.459 -0.4612 -0.4488  0.0580
   45MOL0     C 5819   2.771   9.923   7.452  0.8182 -0.4888 -0.2587
   45MOL0     C 5820   2.671  10.045   7.477  0.1924 -0.7659  0.3036
   45MOL0     C 5821   2.687  10.108   7.620  0.3027 -0.2061 -1.1375
   45MOL0     C 5822   2.571  10.186   7.668 -0.4040 -0.5093 -0.6737
   45MOL0     C 5823   2.571  10.234   7.820  0.3547  0.2287 -0.2717
   45MOL0     C 5824   2.430  10.260   7.874  0.1094 -0.0344  0.3841
   45MOL0     N 5825   2.334  10.147   7.882 -0.0960  0.6233 -0.4089
   45MOL0     C 5826   2.341  10.044   7.970 -0.0495  0.4453 -0.7117
   45MOL0     C 5827   2.213   9.989   7.964  0.5312 -0.4909 -1.2397
   45MOL0     C 5828   2.150   9.877   8.037  0.0196 -0.4086 -0.1409
   45MOL0     C 5829   2.085   9.921   8.168  0.5424 -0.0664  0.0970
   45MOL0     C 5830   2.042   9.799   8.242  0.4087  0.3452  0.4191
   45MOL0     C 5831   1.923   9.717   8.184  0.1819 -0.0482  0.3158
   45MOL0     O 5832   1.894   9.621   8.284  0.0274  0.0894 -0.3632
   45MOL0     C 5833   1.775   9.551   8.276 -0.2500  0.1726  0.5910
   45MOL0     C 5834   1.713   9.520   8.394 -0.0501  0.2093  0.9558
   45MOL0     C 5835   1.594   9.445   8.399  0.0914 -0.2077  0.7572
   45MOL0     C 5836   1.533   9.399   8.274 -0.0828 -0.1034  0.3877
   45MOL0     C 5837   1.390   9.357   8.274  0.6048 -0.8277 -0.2918
   45MOL0     O 5838   1.330   9.334   8.158 -0.3815 -0.1491  0.6406
   45MOL0     C 5839   1.194   9.312   8.168  0.1588 -0.2746  0.6587
   45MOL0     C 5840   1.140   9.196   8.212  1.0668  0.4041 -1.1578
   45MOL0     C 5841   0.999   9.179   8.230  0.3032 -0.2698 -0.3310
   45MOL0     C 5842   0.911   9.289   8.203  0.5632  0.0073 -0.2863
   45MOL0     O 5843   0.768   9.273   8.213  0.0855  0.5029 -1.5126
   45MOL0     C 5844   0.679   9.388   8.184 -0.2642  0.2208 -0.0058
   45MOL0     C 5845   0.552   9.367   8.267 -0.1956  0.4339  0.8470
   45MOL0     C 5846   0.551   9.452   8.401  0.0995  0.8758 -0.3936
   45MOL0     C 5847   0.420   9.444   8.483  0.6157 -0.5129 -0.6256
   45MOL0     C 5848   0.304   9.509   8.407 -0.2396 -0.1740 -0.6934
   45MOL0     C 5849   0.176   9.525   8.497  0.8515  0.2754  0.1092
   45MOL0     C 5850   0.113   9.392   8.552 -0.5362  0.0853 -0.2810
   45MOL0     C 5851  -0.036   9.426   8.589 -0.6481  0.5687  0.0547
   45MOL0    Cl 5852  -0.056   9.581   8.676 -0.1337 -0.2041  0.3861
   45MOL0     C 5853   0.973   9.401   8.149  0.9282  0.4369  0.3710
   45MOL0     C 5854   1.107   9.412   8.128  0.0333  0.5577  0.7368
   45MOL0     O 5855   1.337   9.358   8.384 -0.0346  0.5131  0.1922
   45MOL0     C 5856   1.596   9.440   8.154 -0.4032 -0.0951  0.2996
   45MOL0     C 5857   1.719   9.510   8.156  0.0104 -0.1163  0.3224
   45MOL0     N 5858   2.134  10.067   7.877  0.4062  1.0609  0.6731
   45MOL0     N 5859   2.204  10.160   7.833 -0.9277 -0.5123  0.1658
   45MOL0     C 5860   3.368   9.921   7.542  0.9851 -0.1720 -0.1812
   45MOL0     C 5861   3.482   9.855   7.582  0.2598 -0.5208 -0.4695
   45MOL0     C 5862   3.721   9.548   7.871 -0.2702 -0.3932  0.0373
   45MOL0     C 5863   3.849   9.593   7.834  0.4531  0.1301  0.1520
   45MOL0     C 5864   3.957   9.541   7.893 -0.5330  1.3812 -0.7695
   45MOL0     C 5865   3.947   9.446   7.999  0.8190  0.1042  0.6378
   45MOL0     O 5866   4.064   9.394   8.052  0.6989  0.5778  0.3590
   45MOL0     C 5867   4.100   9.260   8.002 -0.2563 -0.4648  0.9878
   45MOL0     C 5868   4.233   9.223   8.060  0.4235  0.2610  0.3699
   45MOL0     C 5869   4.345   9.267   7.957  0.4613  0.1659  0.6094
   45MOL0     C 5870   4.478   9.203   7.990  0.4272  0.2996 -0.3155
   45MOL0     C 5871   4.591   9.254   7.904  0.3476 -0.6260 -0.6843
   45MOL0     C 5872   4.683   9.299   7.838 -0.0537  0.0726 -0.0920
   45MOL0     C 5873   3.830   9.399   8.039  0.2564 -0.1663  0.3064
   45MOL0     C 5874   3.715   9.436   7.966  0.4282 -0.8847 -0.4452
   45MOL0     H 5875   3.361   9.546   7.657  1.0082  0.2474  0.4942
   45MOL0     H 5876   3.152   9.658   7.550  0.9095 -1.0834 -3.9448
   45MOL0     H 5877   3.006   9.789   7.558  2.2126 -0.8131  0.4391
   45MOL0     H 5878   2.991   9.781   7.378 -1.7543  0.9545  0.1520
   45MOL0     H 5879   2.944  10.018   7.372 -0.0425  1.5853  1.5416
   45MOL0     H 5880   2.918  10.025   7.545 -0.2757 -0.3196 -0.0521
   45MOL0     H 5881   2.737   9.861   7.536 -0.9195 -0.1219 -0.6564
   45MOL0     H 5882   2.753   9.870   7.358  0.2538  1.6882 -1.4670
   45MOL0     H 5883   2.698  10.123   7.405 -0.5661 -0.7666  0.0126
   45MOL0     H 5884   2.569  10.006   7.469  1.2793 -3.3692 -3.0553
   45MOL0     H 5885   2.774  10.175   7.616  0.4967 -0.5091 -2.6618
   45MOL0     H 5886   2.703  10.023   7.686  0.4003 -0.2318 -1.1927
   45MOL0     H 5887   2.477  10.129   7.660 -0.1107 -0.7135 -4.0779
   45MOL0     H 5888   2.555  10.271   7.601 -0.4970 -0.0338 -0.0565
   45MOL0     H 5889   2.612  10.155   7.883 -1.8134  2.3390  4.2589
   45MOL0     H 5890   2.638  10.318   7.839  3.4806 -2.1105 -0.1651
   45MOL0     H 5891   2.374  10.330   7.811 -0.3736 -0.7064  0.0536
   45MOL0     H 5892   2.439  10.310   7.971  1.9770 -1.0932  0.8106
   45MOL0     H 5893   2.421  10.007   8.033  0.2438 -0.9211 -1.8372
   45MOL0     H 5894   2.220   9.795   8.055 -0.2262 -0.5623  0.1228
   45MOL0     H 5895   2.075   9.838   7.968 -0.1835 -2.3010  1.0715
   45MOL0     H 5896   1.995   9.981   8.150  0.0466 -0.5619  0.8635
   45MOL0     H 5897   2.154   9.984   8.225 -1.8610  4.0248 -1.1020
   45MOL0     H 5898   2.117   9.722   8.259 -1.9548 -2.7289 -2.0185
   45MOL0     H 5899   2.009   9.834   8.341 -3.1915 -2.3819  0.3858
   45MOL0     H 5900   1.962   9.678   8.089  0.9104  2.8107 -0.6660
   45MOL0     H 5901   1.828   9.766   8.163 -1.6801 -2.0263  3.3620
   45MOL0     H 5902   1.759   9.551   8.487  1.2706 -0.8656  0.6931
   45MOL0     H 5903   1.540   9.418   8.489 -2.8956 -3.0591 -1.6105
   45MOL0     H 5904   1.211   9.119   8.240  2.3131  1.8251 -0.2283
   45MOL0     H 5905   0.956   9.082   8.253 -2.7179  0.9335 -0.4130
   45MOL0     H 5906   0.681   9.385   8.075  0.4151 -0.2161  0.0093
   45MOL0     H 5907   0.707   9.490   8.211 -3.5144  1.3364 -0.4857
   45MOL0     H 5908   0.526   9.264   8.290 -2.3394  1.0346  1.3570
   45MOL0     H 5909   0.473   9.398   8.198  2.3798  0.8481 -2.1687
   45MOL0     H 5910   0.572   9.557   8.375 -0.8028  1.0830 -0.3167
   45MOL0     H 5911   0.628   9.410   8.466 -0.3620 -0.6640 -0.8118
   45MOL0     H 5912   0.392   9.339   8.494 -3.4929  0.5515  0.5071
   45MOL0     H 5913   0.442   9.492   8.579  0.7527 -3.8513  1.1753
   45MOL0     H 5914   0.270   9.452   8.319  0.0133 -0.5842 -0.5299
   45MOL0     H 5915   0.326   9.610   8.371  1.4645  0.0232  0.7614
   45MOL0     H 5916   0.101   9.580   8.440 -0.4116  0.3807  1.7975
   45MOL0     H 5917   0.201   9.589   8.582 -0.7915  0.2169  0.6683
   45MOL0     H 5918   0.132   9.306   8.487 -0.5240  0.1897 -0.4165
   45MOL0     H 5919   0.157   9.378   8.651 -0.0704 -0.4970 -0.5647
   45MOL0     H 5920  -0.088   9.347   8.644  0.7842  0.8919  2.0029
   45MOL0     H 5921  -0.088   9.423   8.493  0.9937 -6.0364 -1.1453
   45MOL0     H 5922   0.914   9.487   8.119 -1.9000 -1.7660 -0.8602
   45MOL0     H 5923   1.154   9.498   8.082  2.3607 -1.0851 -0.1054
   45MOL0     H 5924   1.556   9.416   8.056 -2.2138  0.6036  0.8262
   45MOL0     H 5925   1.774   9.530   8.064  0.8332 -0.3480  0.7542
   45MOL0     H 5926   3.375  10.028   7.525 -0.0743  0.0203  0.4631
   45MOL0     H 5927   3.567   9.918   7.608  1.7447 -2.4047 -0.5543
   45MOL0     H 5928   3.859   9.667   7.755  2.3823 -0.0308  0.1832
   45MOL0     H 5929   4.054   9.586   7.876 -0.2012  1.5839  1.2937
   45MOL0     H 5930   4.101   9.262   7.893 -2.7897 -0.2654  0.9089
   45MOL0     H 5931   4.023   9.197   8.047 -1.3016  0.4895  0.5767
   45MOL0     H 5932   4.243   9.247   8.166  4.4408 -1.3459  0.5459
   45MOL0     H 5933   4.243   9.114   8.060 -0.5535  0.1580  1.2916
   45MOL0     H 5934   4.359   9.376   7.952 -0.9345  0.3824  1.0197
   45MOL0     H 5935   4.306   9.233   7.861 -4.3606  0.7314  2.0974
   45MOL0     H 5936   4.504   9.214   8.096  0.9439  0.2674 -0.4351
   45MOL0     H 5937   4.450   9.099   7.968  0.5763 -0.4816  2.6980
   45MOL0     H 5938   4.757   9.341   7.774 -0.5075  1.9693  0.5530
   45MOL0     H 5939   3.833   9.318   8.112  3.3332 -0.6762 -0.2335
   45MOL0     H 5940   3.621   9.387   7.990  0.4631 -0.3776  0.8043
   46MOL0     O 5941   6.254   5.767   7.411  0.2717 -0.0697  0.1743
   46MOL0     C 5942   6.343   5.768   7.328  0.1268 -0.8449  0.9187
   46MOL0     O 5943   6.319   5.770   7.187  0.3345  0.0086 -0.8202
   46MOL0     C 5944   6.209   5.829   7.128 -0.3763 -0.3541 -0.3898
   46MOL0     C 5945   6.182   5.804   6.998  0.2337 -0.0133  0.0247
   46MOL0     C 5946   6.075   5.858   6.932  0.1503  0.3388 -0.9057
   46MOL0     C 5947   5.987   5.948   6.988 -1.3274 -0.2760 -0.0275
   46MOL0     O 5948   5.903   6.017   6.891  0.3616  0.1733 -0.0973
   46MOL0     C 5949   5.779   6.056   6.940  0.7063 -0.4548 -0.0397
   46MOL0     C 5950   5.679   6.104   6.830 -0.0220 -0.1647 -0.2760
   46MOL0     C 5951   5.549   6.177   6.879 -0.6215 -0.5446 -0.7876
   46MOL0     C 5952   5.473   6.098   6.974  0.2562  0.2307 -0.8190
   46MOL0     C 5953   5.344   6.180   7.028  0.5375 -1.2345 -0.0179
   46MOL0     C 5954   5.231   6.091   7.082 -1.0971 -0.0708 -0.5378
   46MOL0     C 5955   5.105   6.162   7.126  0.0191 -0.5334  0.0730
   46MOL0     C 5956   4.991   6.093   7.200 -0.6677 -0.8723 -0.2205
   46MOL0     N 5957   4.917   6.202   7.263 -0.9966 -0.5633  0.0733
   46MOL0     C 5958   4.833   6.296   7.211  0.2598 -0.6885  0.2591
   46MOL0     C 5959   4.773   6.359   7.318 -0.2416 -0.2929 -0.4850
   46MOL0     C 5960   4.679   6.468   7.315  0.0913  0.8920 -0.0970
   46MOL0     C 5961   4.528   6.416   7.328 -0.2853  0.0882  1.0317
   46MOL0     C 5962   4.449   6.544   7.320  0.7726 -0.7167  0.3883
   46MOL0     C 5963   4.304   6.528   7.285  1.1401  0.1528  0.3032
   46MOL0     O 5964   4.228   6.458   7.387  0.3436 -0.1167 -0.2790
   46MOL0     C 5965   4.125   6.528   7.440 -0.2821 -0.3451  0.0769
   46MOL0     C 5966   4.031   6.593   7.357  0.4073 -0.0814 -0.3003
   46MOL0     C 5967   3.907   6.636   7.410 -0.8190  0.8529 -0.1825
   46MOL0     C 5968   3.891   6.628   7.551  0.2080  0.0299  0.2874
   46MOL0     C 5969   3.772   6.678   7.612 -0.4024 -0.1250  0.3915
   46MOL0     O 5970   3.687   6.749   7.534 -0.7397 -0.0079  0.0386
   46MOL0     C 5971   3.583   6.820   7.586 -0.0545 -0.6198 -0.4000
   46MOL0     C 5972   3.546   6.930   7.515 -0.7260 -0.5676 -0.2281
   46MOL0     C 5973   3.447   7.018   7.555  1.4312  0.4308 -0.0748
   46MOL0     C 5974   3.381   7.001   7.676 -0.3076 -0.5669 -0.4601
   46MOL0     O 5975   3.288   7.081   7.734  0.1822  0.0481  0.1096
   46MOL0     C 5976   3.179   7.133   7.650 -0.0969  0.2182 -0.2880
   46MOL0     C 5977   3.100   7.232   7.735  0.5104  0.1643 -0.4595
   46MOL0     C 5978   2.987   7.287   7.654 -0.0089 -0.1179  0.1722
   46MOL0     C 5979   2.879   7.319   7.748 -0.4954 -1.2431 -0.7985
   46MOL0     C 5980   2.767   7.387   7.664 -0.1000  0.0404 -0.4878
   46MOL0     C 5981   2.659   7.432   7.766 -0.2764 -0.2054  0.0388
   46MOL0     C 5982   2.528   7.459   7.700  0.1625 -0.3261  0.1569
   46MOL0     C 5983   2.464   7.586   7.757 -0.6961 -0.2991 -0.1768
   46MOL0    Cl 5984   2.424   7.568   7.924  0.0430 -0.2840  0.4304
   46MOL0     C 5985   3.418   6.891   7.754 -0.1568 -0.4186 -0.2390
   46MOL0     C 5986   3.515   6.799   7.708  0.1312  0.4099  0.3414
   46MOL0     O 5987   3.769   6.667   7.733 -0.2007 -0.5326 -0.6927
   46MOL0     C 5988   3.999   6.574   7.634  0.7246  1.3351 -1.1449
   46MOL0     C 5989   4.102   6.514   7.578 -0.0706  0.6175  0.7020
   46MOL0     N 5990   4.840   6.310   7.432  0.6726 -0.3391  1.1606
   46MOL0     N 5991   4.928   6.224   7.397  0.4264  0.5377  0.1608
   46MOL0     C 5992   6.008   5.979   7.125 -0.4929 -0.6233 -0.3107
   46MOL0     C 5993   6.121   5.923   7.193  1.0641  0.0045  0.5651
   46MOL0     C 5994   6.482   5.728   7.368  0.1774  0.1711  0.5069
   46MOL0     C 5995   6.520   5.715   7.498 -0.3487  1.3535  0.8686
   46MOL0     C 5996   6.657   5.712   7.538  0.6004 -0.2905 -0.1162
   46MOL0     C 5997   6.760   5.707   7.444 -0.0957  0.6204 -0.0273
   46MOL0     O 5998   6.882   5.672   7.495 -0.4042 -0.3932 -0.7519
   46MOL0     C 5999   7.001   5.706   7.417  0.2068  0.8628  0.5789
   46MOL0     C 6000   7.056   5.585   7.323 -0.8126 -0.2705  0.8584
   46MOL0     C 6001   7.133   5.652   7.200 -0.7043 -0.7232  0.8176
   46MOL0     C 6002   7.241   5.555   7.153  0.3437 -0.1387 -0.1686
   46MOL0     C 6003   7.284   5.571   7.017  0.4970  0.2925 -0.6859
   46MOL0     C 6004   7.323   5.575   6.904 -0.3098  0.5693 -1.0594
   46MOL0     C 6005   6.718   5.726   7.314  0.2180  0.6001 -0.0267
   46MOL0     C 6006   6.583   5.725   7.274  0.1641 -0.0446  0.5499
   46MOL0     H 6007   6.242   5.735   6.939  2.1459  0.5259  1.2578
   46MOL0     H 6008   6.056   5.837   6.828 -0.8947  2.9172 -1.2927
   46MOL0     H 6009   5.799   6.150   6.993  0.6349  0.4325 -1.5213
   46MOL0     H 6010   5.736   5.995   7.020  2.8547  1.0158  2.3977
   46MOL0     H 6011   5.652   6.017   6.769  0.1240 -0.6108  0.2758
   46MOL0     H 6012   5.741   6.180   6.782  0.3065 -1.1530 -1.4899
   46MOL0     H 6013   5.485   6.200   6.793 -1.4227  0.9394  0.1721
   46MOL0     H 6014   5.583   6.264   6.936 -1.9445 -0.9858  0.7407
   46MOL0     H 6015   5.438   6.006   6.926 -1.5332  0.3906  0.0708
   46MOL0     H 6016   5.527   6.063   7.062  1.8021  0.0421 -1.8215
   46MOL0     H 6017   5.311   6.245   6.946  1.5424  0.3172  0.7742
   46MOL0     H 6018   5.369   6.250   7.108 -0.5733 -2.2414  1.2502
   46MOL0     H 6019   5.265   6.035   7.170 -2.1500 -1.2605 -0.8598
   46MOL0     H 6020   5.207   6.016   7.006  0.8221 -0.2653 -1.0202
   46MOL0     H 6021   5.138   6.254   7.177  1.0555 -0.7618 -0.1741
   46MOL0     H 6022   5.061   6.203   7.035 -0.6179  3.7052  2.0098
   46MOL0     H 6023   5.029   6.030   7.282  1.4510  0.5787 -0.0204
   46MOL0     H 6024   4.933   6.027   7.134  2.5238 -2.6971 -1.4202
   46MOL0     H 6025   4.813   6.332   7.111 -0.3092 -0.1684  0.5546
   46MOL0     H 6026   4.690   6.514   7.216 -3.2433 -3.1793 -2.7432
   46MOL0     H 6027   4.699   6.543   7.392 -2.4279  1.4751  0.0757
   46MOL0     H 6028   4.523   6.357   7.420 -2.0082 -4.0516 -1.4512
   46MOL0     H 6029   4.504   6.354   7.242  1.8521  0.8431 -0.1983
   46MOL0     H 6030   4.449   6.586   7.421 -1.2216  0.0071  0.1387
   46MOL0     H 6031   4.486   6.624   7.256 -1.9894  0.7478  0.4373
   46MOL0     H 6032   4.298   6.471   7.192 -0.9358  3.0547 -1.5052
   46MOL0     H 6033   4.257   6.625   7.267 -0.2550 -0.4831  0.3622
   46MOL0     H 6034   4.044   6.585   7.250 -1.0703 -1.1195 -0.4403
   46MOL0     H 6035   3.838   6.666   7.332  0.9047  2.9455 -0.9989
   46MOL0     H 6036   3.590   6.958   7.420 -0.9409  1.7854  0.2869
   46MOL0     H 6037   3.422   7.101   7.490 -0.7219  0.5308  0.7750
   46MOL0     H 6038   3.122   7.052   7.604 -0.8448  2.7528 -4.3250
   46MOL0     H 6039   3.220   7.183   7.562 -0.6585 -0.1898 -0.7900
   46MOL0     H 6040   3.158   7.315   7.776 -2.6187  2.1684  0.2125
   46MOL0     H 6041   3.061   7.172   7.817 -2.5619  1.1346 -1.0664
   46MOL0     H 6042   2.950   7.205   7.592 -0.1482 -0.4704  0.7145
   46MOL0     H 6043   3.022   7.368   7.588  2.3325 -2.0290 -1.0945
   46MOL0     H 6044   2.836   7.230   7.795 -2.1038 -0.8288 -1.4337
   46MOL0     H 6045   2.921   7.391   7.819  1.1795 -2.6997 -0.2273
   46MOL0     H 6046   2.724   7.313   7.596  1.3450 -0.8946 -0.4264
   46MOL0     H 6047   2.815   7.471   7.614  1.4807  0.1707  1.1281
   46MOL0     H 6048   2.699   7.516   7.823 -0.4100 -0.5774  0.6900
   46MOL0     H 6049   2.633   7.353   7.837 -2.5203 -0.1218 -0.6345
   46MOL0     H 6050   2.537   7.459   7.591  0.2452 -0.0988  0.1619
   46MOL0     H 6051   2.460   7.379   7.729 -1.6440  0.6457 -1.1685
   46MOL0     H 6052   2.369   7.614   7.710 -1.4486  2.4579  2.6076
   46MOL0     H 6053   2.536   7.669   7.756 -0.6191 -0.3362 -2.0004
   46MOL0     H 6054   3.380   6.885   7.856  1.8603 -2.0226  0.4920
   46MOL0     H 6055   3.537   6.708   7.762  0.4572 -0.9308 -1.9224
   46MOL0     H 6056   3.990   6.571   7.742 -0.6746  0.1459 -1.2590
   46MOL0     H 6057   4.171   6.451   7.632  0.4562  0.9716  0.4522
   46MOL0     H 6058   5.948   6.054   7.175 -0.4945  0.8838 -2.4410
   46MOL0     H 6059   6.146   5.952   7.295 -1.8001  2.8680  0.6070
   46MOL0     H 6060   6.449   5.705   7.580 -2.6552  2.9969 -0.7860
   46MOL0     H 6061   6.689   5.688   7.638  0.3410 -3.1544 -0.6259
   46MOL0     H 6062   7.071   5.749   7.490 -0.9978  0.8728  1.7660
   46MOL0     H 6063   6.975   5.791   7.354 -0.9962 -0.1666 -0.3617
   46MOL0     H 6064   7.107   5.511   7.384 -0.7216  0.5524  1.8131
   46MOL0     H 6065   6.971   5.535   7.277 -1.2820 -0.7704  2.2438
   46MOL0     H 6066   7.167   5.753   7.222 -1.4328 -0.4475  0.7133
   46MOL0     H 6067   7.061   5.662   7.118  1.5218 -0.4243 -1.1879
   46MOL0     H 6068   7.329   5.550   7.218 -1.7112 -1.1006  2.8058
   46MOL0     H 6069   7.199   5.454   7.163 -3.2927  1.2436  0.0633
   46MOL0     H 6070   7.349   5.565   6.801  1.4615 -2.3314 -0.4630
   46MOL0     H 6071   6.799   5.716   7.243  0.3922 -1.4020  0.3858
   46MOL0     H 6072   6.572   5.727   7.166  0.7609  2.1826  0.4709
   47MOL0     O 6073   8.620   9.966   5.179  0.9684 -0.1948 -0.5484
   47MOL0     C 6074   8.646   9.987   5.061 -0.9627 -0.3253  0.1616
   47MOL0     O 6075   8.568   9.957   4.957 -0.2141  0.3491  1.2128
   47MOL0     C 6076   8.440   9.911   4.981 -0.1887  0.5801  0.7530
   47MOL0     C 6077   8.401   9.782   4.937 -0.6262 -0.1833  0.3076
   47MOL0     C 6078   8.271   9.738   4.944 -0.2740 -0.2094  0.3159
   47MOL0     C 6079   8.184   9.809   5.029  0.9669 -0.6547  0.1232
   47MOL0     O 6080   8.056   9.765   5.067 -0.1937 -0.2025  0.0319
   47MOL0     C 6081   7.948   9.812   4.992 -0.4158  0.0495  0.5642
   47MOL0     C 6082   7.846   9.841   5.108 -0.9315  0.3744  0.8069
   47MOL0     C 6083   7.704   9.878   5.059 -0.0846 -0.0490  0.0744
   47MOL0     C 6084   7.622   9.757   4.996  0.2502 -0.6913 -0.7639
   47MOL0     C 6085   7.466   9.776   4.980 -0.0629 -0.1191 -0.1672
   47MOL0     C 6086   7.396   9.825   5.108 -0.1206  0.1258  0.1700
   47MOL0     C 6087   7.422   9.729   5.233  0.8625 -0.1095  0.2755
   47MOL0     C 6088   7.312   9.756   5.330  0.1695 -0.2926 -0.2342
   47MOL0     N 6089   7.300   9.641   5.421 -0.5864  0.1668 -0.1483
   47MOL0     C 6090   7.211   9.536   5.396 -0.5149 -0.5821 -0.1058
   47MOL0     C 6091   7.220   9.455   5.504 -0.3938  0.1023  0.1032
   47MOL0     C 6092   7.127   9.336   5.529 -0.5359  0.3216 -0.7172
   47MOL0     C 6093   7.108   9.309   5.671  0.3934  0.2488  0.3417
   47MOL0     C 6094   7.018   9.180   5.691  0.4281 -0.1753  1.0493
   47MOL0     C 6095   6.955   9.181   5.828  0.6327  0.8390 -0.3328
   47MOL0     O 6096   6.877   9.064   5.836 -0.4723  0.7194  0.5264
   47MOL0     C 6097   6.762   9.062   5.926  0.2611 -1.2689  0.3378
   47MOL0     C 6098   6.724   9.175   6.007  0.2574  0.0394  0.8371
   47MOL0     C 6099   6.608   9.170   6.090 -0.7479  0.0643 -0.0008
   47MOL0     C 6100   6.532   9.046   6.096 -0.2350 -0.6127 -0.0227
   47MOL0     C 6101   6.409   9.036   6.183 -0.5450  0.5155 -0.5185
   47MOL0     O 6102   6.324   8.938   6.153 -0.6269  0.1322 -0.5965
   47MOL0     C 6103   6.212   8.912   6.226 -0.0184  0.3568 -0.6727
   47MOL0     C 6104   6.108   8.847   6.156 -0.3205  1.0842 -0.4067
   47MOL0     C 6105   5.989   8.820   6.216  0.1287  0.2218 -0.2834
   47MOL0     C 6106   5.964   8.855   6.348  0.9716  0.0438 -0.5156
   47MOL0     O 6107   5.843   8.830   6.414 -0.5102  0.4502 -0.2148
   47MOL0     C 6108   5.726   8.853   6.332  0.1297  0.0938  0.4941
   47MOL0     C 6109   5.598   8.853   6.404 -0.1698 -0.6367  0.2117
   47MOL0     C 6110   5.488   8.914   6.315 -0.3404 -0.3490 -0.4019
   47MOL0     C 6111   5.347   8.905   6.368 -1.0074 -0.2271 -0.6368
   47MOL0     C 6112   5.299   9.000   6.474  0.4953 -0.3513  0.4275
   47MOL0     C 6113   5.297   9.149   6.436 -0.5166  0.5364  0.1515
   47MOL0     C 6114   5.239   9.232   6.548  0.3177  0.1883 -0.0911
   47MOL0     C 6115   5.091   9.189   6.591 -0.2445 -0.3647 -0.7086
   47MOL0    Cl 6116   4.973   9.148   6.459  0.1113  0.0972 -0.5997
   47MOL0     C 6117   6.062   8.916   6.422  0.6136  0.2123  0.3117
   47MOL0     C 6118   6.187   8.946   6.361  0.2532  0.6061 -1.0299
   47MOL0     O 6119   6.395   9.114   6.273  0.1140 -0.2866 -0.5281
   47MOL0     C 6120   6.578   8.939   6.013 -0.0868 -0.1864 -0.3295
   47MOL0     C 6121   6.688   8.947   5.932 -0.4706 -0.6258  0.2422
   47MOL0     N 6122   7.320   9.503   5.587 -0.0177 -0.1266  0.4109
   47MOL0     N 6123   7.374   9.607   5.535  0.9751 -0.6802  0.1230
   47MOL0     C 6124   8.230   9.925   5.096 -0.8677 -0.7021 -0.3299
   47MOL0     C 6125   8.351   9.977   5.061 -0.5361 -0.4156 -0.1064
   47MOL0     C 6126   8.789  10.035   5.023  0.9278  0.2474 -0.5023
   47MOL0     C 6127   8.824  10.068   4.890 -0.7995 -0.0870  0.6132
   47MOL0     C 6128   8.962  10.078   4.858  0.1805 -1.0421 -0.0957
   47MOL0     C 6129   9.059  10.070   4.957 -0.2898 -0.3368  0.2321
   47MOL0     O 6130   9.197  10.071   4.932  0.0634  0.3528 -0.0062
   47MOL0     C 6131   9.240  10.104   4.798  0.1668 -0.6116  0.8049
   47MOL0     C 6132   9.386  10.154   4.803  0.6711  1.0029  0.1360
   47MOL0     C 6133   9.452  10.143   4.668 -0.0525 -0.4610 -0.1191
   47MOL0     C 6134   9.585  10.208   4.659  0.0504 -0.9799 -0.2939
   47MOL0     C 6135   9.677  10.123   4.733 -0.0960  0.0550 -1.3086
   47MOL0     C 6136   9.753  10.066   4.810 -0.0488  0.8610  0.4508
   47MOL0     C 6137   9.024  10.057   5.096 -0.2228  0.0060 -0.4042
   47MOL0     C 6138   8.881  10.046   5.126 -1.7427 -0.0360 -0.0247
   47MOL0     H 6139   8.481   9.728   4.886 -0.0413  0.1404  0.8685
   47MOL0     H 6140   8.232   9.650   4.895 -1.1607  0.2535  0.1630
   47MOL0     H 6141   7.921   9.729   4.926  2.9759  1.3120 -2.7985
   47MOL0     H 6142   7.989   9.903   4.947 -0.2967  1.8324  3.9281
   47MOL0     H 6143   7.900   9.908   5.176  2.4361 -0.9156 -0.4058
   47MOL0     H 6144   7.836   9.741   5.151 -1.8811 -0.7110 -1.7573
   47MOL0     H 6145   7.704   9.963   4.990  2.0542  1.5350  1.8893
   47MOL0     H 6146   7.645   9.909   5.146  0.0682  1.3026 -0.2736
   47MOL0     H 6147   7.664   9.734   4.897  0.9695 -0.0970 -0.6067
   47MOL0     H 6148   7.638   9.668   5.058 -1.4818 -0.4293  0.1256
   47MOL0     H 6149   7.429   9.676   4.955 -1.8855 -0.5585  3.6226
   47MOL0     H 6150   7.438   9.850   4.905  3.5150  1.6084 -0.0119
   47MOL0     H 6151   7.292   9.826   5.074 -0.6801 -2.2489  1.6022
   47MOL0     H 6152   7.420   9.929   5.133 -1.8880  0.4493  0.6436
   47MOL0     H 6153   7.430   9.622   5.209  0.7789 -0.2847  0.9983
   47MOL0     H 6154   7.517   9.753   5.281  0.6230 -0.5561  0.9831
   47MOL0     H 6155   7.217   9.773   5.278 -0.0793  2.0274  0.8630
   47MOL0     H 6156   7.339   9.851   5.377 -1.4863  0.2730 -0.3428
   47MOL0     H 6157   7.153   9.526   5.304  3.9037  1.8566 -3.5690
   47MOL0     H 6158   7.171   9.247   5.484 -0.5640 -1.0767  1.8030
   47MOL0     H 6159   7.039   9.349   5.467 -0.6738  1.8196 -0.2536
   47MOL0     H 6160   7.062   9.391   5.727 -0.9907  1.1476 -1.9569
   47MOL0     H 6161   7.207   9.298   5.716  1.2208 -0.3942 -1.5340
   47MOL0     H 6162   6.940   9.175   5.614  0.1041 -3.7569  1.4288
   47MOL0     H 6163   7.078   9.090   5.668  2.4919  1.1946  0.7694
   47MOL0     H 6164   6.886   9.267   5.835 -2.4000 -1.4906  0.8513
   47MOL0     H 6165   7.034   9.181   5.904 -0.2218 -2.5366  0.7179
   47MOL0     H 6166   6.788   9.262   5.999  1.2884 -0.8716 -1.7783
   47MOL0     H 6167   6.594   9.261   6.147 -0.2838  0.1697 -0.0569
   47MOL0     H 6168   6.119   8.833   6.049  1.6906 -0.2955 -0.0844
   47MOL0     H 6169   5.921   8.768   6.150 -0.3120 -2.9357  2.3654
   47MOL0     H 6170   5.729   8.783   6.249  1.4113  2.6627 -1.7857
   47MOL0     H 6171   5.748   8.954   6.295  1.4438 -0.3766 -0.0669
   47MOL0     H 6172   5.597   8.912   6.496  2.0916  2.4100 -1.5438
   47MOL0     H 6173   5.572   8.755   6.446 -2.8908 -0.3702 -0.6061
   47MOL0     H 6174   5.484   8.870   6.215  2.7697  0.2263 -0.8678
   47MOL0     H 6175   5.525   9.016   6.300  1.4712 -1.1136 -1.4184
   47MOL0     H 6176   5.274   8.904   6.286  0.0166 -1.4576 -1.5789
   47MOL0     H 6177   5.330   8.805   6.408 -0.0482  0.1590  0.7820
   47MOL0     H 6178   5.339   8.978   6.573 -1.5441 -0.7896  1.2027
   47MOL0     H 6179   5.193   8.974   6.485  0.3693 -0.8522 -1.5000
   47MOL0     H 6180   5.227   9.169   6.355 -5.3835 -2.2891  3.1886
   47MOL0     H 6181   5.398   9.181   6.407 -0.1854  0.7041  1.4214
   47MOL0     H 6182   5.308   9.247   6.632  0.2300 -0.1974  0.0511
   47MOL0     H 6183   5.223   9.333   6.511 -1.1274  0.8396  2.1393
   47MOL0     H 6184   5.045   9.258   6.663 -1.8762 -0.1250 -1.9294
   47MOL0     H 6185   5.093   9.104   6.660 -0.9500 -0.1157 -0.3645
   47MOL0     H 6186   6.047   8.954   6.523 -2.3372  1.9411 -0.6700
   47MOL0     H 6187   6.260   8.987   6.430 -1.2979  0.9901  0.4406
   47MOL0     H 6188   6.532   8.841   6.023  0.7779 -1.0437 -3.5555
   47MOL0     H 6189   6.704   8.866   5.861  0.8843 -0.7033  0.6065
   47MOL0     H 6190   8.170   9.974   5.172 -3.0677 -2.4268 -0.8840
   47MOL0     H 6191   8.386  10.070   5.106 -1.6418 -0.2659  0.4858
   47MOL0     H 6192   8.754  10.047   4.810 -1.7243  1.7904  0.8840
   47MOL0     H 6193   8.987  10.076   4.752 -0.0976 -0.9834 -0.1636
   47MOL0     H 6194   9.174  10.180   4.755  0.1595 -1.0520  0.0199
   47MOL0     H 6195   9.232  10.016   4.733 -2.4535 -0.2677  0.5552
   47MOL0     H 6196   9.393  10.255   4.845  0.5638  0.6210  1.0945
   47MOL0     H 6197   9.439  10.094   4.878  0.3203 -0.0477 -0.4372
   47MOL0     H 6198   9.389  10.201   4.600  0.8276 -1.9068 -2.2842
   47MOL0     H 6199   9.463  10.043   4.625  3.1454 -0.5854  0.7118
   47MOL0     H 6200   9.614  10.219   4.554 -2.1053 -0.2083 -0.8558
   47MOL0     H 6201   9.575  10.311   4.696 -0.2084 -1.8075  2.1245
   47MOL0     H 6202   9.830  10.025   4.872 -1.3782 -0.9001  1.0312
   47MOL0     H 6203   9.091  10.053   5.182 -2.0580  0.6199  1.1413
   47MOL0     H 6204   8.855  10.020   5.228  1.0958 -1.2150  0.4911
   48MOL0     O 6205   7.542   4.589   3.226 -0.3478 -0.7530  1.3821
   48MOL0     C 6206   7.491   4.508   3.151  0.6826 -0.6991  0.1285
   48MOL0     O 6207   7.550   4.454   3.044 -0.2480  0.3189 -0.3413
   48MOL0     C 6208   7.680   4.488   3.030  0.3370 -0.3215 -0.3706
   48MOL0     C 6209   7.774   4.465   3.129 -0.4806  0.3362  0.1663
   48MOL0     C 6210   7.912   4.482   3.107 -0.6810 -0.3013 -0.1571
   48MOL0     C 6211   7.956   4.538   2.982 -0.2374 -0.6768  0.2363
   48MOL0     O 6212   8.087   4.562   2.964 -0.3414  0.2172  0.0209
   48MOL0     C 6213   8.127   4.647   2.851  0.3631  0.3283 -0.8567
   48MOL0     C 6214   8.275   4.666   2.845  0.1957  0.6847 -0.3811
   48MOL0     C 6215   8.338   4.711   2.970 -0.2342 -0.0791 -0.0349
   48MOL0     C 6216   8.494   4.752   2.976  0.1424 -0.4375  0.2565
   48MOL0     C 6217   8.536   4.873   2.883  0.1678  0.0534  0.0902
   48MOL0     C 6218   8.471   5.007   2.920  1.0506 -0.9629 -0.4656
   48MOL0     C 6219   8.534   5.125   2.850  0.5042  0.7556  0.4251
   48MOL0     C 6220   8.507   5.135   2.697  0.0615  0.0485  0.7898
   48MOL0     N 6221   8.366   5.169   2.684 -0.3085 -0.7902 -0.3529
   48MOL0     C 6222   8.297   5.128   2.575 -0.1918 -0.2887 -0.5242
   48MOL0     C 6223   8.206   5.228   2.560  0.5058  0.9679 -0.1732
   48MOL0     C 6224   8.102   5.227   2.447  0.6145  0.6008  0.1609
   48MOL0     C 6225   7.959   5.246   2.479  0.2714 -0.4032 -0.1441
   48MOL0     C 6226   7.864   5.198   2.366 -0.8266 -0.1343 -0.8402
   48MOL0     C 6227   7.716   5.240   2.394  0.8122  0.0355 -0.2840
   48MOL0     O 6228   7.636   5.222   2.278 -0.6259 -0.3817  0.6066
   48MOL0     C 6229   7.497   5.204   2.300  0.4538  0.3398 -0.2261
   48MOL0     C 6230   7.421   5.152   2.192  0.6390 -0.5572  0.1983
   48MOL0     C 6231   7.280   5.139   2.211 -0.2931  0.2753  0.4142
   48MOL0     C 6232   7.219   5.180   2.327  0.3472  0.1685 -0.2792
   48MOL0     C 6233   7.077   5.148   2.344  0.6510  0.2331 -0.2064
   48MOL0     O 6234   7.042   5.108   2.469  0.5704  0.1212  0.0172
   48MOL0     C 6235   6.916   5.054   2.491 -0.3011  0.8138 -0.5919
   48MOL0     C 6236   6.853   5.122   2.594 -0.8587  0.4853 -0.1817
   48MOL0     C 6237   6.716   5.093   2.623 -0.2735 -0.1798 -0.0468
   48MOL0     C 6238   6.635   5.007   2.550 -0.0141 -0.0929  0.1205
   48MOL0     O 6239   6.503   4.993   2.576  0.4017 -0.1275 -0.2152
   48MOL0     C 6240   6.422   4.882   2.520  0.1205  0.4303 -0.4038
   48MOL0     C 6241   6.287   4.902   2.581  0.2471 -0.1801 -0.1363
   48MOL0     C 6242   6.192   4.799   2.516 -0.6532 -0.6156  0.9177
   48MOL0     C 6243   6.059   4.788   2.594  0.2897 -0.6650 -0.5632
   48MOL0     C 6244   5.979   4.670   2.535 -0.6322 -0.3069  0.2254
   48MOL0     C 6245   5.832   4.680   2.584 -0.1045 -0.4100  0.2615
   48MOL0     C 6246   5.793   4.645   2.734 -0.0991  0.6910  1.0062
   48MOL0     C 6247   5.640   4.650   2.742  0.0924 -1.1004 -0.2476
   48MOL0    Cl 6248   5.606   4.650   2.924  0.6228  0.3062  0.3829
   48MOL0     C 6249   6.703   4.941   2.455 -0.1457 -0.5360  0.5378
   48MOL0     C 6250   6.836   4.969   2.410  1.0313 -0.3309 -0.0019
   48MOL0     O 6251   6.995   5.158   2.254  0.3779 -1.1012  0.5220
   48MOL0     C 6252   7.294   5.239   2.420 -0.9267  0.7275  0.5075
   48MOL0     C 6253   7.435   5.243   2.414 -0.1987  0.2025 -0.2206
   48MOL0     N 6254   8.222   5.328   2.657  0.6858 -0.7341 -0.3541
   48MOL0     N 6255   8.321   5.288   2.737 -0.0247 -0.3959  0.8572
   48MOL0     C 6256   7.847   4.567   2.893  0.0039  0.6449  1.1076
   48MOL0     C 6257   7.715   4.548   2.916  0.7606  0.5369  0.0632
   48MOL0     C 6258   7.350   4.466   3.177 -0.1424 -0.2831  0.2657
   48MOL0     C 6259   7.267   4.427   3.064 -0.2635  0.1951  0.7527
   48MOL0     C 6260   7.129   4.391   3.085  0.4596 -1.7344  0.4335
   48MOL0     C 6261   7.075   4.407   3.214  0.7605  0.4887  0.4394
   48MOL0     O 6262   6.944   4.391   3.246  0.3466  0.2861 -0.2676
   48MOL0     C 6263   6.843   4.346   3.157  0.1392  0.2490  0.6533
   48MOL0     C 6264   6.707   4.366   3.208  0.2901  0.2432 -0.7581
   48MOL0     C 6265   6.604   4.377   3.097 -0.0653  0.4115 -0.8188
   48MOL0     C 6266   6.483   4.452   3.148 -0.0087  0.5638  0.4087
   48MOL0     C 6267   6.405   4.391   3.258 -0.5586  0.2994 -0.6343
   48MOL0     C 6268   6.340   4.319   3.327  0.8846  0.3563 -0.5258
   48MOL0     C 6269   7.167   4.428   3.320 -0.7745  0.3578 -0.3723
   48MOL0     C 6270   7.298   4.477   3.306  1.0188 -0.0464 -0.2839
   48MOL0     H 6271   7.744   4.431   3.227  0.1948  0.4697  0.4297
   48MOL0     H 6272   7.987   4.457   3.181 -0.5002  0.8172  0.0525
   48MOL0     H 6273   8.080   4.745   2.864  0.9068  0.5535 -0.5832
   48MOL0     H 6274   8.103   4.603   2.753  2.2131  0.8824 -1.6056
   48MOL0     H 6275   8.291   4.746   2.772  0.1133  4.1444  3.0702
   48MOL0     H 6276   8.317   4.568   2.820 -0.3045  0.9300 -2.4065
   48MOL0     H 6277   8.328   4.634   3.047  0.5605 -1.7081 -1.5051
   48MOL0     H 6278   8.295   4.807   3.000  1.0168  0.1617  1.1173
   48MOL0     H 6279   8.520   4.778   3.079 -1.7477  1.7363  0.2454
   48MOL0     H 6280   8.545   4.665   2.932 -1.2891 -0.6811 -0.9992
   48MOL0     H 6281   8.524   4.855   2.775  2.2091 -1.6889  0.0977
   48MOL0     H 6282   8.644   4.878   2.896  0.3684 -2.7011 -0.0374
   48MOL0     H 6283   8.466   5.026   3.028 -2.7986 -0.7229 -0.5396
   48MOL0     H 6284   8.365   4.998   2.895  0.6750  2.1794 -0.3242
   48MOL0     H 6285   8.520   5.217   2.907  1.7201  2.2466 -1.5473
   48MOL0     H 6286   8.642   5.114   2.863  0.9546 -1.4872 -3.5898
   48MOL0     H 6287   8.521   5.041   2.642  0.4867  0.1506  0.7154
   48MOL0     H 6288   8.573   5.213   2.658 -1.0475 -0.5870 -2.6536
   48MOL0     H 6289   8.320   5.034   2.526  1.2975 -0.3432  0.2096
   48MOL0     H 6290   8.121   5.137   2.389  4.3997  0.9544  0.5805
   48MOL0     H 6291   8.150   5.294   2.375  0.7116  0.2440 -0.1062
   48MOL0     H 6292   7.941   5.350   2.506  0.6669  0.0511 -1.5662
   48MOL0     H 6293   7.932   5.196   2.573 -2.6855  0.5444 -0.3914
   48MOL0     H 6294   7.892   5.234   2.266  1.9285  1.3625  0.3634
   48MOL0     H 6295   7.872   5.089   2.360  1.1955 -0.0122 -1.0169
   48MOL0     H 6296   7.715   5.348   2.411  4.2906  0.8537 -3.6717
   48MOL0     H 6297   7.692   5.180   2.482 -1.0933 -1.4448 -1.7355
   48MOL0     H 6298   7.475   5.129   2.101  0.0405 -1.4977  0.0668
   48MOL0     H 6299   7.213   5.108   2.131 -0.2147  1.9726 -0.3725
   48MOL0     H 6300   6.906   5.198   2.650 -1.5000  0.3826  0.5856
   48MOL0     H 6301   6.667   5.145   2.704 -0.4804  1.1361 -0.9946
   48MOL0     H 6302   6.451   4.778   2.535 -0.1094  0.2544 -1.1895
   48MOL0     H 6303   6.413   4.885   2.411 -1.0347  0.1327 -0.3274
   48MOL0     H 6304   6.248   5.003   2.565  1.5158  0.1353 -1.4569
   48MOL0     H 6305   6.299   4.887   2.689  0.6403 -1.4874 -0.3443
   48MOL0     H 6306   6.236   4.699   2.522 -1.5924 -0.9625  2.7877
   48MOL0     H 6307   6.176   4.842   2.417  1.0295  2.0603  1.7199
   48MOL0     H 6308   6.064   4.775   2.703  1.3920  1.4400 -0.3151
   48MOL0     H 6309   5.999   4.879   2.587  1.1970 -0.1227 -1.4572
   48MOL0     H 6310   6.031   4.578   2.565  1.2982 -0.5771 -3.2928
   48MOL0     H 6311   5.981   4.670   2.425  2.0481 -3.2211  0.1405
   48MOL0     H 6312   5.781   4.602   2.526 -0.7609  0.8513 -0.9130
   48MOL0     H 6313   5.791   4.776   2.551 -1.8926 -0.6672  1.5673
   48MOL0     H 6314   5.821   4.543   2.760  2.3665  0.9456 -0.3416
   48MOL0     H 6315   5.836   4.714   2.808  0.5922  2.6679 -1.1160
   48MOL0     H 6316   5.588   4.558   2.715 -1.3181 -0.9971  1.8947
   48MOL0     H 6317   5.594   4.740   2.700 -1.1562 -1.4943  0.2346
   48MOL0     H 6318   6.649   4.873   2.390  1.3778 -1.0889 -0.2063
   48MOL0     H 6319   6.875   4.929   2.317 -1.5500 -0.5632 -1.0592
   48MOL0     H 6320   7.256   5.268   2.518  1.7339 -1.2800  2.2720
   48MOL0     H 6321   7.496   5.290   2.491 -1.6315  0.0536  1.0619
   48MOL0     H 6322   7.878   4.596   2.794  0.2346 -0.9166  0.6887
   48MOL0     H 6323   7.644   4.565   2.835  0.7322  0.6718  0.1162
   48MOL0     H 6324   7.316   4.426   2.967 -1.6108  1.7793 -0.0050
   48MOL0     H 6325   7.065   4.372   2.999 -1.1852  2.2054  0.5532
   48MOL0     H 6326   6.845   4.245   3.116 -1.9115  0.6765 -0.6817
   48MOL0     H 6327   6.844   4.427   3.083  0.1389  1.2874  1.7552
   48MOL0     H 6328   6.676   4.276   3.262  0.9426 -0.7545 -1.9888
   48MOL0     H 6329   6.703   4.452   3.275  0.1742 -0.1941 -0.1916
   48MOL0     H 6330   6.584   4.276   3.061  0.9532  0.4330 -1.4909
   48MOL0     H 6331   6.638   4.435   3.011  0.4193 -0.2960 -1.1142
   48MOL0     H 6332   6.514   4.553   3.176  0.2993  0.8845 -1.0334
   48MOL0     H 6333   6.412   4.462   3.065 -2.6123  1.1865  2.5376
   48MOL0     H 6334   6.293   4.245   3.388  0.4343 -0.4588 -1.8284
   48MOL0     H 6335   7.132   4.416   3.422  0.1079 -0.8307 -0.1887
   48MOL0     H 6336   7.354   4.507   3.394  0.2429  0.6998 -0.0253
   49MOL0     O 6337   9.284   8.255   4.664 -0.2161  0.6276 -0.2586
   49MOL0     C 6338   9.369   8.335   4.706  0.3826 -0.3570  0.9423
   49MOL0     O 6339   9.357   8.468   4.715  0.5616  0.1081 -0.4837
   49MOL0     C 6340   9.228   8.522   4.706  0.4532 -0.3527  0.6671
   49MOL0     C 6341   9.149   8.500   4.594  0.7894 -0.1745  0.3224
   49MOL0     C 6342   9.022   8.561   4.585  0.2100 -0.2500  0.1492
   49MOL0     C 6343   8.987   8.661   4.684  0.3243  0.4568 -0.3730
   49MOL0     O 6344   8.874   8.725   4.657  0.1429 -0.7932  0.2111
   49MOL0     C 6345   8.765   8.697   4.738 -0.3079 -0.1244 -0.5985
   49MOL0     C 6346   8.637   8.743   4.663 -1.0710  1.0271 -0.6167
   49MOL0     C 6347   8.513   8.711   4.749 -0.6872  0.3493  0.6547
   49MOL0     C 6348   8.384   8.740   4.682  0.7252 -0.3178  0.4615
   49MOL0     C 6349   8.273   8.718   4.784 -0.0494  0.2210 -0.1043
   49MOL0     C 6350   8.142   8.731   4.711 -0.3535 -0.2096  0.4612
   49MOL0     C 6351   8.021   8.694   4.782  0.0668  0.1755  0.2412
   49MOL0     C 6352   8.004   8.544   4.788  1.1541  0.6892  0.5121
   49MOL0     N 6353   7.883   8.503   4.856  0.6004 -0.3544 -0.7505
   49MOL0     C 6354   7.867   8.498   4.995 -1.0656 -0.5460  0.3138
   49MOL0     C 6355   7.736   8.487   5.013  0.3805  0.3550  0.0325
   49MOL0     C 6356   7.675   8.470   5.148  0.6817 -0.5653 -0.5979
   49MOL0     C 6357   7.550   8.381   5.153 -0.1670  0.1153  0.0389
   49MOL0     C 6358   7.424   8.451   5.117 -0.6631  0.3476  0.6290
   49MOL0     C 6359   7.294   8.362   5.116  0.4497  0.8283 -1.2070
   49MOL0     O 6360   7.269   8.272   5.238 -0.4798 -0.4086  0.0624
   49MOL0     C 6361   7.159   8.190   5.238  0.1250  1.1999  0.5108
   49MOL0     C 6362   7.134   8.118   5.355  0.5029 -0.3514  0.5633
   49MOL0     C 6363   7.009   8.048   5.378  0.3382  0.8565 -0.3146
   49MOL0     C 6364   6.906   8.049   5.284 -0.8387  1.1886  0.2171
   49MOL0     C 6365   6.784   7.972   5.307  0.4339  0.4192 -0.4201
   49MOL0     O 6366   6.699   7.957   5.199 -0.3711 -0.6364  0.4351
   49MOL0     C 6367   6.567   7.907   5.224 -0.1147 -0.2334  0.3967
   49MOL0     C 6368   6.483   7.986   5.296 -0.2725 -0.8626 -0.1049
   49MOL0     C 6369   6.357   7.927   5.318 -0.4379 -0.2534 -0.0053
   49MOL0     C 6370   6.314   7.812   5.247  0.4227  0.7095  0.5682
   49MOL0     O 6371   6.190   7.759   5.248  0.8792  0.1014  0.9866
   49MOL0     C 6372   6.095   7.803   5.344 -0.3574  0.4121 -0.2760
   49MOL0     C 6373   5.973   7.700   5.340  0.4784 -0.3990  1.0330
   49MOL0     C 6374   5.878   7.731   5.228  0.3901 -0.8080 -0.0444
   49MOL0     C 6375   5.738   7.668   5.244 -0.0401  0.7854  0.6990
   49MOL0     C 6376   5.658   7.705   5.123  0.2619 -0.1797 -0.8145
   49MOL0     C 6377   5.515   7.652   5.142  0.1539 -0.2848  0.5096
   49MOL0     C 6378   5.407   7.697   5.028 -0.5848  0.0775 -0.3811
   49MOL0     C 6379   5.443   7.650   4.888  0.2124  0.4945 -0.2254
   49MOL0    Cl 6380   5.402   7.473   4.886  0.3060  0.2909  0.3379
   49MOL0     C 6381   6.406   7.736   5.184 -0.3956  0.2472  0.9799
   49MOL0     C 6382   6.534   7.786   5.168 -0.8466  0.2665  0.0634
   49MOL0     O 6383   6.771   7.926   5.422  0.4793  0.4599  0.4203
   49MOL0     C 6384   6.941   8.113   5.157 -0.7480 -0.3031  1.1873
   49MOL0     C 6385   7.065   8.181   5.138 -0.2455 -0.3435 -0.6123
   49MOL0     N 6386   7.673   8.491   4.887  0.4203 -0.4325 -0.5024
   49MOL0     N 6387   7.761   8.491   4.797  1.0503  0.7917  0.1982
   49MOL0     C 6388   9.066   8.683   4.792  0.1443  0.4731  0.3325
   49MOL0     C 6389   9.186   8.612   4.807  1.1056 -0.3092  0.3843
   49MOL0     C 6390   9.490   8.275   4.752 -0.3280 -0.2105  0.7419
   49MOL0     C 6391   9.512   8.133   4.759 -0.4315  1.1696  0.6829
   49MOL0     C 6392   9.639   8.083   4.804  0.5531 -0.6208 -0.4406
   49MOL0     C 6393   9.742   8.181   4.832  0.0879  0.5317  0.9253
   49MOL0     O 6394   9.860   8.116   4.858 -0.1813  0.0226 -0.7216
   49MOL0     C 6395   9.979   8.180   4.898 -0.2277  0.2006 -0.6062
   49MOL0     C 6396  10.080   8.075   4.933 -0.7358  0.6841 -0.5809
   49MOL0     C 6397  10.142   8.016   4.813 -0.3407  0.8292  0.7602
   49MOL0     C 6398  10.271   7.932   4.837 -0.0417 -0.3235 -1.0890
   49MOL0     C 6399  10.378   8.004   4.889 -0.5061 -0.1733  0.1833
   49MOL0     C 6400  10.468   8.082   4.929  0.9918  0.5007 -0.3827
   49MOL0     C 6401   9.723   8.313   4.827  0.0069  0.4170 -1.4007
   49MOL0     C 6402   9.593   8.363   4.786 -0.1347  0.4588 -0.1013
   49MOL0     H 6403   9.183   8.430   4.518 -0.1930 -0.0939 -0.2035
   49MOL0     H 6404   8.953   8.541   4.503  1.5960 -2.4018 -0.5866
   49MOL0     H 6405   8.764   8.760   4.828 -1.1501  0.5235 -1.0401
   49MOL0     H 6406   8.759   8.589   4.754 -1.6463  0.1758  1.2768
   49MOL0     H 6407   8.621   8.690   4.568 -1.0441 -0.3442  0.1210
   49MOL0     H 6408   8.648   8.849   4.638 -2.0842  1.1899 -0.4078
   49MOL0     H 6409   8.529   8.775   4.836  1.6310  0.8850 -0.0756
   49MOL0     H 6410   8.516   8.606   4.780 -3.8201  0.1824  0.7401
   49MOL0     H 6411   8.384   8.847   4.656 -0.5455 -0.5039 -0.3999
   49MOL0     H 6412   8.378   8.683   4.589 -1.5378 -1.4355  1.2042
   49MOL0     H 6413   8.285   8.786   4.869 -1.8864  0.4649 -0.0048
   49MOL0     H 6414   8.289   8.620   4.829 -0.5996 -0.5703 -1.5589
   49MOL0     H 6415   8.153   8.684   4.613  1.2632 -0.7645  0.8794
   49MOL0     H 6416   8.127   8.837   4.688 -0.2472 -0.3928 -0.5064
   49MOL0     H 6417   8.025   8.735   4.883  0.8400 -2.3243  1.3165
   49MOL0     H 6418   7.928   8.729   4.736 -0.0507 -1.0133 -0.4824
   49MOL0     H 6419   8.091   8.499   4.836  2.4491  0.6107 -1.7533
   49MOL0     H 6420   7.994   8.522   4.681 -1.5899  0.0747  0.8081
   49MOL0     H 6421   7.947   8.500   5.069  4.0766 -1.0035 -4.5179
   49MOL0     H 6422   7.656   8.571   5.186  2.3147  0.3787 -2.1628
   49MOL0     H 6423   7.746   8.431   5.221 -0.2193  0.0944  0.6783
   49MOL0     H 6424   7.554   8.341   5.255  1.6564 -0.9599 -0.4053
   49MOL0     H 6425   7.558   8.299   5.081 -1.6992  1.5635 -1.8720
   49MOL0     H 6426   7.418   8.530   5.192  0.6754 -0.5751  1.7529
   49MOL0     H 6427   7.437   8.506   5.023  0.1477  2.6915  2.0363
   49MOL0     H 6428   7.295   8.292   5.032 -1.6921 -0.6149 -0.1234
   49MOL0     H 6429   7.206   8.427   5.107  0.2268  1.0201  1.4829
   49MOL0     H 6430   7.203   8.140   5.436 -1.2285  3.6756  1.2007
   49MOL0     H 6431   7.020   7.985   5.466 -0.3293 -0.7306 -1.3218
   49MOL0     H 6432   6.500   8.090   5.323  2.2542 -1.7409  2.1635
   49MOL0     H 6433   6.283   7.975   5.382 -1.6692 -2.5116  0.3445
   49MOL0     H 6434   6.062   7.906   5.334 -2.8450 -0.0641  1.8537
   49MOL0     H 6435   6.135   7.788   5.445 -1.8225 -2.8001 -0.0431
   49MOL0     H 6436   5.917   7.686   5.433 -1.2593 -4.1369 -0.3670
   49MOL0     H 6437   6.003   7.596   5.326 -2.3960 -1.1984  0.1393
   49MOL0     H 6438   5.925   7.696   5.136 -2.0101 -1.5980 -1.0643
   49MOL0     H 6439   5.867   7.839   5.214 -2.1463 -0.8237  1.1613
   49MOL0     H 6440   5.748   7.560   5.247  1.3617  0.9190  1.2678
   49MOL0     H 6441   5.699   7.706   5.339  0.6879  0.3884  1.1655
   49MOL0     H 6442   5.698   7.662   5.031  2.9068  0.2376  0.0603
   49MOL0     H 6443   5.642   7.812   5.132  0.1199 -0.2208 -0.5720
   49MOL0     H 6444   5.479   7.676   5.243  0.6720  1.6565  0.2727
   49MOL0     H 6445   5.525   7.543   5.141  0.9458 -0.3370  3.3090
   49MOL0     H 6446   5.306   7.658   5.046 -1.2152  0.6725 -2.3086
   49MOL0     H 6447   5.395   7.805   5.027  0.5850  0.2482  1.2198
   49MOL0     H 6448   5.544   7.677   4.854 -0.6521  2.3626 -1.4558
   49MOL0     H 6449   5.382   7.700   4.813 -0.2674  1.5901  0.8709
   49MOL0     H 6450   6.364   7.650   5.131 -1.9907  1.9041 -0.6261
   49MOL0     H 6451   6.610   7.734   5.111  0.7682  3.4768 -0.8982
   49MOL0     H 6452   6.867   8.104   5.078 -2.7224 -1.1638  3.0132
   49MOL0     H 6453   7.075   8.219   5.037  0.9198  1.8315  0.2755
   49MOL0     H 6454   9.023   8.748   4.867 -1.0623  0.9020 -0.6819
   49MOL0     H 6455   9.231   8.637   4.903 -0.3441  4.1852  0.1457
   49MOL0     H 6456   9.434   8.066   4.723  0.5575  1.4208 -2.2255
   49MOL0     H 6457   9.666   7.978   4.815 -2.6314 -1.7006 -1.5794
   49MOL0     H 6458   9.968   8.233   4.993  2.2871 -0.1460 -0.0669
   49MOL0     H 6459  10.009   8.259   4.828  0.9650  1.9438  1.7120
   49MOL0     H 6460  10.152   8.134   4.990 -1.4024  1.4065 -0.4721
   49MOL0     H 6461  10.038   7.996   4.997  1.4900 -1.0672 -1.1637
   49MOL0     H 6462  10.166   8.090   4.735  4.8129 -2.6191 -1.4081
   49MOL0     H 6463  10.060   7.963   4.763 -0.2146  0.7255  0.6616
   49MOL0     H 6464  10.251   7.850   4.907  2.4156 -1.3863 -1.5228
   49MOL0     H 6465  10.297   7.886   4.742 -3.4866 -0.0379 -2.3125
   49MOL0     H 6466  10.553   8.146   4.936 -0.5759  2.8406 -1.4720
   49MOL0     H 6467   9.799   8.385   4.858 -0.7962  1.1311 -1.0527
   49MOL0     H 6468   9.563   8.467   4.776 -3.0409 -0.2596  0.1988
   50MOL0     O 6469   0.391   5.109   3.831  0.3202 -0.3480 -0.3324
   50MOL0     C 6470   0.464   5.208   3.845 -0.0273  0.0446 -0.2760
   50MOL0     O 6471   0.420   5.338   3.846 -0.3696 -0.0101  0.6717
   50MOL0     C 6472   0.285   5.364   3.840 -0.9308  0.6373  0.1557
   50MOL0     C 6473   0.228   5.462   3.765 -0.2431 -1.2080 -0.0934
   50MOL0     C 6474   0.084   5.488   3.763 -0.4138  0.3901 -0.7558
   50MOL0     C 6475  -0.003   5.420   3.857  0.0662 -0.0667  0.1090
   50MOL0     O 6476  -0.140   5.427   3.857  0.5601 -0.1563 -0.6142
   50MOL0     C 6477  -0.204   5.539   3.788  1.1371  0.3700  0.5684
   50MOL0     C 6478  -0.358   5.532   3.831 -0.1545  0.6345 -0.0154
   50MOL0     C 6479  -0.441   5.660   3.802 -0.3325  0.3376 -0.3765
   50MOL0     C 6480  -0.595   5.643   3.838  0.0670  0.1944  0.2355
   50MOL0     C 6481  -0.679   5.757   3.786 -0.1441 -0.7362 -0.0676
   50MOL0     C 6482  -0.802   5.789   3.870 -0.0105 -0.7983  0.0694
   50MOL0     C 6483  -0.789   5.916   3.961 -0.7469  0.5707 -0.6601
   50MOL0     C 6484  -0.914   5.924   4.053  0.0147  0.4777  0.1494
   50MOL0     N 6485  -1.011   6.007   3.978  0.3061  0.1963  0.5578
   50MOL0     C 6486  -1.105   5.959   3.891 -0.2469  0.0054 -0.3521
   50MOL0     C 6487  -1.158   6.072   3.843 -0.2750  0.7642  0.0352
   50MOL0     C 6488  -1.252   6.090   3.722 -0.5202  0.1547  0.2206
   50MOL0     C 6489  -1.389   6.139   3.769 -0.6066 -0.3657 -0.5911
   50MOL0     C 6490  -1.470   6.184   3.661 -0.2816 -0.4152  0.3046
   50MOL0     C 6491  -1.608   6.222   3.717 -0.1580  0.6490  0.3515
   50MOL0     O 6492  -1.704   6.242   3.608 -0.8038 -0.2215  0.1542
   50MOL0     C 6493  -1.832   6.272   3.653  0.9520 -0.3333  0.0420
   50MOL0     C 6494  -1.857   6.378   3.743  0.5876 -0.2764  0.2411
   50MOL0     C 6495  -1.989   6.405   3.776 -0.6918  0.1256  0.3510
   50MOL0     C 6496  -2.096   6.327   3.722 -0.0842 -0.1429 -0.1288
   50MOL0     C 6497  -2.226   6.380   3.758  0.0483  0.0030 -0.0114
   50MOL0     O 6498  -2.228   6.509   3.805  0.2406  0.0988 -0.0851
   50MOL0     C 6499  -2.340   6.561   3.873  0.0280  0.1108  0.1296
   50MOL0     C 6500  -2.336   6.578   4.011  0.7039 -0.1713  0.5883
   50MOL0     C 6501  -2.455   6.611   4.080 -0.3786 -0.4160  0.6752
   50MOL0     C 6502  -2.574   6.628   4.014 -0.1900 -0.4867 -0.2682
   50MOL0     O 6503  -2.685   6.666   4.086  0.5456 -0.0115  0.4468
   50MOL0     C 6504  -2.711   6.602   4.212  0.2151 -0.2090  0.0144
   50MOL0     C 6505  -2.834   6.654   4.283 -0.3788 -0.3878  0.6874
   50MOL0     C 6506  -2.965   6.679   4.203  0.3072  0.1784  0.2305
   50MOL0     C 6507  -3.050   6.774   4.271  0.3261 -0.1603 -0.8814
   50MOL0     C 6508  -3.189   6.790   4.203  0.6817 -0.9513 -0.7174
   50MOL0     C 6509  -3.301   6.830   4.292 -0.6203 -0.9832 -0.3323
   50MOL0     C 6510  -3.419   6.879   4.197 -0.1932 -0.7019 -0.3420
   50MOL0     C 6511  -3.557   6.846   4.251 -0.0408  0.0142  0.8507
   50MOL0    Cl 6512  -3.568   6.868   4.430 -0.2488  0.2182  0.0157
   50MOL0     C 6513  -2.580   6.622   3.878 -0.7249 -0.2676 -0.5561
   50MOL0     C 6514  -2.462   6.588   3.809 -0.5937  0.4352  0.4153
   50MOL0     O 6515  -2.325   6.301   3.769  0.1924  0.6480  0.1568
   50MOL0     C 6516  -2.067   6.225   3.633 -0.4181 -0.3304 -0.5291
   50MOL0     C 6517  -1.938   6.198   3.598 -0.5076 -0.3340 -0.5772
   50MOL0     N 6518  -1.095   6.185   3.897 -0.2944  1.2426 -0.1070
   50MOL0     N 6519  -1.010   6.140   3.984  0.3841  0.3271  0.3897
   50MOL0     C 6520   0.057   5.332   3.940  0.3191  0.8256 -0.4754
   50MOL0     C 6521   0.199   5.302   3.935  1.7709 -0.1351  0.4683
   50MOL0     C 6522   0.608   5.183   3.845  0.2177 -0.2505 -0.4040
   50MOL0     C 6523   0.671   5.070   3.810  0.2275 -0.1271  0.2200
   50MOL0     C 6524   0.808   5.056   3.814  0.3986 -0.4377 -0.1115
   50MOL0     C 6525   0.891   5.149   3.883 -0.5812 -0.0307  0.1831
   50MOL0     O 6526   1.033   5.134   3.870  0.2733  0.1517  0.0170
   50MOL0     C 6527   1.098   5.085   3.988  0.8855  0.0437 -0.0472
   50MOL0     C 6528   1.240   5.081   3.941 -0.7657  0.6380  0.3252
   50MOL0     C 6529   1.325   5.021   4.059  0.5900  0.7594  0.1102
   50MOL0     C 6530   1.344   5.110   4.177 -0.4608 -0.3146  0.0119
   50MOL0     C 6531   1.431   5.225   4.142 -0.3436  0.1565 -0.0103
   50MOL0     C 6532   1.484   5.332   4.111 -0.3126 -0.8569 -0.0630
   50MOL0     C 6533   0.824   5.271   3.928  0.6477  0.1029  1.3382
   50MOL0     C 6534   0.686   5.285   3.911  0.4711  0.1766 -0.2186
   50MOL0     H 6535   0.296   5.509   3.695 -2.5342  2.0579 -0.3434
   50MOL0     H 6536   0.037   5.554   3.690 -1.1903 -1.1074 -1.6545
   50MOL0     H 6537  -0.180   5.533   3.682  2.2097  0.7332  0.7756
   50MOL0     H 6538  -0.166   5.638   3.816  0.0271  1.9323 -2.8816
   50MOL0     H 6539  -0.358   5.506   3.938  3.6300 -0.8147 -0.2185
   50MOL0     H 6540  -0.398   5.443   3.782  0.0457  0.4666  0.1241
   50MOL0     H 6541  -0.437   5.669   3.693  0.4338 -1.4160 -0.5228
   50MOL0     H 6542  -0.408   5.749   3.856 -0.4422 -1.3876  2.7653
   50MOL0     H 6543  -0.635   5.547   3.804 -3.4515  1.5497  0.1457
   50MOL0     H 6544  -0.596   5.657   3.946  1.3566  1.5935  0.0984
   50MOL0     H 6545  -0.709   5.741   3.682  0.5027  0.5818 -0.4923
   50MOL0     H 6546  -0.617   5.847   3.791 -1.5742  0.4183 -1.7620
   50MOL0     H 6547  -0.847   5.696   3.908 -0.3327 -1.2687 -1.3847
   50MOL0     H 6548  -0.879   5.823   3.801 -2.5337 -0.2262  2.9399
   50MOL0     H 6549  -0.698   5.889   4.017 -0.1769 -2.4305 -2.7539
   50MOL0     H 6550  -0.771   6.002   3.896 -3.1025  0.7212 -1.2083
   50MOL0     H 6551  -0.885   5.981   4.141 -0.7595  0.8487  0.1629
   50MOL0     H 6552  -0.956   5.826   4.080  2.3474 -0.2919  1.3631
   50MOL0     H 6553  -1.129   5.856   3.869  0.2126  0.1667 -1.7198
   50MOL0     H 6554  -1.278   5.992   3.679  2.0280 -0.8117  0.7051
   50MOL0     H 6555  -1.208   6.162   3.652 -0.7174 -1.3492 -1.5390
   50MOL0     H 6556  -1.366   6.212   3.846  2.7690 -1.1002 -0.7308
   50MOL0     H 6557  -1.432   6.054   3.823 -0.4561 -0.1162 -0.0706
   50MOL0     H 6558  -1.427   6.274   3.617  2.1363 -2.8482 -2.8135
   50MOL0     H 6559  -1.475   6.117   3.575 -3.5591  0.4236 -0.2919
   50MOL0     H 6560  -1.600   6.305   3.788  3.6239 -0.2829  1.2164
   50MOL0     H 6561  -1.640   6.145   3.787  0.8461 -1.1835 -1.1221
   50MOL0     H 6562  -1.781   6.442   3.785  0.4991 -0.8734  1.3420
   50MOL0     H 6563  -1.998   6.484   3.850 -2.3564 -0.1232  0.4644
   50MOL0     H 6564  -2.241   6.556   4.058  0.6940 -2.3171 -0.2703
   50MOL0     H 6565  -2.446   6.633   4.186 -1.6648 -0.4633  0.8093
   50MOL0     H 6566  -2.629   6.627   4.279  0.7764  0.5693 -0.9300
   50MOL0     H 6567  -2.719   6.493   4.205 -0.2217 -0.4107  2.7696
   50MOL0     H 6568  -2.805   6.748   4.330  2.9794 -0.7510 -0.3531
   50MOL0     H 6569  -2.864   6.579   4.357  3.3905 -1.0260  1.7494
   50MOL0     H 6570  -3.015   6.583   4.193  2.3211 -0.9552  0.5487
   50MOL0     H 6571  -2.950   6.715   4.100  0.8447  0.0952  0.2791
   50MOL0     H 6572  -3.064   6.745   4.376  2.2516 -1.2373 -0.8660
   50MOL0     H 6573  -3.015   6.878   4.272 -2.9412  1.0517 -0.4244
   50MOL0     H 6574  -3.227   6.694   4.165 -2.7370 -0.7245  1.7124
   50MOL0     H 6575  -3.174   6.864   4.124  0.5282  3.0786  2.7111
   50MOL0     H 6576  -3.260   6.911   4.352  2.4033 -0.6632 -2.5364
   50MOL0     H 6577  -3.334   6.752   4.361 -3.3788  0.1757 -0.2518
   50MOL0     H 6578  -3.414   6.988   4.191 -0.0590 -0.7104 -0.3826
   50MOL0     H 6579  -3.407   6.842   4.095 -1.0649  0.6539 -0.9585
   50MOL0     H 6580  -3.581   6.741   4.231  0.9526  0.1910 -1.6447
   50MOL0     H 6581  -3.639   6.889   4.192  0.2036 -0.2732  0.2930
   50MOL0     H 6582  -2.668   6.655   3.824 -2.3701 -0.9475  1.5498
   50MOL0     H 6583  -2.456   6.579   3.701  1.3472  0.7999  0.4680
   50MOL0     H 6584  -2.138   6.163   3.580 -0.4837  0.2609 -1.1522
   50MOL0     H 6585  -1.926   6.105   3.544 -0.1536 -1.9883  2.1574
   50MOL0     H 6586  -0.002   5.282   4.016 -0.9304 -1.3755 -2.7392
   50MOL0     H 6587   0.246   5.241   4.011  0.4409  2.8477  3.9650
   50MOL0     H 6588   0.616   4.985   3.772  0.5610 -1.2647  2.1577
   50MOL0     H 6589   0.863   4.975   3.769  3.7541  1.1719  0.7544
   50MOL0     H 6590   1.064   4.984   4.010 -3.3089  0.5762 -2.9036
   50MOL0     H 6591   1.089   5.160   4.067  0.4237  0.2905 -0.3298
   50MOL0     H 6592   1.254   5.022   3.849  0.4900  0.7380  0.4373
   50MOL0     H 6593   1.277   5.181   3.915 -0.5227  0.3156 -0.6483
   50MOL0     H 6594   1.417   4.994   4.007 -0.4321  1.3566 -2.1571
   50MOL0     H 6595   1.279   4.928   4.097 -1.4744  2.5820  2.4219
   50MOL0     H 6596   1.257   5.157   4.223  2.1690  1.4432  3.6425
   50MOL0     H 6597   1.385   5.052   4.260  3.0621  2.9968  0.8771
   50MOL0     H 6598   1.526   5.426   4.082 -2.3736 -0.2443 -1.2734
   50MOL0     H 6599   0.892   5.349   3.960  1.6612 -1.1957  2.4738
   50MOL0     H 6600   0.652   5.386   3.933  3.0217  1.0118  0.2269
   51MOL0     O 6601   6.484  10.557   1.797 -0.4770  0.5150 -0.1007
   51MOL0     C 6602   6.405  10.652   1.809 -0.3325  0.0175 -0.7274
   51MOL0     O 6603   6.404  10.767   1.735  0.9816 -0.0120 -0.6813
   51MOL0     C 6604   6.516  10.839   1.702  0.9833  0.6257  0.6465
   51MOL0     C 6605   6.637  10.822   1.780 -0.5940 -0.1675  0.4117
   51MOL0     C 6606   6.753  10.885   1.743 -0.3199 -0.2010  0.2017
   51MOL0     C 6607   6.761  10.961   1.632  0.8495  0.0534  0.3281
   51MOL0     O 6608   6.877  11.025   1.599 -0.5413 -0.0116 -0.1729
   51MOL0     C 6609   6.898  11.062   1.462 -0.2483 -0.9795  0.2462
   51MOL0     C 6610   6.877  11.218   1.431 -0.1193 -0.2640 -0.6951
   51MOL0     C 6611   6.968  11.297   1.524 -0.2229  0.2831 -0.0668
   51MOL0     C 6612   7.062  11.389   1.443  0.2217 -0.6788 -1.0176
   51MOL0     C 6613   7.168  11.457   1.529  0.4930  0.0985 -0.1056
   51MOL0     C 6614   7.261  11.553   1.449 -0.0270  0.2726  0.1142
   51MOL0     C 6615   7.378  11.602   1.530  0.9991  0.3786  0.3014
   51MOL0     C 6616   7.481  11.665   1.433  0.6385  0.0346 -0.2647
   51MOL0     N 6617   7.593  11.730   1.504 -0.3310 -0.1215 -1.0333
   51MOL0     C 6618   7.714  11.660   1.519  0.2160  0.1804 -0.7712
   51MOL0     C 6619   7.792  11.752   1.584 -0.2150 -0.3363 -0.3417
   51MOL0     C 6620   7.937  11.736   1.638  0.8892  0.5376 -0.0625
   51MOL0     C 6621   8.046  11.772   1.530  0.9345 -0.4829 -0.3684
   51MOL0     C 6622   8.134  11.886   1.581 -0.6471  0.1997  0.3356
   51MOL0     C 6623   8.248  11.833   1.665 -0.0578  0.6947  0.0701
   51MOL0     O 6624   8.328  11.757   1.579  0.0464  0.2059  0.2695
   51MOL0     C 6625   8.433  11.818   1.514  0.0126  0.7230 -0.2681
   51MOL0     C 6626   8.467  11.775   1.387  0.4068 -0.1794  0.0314
   51MOL0     C 6627   8.581  11.829   1.316  0.9688 -0.5901  0.1759
   51MOL0     C 6628   8.652  11.927   1.369 -0.5480 -0.2574 -0.4429
   51MOL0     C 6629   8.782  11.964   1.299  0.5218 -0.4909  0.3505
   51MOL0     O 6630   8.886  12.005   1.380 -0.5506  0.1072  0.5083
   51MOL0     C 6631   9.011  12.007   1.322  0.3711  0.2736 -0.7867
   51MOL0     C 6632   9.084  11.883   1.340  0.3356 -0.8980  0.3696
   51MOL0     C 6633   9.221  11.887   1.313  0.0215 -0.4878  0.1763
   51MOL0     C 6634   9.279  12.015   1.272 -0.3844 -0.3448  0.1720
   51MOL0     O 6635   9.414  12.013   1.258  1.1576 -0.6281 -0.1871
   51MOL0     C 6636   9.473  12.119   1.188 -0.8215  0.2137 -0.3222
   51MOL0     C 6637   9.621  12.113   1.208 -0.1117 -1.0645 -0.2691
   51MOL0     C 6638   9.691  11.991   1.148 -0.0540  0.6316  0.7087
   51MOL0     C 6639   9.847  12.009   1.121  0.5761 -0.4882  0.2592
   51MOL0     C 6640   9.908  11.872   1.071  0.2193 -0.2409  0.2816
   51MOL0     C 6641   9.913  11.772   1.184 -0.6205  0.4294 -0.9764
   51MOL0     C 6642   9.973  11.643   1.117 -0.3621 -0.0773  0.2605
   51MOL0     C 6643   9.968  11.525   1.210 -0.2275 -0.2719 -0.5997
   51MOL0    Cl 6644  10.076  11.574   1.344 -0.1897 -0.3288  0.1827
   51MOL0     C 6645   9.197  12.131   1.259 -0.4429  0.5904 -0.2253
   51MOL0     C 6646   9.063  12.125   1.278 -0.1126 -0.0167  0.2607
   51MOL0     O 6647   8.792  11.935   1.178 -0.2399 -0.2306  0.6967
   51MOL0     C 6648   8.626  11.964   1.501 -0.6168  0.2085 -1.4390
   51MOL0     C 6649   8.518  11.903   1.580 -0.1818 -1.1491 -0.0949
   51MOL0     N 6650   7.717  11.866   1.609  0.3279 -0.4857 -0.0087
   51MOL0     N 6651   7.603  11.861   1.550  0.2739  0.1376 -0.0788
   51MOL0     C 6652   6.644  10.978   1.553  0.1602  0.2710  0.7815
   51MOL0     C 6653   6.518  10.917   1.578 -0.0606  0.9744 -1.6943
   51MOL0     C 6654   6.292  10.640   1.903  0.5222  0.8078 -0.2585
   51MOL0     C 6655   6.272  10.514   1.964  0.1919  0.2958  0.1183
   51MOL0     C 6656   6.148  10.483   2.024 -0.5251  0.4265 -0.2073
   51MOL0     C 6657   6.042  10.584   2.014 -0.2077  0.8153  0.3333
   51MOL0     O 6658   5.916  10.564   2.068 -0.0605  0.1756 -0.5711
   51MOL0     C 6659   5.879  10.442   2.124 -0.4700  0.4073  0.5202
   51MOL0     C 6660   5.731  10.462   2.163  0.1133 -0.3183  0.4283
   51MOL0     C 6661   5.671  10.337   2.224 -0.1298  0.0686 -0.0876
   51MOL0     C 6662   5.550  10.375   2.304  0.4975  0.5225  0.5923
   51MOL0     C 6663   5.494  10.251   2.370 -0.1173 -1.0357 -0.4189
   51MOL0     C 6664   5.456  10.165   2.445  0.1077  0.8778 -0.2426
   51MOL0     C 6665   6.067  10.709   1.958 -1.0114 -0.3972  0.0687
   51MOL0     C 6666   6.196  10.741   1.913 -1.1540  0.5335  0.3392
   51MOL0     H 6667   6.634  10.750   1.861 -0.2211 -2.0973 -1.2083
   51MOL0     H 6668   6.839  10.868   1.806 -0.4345  1.5642  0.9080
   51MOL0     H 6669   6.831  11.010   1.392  0.6713  0.4169 -1.7749
   51MOL0     H 6670   7.001  11.037   1.436  0.3933  0.5487  1.1839
   51MOL0     H 6671   6.774  11.255   1.437 -0.2161 -0.4832 -1.0177
   51MOL0     H 6672   6.911  11.235   1.329 -0.4522 -0.1654 -0.7884
   51MOL0     H 6673   7.036  11.221   1.565  3.4098  0.9750 -4.0841
   51MOL0     H 6674   6.916  11.347   1.606 -0.2332 -0.6465  0.5077
   51MOL0     H 6675   7.118  11.324   1.376  0.8587 -1.3075  0.0911
   51MOL0     H 6676   7.006  11.460   1.382  0.8363  0.0272 -0.7682
   51MOL0     H 6677   7.225  11.371   1.565  1.3228  0.1267 -1.2839
   51MOL0     H 6678   7.116  11.499   1.616 -2.7426 -0.0205 -1.8263
   51MOL0     H 6679   7.205  11.638   1.409  0.6841  1.4785  1.6032
   51MOL0     H 6680   7.304  11.496   1.365  0.3604 -2.1236  1.8296
   51MOL0     H 6681   7.344  11.678   1.601 -1.2698 -0.6320  0.3919
   51MOL0     H 6682   7.430  11.512   1.563 -0.7700 -0.8330 -0.0730
   51MOL0     H 6683   7.439  11.741   1.366  1.5418  0.8261  0.0281
   51MOL0     H 6684   7.510  11.584   1.367 -2.6889 -2.2528  0.8229
   51MOL0     H 6685   7.746  11.565   1.479 -1.3534  0.4953 -2.9363
   51MOL0     H 6686   7.953  11.629   1.658 -4.0874 -0.3226  0.6193
   51MOL0     H 6687   7.940  11.798   1.728 -1.5651  0.8486 -0.1087
   51MOL0     H 6688   7.995  11.793   1.435 -2.2233 -0.4647  1.1809
   51MOL0     H 6689   8.115  11.691   1.507  2.8021  1.8180 -3.6085
   51MOL0     H 6690   8.178  11.926   1.490  3.4719 -1.0779  1.5649
   51MOL0     H 6691   8.077  11.961   1.638 -0.4214 -1.4530  2.8942
   51MOL0     H 6692   8.212  11.773   1.749  1.9062 -0.9779 -0.2170
   51MOL0     H 6693   8.305  11.918   1.705  0.9191  0.2318 -0.2929
   51MOL0     H 6694   8.416  11.692   1.340  0.0831 -0.3601  0.6948
   51MOL0     H 6695   8.611  11.781   1.223 -0.1593 -0.4613 -0.2633
   51MOL0     H 6696   9.037  11.791   1.376 -1.1302 -0.9378 -1.5142
   51MOL0     H 6697   9.282  11.798   1.321 -2.0435 -1.7803  3.7978
   51MOL0     H 6698   9.440  12.215   1.228 -0.6378  1.1716 -2.3408
   51MOL0     H 6699   9.437  12.114   1.085 -1.1657 -1.4922 -0.1604
   51MOL0     H 6700   9.656  12.128   1.311  1.6454 -0.0762 -0.9756
   51MOL0     H 6701   9.650  12.203   1.153 -3.9078  1.1698  1.0086
   51MOL0     H 6702   9.646  11.968   1.051  2.1093  2.8628 -0.9577
   51MOL0     H 6703   9.679  11.917   1.228  2.8051  1.2095  1.7936
   51MOL0     H 6704   9.857  12.095   1.053  0.5837 -0.4918  0.2557
   51MOL0     H 6705   9.876  12.040   1.222 -1.0338  0.5357  0.4513
   51MOL0     H 6706  10.009  11.882   1.029  0.0015 -0.0626 -0.2063
   51MOL0     H 6707   9.854  11.838   0.982  0.4468  3.8580 -1.6507
   51MOL0     H 6708   9.813  11.757   1.225  0.4872 -4.0716  0.7234
   51MOL0     H 6709   9.983  11.803   1.263  0.2752 -2.7869 -0.3592
   51MOL0     H 6710   9.913  11.617   1.029  0.1799 -1.8819  0.4006
   51MOL0     H 6711  10.075  11.659   1.081 -1.0643  1.8265 -1.0921
   51MOL0     H 6712  10.009  11.431   1.173  0.0712 -0.4755  0.2062
   51MOL0     H 6713   9.872  11.514   1.261  0.6150  3.3594  2.2928
   51MOL0     H 6714   9.249  12.223   1.233  3.7801 -0.6799  2.6979
   51MOL0     H 6715   9.008  12.218   1.269 -3.5869 -1.8290  1.0133
   51MOL0     H 6716   8.687  12.031   1.561 -1.6440  2.2190 -2.5124
   51MOL0     H 6717   8.511  11.924   1.686  1.1290 -1.4350  0.0722
   51MOL0     H 6718   6.637  11.042   1.465 -4.8902  1.6830  1.8572
   51MOL0     H 6719   6.424  10.925   1.523 -1.3130 -2.6585 -0.3631
   51MOL0     H 6720   6.346  10.436   1.950 -0.9457 -2.0057  4.7548
   51MOL0     H 6721   6.119  10.391   2.075 -3.0059  1.9171  1.2673
   51MOL0     H 6722   5.939  10.420   2.213  0.3578  0.9497  0.1108
   51MOL0     H 6723   5.892  10.353   2.062  2.0076 -0.8272  2.6177
   51MOL0     H 6724   5.730  10.539   2.242 -0.3722 -0.5502  0.6542
   51MOL0     H 6725   5.671  10.488   2.076  0.9350 -0.2717 -0.1423
   51MOL0     H 6726   5.751  10.288   2.280  1.2002  0.3581 -1.6632
   51MOL0     H 6727   5.652  10.284   2.130 -0.6775  0.2984 -0.1102
   51MOL0     H 6728   5.570  10.453   2.377 -1.4555  2.5391 -0.9004
   51MOL0     H 6729   5.479  10.418   2.233 -0.5670  0.9462  1.8751
   51MOL0     H 6730   5.419  10.086   2.507 -0.6499  1.7154  0.3891
   51MOL0     H 6731   5.987  10.783   1.964 -0.9122 -0.3824  1.4269
   51MOL0     H 6732   6.223  10.845   1.901 -2.7158  0.9375  0.0050
   52MOL0     O 6733  10.847   2.721   8.906  1.0580  0.1489 -0.3971
   52MOL0     C 6734  10.767   2.814   8.922  0.5504 -0.6520 -1.3310
   52MOL0     O 6735  10.780   2.905   9.018 -0.7399  0.2979  0.7683
   52MOL0     C 6736  10.870   2.895   9.118 -0.6986 -0.0434 -0.6592
   52MOL0     C 6737  10.914   2.787   9.183  0.4026  0.6541 -0.2752
   52MOL0     C 6738  11.018   2.796   9.279  0.3406  0.8547 -0.6074
   52MOL0     C 6739  11.081   2.915   9.307  1.2207  0.2601  0.1183
   52MOL0     O 6740  11.178   2.921   9.402  0.1458  0.1483  0.4836
   52MOL0     C 6741  11.289   3.016   9.378  1.2367 -0.5080  0.6595
   52MOL0     C 6742  11.386   2.961   9.277  0.2724  0.5628 -0.1823
   52MOL0     C 6743  11.526   3.027   9.295  0.2411 -0.3332  0.8177
   52MOL0     C 6744  11.619   2.970   9.196  0.3087 -0.7984  1.4161
   52MOL0     C 6745  11.761   2.963   9.255  0.7437  0.4393 -0.4586
   52MOL0     C 6746  11.785   2.827   9.317  0.4837  0.4741 -0.8136
   52MOL0     C 6747  11.839   2.725   9.216 -0.8969 -0.8032 -0.0206
   52MOL0     C 6748  11.827   2.581   9.267 -0.7107 -1.2402  0.9949
   52MOL0     N 6749  11.930   2.536   9.362 -0.1587  0.2290 -0.3040
   52MOL0     C 6750  12.057   2.498   9.318 -0.1154  0.2768  0.2994
   52MOL0     C 6751  12.117   2.454   9.431  0.2698  1.2273 -0.6197
   52MOL0     C 6752  12.270   2.425   9.453 -0.5879  0.0028  1.4226
   52MOL0     C 6753  12.286   2.266   9.480 -0.3199 -0.9728 -0.4128
   52MOL0     C 6754  12.262   2.215   9.624  0.3528  0.9131  1.0820
   52MOL0     C 6755  12.280   2.321   9.737  0.2886  0.8130  0.0831
   52MOL0     O 6756  12.255   2.265   9.866  0.6378  0.1065  0.0959
   52MOL0     C 6757  12.127   2.266   9.922  0.2046  0.1801  0.2318
   52MOL0     C 6758  12.114   2.229  10.053 -0.1614  0.4641 -0.0607
   52MOL0     C 6759  11.995   2.227  10.115  0.5858  0.4259  0.1771
   52MOL0     C 6760  11.873   2.237  10.037 -0.1936  0.0087  0.5929
   52MOL0     C 6761  11.743   2.215  10.103  0.4559  0.9144 -0.0274
   52MOL0     O 6762  11.744   2.212  10.247  0.0208 -0.1607  0.0236
   52MOL0     C 6763  11.623   2.179  10.307  0.6059  0.6077 -0.0852
   52MOL0     C 6764  11.595   2.049  10.354 -0.2491  0.4143 -0.2084
   52MOL0     C 6765  11.456   2.020  10.387  0.3259  0.7339  0.7737
   52MOL0     C 6766  11.348   2.102  10.382 -0.2425  0.2333 -0.0286
   52MOL0     O 6767  11.225   2.061  10.407  0.9163 -0.2074  0.3811
   52MOL0     C 6768  11.127   2.139  10.476 -0.4132  0.4850 -0.0177
   52MOL0     C 6769  10.996   2.059  10.511  0.1601  0.3456  0.1524
   52MOL0     C 6770  10.904   2.028  10.387  0.0596  0.8765  0.5493
   52MOL0     C 6771  10.767   1.957  10.429 -0.5304 -0.9937 -0.0968
   52MOL0     C 6772  10.781   1.860  10.539 -0.5688  0.5024 -0.5787
   52MOL0     C 6773  10.657   1.769  10.564 -0.0095  0.2855  0.4716
   52MOL0     C 6774  10.686   1.658  10.661  0.1314  0.4088  0.0203
   52MOL0     C 6775  10.551   1.585  10.681  0.0192  0.8762  0.2087
   52MOL0    Cl 6776  10.566   1.481  10.823  0.1239  0.0284 -0.5183
   52MOL0     C 6777  11.385   2.236  10.353  0.0032 -0.1477  0.4793
   52MOL0     C 6778  11.512   2.267  10.307  0.1499  0.2198 -0.4838
   52MOL0     O 6779  11.648   2.192  10.029  0.1249 -0.7099  0.0648
   52MOL0     C 6780  11.883   2.268   9.896  0.3805 -0.4123 -0.3357
   52MOL0     C 6781  12.008   2.289   9.846 -0.0442  0.6663 -0.2687
   52MOL0     N 6782  12.027   2.452   9.534 -0.1295 -0.0065  0.4747
   52MOL0     N 6783  11.920   2.515   9.497  0.1821  0.3505  0.3399
   52MOL0     C 6784  11.040   3.022   9.230  0.9569  0.0010 -0.1983
   52MOL0     C 6785  10.940   3.013   9.141 -0.0096 -0.0426  0.3480
   52MOL0     C 6786  10.655   2.837   8.830 -0.5464 -0.2753 -0.3097
   52MOL0     C 6787  10.629   2.737   8.734  0.0945 -0.3875 -0.1821
   52MOL0     C 6788  10.510   2.719   8.671 -0.4642 -0.0243 -0.0288
   52MOL0     C 6789  10.413   2.824   8.672 -0.5523  0.4167  0.1379
   52MOL0     O 6790  10.298   2.797   8.605  0.1335 -0.0025  0.3860
   52MOL0     C 6791  10.301   2.839   8.461 -0.2210  0.4946 -0.0358
   52MOL0     C 6792  10.390   2.748   8.376  0.2723 -0.5980  0.2129
   52MOL0     C 6793  10.341   2.752   8.231  1.0375  0.1135 -0.5444
   52MOL0     C 6794  10.229   2.657   8.197  0.3437 -0.3406  0.1354
   52MOL0     C 6795  10.167   2.708   8.072  0.7171  0.7723  0.7059
   52MOL0     C 6796  10.114   2.745   7.970 -0.1448  0.0469 -0.7485
   52MOL0     C 6797  10.443   2.935   8.752  0.4421 -0.5202 -1.1718
   52MOL0     C 6798  10.564   2.943   8.827 -0.3309 -0.0404 -0.1009
   52MOL0     H 6799  10.859   2.694   9.189 -1.3254  1.6286 -0.2606
   52MOL0     H 6800  11.050   2.703   9.326 -1.6436 -1.6339 -3.7243
   52MOL0     H 6801  11.352   3.033   9.466 -0.3104  0.2192  1.6815
   52MOL0     H 6802  11.267   3.121   9.353 -1.1474 -0.5274  2.3283
   52MOL0     H 6803  11.344   2.993   9.182 -0.0927  4.5914  1.1292
   52MOL0     H 6804  11.396   2.853   9.293 -0.1871  0.7754  1.8963
   52MOL0     H 6805  11.564   3.001   9.394 -1.3592 -3.0794  0.8326
   52MOL0     H 6806  11.521   3.134   9.272 -1.6997 -0.8940 -1.9778
   52MOL0     H 6807  11.584   2.880   9.144 -0.0193  0.5421 -0.8288
   52MOL0     H 6808  11.622   3.044   9.115 -1.0676  1.0668  2.9855
   52MOL0     H 6809  11.780   3.038   9.333  1.8018  1.2263 -1.4352
   52MOL0     H 6810  11.833   2.969   9.173 -0.2443  2.1985 -1.2501
   52MOL0     H 6811  11.694   2.791   9.366  0.1253  4.2312  1.6619
   52MOL0     H 6812  11.862   2.843   9.393 -0.3104  0.4088  0.0239
   52MOL0     H 6813  11.784   2.730   9.122  2.9150 -0.6289 -2.4713
   52MOL0     H 6814  11.943   2.746   9.189 -0.2978 -0.7367  2.1092
   52MOL0     H 6815  11.824   2.520   9.177 -0.3385  0.2649 -0.0828
   52MOL0     H 6816  11.728   2.567   9.313 -1.0895 -3.6485 -0.3805
   52MOL0     H 6817  12.105   2.496   9.221  1.8234 -0.0362  1.1937
   52MOL0     H 6818  12.315   2.490   9.528  3.7638 -1.3013  0.2192
   52MOL0     H 6819  12.320   2.420   9.356 -0.1556 -1.6140  1.6953
   52MOL0     H 6820  12.389   2.241   9.452  0.0865  1.2136 -1.0812
   52MOL0     H 6821  12.215   2.206   9.422 -1.9613 -1.1670  1.7061
   52MOL0     H 6822  12.162   2.176   9.641  0.2594  2.0118  3.5501
   52MOL0     H 6823  12.333   2.133   9.642  0.9974  1.4295  0.9374
   52MOL0     H 6824  12.200   2.391   9.715 -0.6338  0.4329  2.0477
   52MOL0     H 6825  12.381   2.362   9.735  0.5630  0.1978  0.6747
   52MOL0     H 6826  12.205   2.220  10.112  0.5731  2.1628 -0.9003
   52MOL0     H 6827  11.991   2.206  10.221  0.5600  3.2970  0.8385
   52MOL0     H 6828  11.668   1.971  10.375 -1.5927 -0.9572 -0.4578
   52MOL0     H 6829  11.444   1.914  10.407  3.2857 -0.1897 -1.6103
   52MOL0     H 6830  11.098   2.222  10.411  0.7400  1.5189  0.7320
   52MOL0     H 6831  11.163   2.174  10.574  0.3533  1.9508 -0.7803
   52MOL0     H 6832  10.938   2.110  10.589  0.3747 -0.8774  1.1459
   52MOL0     H 6833  11.037   1.966  10.551 -0.0347 -0.5205 -1.5685
   52MOL0     H 6834  10.961   1.960  10.324 -0.3210 -0.6122  1.7448
   52MOL0     H 6835  10.886   2.114  10.322 -2.3946  0.5819  0.7433
   52MOL0     H 6836  10.710   2.041  10.468 -3.4408 -1.9955 -1.8580
   52MOL0     H 6837  10.721   1.915  10.339  1.4715 -0.7264 -1.3283
   52MOL0     H 6838  10.819   1.909  10.629  0.1317 -0.6240 -0.2399
   52MOL0     H 6839  10.854   1.780  10.527  0.2766  0.8312  1.7779
   52MOL0     H 6840  10.630   1.725  10.468  0.2206 -0.5466  0.7817
   52MOL0     H 6841  10.576   1.838  10.591  0.9238  1.4018  0.5006
   52MOL0     H 6842  10.765   1.593  10.622  2.7455  2.2113  1.9200
   52MOL0     H 6843  10.723   1.706  10.753 -0.1359  0.5346  0.0621
   52MOL0     H 6844  10.528   1.527  10.591 -2.0814 -0.4133  1.4919
   52MOL0     H 6845  10.471   1.660  10.688  0.9652  2.0821 -1.1381
   52MOL0     H 6846  11.314   2.318  10.350 -0.4612 -0.5778 -1.0740
   52MOL0     H 6847  11.540   2.367  10.277  0.3611 -0.2873 -2.1095
   52MOL0     H 6848  11.795   2.299   9.841  1.1540  1.3652 -0.6530
   52MOL0     H 6849  12.022   2.314   9.741  1.0046 -3.0534 -1.1918
   52MOL0     H 6850  11.090   3.118   9.233  4.2229 -1.5498 -0.6709
   52MOL0     H 6851  10.929   3.096   9.072  0.4444 -1.7872 -1.9482
   52MOL0     H 6852  10.698   2.653   8.738  0.7023  0.1316  0.9181
   52MOL0     H 6853  10.477   2.628   8.623 -2.0296  0.2365  0.4842
   52MOL0     H 6854  10.332   2.943   8.468 -0.4636  0.6144 -0.7272
   52MOL0     H 6855  10.200   2.844   8.420 -0.4885  0.2931  0.5725
   52MOL0     H 6856  10.495   2.777   8.381 -0.2997  1.7109 -0.3952
   52MOL0     H 6857  10.377   2.649   8.422 -0.2805 -0.0976  1.1654
   52MOL0     H 6858  10.424   2.730   8.163  1.1862 -0.9666 -0.0407
   52MOL0     H 6859  10.305   2.851   8.203 -2.5500 -1.3839 -1.7914
   52MOL0     H 6860  10.256   2.554   8.176 -2.3491 -0.8365 -1.3802
   52MOL0     H 6861  10.152   2.670   8.273 -0.0065  3.1564 -0.6505
   52MOL0     H 6862  10.061   2.782   7.884 -0.0829 -0.2714 -0.9253
   52MOL0     H 6863  10.375   3.018   8.740  0.9806 -0.0004 -0.6925
   52MOL0     H 6864  10.589   3.032   8.884 -0.4135 -0.4043  0.5162
   53MOL0     O 6865   2.492  10.500   6.027 -0.4677 -0.0530  0.2189
   53MOL0     C 6866   2.575  10.412   6.059  0.7200 -0.2437 -0.2638
   53MOL0     O 6867   2.551  10.310   6.147 -0.6011 -0.3111 -0.2948
   53MOL0     C 6868   2.447  10.296   6.230  0.5950 -0.5131  0.0209
   53MOL0     C 6869   2.392  10.397   6.292  0.9163 -0.7704 -0.9762
   53MOL0     C 6870   2.291  10.376   6.384  0.5520  0.5705 -0.2732
   53MOL0     C 6871   2.248  10.246   6.418 -0.1789  0.3012  0.2992
   53MOL0     O 6872   2.157  10.239   6.521  0.0477 -0.2275  0.4192
   53MOL0     C 6873   2.114  10.116   6.579  0.2617 -0.6457 -0.3553
   53MOL0     C 6874   1.982  10.076   6.524 -1.8208 -0.5435 -0.0822
   53MOL0     C 6875   1.907   9.973   6.613  0.1486  0.6341 -0.9224
   53MOL0     C 6876   1.759   9.975   6.586 -0.7076  0.5334 -0.0825
   53MOL0     C 6877   1.667   9.909   6.696 -0.6999  0.7096  0.1428
   53MOL0     C 6878   1.541   9.878   6.632  0.2334 -0.2825 -1.8025
   53MOL0     C 6879   1.536   9.750   6.544 -1.2861 -1.2540 -0.0942
   53MOL0     C 6880   1.398   9.726   6.496  0.3477  0.9683 -0.5661
   53MOL0     N 6881   1.316   9.655   6.593 -0.6055  0.0666  0.2177
   53MOL0     C 6882   1.304   9.523   6.590 -0.2756 -0.0379  0.1420
   53MOL0     C 6883   1.211   9.493   6.682  0.0205  0.7338 -1.1577
   53MOL0     C 6884   1.155   9.365   6.725  0.0102  0.0233 -0.4198
   53MOL0     C 6885   1.032   9.336   6.642 -0.7492  0.5934 -0.6849
   53MOL0     C 6886   0.976   9.194   6.666  0.0896  0.4740 -1.1347
   53MOL0     C 6887   0.865   9.152   6.568 -0.9087  0.2079 -1.0659
   53MOL0     O 6888   0.737   9.215   6.610 -0.4979 -0.3958 -0.2423
   53MOL0     C 6889   0.615   9.151   6.601 -0.7217  0.1480  0.8578
   53MOL0     C 6890   0.515   9.188   6.677  0.5657 -1.1196 -0.1290
   53MOL0     C 6891   0.384   9.142   6.673  0.3100  0.4946 -1.2569
   53MOL0     C 6892   0.361   9.042   6.580 -0.2059 -0.8663 -1.3285
   53MOL0     C 6893   0.229   8.976   6.569  0.2170 -0.3391  0.2167
   53MOL0     O 6894   0.141   9.005   6.677 -0.4530 -0.2170 -0.0514
   53MOL0     C 6895   0.014   8.958   6.677  0.8967  0.1578  0.4269
   53MOL0     C 6896  -0.024   8.873   6.786  0.3622 -0.4086  0.2101
   53MOL0     C 6897  -0.158   8.836   6.805  0.3530 -0.5077 -0.4760
   53MOL0     C 6898  -0.260   8.870   6.712  0.9475  0.5989 -0.1019
   53MOL0     O 6899  -0.388   8.812   6.730 -0.0028 -0.0636  1.1804
   53MOL0     C 6900  -0.496   8.849   6.630 -0.4119  0.1833  0.2517
   53MOL0     C 6901  -0.619   8.763   6.660 -0.0947  0.9758 -0.3702
   53MOL0     C 6902  -0.584   8.612   6.639 -0.0924 -0.0350 -0.7024
   53MOL0     C 6903  -0.695   8.519   6.700 -0.2841 -0.7944 -0.5469
   53MOL0     C 6904  -0.772   8.427   6.609  0.3704 -1.0127  0.1843
   53MOL0     C 6905  -0.890   8.500   6.542  0.9661  0.9757  0.2961
   53MOL0     C 6906  -0.987   8.537   6.651  0.0275  0.2649  0.0910
   53MOL0     C 6907  -1.120   8.559   6.592 -0.0083  0.4531 -0.4436
   53MOL0    Cl 6908  -1.147   8.708   6.494  0.0813 -0.1315 -0.3669
   53MOL0     C 6909  -0.218   8.961   6.604 -0.2058  0.8997 -0.7383
   53MOL0     C 6910  -0.091   8.999   6.593 -0.2072 -0.4979  0.0241
   53MOL0     O 6911   0.197   8.910   6.465 -0.4102  0.0416 -0.6092
   53MOL0     C 6912   0.465   9.001   6.494  0.0045  0.2155  0.7183
   53MOL0     C 6913   0.596   9.049   6.507 -0.2811 -1.1462 -0.0235
   53MOL0     N 6914   1.181   9.609   6.755  0.2593  1.0393 -0.9319
   53MOL0     N 6915   1.241   9.706   6.693  0.5600  0.1057 -0.2013
   53MOL0     C 6916   2.319  10.137   6.355 -0.1851  0.1595 -0.1172
   53MOL0     C 6917   2.424  10.163   6.262  0.5388  0.0966  0.9060
   53MOL0     C 6918   2.702  10.415   5.994 -0.6557 -0.5734  0.1521
   53MOL0     C 6919   2.725  10.495   5.883  0.3687  0.4667 -0.0569
   53MOL0     C 6920   2.858  10.505   5.836 -0.0607  0.0171  0.6452
   53MOL0     C 6921   2.965  10.437   5.883  0.3025  0.9113 -0.0947
   53MOL0     O 6922   3.088  10.465   5.822 -0.2239 -0.4815  0.2407
   53MOL0     C 6923   3.193  10.365   5.820  0.3091 -0.3086  0.8022
   53MOL0     C 6924   3.240  10.340   5.681 -0.9300  0.1391 -0.1503
   53MOL0     C 6925   3.349  10.225   5.670  0.3831  0.1267  0.7391
   53MOL0     C 6926   3.392  10.180   5.527  0.4979 -0.0610 -0.7680
   53MOL0     C 6927   3.500  10.266   5.474 -0.0376 -0.5550 -0.4091
   53MOL0     C 6928   3.580  10.336   5.429 -0.3332  0.6701  0.2224
   53MOL0     C 6929   2.943  10.359   6.002  0.1612 -0.8107 -0.2055
   53MOL0     C 6930   2.812  10.347   6.057  0.2150 -0.3959 -0.3115
   53MOL0     H 6931   2.436  10.494   6.273  0.4803 -0.5223 -0.7502
   53MOL0     H 6932   2.249  10.462   6.436 -1.2320 -0.7223  0.5535
   53MOL0     H 6933   2.105  10.133   6.687 -1.1494  0.3376 -0.5931
   53MOL0     H 6934   2.176  10.028   6.563 -0.4825 -0.7015 -3.4369
   53MOL0     H 6935   1.993  10.040   6.421  0.0455  2.0321 -0.8705
   53MOL0     H 6936   1.918  10.163   6.508 -0.1511  1.0910  1.6031
   53MOL0     H 6937   1.922   9.997   6.718  0.9357  2.3828 -1.3833
   53MOL0     H 6938   1.945   9.872   6.594  2.5333  1.0542  1.1012
   53MOL0     H 6939   1.725  10.079   6.584  2.7363  1.7557 -1.1192
   53MOL0     H 6940   1.748   9.932   6.486 -0.2757  2.6769 -1.1046
   53MOL0     H 6941   1.656   9.980   6.778  0.9131  1.0403  0.1023
   53MOL0     H 6942   1.712   9.816   6.732 -0.0493  0.6105 -0.8849
   53MOL0     H 6943   1.515   9.972   6.582  4.8627  2.0495 -0.4598
   53MOL0     H 6944   1.483   9.871   6.724  0.5435  2.3169 -1.3199
   53MOL0     H 6945   1.599   9.770   6.457 -2.2891  1.7799 -0.2303
   53MOL0     H 6946   1.584   9.668   6.600  4.1549  0.0770 -2.2089
   53MOL0     H 6947   1.394   9.676   6.398  0.1481 -0.1020 -0.0293
   53MOL0     H 6948   1.357   9.824   6.471  1.5670  1.6932  0.1981
   53MOL0     H 6949   1.371   9.469   6.523 -0.8649  1.1477 -1.4693
   53MOL0     H 6950   1.123   9.367   6.830  0.9480  4.2720 -0.0178
   53MOL0     H 6951   1.236   9.292   6.711 -1.6112 -1.8337 -0.5410
   53MOL0     H 6952   1.055   9.341   6.535 -0.9141  0.0223 -0.7534
   53MOL0     H 6953   0.956   9.409   6.670 -0.0356  1.7271 -1.6002
   53MOL0     H 6954   1.057   9.121   6.673 -0.1562  0.2775 -0.1403
   53MOL0     H 6955   0.929   9.199   6.765 -1.1579 -2.3264 -1.4923
   53MOL0     H 6956   0.852   9.044   6.575 -0.1138  0.1839  0.4651
   53MOL0     H 6957   0.883   9.184   6.465  1.7997 -2.3303 -1.5208
   53MOL0     H 6958   0.535   9.253   6.761 -0.9310 -3.7681  2.4606
   53MOL0     H 6959   0.315   9.184   6.746  0.6489 -0.7739 -0.1524
   53MOL0     H 6960   0.062   8.844   6.846  0.2427 -0.2740  0.4485
   53MOL0     H 6961  -0.194   8.776   6.888  0.7263  0.2217  0.2265
   53MOL0     H 6962  -0.460   8.832   6.528 -0.7692  0.1582  0.1270
   53MOL0     H 6963  -0.524   8.954   6.630 -1.6246 -0.1212 -0.1235
   53MOL0     H 6964  -0.692   8.799   6.587  0.5514  1.6881 -0.6803
   53MOL0     H 6965  -0.662   8.787   6.757 -3.1371  0.5582 -1.5193
   53MOL0     H 6966  -0.488   8.591   6.686  0.5315  3.3104 -0.2498
   53MOL0     H 6967  -0.573   8.588   6.533 -0.4077 -0.5823 -0.6144
   53MOL0     H 6968  -0.644   8.451   6.768 -0.3964 -0.5311 -0.1959
   53MOL0     H 6969  -0.755   8.575   6.772  1.3157 -0.8697  0.9105
   53MOL0     H 6970  -0.811   8.350   6.675 -0.2818  1.1188  2.4462
   53MOL0     H 6971  -0.701   8.384   6.537 -0.4017  0.8973 -1.8526
   53MOL0     H 6972  -0.937   8.444   6.461  1.8785  1.1649 -0.3867
   53MOL0     H 6973  -0.853   8.588   6.490  1.9573  1.0968  1.1611
   53MOL0     H 6974  -1.004   8.446   6.709  0.7795  0.3412  0.4409
   53MOL0     H 6975  -0.962   8.626   6.709  0.0110 -1.2340  2.5157
   53MOL0     H 6976  -1.187   8.557   6.678  2.2501 -0.2872  1.3791
   53MOL0     H 6977  -1.155   8.480   6.526 -1.8639  0.7161  0.1659
   53MOL0     H 6978  -0.289   8.997   6.530 -2.7735 -1.9211  0.1346
   53MOL0     H 6979  -0.068   9.047   6.499 -2.0395  0.9212  0.2406
   53MOL0     H 6980   0.445   8.930   6.414  0.6945 -1.0860  1.6762
   53MOL0     H 6981   0.669   9.019   6.434 -0.2623  0.4653 -0.7189
   53MOL0     H 6982   2.295  10.032   6.367 -0.4806  0.3236  0.7397
   53MOL0     H 6983   2.472  10.084   6.206 -0.8549 -1.7911  2.2403
   53MOL0     H 6984   2.640  10.542   5.835  0.4641 -0.8007 -1.5651
   53MOL0     H 6985   2.856  10.579   5.756 -1.4277 -0.8277 -0.1388
   53MOL0     H 6986   3.158  10.270   5.862 -1.6857 -0.1593 -0.3968
   53MOL0     H 6987   3.277  10.404   5.878 -0.1249 -0.0871  1.2884
   53MOL0     H 6988   3.158  10.308   5.616  1.3677 -0.9829 -2.6832
   53MOL0     H 6989   3.269  10.434   5.632 -1.7372 -0.2078 -1.3330
   53MOL0     H 6990   3.316  10.131   5.716  0.7585 -1.5414 -2.1367
   53MOL0     H 6991   3.440  10.259   5.721  0.7443  1.5656 -0.7812
   53MOL0     H 6992   3.428  10.078   5.542 -0.7482 -0.2177  1.5814
   53MOL0     H 6993   3.310  10.180   5.455 -1.5210 -1.9326  1.3560
   53MOL0     H 6994   3.643  10.410   5.382 -0.2763  0.0194 -0.7497
   53MOL0     H 6995   3.030  10.306   6.038  1.0784 -2.1322 -4.0081
   53MOL0     H 6996   2.791  10.273   6.133 -0.4790 -0.8728 -0.9519
   54MOL0     O 6997   3.276   8.712   7.323  0.1170  0.0340 -0.3218
   54MOL0     C 6998   3.380   8.679   7.264 -0.2480 -0.2824  0.1364
   54MOL0     O 6999   3.385   8.598   7.156 -0.2305 -0.5528 -0.1169
   54MOL0     C 7000   3.271   8.510   7.143 -0.2959  0.6722 -0.8026
   54MOL0     C 7001   3.133   8.546   7.135  0.9565 -0.4300  0.3266
   54MOL0     C 7002   3.036   8.446   7.127 -1.0896 -1.2403  0.4698
   54MOL0     C 7003   3.073   8.310   7.133  0.3358  1.0506 -0.4384
   54MOL0     O 7004   2.976   8.220   7.119  0.4577  0.3266  0.1858
   54MOL0     C 7005   2.991   8.089   7.153 -0.1925  0.4043 -0.0962
   54MOL0     C 7006   2.859   8.005   7.150 -0.3474 -0.3481  0.1260
   54MOL0     C 7007   2.877   7.852   7.140  1.0297 -0.4029  0.2466
   54MOL0     C 7008   2.748   7.784   7.103  0.2932  0.0110  0.6934
   54MOL0     C 7009   2.763   7.635   7.149  0.2666 -0.4525 -0.0623
   54MOL0     C 7010   2.648   7.547   7.086  0.5174 -1.0250 -0.4118
   54MOL0     C 7011   2.515   7.565   7.161  0.1013  0.1305  1.0358
   54MOL0     C 7012   2.493   7.480   7.282  0.3102  0.2518  0.7496
   54MOL0     N 7013   2.346   7.476   7.316  0.6805  0.0778 -0.4327
   54MOL0     C 7014   2.242   7.423   7.236  0.8488  0.5710 -0.0869
   54MOL0     C 7015   2.128   7.456   7.308  0.3453  0.5502 -0.0038
   54MOL0     C 7016   1.989   7.428   7.262  0.4803 -0.5075 -0.5111
   54MOL0     C 7017   1.942   7.285   7.290 -0.0260 -1.5256  1.1022
   54MOL0     C 7018   1.784   7.278   7.281 -0.3224 -0.2963  0.2393
   54MOL0     C 7019   1.722   7.142   7.229 -0.0398 -0.8815  0.5514
   54MOL0     O 7020   1.740   7.150   7.088 -0.5793  0.2471  0.1190
   54MOL0     C 7021   1.670   7.071   7.006  0.3480  0.1378  0.3196
   54MOL0     C 7022   1.729   7.058   6.876 -0.5706 -0.3667  0.4715
   54MOL0     C 7023   1.676   6.976   6.778  0.3825  0.0412  0.6198
   54MOL0     C 7024   1.550   6.916   6.800 -0.1596 -0.1755 -0.6605
   54MOL0     C 7025   1.490   6.836   6.701 -0.4112  0.0663 -0.0903
   54MOL0     O 7026   1.357   6.803   6.724 -0.2226  1.1610 -0.1126
   54MOL0     C 7027   1.304   6.717   6.631  0.9290  0.2107 -0.0300
   54MOL0     C 7028   1.261   6.591   6.674 -0.9687  0.7180 -0.0513
   54MOL0     C 7029   1.228   6.486   6.590  0.7479 -1.0546  0.0342
   54MOL0     C 7030   1.235   6.512   6.449  1.0841  0.1465  0.3187
   54MOL0     O 7031   1.194   6.399   6.377  0.1596 -0.1942  0.3928
   54MOL0     C 7032   1.166   6.405   6.242  0.6924 -0.0567 -0.9221
   54MOL0     C 7033   1.292   6.390   6.171 -0.1878  0.3313 -0.6614
   54MOL0     C 7034   1.354   6.249   6.187  0.0456 -1.0061  0.3089
   54MOL0     C 7035   1.486   6.252   6.103  0.1980 -0.1543 -0.0399
   54MOL0     C 7036   1.581   6.130   6.124 -1.2718 -0.5948 -0.1641
   54MOL0     C 7037   1.652   6.120   6.256 -0.0044  0.0718 -0.4207
   54MOL0     C 7038   1.780   6.063   6.233  0.3711  0.7673 -1.2071
   54MOL0     C 7039   1.856   6.031   6.365 -0.0751 -0.3068 -0.4377
   54MOL0    Cl 7040   2.016   5.967   6.339 -0.1328  0.2220 -0.1930
   54MOL0     C 7041   1.261   6.640   6.395 -0.4009 -0.5629  0.2750
   54MOL0     C 7042   1.297   6.737   6.486 -0.1865 -0.3750 -0.8124
   54MOL0     O 7043   1.553   6.802   6.598  0.6306 -0.1329  0.3127
   54MOL0     C 7044   1.490   6.919   6.932  0.3515 -0.3976  0.2652
   54MOL0     C 7045   1.543   7.004   7.032  0.3385  2.2529  1.2144
   54MOL0     N 7046   2.169   7.528   7.422 -0.3253 -0.1437 -0.7292
   54MOL0     N 7047   2.299   7.543   7.424 -0.5529 -0.7089 -0.0300
   54MOL0     C 7048   3.198   8.274   7.122 -0.1196 -0.5587  0.8161
   54MOL0     C 7049   3.303   8.375   7.125  0.4210 -0.3634  0.4616
   54MOL0     C 7050   3.511   8.733   7.311 -0.8015 -0.9492 -0.0589
   54MOL0     C 7051   3.630   8.672   7.264 -1.0971  0.4115  0.0807
   54MOL0     C 7052   3.756   8.727   7.299 -0.3050 -0.2831 -0.1511
   54MOL0     C 7053   3.771   8.846   7.368 -0.0177  0.3926  0.5786
   54MOL0     O 7054   3.900   8.881   7.388 -0.2467  0.2046 -0.0896
   54MOL0     C 7055   3.917   9.021   7.429  0.2907 -0.2158 -0.9427
   54MOL0     C 7056   4.059   9.060   7.394 -0.7128 -0.2058 -0.5970
   54MOL0     C 7057   4.165   8.974   7.456 -0.1097  0.2141  0.3858
   54MOL0     C 7058   4.205   9.017   7.592 -0.1707 -0.8063  0.0707
   54MOL0     C 7059   4.348   9.019   7.597 -0.2942  0.3257 -0.0527
   54MOL0     C 7060   4.468   9.031   7.595  0.1847  0.3823 -0.0856
   54MOL0     C 7061   3.651   8.912   7.418  0.2875 -0.3947 -0.0089
   54MOL0     C 7062   3.526   8.859   7.393  0.0374  0.2138 -0.2682
   54MOL0     H 7063   3.097   8.646   7.115 -1.8320 -1.3313  0.4950
   54MOL0     H 7064   2.930   8.459   7.109 -1.1464 -2.7989 -0.5328
   54MOL0     H 7065   3.039   8.086   7.251  1.3459  4.0878 -0.5665
   54MOL0     H 7066   3.058   8.043   7.080  1.0657  2.0604 -0.0461
   54MOL0     H 7067   2.803   8.042   7.064 -2.3203 -0.2891  1.3705
   54MOL0     H 7068   2.803   8.026   7.242 -0.0922  2.6680 -0.2899
   54MOL0     H 7069   2.912   7.823   7.239  2.3558  1.5398  0.3963
   54MOL0     H 7070   2.963   7.829   7.076  2.7325  0.8623  1.9646
   54MOL0     H 7071   2.663   7.837   7.145 -0.7362 -2.3076  1.7445
   54MOL0     H 7072   2.720   7.790   6.997 -0.4867 -0.5782  0.8565
   54MOL0     H 7073   2.765   7.619   7.257  2.0492 -1.0645 -0.1505
   54MOL0     H 7074   2.855   7.594   7.106 -1.2014 -2.5201 -1.4269
   54MOL0     H 7075   2.684   7.444   7.083  2.8353 -0.2735 -0.1662
   54MOL0     H 7076   2.629   7.577   6.983  1.0100 -2.6299 -0.9916
   54MOL0     H 7077   2.504   7.670   7.186 -3.4430 -0.2894  1.7578
   54MOL0     H 7078   2.446   7.544   7.078  2.1938  1.2426 -1.0879
   54MOL0     H 7079   2.557   7.506   7.366  3.6295 -2.7319 -0.5800
   54MOL0     H 7080   2.516   7.376   7.257 -4.3366 -0.7869 -0.1918
   54MOL0     H 7081   2.251   7.372   7.141  1.5864 -2.0888  1.2977
   54MOL0     H 7082   1.992   7.456   7.156  2.1450  3.2565  0.3753
   54MOL0     H 7083   1.915   7.493   7.309  0.9410 -0.9991  0.9595
   54MOL0     H 7084   1.980   7.245   7.385  2.4991  0.6532  1.1181
   54MOL0     H 7085   1.981   7.223   7.209 -1.4909 -0.3730 -0.5497
   54MOL0     H 7086   1.753   7.282   7.386  0.8585  1.7166  0.5745
   54MOL0     H 7087   1.739   7.355   7.218 -1.1584 -2.3502 -1.8374
   54MOL0     H 7088   1.614   7.144   7.249 -0.2975 -0.0035 -0.8008
   54MOL0     H 7089   1.778   7.054   7.262  1.0656 -0.6564 -0.6744
   54MOL0     H 7090   1.836   7.078   6.868 -0.9658  1.3189 -1.7343
   54MOL0     H 7091   1.728   6.967   6.683 -0.2371  1.3487  0.1327
   54MOL0     H 7092   1.247   6.574   6.780 -1.8360 -0.2390 -0.2915
   54MOL0     H 7093   1.201   6.387   6.627 -0.2038  0.0477  2.5088
   54MOL0     H 7094   1.115   6.497   6.209 -0.9669 -0.8516 -0.7063
   54MOL0     H 7095   1.096   6.323   6.225 -1.2987  0.6372  2.8127
   54MOL0     H 7096   1.362   6.472   6.186  1.5790 -0.6625 -2.9373
   54MOL0     H 7097   1.271   6.402   6.065  1.4515 -0.7618 -1.1386
   54MOL0     H 7098   1.298   6.165   6.145  1.2223 -1.4459 -0.4521
   54MOL0     H 7099   1.397   6.220   6.284  4.2905 -1.1416 -1.3636
   54MOL0     H 7100   1.464   6.272   5.998 -2.0588  1.1439  0.6256
   54MOL0     H 7101   1.533   6.344   6.139  1.0306 -1.2742  1.9205
   54MOL0     H 7102   1.648   6.170   6.047 -0.0425  0.1226  1.2368
   54MOL0     H 7103   1.546   6.033   6.088  0.2830 -0.8586 -1.0750
   54MOL0     H 7104   1.595   6.067   6.333 -0.5980  2.0894  0.5699
   54MOL0     H 7105   1.666   6.220   6.297  4.4529 -0.2853 -0.5048
   54MOL0     H 7106   1.774   5.976   6.167  1.6743  1.9879 -3.0217
   54MOL0     H 7107   1.848   6.142   6.198  0.2303  1.0576 -0.8258
   54MOL0     H 7108   1.791   5.957   6.414  0.3504  0.9233  2.1571
   54MOL0     H 7109   1.867   6.115   6.435  0.6044 -0.9395  0.2365
   54MOL0     H 7110   1.286   6.666   6.293  0.0012 -0.8861  0.2863
   54MOL0     H 7111   1.333   6.830   6.443  1.2060  0.5949  2.1661
   54MOL0     H 7112   1.398   6.862   6.946  1.3665 -2.3291 -0.4434
   54MOL0     H 7113   1.501   7.000   7.132  0.1238 -0.7936  1.0990
   54MOL0     H 7114   3.227   8.170   7.110  2.4109  0.3482 -2.6766
   54MOL0     H 7115   3.408   8.352   7.111  0.4113 -0.2549  0.1964
   54MOL0     H 7116   3.620   8.587   7.198 -3.4024  1.7517 -1.4272
   54MOL0     H 7117   3.849   8.686   7.261 -1.6241 -2.1768 -1.5408
   54MOL0     H 7118   3.912   9.038   7.537  3.2642  3.1699 -1.1359
   54MOL0     H 7119   3.836   9.085   7.393 -0.5168 -1.3897 -1.2585
   54MOL0     H 7120   4.071   9.055   7.286 -1.1075  0.5945 -0.6883
   54MOL0     H 7121   4.078   9.165   7.419 -2.4150 -0.2377  1.0423
   54MOL0     H 7122   4.246   8.974   7.382  0.6657 -3.6571  1.0167
   54MOL0     H 7123   4.130   8.870   7.463  0.4896 -0.0347 -0.1591
   54MOL0     H 7124   4.159   9.107   7.636  0.2469 -0.1531 -0.7944
   54MOL0     H 7125   4.168   8.942   7.663  0.1426  1.2923  2.6257
   54MOL0     H 7126   4.573   9.049   7.588  1.4019 -4.9139 -0.2581
   54MOL0     H 7127   3.661   8.997   7.485  0.0510  1.7832 -2.5806
   54MOL0     H 7128   3.436   8.902   7.436  0.6254  2.6780 -1.3295
   55MOL0     O 7129   2.165   0.488   0.070 -0.0675 -0.2216  0.0014
   55MOL0     C 7130   2.220   0.594   0.040  0.1746 -1.0980  0.6010
   55MOL0     O 7131   2.156   0.703  -0.015 -0.3700 -0.9720 -0.4957
   55MOL0     C 7132   2.016   0.689  -0.029 -0.1393  0.1194 -0.2967
   55MOL0     C 7133   1.955   0.755  -0.135  0.5848 -0.7952 -0.6332
   55MOL0     C 7134   1.815   0.764  -0.151  0.8224  0.2940 -0.2236
   55MOL0     C 7135   1.730   0.691  -0.068  0.6908 -0.2383 -1.2277
   55MOL0     O 7136   1.595   0.674  -0.092  0.2398  0.5866 -0.3983
   55MOL0     C 7137   1.502   0.619   0.011  0.0210 -1.4703 -0.5410
   55MOL0     C 7138   1.365   0.591  -0.053 -0.1868  0.0147 -0.3222
   55MOL0     C 7139   1.353   0.484  -0.166 -0.1516  0.5271 -1.4279
   55MOL0     C 7140   1.225   0.493  -0.234 -0.5554 -0.3914  0.3469
   55MOL0     C 7141   1.203   0.621  -0.320 -0.1919 -0.1476  0.1565
   55MOL0     C 7142   1.071   0.613  -0.411 -0.0005 -0.0979 -0.1640
   55MOL0     C 7143   1.086   0.692  -0.546 -0.3155 -0.8413  0.5071
   55MOL0     C 7144   0.963   0.683  -0.630 -0.8913 -1.6211 -0.2597
   55MOL0     N 7145   0.850   0.741  -0.564 -0.9942 -0.1977  0.3912
   55MOL0     C 7146   0.827   0.871  -0.530 -0.3846 -0.3406  0.0415
   55MOL0     C 7147   0.699   0.880  -0.484  0.6589 -0.3174 -0.1824
   55MOL0     C 7148   0.615   1.008  -0.448 -0.2147 -0.2300  0.3496
   55MOL0     C 7149   0.608   1.109  -0.563  0.3354  0.7850  0.0005
   55MOL0     C 7150   0.464   1.108  -0.623  0.3697 -0.0864 -0.1654
   55MOL0     C 7151   0.370   1.195  -0.539  0.0382  0.5964  0.4682
   55MOL0     O 7152   0.231   1.147  -0.553 -0.6267 -0.0921  1.1071
   55MOL0     C 7153   0.140   1.208  -0.478 -0.2211 -1.4042  0.8947
   55MOL0     C 7154   0.012   1.145  -0.473 -1.4633 -0.2458 -0.2118
   55MOL0     C 7155  -0.089   1.188  -0.392  0.2248  0.1467 -0.4652
   55MOL0     C 7156  -0.078   1.304  -0.318  0.5216 -0.6113  0.7292
   55MOL0     C 7157  -0.193   1.368  -0.241 -0.0807  0.1621 -0.9310
   55MOL0     O 7158  -0.325   1.323  -0.256 -0.0117 -0.0469  0.2621
   55MOL0     C 7159  -0.432   1.359  -0.185  0.4603 -1.0700  0.6782
   55MOL0     C 7160  -0.432   1.431  -0.065  0.3203  1.1695 -0.7383
   55MOL0     C 7161  -0.552   1.448   0.002  0.1667 -0.0945 -0.0179
   55MOL0     C 7162  -0.677   1.410  -0.050  0.5796  0.2001 -0.2160
   55MOL0     O 7163  -0.786   1.435   0.027 -0.0447  0.7152 -0.3358
   55MOL0     C 7164  -0.906   1.456  -0.044  0.4486  0.0403  0.1134
   55MOL0     C 7165  -0.891   1.582  -0.136  0.8965 -0.5185  0.3429
   55MOL0     C 7166  -1.021   1.641  -0.205 -1.0864  0.9117  0.8009
   55MOL0     C 7167  -0.984   1.728  -0.324  0.4452  0.3484 -0.1690
   55MOL0     C 7168  -1.119   1.760  -0.388  0.1566 -0.5488 -0.1953
   55MOL0     C 7169  -1.105   1.854  -0.517 -0.3120 -0.6398  0.2103
   55MOL0     C 7170  -1.028   1.989  -0.483  0.2604  0.4211 -0.5267
   55MOL0     C 7171  -1.025   2.096  -0.596  0.5332  0.1316 -0.4928
   55MOL0    Cl 7172  -0.974   2.031  -0.751 -0.3275 -0.4016 -0.0808
   55MOL0     C 7173  -0.672   1.344  -0.176  0.0482 -0.4288 -0.4445
   55MOL0     C 7174  -0.555   1.331  -0.246 -0.0656 -0.8126 -0.1406
   55MOL0     O 7175  -0.164   1.470  -0.174 -0.0964  0.3140  0.1722
   55MOL0     C 7176   0.047   1.371  -0.319  0.1785 -0.3168  0.7886
   55MOL0     C 7177   0.155   1.319  -0.396 -0.2521 -0.3845 -0.5208
   55MOL0     N 7178   0.646   0.753  -0.479  1.0813 -0.1430  0.4200
   55MOL0     N 7179   0.733   0.676  -0.531  0.3402  0.3296 -0.6955
   55MOL0     C 7180   1.791   0.643   0.049  0.5798  0.4392 -0.1476
   55MOL0     C 7181   1.929   0.643   0.074 -0.7954 -0.6682  0.3141
   55MOL0     C 7182   2.365   0.609   0.079  0.2952  0.2717  0.1207
   55MOL0     C 7183   2.435   0.493   0.100 -0.9097  0.0510  0.8471
   55MOL0     C 7184   2.570   0.486   0.126 -0.1544 -0.3076  0.1211
   55MOL0     C 7185   2.644   0.609   0.132  0.4757  0.8725  0.2121
   55MOL0     O 7186   2.784   0.609   0.166  0.2022  0.4675 -0.3092
   55MOL0     C 7187   2.789   0.630   0.312  0.7399 -0.4713  0.1964
   55MOL0     C 7188   2.930   0.646   0.361  0.6763  0.1622  0.3007
   55MOL0     C 7189   2.976   0.795   0.398  0.2420  0.2153  0.6615
   55MOL0     C 7190   3.126   0.812   0.367 -0.4611 -0.5008 -0.1359
   55MOL0     C 7191   3.156   0.837   0.226  0.0782  0.2496 -1.0648
   55MOL0     C 7192   3.175   0.872   0.115  0.1729  0.6666 -0.3983
   55MOL0     C 7193   2.578   0.730   0.098 -0.3238 -0.0884 -0.2002
   55MOL0     C 7194   2.441   0.733   0.073 -1.0135  1.1993 -0.3463
   55MOL0     H 7195   2.022   0.826  -0.184 -0.5571  0.6194 -0.2347
   55MOL0     H 7196   1.777   0.817  -0.237  0.3572 -2.1214 -1.5829
   55MOL0     H 7197   1.487   0.704   0.078  1.3735  1.1470 -3.3294
   55MOL0     H 7198   1.530   0.524   0.058  0.1611 -2.9928 -3.4878
   55MOL0     H 7199   1.342   0.692  -0.087  0.4759  0.6059  0.9068
   55MOL0     H 7200   1.294   0.566   0.027  0.3287  0.7789  0.3919
   55MOL0     H 7201   1.362   0.385  -0.120 -0.3117  0.7971 -0.8090
   55MOL0     H 7202   1.432   0.503  -0.240 -0.9360  1.4681 -2.0552
   55MOL0     H 7203   1.213   0.403  -0.297 -2.7441  0.1953 -0.1590
   55MOL0     H 7204   1.137   0.490  -0.168 -2.0115 -0.5532 -1.4974
   55MOL0     H 7205   1.290   0.632  -0.386 -0.6176  0.0359 -0.3761
   55MOL0     H 7206   1.207   0.716  -0.266  0.9055  0.9982 -1.8442
   55MOL0     H 7207   0.985   0.651  -0.355  0.5024  0.8576 -0.0060
   55MOL0     H 7208   1.055   0.510  -0.443  1.2599 -0.7088  1.0570
   55MOL0     H 7209   1.103   0.799  -0.528  0.0937 -0.3638 -2.2159
   55MOL0     H 7210   1.172   0.651  -0.600 -1.2013 -1.3033 -0.5864
   55MOL0     H 7211   0.951   0.576  -0.648  0.3249 -2.2820  2.3755
   55MOL0     H 7212   0.979   0.736  -0.725  2.9817 -0.6134  0.7734
   55MOL0     H 7213   0.895   0.953  -0.551  0.8050 -1.2418  0.2994
   55MOL0     H 7214   0.665   1.071  -0.374  0.0391  2.0254 -1.6003
   55MOL0     H 7215   0.515   0.984  -0.411 -1.0170 -0.2895 -1.6986
   55MOL0     H 7216   0.668   1.074  -0.647 -2.1008 -0.4982 -1.3359
   55MOL0     H 7217   0.634   1.213  -0.539  0.9089  0.2383  1.9119
   55MOL0     H 7218   0.458   1.143  -0.726  1.3544  3.9798  0.9904
   55MOL0     H 7219   0.429   1.004  -0.622 -2.4079  0.7564  1.5067
   55MOL0     H 7220   0.382   1.298  -0.573 -3.2679  1.6156  1.9703
   55MOL0     H 7221   0.401   1.183  -0.435 -0.5168 -0.4540  0.5353
   55MOL0     H 7222  -0.018   1.050  -0.516 -3.8212  0.4130 -0.1840
   55MOL0     H 7223  -0.176   1.124  -0.389  0.9498 -1.1032 -2.9427
   55MOL0     H 7224  -0.332   1.459  -0.035 -0.3349  1.5856  1.2109
   55MOL0     H 7225  -0.556   1.492   0.102  2.6655 -0.5240  0.3323
   55MOL0     H 7226  -0.975   1.460   0.041  0.7516 -3.4917  0.7066
   55MOL0     H 7227  -0.936   1.365  -0.098 -1.7780 -0.6264  2.2443
   55MOL0     H 7228  -0.809   1.557  -0.204  2.4361 -0.0770  1.9686
   55MOL0     H 7229  -0.851   1.657  -0.068 -4.0878  1.1560  1.8791
   55MOL0     H 7230  -1.073   1.702  -0.131 -1.8548  1.1317  0.1015
   55MOL0     H 7231  -1.082   1.555  -0.234  1.8664 -1.2226  0.4416
   55MOL0     H 7232  -0.936   1.813  -0.276 -1.5693 -1.0834  5.0853
   55MOL0     H 7233  -0.925   1.676  -0.400 -1.0458  1.5629 -2.2864
   55MOL0     H 7234  -1.181   1.800  -0.307  2.9148 -0.0695  1.8245
   55MOL0     H 7235  -1.159   1.666  -0.427  1.2604 -1.3388  0.5409
   55MOL0     H 7236  -1.205   1.881  -0.552 -0.1139  1.9935  1.4165
   55MOL0     H 7237  -1.047   1.809  -0.598 -2.6872  0.1369 -2.0522
   55MOL0     H 7238  -1.055   2.035  -0.388  1.4539  2.0926 -0.9425
   55MOL0     H 7239  -0.923   1.976  -0.457 -0.6771 -0.5772  3.4145
   55MOL0     H 7240  -0.963   2.182  -0.570 -0.8986  0.8022  0.7969
   55MOL0     H 7241  -1.127   2.133  -0.610  0.1563 -0.5975  0.2195
   55MOL0     H 7242  -0.765   1.314  -0.224 -0.6509  1.2493 -0.1972
   55MOL0     H 7243  -0.554   1.272  -0.337  2.0832 -1.4225  0.2074
   55MOL0     H 7244   0.057   1.455  -0.250  0.7997  1.1293 -0.9851
   55MOL0     H 7245   0.249   1.373  -0.405 -0.3637  0.1800  1.2082
   55MOL0     H 7246   1.731   0.598   0.126  2.6539  0.6386  1.6975
   55MOL0     H 7247   1.960   0.607   0.172  1.2780 -1.2749 -0.5212
   55MOL0     H 7248   2.393   0.392   0.101  1.3920 -0.9824 -0.2040
   55MOL0     H 7249   2.633   0.402   0.154 -0.6642 -0.5573  0.5153
   55MOL0     H 7250   2.745   0.543   0.361  0.4721 -1.8247 -2.3014
   55MOL0     H 7251   2.736   0.722   0.337 -0.0609 -0.6104 -0.9470
   55MOL0     H 7252   2.937   0.594   0.456 -0.7301  0.8558  0.8238
   55MOL0     H 7253   2.993   0.600   0.285 -0.2893 -4.1307  1.8290
   55MOL0     H 7254   2.970   0.802   0.507  0.3767  0.2819  0.6641
   55MOL0     H 7255   2.923   0.875   0.344 -1.4777 -0.2304  1.5980
   55MOL0     H 7256   3.160   0.897   0.426  0.0485 -0.8991  0.1504
   55MOL0     H 7257   3.188   0.729   0.401 -0.8124 -0.1933  1.3226
   55MOL0     H 7258   3.204   0.893   0.014  2.8510 -0.8491 -0.0465
   55MOL0     H 7259   2.654   0.808   0.098  2.8792 -2.9372 -0.9295
   55MOL0     H 7260   2.392   0.829   0.058  1.6284  2.3130 -2.9155
   56MOL0     O 7261   4.562   9.009   9.363 -0.0318  0.4468  0.2982
   56MOL0     C 7262   4.576   9.000   9.243 -0.3291  0.0645  0.5545
   56MOL0     O 7263   4.482   8.965   9.156  0.8437 -0.5850  0.1078
   56MOL0     C 7264   4.349   8.957   9.206 -0.4818  0.1505 -0.1331
   56MOL0     C 7265   4.305   8.847   9.275 -0.7357  0.2119 -0.6212
   56MOL0     C 7266   4.173   8.838   9.322 -0.2505  0.0116 -0.1219
   56MOL0     C 7267   4.080   8.937   9.288 -0.0735  0.5998 -0.0130
   56MOL0     O 7268   3.954   8.949   9.335  0.0086 -0.4538  0.6032
   56MOL0     C 7269   3.888   8.822   9.348  0.3519  0.0936 -0.3081
   56MOL0     C 7270   3.765   8.846   9.439  0.6051  0.2624 -0.3022
   56MOL0     C 7271   3.689   8.983   9.410  1.0213  0.2880  0.1941
   56MOL0     C 7272   3.640   8.996   9.265 -0.3424  0.2422 -0.4693
   56MOL0     C 7273   3.511   9.081   9.256  0.1879  0.3793  0.0427
   56MOL0     C 7274   3.531   9.221   9.316  0.3723  0.3733  0.1788
   56MOL0     C 7275   3.388   9.284   9.321  0.6374  0.5448 -0.1795
   56MOL0     C 7276   3.411   9.425   9.384  0.0348  0.6140 -0.6051
   56MOL0     N 7277   3.290   9.507   9.386  0.2846 -0.0778 -0.4088
   56MOL0     C 7278   3.223   9.552   9.496  0.5848  0.2798  0.0160
   56MOL0     C 7279   3.144   9.654   9.461  0.0334  0.0135 -0.2036
   56MOL0     C 7280   3.053   9.747   9.543 -0.0632 -0.4843  0.5589
   56MOL0     C 7281   2.926   9.673   9.584  0.3266  0.0769  0.5785
   56MOL0     C 7282   2.811   9.763   9.616 -0.2815  0.0569  0.0736
   56MOL0     C 7283   2.688   9.681   9.624 -0.5213 -0.6108 -0.1852
   56MOL0     O 7284   2.574   9.769   9.635 -0.9011 -0.2902 -0.3227
   56MOL0     C 7285   2.518   9.796   9.763 -0.0361  0.1510 -1.1448
   56MOL0     C 7286   2.396   9.855   9.774  0.7401  0.5049  0.0428
   56MOL0     C 7287   2.320   9.866   9.890  0.2290 -0.0116  0.2862
   56MOL0     C 7288   2.365   9.821  10.016 -0.0535 -0.0551  0.1976
   56MOL0     C 7289   2.295   9.841  10.146  0.2588  0.0389 -0.0157
   56MOL0     O 7290   2.175   9.895  10.130  0.3823  1.0202  0.4332
   56MOL0     C 7291   2.098   9.916  10.240 -0.1775  0.5642  0.2773
   56MOL0     C 7292   2.074   9.817  10.338  0.5817 -0.4020 -0.1159
   56MOL0     C 7293   1.974   9.834  10.435  0.0352 -0.6941 -0.1742
   56MOL0     C 7294   1.890   9.957  10.428 -0.4503 -0.2831  0.4096
   56MOL0     O 7295   1.783   9.981  10.509 -0.4148  0.0497  0.5741
   56MOL0     C 7296   1.737   9.870  10.587 -0.3803  0.5135  0.2845
   56MOL0     C 7297   1.606   9.911  10.652 -0.4161  0.8626 -0.6280
   56MOL0     C 7298   1.523   9.782  10.697 -0.4463  0.1528 -1.0214
   56MOL0     C 7299   1.395   9.816  10.778  0.8054 -0.1567  0.4088
   56MOL0     C 7300   1.276   9.881  10.708  1.1085  0.4634  0.3173
   56MOL0     C 7301   1.184   9.789  10.622  0.4602 -0.0070  0.0966
   56MOL0     C 7302   1.055   9.847  10.548 -0.1916 -0.3546  0.6743
   56MOL0     C 7303   1.071   9.822  10.392 -0.3842 -1.1525 -0.6342
   56MOL0    Cl 7304   1.197   9.913  10.313 -0.2630 -0.1094  0.4761
   56MOL0     C 7305   1.911  10.046  10.320 -1.7419 -0.0042 -0.3958
   56MOL0     C 7306   2.024  10.035  10.236 -0.2951 -0.1601  0.3770
   56MOL0     O 7307   2.350   9.808  10.250  0.0666 -0.2278 -0.0625
   56MOL0     C 7308   2.493   9.776  10.013 -0.1256  0.0682 -0.0965
   56MOL0     C 7309   2.573   9.764   9.897 -0.3137 -0.2385 -0.1549
   56MOL0     N 7310   3.173   9.682   9.330 -0.1035 -0.3633  0.6652
   56MOL0     N 7311   3.255   9.591   9.283 -0.4088 -0.4425  0.2921
   56MOL0     C 7312   4.129   9.049   9.220 -0.6980 -0.2681 -0.1640
   56MOL0     C 7313   4.262   9.056   9.170  0.4662 -0.2862 -0.6171
   56MOL0     C 7314   4.713   8.983   9.192 -0.0082  0.2616 -0.2575
   56MOL0     C 7315   4.749   8.884   9.101 -0.5580 -0.4705  1.3417
   56MOL0     C 7316   4.881   8.855   9.070  0.3280 -0.7178  1.2954
   56MOL0     C 7317   4.985   8.924   9.135  0.4627  0.0770 -0.2463
   56MOL0     O 7318   5.111   8.879   9.108 -0.6131 -0.2069  0.6234
   56MOL0     C 7319   5.228   8.954   9.151 -0.2321  1.0579  0.3212
   56MOL0     C 7320   5.361   8.904   9.100  0.7821  0.2560 -0.4617
   56MOL0     C 7321   5.377   8.911   8.953 -0.2222  0.3279  0.5530
   56MOL0     C 7322   5.531   8.942   8.916  0.5529  0.3252  0.4260
   56MOL0     C 7323   5.620   8.839   8.975  0.5053 -0.6439 -0.3083
   56MOL0     C 7324   5.683   8.756   9.034  0.1470  0.0925  1.2032
   56MOL0     C 7325   4.954   9.032   9.215 -0.1538 -0.3490 -0.3500
   56MOL0     C 7326   4.823   9.062   9.244 -0.1891 -0.0198 -0.2418
   56MOL0     H 7327   4.370   8.775   9.324 -1.2610  1.6176  2.3796
   56MOL0     H 7328   4.142   8.751   9.378  4.5232 -1.6887  0.3478
   56MOL0     H 7329   3.944   8.744   9.400  1.4813  1.2858  0.3507
   56MOL0     H 7330   3.846   8.796   9.250 -1.8845  1.4724  0.2366
   56MOL0     H 7331   3.808   8.846   9.540  1.1247  3.2350 -0.4119
   56MOL0     H 7332   3.690   8.767   9.430  1.3244 -0.2119 -3.0701
   56MOL0     H 7333   3.753   9.069   9.431  2.1866 -0.5505  0.1891
   56MOL0     H 7334   3.612   8.985   9.487  2.4692 -0.6142  1.7320
   56MOL0     H 7335   3.722   9.047   9.214  0.4816  1.8228  2.2565
   56MOL0     H 7336   3.623   8.895   9.226 -1.4702  0.3488 -0.2763
   56MOL0     H 7337   3.426   9.029   9.300 -1.9864  4.0338  0.6098
   56MOL0     H 7338   3.483   9.096   9.151  2.6935  0.6022 -0.6444
   56MOL0     H 7339   3.605   9.268   9.252  0.8095  0.5368  0.7944
   56MOL0     H 7340   3.574   9.218   9.417  0.1029  3.4295  0.4777
   56MOL0     H 7341   3.333   9.301   9.228 -1.0148  2.3941  1.0566
   56MOL0     H 7342   3.317   9.212   9.363 -1.2345  0.3628 -3.3069
   56MOL0     H 7343   3.495   9.481   9.341  0.7388 -0.8789 -1.2683
   56MOL0     H 7344   3.448   9.405   9.485 -0.6103 -0.7340 -0.6191
   56MOL0     H 7345   3.237   9.522   9.599  1.4243 -2.1696 -0.7380
   56MOL0     H 7346   3.034   9.835   9.481  2.2721  1.4010  2.3300
   56MOL0     H 7347   3.115   9.794   9.620  2.6807  1.1940 -2.4682
   56MOL0     H 7348   2.941   9.618   9.677  0.9474 -0.0119  0.4311
   56MOL0     H 7349   2.893   9.613   9.498 -0.1707  0.1080  0.7471
   56MOL0     H 7350   2.824   9.799   9.718  0.4488 -0.5984  0.2188
   56MOL0     H 7351   2.796   9.847   9.547 -1.1230 -0.0756  0.0743
   56MOL0     H 7352   2.705   9.623   9.715  0.4878  0.8919  0.6361
   56MOL0     H 7353   2.679   9.621   9.533  1.7336 -0.5137 -0.5558
   56MOL0     H 7354   2.355   9.894   9.681  0.0587  2.3082  1.0354
   56MOL0     H 7355   2.220   9.908   9.879  0.4025  0.0779 -1.1867
   56MOL0     H 7356   2.126   9.723  10.349 -0.4009 -0.9596 -0.1489
   56MOL0     H 7357   1.969   9.760  10.514 -0.9783  2.5831  3.1064
   56MOL0     H 7358   1.814   9.834  10.656  0.3240  0.9327 -0.2690
   56MOL0     H 7359   1.702   9.795  10.515 -3.3582  0.3024  1.8016
   56MOL0     H 7360   1.548   9.960  10.573 -1.9561  0.5556  0.2667
   56MOL0     H 7361   1.618   9.978  10.738 -2.7355 -0.1848  0.6136
   56MOL0     H 7362   1.599   9.723  10.750  0.3949  3.9264  2.4792
   56MOL0     H 7363   1.493   9.735  10.603 -0.4390  0.9836 -1.4462
   56MOL0     H 7364   1.356   9.726  10.827  4.3173 -1.3409  1.3398
   56MOL0     H 7365   1.438   9.872  10.861  1.9216 -2.3911  1.4346
   56MOL0     H 7366   1.304   9.972  10.654 -0.2566  3.0660  3.6469
   56MOL0     H 7367   1.216   9.914  10.794  1.4008  1.6094  0.1053
   56MOL0     H 7368   1.163   9.705  10.690 -1.4344  1.1448  1.0037
   56MOL0     H 7369   1.247   9.756  10.539  2.4225 -1.8783  2.1961
   56MOL0     H 7370   0.974   9.782  10.581 -1.8059  1.7634  1.1183
   56MOL0     H 7371   1.029   9.949  10.576  0.5464 -0.4388  1.7279
   56MOL0     H 7372   0.977   9.856  10.347  0.3978  2.5279  0.1242
   56MOL0     H 7373   1.077   9.715  10.372  1.2434 -1.4096  0.9478
   56MOL0     H 7374   1.854  10.133  10.289 -1.6584 -0.5415 -2.1772
   56MOL0     H 7375   2.031  10.101  10.151 -0.8945 -0.6346 -0.0536
   56MOL0     H 7376   2.537   9.748  10.108 -2.3180 -1.2769  0.6027
   56MOL0     H 7377   2.674   9.729   9.914  0.2103  0.4915 -1.6617
   56MOL0     H 7378   4.065   9.132   9.192 -1.9351 -2.1449 -3.4768
   56MOL0     H 7379   4.303   9.146   9.124  0.3994 -0.4092 -0.9172
   56MOL0     H 7380   4.672   8.832   9.044  0.6322 -1.8880  0.9288
   56MOL0     H 7381   4.912   8.779   8.999  1.5276  0.2649  0.7271
   56MOL0     H 7382   5.224   8.974   9.258  0.3903  2.4572  0.0951
   56MOL0     H 7383   5.218   9.051   9.102  0.4730 -1.4433 -5.6341
   56MOL0     H 7384   5.433   8.971   9.147  1.1774 -1.9688  2.3882
   56MOL0     H 7385   5.372   8.802   9.137 -1.9170  0.3489  0.8832
   56MOL0     H 7386   5.321   8.998   8.918 -0.4278 -0.0705 -0.1122
   56MOL0     H 7387   5.342   8.818   8.908  3.4639 -1.1998  0.4708
   56MOL0     H 7388   5.544   8.949   8.808 -0.3301 -1.4406  0.1608
   56MOL0     H 7389   5.552   9.039   8.961 -1.9917  1.2127 -0.1605
   56MOL0     H 7390   5.737   8.701   9.109  0.2698 -2.5157 -0.6637
   56MOL0     H 7391   5.029   9.081   9.277 -0.5503  2.0244 -1.6168
   56MOL0     H 7392   4.800   9.134   9.321 -1.3654  0.5275 -1.0694
   57MOL0     O 7393   7.696   7.156   9.563 -0.7196  0.6332  0.1250
   57MOL0     C 7394   7.704   7.218   9.458  0.2831  0.7409  0.0372
   57MOL0     O 7395   7.595   7.276   9.394  0.0468  0.8952  0.0038
   57MOL0     C 7396   7.468   7.256   9.439  0.1069  0.0809 -0.8833
   57MOL0     C 7397   7.410   7.359   9.512  0.0268  0.8124 -0.7188
   57MOL0     C 7398   7.269   7.354   9.538 -0.7408  0.4351 -0.7661
   57MOL0     C 7399   7.189   7.235   9.516  0.5696  0.2379  0.6567
   57MOL0     O 7400   7.062   7.236   9.568  0.2112 -0.7541 -0.0673
   57MOL0     C 7401   7.060   7.239   9.710  0.4369  0.4438 -0.1870
   57MOL0     C 7402   6.916   7.204   9.746  0.2029  0.6681  0.3863
   57MOL0     C 7403   6.872   7.066   9.679 -0.1204 -0.6812  0.5033
   57MOL0     C 7404   6.744   7.004   9.718 -0.6799 -0.1629  0.3504
   57MOL0     C 7405   6.617   7.081   9.659 -0.4760 -0.4697  0.3405
   57MOL0     C 7406   6.496   7.013   9.701  0.0510  0.4700 -0.1021
   57MOL0     C 7407   6.367   7.080   9.656 -0.4478 -0.0903 -0.0959
   57MOL0     C 7408   6.310   7.036   9.518 -0.5736  0.1224 -0.4376
   57MOL0     N 7409   6.166   7.040   9.505  0.3519 -0.2681 -0.3031
   57MOL0     C 7410   6.090   7.153   9.537 -0.1587  0.3011 -0.3738
   57MOL0     C 7411   5.968   7.117   9.588  0.1871 -0.6766  0.8291
   57MOL0     C 7412   5.857   7.213   9.629 -0.0700  0.1474 -0.8704
   57MOL0     C 7413   5.718   7.155   9.674  0.2592  0.6611  0.5700
   57MOL0     C 7414   5.615   7.267   9.675  0.0980  0.1049 -0.0435
   57MOL0     C 7415   5.507   7.234   9.776  0.2051 -0.4751 -0.2531
   57MOL0     O 7416   5.422   7.345   9.802 -0.2964  0.2573  0.4044
   57MOL0     C 7417   5.292   7.316   9.826 -0.4796  0.5061  0.9460
   57MOL0     C 7418   5.206   7.415   9.800 -0.2546 -0.4137  0.1735
   57MOL0     C 7419   5.066   7.398   9.807 -0.2808 -0.2384  0.8486
   57MOL0     C 7420   5.017   7.274   9.850 -0.3066 -0.5023 -0.2631
   57MOL0     C 7421   4.883   7.260   9.875  0.8193 -0.6529  0.5231
   57MOL0     O 7422   4.805   7.353   9.826 -0.2911  0.5614  0.3761
   57MOL0     C 7423   4.670   7.353   9.828  0.2737 -0.5842  0.2657
   57MOL0     C 7424   4.611   7.467   9.861 -0.4974 -0.4778 -0.2471
   57MOL0     C 7425   4.478   7.493   9.830 -0.1198  0.1173 -0.0247
   57MOL0     C 7426   4.395   7.379   9.786  1.2951 -0.6204  0.3312
   57MOL0     O 7427   4.266   7.370   9.752  0.2538  0.1442  0.8481
   57MOL0     C 7428   4.194   7.493   9.755  0.7438  0.1263 -0.1108
   57MOL0     C 7429   4.045   7.463   9.710 -0.6036 -0.8488  1.0938
   57MOL0     C 7430   3.981   7.600   9.693  1.1447 -0.0517 -0.2701
   57MOL0     C 7431   3.853   7.587   9.610  0.5674  0.5618  0.2386
   57MOL0     C 7432   3.812   7.723   9.572  0.3077 -0.3770 -0.4300
   57MOL0     C 7433   3.672   7.725   9.506 -0.0785 -0.2976  0.6694
   57MOL0     C 7434   3.643   7.855   9.437 -0.2631  0.0352  0.5162
   57MOL0     C 7435   3.513   7.834   9.355 -0.1092 -0.5385  0.8031
   57MOL0    Cl 7436   3.528   7.729   9.209 -0.4784 -0.2432 -0.0049
   57MOL0     C 7437   4.455   7.259   9.769  1.0419  0.3268  0.8344
   57MOL0     C 7438   4.593   7.246   9.785 -0.7075 -0.6777  0.4401
   57MOL0     O 7439   4.838   7.159   9.932 -0.6775  0.2426  0.5247
   57MOL0     C 7440   5.105   7.170   9.883 -0.6594 -0.2198 -0.2581
   57MOL0     C 7441   5.245   7.195   9.880  0.5296  0.8125  0.2620
   57MOL0     N 7442   5.958   6.981   9.574  0.6873  0.4648  0.0164
   57MOL0     N 7443   6.084   6.946   9.538  0.1502  0.2789 -0.4365
   57MOL0     C 7444   7.254   7.134   9.444  0.2095  0.5735 -0.2736
   57MOL0     C 7445   7.392   7.142   9.400 -0.1327 -0.5099  0.2956
   57MOL0     C 7446   7.837   7.232   9.395  0.9361 -0.0169 -0.3748
   57MOL0     C 7447   7.845   7.267   9.261 -0.8268  0.0972  0.2053
   57MOL0     C 7448   7.968   7.299   9.199  0.8898  0.7046  0.4687
   57MOL0     C 7449   8.092   7.282   9.259  0.0737  0.1522  0.7016
   57MOL0     O 7450   8.202   7.326   9.191  0.3084  0.7309  0.1554
   57MOL0     C 7451   8.329   7.294   9.239 -0.3288 -0.8963  0.2877
   57MOL0     C 7452   8.449   7.342   9.152  0.2175 -0.0264  0.0973
   57MOL0     C 7453   8.577   7.283   9.188 -0.9838 -0.1769  0.5312
   57MOL0     C 7454   8.680   7.348   9.104 -0.0701  0.0683  0.8966
   57MOL0     C 7455   8.802   7.272   9.123 -0.4815 -0.0571  0.2865
   57MOL0     C 7456   8.916   7.224   9.134  1.2845 -0.4110  0.0459
   57MOL0     C 7457   8.085   7.236   9.393  0.2399  0.5628 -0.1106
   57MOL0     C 7458   7.963   7.207   9.456  0.2497 -0.9122 -0.0059
   57MOL0     H 7459   7.471   7.443   9.542 -0.3824  1.0107 -0.4276
   57MOL0     H 7460   7.245   7.443   9.595  1.1556  0.9015 -0.6187
   57MOL0     H 7461   7.094   7.338   9.741  1.3410 -0.7563  3.0333
   57MOL0     H 7462   7.132   7.166   9.749  1.7742  0.6052 -2.1933
   57MOL0     H 7463   6.851   7.282   9.706  0.3611 -0.2976 -1.8623
   57MOL0     H 7464   6.900   7.193   9.854  0.9487  2.4659  0.7054
   57MOL0     H 7465   6.953   6.997   9.702 -1.6762 -1.9798  2.4856
   57MOL0     H 7466   6.868   7.080   9.570 -0.6737 -0.9887  0.4822
   57MOL0     H 7467   6.754   6.907   9.669  2.8488  0.9632 -1.5192
   57MOL0     H 7468   6.727   6.995   9.826 -0.0025 -2.5671  0.3188
   57MOL0     H 7469   6.624   7.080   9.550 -1.6188 -2.0118  0.2487
   57MOL0     H 7470   6.622   7.187   9.684 -0.2314 -0.3450 -0.2146
   57MOL0     H 7471   6.495   7.024   9.810  1.0936  0.6543 -0.1058
   57MOL0     H 7472   6.494   6.905   9.681 -1.1520  0.8867 -2.6682
   57MOL0     H 7473   6.301   7.040   9.734 -0.1961 -2.7095 -1.1203
   57MOL0     H 7474   6.367   7.188   9.670 -0.8324 -0.1608  0.4966
   57MOL0     H 7475   6.348   6.933   9.513  2.1638  1.0973 -2.2774
   57MOL0     H 7476   6.368   7.082   9.437 -0.7222  0.0766 -0.5718
   57MOL0     H 7477   6.129   7.254   9.531  0.6781 -0.0901 -2.3471
   57MOL0     H 7478   5.843   7.285   9.547  0.5903 -1.7258 -2.7188
   57MOL0     H 7479   5.908   7.265   9.710 -0.7288  0.7536 -0.8299
   57MOL0     H 7480   5.715   7.110   9.773 -0.8345  0.5774  0.5203
   57MOL0     H 7481   5.687   7.074   9.607 -0.4155 -0.8706  2.6476
   57MOL0     H 7482   5.658   7.361   9.710  0.9360 -0.0652 -0.5828
   57MOL0     H 7483   5.580   7.287   9.574 -0.5740  0.7794  0.3116
   57MOL0     H 7484   5.558   7.211   9.870  3.1558  2.1282 -1.0211
   57MOL0     H 7485   5.442   7.157   9.734 -3.4314  1.3211  1.6392
   57MOL0     H 7486   5.243   7.506   9.754 -1.1428  0.3210  0.8837
   57MOL0     H 7487   5.004   7.485   9.785 -0.5517 -0.1250  1.9967
   57MOL0     H 7488   4.673   7.551   9.889 -2.0145  0.3333  0.7944
   57MOL0     H 7489   4.435   7.590   9.848 -3.3856 -1.0523 -0.9270
   57MOL0     H 7490   4.230   7.569   9.684 -1.7818  1.0147 -0.5503
   57MOL0     H 7491   4.199   7.538   9.854 -1.5056 -3.3922  1.8134
   57MOL0     H 7492   3.998   7.399   9.786  0.3499  1.4421  3.7762
   57MOL0     H 7493   4.049   7.404   9.618  0.2685 -0.3315  0.7910
   57MOL0     H 7494   4.057   7.657   9.640  0.6386 -1.1767 -2.3072
   57MOL0     H 7495   3.958   7.641   9.792  0.3684 -3.7469  1.2668
   57MOL0     H 7496   3.866   7.539   9.512 -2.1725  0.0556  0.0445
   57MOL0     H 7497   3.779   7.531   9.667  0.0417  2.2468  1.2937
   57MOL0     H 7498   3.884   7.771   9.506  1.2543 -0.9607  0.1633
   57MOL0     H 7499   3.806   7.786   9.661 -1.8382  1.2226 -1.6050
   57MOL0     H 7500   3.594   7.704   9.579 -1.9194  0.6233 -0.9314
   57MOL0     H 7501   3.671   7.645   9.431 -0.9887 -0.5525  0.9418
   57MOL0     H 7502   3.632   7.930   9.516 -2.6432  1.0915 -0.7113
   57MOL0     H 7503   3.719   7.903   9.375  0.5151 -1.1907  0.4961
   57MOL0     H 7504   3.476   7.932   9.326 -2.4462 -1.0479  1.7473
   57MOL0     H 7505   3.441   7.785   9.422 -0.9805 -0.1951  0.1307
   57MOL0     H 7506   4.396   7.178   9.728 -1.6351  2.1273  0.8717
   57MOL0     H 7507   4.626   7.150   9.746  0.0821 -0.9268  1.6915
   57MOL0     H 7508   5.076   7.081   9.939  0.1664 -1.5796 -1.9005
   57MOL0     H 7509   5.317   7.121   9.915  1.9436  0.7779 -2.4580
   57MOL0     H 7510   7.204   7.042   9.417  0.1072 -0.1431  2.1274
   57MOL0     H 7511   7.449   7.074   9.338 -0.2429 -0.5304  0.2170
   57MOL0     H 7512   7.746   7.271   9.218 -0.7785  0.6140  0.1404
   57MOL0     H 7513   7.966   7.342   9.099  0.5467 -2.4466 -1.0091
   57MOL0     H 7514   8.348   7.187   9.230  1.6584 -0.5280 -0.2429
   57MOL0     H 7515   8.344   7.335   9.340 -2.9470  0.6970  0.1303
   57MOL0     H 7516   8.427   7.317   9.048 -0.4221 -1.2802  0.5057
   57MOL0     H 7517   8.451   7.449   9.175  1.9005 -0.5817  3.0316
   57MOL0     H 7518   8.589   7.175   9.176  1.3116 -0.1679  2.1196
   57MOL0     H 7519   8.600   7.298   9.294  4.2872 -0.5965 -0.2999
   57MOL0     H 7520   8.660   7.350   8.996 -1.1399  0.6777  1.0856
   57MOL0     H 7521   8.701   7.449   9.141 -0.1987  0.5384 -0.2580
   57MOL0     H 7522   9.011   7.181   9.158  0.7976 -1.2084  0.6317
   57MOL0     H 7523   8.176   7.203   9.443 -0.6875 -0.4018  1.0038
   57MOL0     H 7524   7.953   7.166   9.556 -0.9957 -1.1286 -0.1970
   58MOL0     O 7525  10.667   5.984   5.877  0.3252 -0.1446 -1.5773
   58MOL0     C 7526  10.771   5.919   5.846  0.0777  0.2990  0.0862
   58MOL0     O 7527  10.770   5.791   5.781  0.3470 -0.7705 -0.6026
   58MOL0     C 7528  10.653   5.736   5.745  0.0936  0.7814  0.7447
   58MOL0     C 7529  10.591   5.629   5.810  0.3838 -0.0128  0.3959
   58MOL0     C 7530  10.471   5.595   5.771 -0.1230  1.1515  0.4754
   58MOL0     C 7531  10.404   5.646   5.660  0.4696  0.4825  0.4349
   58MOL0     O 7532  10.268   5.617   5.625  0.0783  0.0621 -0.2147
   58MOL0     C 7533  10.194   5.537   5.715  0.0632 -1.2556  0.4375
   58MOL0     C 7534  10.076   5.510   5.628 -0.5149  0.5319  0.9351
   58MOL0     C 7535  10.105   5.414   5.511  1.0331 -0.0416  0.0599
   58MOL0     C 7536   9.979   5.390   5.414  0.8632  0.6599  0.2516
   58MOL0     C 7537   9.921   5.518   5.346  1.1394  0.8390  1.2160
   58MOL0     C 7538   9.837   5.495   5.218 -0.2217 -0.1248 -0.5423
   58MOL0     C 7539   9.934   5.443   5.109 -0.0744  0.7450  1.4655
   58MOL0     C 7540   9.871   5.456   4.967 -0.8398 -0.7185  0.3538
   58MOL0     N 7541   9.741   5.377   4.953  0.7057 -0.3367 -0.1406
   58MOL0     C 7542   9.729   5.242   4.976 -0.1944 -0.1511  0.1350
   58MOL0     C 7543   9.598   5.211   4.960  0.6309  0.2680  1.3470
   58MOL0     C 7544   9.529   5.074   4.959 -0.1234  0.4855 -0.0263
   58MOL0     C 7545   9.611   4.965   4.904 -0.5885  0.4214  0.1302
   58MOL0     C 7546   9.521   4.861   4.853  0.6604  1.3030 -0.2247
   58MOL0     C 7547   9.401   4.806   4.940 -0.1269  0.3125 -0.1161
   58MOL0     O 7548   9.331   4.700   4.868  0.7826 -0.1435  0.4107
   58MOL0     C 7549   9.211   4.655   4.921 -0.1926  1.1092  0.6428
   58MOL0     C 7550   9.133   4.591   4.829  0.7877  0.5257 -0.0078
   58MOL0     C 7551   9.019   4.535   4.876  0.5813 -0.7358 -0.8066
   58MOL0     C 7552   8.980   4.544   5.006  0.5385 -0.5172 -0.2674
   58MOL0     C 7553   8.851   4.482   5.054  0.4373  0.7487 -0.6559
   58MOL0     O 7554   8.839   4.435   5.179  0.0776 -0.2941  0.1052
   58MOL0     C 7555   8.723   4.372   5.203  0.4355  0.0622 -0.8414
   58MOL0     C 7556   8.649   4.408   5.308  0.1973 -0.6629  0.3498
   58MOL0     C 7557   8.529   4.336   5.342 -0.8644 -0.2415 -0.2460
   58MOL0     C 7558   8.504   4.219   5.276  0.0976 -0.4357  0.7802
   58MOL0     O 7559   8.375   4.164   5.276  0.4637  0.3820 -0.6075
   58MOL0     C 7560   8.314   4.138   5.405  0.1088  0.2482 -0.1407
   58MOL0     C 7561   8.189   4.047   5.393  0.1538 -0.3773 -0.1627
   58MOL0     C 7562   8.114   4.041   5.523  0.9003 -0.0142  0.0702
   58MOL0     C 7563   7.972   3.978   5.508 -0.4864 -0.1257  0.6447
   58MOL0     C 7564   7.980   3.836   5.456 -0.2007 -0.0626  0.1996
   58MOL0     C 7565   7.847   3.784   5.381  0.6374  0.0631 -0.9807
   58MOL0     C 7566   7.713   3.772   5.463  0.4312  0.5527  0.9150
   58MOL0     C 7567   7.611   3.679   5.385 -0.1480  0.2683 -0.0506
   58MOL0    Cl 7568   7.439   3.707   5.440 -0.3079 -0.1248 -0.3798
   58MOL0     C 7569   8.585   4.182   5.171 -0.4115  0.3368 -0.0286
   58MOL0     C 7570   8.698   4.250   5.142  0.3976  0.8992 -0.1359
   58MOL0     O 7571   8.758   4.494   4.969 -0.0060 -0.1635 -0.7738
   58MOL0     C 7572   9.057   4.612   5.098 -0.4732 -0.6438  0.3590
   58MOL0     C 7573   9.169   4.666   5.048  0.3640 -0.2751 -0.3597
   58MOL0     N 7574   9.533   5.328   4.929 -0.5233  0.3262 -0.2547
   58MOL0     N 7575   9.615   5.427   4.947 -0.3927  0.2136  0.6015
   58MOL0     C 7576  10.467   5.746   5.591  0.2408 -0.7771  0.5005
   58MOL0     C 7577  10.592   5.786   5.629 -0.4789  1.0620 -0.6685
   58MOL0     C 7578  10.902   5.963   5.898  0.7956  0.3716  0.6342
   58MOL0     C 7579  11.023   5.904   5.848 -0.3155 -0.5957  0.2549
   58MOL0     C 7580  11.145   5.944   5.911 -0.3013  0.7095 -0.2549
   58MOL0     C 7581  11.149   6.038   6.013 -0.6047  0.0094 -0.3166
   58MOL0     O 7582  11.267   6.091   6.071  0.1470  1.0659  0.1115
   58MOL0     C 7583  11.390   6.018   6.056 -0.4676  0.5584  0.2206
   58MOL0     C 7584  11.480   6.051   6.174  0.5171 -0.6938  0.3564
   58MOL0     C 7585  11.602   5.973   6.181 -0.4988  0.5889 -0.2814
   58MOL0     C 7586  11.706   6.046   6.270 -0.7117  0.6147  0.4268
   58MOL0     C 7587  11.766   6.146   6.185  0.6993  1.1663 -0.0468
   58MOL0     C 7588  11.811   6.229   6.111  0.7507  0.1432  1.0287
   58MOL0     C 7589  11.033   6.105   6.053  0.8360  0.1499  0.9570
   58MOL0     C 7590  10.908   6.060   5.993 -0.2292 -0.3509 -0.0608
   58MOL0     H 7591  10.640   5.591   5.900  3.2755  1.0960 -0.5972
   58MOL0     H 7592  10.442   5.508   5.830  0.4505  0.3201 -0.4383
   58MOL0     H 7593  10.160   5.580   5.810 -1.8299 -1.9509  0.1121
   58MOL0     H 7594  10.241   5.439   5.728  5.0249  0.4206 -1.9820
   58MOL0     H 7595  10.028   5.598   5.584 -3.7703 -0.2232  2.7382
   58MOL0     H 7596  10.006   5.454   5.689  0.6939  0.2951  2.1479
   58MOL0     H 7597  10.131   5.320   5.560  1.8171 -1.0826 -2.2089
   58MOL0     H 7598  10.182   5.456   5.445 -0.3713  0.5886 -1.2392
   58MOL0     H 7599  10.008   5.315   5.340  1.4756 -0.7415  1.8561
   58MOL0     H 7600   9.890   5.347   5.461 -0.2771  0.4386 -1.9414
   58MOL0     H 7601   9.994   5.598   5.330 -0.7527  2.1587 -1.8835
   58MOL0     H 7602   9.853   5.564   5.418  1.0988 -1.2525  2.5980
   58MOL0     H 7603   9.785   5.584   5.182 -2.1769 -1.1424 -0.3571
   58MOL0     H 7604   9.753   5.426   5.225 -0.8854  0.6327 -0.8732
   58MOL0     H 7605  10.028   5.499   5.101 -0.9626  2.4073  2.2180
   58MOL0     H 7606   9.968   5.340   5.123  0.0887  0.5000 -0.4139
   58MOL0     H 7607   9.939   5.415   4.892  0.6945 -0.5167  1.5773
   58MOL0     H 7608   9.855   5.564   4.955  1.0218 -0.4171  0.4017
   58MOL0     H 7609   9.810   5.176   5.008 -1.1431 -0.3917  2.1871
   58MOL0     H 7610   9.435   5.082   4.905 -1.9276 -2.1563  2.4419
   58MOL0     H 7611   9.502   5.052   5.062 -1.2878 -1.4501 -0.7012
   58MOL0     H 7612   9.667   4.918   4.986 -0.1016 -0.3842 -0.6465
   58MOL0     H 7613   9.677   4.998   4.822 -1.0529 -0.8450 -0.7776
   58MOL0     H 7614   9.479   4.888   4.755  2.8115 -0.0403 -1.6190
   58MOL0     H 7615   9.577   4.769   4.832 -0.1849 -0.1592  3.2616
   58MOL0     H 7616   9.339   4.894   4.956 -1.8257 -0.5674 -1.4261
   58MOL0     H 7617   9.439   4.767   5.035  2.2037  0.4305 -0.9511
   58MOL0     H 7618   9.159   4.586   4.724  3.1085 -0.7091  0.5570
   58MOL0     H 7619   8.958   4.494   4.796 -1.3040  0.6930 -0.1825
   58MOL0     H 7620   8.690   4.493   5.360 -1.1953 -0.6773  1.5474
   58MOL0     H 7621   8.470   4.371   5.426  0.0270  0.9113 -0.0623
   58MOL0     H 7622   8.302   4.239   5.445  0.3022  0.6528 -1.0994
   58MOL0     H 7623   8.382   4.098   5.482  2.0335  1.9488 -0.8461
   58MOL0     H 7624   8.213   3.949   5.350  2.4645 -0.8801  2.0338
   58MOL0     H 7625   8.120   4.088   5.319 -0.0599  2.2519  1.3724
   58MOL0     H 7626   8.111   4.139   5.572 -0.5643 -0.4306  0.8827
   58MOL0     H 7627   8.167   3.976   5.594  1.0887 -0.2088 -0.2460
   58MOL0     H 7628   7.913   3.981   5.600 -1.7374  0.7793 -0.1411
   58MOL0     H 7629   7.923   4.044   5.435 -0.1293 -0.4744  0.0762
   58MOL0     H 7630   7.997   3.768   5.540  1.8041  1.8368  1.4599
   58MOL0     H 7631   8.061   3.831   5.383 -0.4191  2.3673 -0.3017
   58MOL0     H 7632   7.864   3.683   5.342 -2.1752 -0.7152 -0.4474
   58MOL0     H 7633   7.837   3.845   5.292  0.2483 -1.9038 -2.3584
   58MOL0     H 7634   7.726   3.733   5.565 -1.2321  1.8411  1.6648
   58MOL0     H 7635   7.656   3.866   5.463  1.0071  0.9937 -1.8725
   58MOL0     H 7636   7.636   3.573   5.386  1.6729  0.6543 -0.5621
   58MOL0     H 7637   7.618   3.712   5.281 -0.5067  1.2279  0.2141
   58MOL0     H 7638   8.567   4.095   5.109 -0.2043 -0.5488  1.1293
   58MOL0     H 7639   8.763   4.213   5.062 -2.3385 -0.0899 -2.0522
   58MOL0     H 7640   9.040   4.609   5.206 -0.6455  0.6168  0.3847
   58MOL0     H 7641   9.224   4.715   5.128 -3.3991 -0.2700  2.4635
   58MOL0     H 7642  10.406   5.798   5.519 -1.1012 -1.1217  1.3456
   58MOL0     H 7643  10.643   5.856   5.564 -2.0117  1.9548 -0.9659
   58MOL0     H 7644  11.028   5.821   5.779  0.0265 -0.2100 -0.1955
   58MOL0     H 7645  11.241   5.905   5.877 -1.3442 -1.4422 -0.8817
   58MOL0     H 7646  11.449   6.051   5.969  1.6345 -1.8640  0.6136
   58MOL0     H 7647  11.373   5.913   6.030 -0.6916  0.4211  0.9005
   58MOL0     H 7648  11.506   6.157   6.166  1.9135 -0.8947  1.7960
   58MOL0     H 7649  11.426   6.032   6.267  1.6769 -2.9970  0.6553
   58MOL0     H 7650  11.644   5.956   6.081 -0.7388  1.0935 -0.4677
   58MOL0     H 7651  11.589   5.880   6.238  0.2198  0.5378 -0.1880
   58MOL0     H 7652  11.674   6.087   6.366  4.2032 -0.1397  2.7205
   58MOL0     H 7653  11.787   5.975   6.291 -1.2381  0.7754  3.4278
   58MOL0     H 7654  11.859   6.305   6.052 -0.5600  1.6827  1.8422
   58MOL0     H 7655  11.036   6.166   6.143 -0.6406  1.5792  0.1033
   58MOL0     H 7656  10.813   6.093   6.033  1.4453  1.3490  2.7913
   59MOL0     O 7657   9.428   0.524  10.416 -0.2919 -0.5318  0.2770
   59MOL0     C 7658   9.480   0.412  10.400  0.3034  0.5547 -1.2903
   59MOL0     O 7659   9.461   0.306  10.478  0.1345 -0.4442 -0.0153
   59MOL0     C 7660   9.366   0.306  10.577  0.1609 -0.3815  0.3480
   59MOL0     C 7661   9.324   0.415  10.665 -0.4762  0.4611  1.0671
   59MOL0     C 7662   9.219   0.390  10.744 -0.4722  0.6673 -0.2960
   59MOL0     C 7663   9.167   0.268  10.764  0.5141  0.5364 -0.9537
   59MOL0     O 7664   9.063   0.224  10.845 -0.2908 -0.2183 -0.0300
   59MOL0     C 7665   9.018   0.314  10.948  0.6119 -0.1391 -0.1053
   59MOL0     C 7666   8.915   0.243  11.047  0.2437 -0.1073  0.3922
   59MOL0     C 7667   8.860   0.328  11.163 -0.0859 -0.7784 -0.2388
   59MOL0     C 7668   8.970   0.383  11.245  0.8753 -0.7458  0.4496
   59MOL0     C 7669   8.936   0.383  11.398 -0.6871 -0.5096 -0.4984
   59MOL0     C 7670   8.829   0.482  11.445  0.3851 -0.5522  0.0644
   59MOL0     C 7671   8.807   0.457  11.600 -0.2477 -0.6713 -0.3560
   59MOL0     C 7672   8.706   0.565  11.648  0.6470 -0.0105  0.0074
   59MOL0     N 7673   8.658   0.531  11.782 -0.0115 -0.3136  0.3998
   59MOL0     C 7674   8.698   0.601  11.896  0.0304 -0.2657 -0.5255
   59MOL0     C 7675   8.622   0.558  11.998  0.3224  0.3157  0.0556
   59MOL0     C 7676   8.638   0.602  12.147 -0.3337  0.5097  0.1871
   59MOL0     C 7677   8.508   0.628  12.216  0.2758 -1.1102  0.0631
   59MOL0     C 7678   8.432   0.506  12.272 -0.0115  0.3493 -1.2862
   59MOL0     C 7679   8.314   0.541  12.372 -0.1738 -0.6772 -0.7396
   59MOL0     O 7680   8.242   0.423  12.415 -0.3791 -0.2139  0.5562
   59MOL0     C 7681   8.130   0.379  12.343 -0.6660  0.2932 -0.6889
   59MOL0     C 7682   8.059   0.281  12.406 -0.5236  0.3264  1.1197
   59MOL0     C 7683   7.949   0.223  12.343  0.7325 -0.2792 -0.5722
   59MOL0     C 7684   7.922   0.258  12.211 -0.0095  0.6303  0.7464
   59MOL0     C 7685   7.831   0.172  12.130  1.2236 -0.9592 -0.4880
   59MOL0     O 7686   7.748   0.085  12.198  0.0725 -0.2923  0.5261
   59MOL0     C 7687   7.672  -0.004  12.130 -0.3321  0.2773 -0.8927
   59MOL0     C 7688   7.724  -0.129  12.087 -1.3215  0.1495 -0.5143
   59MOL0     C 7689   7.655  -0.215  12.010  0.4470 -0.4079 -0.1367
   59MOL0     C 7690   7.516  -0.194  11.989  1.1335 -0.4097 -0.1461
   59MOL0     O 7691   7.455  -0.273  11.896  1.0840  0.0025 -0.5354
   59MOL0     C 7692   7.355  -0.371  11.939  0.5228 -1.2320 -0.1694
   59MOL0     C 7693   7.258  -0.433  11.834  0.0661 -0.3222 -0.5181
   59MOL0     C 7694   7.334  -0.507  11.718  0.2542 -0.1615 -0.3929
   59MOL0     C 7695   7.235  -0.587  11.644 -0.1860  0.0732  0.1260
   59MOL0     C 7696   7.299  -0.644  11.515 -0.0629 -0.0814 -0.1895
   59MOL0     C 7697   7.405  -0.749  11.552 -0.7363  0.2929 -0.0466
   59MOL0     C 7698   7.486  -0.803  11.438 -0.0198  0.4365 -0.5131
   59MOL0     C 7699   7.598  -0.905  11.488  0.5030 -0.5690  0.6869
   59MOL0    Cl 7700   7.508  -1.057  11.521  0.8234  0.1877 -0.0837
   59MOL0     C 7701   7.458  -0.078  12.043 -0.5557 -1.5057 -0.0150
   59MOL0     C 7702   7.535   0.009  12.118  0.1604 -0.1905 -0.5190
   59MOL0     O 7703   7.853   0.176  12.007  0.1154  0.1183 -0.9268
   59MOL0     C 7704   7.983   0.368  12.155  0.4520 -0.6613  0.1328
   59MOL0     C 7705   8.097   0.423  12.217 -0.5870 -0.6492  0.4317
   59MOL0     N 7706   8.527   0.472  11.950 -0.3891 -0.4580  0.6736
   59MOL0     N 7707   8.548   0.461  11.819  0.3251  0.0190 -0.0546
   59MOL0     C 7708   9.218   0.166  10.693 -0.8202 -0.6305  0.6975
   59MOL0     C 7709   9.322   0.181  10.594  0.4110 -0.7785 -0.9846
   59MOL0     C 7710   9.588   0.389  10.312  0.1387 -0.1239  0.1392
   59MOL0     C 7711   9.618   0.473  10.211 -0.5010 -0.6187 -0.3303
   59MOL0     C 7712   9.730   0.459  10.122 -0.3383  0.6209 -0.1678
   59MOL0     C 7713   9.812   0.351  10.140 -0.3585  0.6199 -0.5362
   59MOL0     O 7714   9.917   0.316  10.063 -0.8187  1.1116 -0.0637
   59MOL0     C 7715   9.966   0.402   9.955  0.1719  0.4070  0.2173
   59MOL0     C 7716  10.076   0.494  10.009  0.6537  0.6329 -1.1081
   59MOL0     C 7717  10.108   0.603   9.904  0.3855  0.5117  0.2137
   59MOL0     C 7718   9.988   0.692   9.858  0.4652  0.2393  0.3108
   59MOL0     C 7719   9.946   0.650   9.724  0.4326  0.6746  0.2482
   59MOL0     C 7720   9.921   0.602   9.616  0.0386 -0.9781 -0.3466
   59MOL0     C 7721   9.794   0.266  10.253  0.0888  0.8336  0.5496
   59MOL0     C 7722   9.679   0.277  10.330  0.9371  0.3725  0.9313
   59MOL0     H 7723   9.358   0.518  10.652 -1.8365  0.8684  0.6293
   59MOL0     H 7724   9.176   0.478  10.792 -1.8961  0.6343 -1.4382
   59MOL0     H 7725   8.982   0.410  10.910  0.4631  0.2599  1.0068
   59MOL0     H 7726   9.104   0.337  11.011  2.4175 -0.2280 -2.4015
   59MOL0     H 7727   8.962   0.153  11.087  0.6792 -0.0432  0.0414
   59MOL0     H 7728   8.836   0.211  10.978  2.4482 -0.9856 -1.9103
   59MOL0     H 7729   8.797   0.264  11.227  0.3156  0.8081  1.8516
   59MOL0     H 7730   8.808   0.419  11.134  4.8273  2.3486 -0.2515
   59MOL0     H 7731   9.047   0.306  11.252  3.0578  1.4320  4.2095
   59MOL0     H 7732   9.003   0.485  11.221 -0.5558 -0.2100  0.6988
   59MOL0     H 7733   9.027   0.393  11.459 -0.6544 -2.8617 -0.0754
   59MOL0     H 7734   8.906   0.280  11.420  0.4393 -0.3549  2.1421
   59MOL0     H 7735   8.735   0.463  11.392 -2.6061  2.3765  3.7155
   59MOL0     H 7736   8.850   0.588  11.435  0.2527 -0.3405  1.7879
   59MOL0     H 7737   8.743   0.370  11.616 -3.3497  1.3849 -0.7692
   59MOL0     H 7738   8.901   0.466  11.656 -1.5365 -0.2748  1.8757
   59MOL0     H 7739   8.627   0.577  11.573  0.0655 -0.0297  0.6034
   59MOL0     H 7740   8.754   0.661  11.666 -3.9441  2.8388 -1.2578
   59MOL0     H 7741   8.766   0.683  11.914  0.8014 -0.9746 -0.1606
   59MOL0     H 7742   8.698   0.693  12.140  0.7644 -0.2792 -1.0986
   59MOL0     H 7743   8.694   0.524  12.198  0.1168  1.6902  1.5454
   59MOL0     H 7744   8.442   0.678  12.145  0.1858  1.8185  2.0231
   59MOL0     H 7745   8.511   0.709  12.290 -0.1049 -1.8714  0.9333
   59MOL0     H 7746   8.388   0.452  12.188  2.3072 -1.0163 -1.6957
   59MOL0     H 7747   8.490   0.445  12.342 -0.2253  0.8882 -0.6274
   59MOL0     H 7748   8.245   0.615  12.330 -1.4933 -0.9710  0.7908
   59MOL0     H 7749   8.350   0.586  12.465 -0.5360 -0.6706 -0.6001
   59MOL0     H 7750   8.087   0.249  12.507 -3.1230 -0.8726  1.5450
   59MOL0     H 7751   7.911   0.136  12.396  0.8653 -0.4704 -0.7908
   59MOL0     H 7752   7.830  -0.149  12.096 -0.8644  2.5211 -0.0342
   59MOL0     H 7753   7.691  -0.312  11.976  1.1722  0.7593 -3.0434
   59MOL0     H 7754   7.295  -0.312  12.009  0.7187  1.3279 -2.0096
   59MOL0     H 7755   7.396  -0.453  11.998 -1.2726 -1.1540  1.2784
   59MOL0     H 7756   7.194  -0.356  11.791  2.5403  1.0688 -1.9149
   59MOL0     H 7757   7.200  -0.508  11.889  1.6135 -1.1508  0.0548
   59MOL0     H 7758   7.405  -0.572  11.770 -2.7515 -2.6887  0.8781
   59MOL0     H 7759   7.375  -0.431  11.651 -1.1125  0.3432 -0.6959
   59MOL0     H 7760   7.204  -0.672  11.705 -1.3418  1.9773  2.3523
   59MOL0     H 7761   7.139  -0.539  11.622 -2.2881 -4.4083 -1.9600
   59MOL0     H 7762   7.344  -0.570  11.447 -1.4759 -0.1637 -1.2579
   59MOL0     H 7763   7.225  -0.689  11.448  0.9353  2.8464 -3.5806
   59MOL0     H 7764   7.371  -0.835  11.611  0.8938  1.5489  2.9505
   59MOL0     H 7765   7.478  -0.700  11.618  0.4321 -0.0954 -1.0232
   59MOL0     H 7766   7.406  -0.851  11.382 -0.8564 -4.0186  3.8180
   59MOL0     H 7767   7.530  -0.721  11.380 -2.4178  1.5096 -0.9097
   59MOL0     H 7768   7.662  -0.869  11.570  0.9783  2.2041 -0.7654
   59MOL0     H 7769   7.650  -0.925  11.394 -1.5786  0.4451 -0.7633
   59MOL0     H 7770   7.354  -0.056  12.019 -0.5491 -1.9523 -0.4760
   59MOL0     H 7771   7.491   0.095  12.167 -1.1382 -1.3842  0.5049
   59MOL0     H 7772   7.955   0.403  12.056  0.5050 -0.5966  0.1402
   59MOL0     H 7773   8.157   0.498  12.166 -2.4266  1.1452  0.7649
   59MOL0     H 7774   9.190   0.061  10.689  2.7737 -1.6776 -0.9388
   59MOL0     H 7775   9.353   0.093  10.538 -1.7507 -2.9124  0.9488
   59MOL0     H 7776   9.548   0.554  10.196  1.5195  1.5001  0.9024
   59MOL0     H 7777   9.731   0.514  10.028 -0.1457 -0.1835 -0.6464
   59MOL0     H 7778   9.890   0.469   9.913 -0.8362  0.2657  1.7511
   59MOL0     H 7779  10.019   0.350   9.874  1.1258  1.4164  0.1716
   59MOL0     H 7780  10.047   0.552  10.097  2.0015 -0.4610  0.1165
   59MOL0     H 7781  10.164   0.432  10.028  0.8876  1.7005  1.7959
   59MOL0     H 7782  10.149   0.541   9.824  0.0719 -0.6694  0.9436
   59MOL0     H 7783  10.178   0.677   9.945 -1.8896  1.6955  2.2301
   59MOL0     H 7784   9.904   0.688   9.927 -0.7199  1.7058 -0.9742
   59MOL0     H 7785  10.024   0.795   9.852  1.1399  0.0054  0.1970
   59MOL0     H 7786   9.891   0.584   9.514  0.8813 -3.3557 -0.2248
   59MOL0     H 7787   9.861   0.181  10.255 -0.7332 -0.0595 -3.2141
   59MOL0     H 7788   9.648   0.193  10.391  0.0006 -1.0738 -1.3650
   60MOL0     O 7789  11.076  11.064   7.124 -0.8651 -0.3124 -0.3332
   60MOL0     C 7790  11.047  11.059   7.245  0.5518 -0.0061  0.6863
   60MOL0     O 7791  11.139  11.064   7.355  0.0942  0.1728  0.9864
   60MOL0     C 7792  11.272  11.049   7.322 -0.5140 -0.4820  0.0757
   60MOL0     C 7793  11.327  11.152   7.255 -0.5361  0.4441  1.4654
   60MOL0     C 7794  11.467  11.167   7.233  0.0104 -0.6339  0.2452
   60MOL0     C 7795  11.554  11.065   7.290  0.6284 -0.3367  0.2555
   60MOL0     O 7796  11.689  11.058   7.271  0.2290  0.6348  0.0867
   60MOL0     C 7797  11.752  11.160   7.196  0.3248  0.2563  0.2204
   60MOL0     C 7798  11.790  11.282   7.272  0.4623 -0.3966  0.0106
   60MOL0     C 7799  11.910  11.359   7.220  0.3247  0.1771  0.4466
   60MOL0     C 7800  12.038  11.343   7.295  0.5098  0.4170 -0.3255
   60MOL0     C 7801  12.072  11.190   7.307 -0.1620 -0.4561  0.0013
   60MOL0     C 7802  12.206  11.171   7.380  0.2505  0.1458  0.7325
   60MOL0     C 7803  12.204  11.197   7.538 -0.8743  0.1001  0.8836
   60MOL0     C 7804  12.346  11.224   7.586  0.2842 -0.1774  0.3759
   60MOL0     N 7805  12.413  11.345   7.534  1.0886  0.3179 -0.0186
   60MOL0     C 7806  12.369  11.474   7.529  0.1906 -0.0750  0.2529
   60MOL0     C 7807  12.458  11.538   7.451 -0.6801 -1.3416  0.2295
   60MOL0     C 7808  12.457  11.673   7.387  0.7729 -0.3536 -0.5115
   60MOL0     C 7809  12.419  11.786   7.475 -0.4286 -0.9675  0.0934
   60MOL0     C 7810  12.490  11.806   7.606 -0.4284 -0.5884 -0.3797
   60MOL0     C 7811  12.640  11.839   7.594 -0.2691  0.2650 -0.2992
   60MOL0     O 7812  12.713  11.723   7.562 -0.3092 -0.4866  0.1524
   60MOL0     C 7813  12.854  11.732   7.554  0.7311 -0.6657  0.3954
   60MOL0     C 7814  12.921  11.842   7.600 -1.1329  0.2361 -1.2466
   60MOL0     C 7815  13.064  11.831   7.591 -0.2375 -0.3450 -0.8628
   60MOL0     C 7816  13.138  11.723   7.528  0.0156 -0.5477  0.5293
   60MOL0     C 7817  13.283  11.718   7.516  0.1920 -0.0577 -0.2100
   60MOL0     O 7818  13.340  11.847   7.531  0.5846  0.7067 -0.5682
   60MOL0     C 7819  13.471  11.865   7.512  0.5277  0.7174  0.1243
   60MOL0     C 7820  13.560  11.882   7.619  0.0369  0.6399 -0.1235
   60MOL0     C 7821  13.696  11.901   7.599 -0.4089  0.5798  0.4350
   60MOL0     C 7822  13.750  11.920   7.470  1.2829 -0.3232  0.7123
   60MOL0     O 7823  13.878  11.944   7.457  0.3584 -0.5032  0.1761
   60MOL0     C 7824  13.927  12.059   7.385  0.2001 -0.5687 -0.0198
   60MOL0     C 7825  14.075  12.072   7.414 -0.3711 -0.8523 -0.4189
   60MOL0     C 7826  14.157  11.963   7.345  0.3670  0.7026 -0.0247
   60MOL0     C 7827  14.309  11.994   7.352  0.6100 -1.2009 -0.2550
   60MOL0     C 7828  14.394  11.872   7.377 -0.0180  0.0309 -0.1118
   60MOL0     C 7829  14.373  11.827   7.518 -0.6726 -0.6403 -0.8201
   60MOL0     C 7830  14.485  11.723   7.553  0.0751  0.2584 -0.4822
   60MOL0     C 7831  14.461  11.671   7.700  0.1087 -0.1353 -0.5906
   60MOL0    Cl 7832  14.625  11.678   7.780  0.2227 -0.1941 -0.2621
   60MOL0     C 7833  13.666  11.896   7.360  0.2591  0.1349  0.2312
   60MOL0     C 7834  13.529  11.867   7.380 -0.0601 -0.3546  0.6979
   60MOL0     O 7835  13.339  11.617   7.483 -0.2617 -0.7369 -0.0370
   60MOL0     C 7836  13.053  11.628   7.469  1.1065  0.0517 -0.3101
   60MOL0     C 7837  12.916  11.626   7.486 -0.0752 -0.5415  0.7512
   60MOL0     N 7838  12.546  11.449   7.395 -0.6019 -0.5343 -0.2704
   60MOL0     N 7839  12.521  11.338   7.456  0.9967 -0.4138  0.7838
   60MOL0     C 7840  11.491  10.956   7.358 -0.1693  0.4237  1.1862
   60MOL0     C 7841  11.355  10.950   7.374 -0.4839  0.1311  0.6099
   60MOL0     C 7842  10.905  11.019   7.267  0.9096  1.2437 -0.6147
   60MOL0     C 7843  10.820  10.976   7.151 -0.1256  0.1945 -0.0729
   60MOL0     C 7844  10.682  10.977   7.161  0.2505  0.5337  0.2977
   60MOL0     C 7845  10.619  11.003   7.279  0.2784  0.0980  0.6589
   60MOL0     O 7846  10.485  11.020   7.284 -0.5208  0.8375  0.0597
   60MOL0     C 7847  10.418  10.990   7.414 -0.2361  0.5382  0.1841
   60MOL0     C 7848  10.283  10.930   7.374  0.8043  0.1252  0.1591
   60MOL0     C 7849  10.207  10.909   7.511 -0.2950  0.7835  0.0662
   60MOL0     C 7850  10.072  10.826   7.506 -0.1122  0.5300  0.7120
   60MOL0     C 7851   9.991  10.883   7.394 -0.3189  0.0434 -0.8599
   60MOL0     C 7852   9.930  10.931   7.309  0.2618 -0.6462 -0.7146
   60MOL0     C 7853  10.699  11.035   7.394  1.0249  0.4075  0.9109
   60MOL0     C 7854  10.838  11.034   7.388  0.2480 -0.0888 -0.4575
   60MOL0     H 7855  11.259  11.227   7.215 -2.2604 -2.5048 -1.6953
   60MOL0     H 7856  11.511  11.247   7.175 -0.5607  0.5828  1.4210
   60MOL0     H 7857  11.711  11.199   7.102  0.0736 -3.0247 -1.1477
   60MOL0     H 7858  11.842  11.117   7.152 -0.2537  1.2194 -2.0400
   60MOL0     H 7859  11.813  11.251   7.374  2.9730 -2.1888 -0.9975
   60MOL0     H 7860  11.700  11.345   7.279 -0.3949 -1.6111  0.1095
   60MOL0     H 7861  11.883  11.465   7.220 -0.3364  0.0304  2.0722
   60MOL0     H 7862  11.926  11.334   7.114  2.3147 -0.2042  0.7941
   60MOL0     H 7863  12.116  11.395   7.239 -0.5962 -0.1031 -2.4389
   60MOL0     H 7864  12.028  11.387   7.395 -1.6625 -1.4418  0.3766
   60MOL0     H 7865  12.086  11.149   7.206  2.0273 -0.6415  0.3214
   60MOL0     H 7866  11.994  11.126   7.349  2.3517 -4.4673 -0.9327
   60MOL0     H 7867  12.270  11.248   7.335 -1.7567  1.7055  0.3986
   60MOL0     H 7868  12.248  11.071   7.367  0.8491  0.3502  1.0586
   60MOL0     H 7869  12.156  11.287   7.577  0.9173  0.9086  1.3388
   60MOL0     H 7870  12.176  11.113   7.602  0.2173 -0.9636  0.0107
   60MOL0     H 7871  12.409  11.139   7.558  1.5746  0.3635  1.5069
   60MOL0     H 7872  12.345  11.226   7.696  4.5420 -0.7254  0.5706
   60MOL0     H 7873  12.284  11.528   7.567 -1.4926 -1.3703 -1.4696
   60MOL0     H 7874  12.392  11.665   7.299 -4.1858 -1.6493  2.8631
   60MOL0     H 7875  12.560  11.691   7.353  1.4274 -1.8157  0.6137
   60MOL0     H 7876  12.312  11.790   7.493 -0.4435 -0.5249 -0.0995
   60MOL0     H 7877  12.445  11.868   7.408 -1.1531  0.1588  1.1383
   60MOL0     H 7878  12.448  11.887   7.667 -3.1818 -3.2953  1.6152
   60MOL0     H 7879  12.483  11.721   7.674  2.5719  1.3953  2.7163
   60MOL0     H 7880  12.674  11.873   7.692  2.0703 -0.5782 -0.7482
   60MOL0     H 7881  12.663  11.906   7.511  0.4181  2.5300  1.6061
   60MOL0     H 7882  12.878  11.928   7.650  1.4429  0.3537  0.9849
   60MOL0     H 7883  13.115  11.914   7.639  2.4844 -2.7692  0.7461
   60MOL0     H 7884  13.528  11.885   7.722 -0.9311 -1.7526 -0.2958
   60MOL0     H 7885  13.765  11.931   7.678  1.8817  1.0443 -1.6112
   60MOL0     H 7886  13.879  12.150   7.423  1.8397 -0.0369  0.8789
   60MOL0     H 7887  13.927  12.047   7.277 -0.6586  3.6150 -0.6653
   60MOL0     H 7888  14.082  12.073   7.523 -3.7531 -2.1351 -0.0592
   60MOL0     H 7889  14.121  12.166   7.382  1.4576 -0.8039  2.0771
   60MOL0     H 7890  14.139  11.964   7.237 -0.1116 -0.6882  0.0191
   60MOL0     H 7891  14.132  11.863   7.381 -0.6650 -0.2472 -3.1097
   60MOL0     H 7892  14.340  12.040   7.258 -1.2274  2.1204  0.5684
   60MOL0     H 7893  14.332  12.059   7.437  0.8567 -0.5975 -0.7688
   60MOL0     H 7894  14.502  11.885   7.363  0.5220 -1.2861  2.3580
   60MOL0     H 7895  14.359  11.788   7.317 -1.2589 -1.0052  1.9848
   60MOL0     H 7896  14.276  11.779   7.537  0.9720 -2.6832  4.0594
   60MOL0     H 7897  14.379  11.905   7.595 -0.8371 -2.5288  1.2237
   60MOL0     H 7898  14.478  11.647   7.475 -5.0848 -0.2677  0.0931
   60MOL0     H 7899  14.583  11.772   7.549 -0.3040  1.1329  0.4688
   60MOL0     H 7900  14.415  11.572   7.688  0.0928 -0.3546  1.1477
   60MOL0     H 7901  14.393  11.745   7.742 -0.3268 -0.7047 -0.2742
   60MOL0     H 7902  13.695  11.911   7.257  3.4763  0.9488  1.1443
   60MOL0     H 7903  13.456  11.861   7.300 -0.2468  1.4089  0.6966
   60MOL0     H 7904  13.102  11.539   7.432  3.2071  0.0492  2.2280
   60MOL0     H 7905  12.858  11.544   7.444  0.0429  0.5628 -1.7570
   60MOL0     H 7906  11.550  10.874   7.397 -0.5464 -0.2119  0.4570
   60MOL0     H 7907  11.317  10.873   7.440  0.8515 -1.8389 -0.8072
   60MOL0     H 7908  10.870  10.968   7.055  2.0436  1.0606  0.9199
   60MOL0     H 7909  10.621  10.953   7.074 -2.5463  0.7528  2.0738
   60MOL0     H 7910  10.418  11.082   7.474 -1.1412  0.2653  0.6260
   60MOL0     H 7911  10.468  10.910   7.468  2.7638  2.2303  0.1462
   60MOL0     H 7912  10.227  10.992   7.304 -1.0015  2.0061  3.0879
   60MOL0     H 7913  10.300  10.831   7.331 -2.6239 -1.1767  1.5093
   60MOL0     H 7914  10.179  11.001   7.562 -1.4475  0.9947 -0.9000
   60MOL0     H 7915  10.274  10.857   7.580 -2.8085 -0.4132  1.7717
   60MOL0     H 7916  10.096  10.726   7.470  1.7866  0.8125  1.0938
   60MOL0     H 7917  10.024  10.814   7.604 -0.6892 -4.5708  0.1029
   60MOL0     H 7918   9.864  10.975   7.236 -1.0091 -2.0590 -0.4675
   60MOL0     H 7919  10.655  11.068   7.488 -3.3604 -5.4139  1.4850
   60MOL0     H 7920  10.890  11.079   7.472 -0.3738  0.0692 -0.1570
   61MOL0     O 7921  10.090   7.775   5.334  0.6251 -0.3050 -0.7968
   61MOL0     C 7922  10.143   7.718   5.238 -0.2977  0.2169 -0.0136
   61MOL0     O 7923  10.077   7.655   5.135 -0.0578 -0.1925 -0.2917
   61MOL0     C 7924   9.939   7.651   5.134  0.0905 -0.7920  0.3526
   61MOL0     C 7925   9.866   7.558   5.207 -1.0527  0.1263 -0.8295
   61MOL0     C 7926   9.731   7.552   5.215 -0.0856 -0.6702  0.5704
   61MOL0     C 7927   9.656   7.649   5.149 -0.4320  0.5916 -0.5633
   61MOL0     O 7928   9.524   7.666   5.162  0.0124 -0.1384  0.6989
   61MOL0     C 7929   9.458   7.717   5.040  0.9013  0.2746  0.2761
   61MOL0     C 7930   9.309   7.666   5.052  0.1736 -0.5490 -0.0998
   61MOL0     C 7931   9.221   7.778   4.978  0.3276 -0.4495 -0.3242
   61MOL0     C 7932   9.204   7.731   4.836 -0.2650 -0.5112  0.4335
   61MOL0     C 7933   9.097   7.799   4.753 -0.4914 -0.2136 -0.2599
   61MOL0     C 7934   9.114   7.955   4.748  0.3538  0.0686  0.6495
   61MOL0     C 7935   8.994   8.018   4.663 -0.3047 -0.6038 -0.1423
   61MOL0     C 7936   8.976   8.173   4.682  0.5941  0.2285 -0.4539
   61MOL0     N 7937   8.838   8.207   4.657  0.4662  0.2905 -0.0765
   61MOL0     C 7938   8.783   8.208   4.530 -0.7514  0.3578  0.3907
   61MOL0     C 7939   8.661   8.266   4.553  0.0114  0.4725  0.3877
   61MOL0     C 7940   8.578   8.297   4.429 -0.3371 -0.2983  0.4844
   61MOL0     C 7941   8.433   8.288   4.458 -0.4040  0.8463  0.2007
   61MOL0     C 7942   8.350   8.290   4.322 -0.5872 -0.1634  0.0717
   61MOL0     C 7943   8.203   8.338   4.350 -0.2796  0.3394  1.4806
   61MOL0     O 7944   8.142   8.226   4.421  0.0754  0.0630 -0.0555
   61MOL0     C 7945   8.008   8.213   4.433 -0.6047 -0.2031  0.3488
   61MOL0     C 7946   7.923   8.195   4.328  0.0555  0.0429 -0.2669
   61MOL0     C 7947   7.784   8.186   4.354  0.2672  0.7935  0.4842
   61MOL0     C 7948   7.724   8.206   4.482 -0.5792 -0.1309  0.9257
   61MOL0     C 7949   7.581   8.205   4.504  0.1027 -0.5327 -0.3735
   61MOL0     O 7950   7.540   8.224   4.632 -0.0790 -0.4820 -0.1294
   61MOL0     C 7951   7.400   8.232   4.660  0.2830  0.7263 -0.2062
   61MOL0     C 7952   7.306   8.140   4.607 -0.4709  0.3806 -0.1270
   61MOL0     C 7953   7.169   8.162   4.626 -0.1258  0.7850  0.6349
   61MOL0     C 7954   7.115   8.252   4.718  0.1981  0.0454  0.1019
   61MOL0     O 7955   6.986   8.272   4.751  0.3685  0.8168 -0.7687
   61MOL0     C 7956   6.896   8.167   4.708  0.0242 -0.6281 -0.4694
   61MOL0     C 7957   6.759   8.187   4.795  0.5584 -0.2537  0.1596
   61MOL0     C 7958   6.662   8.069   4.797 -0.8141 -0.4311  0.8959
   61MOL0     C 7959   6.539   8.120   4.863 -0.1160 -0.9353 -0.2799
   61MOL0     C 7960   6.425   8.012   4.849 -0.4329 -0.0167  0.2087
   61MOL0     C 7961   6.308   8.037   4.946 -0.2576 -0.0834  1.3618
   61MOL0     C 7962   6.186   7.949   4.910  0.4266 -0.3000  0.2867
   61MOL0     C 7963   6.058   8.010   4.974 -0.5483  0.1618 -0.5321
   61MOL0    Cl 7964   5.912   7.927   4.909 -0.2858  0.3531  0.3554
   61MOL0     C 7965   7.212   8.335   4.784 -0.8213 -1.0359 -0.0348
   61MOL0     C 7966   7.352   8.322   4.756  0.1899 -0.2104 -0.1032
   61MOL0     O 7967   7.513   8.194   4.400  0.4316 -0.8437 -0.1678
   61MOL0     C 7968   7.822   8.244   4.577  0.0591  0.4547 -1.0329
   61MOL0     C 7969   7.955   8.235   4.559  0.1972  0.7569  0.5910
   61MOL0     N 7970   8.640   8.292   4.691 -0.9265  0.2416 -0.2546
   61MOL0     N 7971   8.745   8.243   4.750 -0.1361 -0.1780  0.3363
   61MOL0     C 7972   9.724   7.745   5.072 -1.4032 -0.9290 -0.7964
   61MOL0     C 7973   9.865   7.742   5.059  0.5395  0.1904 -0.0034
   61MOL0     C 7974  10.290   7.704   5.248 -0.3918  0.0510  0.3364
   61MOL0     C 7975  10.360   7.733   5.367  0.7041 -1.2348  1.2045
   61MOL0     C 7976  10.504   7.732   5.370  0.2138  0.1258 -0.6694
   61MOL0     C 7977  10.576   7.695   5.262  0.1297 -0.4436  0.5810
   61MOL0     O 7978  10.709   7.696   5.291  0.4303 -0.5015 -1.3975
   61MOL0     C 7979  10.787   7.618   5.200  0.2461  0.3612 -0.2867
   61MOL0     C 7980  10.931   7.618   5.226 -0.4712  1.5758 -0.6459
   61MOL0     C 7981  10.985   7.615   5.373 -0.1379  0.5896 -0.6772
   61MOL0     C 7982  11.133   7.586   5.369  0.6055 -0.1814 -0.4538
   61MOL0     C 7983  11.189   7.704   5.300  0.5274 -0.3174  0.1488
   61MOL0     C 7984  11.248   7.807   5.263  0.3777  1.1633 -0.6760
   61MOL0     C 7985  10.511   7.652   5.141 -0.4222 -0.7494 -0.9722
   61MOL0     C 7986  10.369   7.665   5.138 -0.0848  1.0799  0.0964
   61MOL0     H 7987   9.917   7.490   5.276 -1.7590  0.8733  0.4782
   61MOL0     H 7988   9.682   7.490   5.289 -1.0278 -0.8881 -0.2177
   61MOL0     H 7989   9.498   7.670   4.949 -1.2290 -1.4282  0.1656
   61MOL0     H 7990   9.476   7.825   5.033  2.5479 -0.0176 -0.5310
   61MOL0     H 7991   9.282   7.662   5.158 -2.4752  1.4080 -0.6020
   61MOL0     H 7992   9.291   7.572   5.000 -1.4736 -0.1852 -0.2379
   61MOL0     H 7993   9.270   7.876   4.970  0.5323 -0.5403 -0.2091
   61MOL0     H 7994   9.136   7.801   5.042  1.6741  0.7405  1.1281
   61MOL0     H 7995   9.299   7.758   4.788 -0.8323  2.7360  0.8814
   61MOL0     H 7996   9.173   7.627   4.829 -0.5113 -0.3288 -2.7444
   61MOL0     H 7997   9.003   7.769   4.801 -0.9327  2.4346  0.6860
   61MOL0     H 7998   9.093   7.763   4.650  0.3592 -2.1353  0.3278
   61MOL0     H 7999   9.209   7.982   4.700 -0.0379 -2.7648 -2.0894
   61MOL0     H 8000   9.110   7.990   4.851  4.5353 -0.8617  1.3214
   61MOL0     H 8001   9.019   8.004   4.558  0.1852  1.1164 -0.2878
   61MOL0     H 8002   8.898   7.969   4.680 -0.4851 -0.4624 -0.7213
   61MOL0     H 8003   9.035   8.239   4.618 -1.2577  2.9164  0.4673
   61MOL0     H 8004   8.994   8.189   4.789 -3.1354 -4.9116  1.3459
   61MOL0     H 8005   8.825   8.197   4.430 -0.3691 -0.7522  0.6498
   61MOL0     H 8006   8.600   8.230   4.345  0.1861  1.7960 -1.1485
   61MOL0     H 8007   8.600   8.397   4.391 -3.1663 -0.4131 -1.8233
   61MOL0     H 8008   8.406   8.369   4.526  0.2711  2.3827 -1.2815
   61MOL0     H 8009   8.406   8.195   4.508  0.4423  1.1296  1.2329
   61MOL0     H 8010   8.410   8.353   4.256 -0.0543 -3.7042 -3.0906
   61MOL0     H 8011   8.340   8.194   4.271 -3.3085  0.5240 -0.8232
   61MOL0     H 8012   8.151   8.356   4.256  3.3399 -2.0709 -1.2950
   61MOL0     H 8013   8.212   8.429   4.410 -0.7879  1.6731 -0.3577
   61MOL0     H 8014   7.969   8.203   4.230 -1.1812 -0.0106 -0.8752
   61MOL0     H 8015   7.720   8.183   4.266  2.8513  0.2114 -1.5285
   61MOL0     H 8016   7.344   8.066   4.538  1.2136 -1.2419  2.3761
   61MOL0     H 8017   7.104   8.089   4.579  2.2200  0.3230 -2.1773
   61MOL0     H 8018   6.942   8.073   4.738  0.6382 -0.0617  0.4315
   61MOL0     H 8019   6.876   8.169   4.601 -3.9520  1.1864  0.0900
   61MOL0     H 8020   6.704   8.272   4.754 -2.9924 -0.8795  3.1085
   61MOL0     H 8021   6.788   8.223   4.894 -0.5530 -1.0140  0.7757
   61MOL0     H 8022   6.693   7.977   4.847  0.5817  0.1051  1.0679
   61MOL0     H 8023   6.660   8.036   4.693  0.3305  0.5996  0.5227
   61MOL0     H 8024   6.569   8.146   4.965 -0.3856 -2.8473  0.3164
   61MOL0     H 8025   6.496   8.211   4.820 -1.9697 -0.4441  2.3463
   61MOL0     H 8026   6.470   7.913   4.853 -0.6716 -0.1915 -0.9273
   61MOL0     H 8027   6.383   8.028   4.748  1.6635  0.9576 -0.5603
   61MOL0     H 8028   6.280   8.143   4.949 -1.2453 -0.1658 -1.5592
   61MOL0     H 8029   6.341   8.018   5.049  3.5578  0.7091  0.4387
   61MOL0     H 8030   6.184   7.949   4.801 -1.9446 -0.3792  0.2712
   61MOL0     H 8031   6.202   7.849   4.950  0.6891  0.2147  1.5433
   61MOL0     H 8032   6.045   8.118   4.964 -2.1675  0.0057 -0.4721
   61MOL0     H 8033   6.075   7.993   5.080 -0.2265 -1.0271 -0.7591
   61MOL0     H 8034   7.179   8.418   4.845  0.9104  1.5443 -2.4024
   61MOL0     H 8035   7.424   8.385   4.807 -0.0005  0.8401 -1.0978
   61MOL0     H 8036   7.795   8.276   4.677  0.8771 -0.6552 -0.4382
   61MOL0     H 8037   8.021   8.244   4.645 -0.5628  1.1404  1.1484
   61MOL0     H 8038   9.677   7.828   5.021  1.2397  0.7105 -0.7826
   61MOL0     H 8039   9.916   7.810   4.991 -2.0595  0.1928 -2.0937
   61MOL0     H 8040  10.306   7.766   5.455  1.1357 -3.3279  2.3010
   61MOL0     H 8041  10.559   7.757   5.460 -0.5001 -2.8946  0.7223
   61MOL0     H 8042  10.770   7.644   5.095 -0.9301 -1.2087 -0.5251
   61MOL0     H 8043  10.747   7.516   5.196 -0.8661  0.8021 -0.7782
   61MOL0     H 8044  10.979   7.532   5.179  1.7720  1.7459  1.1608
   61MOL0     H 8045  10.971   7.708   5.178  1.6429  1.7630  1.2882
   61MOL0     H 8046  10.934   7.527   5.414 -0.2797  1.6134  1.4556
   61MOL0     H 8047  10.952   7.694   5.441 -1.2391 -1.9919  1.9870
   61MOL0     H 8048  11.173   7.571   5.470 -0.9063 -1.7170 -0.0358
   61MOL0     H 8049  11.144   7.493   5.312 -0.6297 -1.6537  1.5951
   61MOL0     H 8050  11.313   7.884   5.228  0.2559  2.2100  1.2804
   61MOL0     H 8051  10.565   7.634   5.049  0.1992 -0.1362 -0.7321
   61MOL0     H 8052  10.310   7.645   5.049 -1.9859 -2.7310  1.9840
   62MOL0     O 8053  10.134   2.711   4.375  0.4376  0.6042  0.5980
   62MOL0     C 8054  10.197   2.793   4.447 -0.8508 -0.3705 -0.1802
   62MOL0     O 8055  10.149   2.860   4.559  0.1687 -0.3217 -0.0218
   62MOL0     C 8056  10.032   2.814   4.607 -0.0445 -0.7443 -0.5763
   62MOL0     C 8057   9.915   2.885   4.578  0.5884  0.5423 -0.0426
   62MOL0     C 8058   9.792   2.839   4.637 -0.6474 -0.5792  0.2654
   62MOL0     C 8059   9.781   2.723   4.715  0.2718  0.3956 -0.6384
   62MOL0     O 8060   9.661   2.688   4.762  0.1521 -0.1368 -0.1481
   62MOL0     C 8061   9.583   2.598   4.682 -0.5656  0.5287  0.1268
   62MOL0     C 8062   9.442   2.562   4.740 -0.5081 -0.3611 -0.0474
   62MOL0     C 8063   9.439   2.534   4.894 -0.1456  0.1332  0.1064
   62MOL0     C 8064   9.306   2.482   4.939  0.1502  0.1895  0.6422
   62MOL0     C 8065   9.320   2.434   5.087 -0.3322 -0.1702  0.2178
   62MOL0     C 8066   9.193   2.395   5.155 -0.2026 -1.0328 -0.2482
   62MOL0     C 8067   9.227   2.306   5.275  0.5455 -0.2904  0.0445
   62MOL0     C 8068   9.244   2.377   5.416 -0.9220 -0.9536  0.8934
   62MOL0     N 8069   9.273   2.274   5.515 -0.2115 -0.5676  0.4781
   62MOL0     C 8070   9.392   2.204   5.546  0.6246 -0.2117 -0.0942
   62MOL0     C 8071   9.362   2.124   5.649  0.0490  0.4277  0.0142
   62MOL0     C 8072   9.459   2.036   5.730 -0.1458 -0.3084  0.3078
   62MOL0     C 8073   9.583   1.983   5.650 -0.0747 -0.7414 -0.1677
   62MOL0     C 8074   9.696   1.957   5.750  0.1110 -0.2760  0.2374
   62MOL0     C 8075   9.822   1.900   5.675  1.1687 -0.5390  0.6229
   62MOL0     O 8076   9.784   1.804   5.576  1.0549 -0.2391 -0.6500
   62MOL0     C 8077   9.889   1.729   5.533 -0.2699 -0.1549 -1.0068
   62MOL0     C 8078  10.002   1.798   5.479  0.0421  0.5935  0.4117
   62MOL0     C 8079  10.104   1.725   5.427  0.0561 -0.4501 -0.6192
   62MOL0     C 8080  10.109   1.585   5.438  0.6620 -0.6284  0.0815
   62MOL0     C 8081  10.232   1.511   5.400  0.3750 -0.3396  0.7801
   62MOL0     O 8082  10.332   1.557   5.316 -0.1702 -0.6715 -0.5254
   62MOL0     C 8083  10.439   1.479   5.281  0.4823 -0.4442 -0.0787
   62MOL0     C 8084  10.572   1.518   5.291  0.0858 -0.2935 -0.3173
   62MOL0     C 8085  10.671   1.431   5.244 -1.0455  0.5400  0.6556
   62MOL0     C 8086  10.651   1.294   5.195 -0.4784 -0.5396 -0.4753
   62MOL0     O 8087  10.755   1.212   5.169  0.0618 -0.0163 -0.1096
   62MOL0     C 8088  10.747   1.103   5.085  0.6092  0.3585 -0.1481
   62MOL0     C 8089  10.871   1.018   5.085  0.1813  0.1147  0.3045
   62MOL0     C 8090  11.005   1.096   5.040  1.0038  0.2060  0.4921
   62MOL0     C 8091  11.077   1.150   5.173  0.4849 -0.5097 -0.1520
   62MOL0     C 8092  11.222   1.190   5.153 -0.7952  0.6519  0.5269
   62MOL0     C 8093  11.312   1.072   5.119  0.4114  0.2995  0.0163
   62MOL0     C 8094  11.459   1.107   5.129 -0.4193  0.5561 -1.0010
   62MOL0     C 8095  11.520   1.146   4.998  0.9446  0.2933  0.5743
   62MOL0    Cl 8096  11.559   1.333   4.980  0.4752  0.4885 -0.0260
   62MOL0     C 8097  10.518   1.260   5.179 -0.6058  0.3581 -0.5328
   62MOL0     C 8098  10.425   1.354   5.212  0.0095 -0.6637 -0.5763
   62MOL0     O 8099  10.235   1.396   5.436  0.5657  0.4087 -0.2423
   62MOL0     C 8100  10.008   1.523   5.493 -0.7366  0.4759  0.4854
   62MOL0     C 8101   9.892   1.591   5.537 -1.1582  0.2166  0.4452
   62MOL0     N 8102   9.232   2.139   5.678 -0.3185 -0.3680  0.0515
   62MOL0     N 8103   9.181   2.224   5.599  0.0563 -0.7677  1.2736
   62MOL0     C 8104   9.905   2.653   4.743 -0.2363  0.2833  0.7141
   62MOL0     C 8105  10.034   2.697   4.686  0.9537 -0.1233 -0.0049
   62MOL0     C 8106  10.323   2.850   4.399 -0.2097 -0.6898 -0.9787
   62MOL0     C 8107  10.349   2.852   4.260 -0.1381  0.5573 -0.1892
   62MOL0     C 8108  10.458   2.919   4.202  0.3344  0.4408  1.0894
   62MOL0     C 8109  10.555   2.979   4.283 -0.2635 -0.2312 -0.0322
   62MOL0     O 8110  10.670   3.044   4.253  0.2489 -0.2608 -0.1132
   62MOL0     C 8111  10.702   3.045   4.112 -0.1925  0.3934  0.0108
   62MOL0     C 8112  10.834   3.122   4.104 -0.0410 -0.3285 -0.2350
   62MOL0     C 8113  10.921   3.095   3.982 -0.2502 -0.4032  0.2644
   62MOL0     C 8114  11.030   3.203   3.965 -0.6769 -0.3850  0.6567
   62MOL0     C 8115  11.117   3.158   3.852 -0.2754  0.3349 -0.1031
   62MOL0     C 8116  11.176   3.122   3.753  1.2519 -0.2248 -1.0011
   62MOL0     C 8117  10.537   2.956   4.416 -0.3805 -0.2737  0.1144
   62MOL0     C 8118  10.425   2.905   4.479  0.6637 -0.2720  0.3004
   62MOL0     H 8119   9.925   2.977   4.521  0.2991 -0.2216 -1.3599
   62MOL0     H 8120   9.699   2.891   4.619 -0.4105  0.3154  1.4675
   62MOL0     H 8121   9.630   2.500   4.682 -2.0538 -0.2220  0.3436
   62MOL0     H 8122   9.574   2.636   4.579  2.9450  0.5221 -0.3050
   62MOL0     H 8123   9.413   2.472   4.686 -0.2787  0.7110 -2.0569
   62MOL0     H 8124   9.381   2.650   4.717 -1.3910 -0.7355  0.7944
   62MOL0     H 8125   9.463   2.629   4.943  2.1583 -0.6738  0.6954
   62MOL0     H 8126   9.522   2.468   4.923  0.1814  0.3254 -0.3839
   62MOL0     H 8127   9.225   2.556   4.933  1.1014  1.1972 -0.2696
   62MOL0     H 8128   9.276   2.395   4.880 -0.0154 -0.4024  1.5854
   62MOL0     H 8129   9.381   2.496   5.154  1.9620 -3.1447  1.1174
   62MOL0     H 8130   9.373   2.339   5.073 -1.6440 -0.5389 -3.2641
   62MOL0     H 8131   9.131   2.337   5.086  0.5489 -2.3373  0.1424
   62MOL0     H 8132   9.135   2.481   5.189  0.0483 -0.4409 -1.2893
   62MOL0     H 8133   9.145   2.238   5.303 -1.9414  2.4441 -0.1014
   62MOL0     H 8134   9.320   2.256   5.249  0.2765  0.6252 -3.0927
   62MOL0     H 8135   9.163   2.443   5.449 -1.4351 -1.3754  0.5032
   62MOL0     H 8136   9.332   2.441   5.411  0.6311 -3.0137 -4.0703
   62MOL0     H 8137   9.492   2.215   5.506  1.1907 -1.8354  0.7874
   62MOL0     H 8138   9.401   1.954   5.774 -1.7330  1.1720  1.0784
   62MOL0     H 8139   9.490   2.098   5.814 -1.3493 -1.4690  1.6527
   62MOL0     H 8140   9.606   2.065   5.581 -1.3314 -0.4806 -0.2921
   62MOL0     H 8141   9.550   1.897   5.593  1.7674 -0.0382 -2.4704
   62MOL0     H 8142   9.725   2.049   5.802 -0.0945 -0.3880  0.5526
   62MOL0     H 8143   9.661   1.880   5.819 -0.8291 -0.0969 -0.0323
   62MOL0     H 8144   9.895   1.868   5.751  3.8121 -0.0156 -1.5355
   62MOL0     H 8145   9.869   1.988   5.631 -0.8550  1.4858  2.2609
   62MOL0     H 8146   9.995   1.906   5.472  1.5720  0.7031  0.2773
   62MOL0     H 8147  10.176   1.778   5.367 -1.4760  3.6852  0.8392
   62MOL0     H 8148  10.594   1.613   5.340 -2.0384 -0.3342  0.8351
   62MOL0     H 8149  10.777   1.452   5.258 -0.2010 -1.6120 -1.7613
   62MOL0     H 8150  10.726   1.142   4.986 -0.4220  1.8105  0.6152
   62MOL0     H 8151  10.668   1.037   5.124  0.7250 -1.2507 -2.4508
   62MOL0     H 8152  10.861   0.930   5.020  0.0952  0.1229  0.3056
   62MOL0     H 8153  10.881   0.967   5.181  3.3518 -2.8248 -1.3399
   62MOL0     H 8154  10.976   1.170   4.965  2.0706 -1.3002 -1.5018
   62MOL0     H 8155  11.067   1.030   4.978 -0.2543  1.3296 -2.0914
   62MOL0     H 8156  11.029   1.244   5.200 -2.5711 -2.3947  1.5628
   62MOL0     H 8157  11.060   1.078   5.254  1.7189  0.3504  0.9254
   62MOL0     H 8158  11.262   1.236   5.244 -1.8529  2.4176  0.1387
   62MOL0     H 8159  11.217   1.269   5.078  0.7242  1.6513  1.4267
   62MOL0     H 8160  11.293   1.037   5.017  1.0500  0.6142 -0.2121
   62MOL0     H 8161  11.275   0.989   5.181  1.4928 -0.5011 -0.3892
   62MOL0     H 8162  11.481   1.191   5.195 -0.7810 -0.3929  0.3793
   62MOL0     H 8163  11.506   1.021   5.179 -3.4559  0.2318  1.5704
   62MOL0     H 8164  11.453   1.126   4.915 -1.8053  1.4023  2.3555
   62MOL0     H 8165  11.616   1.093   5.001  1.5267  1.2951  3.7887
   62MOL0     H 8166  10.487   1.160   5.149 -0.3804  0.7649 -2.1630
   62MOL0     H 8167  10.322   1.328   5.193 -0.3171 -1.1252  1.6065
   62MOL0     H 8168  10.008   1.415   5.493 -2.7227  0.4305 -0.0512
   62MOL0     H 8169   9.801   1.534   5.553 -1.2174  0.1669 -0.0756
   62MOL0     H 8170   9.904   2.567   4.809  0.1751 -1.6182 -1.6145
   62MOL0     H 8171  10.136   2.664   4.706  0.9349 -0.1249  0.0860
   62MOL0     H 8172  10.270   2.812   4.197 -0.9938  0.7008  0.7441
   62MOL0     H 8173  10.465   2.922   4.094 -1.0393  3.0743  1.0015
   62MOL0     H 8174  10.624   3.088   4.049 -0.9078  0.0631  0.6644
   62MOL0     H 8175  10.737   2.947   4.078  5.9611  2.0655  0.2766
   62MOL0     H 8176  10.817   3.229   4.115  0.4948 -0.3308  0.6996
   62MOL0     H 8177  10.900   3.084   4.182  0.5340  0.8261 -0.1455
   62MOL0     H 8178  10.854   3.092   3.896  0.1544 -0.8973 -0.0417
   62MOL0     H 8179  10.977   3.001   3.990  2.5378  1.1692  0.6831
   62MOL0     H 8180  10.987   3.302   3.947  2.7492  1.3175  1.0029
   62MOL0     H 8181  11.096   3.212   4.051  2.6451 -3.6890 -1.2680
   62MOL0     H 8182  11.242   3.092   3.674  1.9195 -1.6874  0.0612
   62MOL0     H 8183  10.604   3.016   4.478 -2.5927  4.0318 -1.2849
   62MOL0     H 8184  10.416   2.909   4.587  1.5460  0.0930  0.3660
   63MOL0     O 8185   3.291   1.365   6.552 -0.1531 -0.2697  0.0338
   63MOL0     C 8186   3.240   1.333   6.659 -0.0344 -0.1548 -0.8392
   63MOL0     O 8187   3.310   1.330   6.778 -0.1184 -0.5626 -0.6133
   63MOL0     C 8188   3.437   1.383   6.791 -0.0157  0.8481  0.8220
   63MOL0     C 8189   3.523   1.320   6.877  0.1402  0.5286 -0.7978
   63MOL0     C 8190   3.645   1.375   6.899 -0.4164  0.0542 -0.3474
   63MOL0     C 8191   3.688   1.485   6.830  0.0214 -0.2720 -0.4827
   63MOL0     O 8192   3.812   1.530   6.870 -0.1634 -0.7945  0.5948
   63MOL0     C 8193   3.904   1.549   6.760  0.7763  0.7246  0.7597
   63MOL0     C 8194   4.042   1.551   6.821  0.4069 -0.2314  0.4032
   63MOL0     C 8195   4.144   1.597   6.706  0.4236 -0.2036  0.0676
   63MOL0     C 8196   4.282   1.624   6.766  0.3653 -0.9800 -0.0886
   63MOL0     C 8197   4.378   1.685   6.667 -0.3490 -1.0032 -0.0974
   63MOL0     C 8198   4.438   1.571   6.582  0.7399 -0.6345 -0.0238
   63MOL0     C 8199   4.559   1.610   6.492 -0.0505  0.4204  0.1773
   63MOL0     C 8200   4.536   1.716   6.385  1.1755 -0.0513  0.1505
   63MOL0     N 8201   4.668   1.747   6.327  0.2976 -0.1503 -0.3898
   63MOL0     C 8202   4.735   1.684   6.216  0.5198 -1.0436 -0.1229
   63MOL0     C 8203   4.865   1.729   6.208  0.2057  0.4432  0.8335
   63MOL0     C 8204   4.974   1.675   6.117 -1.2419 -0.4721 -0.3179
   63MOL0     C 8205   5.063   1.570   6.192 -0.4185 -0.2384 -0.0883
   63MOL0     C 8206   5.149   1.621   6.299  0.0374 -0.4250  0.0620
   63MOL0     C 8207   5.234   1.518   6.368 -0.0598 -1.2039 -0.4997
   63MOL0     O 8208   5.176   1.400   6.426  0.0953 -0.1054  0.6331
   63MOL0     C 8209   5.075   1.405   6.524  0.1164  0.4805  1.4479
   63MOL0     C 8210   5.029   1.520   6.585 -0.4732  0.2625  0.2550
   63MOL0     C 8211   4.919   1.519   6.675  0.8625 -0.2426  0.2247
   63MOL0     C 8212   4.847   1.403   6.696 -0.1322 -0.2754  0.0781
   63MOL0     C 8213   4.725   1.404   6.788  0.1070  0.7245 -0.4105
   63MOL0     O 8214   4.715   1.286   6.860 -0.1162 -0.4003  0.2214
   63MOL0     C 8215   4.664   1.300   6.991  1.0706  0.3181 -1.6837
   63MOL0     C 8216   4.600   1.190   7.046 -0.6484  0.2355  0.2966
   63MOL0     C 8217   4.541   1.181   7.175 -0.3523 -0.3869 -0.5783
   63MOL0     C 8218   4.543   1.295   7.256  0.0279 -0.0206  0.5585
   63MOL0     O 8219   4.487   1.283   7.377  0.0897  0.2104  0.6332
   63MOL0     C 8220   4.401   1.391   7.414  0.0465  0.2531 -0.3469
   63MOL0     C 8221   4.333   1.360   7.545 -0.1710  0.3749 -0.6229
   63MOL0     C 8222   4.224   1.462   7.567  0.2195  0.1674 -1.2281
   63MOL0     C 8223   4.138   1.437   7.691 -0.8165  0.3308  0.2062
   63MOL0     C 8224   4.018   1.530   7.705  0.7023 -0.1648  0.0320
   63MOL0     C 8225   3.954   1.507   7.847 -0.1087 -0.7841 -0.2258
   63MOL0     C 8226   3.823   1.590   7.850  0.0294 -1.2622 -0.0035
   63MOL0     C 8227   3.758   1.577   7.985  0.2351 -0.4629  0.3718
   63MOL0    Cl 8228   3.588   1.617   7.970 -0.0403 -0.0727 -0.1208
   63MOL0     C 8229   4.614   1.407   7.212 -0.5504  0.7908 -0.2916
   63MOL0     C 8230   4.666   1.416   7.081  0.2895 -0.2813 -0.6281
   63MOL0     O 8231   4.663   1.509   6.813 -0.2662 -1.2174 -0.0268
   63MOL0     C 8232   4.901   1.286   6.644  0.3224 -0.0713 -1.1532
   63MOL0     C 8233   5.007   1.286   6.552 -0.1592 -0.3779 -0.5137
   63MOL0     N 8234   4.876   1.830   6.301 -0.3118 -0.7266 -0.0196
   63MOL0     N 8235   4.764   1.831   6.372 -0.0560 -0.2931  0.1633
   63MOL0     C 8236   3.604   1.543   6.734 -0.4298 -0.0385 -1.0135
   63MOL0     C 8237   3.473   1.494   6.729  0.0023 -0.3991  0.7137
   63MOL0     C 8238   3.099   1.287   6.660 -0.5678  0.5825  0.9166
   63MOL0     C 8239   3.021   1.288   6.545 -0.3576 -0.1207  0.4560
   63MOL0     C 8240   2.891   1.242   6.550 -0.8996 -0.5262  0.0811
   63MOL0     C 8241   2.834   1.200   6.670  1.1734 -0.4225 -0.4700
   63MOL0     O 8242   2.700   1.175   6.683 -0.1626 -0.3222  0.4166
   63MOL0     C 8243   2.634   1.104   6.791 -0.2196 -0.3654 -0.2312
   63MOL0     C 8244   2.481   1.124   6.794 -0.1502 -0.9664 -0.9424
   63MOL0     C 8245   2.405   1.050   6.682  0.9909  0.5980 -0.5748
   63MOL0     C 8246   2.252   1.024   6.726 -0.6861  0.1201 -0.2793
   63MOL0     C 8247   2.192   1.152   6.734  0.3823 -0.2975 -1.3946
   63MOL0     C 8248   2.141   1.267   6.736 -0.1123 -0.1555  0.4372
   63MOL0     C 8249   2.918   1.187   6.783  0.2962 -1.0888  0.0960
   63MOL0     C 8250   3.052   1.227   6.775  1.2053 -0.2078  0.1554
   63MOL0     H 8251   3.487   1.226   6.917 -0.4606 -0.0028 -2.4897
   63MOL0     H 8252   3.709   1.330   6.975 -1.2562  2.9477  2.2690
   63MOL0     H 8253   3.875   1.644   6.714 -0.6182 -0.2910 -0.5503
   63MOL0     H 8254   3.902   1.469   6.685  4.2141  3.2647 -2.4491
   63MOL0     H 8255   4.063   1.453   6.865  2.2330  0.5981  1.5062
   63MOL0     H 8256   4.035   1.625   6.901  0.7157 -1.7658  1.8874
   63MOL0     H 8257   4.095   1.683   6.658  0.4415  0.1594  0.6933
   63MOL0     H 8258   4.149   1.519   6.629  2.2422  0.4248 -0.4955
   63MOL0     H 8259   4.267   1.695   6.849  0.7820 -2.5050  1.3514
   63MOL0     H 8260   4.328   1.534   6.806  0.5104 -0.1412  1.7613
   63MOL0     H 8261   4.461   1.720   6.730 -0.4842 -0.6542 -0.1090
   63MOL0     H 8262   4.341   1.774   6.615  0.8725 -0.0069  0.6792
   63MOL0     H 8263   4.352   1.527   6.530  1.5470 -0.7395 -1.3146
   63MOL0     H 8264   4.470   1.486   6.644 -1.2901 -1.8762 -0.5834
   63MOL0     H 8265   4.636   1.642   6.563  0.0412 -1.5717  1.0434
   63MOL0     H 8266   4.606   1.522   6.447 -0.6217  0.6128 -0.8152
   63MOL0     H 8267   4.488   1.799   6.438 -2.4872 -2.8286  1.7142
   63MOL0     H 8268   4.473   1.675   6.305  2.5984  0.4363 -1.2513
   63MOL0     H 8269   4.674   1.622   6.152 -0.0220 -0.8984  0.2452
   63MOL0     H 8270   5.032   1.758   6.077 -0.8972 -2.2045 -3.7581
   63MOL0     H 8271   4.930   1.626   6.030 -0.2949  0.5633 -1.4065
   63MOL0     H 8272   5.141   1.529   6.128  1.0134  0.0659  1.3899
   63MOL0     H 8273   5.005   1.485   6.229  1.9574 -2.0254 -0.2348
   63MOL0     H 8274   5.220   1.690   6.252  1.6883 -2.5073 -0.6157
   63MOL0     H 8275   5.090   1.686   6.365 -2.0026 -2.2501  0.1149
   63MOL0     H 8276   5.286   1.569   6.450  1.5753 -5.5204  1.4360
   63MOL0     H 8277   5.315   1.490   6.300  2.2025 -0.9787  1.9232
   63MOL0     H 8278   5.086   1.611   6.572  1.5805 -0.4754  3.0493
   63MOL0     H 8279   4.889   1.610   6.726  2.2623 -1.1281  2.8774
   63MOL0     H 8280   4.583   1.110   6.975  0.7114  1.3958 -1.4204
   63MOL0     H 8281   4.497   1.091   7.217  1.0604 -0.9301 -0.2076
   63MOL0     H 8282   4.324   1.401   7.337 -2.2193 -3.1362  1.2308
   63MOL0     H 8283   4.472   1.471   7.435  2.4172 -2.2921  2.1681
   63MOL0     H 8284   4.408   1.371   7.624  1.2678  0.8171 -2.0040
   63MOL0     H 8285   4.299   1.258   7.528  0.4743 -0.0723  0.6704
   63MOL0     H 8286   4.150   1.499   7.495 -3.3875  1.9578  2.9011
   63MOL0     H 8287   4.282   1.551   7.593  1.5732 -1.5187  2.1913
   63MOL0     H 8288   4.101   1.334   7.690  1.0229 -0.3752 -0.0406
   63MOL0     H 8289   4.202   1.449   7.780  0.8572 -1.1609 -0.7306
   63MOL0     H 8290   3.940   1.505   7.632  1.6800  0.8201 -1.4115
   63MOL0     H 8291   4.043   1.636   7.699 -1.9335  0.7330  2.6381
   63MOL0     H 8292   4.030   1.548   7.913  0.7566  3.7086 -3.4683
   63MOL0     H 8293   3.943   1.399   7.863  0.2811 -0.8460 -0.3676
   63MOL0     H 8294   3.837   1.698   7.833 -2.3493 -0.5994  1.6343
   63MOL0     H 8295   3.758   1.551   7.772 -1.7031 -0.3674  0.9505
   63MOL0     H 8296   3.812   1.646   8.051  1.4375  0.7701 -1.7910
   63MOL0     H 8297   3.762   1.475   8.025  0.0884 -0.0528  1.4712
   63MOL0     H 8298   4.630   1.496   7.272  0.6955  0.9045 -0.7661
   63MOL0     H 8299   4.705   1.513   7.051 -1.2321  1.1118  1.6483
   63MOL0     H 8300   4.857   1.191   6.673  1.5956 -0.1875  0.5311
   63MOL0     H 8301   5.040   1.194   6.505 -1.5867 -0.8858 -0.5648
   63MOL0     H 8302   3.648   1.621   6.673  1.2447  2.2011  2.7209
   63MOL0     H 8303   3.401   1.542   6.663  2.2270 -1.2096 -2.5433
   63MOL0     H 8304   3.057   1.319   6.447 -0.5470 -1.3935 -0.0358
   63MOL0     H 8305   2.829   1.264   6.464  1.1526  0.9329 -1.0974
   63MOL0     H 8306   2.684   1.148   6.878  1.3931 -1.4183 -0.5828
   63MOL0     H 8307   2.661   0.998   6.790  1.1958 -0.0224 -0.4947
   63MOL0     H 8308   2.450   1.090   6.894  0.7661  0.4605 -0.1353
   63MOL0     H 8309   2.460   1.231   6.785 -0.3080 -1.0922 -2.2550
   63MOL0     H 8310   2.451   0.951   6.683 -2.3489 -1.1207  0.4234
   63MOL0     H 8311   2.404   1.095   6.583 -1.8437  0.2055 -0.8183
   63MOL0     H 8312   2.211   0.970   6.640  4.0307  0.5772 -3.1879
   63MOL0     H 8313   2.243   0.974   6.824 -0.7165  2.2656  0.8597
   63MOL0     H 8314   2.091   1.362   6.737  1.9422  1.0024 -0.1756
   63MOL0     H 8315   2.881   1.148   6.877 -1.9910 -1.5025 -0.9075
   63MOL0     H 8316   3.113   1.211   6.863  0.2211  0.0103  0.9016
   64MOL0     O 8317  10.354   0.338   6.151 -0.9447  0.0303 -0.0960
   64MOL0     C 8318  10.448   0.384   6.215  0.6073  0.9570 -0.0263
   64MOL0     O 8319  10.431   0.451   6.327  0.7468  0.1249 -0.4809
   64MOL0     C 8320  10.306   0.482   6.374  0.8063  0.2986 -0.5264
   64MOL0     C 8321  10.207   0.380   6.386 -0.2996  0.3046 -0.5991
   64MOL0     C 8322  10.076   0.406   6.438 -0.3495  0.4973 -0.4595
   64MOL0     C 8323  10.051   0.535   6.474  1.1802 -1.0755 -0.3242
   64MOL0     O 8324   9.926   0.571   6.527 -0.5423  0.1841 -0.3636
   64MOL0     C 8325   9.817   0.534   6.448 -0.7409 -0.3854 -0.1127
   64MOL0     C 8326   9.708   0.637   6.463  0.9897  0.3599 -0.0137
   64MOL0     C 8327   9.599   0.602   6.365 -0.3476  0.3738  0.6781
   64MOL0     C 8328   9.476   0.696   6.367  0.2986  0.2864 -0.0443
   64MOL0     C 8329   9.381   0.637   6.463 -0.3001 -0.3633 -0.0087
   64MOL0     C 8330   9.263   0.731   6.485 -0.2300  0.1109 -0.6914
   64MOL0     C 8331   9.156   0.659   6.571  0.1735 -0.2077  0.1003
   64MOL0     C 8332   9.074   0.773   6.630  0.4541  0.0096  0.1555
   64MOL0     N 8333   8.991   0.860   6.533  0.1545 -0.0999 -0.5410
   64MOL0     C 8334   8.871   0.806   6.489 -0.1284  0.9176 -0.1833
   64MOL0     C 8335   8.813   0.917   6.426 -0.7497  0.2064  0.6495
   64MOL0     C 8336   8.675   0.935   6.360  0.1549 -0.0842 -0.1363
   64MOL0     C 8337   8.581   0.814   6.403  0.7371  0.1248  0.1592
   64MOL0     C 8338   8.444   0.849   6.343 -0.3547  0.3746 -0.3241
   64MOL0     C 8339   8.342   0.745   6.386  0.2513 -0.1062 -0.8613
   64MOL0     O 8340   8.313   0.754   6.531  0.4158  0.8581  0.5274
   64MOL0     C 8341   8.195   0.712   6.579 -0.3552  0.1193 -0.8713
   64MOL0     C 8342   8.099   0.640   6.506  0.4060 -0.5061 -0.0098
   64MOL0     C 8343   7.972   0.611   6.555 -0.3278  0.3068 -0.2997
   64MOL0     C 8344   7.937   0.642   6.693  0.1398  0.1532 -0.0583
   64MOL0     C 8345   7.805   0.591   6.756  0.3256  0.4017  0.5269
   64MOL0     O 8346   7.720   0.532   6.657 -0.2995 -0.2622 -0.2374
   64MOL0     C 8347   7.599   0.470   6.670  1.1411 -0.9863  0.2894
   64MOL0     C 8348   7.544   0.443   6.798 -0.7540  0.3632 -0.1580
   64MOL0     C 8349   7.425   0.385   6.807  0.3479 -0.1569 -0.2757
   64MOL0     C 8350   7.354   0.348   6.691  0.7835 -1.5080  0.2408
   64MOL0     O 8351   7.244   0.272   6.683  0.5545  0.2063 -0.0804
   64MOL0     C 8352   7.148   0.291   6.795 -0.7764  0.2226  0.0427
   64MOL0     C 8353   7.078   0.427   6.757 -0.2457 -0.9700  0.2516
   64MOL0     C 8354   6.945   0.444   6.830  0.4301 -0.1837  0.3385
   64MOL0     C 8355   6.869   0.568   6.815  0.3996  0.2572  0.0129
   64MOL0     C 8356   6.739   0.573   6.886 -0.1422 -0.3124  0.4112
   64MOL0     C 8357   6.752   0.592   7.033  0.4326  0.1472 -0.3288
   64MOL0     C 8358   6.616   0.592   7.100 -1.0638  0.0628  0.1139
   64MOL0     C 8359   6.552   0.726   7.107  0.4537 -0.7497 -0.1972
   64MOL0    Cl 8360   6.400   0.706   7.211 -0.4018  0.4531  0.1802
   64MOL0     C 8361   7.407   0.385   6.566  0.8957  0.1564 -0.4499
   64MOL0     C 8362   7.533   0.446   6.555  0.5865 -0.6911  0.3631
   64MOL0     O 8363   7.779   0.621   6.869  0.0059  0.1394 -0.5719
   64MOL0     C 8364   8.030   0.710   6.765  0.0795  0.3174  0.1824
   64MOL0     C 8365   8.164   0.738   6.714 -0.7053  0.0180 -0.8414
   64MOL0     N 8366   8.899   1.020   6.430 -0.9071  0.1689 -0.0252
   64MOL0     N 8367   9.014   0.987   6.481  1.0267 -0.4499  1.4318
   64MOL0     C 8368  10.148   0.645   6.461 -0.6213  0.1075  0.1486
   64MOL0     C 8369  10.276   0.613   6.416  0.4839 -0.6473 -0.2881
   64MOL0     C 8370  10.578   0.367   6.179  0.0624 -0.0781  0.9960
   64MOL0     C 8371  10.680   0.439   6.235  0.0134  0.0145 -0.4888
   64MOL0     C 8372  10.816   0.426   6.193 -0.5246 -0.5184 -0.6972
   64MOL0     C 8373  10.843   0.347   6.084 -0.0440 -0.3006 -0.7209
   64MOL0     O 8374  10.975   0.330   6.035  0.6704 -0.0385  0.1668
   64MOL0     C 8375  11.024   0.452   5.972 -1.0355  0.6648  0.3213
   64MOL0     C 8376  11.130   0.507   6.053  1.1600  0.7543 -0.0774
   64MOL0     C 8377  11.252   0.421   6.077 -0.4007  0.0315  0.3382
   64MOL0     C 8378  11.347   0.478   6.185 -0.4364 -0.2246  0.1294
   64MOL0     C 8379  11.470   0.398   6.203 -0.7539 -0.0213 -0.8976
   64MOL0     C 8380  11.579   0.337   6.199  0.6394 -1.0051  0.8572
   64MOL0     C 8381  10.742   0.273   6.024  0.3450  0.7221  0.4818
   64MOL0     C 8382  10.606   0.292   6.064 -0.2570 -1.0211 -0.2823
   64MOL0     H 8383  10.234   0.277   6.364 -0.1747  0.5148 -1.4363
   64MOL0     H 8384  10.001   0.327   6.439 -0.2446  0.3196 -2.5575
   64MOL0     H 8385   9.765   0.443   6.480 -3.1924  0.3199 -1.7944
   64MOL0     H 8386   9.851   0.514   6.346  1.2635  0.4093  0.3462
   64MOL0     H 8387   9.740   0.741   6.450 -2.8775  1.5099 -1.9428
   64MOL0     H 8388   9.662   0.639   6.562 -1.1029  0.5723 -0.9212
   64MOL0     H 8389   9.570   0.502   6.400  0.9927 -0.5912 -0.7980
   64MOL0     H 8390   9.636   0.595   6.263 -1.4253  2.0708  0.1313
   64MOL0     H 8391   9.510   0.799   6.385 -1.0214  1.1606 -2.1329
   64MOL0     H 8392   9.427   0.706   6.270  0.1049  0.4974  0.0731
   64MOL0     H 8393   9.433   0.613   6.556 -3.0614 -3.6684  0.8865
   64MOL0     H 8394   9.340   0.544   6.424 -1.6643 -0.6329  1.8999
   64MOL0     H 8395   9.221   0.773   6.392  0.1549 -0.2391 -1.0275
   64MOL0     H 8396   9.304   0.812   6.546  2.1509 -3.8883  3.6873
   64MOL0     H 8397   9.106   0.594   6.498 -0.6622  1.3397 -0.7432
   64MOL0     H 8398   9.201   0.604   6.654 -3.2008 -0.3388  1.9919
   64MOL0     H 8399   9.145   0.831   6.690  0.3077  0.1390  0.2040
   64MOL0     H 8400   9.005   0.731   6.704 -0.0081  0.0130 -0.2659
   64MOL0     H 8401   8.841   0.704   6.506  0.9217  0.7479  0.7816
   64MOL0     H 8402   8.678   0.939   6.250 -2.8012  1.1043 -0.2895
   64MOL0     H 8403   8.615   1.023   6.386 -4.2471 -2.4568 -1.1250
   64MOL0     H 8404   8.578   0.819   6.512 -2.7874 -0.7995  0.2449
   64MOL0     H 8405   8.609   0.715   6.363  1.4536 -0.0038  0.9533
   64MOL0     H 8406   8.410   0.952   6.361  1.7377  1.0154  0.1506
   64MOL0     H 8407   8.459   0.838   6.235 -0.5170  0.9993 -0.4164
   64MOL0     H 8408   8.386   0.650   6.354  0.5147 -0.7341  1.2461
   64MOL0     H 8409   8.253   0.770   6.327  0.3514 -0.6953 -1.2723
   64MOL0     H 8410   8.103   0.624   6.399 -2.0897  0.6086 -0.3410
   64MOL0     H 8411   7.912   0.549   6.489  1.6369 -1.5317 -0.4522
   64MOL0     H 8412   7.615   0.464   6.877 -1.1714  1.4270 -0.0409
   64MOL0     H 8413   7.384   0.342   6.898 -0.8151  0.7939 -0.3223
   64MOL0     H 8414   7.194   0.301   6.894  0.5513 -0.2225 -0.5100
   64MOL0     H 8415   7.081   0.204   6.792 -1.6759  0.9013 -3.4289
   64MOL0     H 8416   7.048   0.435   6.652 -0.8335 -1.5809  0.3682
   64MOL0     H 8417   7.144   0.505   6.795  0.9327 -1.9534  0.2962
   64MOL0     H 8418   6.976   0.437   6.935  0.1079  1.4491  0.5653
   64MOL0     H 8419   6.877   0.360   6.812 -0.3847  0.1679  1.6259
   64MOL0     H 8420   6.929   0.656   6.839 -2.6332  2.8750 -1.1671
   64MOL0     H 8421   6.845   0.564   6.708  0.2040 -1.9507  0.0974
   64MOL0     H 8422   6.695   0.475   6.866  1.0302 -0.8888  0.5549
   64MOL0     H 8423   6.677   0.656   6.851  0.4811  1.4538  3.2056
   64MOL0     H 8424   6.805   0.687   7.042 -0.3129  0.6787 -1.3286
   64MOL0     H 8425   6.812   0.510   7.073 -0.1212 -0.2126 -0.2335
   64MOL0     H 8426   6.552   0.526   7.040  0.9371  1.5361 -4.0418
   64MOL0     H 8427   6.617   0.548   7.200 -0.0366  2.6031  1.3206
   64MOL0     H 8428   6.533   0.772   7.009 -0.1397  2.0663  1.1350
   64MOL0     H 8429   6.611   0.790   7.174 -1.3468  0.7514  0.0412
   64MOL0     H 8430   7.360   0.357   6.472  0.0717 -2.3993  0.6374
   64MOL0     H 8431   7.553   0.469   6.451 -1.2521 -0.6384 -0.0164
   64MOL0     H 8432   8.018   0.751   6.864  1.6792 -1.0540  1.0022
   64MOL0     H 8433   8.243   0.775   6.779 -0.4281 -0.8897 -0.6509
   64MOL0     H 8434  10.127   0.750   6.480 -0.0367  0.2115  0.2498
   64MOL0     H 8435  10.365   0.673   6.403  0.9245 -1.3556 -0.6040
   64MOL0     H 8436  10.664   0.504   6.320  1.0766  0.3153 -0.5018
   64MOL0     H 8437  10.894   0.480   6.244 -1.1718  2.0878 -2.3203
   64MOL0     H 8438  10.950   0.531   5.953  0.4066  1.5529 -1.9317
   64MOL0     H 8439  11.048   0.411   5.874  1.2498  1.0230  0.6877
   64MOL0     H 8440  11.158   0.604   6.009  1.4986  0.7314  0.0817
   64MOL0     H 8441  11.086   0.535   6.148  3.5198 -4.0097  2.7890
   64MOL0     H 8442  11.309   0.410   5.984  1.3788  0.8345  1.2905
   64MOL0     H 8443  11.211   0.324   6.105 -2.8941  0.7156 -0.6075
   64MOL0     H 8444  11.379   0.575   6.146 -0.1341 -1.1047 -1.9554
   64MOL0     H 8445  11.298   0.485   6.283 -0.8916  0.5363 -0.1449
   64MOL0     H 8446  11.670   0.280   6.194  0.5441 -1.1901  1.1820
   64MOL0     H 8447  10.760   0.207   5.940 -0.3951  2.2827 -0.9630
   64MOL0     H 8448  10.529   0.237   6.011  0.7983 -2.3768 -0.4569
   65MOL0     O 8449   2.384   1.165   6.302 -0.6760 -0.1744 -0.1167
   65MOL0     C 8450   2.424   1.075   6.233 -0.1201  1.0716 -0.2190
   65MOL0     O 8451   2.349   0.967   6.189  0.6102 -0.4556  0.5721
   65MOL0     C 8452   2.228   0.937   6.237  0.4207 -0.0830  0.7486
   65MOL0     C 8453   2.175   0.837   6.159 -0.0462  0.6665  0.2410
   65MOL0     C 8454   2.045   0.791   6.191 -0.4893 -0.0163  0.3154
   65MOL0     C 8455   1.972   0.843   6.298 -0.0593  0.3178 -1.1961
   65MOL0     O 8456   1.849   0.806   6.339 -0.0600  0.3169  0.6914
   65MOL0     C 8457   1.755   0.895   6.292 -0.0525 -0.4938  0.8213
   65MOL0     C 8458   1.615   0.832   6.326  1.4555 -0.4356  0.4739
   65MOL0     C 8459   1.497   0.925   6.276 -0.0409  0.2891  0.4331
   65MOL0     C 8460   1.496   0.959   6.136 -0.8722 -0.0251  0.4551
   65MOL0     C 8461   1.366   1.009   6.081  0.7965  0.2208 -0.7191
   65MOL0     C 8462   1.354   1.027   5.930  0.9026  0.2613 -1.1282
   65MOL0     C 8463   1.209   1.053   5.889 -1.5174  0.3029  0.9297
   65MOL0     C 8464   1.116   0.936   5.910  0.4136 -0.5605  0.1865
   65MOL0     N 8465   0.982   0.971   5.881 -0.6929 -1.3145 -0.4236
   65MOL0     C 8466   0.895   0.882   5.833 -0.1733  0.1278 -0.3996
   65MOL0     C 8467   0.772   0.943   5.825  0.9280 -0.2774 -0.3175
   65MOL0     C 8468   0.643   0.892   5.750  0.0934  0.0325 -0.8351
   65MOL0     C 8469   0.528   0.993   5.776 -0.1465  0.0523  0.1623
   65MOL0     C 8470   0.418   0.973   5.673 -0.1683  1.1984 -0.6494
   65MOL0     C 8471   0.296   1.057   5.712  0.6245 -0.2421 -0.0114
   65MOL0     O 8472   0.187   1.024   5.625 -0.6191  0.3235 -0.4609
   65MOL0     C 8473   0.065   1.079   5.641  0.1639  0.3957 -0.2803
   65MOL0     C 8474  -0.016   1.095   5.524 -0.2238 -0.8666 -0.5071
   65MOL0     C 8475  -0.152   1.135   5.548  0.0528 -0.0151 -0.5486
   65MOL0     C 8476  -0.198   1.160   5.682 -0.7731 -0.1259 -0.0851
   65MOL0     C 8477  -0.317   1.236   5.716  0.1143 -0.6298  0.2636
   65MOL0     O 8478  -0.366   1.317   5.616 -0.7108 -0.2069 -0.0496
   65MOL0     C 8479  -0.471   1.397   5.639 -0.4298  0.0308 -0.2599
   65MOL0     C 8480  -0.603   1.369   5.632  0.1351 -0.0902  0.1675
   65MOL0     C 8481  -0.697   1.469   5.647 -0.7209 -0.0134  0.1270
   65MOL0     C 8482  -0.656   1.594   5.688  0.0226 -0.1065 -1.0270
   65MOL0     O 8483  -0.761   1.681   5.721 -0.7632 -0.5048 -0.0977
   65MOL0     C 8484  -0.761   1.807   5.657  0.7763 -1.0062 -0.2757
   65MOL0     C 8485  -0.845   1.903   5.729 -0.5219 -0.8521  0.5601
   65MOL0     C 8486  -0.991   1.891   5.687  0.0832 -0.5004  0.6700
   65MOL0     C 8487  -1.092   1.982   5.767  0.3299  0.3223 -0.7571
   65MOL0     C 8488  -1.113   1.943   5.916 -0.2848 -0.6684  0.5046
   65MOL0     C 8489  -1.232   2.018   5.977 -0.0913 -0.4974 -0.1061
   65MOL0     C 8490  -1.240   2.001   6.127  0.5870 -0.4548 -0.2644
   65MOL0     C 8491  -1.349   2.097   6.189 -0.4169  0.3586  0.2255
   65MOL0    Cl 8492  -1.493   2.119   6.080  0.7656 -0.0454 -0.1083
   65MOL0     C 8493  -0.525   1.627   5.703  0.4165 -0.3405 -0.0558
   65MOL0     C 8494  -0.434   1.526   5.692 -0.9038 -0.3207  1.1147
   65MOL0     O 8495  -0.364   1.226   5.837  0.3768 -0.8224  0.1689
   65MOL0     C 8496  -0.116   1.117   5.786  0.4645 -0.3780 -0.6998
   65MOL0     C 8497   0.014   1.086   5.770 -0.8818 -0.1550 -0.2592
   65MOL0     N 8498   0.794   1.068   5.891 -0.9205  0.0052 -0.0035
   65MOL0     N 8499   0.922   1.090   5.912 -0.2807  0.5069 -0.3550
   65MOL0     C 8500   2.035   0.938   6.380 -0.0245 -0.0291 -0.3622
   65MOL0     C 8501   2.168   0.978   6.350  0.2207 -0.8235 -0.8836
   65MOL0     C 8502   2.571   1.080   6.190  0.3178 -0.5803 -0.4064
   65MOL0     C 8503   2.646   1.194   6.218  0.2256  0.3832  0.1693
   65MOL0     C 8504   2.778   1.209   6.187  0.8696 -0.4210 -0.2293
   65MOL0     C 8505   2.851   1.098   6.134  0.1377 -0.1525 -0.2823
   65MOL0     O 8506   2.990   1.107   6.098  0.3288 -0.4503 -0.3481
   65MOL0     C 8507   3.053   1.230   6.126 -1.0919  0.0886  0.5429
   65MOL0     C 8508   3.203   1.213   6.107  0.2987 -0.5123 -0.7366
   65MOL0     C 8509   3.284   1.303   6.196 -0.1223 -0.1005  0.0653
   65MOL0     C 8510   3.421   1.316   6.128 -0.4298 -0.4022 -0.3285
   65MOL0     C 8511   3.484   1.184   6.128  0.8312 -0.3586 -0.1047
   65MOL0     C 8512   3.540   1.076   6.120 -0.3005  0.4669 -0.9326
   65MOL0     C 8513   2.781   0.981   6.101  0.5362 -1.1320 -0.4555
   65MOL0     C 8514   2.639   0.969   6.136 -0.3192 -0.3583 -0.3972
   65MOL0     H 8515   2.226   0.792   6.074 -3.0015 -1.1546 -0.7189
   65MOL0     H 8516   2.000   0.717   6.126  2.5326  0.0496 -2.1271
   65MOL0     H 8517   1.759   0.906   6.183 -0.5392  2.1139  0.9996
   65MOL0     H 8518   1.760   0.997   6.330 -1.8682  1.1138 -2.7443
   65MOL0     H 8519   1.610   0.812   6.434 -2.6058  0.7232  0.6635
   65MOL0     H 8520   1.613   0.735   6.277  0.6879 -0.6290  0.8780
   65MOL0     H 8521   1.490   1.016   6.337 -4.0101  0.6423 -0.2880
   65MOL0     H 8522   1.404   0.872   6.300  0.1345 -0.2212 -0.0019
   65MOL0     H 8523   1.575   1.024   6.099 -1.5740 -1.6327 -4.6727
   65MOL0     H 8524   1.523   0.862   6.093 -1.1781 -0.0984  0.4197
   65MOL0     H 8525   1.342   1.101   6.134  1.3759 -0.4293  0.7006
   65MOL0     H 8526   1.307   0.923   6.115  0.4002  1.0607  0.7659
   65MOL0     H 8527   1.382   0.939   5.873  0.2541  0.8029 -2.3066
   65MOL0     H 8528   1.416   1.110   5.894 -0.2139  0.0271 -3.8058
   65MOL0     H 8529   1.185   1.146   5.942  1.2470  1.1536  0.8694
   65MOL0     H 8530   1.225   1.072   5.782  2.8444  1.1198  1.5086
   65MOL0     H 8531   1.119   0.916   6.018 -0.1945  4.4296  1.3631
   65MOL0     H 8532   1.143   0.840   5.865 -1.4985 -0.7003 -0.7466
   65MOL0     H 8533   0.929   0.785   5.798 -0.7337 -0.5860  0.9527
   65MOL0     H 8534   0.621   0.789   5.780  1.8922 -0.5641 -1.4044
   65MOL0     H 8535   0.670   0.879   5.645  1.7416 -0.9001 -0.3434
   65MOL0     H 8536   0.566   1.096   5.783  3.2715 -0.9104 -2.0042
   65MOL0     H 8537   0.501   0.982   5.882  0.6346  2.8723  0.7670
   65MOL0     H 8538   0.457   0.997   5.573 -0.0231 -1.5487 -1.3428
   65MOL0     H 8539   0.399   0.866   5.684  3.1472  0.5788 -0.0120
   65MOL0     H 8540   0.316   1.164   5.701 -1.9691  0.3583  0.4163
   65MOL0     H 8541   0.277   1.040   5.819  2.6390  2.1162  0.7962
   65MOL0     H 8542   0.020   1.069   5.425  2.3474 -1.6765  0.5585
   65MOL0     H 8543  -0.211   1.153   5.459  1.3903 -0.8844 -1.6628
   65MOL0     H 8544  -0.635   1.271   5.598 -0.4733  0.7727 -1.9380
   65MOL0     H 8545  -0.792   1.422   5.626 -0.2674 -1.2513  0.7757
   65MOL0     H 8546  -0.802   1.783   5.558  0.3234 -1.8610  0.1159
   65MOL0     H 8547  -0.657   1.841   5.649  0.8944 -0.1047  3.5016
   65MOL0     H 8548  -0.812   2.000   5.692 -0.8792 -1.1393 -0.5367
   65MOL0     H 8549  -0.839   1.907   5.839 -2.8060 -0.5390  0.7284
   65MOL0     H 8550  -1.020   1.785   5.687  2.5620 -1.3567 -2.9766
   65MOL0     H 8551  -0.989   1.931   5.586 -0.1871  0.5441  1.0688
   65MOL0     H 8552  -1.050   2.083   5.763  3.8632 -1.0644 -2.7900
   65MOL0     H 8553  -1.188   1.985   5.715  0.3901  0.2626 -0.8722
   65MOL0     H 8554  -1.021   1.977   5.965 -0.7250 -2.2917  2.5847
   65MOL0     H 8555  -1.123   1.835   5.928 -0.7306 -0.5828  0.9373
   65MOL0     H 8556  -1.325   1.981   5.933 -0.1744  0.0499 -0.3924
   65MOL0     H 8557  -1.222   2.122   5.944  1.6655  0.5844  3.3075
   65MOL0     H 8558  -1.268   1.896   6.137 -1.4857  0.1878  1.4894
   65MOL0     H 8559  -1.141   2.015   6.171  1.2862 -1.7692 -1.3240
   65MOL0     H 8560  -1.291   2.188   6.208  1.4907 -0.5918 -0.7077
   65MOL0     H 8561  -1.381   2.059   6.286  0.9620 -1.7372 -0.0642
   65MOL0     H 8562  -0.494   1.726   5.735  0.6469  0.6792 -3.0963
   65MOL0     H 8563  -0.330   1.541   5.718 -0.9693  0.5251  0.9062
   65MOL0     H 8564  -0.142   1.117   5.891  2.8868 -0.8298 -0.0350
   65MOL0     H 8565   0.064   1.052   5.860 -0.6968  1.5842  0.3372
   65MOL0     H 8566   1.986   0.970   6.472  2.1457 -2.5240  1.8078
   65MOL0     H 8567   2.235   1.030   6.417  0.2577  0.3954 -1.8232
   65MOL0     H 8568   2.593   1.269   6.275 -3.1911 -0.7696 -1.2486
   65MOL0     H 8569   2.828   1.305   6.201  1.0441 -0.2708 -1.6932
   65MOL0     H 8570   3.027   1.261   6.228 -0.8889  1.5221  0.1704
   65MOL0     H 8571   3.024   1.314   6.063 -2.6292 -2.1260 -1.9384
   65MOL0     H 8572   3.236   1.110   6.119  2.5982  0.3153  0.8823
   65MOL0     H 8573   3.217   1.238   6.001 -2.4791 -1.9870 -1.5327
   65MOL0     H 8574   3.294   1.250   6.291 -0.8578 -0.0834  0.1511
   65MOL0     H 8575   3.235   1.400   6.204  1.1462  0.9293 -3.0655
   65MOL0     H 8576   3.413   1.340   6.021  1.3611 -1.2426 -0.6956
   65MOL0     H 8577   3.494   1.375   6.184  0.1584  0.6381 -2.0867
   65MOL0     H 8578   3.609   0.995   6.126 -0.5071  0.3886  1.6573
   65MOL0     H 8579   2.829   0.906   6.039 -0.5591 -2.3872  0.1709
   65MOL0     H 8580   2.589   0.877   6.111  0.5486 -0.6846 -0.9787
   66MOL0     O 8581   1.837   8.856   2.120 -0.5613 -1.1991  0.1276
   66MOL0     C 8582   1.858   8.972   2.077 -0.1236  0.3165 -0.8252
   66MOL0     O 8583   1.775   9.078   2.106 -0.2985 -0.8149  0.2716
   66MOL0     C 8584   1.660   9.071   2.180 -0.6007 -0.0854 -0.5918
   66MOL0     C 8585   1.633   9.188   2.246  0.6168  0.7055  0.2968
   66MOL0     C 8586   1.521   9.203   2.320 -0.5415 -0.6536 -0.1169
   66MOL0     C 8587   1.435   9.092   2.336  0.7022 -0.5912  0.9521
   66MOL0     O 8588   1.336   9.101   2.432  0.2615  0.2155  0.3652
   66MOL0     C 8589   1.218   9.032   2.415  1.2172  0.4514 -0.7807
   66MOL0     C 8590   1.106   9.135   2.437 -0.1234  1.2948  0.3090
   66MOL0     C 8591   0.976   9.067   2.459  0.3217  0.3918  0.7070
   66MOL0     C 8592   0.862   9.180   2.473  1.2500  0.0005 -0.4851
   66MOL0     C 8593   0.756   9.144   2.579 -0.0779  0.3324 -0.8440
   66MOL0     C 8594   0.662   9.267   2.609 -0.1562 -0.0270  0.0964
   66MOL0     C 8595   0.550   9.213   2.704 -0.5286 -0.5237  0.4521
   66MOL0     C 8596   0.508   9.316   2.804 -0.2952  0.4965 -0.1378
   66MOL0     N 8597   0.395   9.276   2.888  0.3576  1.1379 -0.9323
   66MOL0     C 8598   0.369   9.150   2.951 -0.0194 -0.6384  0.8845
   66MOL0     C 8599   0.255   9.177   3.010  0.2729  0.1868 -0.5201
   66MOL0     C 8600   0.178   9.089   3.096 -0.3251  1.1023  0.0343
   66MOL0     C 8601   0.088   8.993   3.005 -0.7229  0.3495  0.1046
   66MOL0     C 8602  -0.050   9.062   2.972  0.4244 -1.1337 -0.2690
   66MOL0     C 8603  -0.157   8.982   2.906 -0.3624 -0.5283  0.3346
   66MOL0     O 8604  -0.285   9.053   2.914  0.0859 -0.0505  0.1410
   66MOL0     C 8605  -0.395   8.983   2.867  0.4749  0.2190  0.8530
   66MOL0     C 8606  -0.393   8.847   2.828  0.4003  0.1778 -0.0749
   66MOL0     C 8607  -0.515   8.776   2.798  0.9007 -0.3343  1.1059
   66MOL0     C 8608  -0.642   8.841   2.798  0.0489  0.1700 -0.3208
   66MOL0     C 8609  -0.765   8.767   2.758 -0.4104  0.9404  1.4470
   66MOL0     O 8610  -0.874   8.840   2.746  0.1615 -0.6451 -0.3319
   66MOL0     C 8611  -0.988   8.785   2.710 -0.0871 -0.0575  0.8732
   66MOL0     C 8612  -1.012   8.708   2.598  0.0384 -0.0339 -0.2811
   66MOL0     C 8613  -1.141   8.657   2.578 -0.1262  0.0320 -0.0651
   66MOL0     C 8614  -1.251   8.686   2.641 -0.9240 -0.4309 -0.2482
   66MOL0     O 8615  -1.371   8.637   2.625 -0.0013  0.2153 -0.3735
   66MOL0     C 8616  -1.409   8.547   2.518 -0.0360  0.4213 -0.3575
   66MOL0     C 8617  -1.550   8.490   2.523 -0.3419 -1.2812  0.0079
   66MOL0     C 8618  -1.654   8.582   2.447 -0.3543 -0.4267  0.1284
   66MOL0     C 8619  -1.793   8.523   2.425  0.3019  0.9894  0.5834
   66MOL0     C 8620  -1.869   8.626   2.338 -0.3745  0.4709 -0.8802
   66MOL0     C 8621  -1.980   8.562   2.255  1.0017  0.3087 -0.3003
   66MOL0     C 8622  -2.105   8.534   2.344 -0.5716  0.3717  0.1733
   66MOL0     C 8623  -2.242   8.516   2.272  0.4012 -0.6901  0.0257
   66MOL0    Cl 8624  -2.310   8.678   2.217  0.1270  0.3864  0.4257
   66MOL0     C 8625  -1.232   8.775   2.750  1.3000  0.9378  0.0839
   66MOL0     C 8626  -1.108   8.828   2.774 -0.5661 -0.5805 -0.0728
   66MOL0     O 8627  -0.768   8.647   2.748  0.4747  0.0684  0.4499
   66MOL0     C 8628  -0.636   8.980   2.829 -0.0596  0.6525  0.0371
   66MOL0     C 8629  -0.517   9.044   2.864 -0.0137 -0.1881  0.1335
   66MOL0     N 8630   0.208   9.306   2.990 -0.5821 -0.2094 -0.1141
   66MOL0     N 8631   0.293   9.364   2.922  0.2261 -0.6735  0.2418
   66MOL0     C 8632   1.453   8.973   2.267 -0.3207  0.9609 -0.1994
   66MOL0     C 8633   1.572   8.958   2.188  0.3296  0.0729  0.4454
   66MOL0     C 8634   1.990   8.999   2.013  1.4347  0.0560 -0.3072
   66MOL0     C 8635   2.080   8.904   1.978  0.9730  0.2910  0.0502
   66MOL0     C 8636   2.201   8.937   1.925  0.3030  0.1894  0.1199
   66MOL0     C 8637   2.226   9.070   1.896  0.1182  0.7869  0.9216
   66MOL0     O 8638   2.336   9.098   1.830  0.2340 -0.0182 -0.7203
   66MOL0     C 8639   2.388   9.236   1.817 -0.2883 -0.8835  0.2519
   66MOL0     C 8640   2.538   9.226   1.801  0.2504 -0.9831  1.2414
   66MOL0     C 8641   2.597   9.206   1.659  0.5278  0.4640  0.9658
   66MOL0     C 8642   2.751   9.197   1.682 -0.3650 -0.3783 -0.3783
   66MOL0     C 8643   2.798   9.342   1.666 -0.5433  0.6253 -0.6159
   66MOL0     C 8644   2.843   9.457   1.663 -0.4925 -0.7449 -0.3407
   66MOL0     C 8645   2.134   9.171   1.924 -0.9268 -0.6482 -0.2408
   66MOL0     C 8646   2.012   9.136   1.978  0.3904  0.3185 -1.2358
   66MOL0     H 8647   1.712   9.263   2.245  0.2884  1.1277  2.3461
   66MOL0     H 8648   1.516   9.291   2.383 -1.2454 -1.1610  0.5550
   66MOL0     H 8649   1.215   8.946   2.482  0.1616  1.4092  0.4354
   66MOL0     H 8650   1.203   8.993   2.314 -0.2482  0.6538 -0.6573
   66MOL0     H 8651   1.101   9.188   2.341  1.7637 -1.8644 -1.7116
   66MOL0     H 8652   1.126   9.204   2.520 -1.2442  1.5420  0.4025
   66MOL0     H 8653   0.981   9.005   2.549  1.2046 -0.6919 -0.0606
   66MOL0     H 8654   0.945   8.998   2.380  0.4717 -0.5907  1.4899
   66MOL0     H 8655   0.909   9.275   2.502  0.0546  1.0998 -2.0104
   66MOL0     H 8656   0.814   9.215   2.381  2.5554  1.9089 -0.5059
   66MOL0     H 8657   0.803   9.112   2.672 -2.8372 -0.4703  0.3948
   66MOL0     H 8658   0.708   9.053   2.542  1.3390 -0.8674  0.1404
   66MOL0     H 8659   0.612   9.310   2.522 -0.6587 -1.9434 -0.6065
   66MOL0     H 8660   0.728   9.348   2.643  1.0260 -0.1297 -1.7706
   66MOL0     H 8661   0.464   9.162   2.660 -2.3658 -0.9303  4.1549
   66MOL0     H 8662   0.614   9.154   2.771 -0.2348  1.9796  2.5450
   66MOL0     H 8663   0.481   9.411   2.757 -0.6216  1.2256  1.4643
   66MOL0     H 8664   0.586   9.331   2.879 -0.8249 -2.0178  1.0196
   66MOL0     H 8665   0.430   9.060   2.953  0.7693 -0.1491 -0.1310
   66MOL0     H 8666   0.120   9.150   3.167 -0.2607  1.1935  0.0079
   66MOL0     H 8667   0.253   9.027   3.146 -0.3010 -0.7462 -2.1346
   66MOL0     H 8668   0.073   8.906   3.070 -0.0528  1.9228  2.5157
   66MOL0     H 8669   0.139   8.959   2.914 -0.7479  0.7832 -0.0722
   66MOL0     H 8670  -0.096   9.099   3.065  0.1577 -1.3804 -0.3024
   66MOL0     H 8671  -0.043   9.153   2.912 -0.7339 -1.6526 -1.2255
   66MOL0     H 8672  -0.179   8.897   2.970 -0.5041 -0.4172  0.4362
   66MOL0     H 8673  -0.136   8.952   2.803 -0.2608  3.6109 -1.0474
   66MOL0     H 8674  -0.303   8.789   2.811 -0.5674 -1.3268 -0.3473
   66MOL0     H 8675  -0.505   8.668   2.788  0.1045 -0.3055 -0.1913
   66MOL0     H 8676  -0.927   8.677   2.538  1.7423  1.9383  0.9659
   66MOL0     H 8677  -1.159   8.588   2.496 -1.5673 -1.4627  1.4326
   66MOL0     H 8678  -1.336   8.466   2.519  0.0663  0.4807  1.8564
   66MOL0     H 8679  -1.382   8.599   2.426  0.5908  0.1337 -0.3416
   66MOL0     H 8680  -1.579   8.468   2.626  0.6029 -0.7589  0.3893
   66MOL0     H 8681  -1.547   8.390   2.478 -1.5802 -0.3972 -2.2266
   66MOL0     H 8682  -1.605   8.602   2.351 -1.3574  1.7544 -0.0021
   66MOL0     H 8683  -1.668   8.680   2.493 -0.3633  0.3706 -1.5157
   66MOL0     H 8684  -1.783   8.428   2.370  0.6662  0.6573  1.2141
   66MOL0     H 8685  -1.851   8.495   2.513 -1.4882  0.9813 -0.5520
   66MOL0     H 8686  -1.807   8.677   2.264  0.5018 -1.4008 -1.5007
   66MOL0     H 8687  -1.894   8.709   2.405 -1.7861  0.5102 -1.4187
   66MOL0     H 8688  -1.948   8.471   2.203  0.1472 -0.5311  0.5828
   66MOL0     H 8689  -2.009   8.632   2.176 -1.2965 -0.2888 -0.0737
   66MOL0     H 8690  -2.101   8.438   2.397  1.0958 -0.2694 -1.0358
   66MOL0     H 8691  -2.102   8.618   2.414  1.3696 -0.0563  0.6823
   66MOL0     H 8692  -2.315   8.487   2.348  1.3675 -0.3796  1.1086
   66MOL0     H 8693  -2.245   8.452   2.184  1.4123 -0.3328 -0.2899
   66MOL0     H 8694  -1.318   8.809   2.806  1.6965 -0.5446  1.6921
   66MOL0     H 8695  -1.094   8.896   2.857  1.4785 -2.8700  1.6221
   66MOL0     H 8696  -0.732   9.030   2.827 -0.5931 -0.3349  0.0067
   66MOL0     H 8697  -0.522   9.152   2.874 -0.1949 -0.3654  2.6733
   66MOL0     H 8698   1.384   8.889   2.271  1.4935 -0.5682  0.1627
   66MOL0     H 8699   1.590   8.867   2.133 -2.2781 -0.7000  0.7132
   66MOL0     H 8700   2.060   8.801   2.007 -1.5382  1.3013  2.2351
   66MOL0     H 8701   2.273   8.858   1.904  0.4521  0.1646  0.6916
   66MOL0     H 8702   2.368   9.292   1.909  2.4882 -1.1255  1.0866
   66MOL0     H 8703   2.357   9.286   1.725  1.9506  1.9108  0.8934
   66MOL0     H 8704   2.584   9.310   1.852  0.5211 -1.0926  1.1788
   66MOL0     H 8705   2.562   9.146   1.871  1.8095  0.2581  2.1881
   66MOL0     H 8706   2.567   9.286   1.590  0.2620 -0.1045  0.4154
   66MOL0     H 8707   2.562   9.107   1.629 -1.8608  0.7184  2.5738
   66MOL0     H 8708   2.786   9.166   1.781 -0.3534  1.4083  0.2212
   66MOL0     H 8709   2.805   9.129   1.615 -1.8135 -0.7152 -1.2536
   66MOL0     H 8710   2.880   9.556   1.646 -0.6183  0.6778  5.5018
   66MOL0     H 8711   2.151   9.276   1.903 -0.2355 -0.9414 -1.2121
   66MOL0     H 8712   1.939   9.212   2.002  1.4001 -0.2121  5.7445
   67MOL0     O 8713   3.711   0.132   7.434 -0.1659  0.0965  0.6520
   67MOL0     C 8714   3.642   0.111   7.335  0.5415  0.2977 -0.0622
   67MOL0     O 8715   3.685   0.120   7.202 -0.1439  0.3817  0.0863
   67MOL0     C 8716   3.815   0.157   7.169 -0.0742 -0.1298 -0.1560
   67MOL0     C 8717   3.819   0.229   7.045 -0.7978  1.3647  0.3224
   67MOL0     C 8718   3.942   0.261   6.991 -0.1745 -0.4976  0.6447
   67MOL0     C 8719   4.062   0.231   7.051 -0.3550 -0.0526 -0.3192
   67MOL0     O 8720   4.176   0.282   6.995  0.6113 -0.0783  0.2138
   67MOL0     C 8721   4.284   0.311   7.092 -0.3485 -0.5662  0.6260
   67MOL0     C 8722   4.396   0.380   7.016 -0.5929  0.7169  0.3609
   67MOL0     C 8723   4.485   0.275   6.948 -0.2501  0.3969  0.1092
   67MOL0     C 8724   4.610   0.336   6.894  0.2684  0.2215  0.5217
   67MOL0     C 8725   4.703   0.237   6.819 -0.4612  0.1045  0.1665
   67MOL0     C 8726   4.645   0.159   6.696  0.8827 -0.4189  0.4391
   67MOL0     C 8727   4.751   0.053   6.644  0.2206 -0.4290  0.7639
   67MOL0     C 8728   4.686  -0.058   6.566  0.0829 -0.0976 -0.1475
   67MOL0     N 8729   4.652  -0.018   6.429 -0.5319  0.2566 -0.0117
   67MOL0     C 8730   4.531   0.033   6.384 -1.4750  0.1970 -0.3310
   67MOL0     C 8731   4.542   0.055   6.253 -0.7447 -0.0518 -0.5001
   67MOL0     C 8732   4.435   0.097   6.159  1.3833  0.1652  0.5188
   67MOL0     C 8733   4.296   0.090   6.227  0.0036 -0.6687  0.7598
   67MOL0     C 8734   4.187   0.116   6.121  0.3965  0.1289 -0.1672
   67MOL0     C 8735   4.053   0.077   6.184  0.3339 -0.0753 -0.3803
   67MOL0     O 8736   3.951   0.123   6.093  0.6349  0.0907  0.3187
   67MOL0     C 8737   3.820   0.112   6.135  0.1777 -0.4718  0.7817
   67MOL0     C 8738   3.780   0.068   6.258 -1.0865 -0.4224 -0.5025
   67MOL0     C 8739   3.649   0.056   6.295  0.6501 -0.4025  0.0462
   67MOL0     C 8740   3.546   0.095   6.208 -0.2778 -0.5714 -0.2258
   67MOL0     C 8741   3.405   0.101   6.243  0.6094 -0.2713 -0.3788
   67MOL0     O 8742   3.313   0.085   6.139  0.0672  0.5646 -1.0512
   67MOL0     C 8743   3.180   0.075   6.163  0.6471 -0.1041  0.2507
   67MOL0     C 8744   3.119   0.012   6.278  1.4602  0.1763 -0.7059
   67MOL0     C 8745   2.979   0.012   6.278  0.7261  0.5303  0.0986
   67MOL0     C 8746   2.907   0.087   6.187 -0.2929 -0.8414 -1.1123
   67MOL0     O 8747   2.766   0.084   6.205 -0.1385 -0.3456 -0.0527
   67MOL0     C 8748   2.709  -0.013   6.113  0.0136 -0.7489  0.0933
   67MOL0     C 8749   2.556  -0.018   6.114 -0.0150 -0.3854 -0.1414
   67MOL0     C 8750   2.520   0.097   6.017  0.3813  0.1442 -0.4270
   67MOL0     C 8751   2.364   0.140   6.025 -0.1416  0.4068  0.0562
   67MOL0     C 8752   2.274   0.030   5.970  0.3752 -0.0979 -0.3286
   67MOL0     C 8753   2.118   0.058   5.985 -0.6108  0.2809 -0.1917
   67MOL0     C 8754   2.047  -0.012   6.100  0.2513 -0.0178 -0.8222
   67MOL0     C 8755   1.969  -0.135   6.060 -0.3937 -0.0866  0.6093
   67MOL0    Cl 8756   1.863  -0.188   6.188  0.1144 -0.3112  0.1379
   67MOL0     C 8757   2.971   0.157   6.087  0.5437  0.4446 -1.4541
   67MOL0     C 8758   3.105   0.148   6.077  0.0350  1.0868  0.4243
   67MOL0     O 8759   3.377   0.123   6.361  0.4711 -0.0464  0.0415
   67MOL0     C 8760   3.587   0.139   6.074  0.3691 -0.5285 -0.0696
   67MOL0     C 8761   3.725   0.146   6.037  1.1375 -1.3388 -0.9103
   67MOL0     N 8762   4.674   0.021   6.218  0.4344 -0.0278  0.8722
   67MOL0     N 8763   4.733  -0.028   6.322 -0.2448  0.1017 -0.1227
   67MOL0     C 8764   4.062   0.162   7.181  0.2998 -0.1299 -0.7217
   67MOL0     C 8765   3.939   0.124   7.234  0.7736  0.2731  0.2181
   67MOL0     C 8766   3.495   0.070   7.360 -0.0139 -0.2813 -0.4366
   67MOL0     C 8767   3.428  -0.006   7.257  0.1488 -0.6204  0.1646
   67MOL0     C 8768   3.290  -0.041   7.276 -0.7897  0.1309 -0.5564
   67MOL0     C 8769   3.230   0.002   7.396 -0.2835 -0.0012  0.7264
   67MOL0     O 8770   3.094  -0.032   7.421 -0.1212 -0.3493 -0.6088
   67MOL0     C 8771   2.999   0.056   7.354  0.5591  0.0511  0.1602
   67MOL0     C 8772   2.924  -0.026   7.250  0.9095 -0.5318 -0.7898
   67MOL0     C 8773   2.777   0.027   7.236 -0.5160 -0.3686  0.3465
   67MOL0     C 8774   2.687  -0.038   7.129  0.0099 -0.4843  0.6350
   67MOL0     C 8775   2.709   0.022   6.997  0.4091 -0.3251 -0.1232
   67MOL0     C 8776   2.749   0.067   6.897 -0.0347  0.7584  0.6399
   67MOL0     C 8777   3.301   0.071   7.497  0.5486 -1.2534  0.1504
   67MOL0     C 8778   3.433   0.097   7.478 -1.5310 -1.4039  0.5407
   67MOL0     H 8779   3.726   0.255   6.997 -2.3400 -2.3351  0.9388
   67MOL0     H 8780   3.937   0.318   6.899  0.5366  1.5572  1.7969
   67MOL0     H 8781   4.336   0.227   7.140  2.5569  0.2550 -0.8388
   67MOL0     H 8782   4.254   0.389   7.162 -0.9120  0.7135 -0.9766
   67MOL0     H 8783   4.452   0.427   7.098  1.9322  0.8520 -1.3148
   67MOL0     H 8784   4.361   0.452   6.941 -0.0621  0.6741  0.0681
   67MOL0     H 8785   4.424   0.233   6.867  2.9690 -1.6408 -1.4696
   67MOL0     H 8786   4.497   0.187   7.012 -4.2029 -2.3932 -2.5034
   67MOL0     H 8787   4.571   0.417   6.831 -2.7963 -0.8275  0.8881
   67MOL0     H 8788   4.671   0.387   6.969  1.6883  2.0659 -1.7242
   67MOL0     H 8789   4.753   0.166   6.885 -1.8123 -0.1699  0.9174
   67MOL0     H 8790   4.772   0.310   6.775 -2.7885  1.3976 -1.5873
   67MOL0     H 8791   4.619   0.222   6.611  1.3169 -0.5183  0.2313
   67MOL0     H 8792   4.556   0.106   6.733 -1.1358  1.2059 -1.7604
   67MOL0     H 8793   4.825   0.103   6.582 -1.4703  2.0360  0.5728
   67MOL0     H 8794   4.800  -0.006   6.722  0.7649 -0.0350  0.7221
   67MOL0     H 8795   4.599  -0.093   6.623  1.3597  0.0241  1.9618
   67MOL0     H 8796   4.758  -0.140   6.557 -0.3623 -0.3843 -1.4319
   67MOL0     H 8797   4.441   0.057   6.439 -0.3977 -0.1806  1.6600
   67MOL0     H 8798   4.442   0.030   6.073 -1.9219  0.7001 -0.2971
   67MOL0     H 8799   4.454   0.193   6.111  1.7885 -0.7972 -1.3475
   67MOL0     H 8800   4.283   0.157   6.312 -0.3703 -0.7826  0.7973
   67MOL0     H 8801   4.288  -0.016   6.255 -0.5532 -1.6999 -2.8060
   67MOL0     H 8802   4.180   0.221   6.094  1.4502  0.3054  0.1979
   67MOL0     H 8803   4.213   0.057   6.033 -0.4680 -0.8662  0.2239
   67MOL0     H 8804   4.032   0.127   6.279 -2.9329 -2.9279  0.5720
   67MOL0     H 8805   4.044  -0.032   6.178 -0.9111  0.0453 -1.1030
   67MOL0     H 8806   3.857   0.049   6.331 -1.1249 -2.2524 -0.8875
   67MOL0     H 8807   3.635   0.022   6.397 -0.7320  0.1723  0.0647
   67MOL0     H 8808   3.182  -0.044   6.346  1.1691 -3.1529 -2.9079
   67MOL0     H 8809   2.932  -0.050   6.355  0.7848 -0.1518 -0.4059
   67MOL0     H 8810   2.745  -0.109   6.152 -3.0211 -1.4687  1.3833
   67MOL0     H 8811   2.745   0.018   6.014 -0.0898 -2.1194 -0.3926
   67MOL0     H 8812   2.524  -0.016   6.218  3.8017 -1.0712  1.2178
   67MOL0     H 8813   2.530  -0.112   6.064  1.0315  0.4320 -2.3926
   67MOL0     H 8814   2.550   0.073   5.915 -0.3858  0.4436 -0.7360
   67MOL0     H 8815   2.579   0.177   6.061 -0.0174 -1.1241  2.6418
   67MOL0     H 8816   2.331   0.161   6.127 -0.8432 -2.1252  0.4162
   67MOL0     H 8817   2.359   0.231   5.965 -0.0063 -0.6681 -1.6370
   67MOL0     H 8818   2.293  -0.063   6.023  0.1627  1.2520  2.2451
   67MOL0     H 8819   2.304   0.012   5.866  1.7065 -1.1005  0.2082
   67MOL0     H 8820   2.072   0.038   5.888 -0.5934 -0.7755 -0.0016
   67MOL0     H 8821   2.096   0.164   5.997  0.4074  0.4229  0.5224
   67MOL0     H 8822   2.120  -0.030   6.180  1.4567  2.8198 -1.1436
   67MOL0     H 8823   1.974   0.055   6.147  2.3345  0.8045  1.4586
   67MOL0     H 8824   2.041  -0.215   6.046 -1.1260 -0.3978 -1.7587
   67MOL0     H 8825   1.907  -0.101   5.976  0.2020  0.2948  0.3229
   67MOL0     H 8826   2.910   0.215   6.018 -1.3106 -0.1261 -0.3648
   67MOL0     H 8827   3.151   0.215   6.004 -1.6336  4.1008  1.9515
   67MOL0     H 8828   3.517   0.159   5.993 -0.5921 -3.6083 -0.1353
   67MOL0     H 8829   3.748   0.197   5.945  0.3207 -0.5887 -0.7117
   67MOL0     H 8830   4.155   0.154   7.236 -0.5089  4.2698  1.7691
   67MOL0     H 8831   3.935   0.071   7.328  3.3622 -0.4405 -0.0039
   67MOL0     H 8832   3.485  -0.023   7.166 -0.2117  0.9094 -0.3747
   67MOL0     H 8833   3.246  -0.117   7.213  1.2088 -0.9741 -0.6907
   67MOL0     H 8834   3.049   0.139   7.303 -1.1734  1.3408  0.4795
   67MOL0     H 8835   2.925   0.092   7.426 -0.3886  2.5217 -1.9137
   67MOL0     H 8836   2.974  -0.020   7.153 -0.1959 -0.4348 -1.3670
   67MOL0     H 8837   2.909  -0.128   7.287 -1.0711 -0.0592 -0.1750
   67MOL0     H 8838   2.781   0.136   7.227 -2.8269 -0.2933 -0.4335
   67MOL0     H 8839   2.728   0.009   7.332 -1.5612  0.0107 -0.0985
   67MOL0     H 8840   2.704  -0.146   7.126 -2.5919 -0.9387 -0.2738
   67MOL0     H 8841   2.582  -0.020   7.156 -0.7737  2.1991 -3.4554
   67MOL0     H 8842   2.798   0.104   6.809 -0.9564  2.4273  0.7976
   67MOL0     H 8843   3.254   0.098   7.591  0.9786 -0.8480  0.2516
   67MOL0     H 8844   3.483   0.147   7.560 -0.8038  2.3767 -1.9727
   68MOL0     O 8845   0.532   1.523  10.997  0.0128 -0.0189  0.0590
   68MOL0     C 8846   0.605   1.586  11.077 -0.4296 -0.1070  0.5818
   68MOL0     O 8847   0.566   1.675  11.170  0.0754 -0.0303 -0.0113
   68MOL0     C 8848   0.438   1.682  11.212 -0.2560  0.6450 -0.6943
   68MOL0     C 8849   0.319   1.695  11.128  0.4471 -0.2065  0.8021
   68MOL0     C 8850   0.192   1.691  11.197  0.5261  0.0968  0.5614
   68MOL0     C 8851   0.177   1.684  11.337  0.1081 -0.3089 -0.4961
   68MOL0     O 8852   0.059   1.673  11.408  0.4101 -0.2379 -1.2289
   68MOL0     C 8853  -0.053   1.743  11.346 -0.0193  0.7627  0.8561
   68MOL0     C 8854  -0.167   1.747  11.445  0.0268 -0.4569 -0.9176
   68MOL0     C 8855  -0.303   1.777  11.385 -0.0648 -0.6364  0.4847
   68MOL0     C 8856  -0.413   1.841  11.465  0.0927 -0.0001 -1.0071
   68MOL0     C 8857  -0.479   1.747  11.563  0.4769  0.2987  1.0792
   68MOL0     C 8858  -0.618   1.783  11.610  0.0739 -0.5908  0.2869
   68MOL0     C 8859  -0.684   1.684  11.706  0.1104 -0.4962  0.2880
   68MOL0     C 8860  -0.823   1.732  11.753 -0.0978 -1.2263  0.6715
   68MOL0     N 8861  -0.911   1.627  11.814 -1.1529 -0.5618 -0.1241
   68MOL0     C 8862  -0.969   1.528  11.737 -0.5745  0.7562  0.3674
   68MOL0     C 8863  -1.045   1.461  11.828 -0.9095  1.3272 -0.1715
   68MOL0     C 8864  -1.112   1.332  11.801  0.7648  0.3445 -0.4117
   68MOL0     C 8865  -1.061   1.216  11.890 -0.4675 -0.0533 -0.7430
   68MOL0     C 8866  -1.150   1.084  11.878 -0.3930 -0.8040 -0.5573
   68MOL0     C 8867  -1.049   0.971  11.834  0.3432 -0.4830 -0.2002
   68MOL0     O 8868  -1.018   0.989  11.700  0.6135  0.0806  0.6115
   68MOL0     C 8869  -0.893   1.006  11.655 -0.1774  0.4011 -0.2095
   68MOL0     C 8870  -0.785   0.949  11.717 -0.0671 -0.3053 -0.1896
   68MOL0     C 8871  -0.659   0.966  11.666 -0.8932  0.1004 -0.1455
   68MOL0     C 8872  -0.626   1.050  11.558 -0.5515  0.4466  0.2021
   68MOL0     C 8873  -0.497   1.077  11.504 -0.1103 -0.4296 -1.0134
   68MOL0     O 8874  -0.480   1.103  11.374 -0.6035 -0.2012  0.7971
   68MOL0     C 8875  -0.356   1.067  11.316  0.0533  0.5892 -0.0818
   68MOL0     C 8876  -0.330   0.939  11.252  0.2276 -0.7874  0.2918
   68MOL0     C 8877  -0.199   0.904  11.212 -0.5393 -0.7707  0.2106
   68MOL0     C 8878  -0.096   0.993  11.223  1.1585  0.4874  0.0883
   68MOL0     O 8879   0.016   0.952  11.157  0.5706  0.7895  0.2835
   68MOL0     C 8880   0.135   1.026  11.195 -0.5606  0.0387  1.0491
   68MOL0     C 8881   0.250   0.954  11.127 -0.6082 -0.2908 -0.9236
   68MOL0     C 8882   0.290   0.828  11.196  0.7558  1.0463  0.3725
   68MOL0     C 8883   0.429   0.773  11.150  0.1975 -0.6192  0.2123
   68MOL0     C 8884   0.540   0.767  11.264  0.4020 -0.3493 -0.1459
   68MOL0     C 8885   0.661   0.686  11.215 -0.3445  0.1634  0.0615
   68MOL0     C 8886   0.784   0.688  11.324  1.1116 -0.7129 -0.4525
   68MOL0     C 8887   0.895   0.595  11.275 -0.6505  0.0844 -1.0361
   68MOL0    Cl 8888   1.029   0.602  11.401 -0.0181  0.2179  0.0397
   68MOL0     C 8889  -0.111   1.113  11.284 -0.1276  0.5653 -0.5393
   68MOL0     C 8890  -0.243   1.148  11.323  0.2057  0.4628 -0.8118
   68MOL0     O 8891  -0.406   1.055  11.582 -0.2091  0.7375 -0.1223
   68MOL0     C 8892  -0.741   1.105  11.495 -0.0566 -0.5237  0.4642
   68MOL0     C 8893  -0.877   1.081  11.548  0.1671  0.2164  0.0706
   68MOL0     N 8894  -1.043   1.536  11.944  0.6387 -0.1459  0.1189
   68MOL0     N 8895  -0.977   1.642  11.928 -0.4050  0.1875 -0.8496
   68MOL0     C 8896   0.291   1.683  11.412 -0.6382  0.2801 -0.4277
   68MOL0     C 8897   0.422   1.693  11.351  0.2002  1.0730 -0.2382
   68MOL0     C 8898   0.746   1.547  11.074  0.0025  0.4629 -0.2710
   68MOL0     C 8899   0.816   1.541  11.194 -0.7897 -0.6329  0.3565
   68MOL0     C 8900   0.952   1.526  11.206 -0.1398  0.8995 -0.3621
   68MOL0     C 8901   1.036   1.497  11.092  1.5531 -0.0069 -0.3376
   68MOL0     O 8902   1.171   1.488  11.111 -0.7424  0.6787 -0.0392
   68MOL0     C 8903   1.261   1.428  11.010  0.9746  0.3313  0.0832
   68MOL0     C 8904   1.394   1.399  11.086  0.0064 -1.3314  0.6227
   68MOL0     C 8905   1.475   1.530  11.130  0.2631 -0.3422  0.0773
   68MOL0     C 8906   1.580   1.492  11.225  0.4314  0.7213 -0.3470
   68MOL0     C 8907   1.664   1.376  11.195 -1.1964 -0.7674 -0.4173
   68MOL0     C 8908   1.739   1.285  11.192  0.9198  0.6508  0.5141
   68MOL0     C 8909   0.966   1.496  10.974  0.3002  0.8799  0.7385
   68MOL0     C 8910   0.827   1.526  10.960  0.3527 -0.7554  0.6669
   68MOL0     H 8911   0.314   1.699  11.020  0.0612 -2.2688  0.7114
   68MOL0     H 8912   0.104   1.702  11.133  0.0786  1.6610  1.3744
   68MOL0     H 8913  -0.090   1.688  11.259 -1.9264 -1.4712  2.9235
   68MOL0     H 8914  -0.041   1.846  11.311 -2.2833  0.9741  0.5347
   68MOL0     H 8915  -0.149   1.818  11.526 -2.3748 -3.7630  2.8825
   68MOL0     H 8916  -0.172   1.650  11.496 -0.5917 -0.6325 -1.2927
   68MOL0     H 8917  -0.349   1.696  11.327 -1.1545 -0.4714  1.0960
   68MOL0     H 8918  -0.284   1.840  11.298 -1.2983  2.9543  2.5970
   68MOL0     H 8919  -0.372   1.929  11.515 -0.6642  0.0496 -0.4479
   68MOL0     H 8920  -0.496   1.876  11.403 -1.0204 -1.8999 -0.6588
   68MOL0     H 8921  -0.408   1.737  11.645  0.5309  1.9321  1.2517
   68MOL0     H 8922  -0.495   1.651  11.512 -0.0732  0.3819  1.0910
   68MOL0     H 8923  -0.684   1.797  11.524  1.9699 -1.2604 -1.3746
   68MOL0     H 8924  -0.607   1.876  11.666 -1.7017 -1.6611  2.5589
   68MOL0     H 8925  -0.712   1.594  11.650  1.5721  1.1409 -3.3545
   68MOL0     H 8926  -0.635   1.664  11.802  0.6523  1.6249  0.5085
   68MOL0     H 8927  -0.875   1.768  11.664  2.2846 -2.6274 -1.4363
   68MOL0     H 8928  -0.809   1.822  11.814 -1.2270  2.2806 -3.7418
   68MOL0     H 8929  -0.939   1.511  11.634 -1.1740  0.8297  0.1747
   68MOL0     H 8930  -1.097   1.297  11.698  3.0900  1.6450 -0.6096
   68MOL0     H 8931  -1.218   1.357  11.808  0.6060 -0.5545  0.4916
   68MOL0     H 8932  -1.046   1.255  11.991  2.7052  0.3398 -1.2755
   68MOL0     H 8933  -0.960   1.195  11.854  0.1910 -0.7525  1.3675
   68MOL0     H 8934  -1.196   1.062  11.975  0.6716 -1.4064 -0.1813
   68MOL0     H 8935  -1.236   1.102  11.813 -0.2130  1.3195 -0.2742
   68MOL0     H 8936  -1.106   0.878  11.846 -2.1537  0.6028 -2.6110
   68MOL0     H 8937  -0.961   0.966  11.899  0.8986 -3.1297 -1.0065
   68MOL0     H 8938  -0.797   0.871  11.791  0.2608 -2.1391 -1.9949
   68MOL0     H 8939  -0.586   0.912  11.725 -0.7959 -0.0072 -0.3601
   68MOL0     H 8940  -0.412   0.872  11.228 -1.8017  1.2716  1.1719
   68MOL0     H 8941  -0.182   0.810  11.160  0.5149 -0.7812  0.5530
   68MOL0     H 8942   0.146   1.037  11.303  1.2175  2.4423  0.7064
   68MOL0     H 8943   0.140   1.121  11.141  2.1285 -0.7038 -0.1939
   68MOL0     H 8944   0.333   1.023  11.140 -1.0954  0.4106 -1.4596
   68MOL0     H 8945   0.224   0.932  11.023 -2.9538  1.0674 -0.7030
   68MOL0     H 8946   0.216   0.749  11.181 -0.4009  2.1119  0.3380
   68MOL0     H 8947   0.290   0.843  11.304 -1.9547  0.2226  0.5401
   68MOL0     H 8948   0.423   0.678  11.098  1.6430 -0.9014  0.5092
   68MOL0     H 8949   0.468   0.842  11.074  1.6446 -1.7393 -0.0899
   68MOL0     H 8950   0.504   0.729  11.361 -0.5785 -0.1766 -0.4333
   68MOL0     H 8951   0.587   0.863  11.287  0.5569 -0.3158 -0.5988
   68MOL0     H 8952   0.698   0.735  11.124 -3.5954  0.5903 -1.1905
   68MOL0     H 8953   0.631   0.589  11.175  0.7132  0.0485 -0.4876
   68MOL0     H 8954   0.822   0.784  11.360  1.4470 -0.0554 -2.4277
   68MOL0     H 8955   0.749   0.643  11.418  0.0148  0.5429 -0.2256
   68MOL0     H 8956   0.932   0.646  11.186 -1.2724  1.1391 -0.7146
   68MOL0     H 8957   0.864   0.493  11.254 -2.4330  0.1011  1.1308
   68MOL0     H 8958  -0.036   1.191  11.297 -0.5144  0.6795  1.3223
   68MOL0     H 8959  -0.248   1.250  11.359  2.9056  0.7397 -1.0147
   68MOL0     H 8960  -0.734   1.173  11.411  0.4411  0.2568  1.1319
   68MOL0     H 8961  -0.968   1.115  11.500 -0.1466  0.4289  0.8065
   68MOL0     H 8962   0.288   1.671  11.520  1.7679 -2.1188 -0.5215
   68MOL0     H 8963   0.499   1.694  11.427 -1.4442  0.5813  1.5096
   68MOL0     H 8964   0.770   1.563  11.290  0.5364  3.9482  0.2051
   68MOL0     H 8965   0.997   1.514  11.304 -0.0617 -2.2722 -0.7088
   68MOL0     H 8966   1.286   1.489  10.923  0.7146  0.2277 -0.0653
   68MOL0     H 8967   1.208   1.338  10.978 -2.8511  2.5817 -0.5324
   68MOL0     H 8968   1.369   1.344  11.178  0.1000 -0.0183  1.4552
   68MOL0     H 8969   1.449   1.338  11.013  0.6340 -0.2077  0.1325
   68MOL0     H 8970   1.412   1.601  11.184 -2.4414 -1.8902 -0.8473
   68MOL0     H 8971   1.523   1.569  11.040 -1.5127 -1.4809 -1.4389
   68MOL0     H 8972   1.642   1.580  11.248 -1.1744  2.1225 -1.2079
   68MOL0     H 8973   1.524   1.467  11.316  1.1532 -1.8533 -0.5283
   68MOL0     H 8974   1.797   1.195  11.197  2.3720  1.4204 -1.2628
   68MOL0     H 8975   1.020   1.461  10.886 -1.8407 -0.2786 -0.1756
   68MOL0     H 8976   0.785   1.533  10.860  0.8302  2.3766  0.5950
   69MOL0     O 8977   0.956   9.168   9.701 -0.8380 -0.7993 -0.8646
   69MOL0     C 8978   0.978   9.051   9.725  1.6041 -1.5123 -0.3827
   69MOL0     O 8979   0.876   8.960   9.727  0.4753  0.0367 -0.1689
   69MOL0     C 8980   0.752   9.010   9.700  1.1722  0.6250 -0.5451
   69MOL0     C 8981   0.668   9.024   9.808  0.4638  0.6187 -0.1625
   69MOL0     C 8982   0.542   9.080   9.787  0.8606  0.6294  1.0222
   69MOL0     C 8983   0.513   9.130   9.659 -0.2641 -1.3761 -0.5336
   69MOL0     O 8984   0.397   9.201   9.638  0.1913  0.0416  0.2635
   69MOL0     C 8985   0.280   9.142   9.698 -0.2712  0.0287 -0.1174
   69MOL0     C 8986   0.158   9.216   9.651  0.3168 -0.3227  0.3026
   69MOL0     C 8987   0.040   9.165   9.722 -0.1486 -0.2547 -0.2285
   69MOL0     C 8988  -0.096   9.214   9.674 -1.0716 -0.6610  0.8009
   69MOL0     C 8989  -0.120   9.360   9.696 -0.4172 -0.8295 -0.5555
   69MOL0     C 8990  -0.126   9.379   9.851  0.6930 -0.1180 -0.0933
   69MOL0     C 8991  -0.186   9.518   9.873  0.0552 -1.6651 -0.2569
   69MOL0     C 8992  -0.084   9.631   9.829 -0.3555  0.6694 -0.4375
   69MOL0     N 8993   0.035   9.621   9.916 -0.1190  0.3169  1.0092
   69MOL0     C 8994   0.152   9.570   9.864 -0.6877 -0.8009  0.1121
   69MOL0     C 8995   0.239   9.563   9.969 -0.4290 -0.2579  0.3995
   69MOL0     C 8996   0.376   9.504   9.958  0.4239 -0.1513  0.6204
   69MOL0     C 8997   0.429   9.465  10.094 -0.2302 -1.3702 -0.8394
   69MOL0     C 8998   0.394   9.329  10.155  0.2218 -0.4581  0.7983
   69MOL0     C 8999   0.448   9.311  10.293 -0.6885 -0.4901 -0.9654
   69MOL0     O 9000   0.592   9.300  10.286  0.1894 -0.1462  0.2790
   69MOL0     C 9001   0.651   9.174  10.247  0.4956  0.3661  0.4251
   69MOL0     C 9002   0.598   9.045  10.282  1.1699 -0.6193 -0.5493
   69MOL0     C 9003   0.661   8.922  10.263  0.7392 -0.6282 -1.4093
   69MOL0     C 9004   0.778   8.916  10.190 -0.1107 -0.3851 -0.1376
   69MOL0     C 9005   0.824   8.776  10.153 -0.2652 -0.3175  0.4365
   69MOL0     O 9006   0.943   8.779  10.083  0.6278  0.0371 -0.2624
   69MOL0     C 9007   0.998   8.667  10.038 -0.1489  0.3974 -0.5151
   69MOL0     C 9008   0.955   8.612   9.909  0.4005 -0.4196 -1.0493
   69MOL0     C 9009   1.021   8.498   9.858  0.0862  0.4716 -0.1172
   69MOL0     C 9010   1.127   8.452   9.928  0.1490 -0.1350 -0.3352
   69MOL0     O 9011   1.205   8.354   9.875  1.0700  0.2911 -0.3498
   69MOL0     C 9012   1.343   8.386   9.856 -0.4355 -0.5503 -0.1025
   69MOL0     C 9013   1.457   8.313   9.934 -0.2575 -0.2286 -0.4192
   69MOL0     C 9014   1.594   8.356   9.884  0.3279 -0.1445 -0.6353
   69MOL0     C 9015   1.697   8.247   9.933 -0.5484 -0.0206  0.0871
   69MOL0     C 9016   1.840   8.273   9.893  0.3481 -0.3996  0.5140
   69MOL0     C 9017   1.946   8.206   9.984  0.8552 -0.9456 -0.5895
   69MOL0     C 9018   2.091   8.232   9.928  0.4085 -0.3490  0.7735
   69MOL0     C 9019   2.208   8.197  10.016 -0.2273  0.8181 -0.7666
   69MOL0    Cl 9020   2.222   8.029  10.068  0.2884 -0.4242  0.0748
   69MOL0     C 9021   1.166   8.500  10.057  0.5629  0.3171  0.0115
   69MOL0     C 9022   1.101   8.607  10.104 -0.2162  0.0866  0.4522
   69MOL0     O 9023   0.770   8.676  10.189 -0.1676  0.4677 -0.2982
   69MOL0     C 9024   0.834   9.039  10.135  0.2398 -1.0548  0.7291
   69MOL0     C 9025   0.780   9.173  10.173  1.1026 -0.1405 -0.3579
   69MOL0     N 9026   0.170   9.598  10.083 -0.2894  0.6653  0.4483
   69MOL0     N 9027   0.048   9.640  10.047  0.3707 -0.3707 -0.3017
   69MOL0     C 9028   0.602   9.121   9.551  0.1966 -0.5467  0.2737
   69MOL0     C 9029   0.714   9.048   9.576 -0.4074 -0.4021  0.0386
   69MOL0     C 9030   1.118   9.007   9.757  0.7561 -0.3320  0.6314
   69MOL0     C 9031   1.149   8.875   9.764  0.1967 -0.6211 -0.5116
   69MOL0     C 9032   1.275   8.837   9.797 -1.6846  0.4067  0.3821
   69MOL0     C 9033   1.380   8.930   9.830  1.2799 -0.9777 -0.2767
   69MOL0     O 9034   1.497   8.885   9.882  0.9108  1.2278 -0.0608
   69MOL0     C 9035   1.530   8.949  10.012  0.2312 -0.1281  0.0518
   69MOL0     C 9036   1.578   8.847  10.115 -0.0006 -0.6022 -0.7047
   69MOL0     C 9037   1.692   8.753  10.052  0.1555 -1.0262 -0.9846
   69MOL0     C 9038   1.725   8.647  10.157 -0.1971 -0.5352  0.3228
   69MOL0     C 9039   1.863   8.611  10.136 -0.8141  0.1274  0.0706
   69MOL0     C 9040   1.968   8.565  10.101  0.2689 -0.6201  0.1857
   69MOL0     C 9041   1.356   9.068   9.803  0.3205  0.4158  0.1068
   69MOL0     C 9042   1.226   9.104   9.757  0.1341  0.1619  0.4245
   69MOL0     H 9043   0.703   9.000   9.907  1.6023  1.3954 -0.3510
   69MOL0     H 9044   0.473   9.092   9.870 -2.0933 -1.0392 -1.0180
   69MOL0     H 9045   0.275   9.141   9.807 -0.3653  0.2977 -0.1188
   69MOL0     H 9046   0.278   9.038   9.662  0.8052  0.3410 -1.1703
   69MOL0     H 9047   0.132   9.223   9.545 -0.2317  1.2315  0.5150
   69MOL0     H 9048   0.172   9.318   9.687  1.4879 -1.3596  3.0649
   69MOL0     H 9049   0.048   9.183   9.829 -1.4253  0.4075 -0.2320
   69MOL0     H 9050   0.038   9.055   9.717  1.1865 -0.3399  0.6992
   69MOL0     H 9051  -0.106   9.191   9.567 -1.1621 -2.1187  1.1054
   69MOL0     H 9052  -0.171   9.147   9.716  0.2537 -1.3527  2.1474
   69MOL0     H 9053  -0.213   9.375   9.640 -0.2207  2.2917 -0.1905
   69MOL0     H 9054  -0.043   9.427   9.659 -0.0114 -0.6620  0.5658
   69MOL0     H 9055  -0.032   9.361   9.903  0.3527  0.6589  0.8263
   69MOL0     H 9056  -0.203   9.313   9.892  0.8835 -1.2990 -1.5266
   69MOL0     H 9057  -0.271   9.534   9.807  0.5617 -2.2861 -1.0866
   69MOL0     H 9058  -0.214   9.521   9.979 -0.1030  0.6956 -0.3024
   69MOL0     H 9059  -0.131   9.730   9.836 -1.9499  0.0997 -2.2581
   69MOL0     H 9060  -0.069   9.628   9.721 -2.3367 -0.0697 -0.7246
   69MOL0     H 9061   0.165   9.537   9.761 -0.3290  2.6790 -1.0639
   69MOL0     H 9062   0.446   9.581   9.924  1.5427  0.2056  3.4677
   69MOL0     H 9063   0.367   9.424   9.885  0.0296  0.8323 -0.4496
   69MOL0     H 9064   0.398   9.546  10.160 -0.0212 -1.8661 -0.1111
   69MOL0     H 9065   0.538   9.474  10.100 -0.3880  0.0281  1.1247
   69MOL0     H 9066   0.285   9.322  10.156  0.2802 -1.5991  2.2253
   69MOL0     H 9067   0.422   9.245  10.091 -4.2396 -1.9215  0.4182
   69MOL0     H 9068   0.394   9.231  10.344 -0.3157  1.5350  3.0214
   69MOL0     H 9069   0.421   9.404  10.344  1.0614 -0.8124  0.6462
   69MOL0     H 9070   0.496   9.047  10.321  1.1948 -0.2757 -0.4950
   69MOL0     H 9071   0.608   8.838  10.307  1.1107  0.1804  0.7065
   69MOL0     H 9072   0.872   8.663   9.861 -1.3511 -0.7658  1.4367
   69MOL0     H 9073   1.015   8.460   9.757 -0.2212 -0.7355  0.3396
   69MOL0     H 9074   1.362   8.493   9.853  0.5061 -0.6844  0.4544
   69MOL0     H 9075   1.358   8.369   9.749  0.8674  0.1942 -0.0618
   69MOL0     H 9076   1.440   8.206   9.924 -3.2010 -0.0682  1.5676
   69MOL0     H 9077   1.457   8.345  10.039 -4.1902  1.5496 -0.7691
   69MOL0     H 9078   1.626   8.457   9.908 -0.1774  0.0267 -0.6629
   69MOL0     H 9079   1.591   8.359   9.775 -4.7108  1.0043 -0.6982
   69MOL0     H 9080   1.698   8.243  10.042  0.3471 -1.0061  0.0535
   69MOL0     H 9081   1.671   8.148   9.894  1.4578  0.1203 -1.7726
   69MOL0     H 9082   1.859   8.381   9.890 -0.7915 -0.2022 -0.4214
   69MOL0     H 9083   1.854   8.237   9.791 -2.9395  1.1657 -0.6099
   69MOL0     H 9084   1.919   8.100   9.981 -0.6234 -0.7087  1.8581
   69MOL0     H 9085   1.930   8.242  10.086  0.0908 -0.3788 -0.8954
   69MOL0     H 9086   2.094   8.195   9.825 -2.0420 -1.0055  0.8623
   69MOL0     H 9087   2.095   8.340   9.911 -5.0605 -0.1361 -1.3307
   69MOL0     H 9088   2.205   8.259  10.106 -1.1214  0.1512 -0.3287
   69MOL0     H 9089   2.300   8.217   9.960 -0.0649 -0.0521 -0.8281
   69MOL0     H 9090   1.246   8.455  10.115 -0.6290 -0.7879  0.8581
   69MOL0     H 9091   1.143   8.644  10.197  4.1977 -2.8169 -0.0823
   69MOL0     H 9092   0.920   9.047  10.070 -0.7979  0.6183 -0.4803
   69MOL0     H 9093   0.833   9.260  10.138 -0.6462  1.4973  0.8658
   69MOL0     H 9094   0.579   9.173   9.459  2.6630  0.1316 -0.0426
   69MOL0     H 9095   0.775   9.029   9.489 -4.2958  0.5771 -3.1617
   69MOL0     H 9096   1.090   8.784   9.759 -0.9413  0.1649 -3.5770
   69MOL0     H 9097   1.305   8.733   9.810  0.1697  0.7209 -0.9359
   69MOL0     H 9098   1.454   9.018  10.049  1.0295  0.9833 -0.3367
   69MOL0     H 9099   1.610   9.024  10.007  1.6929 -1.5982  0.2743
   69MOL0     H 9100   1.612   8.893  10.208 -0.5765 -4.1710  1.4722
   69MOL0     H 9101   1.495   8.782  10.143 -0.3567 -0.2949 -1.0499
   69MOL0     H 9102   1.771   8.825  10.029 -0.2041  0.3767  1.7604
   69MOL0     H 9103   1.652   8.706   9.961  1.2773 -0.7301 -1.6532
   69MOL0     H 9104   1.714   8.682  10.260  4.1109  0.9787  0.4550
   69MOL0     H 9105   1.656   8.564  10.138 -1.7985  0.5670  1.0237
   69MOL0     H 9106   2.069   8.535  10.080  0.9053 -0.1952  2.3430
   69MOL0     H 9107   1.437   9.140   9.799  0.9574 -0.2299  0.8851
   69MOL0     H 9108   1.212   9.210   9.734 -0.6679  0.8832  3.7626
   70MOL0     O 9109   8.034   5.926  11.303  0.2253  0.1937 -0.0742
   70MOL0     C 9110   8.109   5.846  11.356  0.2463  0.3308  0.1270
   70MOL0     O 9111   8.077   5.725  11.410 -0.4024 -0.2409  0.4202
   70MOL0     C 9112   7.952   5.663  11.390 -0.4085  0.2402 -0.6139
   70MOL0     C 9113   7.882   5.609  11.497  0.3723 -0.2749 -0.3680
   70MOL0     C 9114   7.754   5.553  11.482  0.1493 -0.1116 -0.0099
   70MOL0     C 9115   7.711   5.529  11.353  0.1912  0.6705  0.4619
   70MOL0     O 9116   7.590   5.476  11.326  0.2396 -0.2648 -0.4772
   70MOL0     C 9117   7.499   5.445  11.439 -0.4887 -0.7508 -0.2773
   70MOL0     C 9118   7.360   5.416  11.383  1.0466  0.1638 -0.6628
   70MOL0     C 9119   7.256   5.393  11.496  0.1714 -0.0336 -0.3315
   70MOL0     C 9120   7.231   5.510  11.596 -0.6780  0.3116  1.1010
   70MOL0     C 9121   7.110   5.466  11.684 -0.0336 -0.4965 -0.8250
   70MOL0     C 9122   7.083   5.564  11.796  0.4496 -0.0495 -0.8000
   70MOL0     C 9123   7.182   5.574  11.916  0.1661  0.0202 -1.1363
   70MOL0     C 9124   7.204   5.440  11.977 -0.0204  0.0693  0.1100
   70MOL0     N 9125   7.267   5.456  12.111 -0.1233  0.5328  0.6094
   70MOL0     C 9126   7.405   5.439  12.132 -0.0736  0.8854  0.1697
   70MOL0     C 9127   7.412   5.428  12.266  0.3239 -0.7701  0.3877
   70MOL0     C 9128   7.527   5.417  12.355  0.6456 -0.6949 -0.2390
   70MOL0     C 9129   7.591   5.548  12.391 -0.0947  0.3681  0.7061
   70MOL0     C 9130   7.679   5.603  12.281 -0.1556 -0.6161 -0.4385
   70MOL0     C 9131   7.712   5.758  12.293  0.5808 -0.3028 -1.0893
   70MOL0     O 9132   7.606   5.817  12.218  0.2653 -0.2802 -0.4830
   70MOL0     C 9133   7.618   5.959  12.201 -0.4995 -0.1085 -0.3955
   70MOL0     C 9134   7.730   6.039  12.228  0.8757  0.3917  0.6346
   70MOL0     C 9135   7.728   6.174  12.189  0.0124 -0.4981  0.4480
   70MOL0     C 9136   7.615   6.232  12.130 -0.1353 -1.1090 -0.3047
   70MOL0     C 9137   7.620   6.378  12.083 -0.1467 -0.2385  0.4850
   70MOL0     O 9138   7.736   6.449  12.113  0.0024  0.1931  0.3098
   70MOL0     C 9139   7.721   6.578  12.090 -0.2289  0.0441 -0.3842
   70MOL0     C 9140   7.694   6.675  12.194  0.4238  0.4543  0.3720
   70MOL0     C 9141   7.687   6.814  12.167  0.3658 -0.3384 -0.1032
   70MOL0     C 9142   7.715   6.857  12.034 -0.4357  0.6520 -0.6666
   70MOL0     O 9143   7.716   6.986  12.000 -0.3589  0.0506 -0.1045
   70MOL0     C 9144   7.757   7.081  12.098  0.1647 -0.3090 -0.2423
   70MOL0     C 9145   7.747   7.218  12.032  0.4106 -0.4282 -0.1995
   70MOL0     C 9146   7.602   7.264  12.003 -0.5407  0.8375 -1.0010
   70MOL0     C 9147   7.603   7.386  11.909 -0.5680  0.1080  0.5134
   70MOL0     C 9148   7.685   7.505  11.961 -0.7050 -0.1398  0.0753
   70MOL0     C 9149   7.673   7.624  11.854 -0.8623 -0.0763 -0.3049
   70MOL0     C 9150   7.544   7.714  11.879 -0.7619 -0.0178  0.4087
   70MOL0     C 9151   7.509   7.788  11.753 -0.3558 -0.8047  1.1648
   70MOL0    Cl 9152   7.428   7.681  11.626  0.1748 -0.3688 -0.0424
   70MOL0     C 9153   7.739   6.765  11.935  0.6941  0.7747  0.3146
   70MOL0     C 9154   7.744   6.629  11.960 -0.1193  0.1105  0.5202
   70MOL0     O 9155   7.508   6.425  12.048 -0.0343 -0.1571 -0.5924
   70MOL0     C 9156   7.509   6.144  12.109  0.6067 -0.2382 -0.8400
   70MOL0     C 9157   7.510   6.005  12.142  0.0676  0.7342  0.0246
   70MOL0     N 9158   7.282   5.429  12.318 -0.1754 -0.8001  0.2010
   70MOL0     N 9159   7.190   5.452  12.225 -0.4607 -0.5706  0.0881
   70MOL0     C 9160   7.777   5.573  11.239 -0.8031 -0.8116  0.4061
   70MOL0     C 9161   7.899   5.651  11.258  0.7165 -0.4668 -0.3900
   70MOL0     C 9162   8.244   5.901  11.375 -0.1940  0.5665  0.4420
   70MOL0     C 9163   8.300   5.982  11.276  0.8754  0.6765 -0.4471
   70MOL0     C 9164   8.437   6.026  11.291  0.3024  0.5537  0.5905
   70MOL0     C 9165   8.512   5.995  11.410 -0.1396  0.5009  0.6343
   70MOL0     O 9166   8.648   6.022  11.424 -0.8889  0.0558 -0.2000
   70MOL0     C 9167   8.711   6.130  11.352 -0.4531 -0.0908 -0.7809
   70MOL0     C 9168   8.787   6.087  11.224 -1.3263  0.3735 -0.3340
   70MOL0     C 9169   8.868   6.193  11.145  0.0625 -0.3517  0.1812
   70MOL0     C 9170   8.935   6.153  11.010 -0.1460  0.0895 -0.4943
   70MOL0     C 9171   9.039   6.053  11.029 -0.1574 -0.4220 -0.7566
   70MOL0     C 9172   9.129   5.970  11.032 -0.3309 -0.0016 -0.5403
   70MOL0     C 9173   8.454   5.914  11.503 -0.9065 -0.6176  0.6293
   70MOL0     C 9174   8.328   5.870  11.486  0.3307 -0.2457 -0.0244
   70MOL0     H 9175   7.909   5.622  11.602 -1.9887 -0.5969  0.3399
   70MOL0     H 9176   7.699   5.521  11.570 -1.9345  0.9359 -0.8550
   70MOL0     H 9177   7.495   5.533  11.504 -2.9714 -0.6205 -0.5300
   70MOL0     H 9178   7.531   5.359  11.498  5.1059  0.9147 -0.3151
   70MOL0     H 9179   7.381   5.329  11.321 -0.2084  0.3748 -1.4431
   70MOL0     H 9180   7.322   5.497  11.319 -0.0135 -1.3142 -2.0057
   70MOL0     H 9181   7.292   5.308  11.555  0.5910  0.1192 -0.3607
   70MOL0     H 9182   7.164   5.366  11.443  1.9379  0.0423 -3.7484
   70MOL0     H 9183   7.323   5.520  11.655 -0.0424 -0.1522  0.2086
   70MOL0     H 9184   7.206   5.602  11.543 -0.8252  0.7284  1.8782
   70MOL0     H 9185   7.106   5.362  11.716 -2.5133  0.2016  1.4678
   70MOL0     H 9186   7.023   5.478  11.619  1.4091  3.0814 -2.3956
   70MOL0     H 9187   6.983   5.537  11.832  0.4755  2.4471  1.4445
   70MOL0     H 9188   7.092   5.668  11.764  1.0108  0.1050 -0.1569
   70MOL0     H 9189   7.279   5.600  11.872 -0.6338 -0.4040 -3.2551
   70MOL0     H 9190   7.140   5.639  11.993 -1.5581 -2.2933  0.0242
   70MOL0     H 9191   7.269   5.389  11.905  0.7434 -1.0902  1.5769
   70MOL0     H 9192   7.106   5.392  11.986 -0.8581  1.5230 -0.6364
   70MOL0     H 9193   7.485   5.441  12.060 -0.3228 -0.5640 -0.1839
   70MOL0     H 9194   7.599   5.343  12.318  0.5994 -0.4673 -0.8047
   70MOL0     H 9195   7.496   5.367  12.447  1.0971 -3.1098 -1.3033
   70MOL0     H 9196   7.661   5.534  12.474  2.9786  2.7144 -1.2406
   70MOL0     H 9197   7.514   5.623  12.412  0.9284  1.9226 -0.8288
   70MOL0     H 9198   7.773   5.548  12.276 -0.3451 -1.0123  0.3208
   70MOL0     H 9199   7.629   5.589  12.185  1.3507 -2.4756 -1.0073
   70MOL0     H 9200   7.812   5.785  12.258  1.7568  1.3033  2.9621
   70MOL0     H 9201   7.707   5.795  12.396 -0.8541  0.5519 -1.4345
   70MOL0     H 9202   7.824   6.012  12.275  0.9901 -0.9470 -0.3080
   70MOL0     H 9203   7.819   6.230  12.204 -0.7257  0.3549  2.0260
   70MOL0     H 9204   7.681   6.639  12.296  1.5047  0.0105  0.3607
   70MOL0     H 9205   7.676   6.869  12.260  2.2284 -2.6543  1.6519
   70MOL0     H 9206   7.856   7.064  12.143  1.1509 -3.2223 -3.0957
   70MOL0     H 9207   7.682   7.082  12.177 -3.0686 -4.0586 -2.8635
   70MOL0     H 9208   7.795   7.204  11.935 -1.1853  0.3004 -1.1404
   70MOL0     H 9209   7.802   7.291  12.091  3.1581 -1.2348 -1.6004
   70MOL0     H 9210   7.556   7.279  12.101  0.4301  0.3752 -0.4596
   70MOL0     H 9211   7.537   7.185  11.965 -1.4780 -1.1568  3.9959
   70MOL0     H 9212   7.631   7.351  11.809 -3.2046  2.0495 -1.0489
   70MOL0     H 9213   7.502   7.423  11.890  0.5895  4.0214  1.0923
   70MOL0     H 9214   7.789   7.471  11.959  0.6582  3.5967  0.3451
   70MOL0     H 9215   7.666   7.542  12.063  3.6049  1.1015  0.6276
   70MOL0     H 9216   7.670   7.576  11.756  1.9426  0.7224 -0.8740
   70MOL0     H 9217   7.763   7.685  11.843 -0.4424 -0.7734 -0.7918
   70MOL0     H 9218   7.464   7.644  11.904 -1.3290  0.4833  0.0128
   70MOL0     H 9219   7.572   7.788  11.954 -0.7655  2.2474 -1.7091
   70MOL0     H 9220   7.591   7.849  11.712 -0.4034 -0.4193  1.6264
   70MOL0     H 9221   7.438   7.869  11.775 -0.0992 -0.6043  1.2711
   70MOL0     H 9222   7.765   6.808  11.839 -0.8222  4.5686  1.4344
   70MOL0     H 9223   7.771   6.559  11.881 -0.4449 -0.6741  1.1011
   70MOL0     H 9224   7.413   6.177  12.072  0.4436 -0.4533 -0.6079
   70MOL0     H 9225   7.426   5.942  12.116  1.6391 -1.1732 -0.7175
   70MOL0     H 9226   7.743   5.561  11.137 -2.3329  0.0356  0.7915
   70MOL0     H 9227   7.962   5.692  11.179  1.9268 -2.6012 -0.6248
   70MOL0     H 9228   8.236   6.014  11.195 -2.3550  0.3885  1.8419
   70MOL0     H 9229   8.484   6.086  11.214  0.0108  1.8528  1.3949
   70MOL0     H 9230   8.781   6.182  11.419 -1.4745  1.8710 -1.1571
   70MOL0     H 9231   8.632   6.200  11.324 -0.1599  1.5909  2.1890
   70MOL0     H 9232   8.860   6.012  11.258 -0.9260 -0.4233 -2.7276
   70MOL0     H 9233   8.712   6.030  11.168 -2.1255  1.5277 -0.4723
   70MOL0     H 9234   8.955   6.224  11.203  2.1417  0.3490 -3.0280
   70MOL0     H 9235   8.801   6.278  11.129 -1.1496 -0.9886  1.6131
   70MOL0     H 9236   8.854   6.118  10.945  0.7223  1.0262 -2.1477
   70MOL0     H 9237   8.976   6.242  10.961 -1.0006  1.7707  1.6563
   70MOL0     H 9238   9.196   5.888  11.052  0.7585  1.3945  2.0134
   70MOL0     H 9239   8.523   5.886  11.583 -0.4371 -0.9005  0.1303
   70MOL0     H 9240   8.281   5.802  11.556  0.4790  1.4238  1.7852
   71MOL0     O 9241   1.825   5.634   6.774  0.4884 -0.1245 -0.3305
   71MOL0     C 9242   1.802   5.757   6.773  0.2535  0.5268 -1.0816
   71MOL0     O 9243   1.675   5.810   6.766 -0.1765 -0.5325 -0.7811
   71MOL0     C 9244   1.567   5.737   6.739  0.2430  0.9236 -0.1597
   71MOL0     C 9245   1.567   5.656   6.619 -0.1191  0.4641  0.2771
   71MOL0     C 9246   1.461   5.560   6.600  0.4028  0.3345  0.8653
   71MOL0     C 9247   1.359   5.550   6.695  0.8670 -0.3523  0.4461
   71MOL0     O 9248   1.262   5.456   6.678  0.6366  0.7515 -0.3912
   71MOL0     C 9249   1.301   5.329   6.622  0.1159 -0.1450  0.9693
   71MOL0     C 9250   1.191   5.226   6.663 -0.1163  0.8114 -0.3265
   71MOL0     C 9251   1.055   5.234   6.585  0.2389 -0.0437 -0.5364
   71MOL0     C 9252   0.979   5.104   6.616  0.8853  0.8892  0.1840
   71MOL0     C 9253   0.839   5.102   6.553  0.6795 -0.4128  0.4675
   71MOL0     C 9254   0.744   5.208   6.621 -0.0138 -0.0226 -0.2131
   71MOL0     C 9255   0.634   5.246   6.519  0.5662 -0.9819  0.2734
   71MOL0     C 9256   0.545   5.121   6.476  0.2695  0.2363 -0.0144
   71MOL0     N 9257   0.438   5.163   6.395 -0.1525 -0.8991 -0.1295
   71MOL0     C 9258   0.437   5.198   6.262 -0.4144  1.1015 -0.0583
   71MOL0     C 9259   0.303   5.207   6.234  0.2567 -0.1287  0.5672
   71MOL0     C 9260   0.248   5.265   6.106  0.1650 -0.1750 -0.1145
   71MOL0     C 9261   0.108   5.209   6.058 -0.9026  0.0267 -0.8694
   71MOL0     C 9262  -0.006   5.297   6.111 -0.3865  0.1539 -0.0992
   71MOL0     C 9263  -0.146   5.252   6.058 -0.0621  0.0165  0.0081
   71MOL0     O 9264  -0.232   5.348   6.120  0.7302  0.0410 -0.0394
   71MOL0     C 9265  -0.362   5.322   6.118 -0.7158  0.2717  1.0975
   71MOL0     C 9266  -0.428   5.256   6.225 -0.2698  0.1555  0.1803
   71MOL0     C 9267  -0.562   5.237   6.222 -0.3855 -0.6222  0.6494
   71MOL0     C 9268  -0.635   5.292   6.112 -0.2098 -0.3642  0.2140
   71MOL0     C 9269  -0.784   5.285   6.116  0.1333 -0.2774  0.4457
   71MOL0     O 9270  -0.858   5.404   6.075  0.5110 -0.3616 -0.3681
   71MOL0     C 9271  -0.990   5.426   6.093  0.5681  0.4303 -0.9382
   71MOL0     C 9272  -1.097   5.327   6.124 -0.9886  0.4023  0.1959
   71MOL0     C 9273  -1.233   5.362   6.117  0.3085 -0.0043  0.3959
   71MOL0     C 9274  -1.270   5.498   6.096  0.4549  0.2809 -0.2271
   71MOL0     O 9275  -1.405   5.536   6.091  0.1774 -0.2559 -1.0208
   71MOL0     C 9276  -1.515   5.450   6.079 -0.1226  0.7990 -0.4320
   71MOL0     C 9277  -1.524   5.401   5.933  0.3351  0.1941  0.2898
   71MOL0     C 9278  -1.648   5.321   5.896  0.2389 -0.3253 -0.3223
   71MOL0     C 9279  -1.653   5.263   5.751 -0.1322 -0.5216 -0.2717
   71MOL0     C 9280  -1.777   5.164   5.737 -0.3495  1.2061 -0.2250
   71MOL0     C 9281  -1.745   5.028   5.799 -0.2602 -0.0465  0.2496
   71MOL0     C 9282  -1.847   4.920   5.758 -0.2435  0.1182 -0.6489
   71MOL0     C 9283  -1.805   4.782   5.813 -0.5617 -1.0491  0.9212
   71MOL0    Cl 9284  -1.659   4.702   5.723  0.1147  0.2834 -0.0961
   71MOL0     C 9285  -1.175   5.589   6.072 -0.1831  1.1063  0.1518
   71MOL0     C 9286  -1.032   5.554   6.073  0.3915  0.0177 -1.1695
   71MOL0     O 9287  -0.833   5.181   6.150  0.5647 -0.0585  0.3297
   71MOL0     C 9288  -0.570   5.357   6.009  0.1489 -0.4832  0.3657
   71MOL0     C 9289  -0.429   5.376   6.004  0.0296 -0.6857  0.2138
   71MOL0     N 9290   0.226   5.184   6.348  0.4230 -0.0982  0.6823
   71MOL0     N 9291   0.309   5.157   6.440  0.4878 -0.0765 -0.6491
   71MOL0     C 9292   1.348   5.654   6.802 -0.0638  0.0393 -0.9105
   71MOL0     C 9293   1.451   5.739   6.824 -0.8616 -0.3766 -0.1683
   71MOL0     C 9294   1.924   5.842   6.766  0.2513 -0.9862 -1.1892
   71MOL0     C 9295   1.933   5.962   6.699 -0.0154 -0.5564  0.3800
   71MOL0     C 9296   2.049   6.034   6.691 -0.2500 -0.1198 -0.8696
   71MOL0     C 9297   2.160   5.994   6.764 -0.5260 -0.9532  0.0262
   71MOL0     O 9298   2.265   6.085   6.771  0.3833  0.5372 -0.6772
   71MOL0     C 9299   2.371   6.072   6.866 -0.4860 -0.1141  0.3835
   71MOL0     C 9300   2.411   6.219   6.902  0.4297  0.4343  0.5831
   71MOL0     C 9301   2.456   6.299   6.773  0.8017  0.3229  0.5585
   71MOL0     C 9302   2.413   6.448   6.781 -0.6434  0.6373 -0.0443
   71MOL0     C 9303   2.267   6.456   6.806 -0.4839 -1.0699 -0.4447
   71MOL0     C 9304   2.152   6.462   6.810  1.2097 -0.0357  0.0399
   71MOL0     C 9305   2.172   5.872   6.817  0.6160  0.2357  0.1688
   71MOL0     C 9306   2.045   5.795   6.825 -0.0029 -0.2364  0.1661
   71MOL0     H 9307   1.654   5.648   6.555  1.4179 -0.0924  2.3004
   71MOL0     H 9308   1.465   5.496   6.512 -4.2743  2.5585 -1.3599
   71MOL0     H 9309   1.399   5.290   6.651  0.1684  0.0474  1.0510
   71MOL0     H 9310   1.298   5.323   6.513 -3.3965 -1.3526  1.0331
   71MOL0     H 9311   1.171   5.224   6.771  1.5128 -1.0399  0.0100
   71MOL0     H 9312   1.229   5.125   6.651 -1.5851 -0.3541  3.3285
   71MOL0     H 9313   1.059   5.246   6.477  0.2605 -1.8260 -0.7672
   71MOL0     H 9314   1.005   5.324   6.620  0.8254  0.2246 -0.3682
   71MOL0     H 9315   1.036   5.020   6.576 -1.2291 -0.2622 -0.5604
   71MOL0     H 9316   0.958   5.105   6.724  0.2421  1.7095  0.0683
   71MOL0     H 9317   0.795   5.002   6.563  1.0988 -0.8477 -1.6051
   71MOL0     H 9318   0.848   5.121   6.445  0.0458  0.8790  0.6208
   71MOL0     H 9319   0.805   5.294   6.654  0.9780  0.4706 -3.0126
   71MOL0     H 9320   0.704   5.160   6.710 -2.1070  0.5392 -0.7865
   71MOL0     H 9321   0.560   5.319   6.552 -0.2429 -1.9841  0.7325
   71MOL0     H 9322   0.684   5.295   6.435  0.7166  0.2411  1.0500
   71MOL0     H 9323   0.504   5.074   6.566  3.7260 -4.0269 -0.3506
   71MOL0     H 9324   0.612   5.048   6.430  2.7880  2.0442  0.6267
   71MOL0     H 9325   0.519   5.216   6.193 -1.8271  0.9609 -1.8543
   71MOL0     H 9326   0.325   5.231   6.035 -0.1518  0.2852 -0.6856
   71MOL0     H 9327   0.247   5.374   6.110 -2.1270 -0.1928  3.3705
   71MOL0     H 9328   0.097   5.107   6.095  0.2919  0.5723  1.1715
   71MOL0     H 9329   0.099   5.213   5.949 -3.0831 -1.7229 -0.8267
   71MOL0     H 9330  -0.008   5.290   6.220 -1.8850  0.1958 -0.1153
   71MOL0     H 9331   0.025   5.400   6.094  1.8710  0.0488  2.6251
   71MOL0     H 9332  -0.176   5.148   6.074 -0.0131 -0.0401 -0.2623
   71MOL0     H 9333  -0.142   5.269   5.950 -6.4037  0.5114 -0.5414
   71MOL0     H 9334  -0.365   5.231   6.309  0.6749  4.2945  0.8918
   71MOL0     H 9335  -0.609   5.179   6.300  1.2744 -1.5462  1.0198
   71MOL0     H 9336  -1.086   5.221   6.142 -3.5126  0.0574  0.1461
   71MOL0     H 9337  -1.314   5.290   6.130 -0.3548  0.4026 -1.2306
   71MOL0     H 9338  -1.605   5.507   6.103 -1.0749  0.0114 -1.9818
   71MOL0     H 9339  -1.507   5.372   6.156  3.2334  0.6696 -0.7682
   71MOL0     H 9340  -1.433   5.343   5.916  1.0426  1.2724  0.2766
   71MOL0     H 9341  -1.524   5.489   5.868  0.5832  0.2226  0.3266
   71MOL0     H 9342  -1.738   5.379   5.921  0.6190  0.0291  0.2273
   71MOL0     H 9343  -1.661   5.233   5.959 -0.0231 -0.9869 -1.2652
   71MOL0     H 9344  -1.654   5.345   5.679  1.9865  1.0302  1.3233
   71MOL0     H 9345  -1.558   5.213   5.731 -0.3452 -1.1949  0.3662
   71MOL0     H 9346  -1.802   5.155   5.630  2.2803  0.7871 -0.8857
   71MOL0     H 9347  -1.865   5.202   5.790 -1.2415 -1.3578  0.2838
   71MOL0     H 9348  -1.756   5.036   5.907  1.0458 -1.3891  0.5142
   71MOL0     H 9349  -1.641   5.012   5.770 -0.9980 -0.0449 -2.7391
   71MOL0     H 9350  -1.947   4.941   5.799 -1.8853  0.4103 -4.3970
   71MOL0     H 9351  -1.865   4.897   5.653  0.0420 -2.0129 -0.2787
   71MOL0     H 9352  -1.890   4.714   5.809 -1.2515 -0.3599  2.6977
   71MOL0     H 9353  -1.782   4.792   5.920 -1.3808 -0.8717  1.0901
   71MOL0     H 9354  -1.216   5.687   6.050 -2.1190  1.2567  3.6528
   71MOL0     H 9355  -0.958   5.622   6.031  2.6914 -0.8548  1.1464
   71MOL0     H 9356  -0.632   5.399   5.931 -1.6696  0.7333  2.3437
   71MOL0     H 9357  -0.389   5.429   5.918  0.5532 -1.4100  0.0014
   71MOL0     H 9358   1.284   5.635   6.887  0.8030 -1.4233 -0.5374
   71MOL0     H 9359   1.451   5.807   6.909 -0.5082 -0.2844 -0.2420
   71MOL0     H 9360   1.847   6.002   6.645  1.7012 -0.1922 -2.2692
   71MOL0     H 9361   2.047   6.132   6.645 -0.7906  0.2915 -0.0048
   71MOL0     H 9362   2.454   6.019   6.818 -1.1161  0.1586 -1.0562
   71MOL0     H 9363   2.339   6.015   6.954 -0.1991 -0.3122  0.3624
   71MOL0     H 9364   2.326   6.270   6.949  0.5362  2.1109 -0.9382
   71MOL0     H 9365   2.499   6.211   6.967 -0.0994  0.0560  1.2745
   71MOL0     H 9366   2.411   6.262   6.681  0.7588  0.4971  0.5083
   71MOL0     H 9367   2.565   6.304   6.762  0.8470  3.7092  1.2972
   71MOL0     H 9368   2.476   6.513   6.842 -2.1754  2.0025  0.1512
   71MOL0     H 9369   2.428   6.480   6.677 -0.5638  2.2938  0.4449
   71MOL0     H 9370   2.046   6.468   6.803  1.3993  1.8076 -3.1631
   71MOL0     H 9371   2.261   5.839   6.869  0.0459  2.1053  2.5418
   71MOL0     H 9372   2.038   5.692   6.860  3.3147 -0.4598  0.4926
   72MOL0     O 9373   5.542  10.539  10.888  0.2061 -0.5061  0.2715
   72MOL0     C 9374   5.532  10.414  10.913 -0.4828 -0.6635  0.1530
   72MOL0     O 9375   5.417  10.349  10.936 -0.1713  0.2573  0.0829
   72MOL0     C 9376   5.292  10.400  10.906 -0.0585 -0.3450  0.4675
   72MOL0     C 9377   5.187  10.370  10.994  0.0401 -0.3484  0.3895
   72MOL0     C 9378   5.059  10.413  10.966  0.4306  0.4450  0.8904
   72MOL0     C 9379   5.024  10.478  10.847 -0.3031 -0.2047 -0.1643
   72MOL0     O 9380   4.908  10.542  10.829  0.1066  0.1754 -0.1935
   72MOL0     C 9381   4.889  10.654  10.914  0.1907  0.0691  0.5461
   72MOL0     C 9382   4.788  10.744  10.834 -0.4704  0.5799 -0.0136
   72MOL0     C 9383   4.662  10.665  10.814  0.1880 -0.4348 -0.0542
   72MOL0     C 9384   4.547  10.740  10.764  0.6796 -0.0348  0.8630
   72MOL0     C 9385   4.459  10.803  10.873  0.5278 -0.3800 -1.0941
   72MOL0     C 9386   4.338  10.871  10.814 -0.6539 -0.6980  0.3458
   72MOL0     C 9387   4.234  10.888  10.919  0.4140 -0.2169 -0.4555
   72MOL0     C 9388   4.105  10.923  10.852  0.7112  0.6197 -0.3937
   72MOL0     N 9389   3.996  10.924  10.949 -0.8097 -0.3700  0.3627
   72MOL0     C 9390   3.956  11.031  11.024 -0.6028 -0.1249 -1.0964
   72MOL0     C 9391   3.851  10.987  11.086  0.4554 -1.0502  0.2028
   72MOL0     C 9392   3.788  11.064  11.202 -0.2406 -0.9860 -0.6012
   72MOL0     C 9393   3.637  11.106  11.170  0.1084 -0.0224  0.4793
   72MOL0     C 9394   3.551  10.998  11.108 -0.2446  1.1490 -0.3652
   72MOL0     C 9395   3.415  11.059  11.070  0.2061  0.1877  0.3320
   72MOL0     O 9396   3.329  10.954  11.026 -0.3294  1.0121 -0.0002
   72MOL0     C 9397   3.203  10.969  11.055 -0.0554 -0.3829 -0.9958
   72MOL0     C 9398   3.149  10.950  11.186 -0.0060  0.3836  0.6918
   72MOL0     C 9399   3.015  10.979  11.207  0.0455  0.2490  0.2449
   72MOL0     C 9400   2.929  11.034  11.098 -0.8071 -0.4464 -1.0884
   72MOL0     C 9401   2.785  11.061  11.126 -0.0179 -0.3441 -0.1639
   72MOL0     O 9402   2.711  11.134  11.042 -0.0096  0.0874  0.7774
   72MOL0     C 9403   2.579  11.108  11.028 -0.4922  0.5604  0.5108
   72MOL0     C 9404   2.503  11.216  10.996 -0.4197 -0.6986  0.8030
   72MOL0     C 9405   2.365  11.203  10.966 -0.4113 -0.5046  0.1050
   72MOL0     C 9406   2.301  11.083  10.974  0.4560  0.0599  0.9816
   72MOL0     O 9407   2.175  11.068  10.936 -0.3255 -0.7664 -0.0292
   72MOL0     C 9408   2.133  11.138  10.814  0.8320  0.9203 -0.4321
   72MOL0     C 9409   2.020  11.058  10.753  0.4302  0.3297 -0.2553
   72MOL0     C 9410   1.882  11.087  10.819 -0.5436  0.7697  0.0413
   72MOL0     C 9411   1.770  11.018  10.739 -0.2905 -0.0476 -0.2470
   72MOL0     C 9412   1.649  11.112  10.757 -0.3697  0.0473  0.4208
   72MOL0     C 9413   1.516  11.055  10.696 -0.2422 -0.2010  0.1441
   72MOL0     C 9414   1.449  10.941  10.779 -0.0662  0.6195  0.1158
   72MOL0     C 9415   1.344  10.970  10.896 -0.7234  0.4929  0.4391
   72MOL0    Cl 9416   1.217  11.070  10.813  0.6056 -0.0766 -0.2228
   72MOL0     C 9417   2.378  10.968  11.001  0.5433 -0.5181 -0.1209
   72MOL0     C 9418   2.516  10.979  11.029 -0.5159 -0.5094 -0.1510
   72MOL0     O 9419   2.741  11.016  11.230 -0.0030 -0.6634 -0.4480
   72MOL0     C 9420   2.985  11.037  10.977  0.1685  0.3691  0.0370
   72MOL0     C 9421   3.114  11.005  10.951  0.2401  0.5797  0.2911
   72MOL0     N 9422   3.832  10.854  11.064 -0.0872  0.9799  0.3834
   72MOL0     N 9423   3.923  10.817  10.993 -0.4493  0.1962  0.5702
   72MOL0     C 9424   5.130  10.515  10.761  0.9753  0.1502  0.2029
   72MOL0     C 9425   5.257  10.466  10.785 -0.5539  0.1559  0.9718
   72MOL0     C 9426   5.650  10.331  10.898  0.7214  1.0422 -0.9385
   72MOL0     C 9427   5.651  10.193  10.913  0.1063 -0.2456  0.0049
   72MOL0     C 9428   5.763  10.112  10.900 -0.5062 -0.7667 -1.8117
   72MOL0     C 9429   5.886  10.169  10.855  0.1414  0.4404 -0.1214
   72MOL0     O 9430   5.998  10.100  10.824 -0.4515  0.6536  1.3547
   72MOL0     C 9431   6.038   9.982  10.901  1.3786  0.5946  0.1959
   72MOL0     C 9432   6.173   9.932  10.847  0.0635 -1.1369 -0.2331
   72MOL0     C 9433   6.279  10.048  10.842  0.7131 -0.8270  0.3438
   72MOL0     C 9434   6.385  10.012  10.746 -0.3862 -0.2171 -0.0729
   72MOL0     C 9435   6.492  10.110  10.755 -0.3414  0.5937 -0.4289
   72MOL0     C 9436   6.574  10.200  10.748 -0.6530  0.9399  0.2557
   72MOL0     C 9437   5.882  10.304  10.832 -1.0374 -1.0990  0.6088
   72MOL0     C 9438   5.772  10.383  10.855  0.5795 -0.2587  0.8014
   72MOL0     H 9439   5.199  10.319  11.089  0.2230  0.6588  0.9243
   72MOL0     H 9440   4.970  10.391  11.023 -0.9886  0.7451 -1.1137
   72MOL0     H 9441   4.980  10.713  10.926 -1.1169  1.7805  2.9062
   72MOL0     H 9442   4.840  10.625  11.008 -3.8122  1.4704 -0.9043
   72MOL0     H 9443   4.845  10.779  10.748  3.3752  0.4113  2.2501
   72MOL0     H 9444   4.764  10.832  10.896 -1.1679 -0.3641  1.1017
   72MOL0     H 9445   4.635  10.604  10.901  0.7739 -0.6645 -0.0277
   72MOL0     H 9446   4.688  10.590  10.739  3.5141  0.8862 -0.4058
   72MOL0     H 9447   4.567  10.829  10.705 -1.3837  1.0089  1.6536
   72MOL0     H 9448   4.493  10.675  10.694  2.6709  1.0573 -1.8718
   72MOL0     H 9449   4.514  10.871  10.938 -0.5146 -2.2298  1.9090
   72MOL0     H 9450   4.423  10.717  10.930 -0.4500 -0.1063 -1.2760
   72MOL0     H 9451   4.300  10.807  10.733 -1.6816 -1.0001  1.0435
   72MOL0     H 9452   4.354  10.975  10.782 -1.8215  0.1556  2.3622
   72MOL0     H 9453   4.234  10.806  10.992  2.9219  0.6867  0.6730
   72MOL0     H 9454   4.269  10.972  10.980 -2.7668 -1.8425  4.1679
   72MOL0     H 9455   4.077  10.858  10.769  1.2486 -0.2918  0.1252
   72MOL0     H 9456   4.110  11.029  10.827  0.9240  1.2302  1.9415
   72MOL0     H 9457   4.002  11.127  11.047  0.0667 -0.6160 -0.3588
   72MOL0     H 9458   3.854  11.149  11.223 -0.1547 -1.0866 -0.4594
   72MOL0     H 9459   3.772  10.999  11.288  1.3275 -0.2634  0.2810
   72MOL0     H 9460   3.644  11.186  11.096 -0.6225  0.9235  1.3914
   72MOL0     H 9461   3.591  11.150  11.259 -1.8200  1.1086 -1.0039
   72MOL0     H 9462   3.581  10.957  11.011 -0.5468  0.9863 -0.3924
   72MOL0     H 9463   3.533  10.916  11.178  0.1077 -1.3983 -3.0513
   72MOL0     H 9464   3.436  11.136  10.995  1.6616  0.7318  1.2580
   72MOL0     H 9465   3.374  11.114  11.156  2.0691 -0.3179  1.5965
   72MOL0     H 9466   3.208  10.907  11.267 -0.3932 -1.4851  0.0230
   72MOL0     H 9467   2.968  10.941  11.297  1.8550 -1.6961  0.4455
   72MOL0     H 9468   2.533  11.321  10.996 -2.2233 -0.1494  0.4291
   72MOL0     H 9469   2.318  11.296  10.937  2.9244  0.8566 -1.4232
   72MOL0     H 9470   2.212  11.138  10.738 -0.5173  1.0475 -1.8913
   72MOL0     H 9471   2.109  11.243  10.833  2.6035  1.0201  1.5795
   72MOL0     H 9472   2.045  10.952  10.744 -1.5763 -0.0624 -2.0365
   72MOL0     H 9473   2.001  11.095  10.652 -0.3098  0.7222  0.0179
   72MOL0     H 9474   1.867  11.195  10.814  0.8937  0.9971  0.1923
   72MOL0     H 9475   1.876  11.045  10.920  1.4592 -0.4466 -0.2870
   72MOL0     H 9476   1.805  11.004  10.637  0.8143 -2.9012  0.4314
   72MOL0     H 9477   1.750  10.920  10.784 -0.7921 -0.8930 -2.2149
   72MOL0     H 9478   1.672  11.203  10.702  0.1453  0.2516  0.9663
   72MOL0     H 9479   1.645  11.138  10.863 -3.8642  0.8095  0.2212
   72MOL0     H 9480   1.543  11.009  10.601 -0.3911 -1.2736  0.6097
   72MOL0     H 9481   1.447  11.137  10.675 -0.9532 -0.5287  1.1128
   72MOL0     H 9482   1.403  10.868  10.711  0.0884 -0.0582  0.7281
   72MOL0     H 9483   1.534  10.888  10.824  1.3727  2.0893 -0.7869
   72MOL0     H 9484   1.392  11.028  10.975  1.4941 -1.0317  0.3072
   72MOL0     H 9485   1.289  10.882  10.932 -2.0391  0.9523 -0.3733
   72MOL0     H 9486   2.322  10.877  11.020  0.4241 -0.5993 -0.8223
   72MOL0     H 9487   2.575  10.891  11.053 -3.2305 -2.2208  0.7104
   72MOL0     H 9488   2.929  11.072  10.891 -2.1907  2.6085  2.2813
   72MOL0     H 9489   3.170  11.015  10.859  1.5039 -1.6435  0.7600
   72MOL0     H 9490   5.114  10.603  10.700 -0.6477  3.6601  5.0063
   72MOL0     H 9491   5.336  10.512  10.726 -3.4363  3.7680 -0.4690
   72MOL0     H 9492   5.555  10.143  10.921 -0.6803  1.4613  2.8325
   72MOL0     H 9493   5.764  10.007  10.925  0.7744 -0.5124 -0.6427
   72MOL0     H 9494   5.966   9.900  10.891  2.2728 -1.3496  6.0315
   72MOL0     H 9495   6.040  10.009  11.007  0.6331 -0.2255  0.4269
   72MOL0     H 9496   6.204   9.850  10.913 -2.5711 -2.5301 -0.5786
   72MOL0     H 9497   6.157   9.898  10.745  1.5878 -0.7183 -0.6354
   72MOL0     H 9498   6.324  10.068  10.940 -1.2093  1.9254  0.7786
   72MOL0     H 9499   6.233  10.136  10.797 -2.3500 -3.0098 -1.1054
   72MOL0     H 9500   6.424   9.912  10.767  2.0289  0.6198 -0.2519
   72MOL0     H 9501   6.353  10.016  10.642  0.9696  2.8817 -0.4965
   72MOL0     H 9502   6.642  10.281  10.732 -1.0444  1.7161  2.3328
   72MOL0     H 9503   5.970  10.357  10.796  0.5135 -3.2131  1.0801
   72MOL0     H 9504   5.782  10.491  10.862 -0.6196 -0.1608  1.1522
   73MOL0     O 9505   9.289   0.042   6.915 -0.6952  0.1237 -0.0791
   73MOL0     C 9506   9.248   0.132   6.983  0.2465  0.6080 -0.2699
   73MOL0     O 9507   9.133   0.196   6.961  0.6593 -0.0657  0.0026
   73MOL0     C 9508   9.032   0.140   6.884  0.2245 -0.3934 -0.1112
   73MOL0     C 9509   9.002   0.002   6.891 -0.3404  0.6100  0.6091
   73MOL0     C 9510   8.905  -0.055   6.813 -0.0435 -0.3378 -0.1791
   73MOL0     C 9511   8.829   0.027   6.727  0.9635 -0.7560 -0.0940
   73MOL0     O 9512   8.748  -0.041   6.636  0.2615  0.7527  0.2350
   73MOL0     C 9513   8.672   0.032   6.544  0.0947 -0.0247 -1.4335
   73MOL0     C 9514   8.593  -0.066   6.464 -0.5151 -0.2371  0.1223
   73MOL0     C 9515   8.505   0.010   6.370  0.1546 -0.2533 -0.0535
   73MOL0     C 9516   8.424  -0.076   6.277  0.3894  0.8975 -1.0401
   73MOL0     C 9517   8.309  -0.165   6.337 -0.2855  0.4533 -0.0088
   73MOL0     C 9518   8.217  -0.229   6.236 -0.4605  0.0194  0.2589
   73MOL0     C 9519   8.112  -0.328   6.298  0.0415 -0.1773 -0.9014
   73MOL0     C 9520   8.012  -0.384   6.197 -0.2777 -0.1409  0.6582
   73MOL0     N 9521   7.883  -0.439   6.247  0.3195  0.4100  0.2729
   73MOL0     C 9522   7.828  -0.543   6.177  0.9422  0.4735 -0.8610
   73MOL0     C 9523   7.717  -0.567   6.252  0.0235  0.1748 -0.0447
   73MOL0     C 9524   7.609  -0.660   6.242  0.2938  0.1693 -0.7179
   73MOL0     C 9525   7.533  -0.653   6.115  0.6219 -0.1535 -0.2679
   73MOL0     C 9526   7.464  -0.519   6.083  0.1479  0.8926  0.4228
   73MOL0     C 9527   7.335  -0.545   6.005 -0.1305  0.6979  0.6193
   73MOL0     O 9528   7.264  -0.428   5.955 -0.4314 -0.1906  0.7371
   73MOL0     C 9529   7.144  -0.451   5.894 -0.3377 -0.8619  0.2897
   73MOL0     C 9530   7.095  -0.350   5.804  0.2219 -0.4801 -0.3430
   73MOL0     C 9531   6.984  -0.362   5.717 -0.8715 -0.7796  0.2467
   73MOL0     C 9532   6.907  -0.479   5.720  0.0686  0.5155 -0.3574
   73MOL0     C 9533   6.797  -0.491   5.631  0.2436 -1.0168  0.6597
   73MOL0     O 9534   6.693  -0.576   5.681  0.1042  0.3846  0.5879
   73MOL0     C 9535   6.579  -0.566   5.600  0.4857 -0.0035 -0.1401
   73MOL0     C 9536   6.520  -0.679   5.549  0.4750  1.1230  0.1611
   73MOL0     C 9537   6.402  -0.678   5.471  0.5468 -0.0975  0.2547
   73MOL0     C 9538   6.328  -0.555   5.460 -0.0053  0.4617  0.2774
   73MOL0     O 9539   6.206  -0.531   5.386 -0.2293 -0.5428 -0.2370
   73MOL0     C 9540   6.124  -0.642   5.349  0.0954  0.1309 -0.1967
   73MOL0     C 9541   5.994  -0.601   5.277  0.4991  0.1136  0.5685
   73MOL0     C 9542   5.891  -0.709   5.282  0.3447 -0.2945  0.6752
   73MOL0     C 9543   5.932  -0.829   5.193 -0.0841 -0.5967  1.0241
   73MOL0     C 9544   5.818  -0.903   5.131  0.1903 -0.2156  1.1677
   73MOL0     C 9545   5.775  -0.843   4.992 -0.4654  0.5045  0.1023
   73MOL0     C 9546   5.676  -0.932   4.918 -0.4377 -0.3499 -0.0332
   73MOL0     C 9547   5.632  -0.862   4.790  0.7217 -0.2239 -0.2827
   73MOL0    Cl 9548   5.774  -0.853   4.691  0.6179 -0.2845  0.6994
   73MOL0     C 9549   6.387  -0.442   5.513  0.1874 -0.2257 -1.0076
   73MOL0     C 9550   6.512  -0.453   5.585  0.7473 -0.1666  1.0031
   73MOL0     O 9551   6.787  -0.421   5.530 -0.6528 -0.4663 -0.1321
   73MOL0     C 9552   6.947  -0.579   5.814  0.0461 -1.2413  0.7308
   73MOL0     C 9553   7.069  -0.574   5.888  0.5753  0.8129 -0.1329
   73MOL0     N 9554   7.714  -0.483   6.362  0.3395  0.3562 -0.0188
   73MOL0     N 9555   7.816  -0.410   6.358 -0.3222 -0.0899  0.5511
   73MOL0     C 9556   8.856   0.162   6.728  0.5440  0.6089  0.4337
   73MOL0     C 9557   8.957   0.216   6.803  0.4237 -0.2851 -0.5077
   73MOL0     C 9558   9.335   0.179   7.096 -0.0512  0.4338 -0.9319
   73MOL0     C 9559   9.282   0.268   7.196 -0.7376  0.0673 -0.2965
   73MOL0     C 9560   9.367   0.314   7.298 -0.2253  0.1395  0.2809
   73MOL0     C 9561   9.506   0.274   7.300 -0.6581 -0.1942 -0.1450
   73MOL0     O 9562   9.599   0.324   7.383 -0.1120  0.2288  0.4950
   73MOL0     C 9563   9.579   0.401   7.503 -0.8584 -0.6352 -0.1731
   73MOL0     C 9564   9.544   0.553   7.465 -0.5139  0.9907 -0.7083
   73MOL0     C 9565   9.660   0.639   7.426  0.3691  0.0770 -0.4583
   73MOL0     C 9566   9.679   0.642   7.274 -0.4418 -0.1686  0.4678
   73MOL0     C 9567   9.764   0.750   7.242 -0.2477  0.2300  0.3217
   73MOL0     C 9568   9.846   0.826   7.209  0.2935  0.1099  0.8370
   73MOL0     C 9569   9.547   0.198   7.195 -0.8391 -0.2125 -0.2076
   73MOL0     C 9570   9.468   0.146   7.100  0.4586 -0.0834 -0.3550
   73MOL0     H 9571   9.071  -0.068   6.938 -0.0161 -0.3777 -1.2612
   73MOL0     H 9572   8.891  -0.162   6.818 -1.1310 -0.1751  0.4541
   73MOL0     H 9573   8.739   0.096   6.488  1.5436 -2.3704 -2.5460
   73MOL0     H 9574   8.613   0.116   6.582 -0.0117  0.3716 -2.4673
   73MOL0     H 9575   8.540  -0.138   6.526  1.2714 -1.7823 -0.0353
   73MOL0     H 9576   8.671  -0.124   6.413  0.7709 -0.5928  2.3392
   73MOL0     H 9577   8.572   0.074   6.312  2.7540 -0.9144  2.0286
   73MOL0     H 9578   8.441   0.070   6.435  0.6013  0.4560 -0.2618
   73MOL0     H 9579   8.373  -0.000   6.217 -1.8008  0.4208  0.0938
   73MOL0     H 9580   8.489  -0.136   6.212  0.6055 -1.5149  1.2249
   73MOL0     H 9581   8.245  -0.104   6.401  0.1219  2.0728 -1.0982
   73MOL0     H 9582   8.350  -0.248   6.397 -1.7344  0.8512  1.6060
   73MOL0     H 9583   8.285  -0.297   6.185  1.1037 -0.7584  3.1283
   73MOL0     H 9584   8.169  -0.146   6.184  0.9367  1.5537  1.3065
   73MOL0     H 9585   8.166  -0.411   6.345 -0.0330 -0.3694 -1.1512
   73MOL0     H 9586   8.055  -0.277   6.376  0.0063 -0.0513 -1.0093
   73MOL0     H 9587   8.072  -0.463   6.150  0.7030  1.9305 -1.8097
   73MOL0     H 9588   7.993  -0.302   6.128  0.3971  1.3399  2.1691
   73MOL0     H 9589   7.864  -0.592   6.087  4.4427  1.6801 -0.2425
   73MOL0     H 9590   7.540  -0.636   6.323  2.0722  2.4916  0.2075
   73MOL0     H 9591   7.645  -0.763   6.254 -2.5259 -0.7538  0.6711
   73MOL0     H 9592   7.454  -0.728   6.115  1.5355 -1.1744  1.6433
   73MOL0     H 9593   7.609  -0.678   6.042  2.4410  2.4244  0.5901
   73MOL0     H 9594   7.442  -0.467   6.176  0.2749  3.0050 -0.6716
   73MOL0     H 9595   7.534  -0.463   6.021  1.7032 -1.4088 -0.0210
   73MOL0     H 9596   7.265  -0.601   6.067 -2.0811  1.2080 -1.0226
   73MOL0     H 9597   7.364  -0.603   5.917 -0.7512  0.9509  0.2364
   73MOL0     H 9598   7.156  -0.260   5.805  0.0722 -0.1457  4.7910
   73MOL0     H 9599   6.963  -0.283   5.646  2.4799  0.1739  0.1777
   73MOL0     H 9600   6.564  -0.770   5.589  3.2799  2.1801 -0.2566
   73MOL0     H 9601   6.357  -0.768   5.432  1.0131 -0.2435  0.0480
   73MOL0     H 9602   6.109  -0.707   5.435  0.6372 -1.5731 -1.3311
   73MOL0     H 9603   6.181  -0.702   5.277  1.0295  1.9865 -1.0844
   73MOL0     H 9604   6.007  -0.566   5.174 -0.3218  3.1357  1.4067
   73MOL0     H 9605   5.962  -0.519   5.342 -1.3692  1.4286 -1.8210
   73MOL0     H 9606   5.802  -0.665   5.235  1.9560 -1.5262 -4.1022
   73MOL0     H 9607   5.879  -0.746   5.384  1.3005 -1.6164  0.3370
   73MOL0     H 9608   5.996  -0.792   5.112 -3.2712  0.2401 -1.3194
   73MOL0     H 9609   5.986  -0.906   5.249  0.1043 -1.8812 -0.8282
   73MOL0     H 9610   5.728  -0.923   5.190 -1.2668 -1.7371 -1.3756
   73MOL0     H 9611   5.853  -1.005   5.112  2.3479  0.6532  0.1982
   73MOL0     H 9612   5.865  -0.840   4.930  0.6504  2.4307  1.7081
   73MOL0     H 9613   5.736  -0.741   4.993  1.2530  1.1967 -0.1226
   73MOL0     H 9614   5.716  -1.032   4.898  1.4231  0.1733  0.8538
   73MOL0     H 9615   5.582  -0.943   4.972 -0.2218 -2.3776  0.0092
   73MOL0     H 9616   5.585  -0.769   4.824  0.7837 -0.2607 -0.0963
   73MOL0     H 9617   5.555  -0.918   4.736 -0.0281 -0.1306  0.6604
   73MOL0     H 9618   6.337  -0.347   5.498  2.5842  1.6145  1.5365
   73MOL0     H 9619   6.555  -0.359   5.621  2.4968 -0.5093 -0.0896
   73MOL0     H 9620   6.879  -0.660   5.839  0.2922 -0.9115  2.6716
   73MOL0     H 9621   7.086  -0.661   5.950 -3.1930  0.5392  0.7399
   73MOL0     H 9622   8.812   0.234   6.660  1.4054  0.4740 -0.2768
   73MOL0     H 9623   8.970   0.323   6.790 -1.6189  0.3375  1.8052
   73MOL0     H 9624   9.176   0.290   7.191 -1.3236 -1.7615  2.2777
   73MOL0     H 9625   9.336   0.380   7.378 -4.7248 -0.2918 -0.8373
   73MOL0     H 9626   9.674   0.395   7.556  0.0555 -2.6498 -1.8861
   73MOL0     H 9627   9.498   0.365   7.568 -0.8206 -1.0824 -0.3690
   73MOL0     H 9628   9.470   0.554   7.384 -0.1204  1.4827 -1.0681
   73MOL0     H 9629   9.504   0.598   7.556  1.1383 -0.1147  0.6284
   73MOL0     H 9630   9.743   0.596   7.483 -0.3069 -0.4522  0.1451
   73MOL0     H 9631   9.637   0.738   7.468 -0.2192  0.5375 -1.8234
   73MOL0     H 9632   9.717   0.549   7.231 -3.6069 -0.8309 -1.1989
   73MOL0     H 9633   9.579   0.656   7.231  0.3534 -1.4757 -1.9774
   73MOL0     H 9634   9.921   0.896   7.176  0.5693 -0.6426 -0.1769
   73MOL0     H 9635   9.653   0.178   7.187 -0.2346  1.9741  1.3209
   73MOL0     H 9636   9.514   0.077   7.030 -1.9065 -0.0371 -2.0589
   74MOL0     O 9637   6.840   6.992   3.614 -0.5841  0.5184 -0.1896
   74MOL0     C 9638   6.868   7.108   3.631  0.5187 -0.7390 -0.7799
   74MOL0     O 9639   6.771   7.202   3.651  0.4730  0.0057 -0.2205
   74MOL0     C 9640   6.643   7.169   3.686  0.1366 -0.1416  0.5470
   74MOL0     C 9641   6.552   7.132   3.584 -0.3373 -0.3250 -0.4525
   74MOL0     C 9642   6.415   7.107   3.622  0.2956 -0.1756 -0.0886
   74MOL0     C 9643   6.365   7.114   3.756  0.1720 -0.6314  0.3706
   74MOL0     O 9644   6.236   7.080   3.798 -0.0067 -0.1674 -0.2737
   74MOL0     C 9645   6.153   7.000   3.712  0.3968 -0.4582  0.5251
   74MOL0     C 9646   6.021   6.944   3.769 -0.1014  0.2206 -0.2348
   74MOL0     C 9647   6.047   6.832   3.874  0.5776  0.2542 -0.0532
   74MOL0     C 9648   6.060   6.699   3.803 -0.1585  0.7217  0.0495
   74MOL0     C 9649   6.111   6.586   3.887  0.3247  0.6702  0.4427
   74MOL0     C 9650   6.109   6.452   3.821 -0.2862  0.8797 -0.6642
   74MOL0     C 9651   6.171   6.448   3.686 -0.2318 -0.8882  0.2407
   74MOL0     C 9652   6.211   6.301   3.642 -0.0431 -0.0920 -0.1774
   74MOL0     N 9653   6.094   6.204   3.644  0.6853 -1.0407  0.1132
   74MOL0     C 9654   5.988   6.175   3.553 -0.2927  0.7737  0.4759
   74MOL0     C 9655   5.933   6.056   3.595  0.0230  1.0201  0.2669
   74MOL0     C 9656   5.842   5.961   3.518  0.3789  0.4970 -0.1098
   74MOL0     C 9657   5.686   5.994   3.533 -1.1718 -1.0025  0.4461
   74MOL0     C 9658   5.590   5.894   3.471  0.4442  0.1702  1.0585
   74MOL0     C 9659   5.451   5.916   3.541  0.0020 -0.2392  0.2459
   74MOL0     O 9660   5.353   5.838   3.476  0.6172 -0.0511  0.0505
   74MOL0     C 9661   5.218   5.873   3.503 -0.1461  0.5731 -0.0659
   74MOL0     C 9662   5.120   5.809   3.433  0.2984 -0.8488  0.3582
   74MOL0     C 9663   4.985   5.829   3.465  0.6925  0.1504  0.3273
   74MOL0     C 9664   4.945   5.910   3.567 -0.0507 -1.4301 -0.7289
   74MOL0     C 9665   4.808   5.936   3.617  0.3225  0.5694 -0.1255
   74MOL0     O 9666   4.717   5.833   3.585 -0.4078  0.2076  0.0588
   74MOL0     C 9667   4.583   5.846   3.593 -0.2590 -0.0479 -0.1934
   74MOL0     C 9668   4.508   5.751   3.519  0.4318 -0.0950 -0.0114
   74MOL0     C 9669   4.373   5.754   3.525  0.4732  0.0922  0.3027
   74MOL0     C 9670   4.303   5.841   3.612  0.1154 -0.6616 -0.2174
   74MOL0     O 9671   4.166   5.821   3.618 -0.7580 -0.2501 -0.8727
   74MOL0     C 9672   4.083   5.884   3.717 -0.1604  0.9483  0.0286
   74MOL0     C 9673   3.943   5.835   3.700  0.3552 -0.6058  0.0228
   74MOL0     C 9674   3.837   5.891   3.795  0.6169 -0.1883  0.1507
   74MOL0     C 9675   3.705   5.808   3.783 -0.3610 -0.1246 -0.8705
   74MOL0     C 9676   3.611   5.840   3.899  1.0242  0.1783  0.1696
   74MOL0     C 9677   3.483   5.758   3.884 -0.6473 -0.7884 -0.5578
   74MOL0     C 9678   3.366   5.832   3.944 -0.2009  0.4973  0.4167
   74MOL0     C 9679   3.267   5.737   3.999  0.5669  0.4742  0.2578
   74MOL0    Cl 9680   3.336   5.670   4.155  0.1088 -0.1249  0.6084
   74MOL0     C 9681   4.371   5.936   3.681 -0.0623 -1.1745  0.1302
   74MOL0     C 9682   4.511   5.937   3.674 -0.6038 -1.1410  0.8032
   74MOL0     O 9683   4.787   6.039   3.679 -0.6806  0.0369 -0.2134
   74MOL0     C 9684   5.041   5.988   3.621 -0.2170  0.5396  0.1100
   74MOL0     C 9685   5.181   5.966   3.594 -0.0198  0.3204  0.0192
   74MOL0     N 9686   5.993   6.024   3.713  0.1926 -0.6092  0.3106
   74MOL0     N 9687   6.087   6.107   3.747  0.7682  0.3764 -0.1454
   74MOL0     C 9688   6.460   7.147   3.852 -0.6201 -0.7648 -0.7800
   74MOL0     C 9689   6.594   7.180   3.813  0.3140  1.2792 -0.1746
   74MOL0     C 9690   7.001   7.160   3.602  0.9803 -0.0908 -0.9768
   74MOL0     C 9691   7.103   7.068   3.575 -0.0118 -0.8279 -0.7438
   74MOL0     C 9692   7.226   7.120   3.532 -0.1593 -0.3047  0.6468
   74MOL0     C 9693   7.256   7.258   3.529 -0.2186  0.0337 -0.3613
   74MOL0     O 9694   7.375   7.294   3.482  0.0582 -0.3587  0.0953
   74MOL0     C 9695   7.421   7.426   3.515 -0.5304 -0.0834  0.8692
   74MOL0     C 9696   7.576   7.446   3.487 -0.4811 -0.2431 -0.2441
   74MOL0     C 9697   7.611   7.577   3.547 -0.1797 -0.0553  0.4583
   74MOL0     C 9698   7.767   7.586   3.553 -0.2869  0.8442 -0.9019
   74MOL0     C 9699   7.803   7.724   3.602 -0.3463 -0.0176  0.2825
   74MOL0     C 9700   7.839   7.836   3.649  0.2946  0.0158 -0.2912
   74MOL0     C 9701   7.150   7.347   3.563  0.5503  0.7118 -0.4687
   74MOL0     C 9702   7.024   7.299   3.592  0.7267  0.2301 -0.3536
   74MOL0     H 9703   6.579   7.126   3.479 -1.8261  1.3692 -0.9864
   74MOL0     H 9704   6.349   7.071   3.544 -2.6098  2.1752  1.0921
   74MOL0     H 9705   6.213   6.920   3.668 -1.5846 -0.1828 -3.0429
   74MOL0     H 9706   6.123   7.069   3.633 -0.2514 -1.8515 -0.4829
   74MOL0     H 9707   5.964   6.897   3.688  1.7541 -4.6606  0.9303
   74MOL0     H 9708   5.959   7.021   3.816 -1.1626 -0.0950 -1.0777
   74MOL0     H 9709   5.964   6.814   3.944 -2.2504 -1.4120 -3.5107
   74MOL0     H 9710   6.135   6.859   3.934 -0.1157 -2.4127  2.4297
   74MOL0     H 9711   5.957   6.683   3.770 -0.6573  2.2792  0.7502
   74MOL0     H 9712   6.128   6.715   3.719 -0.3298 -0.8881 -0.4252
   74MOL0     H 9713   6.058   6.572   3.982 -1.6627 -0.3171 -0.7550
   74MOL0     H 9714   6.216   6.612   3.905  0.1522  1.0853  0.8822
   74MOL0     H 9715   6.006   6.416   3.812  0.4516 -2.5592  2.3317
   74MOL0     H 9716   6.170   6.382   3.880  0.3430 -0.6356 -2.9898
   74MOL0     H 9717   6.099   6.499   3.621 -0.3278 -2.5173 -1.0137
   74MOL0     H 9718   6.264   6.506   3.685 -1.5913  1.5025 -2.0028
   74MOL0     H 9719   6.287   6.254   3.705  2.1490  0.4079 -2.3017
   74MOL0     H 9720   6.262   6.319   3.547  2.8565  1.4092  1.5400
   74MOL0     H 9721   5.970   6.237   3.466 -0.0753  0.7132  0.3876
   74MOL0     H 9722   5.855   5.856   3.543 -0.0746 -0.0898 -2.2019
   74MOL0     H 9723   5.868   5.977   3.413 -2.4380 -0.0130 -0.9753
   74MOL0     H 9724   5.665   6.088   3.482 -1.9996 -0.6700  1.3796
   74MOL0     H 9725   5.683   6.005   3.641  0.4449 -1.4946  0.5775
   74MOL0     H 9726   5.584   5.911   3.364  5.5545 -2.6762 -0.0031
   74MOL0     H 9727   5.627   5.794   3.494  0.3444  0.1113  0.9583
   74MOL0     H 9728   5.427   6.022   3.527  0.2351  0.1694  2.5221
   74MOL0     H 9729   5.468   5.895   3.647  2.1331 -0.5510 -0.1020
   74MOL0     H 9730   5.145   5.743   3.350 -1.8709 -1.9283  0.4967
   74MOL0     H 9731   4.913   5.773   3.405 -1.1097  1.5804  1.0497
   74MOL0     H 9732   4.568   5.679   3.465  2.0859  0.6123  0.8307
   74MOL0     H 9733   4.323   5.681   3.462 -0.5932  0.8452  0.2444
   74MOL0     H 9734   4.088   5.992   3.698  4.8786  1.2086  1.2305
   74MOL0     H 9735   4.107   5.870   3.823  0.8095 -0.7121 -0.3763
   74MOL0     H 9736   3.953   5.727   3.694  2.8561 -0.3837 -2.2648
   74MOL0     H 9737   3.900   5.874   3.607  1.0660  5.2185  1.6958
   74MOL0     H 9738   3.809   5.996   3.781 -1.6127 -1.0296 -2.9444
   74MOL0     H 9739   3.876   5.876   3.896  2.1606  0.7658 -0.2798
   74MOL0     H 9740   3.662   5.820   3.683 -0.2182  2.7505 -0.6666
   74MOL0     H 9741   3.732   5.703   3.798 -0.9046 -0.0358  0.9841
   74MOL0     H 9742   3.591   5.947   3.883 -1.4827 -0.5302 -2.2153
   74MOL0     H 9743   3.651   5.820   3.999  0.6262  2.4412  0.8543
   74MOL0     H 9744   3.499   5.663   3.936 -0.2382 -1.7976 -2.4507
   74MOL0     H 9745   3.463   5.724   3.782  1.9494 -2.3410 -0.6535
   74MOL0     H 9746   3.397   5.904   4.021  2.3633 -0.5646  0.4826
   74MOL0     H 9747   3.309   5.897   3.877 -0.5047  0.6537  0.8247
   74MOL0     H 9748   3.250   5.666   3.918 -1.3289  0.3994  0.6687
   74MOL0     H 9749   3.175   5.795   4.015  1.5810  1.6233  2.3874
   74MOL0     H 9750   4.308   6.003   3.738  1.3918  0.3128  0.0608
   74MOL0     H 9751   4.557   6.011   3.738  0.6433 -1.9982  0.9294
   74MOL0     H 9752   5.029   6.053   3.708  2.0880  0.9505  0.1917
   74MOL0     H 9753   5.245   6.020   3.662  0.8844 -0.2930 -0.3276
   74MOL0     H 9754   6.416   7.166   3.950 -0.5120  0.9886 -1.0399
   74MOL0     H 9755   6.648   7.225   3.896 -3.6754 -0.9210  4.1010
   74MOL0     H 9756   7.096   6.960   3.579  0.4319 -0.8906 -1.4736
   74MOL0     H 9757   7.300   7.052   3.491 -1.6909 -2.7272  1.6815
   74MOL0     H 9758   7.395   7.441   3.620  1.5714  0.2025  1.3930
   74MOL0     H 9759   7.381   7.500   3.446  3.6096  1.0422 -0.6349
   74MOL0     H 9760   7.617   7.359   3.541 -2.6647 -1.6843 -0.7758
   74MOL0     H 9761   7.594   7.456   3.380 -3.7436  2.1495 -0.7062
   74MOL0     H 9762   7.579   7.574   3.652  0.4135 -2.2308  0.6252
   74MOL0     H 9763   7.569   7.661   3.492 -1.3440 -0.9743 -0.1065
   74MOL0     H 9764   7.819   7.516   3.619  0.9732  1.7443 -0.8992
   74MOL0     H 9765   7.826   7.568   3.463  1.4714  0.6650  0.2390
   74MOL0     H 9766   7.882   7.928   3.685  5.8916 -1.9269 -1.0591
   74MOL0     H 9767   7.160   7.455   3.566 -1.4602  0.9088  1.2551
   74MOL0     H 9768   6.948   7.372   3.621  1.8461  2.3840 -2.4643
   75MOL0     O 9769   7.396   8.515   7.245 -0.5802  0.8179 -0.2514
   75MOL0     C 9770   7.400   8.518   7.120 -0.3917 -0.5124  0.4973
   75MOL0     O 9771   7.286   8.515   7.045 -0.2585  0.3621 -0.1778
   75MOL0     C 9772   7.152   8.526   7.089 -1.3882  0.7078 -1.1855
   75MOL0     C 9773   7.122   8.489   7.218 -0.0232  0.4886  0.3394
   75MOL0     C 9774   6.989   8.467   7.262  0.4860 -0.4664  0.0985
   75MOL0     C 9775   6.886   8.486   7.167  0.0276 -0.2351  0.2188
   75MOL0     O 9776   6.756   8.451   7.195 -0.3888  0.1994 -0.8726
   75MOL0     C 9777   6.720   8.379   7.316  0.3189  0.1062 -0.3964
   75MOL0     C 9778   6.582   8.426   7.348 -0.1915 -0.0114 -0.6630
   75MOL0     C 9779   6.476   8.404   7.234  0.3683  0.6390 -0.2834
   75MOL0     C 9780   6.341   8.366   7.279  0.6900 -0.4278 -0.7346
   75MOL0     C 9781   6.280   8.479   7.367  0.9245  0.4258 -0.7667
   75MOL0     C 9782   6.142   8.438   7.408  0.1722  0.0664  0.0673
   75MOL0     C 9783   6.124   8.296   7.448  0.5751 -0.4512 -0.1921
   75MOL0     C 9784   5.969   8.272   7.485  0.2003  0.6878 -0.1314
   75MOL0     N 9785   5.925   8.360   7.598 -0.2288  0.2990 -0.6884
   75MOL0     C 9786   5.973   8.337   7.728 -0.3766  0.6138 -0.6358
   75MOL0     C 9787   5.892   8.413   7.805 -0.1025 -1.1988 -0.1067
   75MOL0     C 9788   5.904   8.407   7.952  0.0084  0.7015 -0.2884
   75MOL0     C 9789   5.910   8.537   8.033  0.5089  0.8555 -0.1221
   75MOL0     C 9790   6.032   8.629   8.008  0.2201  0.2312 -0.3585
   75MOL0     C 9791   6.176   8.566   8.046 -0.3752 -0.0056  0.3903
   75MOL0     O 9792   6.219   8.470   7.950 -0.4457 -0.1071  0.5026
   75MOL0     C 9793   6.351   8.448   7.941 -0.1992 -0.1908 -0.4833
   75MOL0     C 9794   6.391   8.367   7.839  0.1239 -0.2090  0.9141
   75MOL0     C 9795   6.527   8.341   7.819  0.0243  0.0809 -0.0052
   75MOL0     C 9796   6.622   8.371   7.918 -0.1607  0.0146 -0.1016
   75MOL0     C 9797   6.764   8.328   7.904 -0.9549  0.0381 -0.0356
   75MOL0     O 9798   6.807   8.331   7.776 -0.4405  0.3411 -0.3616
   75MOL0     C 9799   6.945   8.334   7.748 -0.6286 -1.1481  0.1320
   75MOL0     C 9800   7.043   8.400   7.836  1.0262 -0.3989  0.0890
   75MOL0     C 9801   7.185   8.405   7.803  0.0561  0.7954 -0.6291
   75MOL0     C 9802   7.217   8.334   7.683 -0.7962 -0.5165 -0.5898
   75MOL0     O 9803   7.348   8.323   7.647  0.5395 -0.2197  0.0276
   75MOL0     C 9804   7.443   8.425   7.689 -0.0798 -0.4455 -0.6284
   75MOL0     C 9805   7.570   8.400   7.614  0.1549 -0.2833  0.3202
   75MOL0     C 9806   7.687   8.505   7.628 -0.2878 -0.3744  0.3188
   75MOL0     C 9807   7.811   8.459   7.546 -0.5436 -0.1928 -0.2242
   75MOL0     C 9808   7.935   8.537   7.602 -0.0111 -0.2005 -0.2863
   75MOL0     C 9809   8.069   8.485   7.551  1.0385 -0.6610  0.5637
   75MOL0     C 9810   8.181   8.537   7.634 -0.9545  0.7743  0.3142
   75MOL0     C 9811   8.322   8.483   7.590  0.5365 -0.6506  0.0864
   75MOL0    Cl 9812   8.373   8.570   7.437 -0.1586 -0.5417  0.1188
   75MOL0     C 9813   7.124   8.259   7.606 -0.4046 -0.3174  0.6730
   75MOL0     C 9814   6.989   8.274   7.638 -0.4813 -0.2710 -0.1711
   75MOL0     O 9815   6.830   8.305   8.005  0.0289  0.6402 -0.0178
   75MOL0     C 9816   6.580   8.456   8.021 -0.3972  0.4925  0.4208
   75MOL0     C 9817   6.448   8.491   8.034 -1.2990  0.0278 -0.0497
   75MOL0     N 9818   5.787   8.458   7.731  0.8463 -0.2771  0.4215
   75MOL0     N 9819   5.807   8.433   7.606 -0.3372  0.3865  0.1160
   75MOL0     C 9820   6.917   8.526   7.042  0.7022 -1.1692  0.4144
   75MOL0     C 9821   7.049   8.547   6.997 -0.1357 -0.2056  0.0191
   75MOL0     C 9822   7.538   8.527   7.064 -0.3449 -0.4802  0.9354
   75MOL0     C 9823   7.637   8.466   7.146  0.7699 -0.0335  0.5717
   75MOL0     C 9824   7.771   8.469   7.102 -0.2724  0.3090 -0.4339
   75MOL0     C 9825   7.811   8.528   6.986 -0.2119  0.2687 -0.1160
   75MOL0     O 9826   7.943   8.512   6.955 -0.0329  0.0573  0.0429
   75MOL0     C 9827   8.012   8.594   6.863 -0.3450  0.3453 -0.4004
   75MOL0     C 9828   8.163   8.590   6.877 -0.3901 -1.0618  0.2423
   75MOL0     C 9829   8.213   8.718   6.955 -0.5319 -0.0123  1.4638
   75MOL0     C 9830   8.226   8.690   7.099  1.0523 -0.4328 -0.9385
   75MOL0     C 9831   8.187   8.804   7.178  0.7530  1.4846  0.0629
   75MOL0     C 9832   8.169   8.891   7.262  0.7947  0.1825  0.3304
   75MOL0     C 9833   7.717   8.583   6.902  0.6686 -0.5913 -0.5018
   75MOL0     C 9834   7.581   8.580   6.943  0.0261 -0.0973 -0.5525
   75MOL0     H 9835   7.195   8.470   7.297  0.4554 -2.7469 -0.7373
   75MOL0     H 9836   6.974   8.457   7.369  2.6976  1.7671  0.7211
   75MOL0     H 9837   6.788   8.394   7.400  0.9940 -1.5286 -0.6090
   75MOL0     H 9838   6.719   8.274   7.286 -1.4766  0.0488 -0.2806
   75MOL0     H 9839   6.580   8.533   7.368 -0.8842  0.0935 -1.2511
   75MOL0     H 9840   6.547   8.372   7.437 -1.2265  1.2651 -0.2746
   75MOL0     H 9841   6.515   8.318   7.179  0.7633  0.0773  0.8377
   75MOL0     H 9842   6.459   8.485   7.162  1.1087  1.4428  0.4132
   75MOL0     H 9843   6.271   8.358   7.195  0.0232 -0.5640 -0.1720
   75MOL0     H 9844   6.344   8.270   7.331 -0.5807 -0.4918 -0.7332
   75MOL0     H 9845   6.279   8.568   7.303 -1.8024  2.4223  1.7603
   75MOL0     H 9846   6.350   8.502   7.447 -0.4882 -0.7736  0.8806
   75MOL0     H 9847   6.071   8.468   7.331 -0.2010 -0.7272  0.0845
   75MOL0     H 9848   6.108   8.507   7.486 -1.4985 -0.6130 -0.0159
   75MOL0     H 9849   6.138   8.228   7.364  1.3441 -0.1449 -0.3114
   75MOL0     H 9850   6.185   8.260   7.531  1.4643 -1.7607 -1.3602
   75MOL0     H 9851   5.948   8.170   7.519  1.9806 -0.0365 -1.0855
   75MOL0     H 9852   5.898   8.300   7.406 -1.9568 -0.8628  1.1298
   75MOL0     H 9853   6.052   8.273   7.765  0.0224  0.7678 -1.2089
   75MOL0     H 9854   5.996   8.351   7.972 -0.2551  0.3457 -0.0327
   75MOL0     H 9855   5.819   8.351   7.992  2.6056 -3.1000  0.5158
   75MOL0     H 9856   5.894   8.508   8.138  1.4573 -0.0483 -0.2075
   75MOL0     H 9857   5.816   8.580   7.997  0.1085 -0.3659 -0.6044
   75MOL0     H 9858   6.028   8.667   7.906 -0.8481  0.3561 -0.2740
   75MOL0     H 9859   6.009   8.716   8.070 -0.0574 -0.0752 -0.0284
   75MOL0     H 9860   6.180   8.529   8.149  2.0394 -3.3314 -0.6988
   75MOL0     H 9861   6.248   8.648   8.034 -0.7248  0.6356  2.3932
   75MOL0     H 9862   6.318   8.333   7.766  0.7183 -1.2247  0.7680
   75MOL0     H 9863   6.555   8.297   7.723 -1.4298  5.6157 -3.4448
   75MOL0     H 9864   7.008   8.454   7.923  0.9885  1.5054 -1.0541
   75MOL0     H 9865   7.263   8.446   7.867  1.4188 -0.9794 -1.0666
   75MOL0     H 9866   7.456   8.414   7.797  0.2279  0.5969 -0.5415
   75MOL0     H 9867   7.408   8.526   7.665  1.1145  0.1635  0.0950
   75MOL0     H 9868   7.548   8.387   7.507  1.7078  1.0254 -0.2012
   75MOL0     H 9869   7.617   8.312   7.657 -0.3987 -1.2731 -1.0316
   75MOL0     H 9870   7.719   8.516   7.732 -1.9960  2.0192  0.6665
   75MOL0     H 9871   7.651   8.600   7.588 -1.7675 -1.2415 -0.5366
   75MOL0     H 9872   7.838   8.354   7.558  0.1039  0.0613  0.6249
   75MOL0     H 9873   7.797   8.485   7.441 -1.8231 -0.0961 -0.0429
   75MOL0     H 9874   7.926   8.503   7.706  0.7541 -1.9514 -0.7528
   75MOL0     H 9875   7.923   8.644   7.588  0.5555  0.1061  1.2695
   75MOL0     H 9876   8.088   8.541   7.459  1.6639  0.9990  1.6532
   75MOL0     H 9877   8.074   8.376   7.547 -6.7932 -1.6518  1.6964
   75MOL0     H 9878   8.183   8.646   7.645 -2.6143  0.6778  1.9919
   75MOL0     H 9879   8.166   8.484   7.728  1.1259 -0.2812  0.1058
   75MOL0     H 9880   8.324   8.377   7.566  2.6716 -0.5356 -0.4131
   75MOL0     H 9881   8.388   8.497   7.676 -0.6246 -0.0545  0.9150
   75MOL0     H 9882   7.161   8.207   7.519 -1.0610  1.1525 -0.5448
   75MOL0     H 9883   6.909   8.223   7.586 -1.5959  0.2678  0.9493
   75MOL0     H 9884   6.656   8.481   8.095  0.7223  2.3614 -1.2565
   75MOL0     H 9885   6.417   8.533   8.129 -1.0242  0.2542 -0.0592
   75MOL0     H 9886   6.831   8.543   6.977 -0.6297 -0.5617  2.2363
   75MOL0     H 9887   7.065   8.569   6.892 -0.3523 -0.9489 -0.1746
   75MOL0     H 9888   7.603   8.424   7.240 -0.8887  1.4693  0.6996
   75MOL0     H 9889   7.852   8.423   7.157 -1.4082 -0.3064  0.7798
   75MOL0     H 9890   7.971   8.695   6.849 -0.9860  0.0675 -0.5830
   75MOL0     H 9891   7.990   8.547   6.766  2.8223 -2.4508  0.0878
   75MOL0     H 9892   8.171   8.505   6.946 -2.4172  0.5723  2.6680
   75MOL0     H 9893   8.217   8.589   6.782 -0.5202  0.7275  0.1294
   75MOL0     H 9894   8.137   8.795   6.936 -1.6860 -1.8549 -2.5474
   75MOL0     H 9895   8.308   8.754   6.914 -1.0914 -0.2397 -0.0846
   75MOL0     H 9896   8.164   8.604   7.126 -0.0799  0.1777 -1.4853
   75MOL0     H 9897   8.329   8.664   7.125  0.2692 -1.4769  1.3799
   75MOL0     H 9898   8.163   8.978   7.325 -1.7755 -2.0130  3.4787
   75MOL0     H 9899   7.743   8.615   6.802  1.4582 -1.3623 -0.5580
   75MOL0     H 9900   7.509   8.614   6.869  2.9949  1.0091 -3.1626
   76MOL0     O 9901   5.693   8.157   4.269 -0.1258 -0.3430  0.2364
   76MOL0     C 9902   5.679   8.277   4.244 -0.2303 -0.2282  0.2487
   76MOL0     O 9903   5.559   8.340   4.229  0.1145  0.3717 -0.5587
   76MOL0     C 9904   5.450   8.260   4.249 -0.7947  0.3999 -0.5433
   76MOL0     C 9905   5.422   8.200   4.373 -1.0587  0.2655 -0.0974
   76MOL0     C 9906   5.301   8.128   4.394  0.9782 -1.3114  0.3931
   76MOL0     C 9907   5.205   8.115   4.288  0.2742 -0.0453 -0.3322
   76MOL0     O 9908   5.091   8.047   4.315  0.0119 -0.1301 -0.9624
   76MOL0     C 9909   4.970   8.042   4.229 -0.2731  0.8495  0.4185
   76MOL0     C 9910   4.892   7.930   4.288  0.8136 -0.5982  0.4337
   76MOL0     C 9911   4.855   7.958   4.430 -0.0460  0.3705 -0.9639
   76MOL0     C 9912   4.724   7.880   4.463 -0.2842  0.0251  0.0965
   76MOL0     C 9913   4.681   7.865   4.617  0.6681 -0.0442  0.0887
   76MOL0     C 9914   4.541   7.802   4.613  0.1431  0.0003 -0.3816
   76MOL0     C 9915   4.482   7.796   4.756  0.3196 -0.9621  0.2793
   76MOL0     C 9916   4.443   7.935   4.823  0.3355 -0.5161  0.0701
   76MOL0     N 9917   4.331   8.000   4.756  0.1866  0.9209  0.1430
   76MOL0     C 9918   4.343   8.111   4.689 -0.3823 -0.0766 -0.3605
   76MOL0     C 9919   4.221   8.168   4.681 -0.4191  0.7397 -0.7105
   76MOL0     C 9920   4.187   8.288   4.600 -0.2260 -0.4419 -0.4444
   76MOL0     C 9921   4.188   8.403   4.701  0.5326  0.4769  0.2495
   76MOL0     C 9922   4.149   8.531   4.635 -0.6450 -0.4099 -0.1912
   76MOL0     C 9923   4.205   8.653   4.714  0.2537  0.4991  0.3052
   76MOL0     O 9924   4.332   8.663   4.652  0.2030  0.4670 -0.2044
   76MOL0     C 9925   4.428   8.736   4.714  0.4819  0.6549  0.1206
   76MOL0     C 9926   4.415   8.818   4.826  0.2068 -0.4803 -0.9131
   76MOL0     C 9927   4.526   8.889   4.878 -0.4998  0.0907  1.3043
   76MOL0     C 9928   4.663   8.874   4.827 -0.3632 -0.2430  0.0113
   76MOL0     C 9929   4.766   8.942   4.897 -0.6589 -0.2063 -0.5356
   76MOL0     O 9930   4.890   8.898   4.859 -0.0962  0.5538  1.0198
   76MOL0     C 9931   5.005   8.964   4.895 -0.5990  0.2201 -0.1557
   76MOL0     C 9932   5.017   9.104   4.895  0.0283 -0.3965  1.4047
   76MOL0     C 9933   5.138   9.170   4.931 -1.1497  0.5227 -0.4940
   76MOL0     C 9934   5.243   9.093   4.987 -0.5668  0.2317  0.2080
   76MOL0     O 9935   5.361   9.154   5.033  0.4298  0.3908  0.0646
   76MOL0     C 9936   5.416   9.259   4.944 -0.1780  0.1876  0.0628
   76MOL0     C 9937   5.464   9.184   4.818  0.7629 -0.1169  0.3642
   76MOL0     C 9938   5.518   9.283   4.708  0.4444 -0.9745 -0.7904
   76MOL0     C 9939   5.634   9.368   4.756 -0.4011  0.2189 -0.4328
   76MOL0     C 9940   5.726   9.415   4.637  0.0425  1.4463 -1.0740
   76MOL0     C 9941   5.841   9.503   4.685 -0.6006  0.6567 -0.5075
   76MOL0     C 9942   5.897   9.578   4.561  0.2307 -0.4679 -0.3319
   76MOL0     C 9943   6.045   9.607   4.576  0.7309 -0.1507 -0.1248
   76MOL0    Cl 9944   6.073   9.689   4.419  0.0699  0.2448 -0.1571
   76MOL0     C 9945   5.231   8.954   4.992  0.4634  0.0511  0.4464
   76MOL0     C 9946   5.110   8.891   4.957  0.0130  0.4179 -0.6419
   76MOL0     O 9947   4.746   9.031   4.976  0.2695  0.4148 -0.5672
   76MOL0     C 9948   4.675   8.774   4.721 -0.1339 -0.4915  0.0407
   76MOL0     C 9949   4.562   8.718   4.660 -0.6152  1.2058 -0.1662
   76MOL0     N 9950   4.132   8.079   4.741 -0.2660  0.2353  0.0241
   76MOL0     N 9951   4.199   7.989   4.802  0.0480  0.5248  0.2027
   76MOL0     C 9952   5.234   8.171   4.163 -0.5900 -0.6842  0.9637
   76MOL0     C 9953   5.358   8.239   4.141  0.5178 -0.2889 -0.1126
   76MOL0     C 9954   5.799   8.354   4.218 -0.3252 -0.3427 -0.7371
   76MOL0     C 9955   5.808   8.481   4.152 -0.2651  0.9679  0.3758
   76MOL0     C 9956   5.933   8.535   4.124  0.4761 -0.4922  0.0870
   76MOL0     C 9957   6.052   8.480   4.171 -0.6324 -0.9521  1.0617
   76MOL0     O 9958   6.163   8.554   4.137  0.2962  0.4928  0.0230
   76MOL0     C 9959   6.266   8.574   4.231  0.4967 -0.0604  0.2517
   76MOL0     C 9960   6.250   8.703   4.312  0.1674  0.0756  0.4159
   76MOL0     C 9961   6.150   8.699   4.423 -1.1451  0.1703 -0.3718
   76MOL0     C 9962   6.125   8.828   4.508 -0.7286 -0.3457 -1.1169
   76MOL0     C 9963   5.997   8.826   4.581 -0.0827 -0.0237  0.4307
   76MOL0     C 9964   5.892   8.814   4.639 -0.2483  0.9207 -0.4559
   76MOL0     C 9965   6.043   8.360   4.240  0.1494  0.0531 -0.2880
   76MOL0     C 9966   5.928   8.296   4.260 -0.7071  0.3887  0.2197
   76MOL0     H 9967   5.490   8.231   4.452 -1.4781  1.5984 -0.2316
   76MOL0     H 9968   5.262   8.098   4.490  0.2960 -2.8166 -0.3080
   76MOL0     H 9969   4.988   8.011   4.125 -0.8034 -0.3357  0.6594
   76MOL0     H 9970   4.916   8.137   4.225 -0.9185  0.4589 -0.5457
   76MOL0     H 9971   4.948   7.837   4.275  1.1838 -0.4662  1.0417
   76MOL0     H 9972   4.803   7.923   4.226 -0.5684 -1.0767  2.3642
   76MOL0     H 9973   4.848   8.065   4.449  1.9862  0.1304  1.6122
   76MOL0     H 9974   4.937   7.932   4.497  0.9789 -1.6165 -2.8294
   76MOL0     H 9975   4.652   7.923   4.392 -0.4297 -1.5714 -0.7655
   76MOL0     H 9976   4.738   7.775   4.435 -2.8192 -0.8692  1.7816
   76MOL0     H 9977   4.675   7.966   4.660 -0.9267 -1.2159  2.8489
   76MOL0     H 9978   4.762   7.808   4.663  2.3357  0.9151 -1.4960
   76MOL0     H 9979   4.544   7.699   4.576 -2.4269  0.4785 -2.1435
   76MOL0     H 9980   4.486   7.868   4.545  2.3567  0.8669 -1.4529
   76MOL0     H 9981   4.388   7.741   4.756 -1.0850  1.2686  1.1529
   76MOL0     H 9982   4.553   7.752   4.827  1.3782  1.9806  1.2024
   76MOL0     H 9983   4.522   8.009   4.806 -0.6854  0.4384 -0.6092
   76MOL0     H 9984   4.435   7.934   4.932  0.2826  2.2173  0.1482
   76MOL0     H 9985   4.434   8.153   4.649 -1.6309  4.0354  0.5840
   76MOL0     H 9986   4.088   8.285   4.554 -0.6661 -0.5956  0.4888
   76MOL0     H 9987   4.265   8.295   4.523  1.4204  0.4750  1.2097
   76MOL0     H 9988   4.286   8.405   4.750  1.7494 -1.3367 -1.9530
   76MOL0     H 9989   4.117   8.389   4.783 -1.8886  0.7086 -1.6962
   76MOL0     H 9990   4.193   8.536   4.535 -0.7243 -1.4211 -0.2842
   76MOL0     H 9991   4.040   8.539   4.630 -0.6192  0.5223  0.3918
   76MOL0     H 9992   4.218   8.628   4.820 -1.5597  4.2679  1.5824
   76MOL0     H 9993   4.152   8.749   4.711  2.8570  2.0350 -2.1696
   76MOL0     H 9994   4.328   8.821   4.891  0.9647  0.8283  0.0928
   76MOL0     H 9995   4.513   8.968   4.952 -0.0546 -0.3782  1.8930
   76MOL0     H 9996   4.942   9.174   4.858 -0.2383 -1.2777  0.2249
   76MOL0     H 9997   5.161   9.276   4.932  2.4181 -0.0928  1.3949
   76MOL0     H 9998   5.507   9.294   4.993  0.9490 -1.3222 -0.8554
   76MOL0     H 9999   5.353   9.348   4.936  0.4454  0.7426  1.0845
   76MOL0     H10000   5.381   9.129   4.774 -1.3630  2.0397  1.4608
   76MOL0     H10001   5.542   9.111   4.841 -0.9769 -1.5173  2.1570
   76MOL0     H10002   5.437   9.350   4.678 -0.4814 -1.9706 -0.5629
   76MOL0     H10003   5.546   9.214   4.628 -0.3627 -3.7952  1.1970
   76MOL0     H10004   5.588   9.455   4.806 -2.9822 -1.2630 -0.0485
   76MOL0     H10005   5.691   9.305   4.824 -1.2666 -2.1580 -1.8030
   76MOL0     H10006   5.668   9.463   4.558 -2.9263  3.8208  2.2555
   76MOL0     H10007   5.777   9.327   4.596 -1.8991  0.0547 -0.6868
   76MOL0     H10008   5.921   9.449   4.737 -0.9595  1.8593  1.4001
   76MOL0     H10009   5.798   9.573   4.756 -5.8412 -1.2432 -1.3869
   76MOL0     H10010   5.889   9.514   4.472 -0.9146 -1.1226  0.2072
   76MOL0     H10011   5.842   9.671   4.550 -2.1443 -1.7988 -0.4283
   76MOL0     H10012   6.104   9.515   4.587 -2.6806 -2.2920  2.3464
   76MOL0     H10013   6.065   9.670   4.663  1.1084 -0.6426  0.1508
   76MOL0     H10014   5.321   8.913   5.036  0.9930  0.4411 -0.2678
   76MOL0     H10015   5.095   8.783   4.964 -0.7095  0.5130 -0.6220
   76MOL0     H10016   4.775   8.753   4.686  0.2860 -2.1237  2.0412
   76MOL0     H10017   4.567   8.644   4.580  0.3335  2.1085 -0.9606
   76MOL0     H10018   5.173   8.150   4.076  1.0775  2.4568 -1.1464
   76MOL0     H10019   5.397   8.283   4.050  0.1622 -1.4173 -0.8245
   76MOL0     H10020   5.727   8.527   4.097 -2.8061  0.3580  3.3490
   76MOL0     H10021   5.908   8.623   4.066 -1.8362 -1.6712 -0.8604
   76MOL0     H10022   6.369   8.584   4.198  0.8814  2.8134  2.0007
   76MOL0     H10023   6.254   8.499   4.310 -1.2936  1.4132  1.4720
   76MOL0     H10024   6.345   8.715   4.364 -0.5525  2.4436  1.3368
   76MOL0     H10025   6.237   8.787   4.244 -2.0225 -0.3262  0.2594
   76MOL0     H10026   6.163   8.619   4.496 -2.8283  0.1434 -0.0677
   76MOL0     H10027   6.053   8.686   4.374 -1.0264 -1.6209 -0.1662
   76MOL0     H10028   6.212   8.854   4.568 -0.3092 -0.4101 -1.6875
   76MOL0     H10029   6.122   8.909   4.434 -1.4743 -2.0994 -3.1321
   76MOL0     H10030   5.800   8.792   4.690 -1.2353  2.0453 -1.6542
   76MOL0     H10031   6.127   8.301   4.275  0.7595 -0.3997 -2.3805
   76MOL0     H10032   5.931   8.198   4.308 -1.4173  0.9300  1.3993
   77MOL0     O10033   3.308   5.608   6.104  0.5567 -0.4990  0.0951
   77MOL0     C10034   3.400   5.620   6.020  0.9906 -0.1461 -0.1069
   77MOL0     O10035   3.379   5.608   5.887 -0.2996 -0.1546 -0.0788
   77MOL0     C10036   3.246   5.599   5.844  1.0443 -0.8359  0.3632
   77MOL0     C10037   3.183   5.486   5.779  0.0055 -0.3777 -0.7428
   77MOL0     C10038   3.052   5.487   5.732 -0.2516  0.1692 -0.0933
   77MOL0     C10039   2.963   5.596   5.761  0.4023 -0.4362  0.6791
   77MOL0     O10040   2.829   5.612   5.719  0.2642  0.3685 -0.3560
   77MOL0     C10041   2.764   5.486   5.699  0.1597  0.6537  0.9555
   77MOL0     C10042   2.615   5.515   5.694  0.4869 -0.2518  0.0800
   77MOL0     C10043   2.537   5.394   5.643 -0.2028 -0.5919  0.0616
   77MOL0     C10044   2.389   5.433   5.651  0.0911  0.4016 -0.7292
   77MOL0     C10045   2.289   5.332   5.601  0.2691  0.7687  0.3701
   77MOL0     C10046   2.139   5.354   5.654  0.0293 -0.0969 -0.3978
   77MOL0     C10047   2.113   5.259   5.767 -0.1369  0.1301  1.3687
   77MOL0     C10048   1.972   5.207   5.750 -0.1791 -0.5247 -0.9560
   77MOL0     N10049   1.871   5.304   5.720  0.3744  0.0258  0.6947
   77MOL0     C10050   1.742   5.273   5.660 -0.9774 -0.4584  0.9512
   77MOL0     C10051   1.671   5.386   5.680  0.4925  0.7567  0.2944
   77MOL0     C10052   1.530   5.420   5.625 -0.4131 -0.5362  0.1668
   77MOL0     C10053   1.510   5.565   5.595 -0.3520  0.2716  0.3367
   77MOL0     C10054   1.380   5.598   5.513  0.1487  0.5892 -0.0403
   77MOL0     C10055   1.377   5.745   5.522 -0.4199 -0.0765 -0.2708
   77MOL0     O10056   1.338   5.778   5.656  0.2501  0.0817 -0.4424
   77MOL0     C10057   1.209   5.747   5.690 -0.0699 -0.2560  0.1926
   77MOL0     C10058   1.098   5.733   5.609 -0.1486 -0.9601  0.5082
   77MOL0     C10059   0.976   5.693   5.652 -0.4729 -0.2645  1.1539
   77MOL0     C10060   0.956   5.669   5.790 -1.0152  1.0429 -0.4844
   77MOL0     C10061   0.824   5.643   5.834 -0.0342  0.1382 -0.2699
   77MOL0     O10062   0.724   5.632   5.738 -0.2507 -0.0510  0.0900
   77MOL0     C10063   0.593   5.614   5.776 -0.4777  0.2711 -1.4613
   77MOL0     C10064   0.560   5.531   5.880 -0.3700  0.4768 -0.2213
   77MOL0     C10065   0.430   5.510   5.926 -0.5534  0.0065 -0.3200
   77MOL0     C10066   0.326   5.563   5.848  0.2320  0.2785 -0.3038
   77MOL0     O10067   0.202   5.531   5.897  0.8193  0.4395 -0.0106
   77MOL0     C10068   0.092   5.619   5.870  0.8708 -0.5057  0.2990
   77MOL0     C10069   0.017   5.564   5.750 -0.2082  0.6953 -0.6165
   77MOL0     C10070  -0.071   5.444   5.788 -0.4003  0.3763  0.1793
   77MOL0     C10071  -0.141   5.382   5.663 -0.0568 -0.6806  0.1758
   77MOL0     C10072  -0.046   5.282   5.592  1.4498  0.0243 -0.5431
   77MOL0     C10073  -0.132   5.207   5.488  0.2783  0.4428  0.0629
   77MOL0     C10074  -0.061   5.076   5.434 -0.2953 -0.3708 -0.1944
   77MOL0     C10075  -0.086   5.056   5.285 -0.2020 -0.4607  0.2129
   77MOL0    Cl10076  -0.259   5.041   5.269  0.3632 -0.1843 -0.1341
   77MOL0     C10077   0.352   5.631   5.735  0.7118 -0.2098 -0.6489
   77MOL0     C10078   0.488   5.661   5.701  0.1861 -0.3555 -0.2165
   77MOL0     O10079   0.806   5.645   5.956  0.0661  0.4059 -0.0360
   77MOL0     C10080   1.070   5.674   5.874 -0.0042  0.1941 -0.5882
   77MOL0     C10081   1.191   5.719   5.826 -1.1164  0.8128  1.0961
   77MOL0     N10082   1.747   5.475   5.744  0.6693 -0.2779 -0.2130
   77MOL0     N10083   1.854   5.425   5.778  0.3780 -0.0585  0.3120
   77MOL0     C10084   3.023   5.703   5.832  0.8995  0.3781  0.3718
   77MOL0     C10085   3.158   5.704   5.866 -0.2029  0.2883  1.1766
   77MOL0     C10086   3.543   5.646   6.056  0.3798 -0.2401  0.1553
   77MOL0     C10087   3.596   5.633   6.179 -1.0005  0.0985 -0.5569
   77MOL0     C10088   3.733   5.650   6.203  0.2950  0.2685 -0.3746
   77MOL0     C10089   3.818   5.691   6.099  0.6314 -0.2637 -0.3666
   77MOL0     O10090   3.952   5.713   6.127  0.3687 -0.3772 -0.9586
   77MOL0     C10091   4.035   5.780   6.034 -0.4898 -0.6762  0.2570
   77MOL0     C10092   4.106   5.687   5.927 -0.0905  0.7783 -0.1011
   77MOL0     C10093   4.174   5.560   5.991  0.3392  0.3810  0.5243
   77MOL0     C10094   4.276   5.512   5.895  0.1929 -0.4368 -0.7437
   77MOL0     C10095   4.340   5.390   5.952  0.1431 -1.3010  0.7802
   77MOL0     C10096   4.400   5.295   5.997  0.0648 -0.2469 -0.1462
   77MOL0     C10097   3.771   5.698   5.967 -0.2978 -1.1300 -0.3554
   77MOL0     C10098   3.636   5.677   5.949  0.2052  0.7970 -0.4563
   77MOL0     H10099   3.248   5.399   5.775 -0.0138 -0.4214 -0.1320
   77MOL0     H10100   3.029   5.397   5.676  1.1532 -0.2591 -0.0264
   77MOL0     H10101   2.786   5.415   5.779 -4.1038 -3.3179 -0.9541
   77MOL0     H10102   2.783   5.444   5.600 -1.7899  3.3205 -0.6915
   77MOL0     H10103   2.601   5.596   5.623 -1.9238  0.2986  1.0896
   77MOL0     H10104   2.588   5.557   5.791 -0.2577 -3.1008  1.2284
   77MOL0     H10105   2.555   5.307   5.707 -0.0927 -0.2948  0.4363
   77MOL0     H10106   2.564   5.373   5.539  1.0570  1.0272  0.0259
   77MOL0     H10107   2.364   5.460   5.754 -0.1782 -0.5942 -0.5249
   77MOL0     H10108   2.372   5.520   5.587  2.3389  1.1154 -0.4499
   77MOL0     H10109   2.325   5.230   5.613 -0.7928  0.1376 -1.5693
   77MOL0     H10110   2.279   5.341   5.493 -1.0506 -0.6333  0.3465
   77MOL0     H10111   2.069   5.343   5.571 -0.2681  2.2840 -0.5512
   77MOL0     H10112   2.129   5.458   5.687 -2.0781  1.3144 -4.7631
   77MOL0     H10113   2.166   5.165   5.753 -1.9014 -0.4929 -2.3463
   77MOL0     H10114   2.122   5.314   5.861 -0.5379 -1.1719  2.1923
   77MOL0     H10115   1.949   5.152   5.842 -2.7470  4.2481  1.5987
   77MOL0     H10116   1.983   5.142   5.662 -1.2014  0.8901 -2.1725
   77MOL0     H10117   1.702   5.188   5.605 -1.9693  0.8066 -0.3858
   77MOL0     H10118   1.467   5.398   5.712  0.2344 -1.0023  0.5178
   77MOL0     H10119   1.509   5.353   5.541 -3.3793  0.3911  0.0501
   77MOL0     H10120   1.595   5.601   5.536 -0.9437  0.1939 -0.5829
   77MOL0     H10121   1.511   5.617   5.691  2.6057  1.4340 -0.2190
   77MOL0     H10122   1.374   5.566   5.409 -3.0357  1.0131 -0.0782
   77MOL0     H10123   1.292   5.548   5.554  0.9086  2.1312  4.0298
   77MOL0     H10124   1.313   5.797   5.451 -1.9056  0.7381  1.5990
   77MOL0     H10125   1.479   5.782   5.504 -0.3432 -0.9237 -1.6906
   77MOL0     H10126   1.109   5.753   5.503  2.1372 -0.1459  0.8421
   77MOL0     H10127   0.887   5.705   5.591 -0.1305 -3.5273 -0.1998
   77MOL0     H10128   0.637   5.491   5.946  0.1440  0.4342 -0.8325
   77MOL0     H10129   0.403   5.453   6.014  0.6886  1.0140  0.7452
   77MOL0     H10130   0.130   5.719   5.851  0.6556 -1.0719 -4.0261
   77MOL0     H10131   0.023   5.632   5.954  0.5240 -0.6636  0.0419
   77MOL0     H10132   0.094   5.543   5.676  1.4790  0.1735  1.1906
   77MOL0     H10133  -0.048   5.641   5.708 -0.3738  0.8908 -0.0235
   77MOL0     H10134  -0.142   5.475   5.865 -1.0422  1.9385 -0.9898
   77MOL0     H10135  -0.009   5.365   5.833  0.1871  0.5605 -0.2955
   77MOL0     H10136  -0.233   5.331   5.691 -0.7076 -0.1566 -0.9128
   77MOL0     H10137  -0.167   5.456   5.586  0.8348 -0.3435  0.1919
   77MOL0     H10138  -0.003   5.221   5.672 -0.5145 -0.7031  0.0209
   77MOL0     H10139   0.039   5.325   5.539  1.4260  0.0293 -0.5778
   77MOL0     H10140  -0.159   5.274   5.406 -1.7819 -1.0428 -0.5472
   77MOL0     H10141  -0.218   5.173   5.547  1.1368  0.2720  1.2423
   77MOL0     H10142   0.047   5.070   5.451 -0.6178 -0.7172  1.9739
   77MOL0     H10143  -0.106   4.988   5.480 -4.5563  1.4499 -0.3673
   77MOL0     H10144  -0.036   4.962   5.260  0.5374 -0.0050 -0.0336
   77MOL0     H10145  -0.056   5.147   5.233 -1.3804 -0.9697 -1.4607
   77MOL0     H10146   0.274   5.676   5.675  0.4385  2.7787  1.7357
   77MOL0     H10147   0.514   5.711   5.608 -3.6176 -1.1217 -1.8710
   77MOL0     H10148   1.062   5.655   5.981  0.0766 -1.4275 -0.8327
   77MOL0     H10149   1.269   5.728   5.900 -0.9966  0.2468  1.0364
   77MOL0     H10150   2.959   5.787   5.856  0.4626 -0.2312  1.3863
   77MOL0     H10151   3.200   5.793   5.913  2.3414 -0.5930  0.7007
   77MOL0     H10152   3.523   5.603   6.253 -1.1824  2.2491  0.2079
   77MOL0     H10153   3.773   5.631   6.302  1.2874 -0.5487 -0.9149
   77MOL0     H10154   4.108   5.843   6.085  1.8378 -2.2791 -0.8812
   77MOL0     H10155   3.995   5.853   5.964 -0.1771  0.2225  0.9894
   77MOL0     H10156   4.033   5.653   5.853  0.5980  0.5839 -0.7017
   77MOL0     H10157   4.179   5.731   5.859  0.5889  0.2185  0.2512
   77MOL0     H10158   4.098   5.482   6.007  0.8283 -0.3626 -0.6418
   77MOL0     H10159   4.219   5.578   6.089  0.4090 -1.1901  0.8135
   77MOL0     H10160   4.231   5.480   5.801  0.8075  2.1578 -2.0081
   77MOL0     H10161   4.354   5.586   5.874  1.5558 -1.8781 -0.9844
   77MOL0     H10162   4.435   5.212   6.055 -4.8836 -1.8099  1.0199
   77MOL0     H10163   3.833   5.716   5.880 -0.2656  0.3563 -0.0465
   77MOL0     H10164   3.608   5.675   5.844  0.4433 -2.8040 -0.5669
   78MOL0     O10165   0.277   2.499   6.351  0.2218 -0.5937 -0.2126
   78MOL0     C10166   0.362   2.596   6.338  0.1637  0.2960 -0.0899
   78MOL0     O10167   0.340   2.718   6.290  0.0092  0.2979  0.2046
   78MOL0     C10168   0.227   2.750   6.215  0.6255  0.3804  0.5131
   78MOL0     C10169   0.237   2.850   6.117  0.0373 -0.8605 -0.8856
   78MOL0     C10170   0.130   2.884   6.036 -0.7196 -0.0153  1.0343
   78MOL0     C10171   0.002   2.842   6.058 -0.0942 -0.3483 -1.0384
   78MOL0     O10172  -0.106   2.893   5.993 -0.5787  0.2197  0.0398
   78MOL0     C10173  -0.147   3.023   6.045 -0.0151  0.4831  0.8409
   78MOL0     C10174  -0.275   3.059   5.973 -0.7410  0.5524  0.0056
   78MOL0     C10175  -0.312   3.193   6.030  0.1310  0.0847 -0.0677
   78MOL0     C10176  -0.432   3.252   5.950  0.9838 -0.2413  0.6697
   78MOL0     C10177  -0.494   3.382   5.996 -0.1952 -0.4035  0.0051
   78MOL0     C10178  -0.600   3.440   5.892  0.4572 -0.3156 -1.4053
   78MOL0     C10179  -0.615   3.590   5.919 -0.2026 -0.0497  0.7530
   78MOL0     C10180  -0.661   3.656   5.793  0.2476  0.2041  0.0123
   78MOL0     N10181  -0.669   3.803   5.800 -0.1303  0.1952  0.1342
   78MOL0     C10182  -0.762   3.883   5.857  0.0661 -0.1561 -0.3123
   78MOL0     C10183  -0.707   4.008   5.855 -0.2228 -0.4120 -0.6504
   78MOL0     C10184  -0.768   4.124   5.923 -0.0437  0.2331  0.9063
   78MOL0     C10185  -0.767   4.105   6.070 -0.4940 -0.4124  0.4101
   78MOL0     C10186  -0.897   4.158   6.138 -0.2862  0.4223  0.3144
   78MOL0     C10187  -1.021   4.072   6.107 -0.1066  0.5243 -0.1290
   78MOL0     O10188  -0.984   3.940   6.082  0.5199  0.0496 -0.0187
   78MOL0     C10189  -1.080   3.845   6.105  0.2164 -0.3558 -1.0690
   78MOL0     C10190  -1.220   3.870   6.112 -0.3508  0.4388  0.0782
   78MOL0     C10191  -1.310   3.764   6.142  0.1922  0.2822 -0.5298
   78MOL0     C10192  -1.269   3.632   6.130 -0.1363  0.4070  1.9334
   78MOL0     C10193  -1.356   3.520   6.134 -0.3987  0.0013 -0.1618
   78MOL0     O10194  -1.476   3.550   6.202 -0.0565  0.3856 -0.3413
   78MOL0     C10195  -1.560   3.450   6.244 -0.6111 -0.8157 -0.2633
   78MOL0     C10196  -1.671   3.508   6.301 -0.5172  0.2714 -0.1965
   78MOL0     C10197  -1.775   3.431   6.359 -0.3164  0.6315  0.6289
   78MOL0     C10198  -1.758   3.292   6.373 -0.1850 -0.2121  0.6773
   78MOL0     O10199  -1.854   3.215   6.431  0.3126  0.5906 -0.2424
   78MOL0     C10200  -1.987   3.270   6.451 -0.7202  0.7712  0.6190
   78MOL0     C10201  -2.095   3.166   6.481  0.3503 -0.5095  0.4485
   78MOL0     C10202  -2.242   3.208   6.479  0.2428 -0.1478  0.1670
   78MOL0     C10203  -2.300   3.243   6.338 -0.0964 -0.4133 -0.0341
   78MOL0     C10204  -2.430   3.320   6.350 -0.8198  0.3533 -0.4539
   78MOL0     C10205  -2.544   3.251   6.421 -0.1137  1.4153  0.5947
   78MOL0     C10206  -2.602   3.126   6.348 -0.3997 -0.0238  0.8026
   78MOL0     C10207  -2.656   3.161   6.207 -0.0999  0.0660  0.2539
   78MOL0    Cl10208  -2.769   3.030   6.167 -0.2332  0.2458  0.0389
   78MOL0     C10209  -1.639   3.245   6.326 -0.4828  1.3202  0.1588
   78MOL0     C10210  -1.540   3.316   6.268 -0.6778  0.0568 -0.3402
   78MOL0     O10211  -1.328   3.416   6.074 -0.2483  0.5690 -0.0191
   78MOL0     C10212  -1.130   3.605   6.108 -0.1446  0.6062  0.7840
   78MOL0     C10213  -1.041   3.714   6.089 -0.6657 -0.7104  0.0719
   78MOL0     N10214  -0.583   4.007   5.793 -0.2259  0.0625  0.4666
   78MOL0     N10215  -0.566   3.884   5.755  0.7226  0.9844  0.5048
   78MOL0     C10216  -0.020   2.751   6.166  0.2509 -0.0231 -0.0109
   78MOL0     C10217   0.092   2.703   6.237 -0.3131  1.0804 -0.2174
   78MOL0     C10218   0.477   2.575   6.417  0.0079  0.6619 -0.8801
   78MOL0     C10219   0.496   2.455   6.492  1.1571  0.0636 -0.5846
   78MOL0     C10220   0.614   2.433   6.565 -0.0622  0.5424 -0.1269
   78MOL0     C10221   0.723   2.521   6.552 -0.5098 -0.0259 -1.0487
   78MOL0     O10222   0.842   2.493   6.622 -0.0871  0.5466  0.2569
   78MOL0     C10223   0.947   2.589   6.614 -0.1340 -0.8100 -0.4272
   78MOL0     C10224   1.020   2.597   6.476  0.4491  0.3969 -0.6574
   78MOL0     C10225   1.167   2.618   6.474 -0.7319  0.2430 -0.1481
   78MOL0     C10226   1.206   2.685   6.348 -0.3050 -0.2651  0.1307
   78MOL0     C10227   1.348   2.721   6.348 -0.3942  0.4497  0.5211
   78MOL0     C10228   1.458   2.758   6.340 -0.3801  0.0049  0.3574
   78MOL0     C10229   0.699   2.640   6.489  0.7599 -0.8257  0.7652
   78MOL0     C10230   0.585   2.665   6.413 -0.3513  0.5413 -0.0346
   78MOL0     H10231   0.319   2.920   6.104 -1.7445  1.1588 -1.9039
   78MOL0     H10232   0.131   2.958   5.956  0.0832 -2.0510 -0.9424
   78MOL0     H10233  -0.077   3.106   6.033 -2.2061  2.3556  0.2495
   78MOL0     H10234  -0.173   3.016   6.151  0.3506 -2.5631  0.8272
   78MOL0     H10235  -0.356   2.985   5.965 -3.1562  2.8671  1.2225
   78MOL0     H10236  -0.244   3.083   5.871 -0.7882 -0.1442 -0.1785
   78MOL0     H10237  -0.229   3.264   6.030  0.5356 -0.2786  2.6913
   78MOL0     H10238  -0.349   3.160   6.127  1.8472 -3.1952 -0.3735
   78MOL0     H10239  -0.407   3.271   5.846  2.4147 -1.2149  0.8141
   78MOL0     H10240  -0.508   3.173   5.949  1.5676 -1.1758 -5.1248
   78MOL0     H10241  -0.411   3.452   6.013 -0.7682 -0.1811  2.1820
   78MOL0     H10242  -0.538   3.374   6.095  0.9202 -0.0468  0.5401
   78MOL0     H10243  -0.692   3.385   5.912 -1.7656  3.8323  1.5649
   78MOL0     H10244  -0.570   3.429   5.788  0.5319 -0.1237 -1.4056
   78MOL0     H10245  -0.680   3.611   6.004  0.1144  0.3411  0.8995
   78MOL0     H10246  -0.519   3.635   5.948  1.5176 -2.5188 -0.6837
   78MOL0     H10247  -0.762   3.623   5.767  0.2387  0.5211 -0.3703
   78MOL0     H10248  -0.595   3.623   5.713  4.6590 -0.0316  3.3926
   78MOL0     H10249  -0.851   3.856   5.913  1.9039 -0.2371  2.8421
   78MOL0     H10250  -0.869   4.143   5.884  1.4950  2.8375 -2.3509
   78MOL0     H10251  -0.719   4.216   5.888 -1.5088  0.3413 -1.0293
   78MOL0     H10252  -0.690   4.170   6.113 -1.2820  0.7810  0.0692
   78MOL0     H10253  -0.745   4.003   6.103  0.9532 -0.6099 -1.0464
   78MOL0     H10254  -0.877   4.154   6.245  3.4869 -0.1967 -0.2724
   78MOL0     H10255  -0.926   4.260   6.112 -2.1055 -0.3264 -0.7802
   78MOL0     H10256  -1.082   4.123   6.031 -0.4210 -0.0988 -0.2961
   78MOL0     H10257  -1.070   4.078   6.204  0.8079 -2.2950  0.5846
   78MOL0     H10258  -1.258   3.971   6.123  1.8463  1.1563  1.6177
   78MOL0     H10259  -1.405   3.797   6.182 -0.5443 -0.0197 -2.0012
   78MOL0     H10260  -1.682   3.616   6.299 -3.3768  0.0822  1.2580
   78MOL0     H10261  -1.861   3.487   6.396 -0.3862  1.3817 -0.6018
   78MOL0     H10262  -2.021   3.318   6.359  0.4629  2.0713  0.8224
   78MOL0     H10263  -1.979   3.345   6.530  1.9462  2.1086 -0.7783
   78MOL0     H10264  -2.073   3.130   6.582 -1.3269  0.1028  1.0617
   78MOL0     H10265  -2.087   3.084   6.408 -0.3564  1.2905 -1.7559
   78MOL0     H10266  -2.258   3.284   6.556 -0.3540 -1.3558  1.2704
   78MOL0     H10267  -2.298   3.123   6.518  0.0148 -1.1066 -2.1115
   78MOL0     H10268  -2.235   3.312   6.282 -1.1896  1.4249  0.8611
   78MOL0     H10269  -2.324   3.153   6.280  0.5308  1.0028 -2.6745
   78MOL0     H10270  -2.459   3.335   6.246  2.2995 -2.3840 -1.9033
   78MOL0     H10271  -2.401   3.412   6.402  0.2997 -0.5037  0.5043
   78MOL0     H10272  -2.624   3.325   6.432 -3.8029 -1.9827 -0.7883
   78MOL0     H10273  -2.518   3.220   6.523 -3.1431  1.0229  1.3567
   78MOL0     H10274  -2.522   3.054   6.334  1.1433  1.8975 -0.9037
   78MOL0     H10275  -2.688   3.082   6.400 -2.8059 -1.6901 -4.0272
   78MOL0     H10276  -2.576   3.163   6.133  0.3621  1.0832  0.7648
   78MOL0     H10277  -2.714   3.254   6.213 -3.4678 -1.8966  0.7656
   78MOL0     H10278  -1.627   3.138   6.318 -0.3896  1.2344  1.2221
   78MOL0     H10279  -1.456   3.264   6.224 -1.1869 -0.9076 -0.1993
   78MOL0     H10280  -1.101   3.502   6.094  1.2586  0.7505  2.3517
   78MOL0     H10281  -0.936   3.694   6.072 -1.2744 -4.7929  0.1656
   78MOL0     H10282  -0.116   2.701   6.177 -0.3327  1.1956  0.6789
   78MOL0     H10283   0.070   2.620   6.303 -1.6714  1.5510 -0.0313
   78MOL0     H10284   0.417   2.381   6.497  0.0445  1.2557  0.1410
   78MOL0     H10285   0.613   2.335   6.612  1.0314  0.9179  0.7294
   78MOL0     H10286   1.024   2.559   6.686 -2.0263 -1.3756  1.4626
   78MOL0     H10287   0.910   2.687   6.643 -0.1487 -1.0147  0.2781
   78MOL0     H10288   1.004   2.513   6.408  2.1750  1.5618 -2.6249
   78MOL0     H10289   0.983   2.681   6.416  1.6238  1.3106 -0.1476
   78MOL0     H10290   1.216   2.520   6.474 -0.7936  0.2137 -0.3711
   78MOL0     H10291   1.193   2.685   6.557 -0.5932  1.9584 -1.5388
   78MOL0     H10292   1.201   2.620   6.260  0.6434 -1.2951  0.8026
   78MOL0     H10293   1.155   2.782   6.346  1.0278  0.4675  0.3728
   78MOL0     H10294   1.559   2.794   6.337 -0.7402  1.1848  1.2648
   78MOL0     H10295   0.785   2.707   6.482  1.3506 -1.2255  3.1693
   78MOL0     H10296   0.574   2.750   6.345  0.7577  0.8487  0.1569
   79MOL0     O10297   4.630   8.358   4.539 -0.5314 -0.0655 -0.6910
   79MOL0     C10298   4.720   8.347   4.450  0.2066  0.6970 -0.4335
   79MOL0     O10299   4.709   8.289   4.325  0.5047 -0.0178 -0.9395
   79MOL0     C10300   4.579   8.250   4.295 -0.2647  0.7529 -0.0405
   79MOL0     C10301   4.469   8.336   4.309 -0.4001  0.5669 -0.1301
   79MOL0     C10302   4.346   8.294   4.254 -0.9820  0.1332 -0.2446
   79MOL0     C10303   4.333   8.166   4.193  0.2329 -0.7692  0.0751
   79MOL0     O10304   4.216   8.128   4.138 -0.1773 -0.4906  1.1911
   79MOL0     C10305   4.164   8.000   4.156  1.0164  0.0848 -0.2667
   79MOL0     C10306   4.032   7.990   4.077 -0.7715 -0.0529 -0.0623
   79MOL0     C10307   4.063   7.931   3.937 -0.0066  0.4871 -1.2026
   79MOL0     C10308   4.155   8.010   3.849 -0.1092  0.1101  0.7060
   79MOL0     C10309   4.244   7.925   3.751 -0.0313 -0.0776 -0.6725
   79MOL0     C10310   4.178   7.827   3.657  0.5163  0.2415 -0.7668
   79MOL0     C10311   4.264   7.764   3.549 -0.5250  1.1929  0.0256
   79MOL0     C10312   4.193   7.654   3.469  0.3466 -0.6878 -0.5817
   79MOL0     N10313   4.296   7.598   3.389 -0.2140 -0.7244 -0.2324
   79MOL0     C10314   4.286   7.624   3.251  0.4036  0.4803  0.3948
   79MOL0     C10315   4.411   7.585   3.210 -0.4043 -0.3629 -0.2770
   79MOL0     C10316   4.480   7.612   3.078 -0.6410  0.4377  0.0711
   79MOL0     C10317   4.629   7.652   3.081 -0.1537  0.3466 -0.8269
   79MOL0     C10318   4.654   7.777   3.170 -0.4556  0.3307 -0.2178
   79MOL0     C10319   4.804   7.822   3.173 -0.5116  0.3117  0.0718
   79MOL0     O10320   4.831   7.873   3.039 -0.2388 -0.6658 -0.1906
   79MOL0     C10321   4.960   7.930   3.020 -0.4211  0.4034  0.1316
   79MOL0     C10322   4.960   8.044   2.946 -0.3929  0.5847 -0.4434
   79MOL0     C10323   5.084   8.114   2.920  0.3372 -0.2118 -0.2430
   79MOL0     C10324   5.203   8.071   2.982  0.3798 -0.0995 -0.0236
   79MOL0     C10325   5.318   8.160   2.967  0.1811  0.0612  0.1590
   79MOL0     O10326   5.308   8.280   2.896  0.5726 -0.0350 -0.1152
   79MOL0     C10327   5.416   8.353   2.875  1.1305 -0.1966  0.5484
   79MOL0     C10328   5.516   8.310   2.789  0.6287 -0.2193  0.5224
   79MOL0     C10329   5.634   8.388   2.769  0.8420  0.0743  0.2232
   79MOL0     C10330   5.644   8.502   2.844  0.1808  0.3440 -0.2807
   79MOL0     O10331   5.754   8.584   2.848 -0.1517  0.0054 -0.1901
   79MOL0     C10332   5.861   8.550   2.750  1.1097 -0.2742  1.0164
   79MOL0     C10333   5.989   8.619   2.798 -0.3923  0.4206  0.4632
   79MOL0     C10334   6.115   8.551   2.740 -0.8403 -0.4823 -0.3780
   79MOL0     C10335   6.239   8.624   2.805 -1.0172  0.4417 -0.6121
   79MOL0     C10336   6.368   8.535   2.792  0.2846 -0.4523 -0.0670
   79MOL0     C10337   6.493   8.611   2.847 -0.0628  0.3773  0.1366
   79MOL0     C10338   6.628   8.555   2.795  0.0633  0.1597  0.2680
   79MOL0     C10339   6.689   8.630   2.674  0.0221  0.6389  0.5038
   79MOL0    Cl10340   6.760   8.784   2.714  0.5325  0.7916  0.2027
   79MOL0     C10341   5.539   8.542   2.932 -0.4618  0.5453 -0.5788
   79MOL0     C10342   5.425   8.468   2.947  0.0254 -0.2935 -0.2628
   79MOL0     O10343   5.421   8.115   3.025 -0.2862 -0.0161 -0.2585
   79MOL0     C10344   5.199   7.951   3.060  0.6405  0.0705  0.3025
   79MOL0     C10345   5.078   7.883   3.086 -0.6308  0.9184 -0.1086
   79MOL0     N10346   4.478   7.517   3.309  0.9259 -0.4643  0.2794
   79MOL0     N10347   4.413   7.537   3.416  0.4269  0.0439  0.5544
   79MOL0     C10348   4.446   8.086   4.171  0.3050  0.5905  0.6890
   79MOL0     C10349   4.573   8.134   4.215 -0.2191  0.1556  0.0874
   79MOL0     C10350   4.860   8.366   4.496  0.3428 -0.3684  0.3862
   79MOL0     C10351   4.873   8.371   4.638  0.4685 -0.2310 -0.2403
   79MOL0     C10352   4.992   8.408   4.703  0.8658 -0.4912  0.3857
   79MOL0     C10353   5.112   8.407   4.630  0.7048  0.0852  0.5713
   79MOL0     O10354   5.222   8.425   4.702 -1.1018  0.8261  0.3722
   79MOL0     C10355   5.343   8.463   4.642  0.5047 -0.2224 -1.0127
   79MOL0     C10356   5.337   8.606   4.599 -0.5919 -0.0768  0.0473
   79MOL0     C10357   5.342   8.711   4.705 -0.0870 -0.2133  0.3466
   79MOL0     C10358   5.335   8.850   4.647  0.1179  0.3465 -0.7886
   79MOL0     C10359   5.461   8.887   4.578 -0.7779  0.5192 -0.3110
   79MOL0     C10360   5.558   8.921   4.519  0.1310  0.8601  0.1413
   79MOL0     C10361   5.103   8.391   4.486  0.7444  0.3181 -0.6645
   79MOL0     C10362   4.978   8.377   4.424 -0.5490  0.0316  0.1546
   79MOL0     H10363   4.472   8.434   4.356 -5.2054 -0.0410  2.0186
   79MOL0     H10364   4.266   8.367   4.268  1.2380  2.4338  1.3405
   79MOL0     H10365   4.134   8.004   4.261 -2.5529  1.7405 -1.2204
   79MOL0     H10366   4.236   7.919   4.139 -0.8024 -1.5316 -0.5167
   79MOL0     H10367   3.979   8.085   4.071 -0.2053  0.2102 -1.1457
   79MOL0     H10368   3.976   7.923   4.143 -0.4015 -1.9719 -1.5862
   79MOL0     H10369   3.970   7.909   3.884 -0.5375 -1.5026  0.4461
   79MOL0     H10370   4.099   7.828   3.952 -3.5885 -0.4977  2.2512
   79MOL0     H10371   4.099   8.089   3.797  0.7292  1.2952  1.5485
   79MOL0     H10372   4.220   8.075   3.907  0.0733 -0.7035  1.4353
   79MOL0     H10373   4.310   7.872   3.821 -1.2016  1.6909  1.8947
   79MOL0     H10374   4.293   7.996   3.684  0.8103 -0.1198 -0.1186
   79MOL0     H10375   4.106   7.892   3.607  0.1943  0.1120 -0.4829
   79MOL0     H10376   4.128   7.750   3.718 -0.9364  1.5387 -0.2586
   79MOL0     H10377   4.303   7.831   3.472 -0.7686 -0.1157 -1.2740
   79MOL0     H10378   4.356   7.725   3.593 -0.4388 -0.0138 -1.1639
   79MOL0     H10379   4.107   7.690   3.411 -1.8756 -1.6346  1.9175
   79MOL0     H10380   4.154   7.576   3.534  2.4131 -0.6454  0.8183
   79MOL0     H10381   4.203   7.668   3.197  1.0400  2.3912  0.8956
   79MOL0     H10382   4.419   7.695   3.039 -3.0773 -0.4260  1.7606
   79MOL0     H10383   4.480   7.520   3.019  4.4300 -0.1917  0.6498
   79MOL0     H10384   4.653   7.662   2.975 -4.4070  2.0823 -1.8533
   79MOL0     H10385   4.694   7.580   3.130 -0.4955  2.0023  2.3656
   79MOL0     H10386   4.598   7.858   3.123 -0.2535 -1.4912 -3.9578
   79MOL0     H10387   4.631   7.748   3.273  0.9327 -1.3614 -0.3356
   79MOL0     H10388   4.869   7.735   3.184 -3.6532 -2.5822 -2.3093
   79MOL0     H10389   4.814   7.901   3.249 -1.1488  1.5079 -1.0561
   79MOL0     H10390   4.863   8.076   2.909 -0.3943  0.7809 -0.2722
   79MOL0     H10391   5.082   8.196   2.850 -1.5595 -0.7740 -0.9173
   79MOL0     H10392   5.497   8.212   2.748 -0.5856  0.5007 -0.7408
   79MOL0     H10393   5.697   8.361   2.685  1.6849 -0.0958  0.9005
   79MOL0     H10394   5.845   8.592   2.650  1.9292 -3.9798 -0.8486
   79MOL0     H10395   5.880   8.445   2.724  2.1368  0.1800 -0.2036
   79MOL0     H10396   5.988   8.609   2.907 -2.1852  1.6283  0.5945
   79MOL0     H10397   5.992   8.726   2.778 -2.1129  1.5395  4.9016
   79MOL0     H10398   6.122   8.551   2.630  0.0260  1.7352 -0.3647
   79MOL0     H10399   6.103   8.445   2.767  0.4203 -1.1231 -2.1050
   79MOL0     H10400   6.250   8.717   2.749 -0.6541  0.0236 -1.2508
   79MOL0     H10401   6.230   8.639   2.913  1.3170  0.8631 -0.4231
   79MOL0     H10402   6.382   8.509   2.687 -1.1716  2.3495 -1.0764
   79MOL0     H10403   6.341   8.449   2.855 -2.2354  1.8728  2.3183
   79MOL0     H10404   6.492   8.597   2.955 -0.9562 -2.0454 -0.1218
   79MOL0     H10405   6.477   8.716   2.818 -2.6048 -0.0626 -0.3599
   79MOL0     H10406   6.694   8.572   2.880 -1.5514  1.6564  1.2856
   79MOL0     H10407   6.619   8.447   2.784 -3.2069  0.2918  0.5972
   79MOL0     H10408   6.612   8.646   2.598 -0.2302 -0.2900  0.5539
   79MOL0     H10409   6.755   8.555   2.629  0.4063  0.8956  0.6336
   79MOL0     H10410   5.551   8.637   2.984  1.2811 -0.7661  1.5820
   79MOL0     H10411   5.358   8.497   3.028 -1.9234 -1.3109 -1.4438
   79MOL0     H10412   5.292   7.913   3.103  2.0389 -1.1647 -3.4248
   79MOL0     H10413   5.095   7.801   3.154  0.0140  0.4665 -0.7904
   79MOL0     H10414   4.439   7.996   4.111  0.4431  0.4535  0.8780
   79MOL0     H10415   4.657   8.067   4.200 -0.4772 -0.5863  1.7593
   79MOL0     H10416   4.784   8.377   4.701 -0.1299 -1.9588 -0.8498
   79MOL0     H10417   4.992   8.431   4.809  0.8852 -1.1518  0.5381
   79MOL0     H10418   5.365   8.408   4.550 -0.0063 -1.0616 -0.6509
   79MOL0     H10419   5.427   8.448   4.710 -1.2457 -0.2993  1.2368
   79MOL0     H10420   5.416   8.620   4.525 -2.6304 -0.8793 -2.4062
   79MOL0     H10421   5.242   8.617   4.546 -1.5020 -0.4310  1.5512
   79MOL0     H10422   5.431   8.692   4.765 -0.1960 -1.4855  0.1484
   79MOL0     H10423   5.252   8.710   4.768 -0.0370  3.1987  0.6229
   79MOL0     H10424   5.255   8.863   4.573  2.4076  1.4031 -3.2254
   79MOL0     H10425   5.315   8.919   4.730  1.2321  0.7791 -0.8620
   79MOL0     H10426   5.657   8.935   4.480 -0.0081  3.0366  0.4093
   79MOL0     H10427   5.181   8.398   4.411 -1.1102  0.2726 -2.7155
   79MOL0     H10428   4.981   8.354   4.318  0.8354 -0.2932  0.2417
   80MOL0     O10429   9.997   1.389  10.461 -0.3590  0.1233  0.0066
   80MOL0     C10430  10.062   1.357  10.558 -0.1492  0.3116  0.6384
   80MOL0     O10431  10.026   1.389  10.687  0.5360 -0.0236 -0.0290
   80MOL0     C10432   9.903   1.438  10.704  0.5190  0.6880 -0.1709
   80MOL0     C10433   9.805   1.342  10.704  0.9477 -0.3738 -0.2511
   80MOL0     C10434   9.672   1.387  10.728 -0.9851 -0.1251 -1.0636
   80MOL0     C10435   9.645   1.520  10.757  0.0494 -0.6401 -0.9676
   80MOL0     O10436   9.517   1.551  10.789 -0.2578 -0.8943 -0.5237
   80MOL0     C10437   9.463   1.682  10.740  0.0599  0.4136 -0.2401
   80MOL0     C10438   9.313   1.669  10.705  0.0072  0.7671 -0.1482
   80MOL0     C10439   9.243   1.798  10.749  1.0660  1.0966 -0.1232
   80MOL0     C10440   9.087   1.786  10.723 -0.5786 -0.1014  0.2131
   80MOL0     C10441   9.012   1.883  10.812  0.0022 -0.2571  0.1277
   80MOL0     C10442   8.866   1.911  10.781 -0.3917  0.1792 -0.0684
   80MOL0     C10443   8.797   1.781  10.728 -0.1764  0.1750  0.1975
   80MOL0     C10444   8.642   1.785  10.700  0.5349 -0.1073  0.4642
   80MOL0     N10445   8.547   1.788  10.818 -0.0767  0.3057 -0.2759
   80MOL0     C10446   8.533   1.888  10.910  0.3690  0.7779 -0.1517
   80MOL0     C10447   8.421   1.853  10.983  0.0313 -0.0597 -0.0558
   80MOL0     C10448   8.383   1.941  11.102  0.0264 -0.1593  0.1966
   80MOL0     C10449   8.245   1.899  11.159 -0.0739 -1.2628 -0.0389
   80MOL0     C10450   8.132   1.933  11.060  0.3480  0.2373 -0.3214
   80MOL0     C10451   7.991   1.947  11.149 -0.3528  0.2756  0.2932
   80MOL0     O10452   7.882   1.935  11.064 -0.1975  0.3274 -0.7711
   80MOL0     C10453   7.753   1.943  11.120  0.7669  0.9134  0.6792
   80MOL0     C10454   7.716   1.986  11.249 -0.5170  0.1078  0.1835
   80MOL0     C10455   7.582   2.001  11.286  0.0743  0.3972 -0.2600
   80MOL0     C10456   7.479   1.954  11.206  0.3714 -0.2074 -0.2647
   80MOL0     C10457   7.345   1.955  11.260 -0.9021  0.5777  0.3708
   80MOL0     O10458   7.249   1.988  11.166 -0.1417 -0.4896  0.1278
   80MOL0     C10459   7.119   1.949  11.189  0.1489  0.7017  0.7429
   80MOL0     C10460   7.075   1.825  11.256 -0.5445 -0.0204  0.7095
   80MOL0     C10461   6.940   1.792  11.255  0.9082  0.1498 -0.6145
   80MOL0     C10462   6.846   1.865  11.173  0.4838 -0.5326 -0.5176
   80MOL0     O10463   6.715   1.834  11.174  0.4004 -0.4182  0.2318
   80MOL0     C10464   6.653   1.812  11.308  0.5411  0.0272 -0.1195
   80MOL0     C10465   6.503   1.809  11.301 -1.0721 -0.3178 -0.3341
   80MOL0     C10466   6.427   1.757  11.427 -0.0745 -0.1528 -1.0624
   80MOL0     C10467   6.275   1.768  11.425 -0.6977 -0.9979 -0.1349
   80MOL0     C10468   6.197   1.706  11.540 -0.8691  1.1484  0.5054
   80MOL0     C10469   6.051   1.770  11.520 -1.3314 -0.5179 -0.4009
   80MOL0     C10470   5.958   1.709  11.614 -0.4329  0.2318 -1.2360
   80MOL0     C10471   5.817   1.770  11.622 -0.3090 -0.2574  0.6255
   80MOL0    Cl10472   5.694   1.703  11.506 -0.4061  0.4415  0.0963
   80MOL0     C10473   6.893   1.983  11.116 -0.5589 -0.8276  0.0780
   80MOL0     C10474   7.026   2.022  11.123 -0.0887 -0.7315  0.1941
   80MOL0     O10475   7.325   1.918  11.374 -0.2198 -0.5356  0.7454
   80MOL0     C10476   7.511   1.916  11.083  0.4006 -0.4670  0.8589
   80MOL0     C10477   7.642   1.911  11.034 -0.0547 -0.2441  0.0805
   80MOL0     N10478   8.383   1.723  10.949 -0.6984 -0.5140  0.8432
   80MOL0     N10479   8.455   1.686  10.849  0.0582 -0.2962 -0.1600
   80MOL0     C10480   9.745   1.611  10.766  0.4451 -0.8489 -0.0525
   80MOL0     C10481   9.876   1.575  10.740 -0.4030 -0.8762  0.6275
   80MOL0     C10482  10.194   1.294  10.540 -0.6551  0.2783  0.4813
   80MOL0     C10483  10.286   1.278  10.643  0.2126  0.5726 -0.4220
   80MOL0     C10484  10.415   1.242  10.622 -0.8881  0.3393 -0.0552
   80MOL0     C10485  10.460   1.214  10.495 -0.1336 -0.8288  0.9150
   80MOL0     O10486  10.590   1.174  10.456  0.0808 -0.4630  1.0470
   80MOL0     C10487  10.678   1.295  10.438 -0.2147  0.5468  0.1311
   80MOL0     C10488  10.791   1.320  10.548 -0.3079 -1.0690 -0.1693
   80MOL0     C10489  10.876   1.194  10.579  0.4383 -0.9908 -0.3123
   80MOL0     C10490  10.982   1.213  10.693 -0.5034 -0.3890 -0.6705
   80MOL0     C10491  11.060   1.337  10.695  0.5433  0.2577  0.3655
   80MOL0     C10492  11.117   1.446  10.682  0.0369  0.0526  0.2092
   80MOL0     C10493  10.372   1.213  10.386  0.0624 -0.2821  0.0745
   80MOL0     C10494  10.244   1.254  10.411  1.2665 -0.5659 -0.2596
   80MOL0     H10495   9.837   1.239  10.695  0.3904 -0.6073  0.3916
   80MOL0     H10496   9.593   1.313  10.726  0.9844 -2.3071 -1.9252
   80MOL0     H10497   9.502   1.709  10.641 -1.4695 -0.0845 -1.0026
   80MOL0     H10498   9.480   1.764  10.810 -1.0518 -1.8798  2.9552
   80MOL0     H10499   9.270   1.580  10.751  3.2247 -1.0546 -0.3637
   80MOL0     H10500   9.313   1.657  10.596 -0.1386 -0.6431 -0.0022
   80MOL0     H10501   9.289   1.887  10.705  5.9143 -0.4419  1.2795
   80MOL0     H10502   9.263   1.801  10.856 -0.3005 -0.9453  0.2580
   80MOL0     H10503   9.081   1.817  10.618 -0.2154 -1.6459 -0.2838
   80MOL0     H10504   9.047   1.686  10.742 -0.3244 -0.6259 -1.7874
   80MOL0     H10505   9.071   1.974  10.827 -0.4328  0.4039 -1.8709
   80MOL0     H10506   9.005   1.842  10.913  1.3290  0.3386  0.4855
   80MOL0     H10507   8.850   2.003  10.724  3.1079  0.4377 -0.8754
   80MOL0     H10508   8.818   1.928  10.878  0.8276 -0.3037  0.6526
   80MOL0     H10509   8.834   1.744  10.632 -0.7948  0.6810 -0.2412
   80MOL0     H10510   8.804   1.700  10.801 -2.7970 -2.2792 -2.0597
   80MOL0     H10511   8.608   1.697  10.645  1.7387 -2.4721  3.2317
   80MOL0     H10512   8.625   1.869  10.632 -0.0045 -1.4880 -1.1607
   80MOL0     H10513   8.576   1.987  10.909 -1.0964  1.4428 -0.2427
   80MOL0     H10514   8.379   2.048  11.079 -3.0558  0.1499  1.6661
   80MOL0     H10515   8.464   1.941  11.176  2.4233  1.4155 -2.2178
   80MOL0     H10516   8.235   1.948  11.256 -2.7195  0.4041 -1.0458
   80MOL0     H10517   8.242   1.790  11.167  0.3221 -1.2304  0.5920
   80MOL0     H10518   8.150   2.030  11.012 -2.0456  0.8365 -0.1696
   80MOL0     H10519   8.127   1.855  10.984 -2.5799  1.6684 -1.7799
   80MOL0     H10520   7.992   2.041  11.204  4.6480  1.1102 -0.7763
   80MOL0     H10521   7.991   1.864  11.220  1.0038  0.4610  0.5329
   80MOL0     H10522   7.800   2.015  11.312 -0.5410  1.2821 -0.3130
   80MOL0     H10523   7.549   2.047  11.379 -0.5700  3.5901 -1.9588
   80MOL0     H10524   7.147   1.765  11.310 -1.0698 -1.0910  0.2701
   80MOL0     H10525   6.913   1.713  11.325  2.3874 -0.1747 -0.3717
   80MOL0     H10526   6.685   1.894  11.373  0.1447  0.4243 -0.4139
   80MOL0     H10527   6.687   1.714  11.340  0.3690 -0.0942 -0.2986
   80MOL0     H10528   6.481   1.740  11.219 -0.2042  0.2275 -1.0421
   80MOL0     H10529   6.462   1.905  11.270  1.6521  1.4534  1.1119
   80MOL0     H10530   6.453   1.807  11.521 -2.1385  0.8218 -0.9480
   80MOL0     H10531   6.456   1.655  11.455  0.9681  0.9374  2.4301
   80MOL0     H10532   6.251   1.875  11.432  0.0678 -0.8878  1.1706
   80MOL0     H10533   6.230   1.745  11.328 -1.0740  0.4750 -0.3287
   80MOL0     H10534   6.255   1.721  11.632  0.7327 -0.3003 -0.2227
   80MOL0     H10535   6.198   1.598  11.528 -1.3652  0.9249  2.1529
   80MOL0     H10536   6.021   1.760  11.416 -1.5879  3.1855 -0.8263
   80MOL0     H10537   6.066   1.877  11.538 -0.8002 -0.3754 -1.6243
   80MOL0     H10538   5.951   1.602  11.593 -1.8415  0.1082 -0.2660
   80MOL0     H10539   5.994   1.715  11.717  0.6735 -1.7015 -1.4633
   80MOL0     H10540   5.822   1.880  11.627 -0.6523 -0.2192  0.1585
   80MOL0     H10541   5.788   1.747  11.725 -0.6052 -0.2029  0.5530
   80MOL0     H10542   6.824   2.053  11.071  1.6927  1.3260 -0.2404
   80MOL0     H10543   7.053   2.109  11.064 -0.2273 -2.0013 -1.8383
   80MOL0     H10544   7.437   1.876  11.015 -1.9583 -0.0583  3.0418
   80MOL0     H10545   7.667   1.884  10.932 -1.2228  0.3910 -0.3965
   80MOL0     H10546   9.709   1.699  10.819 -0.2118 -1.2539  0.1901
   80MOL0     H10547   9.954   1.647  10.764  0.1777 -1.0197 -0.7665
   80MOL0     H10548  10.268   1.313  10.744  1.5768  1.2116 -0.3783
   80MOL0     H10549  10.491   1.236  10.699  0.6133  1.7834 -1.3298
   80MOL0     H10550  10.618   1.387  10.435  1.5980  1.8244  1.1727
   80MOL0     H10551  10.725   1.292  10.340 -0.6817  4.0676 -0.3471
   80MOL0     H10552  10.852   1.407  10.523 -1.7722  0.1489  0.3675
   80MOL0     H10553  10.730   1.348  10.635 -0.8765 -2.6782 -0.0137
   80MOL0     H10554  10.930   1.164  10.489  2.6886 -1.7495  1.2091
   80MOL0     H10555  10.807   1.111  10.601  0.2027 -1.6399 -3.1113
   80MOL0     H10556  10.931   1.211  10.790 -2.1623 -3.9392 -1.4674
   80MOL0     H10557  11.051   1.129  10.680 -2.8292 -2.1941 -2.4270
   80MOL0     H10558  11.156   1.546  10.675 -0.6330  0.2735 -0.3914
   80MOL0     H10559  10.401   1.193  10.283 -2.6370 -2.1070 -0.4348
   80MOL0     H10560  10.177   1.275  10.328  1.9246 -1.3197 -1.0032
   81MOL0     O10561   1.965   8.053   2.127 -0.6318  0.5383 -0.1863
   81MOL0     C10562   2.000   8.173   2.115 -0.2847  0.4702  0.4167
   81MOL0     O10563   1.936   8.286   2.164  0.1308  0.2837  0.6378
   81MOL0     C10564   1.807   8.295   2.211 -0.1066 -0.4534  1.0183
   81MOL0     C10565   1.723   8.198   2.254 -0.1090 -0.1514 -1.5745
   81MOL0     C10566   1.591   8.221   2.306 -1.5139  0.2604 -0.1516
   81MOL0     C10567   1.545   8.346   2.305  0.2029  0.3101 -1.1882
   81MOL0     O10568   1.415   8.355   2.345  0.3194  0.0755 -0.4122
   81MOL0     C10569   1.347   8.469   2.303  0.8564  0.4360 -0.7287
   81MOL0     C10570   1.206   8.461   2.342 -0.5379  0.0388 -0.5348
   81MOL0     C10571   1.125   8.578   2.284  0.6339  0.7716 -0.8853
   81MOL0     C10572   0.977   8.559   2.323 -0.1102 -0.6812 -0.1477
   81MOL0     C10573   0.883   8.676   2.298 -0.2485  1.0158  0.2964
   81MOL0     C10574   0.733   8.650   2.278 -0.4091  0.0023 -0.3205
   81MOL0     C10575   0.679   8.593   2.150  0.4299 -0.1204  0.3939
   81MOL0     C10576   0.727   8.657   2.017 -0.3512  1.0652 -0.2547
   81MOL0     N10577   0.699   8.796   2.006 -0.0692  0.2379  0.6250
   81MOL0     C10578   0.575   8.852   1.988  0.0227  0.2332 -0.0855
   81MOL0     C10579   0.595   8.985   1.973  0.1626  0.6156  1.5054
   81MOL0     C10580   0.482   9.073   1.941 -0.1635  0.3019  0.1023
   81MOL0     C10581   0.349   9.039   2.021  0.2448  0.1153  0.3525
   81MOL0     C10582   0.233   8.968   1.938  0.0488  0.8098 -0.2378
   81MOL0     C10583   0.176   9.045   1.813 -0.3288 -0.2902  1.0304
   81MOL0     O10584   0.036   9.021   1.782 -0.4222  0.2147  0.2640
   81MOL0     C10585  -0.006   8.904   1.728  0.6477  0.5328 -0.1388
   81MOL0     C10586  -0.138   8.900   1.697  0.7112  0.5369  0.7863
   81MOL0     C10587  -0.191   8.788   1.630 -0.0792 -0.5118 -0.3158
   81MOL0     C10588  -0.115   8.675   1.602  0.9049  0.5581 -0.3555
   81MOL0     C10589  -0.173   8.567   1.519  0.3931 -0.4498 -0.4608
   81MOL0     O10590  -0.304   8.579   1.511  0.2598  0.2366 -0.4521
   81MOL0     C10591  -0.389   8.515   1.422  0.4777  0.9252  0.5612
   81MOL0     C10592  -0.361   8.426   1.313  0.4184  0.0338 -0.0930
   81MOL0     C10593  -0.463   8.352   1.249  0.0988 -0.9733 -0.6043
   81MOL0     C10594  -0.591   8.378   1.263 -0.5610 -0.3928  0.3690
   81MOL0     O10595  -0.669   8.295   1.203  0.7082  0.0753  0.1795
   81MOL0     C10596  -0.803   8.296   1.235  0.0102 -0.1880 -0.0480
   81MOL0     C10597  -0.850   8.172   1.161  0.6010 -0.4605  0.3482
   81MOL0     C10598  -0.992   8.130   1.212 -0.2002 -0.1232  0.6498
   81MOL0     C10599  -1.013   7.977   1.193 -0.8496 -0.0156 -0.3995
   81MOL0     C10600  -1.013   7.924   1.055  0.5981  0.2156 -0.1244
   81MOL0     C10601  -1.156   7.940   0.982  1.0922  0.2594 -0.6000
   81MOL0     C10602  -1.159   7.924   0.832  0.6579  0.4732 -0.3128
   81MOL0     C10603  -1.083   8.027   0.764  0.4048 -1.3674  0.1918
   81MOL0    Cl10604  -1.175   8.176   0.745  0.0005 -0.2048 -0.3338
   81MOL0     C10605  -0.629   8.489   1.343 -1.0392  0.3185  0.2237
   81MOL0     C10606  -0.524   8.558   1.421 -0.2885 -0.5135 -1.4431
   81MOL0     O10607  -0.109   8.478   1.475 -0.0295  0.2046 -0.5051
   81MOL0     C10608   0.019   8.677   1.648  1.1101  1.1747 -0.1248
   81MOL0     C10609   0.074   8.787   1.706  0.1137 -0.1029 -0.1768
   81MOL0     N10610   0.732   9.006   1.981  0.2369 -0.8266  0.5742
   81MOL0     N10611   0.790   8.896   2.007 -0.5003 -0.1880  1.2340
   81MOL0     C10612   1.633   8.453   2.271  0.7123  0.6585 -0.0078
   81MOL0     C10613   1.760   8.428   2.224  0.1809  0.0055  0.2120
   81MOL0     C10614   2.120   8.198   2.033 -0.1165  0.4387  0.3904
   81MOL0     C10615   2.169   8.328   2.016  0.4256  1.0656  0.5931
   81MOL0     C10616   2.291   8.355   1.948 -0.3582 -0.2564 -0.4830
   81MOL0     C10617   2.364   8.250   1.879  0.2995 -0.0391 -0.0837
   81MOL0     O10618   2.491   8.258   1.828  0.1644 -0.5749  0.6740
   81MOL0     C10619   2.579   8.371   1.868 -0.1259 -0.2742 -0.9521
   81MOL0     C10620   2.712   8.354   1.800 -0.1875  0.1927 -0.2664
   81MOL0     C10621   2.733   8.482   1.713  0.0151  0.0910  0.0171
   81MOL0     C10622   2.861   8.455   1.634  0.0277 -0.4609 -0.7869
   81MOL0     C10623   2.847   8.344   1.545 -0.3865  0.0697 -0.0887
   81MOL0     C10624   2.832   8.257   1.462  1.5612  0.3726 -0.4347
   81MOL0     C10625   2.305   8.122   1.888  0.1120  0.0307  1.1505
   81MOL0     C10626   2.189   8.096   1.959  0.5978 -0.6718 -0.0840
   81MOL0     H10627   1.762   8.096   2.256  0.7916  0.1755 -1.9882
   81MOL0     H10628   1.534   8.138   2.346 -0.2487 -0.4959  0.1345
   81MOL0     H10629   1.361   8.476   2.194  0.3660 -0.5565 -0.8661
   81MOL0     H10630   1.385   8.566   2.336  2.4755  0.8354 -3.4665
   81MOL0     H10631   1.194   8.461   2.451 -0.1001 -1.2608 -0.4756
   81MOL0     H10632   1.167   8.366   2.305 -4.1065  2.1107 -2.6588
   81MOL0     H10633   1.126   8.576   2.175 -3.3996  1.4045 -1.0878
   81MOL0     H10634   1.163   8.676   2.315  0.1012  0.8514 -0.4675
   81MOL0     H10635   0.946   8.469   2.268  1.0593 -0.8088 -0.6183
   81MOL0     H10636   0.958   8.539   2.429  0.0795 -0.6744 -0.1121
   81MOL0     H10637   0.912   8.720   2.203 -2.9508  0.0607 -1.0808
   81MOL0     H10638   0.901   8.750   2.377  0.5946 -0.1516  1.2371
   81MOL0     H10639   0.692   8.751   2.286  2.5299  1.3575 -1.1692
   81MOL0     H10640   0.695   8.586   2.358 -1.4683  1.9357  0.7975
   81MOL0     H10641   0.696   8.484   2.150  0.7222 -0.0828  1.1129
   81MOL0     H10642   0.570   8.597   2.155  0.2669  0.6268 -2.2599
   81MOL0     H10643   0.691   8.600   1.931  0.7001  0.0515 -0.0415
   81MOL0     H10644   0.835   8.643   2.011 -0.3224 -1.8550  3.6522
   81MOL0     H10645   0.479   8.801   1.994  0.0266  0.3680  2.9080
   81MOL0     H10646   0.456   9.061   1.835  1.0561 -2.2495 -0.0013
   81MOL0     H10647   0.512   9.176   1.960  1.8700 -0.3531  0.7514
   81MOL0     H10648   0.307   9.134   2.056  0.7032 -0.8388  3.8572
   81MOL0     H10649   0.373   8.994   2.117 -2.8000  1.6072  1.9356
   81MOL0     H10650   0.264   8.870   1.902 -0.3619  0.7459 -0.4275
   81MOL0     H10651   0.150   8.952   2.008  0.6489 -1.5294  0.0087
   81MOL0     H10652   0.231   9.008   1.726 -0.1880  1.1991  0.4706
   81MOL0     H10653   0.190   9.153   1.823 -0.3107 -0.0195 -1.3735
   81MOL0     H10654  -0.204   8.983   1.719 -0.4079 -0.4352  1.2208
   81MOL0     H10655  -0.292   8.785   1.590 -0.1722  1.2249 -0.3083
   81MOL0     H10656  -0.260   8.399   1.284  1.1724  3.2393 -0.8550
   81MOL0     H10657  -0.443   8.267   1.185  1.7313 -0.6764 -0.5455
   81MOL0     H10658  -0.846   8.386   1.189  2.6214 -0.9807 -4.7193
   81MOL0     H10659  -0.814   8.290   1.343 -1.5847  1.3873 -0.0820
   81MOL0     H10660  -0.786   8.085   1.182  1.2782 -0.5806 -1.9659
   81MOL0     H10661  -0.859   8.184   1.053 -3.0801 -0.2649  0.5565
   81MOL0     H10662  -1.069   8.180   1.153 -2.8776 -3.1501  1.2600
   81MOL0     H10663  -0.999   8.149   1.319 -0.5889 -0.7378  0.7368
   81MOL0     H10664  -0.928   7.924   1.238 -1.7836 -0.1002  1.3535
   81MOL0     H10665  -1.087   7.936   1.262  2.7587 -3.5179  1.8790
   81MOL0     H10666  -0.984   7.819   1.055  1.6528  0.4932 -1.0302
   81MOL0     H10667  -0.932   7.974   1.002  0.2964  2.3083  1.2836
   81MOL0     H10668  -1.203   8.039   0.994  0.1593  0.0961 -2.5330
   81MOL0     H10669  -1.221   7.869   1.033 -0.1075  1.2911 -0.6292
   81MOL0     H10670  -1.107   7.828   0.823  1.0669  0.0068  4.3068
   81MOL0     H10671  -1.258   7.905   0.790  1.8135 -3.3659 -1.8023
   81MOL0     H10672  -1.061   7.987   0.664  1.2190 -1.1085  0.2578
   81MOL0     H10673  -0.983   8.041   0.807  0.1695 -0.0905  0.3864
   81MOL0     H10674  -0.727   8.527   1.372 -1.3746  0.5836 -1.1952
   81MOL0     H10675  -0.551   8.631   1.498  1.1522  0.8887 -2.2166
   81MOL0     H10676   0.082   8.594   1.616 -0.7941 -0.2980 -0.2370
   81MOL0     H10677   0.179   8.782   1.735  0.6996 -3.6684 -2.3544
   81MOL0     H10678   1.593   8.554   2.279  0.4309  0.5928 -0.5046
   81MOL0     H10679   1.825   8.514   2.214  1.6257 -1.2198 -1.3331
   81MOL0     H10680   2.129   8.416   2.066 -1.1395 -0.7025  2.6212
   81MOL0     H10681   2.321   8.459   1.959 -2.1177  0.1173  1.7196
   81MOL0     H10682   2.607   8.357   1.973 -0.9786  1.4981 -0.4286
   81MOL0     H10683   2.525   8.466   1.852  0.5815 -0.0898 -2.4235
   81MOL0     H10684   2.793   8.329   1.869 -0.2587 -0.4807 -0.4254
   81MOL0     H10685   2.698   8.267   1.735  0.8673 -0.6552  0.6142
   81MOL0     H10686   2.747   8.573   1.771 -3.0674  2.0604 -2.0604
   81MOL0     H10687   2.648   8.501   1.648 -0.5994 -0.2356  0.7064
   81MOL0     H10688   2.869   8.543   1.570 -0.0890 -0.5611 -0.9384
   81MOL0     H10689   2.946   8.436   1.700 -0.7432  4.0377  1.9281
   81MOL0     H10690   2.831   8.174   1.394  1.2329 -1.1953  1.3962
   81MOL0     H10691   2.347   8.039   1.832 -0.1466  0.5537  0.1575
   81MOL0     H10692   2.164   7.991   1.972  0.9774 -0.6806  0.6365
   82MOL0     O10693   0.546   5.579   6.863  0.7404  0.6430  0.2500
   82MOL0     C10694   0.476   5.566   6.964 -0.2487 -0.0212  0.1809
   82MOL0     O10695   0.351   5.613   6.985 -0.3892 -0.2014  0.6866
   82MOL0     C10696   0.276   5.705   6.906 -0.0279 -0.0023 -0.3192
   82MOL0     C10697   0.139   5.695   6.913 -0.0725 -0.9579 -0.4262
   82MOL0     C10698   0.045   5.776   6.844 -0.7302 -0.3907 -0.5647
   82MOL0     C10699   0.094   5.873   6.764 -0.0587  0.4051  0.6707
   82MOL0     O10700  -0.007   5.941   6.704 -0.0853 -0.2740 -0.2527
   82MOL0     C10701   0.010   5.979   6.567  0.8597  0.8307 -0.1757
   82MOL0     C10702  -0.124   6.037   6.517 -0.1355  0.3245  0.7361
   82MOL0     C10703  -0.152   6.178   6.563  0.4991  0.2388  0.1481
   82MOL0     C10704  -0.247   6.259   6.480  0.6340  0.0078  0.3352
   82MOL0     C10705  -0.368   6.179   6.427  0.2286 -0.4966  0.0389
   82MOL0     C10706  -0.464   6.275   6.370 -0.4109  0.5177 -0.7016
   82MOL0     C10707  -0.591   6.199   6.341  0.1617  0.5969  0.5360
   82MOL0     C10708  -0.699   6.305   6.293 -0.0420  0.9004 -0.4999
   82MOL0     N10709  -0.680   6.359   6.160 -0.2646 -0.1627  0.2142
   82MOL0     C10710  -0.732   6.296   6.045 -0.4531  0.2621 -1.0274
   82MOL0     C10711  -0.689   6.376   5.945  0.5329  0.3873 -0.8290
   82MOL0     C10712  -0.731   6.348   5.813  0.6430 -0.7668  0.5549
   82MOL0     C10713  -0.777   6.477   5.733  1.0059  0.4519 -0.4457
   82MOL0     C10714  -0.914   6.531   5.764 -0.4305  0.1318  0.6093
   82MOL0     C10715  -1.022   6.437   5.720  1.0108 -0.4901  0.2075
   82MOL0     O10716  -1.147   6.505   5.724  0.6330 -0.1057  0.2265
   82MOL0     C10717  -1.247   6.451   5.655  0.2867  0.0115  0.3308
   82MOL0     C10718  -1.240   6.340   5.558  0.4606  0.2325 -0.7676
   82MOL0     C10719  -1.349   6.280   5.492  0.3824 -1.2695 -0.6214
   82MOL0     C10720  -1.476   6.340   5.505  0.3586  0.4016 -0.6365
   82MOL0     C10721  -1.594   6.285   5.428 -0.2683 -0.5378  1.1158
   82MOL0     O10722  -1.717   6.330   5.463  0.3875 -0.3745  0.6837
   82MOL0     C10723  -1.824   6.320   5.378  0.7827 -0.3486  0.2312
   82MOL0     C10724  -1.860   6.197   5.317 -0.3397 -0.1153  0.4678
   82MOL0     C10725  -1.977   6.181   5.255  0.1665 -0.2510 -0.2586
   82MOL0     C10726  -2.070   6.285   5.236  0.1336 -0.2085  0.2407
   82MOL0     O10727  -2.193   6.262   5.166 -0.4299  0.3447  0.0662
   82MOL0     C10728  -2.311   6.335   5.191  0.2794  0.4203 -0.7229
   82MOL0     C10729  -2.392   6.267   5.304 -0.0777 -0.2076 -0.3243
   82MOL0     C10730  -2.458   6.145   5.249  0.2198  0.0055  0.2050
   82MOL0     C10731  -2.530   6.058   5.351 -0.2943 -0.3370 -0.2585
   82MOL0     C10732  -2.607   5.944   5.279 -0.0635  0.6712  0.2369
   82MOL0     C10733  -2.656   5.817   5.360  0.0121 -0.6657 -0.1272
   82MOL0     C10734  -2.772   5.860   5.450 -0.6259 -0.0787  0.0028
   82MOL0     C10735  -2.858   5.740   5.492 -0.1279 -0.4205  0.1796
   82MOL0    Cl10736  -2.950   5.667   5.352 -0.0983  0.3263  0.1486
   82MOL0     C10737  -2.036   6.408   5.303 -1.1270 -0.1217  0.7083
   82MOL0     C10738  -1.918   6.424   5.374 -0.1573 -0.6176 -0.3528
   82MOL0     O10739  -1.568   6.213   5.332  0.4710 -0.0252 -0.2691
   82MOL0     C10740  -1.484   6.436   5.600  0.2784 -0.1181  0.2644
   82MOL0     C10741  -1.379   6.490   5.680 -0.2589  0.6486 -0.4036
   82MOL0     N10742  -0.603   6.476   5.996 -0.7203  0.0870  0.2718
   82MOL0     N10743  -0.599   6.463   6.124 -0.1021 -0.1645  0.6156
   82MOL0     C10744   0.232   5.887   6.745  0.6937  0.1958 -0.7200
   82MOL0     C10745   0.326   5.807   6.815 -1.1389 -0.0500 -0.6151
   82MOL0     C10746   0.542   5.511   7.088  0.6173  0.4041 -0.0455
   82MOL0     C10747   0.465   5.454   7.197 -0.4083  0.0836  0.1636
   82MOL0     C10748   0.535   5.395   7.292 -0.0826  0.4037 -0.3293
   82MOL0     C10749   0.674   5.373   7.284 -0.7371 -0.2401 -0.6087
   82MOL0     O10750   0.741   5.293   7.371 -0.4361  0.2624  0.1124
   82MOL0     C10751   0.668   5.207   7.448  0.3493  0.6909 -0.4556
   82MOL0     C10752   0.624   5.272   7.579  0.2150  0.0546 -0.0826
   82MOL0     C10753   0.533   5.171   7.664  0.2863 -0.3288 -0.3001
   82MOL0     C10754   0.459   5.243   7.778  0.2271  0.0611  0.7463
   82MOL0     C10755   0.341   5.327   7.738 -0.1647 -0.0235 -0.4965
   82MOL0     C10756   0.246   5.401   7.703 -0.6893 -0.1431 -1.0356
   82MOL0     C10757   0.750   5.447   7.190  0.0975 -0.4590  0.2280
   82MOL0     C10758   0.682   5.518   7.089 -0.2967 -0.1595  0.8800
   82MOL0     H10759   0.109   5.615   6.980  0.1908  0.1647  1.0953
   82MOL0     H10760  -0.063   5.769   6.850 -0.6808 -0.0116  1.6626
   82MOL0     H10761   0.044   5.891   6.512 -0.5856  0.8925 -1.2278
   82MOL0     H10762   0.087   6.056   6.554  1.1293  0.5139 -0.4923
   82MOL0     H10763  -0.203   5.963   6.535  1.5930 -1.7218  0.3828
   82MOL0     H10764  -0.111   6.039   6.408 -2.0057  1.1215  0.4937
   82MOL0     H10765  -0.060   6.237   6.571  1.5084 -1.3817  1.0366
   82MOL0     H10766  -0.201   6.166   6.660 -2.7185  1.9299 -1.1131
   82MOL0     H10767  -0.286   6.344   6.536  1.0993 -1.1533  2.5041
   82MOL0     H10768  -0.202   6.299   6.389  0.4626 -0.9356 -0.1791
   82MOL0     H10769  -0.416   6.117   6.503  0.2555 -1.6457 -0.8526
   82MOL0     H10770  -0.325   6.111   6.352 -0.1824  1.4473 -2.0413
   82MOL0     H10771  -0.433   6.325   6.277 -4.0086  2.8816 -0.8222
   82MOL0     H10772  -0.494   6.351   6.442  3.0573  2.1738 -0.8030
   82MOL0     H10773  -0.585   6.130   6.255  3.1383  1.1612  0.2022
   82MOL0     H10774  -0.629   6.153   6.433 -1.7751 -0.2413 -0.6095
   82MOL0     H10775  -0.718   6.385   6.365 -0.2371  0.3892  0.0240
   82MOL0     H10776  -0.795   6.253   6.289  0.6526 -0.4518 -0.1556
   82MOL0     H10777  -0.783   6.200   6.046  0.5157 -0.2723  1.1195
   82MOL0     H10778  -0.801   6.265   5.798  1.3853 -1.2784 -0.1749
   82MOL0     H10779  -0.642   6.311   5.763 -0.7528 -0.3008 -2.5077
   82MOL0     H10780  -0.773   6.445   5.628  3.1993 -3.2828  0.6062
   82MOL0     H10781  -0.703   6.557   5.735  1.1538  0.3559 -1.4688
   82MOL0     H10782  -0.917   6.545   5.872 -1.6108 -0.4536  0.6650
   82MOL0     H10783  -0.917   6.626   5.709  0.0026 -0.8951 -1.2469
   82MOL0     H10784  -1.028   6.344   5.777 -3.1527  1.0905  2.7823
   82MOL0     H10785  -0.991   6.412   5.618 -1.2156 -2.3804 -0.0699
   82MOL0     H10786  -1.158   6.270   5.564 -1.3018 -1.7663  2.1775
   82MOL0     H10787  -1.340   6.200   5.420  1.8236 -0.9238 -0.8755
   82MOL0     H10788  -1.796   6.109   5.307  0.3278  0.0313  2.7844
   82MOL0     H10789  -1.988   6.081   5.215  2.3279  0.2846 -2.4255
   82MOL0     H10790  -2.372   6.352   5.102 -1.2400  0.5383  0.3055
   82MOL0     H10791  -2.288   6.435   5.229 -0.5481  0.4904 -0.3884
   82MOL0     H10792  -2.465   6.340   5.341 -1.6621 -1.4690 -0.8503
   82MOL0     H10793  -2.340   6.232   5.394 -1.7295  0.7456  1.0885
   82MOL0     H10794  -2.387   6.084   5.192  0.4029 -1.4575  1.9305
   82MOL0     H10795  -2.529   6.183   5.175  2.1023  0.5993 -1.3753
   82MOL0     H10796  -2.458   6.005   5.414  1.3651  2.0415 -0.0365
   82MOL0     H10797  -2.599   6.107   5.420 -1.4143 -2.7627  0.4717
   82MOL0     H10798  -2.540   5.908   5.200 -0.0013  1.9595 -0.3222
   82MOL0     H10799  -2.693   5.978   5.220 -0.3313 -0.4287 -0.0463
   82MOL0     H10800  -2.575   5.775   5.421 -0.3809 -2.5509 -0.8139
   82MOL0     H10801  -2.690   5.742   5.288 -0.7911 -0.0087 -0.4419
   82MOL0     H10802  -2.730   5.896   5.544  0.4243 -1.8930  0.2695
   82MOL0     H10803  -2.836   5.939   5.411  0.3341  0.4696 -0.5025
   82MOL0     H10804  -2.921   5.765   5.578 -0.4873 -2.1428  0.4443
   82MOL0     H10805  -2.791   5.664   5.533  3.2843  1.8077 -0.8979
   82MOL0     H10806  -2.104   6.493   5.307 -2.4690 -1.0484 -1.0247
   82MOL0     H10807  -1.884   6.514   5.423 -2.3423 -1.5066  3.1270
   82MOL0     H10808  -1.575   6.484   5.633  2.5088  3.5617  1.8171
   82MOL0     H10809  -1.409   6.563   5.754  3.7260  3.1647 -0.9278
   82MOL0     H10810   0.254   5.975   6.686 -2.3262  3.8350  3.0432
   82MOL0     H10811   0.431   5.831   6.808  0.0641 -3.4173  2.6920
   82MOL0     H10812   0.358   5.467   7.200 -0.2163  1.7961  3.0665
   82MOL0     H10813   0.464   5.349   7.360 -3.6895  0.8301 -3.4884
   82MOL0     H10814   0.724   5.118   7.478 -0.1887  1.4038  3.2074
   82MOL0     H10815   0.578   5.171   7.397 -0.0725 -1.0970  1.4023
   82MOL0     H10816   0.712   5.315   7.626 -0.2095  0.2887  0.5089
   82MOL0     H10817   0.554   5.354   7.558 -1.3688 -0.5477  2.5164
   82MOL0     H10818   0.592   5.089   7.705  3.4937  1.9689  0.0664
   82MOL0     H10819   0.451   5.142   7.598 -0.8535  1.1424  0.4147
   82MOL0     H10820   0.423   5.174   7.854 -1.6889  1.0681  0.8092
   82MOL0     H10821   0.536   5.309   7.820  1.4967 -0.4929 -0.5929
   82MOL0     H10822   0.173   5.474   7.677 -1.3858  0.6372  2.5615
   82MOL0     H10823   0.857   5.433   7.180  0.0221  0.4566 -2.6033
   82MOL0     H10824   0.738   5.578   7.018  0.2480 -0.5834  0.9502
   83MOL0     O10825   2.176   8.311   2.774 -0.4632  0.4679  0.0499
   83MOL0     C10826   2.244   8.397   2.722 -0.9828 -0.2643  0.6282
   83MOL0     O10827   2.204   8.525   2.683 -0.5129 -0.0848 -0.0651
   83MOL0     C10828   2.070   8.543   2.685 -0.1269 -0.7119 -0.4867
   83MOL0     C10829   2.021   8.622   2.782  0.3647 -0.4352  0.4197
   83MOL0     C10830   1.889   8.625   2.810  0.4273  0.0139  0.2441
   83MOL0     C10831   1.797   8.554   2.731  0.7274 -0.7538  0.0338
   83MOL0     O10832   1.663   8.565   2.763 -0.1850 -0.0700  0.0452
   83MOL0     C10833   1.567   8.526   2.657  0.2226 -0.0905 -0.9252
   83MOL0     C10834   1.426   8.533   2.716 -0.0308 -0.1648  0.0522
   83MOL0     C10835   1.355   8.666   2.717  0.6348 -0.3153 -0.0176
   83MOL0     C10836   1.214   8.660   2.762  0.4410 -0.0642 -0.3226
   83MOL0     C10837   1.151   8.803   2.765 -0.3267  0.8073 -1.4376
   83MOL0     C10838   1.023   8.794   2.852 -0.0320 -0.5025 -0.7734
   83MOL0     C10839   0.901   8.715   2.787  0.2009  0.3210 -0.0933
   83MOL0     C10840   0.785   8.708   2.886 -0.2338  0.2044  0.1695
   83MOL0     N10841   0.753   8.827   2.971  0.1204  0.8297 -0.3128
   83MOL0     C10842   0.753   8.839   3.111  0.3072 -0.2018  0.2943
   83MOL0     C10843   0.705   8.962   3.141  0.0892 -0.5279  0.3527
   83MOL0     C10844   0.689   9.015   3.276  0.8414 -0.8373  0.1553
   83MOL0     C10845   0.567   8.963   3.350 -1.1643  0.7866  0.1023
   83MOL0     C10846   0.573   8.963   3.498 -0.0857  0.2413 -0.3342
   83MOL0     C10847   0.447   8.911   3.571  0.6409 -0.7678  0.4790
   83MOL0     O10848   0.475   8.877   3.710  1.1129 -0.2668 -0.0327
   83MOL0     C10849   0.365   8.859   3.792  0.2242  0.3628  0.6287
   83MOL0     C10850   0.396   8.815   3.924 -0.2485  0.6141  0.2524
   83MOL0     C10851   0.292   8.776   4.008 -0.3080 -0.1822 -0.2115
   83MOL0     C10852   0.157   8.785   3.966 -0.0924  0.1510  0.9403
   83MOL0     C10853   0.046   8.739   4.060 -0.2230 -0.9524  0.7392
   83MOL0     O10854  -0.084   8.758   4.008 -0.8570 -0.1411 -0.8646
   83MOL0     C10855  -0.187   8.707   4.087 -0.6013 -0.1478  0.0115
   83MOL0     C10856  -0.291   8.633   4.030 -0.0041 -0.7383  0.6838
   83MOL0     C10857  -0.395   8.585   4.111 -0.2316  0.8589 -0.0515
   83MOL0     C10858  -0.418   8.627   4.241 -0.7732  0.3611 -0.2566
   83MOL0     O10859  -0.515   8.590   4.323 -0.0442  0.3558 -0.2957
   83MOL0     C10860  -0.629   8.517   4.265  0.4823 -0.4279  0.6222
   83MOL0     C10861  -0.731   8.502   4.379 -0.3861 -0.0263 -0.7409
   83MOL0     C10862  -0.870   8.482   4.336  0.3690  0.7985 -0.0353
   83MOL0     C10863  -0.959   8.473   4.460  0.4030  0.1675  0.6593
   83MOL0     C10864  -1.091   8.396   4.422 -0.4403 -0.1475  0.0339
   83MOL0     C10865  -1.194   8.413   4.539  0.0047  0.5127 -0.6081
   83MOL0     C10866  -1.316   8.327   4.521  0.3747  0.5341  0.8045
   83MOL0     C10867  -1.388   8.325   4.375  0.0350 -0.5527 -0.4934
   83MOL0    Cl10868  -1.460   8.484   4.325  0.2218  0.2466 -0.0739
   83MOL0     C10869  -0.303   8.695   4.292 -0.3036 -0.3109 -0.4079
   83MOL0     C10870  -0.203   8.753   4.217  0.4011 -0.5800  0.6989
   83MOL0     O10871   0.071   8.700   4.176  0.0384  0.4245  0.3411
   83MOL0     C10872   0.134   8.839   3.834  0.2729 -0.3486  0.4409
   83MOL0     C10873   0.235   8.880   3.746  0.6300 -0.4852  0.3361
   83MOL0     N10874   0.671   9.019   3.020 -0.5124  0.4246 -0.8147
   83MOL0     N10875   0.698   8.941   2.923  0.0134 -0.2049  0.0245
   83MOL0     C10876   1.844   8.491   2.617  0.5548  0.3785  0.3988
   83MOL0     C10877   1.980   8.480   2.595 -0.3775 -0.0477 -0.3693
   83MOL0     C10878   2.390   8.376   2.716 -0.7086  0.0531 -0.8207
   83MOL0     C10879   2.470   8.448   2.620 -0.3352 -0.4825 -0.5516
   83MOL0     C10880   2.608   8.418   2.616  0.3495 -0.8100 -1.1614
   83MOL0     C10881   2.670   8.340   2.707  0.4969  0.0019 -0.6590
   83MOL0     O10882   2.802   8.316   2.740 -0.2339 -0.0594  0.4696
   83MOL0     C10883   2.893   8.355   2.634 -0.8502  0.0381  0.2659
   83MOL0     C10884   3.039   8.366   2.691 -0.0248 -0.1755  0.4783
   83MOL0     C10885   3.130   8.458   2.601 -0.5038  0.1436 -0.1508
   83MOL0     C10886   3.252   8.508   2.679 -0.4281 -0.2483  0.3896
   83MOL0     C10887   3.336   8.586   2.581  0.7939 -0.7644 -0.8453
   83MOL0     C10888   3.400   8.650   2.500  0.6815  0.2641 -0.2092
   83MOL0     C10889   2.595   8.264   2.803  0.2316 -0.0873  0.3333
   83MOL0     C10890   2.454   8.278   2.796  0.4943 -0.0969  0.6109
   83MOL0     H10891   2.093   8.689   2.828 -0.5947  1.2545 -0.4348
   83MOL0     H10892   1.846   8.683   2.892 -1.3915  0.0270 -0.6687
   83MOL0     H10893   1.582   8.424   2.619 -0.6405 -0.1082 -1.2472
   83MOL0     H10894   1.560   8.601   2.577 -0.9647 -0.8813 -1.5942
   83MOL0     H10895   1.420   8.493   2.818 -0.4620 -1.3850 -0.4208
   83MOL0     H10896   1.373   8.467   2.647  0.2828 -0.0024 -0.3434
   83MOL0     H10897   1.349   8.717   2.620 -0.3977  0.7850  0.6063
   83MOL0     H10898   1.409   8.727   2.790  0.1659  2.3128 -1.7355
   83MOL0     H10899   1.159   8.585   2.704  1.0373 -3.1574  2.7614
   83MOL0     H10900   1.217   8.622   2.865  0.7321  1.7245  0.3738
   83MOL0     H10901   1.130   8.834   2.662 -1.0405  2.6640 -0.7777
   83MOL0     H10902   1.229   8.870   2.802  1.2468 -1.6236 -0.1154
   83MOL0     H10903   0.998   8.898   2.877  1.5385  0.1968 -1.8977
   83MOL0     H10904   1.063   8.745   2.940  1.7064 -1.0166 -1.7916
   83MOL0     H10905   0.866   8.775   2.703  1.7225  3.6160  1.4115
   83MOL0     H10906   0.932   8.617   2.751 -1.9442 -0.2934 -0.3931
   83MOL0     H10907   0.821   8.633   2.957  1.4908  1.7890  1.0317
   83MOL0     H10908   0.695   8.664   2.840  0.4786 -0.2359 -0.8444
   83MOL0     H10909   0.792   8.756   3.169  2.9317 -0.3043 -1.4086
   83MOL0     H10910   0.698   9.124   3.270  2.0661 -0.9893 -2.1856
   83MOL0     H10911   0.777   8.981   3.331  0.8354  2.1698  2.2236
   83MOL0     H10912   0.550   8.861   3.314  0.6225  0.7310 -0.6940
   83MOL0     H10913   0.477   9.017   3.319 -0.4872  0.4097 -2.8316
   83MOL0     H10914   0.665   8.916   3.534  0.9747  2.0619 -0.5297
   83MOL0     H10915   0.588   9.066   3.533 -0.5996 -0.3707  1.8546
   83MOL0     H10916   0.413   8.821   3.519 -2.9442  0.2560  0.7883
   83MOL0     H10917   0.372   8.986   3.545  1.7793  1.5577  3.2905
   83MOL0     H10918   0.497   8.788   3.950 -0.7431 -1.6417  0.0348
   83MOL0     H10919   0.312   8.747   4.110 -1.9816 -1.4733 -0.2079
   83MOL0     H10920  -0.286   8.596   3.928  4.5510 -1.1980  0.8248
   83MOL0     H10921  -0.448   8.501   4.068 -1.4446  0.1431  2.6395
   83MOL0     H10922  -0.602   8.419   4.226 -1.5679 -1.5192  1.7872
   83MOL0     H10923  -0.680   8.570   4.184  0.7893 -0.8408  0.1517
   83MOL0     H10924  -0.720   8.591   4.441 -0.0140 -0.2563 -0.4647
   83MOL0     H10925  -0.696   8.415   4.437 -0.6504  1.1480  1.2857
   83MOL0     H10926  -0.876   8.392   4.273 -0.9493  0.8168  0.0266
   83MOL0     H10927  -0.900   8.569   4.277 -1.4905  0.6515  0.6267
   83MOL0     H10928  -0.912   8.416   4.540 -1.4584 -1.9274  0.3702
   83MOL0     H10929  -0.985   8.569   4.507  1.4271  1.2259 -0.8714
   83MOL0     H10930  -1.074   8.289   4.408  0.3734 -0.1531  0.9116
   83MOL0     H10931  -1.129   8.445   4.332 -1.1933 -0.4676  0.1720
   83MOL0     H10932  -1.237   8.514   4.536  2.3621  1.5674 -1.6275
   83MOL0     H10933  -1.149   8.402   4.637 -0.3674  1.1020 -0.3612
   83MOL0     H10934  -1.284   8.224   4.537  0.0647  0.1113 -1.0476
   83MOL0     H10935  -1.390   8.354   4.596 -0.7182 -0.7358  0.2244
   83MOL0     H10936  -1.465   8.247   4.384 -0.2637 -0.0233  4.2722
   83MOL0     H10937  -1.314   8.292   4.302 -0.9505  0.0884 -1.8243
   83MOL0     H10938  -0.324   8.716   4.397  1.9261 -0.9681  0.2147
   83MOL0     H10939  -0.140   8.824   4.270  1.7609 -0.1364 -1.3669
   83MOL0     H10940   0.031   8.838   3.801  0.3072 -0.1572  0.3236
   83MOL0     H10941   0.211   8.924   3.650 -3.0804 -1.2624  0.7842
   83MOL0     H10942   1.781   8.441   2.545 -0.5113 -0.3314  1.7768
   83MOL0     H10943   2.025   8.429   2.511 -0.6128  0.3291 -0.7301
   83MOL0     H10944   2.431   8.518   2.549 -0.6348 -2.0657 -2.0121
   83MOL0     H10945   2.674   8.479   2.556  1.5583  2.6714  3.1502
   83MOL0     H10946   2.871   8.458   2.604 -0.7240 -0.1856 -0.6260
   83MOL0     H10947   2.894   8.303   2.538  2.7143  1.7204 -0.7626
   83MOL0     H10948   3.022   8.416   2.787 -1.0197  1.1964 -0.3833
   83MOL0     H10949   3.085   8.269   2.714 -0.9626 -0.7743 -0.0999
   83MOL0     H10950   3.069   8.540   2.563 -1.2650 -0.1151  0.4981
   83MOL0     H10951   3.167   8.393   2.520  0.4718 -0.3499  0.6577
   83MOL0     H10952   3.210   8.582   2.749 -0.4789  0.1561 -0.0623
   83MOL0     H10953   3.302   8.433   2.740  1.9449 -0.4141 -1.6144
   83MOL0     H10954   3.453   8.714   2.432  0.7744  0.3717 -0.0355
   83MOL0     H10955   2.640   8.186   2.863 -2.1269 -0.8303  1.2686
   83MOL0     H10956   2.393   8.209   2.855 -1.2422 -1.4254 -2.4786
   84MOL0     O10957   3.017   4.822   0.982  0.2709  0.1761  0.2133
   84MOL0     C10958   3.025   4.798   1.102  0.1581 -0.6512  0.2371
   84MOL0     O10959   3.139   4.812   1.170 -0.2753  0.6839  0.2773
   84MOL0     C10960   3.253   4.840   1.098 -0.1677 -1.2331  0.2576
   84MOL0     C10961   3.304   4.969   1.111  0.6366  0.1837 -0.1446
   84MOL0     C10962   3.415   5.008   1.048 -0.1493  0.7004 -0.1200
   84MOL0     C10963   3.488   4.922   0.977  0.0939  0.2538 -0.3971
   84MOL0     O10964   3.606   4.947   0.914 -0.7834  0.4393  0.4304
   84MOL0     C10965   3.659   5.080   0.917 -0.7942 -0.2073 -1.1915
   84MOL0     C10966   3.733   5.104   1.051 -0.2468 -0.3992  0.0519
   84MOL0     C10967   3.807   5.237   1.055 -0.5026 -0.2617 -0.0092
   84MOL0     C10968   3.866   5.273   1.190  0.0511 -0.1491 -0.1155
   84MOL0     C10969   3.867   5.428   1.215  0.3576  1.6331  0.1577
   84MOL0     C10970   3.953   5.503   1.120 -0.0244 -0.6640 -0.0260
   84MOL0     C10971   3.981   5.651   1.163 -0.3023  0.3132  0.1182
   84MOL0     C10972   3.888   5.761   1.099 -0.5162  0.3507 -0.1563
   84MOL0     N10973   3.739   5.746   1.124 -0.4271 -0.3129  0.5282
   84MOL0     C10974   3.669   5.654   1.053 -0.2330 -0.0447  0.3135
   84MOL0     C10975   3.562   5.645   1.126 -0.6062 -0.0277  0.1516
   84MOL0     C10976   3.451   5.551   1.081 -0.7535  0.4204 -0.3375
   84MOL0     C10977   3.430   5.433   1.179 -0.8227 -0.2284  0.2229
   84MOL0     C10978   3.305   5.347   1.149  0.1320 -0.0394  0.3418
   84MOL0     C10979   3.178   5.413   1.205  0.2626 -0.0081 -0.5883
   84MOL0     O10980   3.084   5.297   1.191 -0.2532  0.1770 -0.2668
   84MOL0     C10981   2.976   5.268   1.272 -0.2202 -0.5479 -0.2422
   84MOL0     C10982   2.935   5.346   1.386 -0.0218  0.5298  0.7944
   84MOL0     C10983   2.833   5.303   1.470 -0.2750 -0.1787  0.2213
   84MOL0     C10984   2.769   5.180   1.455  0.0092 -0.3268 -0.0096
   84MOL0     C10985   2.671   5.138   1.552 -0.6379  0.6275 -0.2448
   84MOL0     O10986   2.693   5.185   1.684  0.4478 -0.2589  0.1074
   84MOL0     C10987   2.599   5.137   1.769  0.7206 -0.3976  0.3697
   84MOL0     C10988   2.640   5.032   1.845  0.5271 -0.4909 -0.9944
   84MOL0     C10989   2.545   4.954   1.907 -0.3666 -0.2238 -0.3719
   84MOL0     C10990   2.411   4.992   1.912  0.7799  0.1954  0.6422
   84MOL0     O10991   2.337   4.908   2.003  0.2953  0.2058 -0.0013
   84MOL0     C10992   2.195   4.928   1.997  0.1478 -1.2497  0.6222
   84MOL0     C10993   2.107   4.822   2.061  0.1805 -0.3187  0.2862
   84MOL0     C10994   1.961   4.867   2.074 -0.3409  0.0841  0.2588
   84MOL0     C10995   1.871   4.753   2.114  0.0051 -0.5274 -0.4755
   84MOL0     C10996   1.881   4.735   2.269  0.0017  0.8400 -0.8367
   84MOL0     C10997   1.847   4.591   2.305  0.3889 -1.2674 -0.5004
   84MOL0     C10998   1.894   4.541   2.450  0.6229 -0.6847  0.6539
   84MOL0     C10999   1.830   4.416   2.502  0.2190 -0.1662 -0.4053
   84MOL0    Cl11000   1.672   4.471   2.557 -0.1999 -0.2882  0.5485
   84MOL0     C11001   2.372   5.115   1.849 -0.6415  0.1048 -0.2985
   84MOL0     C11002   2.467   5.181   1.767  0.0998 -0.9340  0.3541
   84MOL0     O11003   2.585   5.063   1.517  0.5430  0.6220 -0.2025
   84MOL0     C11004   2.802   5.105   1.334 -0.8290  0.1683 -1.1005
   84MOL0     C11005   2.897   5.157   1.242 -0.6155 -0.3803 -1.2033
   84MOL0     N11006   3.565   5.731   1.230  0.1786  0.6646  0.3613
   84MOL0     N11007   3.679   5.792   1.234 -0.1346  0.1489 -0.1951
   84MOL0     C11008   3.444   4.792   0.967 -0.1204  0.1399  0.6877
   84MOL0     C11009   3.324   4.749   1.016  0.4434  0.0962  0.9713
   84MOL0     C11010   2.908   4.747   1.171 -0.8672 -0.1588  0.1854
   84MOL0     C11011   2.907   4.730   1.309  0.4817 -0.3069 -0.3027
   84MOL0     C11012   2.785   4.702   1.374  0.9086 -0.7046  1.0725
   84MOL0     C11013   2.668   4.697   1.301  0.0082  0.1849 -0.1537
   84MOL0     O11014   2.561   4.675   1.379  0.3866  0.0792  0.8711
   84MOL0     C11015   2.432   4.666   1.306 -0.4944 -0.2619 -0.5026
   84MOL0     C11016   2.326   4.701   1.409  0.0080  0.9071 -0.1246
   84MOL0     C11017   2.342   4.836   1.474  0.2051  0.1404  0.2892
   84MOL0     C11018   2.206   4.873   1.551  0.5085 -0.2899 -0.0384
   84MOL0     C11019   2.116   4.948   1.458 -0.0670 -0.0528 -0.4899
   84MOL0     C11020   2.041   4.987   1.373  0.0202 -0.3188 -0.6557
   84MOL0     C11021   2.674   4.707   1.162 -0.4880 -1.0399  0.8062
   84MOL0     C11022   2.797   4.725   1.098 -0.3293 -0.5232  0.4252
   84MOL0     H11023   3.259   5.027   1.191 -0.8115 -1.3425  0.2296
   84MOL0     H11024   3.449   5.110   1.062  0.2948  0.6492 -0.8086
   84MOL0     H11025   3.583   5.159   0.913 -2.2228 -1.5647 -1.3953
   84MOL0     H11026   3.727   5.088   0.831  1.7348 -1.1259  0.6210
   84MOL0     H11027   3.804   5.021   1.060  1.3733  0.9936  0.9945
   84MOL0     H11028   3.657   5.109   1.129 -0.5841  1.3889 -0.3531
   84MOL0     H11029   3.735   5.310   1.017 -0.5000 -0.7894 -1.0580
   84MOL0     H11030   3.895   5.232   0.990 -0.6022  0.8417 -0.2487
   84MOL0     H11031   3.807   5.220   1.265  2.6478  2.2966  4.0320
   84MOL0     H11032   3.970   5.239   1.190 -0.4042 -1.6693  1.3020
   84MOL0     H11033   3.912   5.441   1.313  2.1626  1.1528 -0.5738
   84MOL0     H11034   3.765   5.468   1.220 -1.4483 -1.9697 -2.7645
   84MOL0     H11035   3.911   5.504   1.019  1.5659  1.3045 -0.7272
   84MOL0     H11036   4.049   5.452   1.112 -0.0634 -0.9161  0.8963
   84MOL0     H11037   3.988   5.663   1.271 -0.0208 -0.9704  0.2566
   84MOL0     H11038   4.077   5.682   1.120 -1.7119  1.0378 -2.7904
   84MOL0     H11039   3.912   5.756   0.992 -0.0253 -0.2447 -0.0253
   84MOL0     H11040   3.917   5.859   1.137 -1.0905  0.3852  0.2048
   84MOL0     H11041   3.688   5.606   0.957  0.4985  2.1552 -0.7102
   84MOL0     H11042   3.484   5.526   0.980  0.6914  0.5152  0.0981
   84MOL0     H11043   3.357   5.603   1.061 -0.8107  1.0544  1.4129
   84MOL0     H11044   3.430   5.472   1.281  0.8194  0.7922 -0.1333
   84MOL0     H11045   3.517   5.368   1.168 -0.2303 -0.3485  4.3058
   84MOL0     H11046   3.290   5.342   1.041  0.5355  2.3329  0.1117
   84MOL0     H11047   3.330   5.257   1.206  3.8034  1.9896  2.3735
   84MOL0     H11048   3.144   5.491   1.137  1.1419  2.1362  1.3042
   84MOL0     H11049   3.185   5.445   1.309  0.7207 -0.9830 -0.3111
   84MOL0     H11050   2.974   5.443   1.414 -0.2628  0.7491  0.3834
   84MOL0     H11051   2.820   5.370   1.555  1.2601  1.4464 -0.7657
   84MOL0     H11052   2.743   4.999   1.843  1.8923  3.3066 -0.9493
   84MOL0     H11053   2.574   4.871   1.970 -0.8926  0.2627  0.5304
   84MOL0     H11054   2.164   4.926   1.892 -1.0223 -0.4020  0.9341
   84MOL0     H11055   2.169   5.022   2.046  1.5951  0.5287 -1.7732
   84MOL0     H11056   2.152   4.803   2.159  2.2500  0.7797 -0.3749
   84MOL0     H11057   2.117   4.724   2.014 -0.1076 -0.6171  0.8375
   84MOL0     H11058   1.929   4.897   1.974 -0.9477 -1.5701 -0.0697
   84MOL0     H11059   1.947   4.947   2.148 -2.8888 -0.4150  0.4041
   84MOL0     H11060   1.770   4.773   2.076 -0.0393  0.5263  0.1699
   84MOL0     H11061   1.894   4.665   2.053 -3.2051 -1.1118 -1.0386
   84MOL0     H11062   1.809   4.800   2.321  1.0405 -0.1152  1.9439
   84MOL0     H11063   1.986   4.750   2.293  0.0039 -0.3452 -0.0448
   84MOL0     H11064   1.895   4.532   2.226 -1.6584 -2.0178 -1.2414
   84MOL0     H11065   1.739   4.581   2.293  0.3178  1.0678 -2.5977
   84MOL0     H11066   2.001   4.519   2.447  0.7238 -0.2317 -2.6058
   84MOL0     H11067   1.879   4.625   2.518  0.9598 -1.2916  1.4963
   84MOL0     H11068   1.875   4.359   2.583 -3.2656 -0.5874  1.4507
   84MOL0     H11069   1.815   4.352   2.414  1.1494 -0.6128 -0.2493
   84MOL0     H11070   2.270   5.149   1.856 -1.9563 -3.2394 -1.1192
   84MOL0     H11071   2.430   5.271   1.717 -1.2034 -0.5024  1.9880
   84MOL0     H11072   2.747   5.012   1.325 -1.9900  0.7182  0.0776
   84MOL0     H11073   2.919   5.097   1.155  0.2442  1.0628 -2.0140
   84MOL0     H11074   3.521   4.732   0.918  1.3742  1.8265  0.8414
   84MOL0     H11075   3.288   4.650   0.990 -0.1971  0.1795  1.5294
   84MOL0     H11076   2.995   4.754   1.367 -0.2646  3.3125 -0.4421
   84MOL0     H11077   2.777   4.682   1.480 -1.6873  2.0435  1.5193
   84MOL0     H11078   2.414   4.566   1.266  0.6240  0.0696 -1.9122
   84MOL0     H11079   2.429   4.742   1.228  0.7673 -1.1515 -1.4451
   84MOL0     H11080   2.230   4.690   1.357  2.0602  0.7752 -4.2248
   84MOL0     H11081   2.333   4.625   1.487 -1.6051 -0.6349 -1.3961
   84MOL0     H11082   2.356   4.908   1.393 -0.1062 -1.3367 -1.1257
   84MOL0     H11083   2.421   4.834   1.549 -0.8004  1.3188  1.4239
   84MOL0     H11084   2.155   4.787   1.596 -0.1401 -0.2271 -0.6451
   84MOL0     H11085   2.239   4.937   1.633 -2.6961  1.2513  0.1658
   84MOL0     H11086   1.974   5.034   1.304 -0.9161  2.0053  1.6343
   84MOL0     H11087   2.586   4.698   1.099  0.5441 -0.0656 -0.8863
   84MOL0     H11088   2.806   4.744   0.992  2.6368  0.4230  0.7694
   85MOL0     O11089   4.050   8.354   5.325  0.6529 -0.0163  0.4991
   85MOL0     C11090   4.021   8.419   5.427 -0.4774 -0.4196 -0.4534
   85MOL0     O11091   4.101   8.440   5.528  0.5739  0.2115  0.7092
   85MOL0     C11092   4.232   8.407   5.507 -1.2343 -0.2355  0.0615
   85MOL0     C11093   4.292   8.315   5.600  0.1318  0.6445 -0.9746
   85MOL0     C11094   4.428   8.280   5.581 -0.2830  0.0193  1.0673
   85MOL0     C11095   4.511   8.343   5.489 -0.0726 -0.3389 -0.2977
   85MOL0     O11096   4.644   8.299   5.481 -0.3763  0.4442  0.3588
   85MOL0     C11097   4.733   8.391   5.420 -0.7460  0.1042  0.2691
   85MOL0     C11098   4.866   8.333   5.431  0.0364 -0.1194 -0.3094
   85MOL0     C11099   4.971   8.430   5.368 -0.0464 -1.4714  0.4021
   85MOL0     C11100   5.111   8.368   5.366 -0.2273 -0.0716  0.1151
   85MOL0     C11101   5.205   8.457   5.283 -0.2929 -0.6809  0.0482
   85MOL0     C11102   5.212   8.410   5.133 -0.0242 -1.3267 -0.3454
   85MOL0     C11103   5.300   8.510   5.053  0.5549  0.0826 -0.0214
   85MOL0     C11104   5.444   8.478   5.061 -0.6345 -0.2807 -0.0342
   85MOL0     N11105   5.535   8.586   5.027 -0.0121  0.4153 -0.9263
   85MOL0     C11106   5.568   8.696   5.091 -0.4021 -0.6307  0.2434
   85MOL0     C11107   5.647   8.767   5.006  0.0807 -0.1812 -0.0586
   85MOL0     C11108   5.692   8.907   5.010 -0.0108  0.3718  0.4826
   85MOL0     C11109   5.788   8.934   5.124 -0.3899  0.4157  0.3469
   85MOL0     C11110   5.936   8.902   5.092 -0.0875  0.7340  0.0226
   85MOL0     C11111   5.993   8.984   4.979 -0.3978  0.4881 -0.7804
   85MOL0     O11112   6.141   8.976   4.995  0.3387 -0.6078  0.1252
   85MOL0     C11113   6.212   9.064   4.921  0.2309 -0.2333 -1.4392
   85MOL0     C11114   6.181   9.106   4.794 -0.6903 -0.3820 -0.0630
   85MOL0     C11115   6.267   9.181   4.715  0.7600 -0.6312  0.4711
   85MOL0     C11116   6.393   9.215   4.766 -0.0246 -1.1290  0.4677
   85MOL0     C11117   6.485   9.295   4.678  0.1443  0.2047 -0.3852
   85MOL0     O11118   6.453   9.297   4.547 -0.6290 -0.1508  0.1920
   85MOL0     C11119   6.534   9.369   4.465 -0.2240  0.0435 -0.2532
   85MOL0     C11120   6.538   9.511   4.466  0.1455  0.3597  0.5368
   85MOL0     C11121   6.643   9.561   4.395 -0.2450  0.4713  0.4371
   85MOL0     C11122   6.718   9.483   4.301  0.2357 -0.4641 -0.1022
   85MOL0     O11123   6.787   9.560   4.219  0.8436 -0.7755 -0.0028
   85MOL0     C11124   6.919   9.506   4.184  0.0694 -0.0863  0.5425
   85MOL0     C11125   6.997   9.596   4.099 -0.0280 -0.6862  1.0981
   85MOL0     C11126   7.094   9.508   4.013 -0.4864  0.0231 -0.1281
   85MOL0     C11127   7.210   9.590   3.948  0.8375 -0.5886  0.0435
   85MOL0     C11128   7.338   9.600   4.029  0.2743  0.4562  0.2881
   85MOL0     C11129   7.409   9.467   4.015  0.2453 -0.8141  0.1041
   85MOL0     C11130   7.547   9.496   4.057 -0.8403  0.8300  0.3076
   85MOL0     C11131   7.617   9.370   4.100 -0.1990  0.1935  0.7925
   85MOL0    Cl11132   7.790   9.412   4.125 -0.1701 -0.3155 -0.1813
   85MOL0     C11133   6.700   9.344   4.296 -0.0047 -0.0626 -0.1293
   85MOL0     C11134   6.606   9.293   4.380 -0.8617  0.3005 -0.2874
   85MOL0     O11135   6.582   9.356   4.726 -0.1184 -0.6261 -0.7479
   85MOL0     C11136   6.427   9.174   4.893 -0.5007  0.5789 -0.3225
   85MOL0     C11137   6.338   9.102   4.974  0.2182  0.0938  0.1030
   85MOL0     N11138   5.687   8.673   4.911  0.0510  0.2585  0.4478
   85MOL0     N11139   5.624   8.571   4.929  1.1334  0.8979 -0.5465
   85MOL0     C11140   4.455   8.438   5.404  1.9596 -0.9024 -0.6397
   85MOL0     C11141   4.313   8.465   5.411  0.3836 -0.3268 -0.4828
   85MOL0     C11142   3.883   8.478   5.441 -0.1941  0.4938  0.9248
   85MOL0     C11143   3.786   8.449   5.342 -0.0541  0.3388 -0.2367
   85MOL0     C11144   3.661   8.495   5.348  0.4658  1.0897  0.3574
   85MOL0     C11145   3.612   8.571   5.454  0.4762 -0.7130  0.6434
   85MOL0     O11146   3.486   8.622   5.465 -0.2454  0.1037 -0.2668
   85MOL0     C11147   3.413   8.653   5.339 -0.3976 -0.3689 -0.2337
   85MOL0     C11148   3.484   8.778   5.268  0.8748  0.4160  0.8070
   85MOL0     C11149   3.414   8.818   5.143  0.0223 -0.6322  0.5439
   85MOL0     C11150   3.299   8.921   5.171  0.4688 -0.2727  0.4715
   85MOL0     C11151   3.216   8.931   5.043  0.1576 -0.1524  0.1200
   85MOL0     C11152   3.156   8.922   4.939 -0.2873  0.7154  0.0711
   85MOL0     C11153   3.707   8.607   5.544 -0.0996  0.2990 -0.7539
   85MOL0     C11154   3.839   8.559   5.549 -0.6339  1.0496  0.0040
   85MOL0     H11155   4.224   8.274   5.674  3.4729  0.3243  2.2258
   85MOL0     H11156   4.479   8.210   5.647 -0.7915 -1.0171  0.3808
   85MOL0     H11157   4.725   8.483   5.479 -0.4616  0.9203 -0.9428
   85MOL0     H11158   4.718   8.410   5.314 -1.5395 -0.7826  0.2069
   85MOL0     H11159   4.868   8.232   5.388 -3.5708 -1.4801  2.2599
   85MOL0     H11160   4.896   8.335   5.536  2.9453  2.8404 -1.0110
   85MOL0     H11161   4.971   8.524   5.425 -2.5032 -0.3672 -1.1987
   85MOL0     H11162   4.937   8.450   5.266 -0.6136 -5.5384 -0.3732
   85MOL0     H11163   5.145   8.354   5.469  0.7417 -3.0830 -0.5234
   85MOL0     H11164   5.098   8.272   5.315  0.8861 -1.4123  2.2490
   85MOL0     H11165   5.308   8.444   5.318 -0.8216 -0.3826  1.8084
   85MOL0     H11166   5.180   8.563   5.293 -0.5157 -0.5472 -1.5678
   85MOL0     H11167   5.108   8.417   5.099 -0.6880  1.4654  1.8364
   85MOL0     H11168   5.243   8.306   5.117 -1.6881 -1.9693  0.3796
   85MOL0     H11169   5.280   8.505   4.945  1.2764 -0.6922 -0.1292
   85MOL0     H11170   5.274   8.609   5.092  2.1135  1.1642 -1.5775
   85MOL0     H11171   5.467   8.383   5.013  1.4677 -0.2100  0.6981
   85MOL0     H11172   5.465   8.450   5.165 -4.3561  0.6939  1.1442
   85MOL0     H11173   5.516   8.724   5.183 -0.7490 -3.8388  1.1332
   85MOL0     H11174   5.606   8.974   5.024  0.3968  1.0954 -0.3738
   85MOL0     H11175   5.738   8.932   4.914 -0.7018  5.9748  1.2355
   85MOL0     H11176   5.758   8.871   5.208  1.1802  1.0511  1.4327
   85MOL0     H11177   5.775   9.034   5.167 -1.2838  1.4002 -2.0321
   85MOL0     H11178   6.001   8.914   5.179  0.3061  2.8279 -0.4994
   85MOL0     H11179   5.939   8.796   5.065 -0.3965 -0.0924  2.8841
   85MOL0     H11180   5.969   9.090   4.989 -0.5083  0.3946  0.0149
   85MOL0     H11181   5.953   8.938   4.888  1.8806  0.5806 -1.9158
   85MOL0     H11182   6.093   9.076   4.737 -1.4736  3.6559 -1.2754
   85MOL0     H11183   6.231   9.212   4.618 -0.5196  1.2193  1.4731
   85MOL0     H11184   6.487   9.580   4.532 -0.9858  1.3308 -1.2879
   85MOL0     H11185   6.650   9.668   4.379  0.3974  0.1948 -1.4447
   85MOL0     H11186   6.911   9.407   4.138  1.9391 -0.7152  1.4600
   85MOL0     H11187   6.965   9.507   4.284 -0.4832  1.2223  0.8023
   85MOL0     H11188   7.049   9.666   4.165 -0.4828  0.3156  0.4195
   85MOL0     H11189   6.929   9.651   4.034  2.0190 -0.9368 -1.4040
   85MOL0     H11190   7.039   9.467   3.928 -0.5759 -0.3131  0.0900
   85MOL0     H11191   7.138   9.432   4.078  2.1375  2.3643  1.0792
   85MOL0     H11192   7.240   9.543   3.855 -1.0375 -0.9631 -0.4241
   85MOL0     H11193   7.173   9.689   3.919  2.4390 -0.1500 -0.5825
   85MOL0     H11194   7.317   9.632   4.132 -0.0971  1.3869 -0.0688
   85MOL0     H11195   7.392   9.681   3.979  2.4066 -1.9276 -1.5405
   85MOL0     H11196   7.405   9.432   3.911 -1.7634  0.2484 -0.2258
   85MOL0     H11197   7.357   9.394   4.078 -0.1036 -1.1753 -0.5827
   85MOL0     H11198   7.594   9.541   3.969  2.8253 -1.8373  0.7099
   85MOL0     H11199   7.549   9.557   4.148  0.0835 -1.1529  1.6808
   85MOL0     H11200   7.591   9.287   4.034 -1.8158  0.8083  0.6031
   85MOL0     H11201   7.583   9.339   4.199  2.2633  1.6204  2.1800
   85MOL0     H11202   6.762   9.292   4.224  2.7180 -0.3502  2.2173
   85MOL0     H11203   6.582   9.188   4.383  0.6633 -0.0660  0.4753
   85MOL0     H11204   6.524   9.203   4.933  0.3625 -1.8120 -0.5393
   85MOL0     H11205   6.377   9.059   5.066  0.3806 -0.7552 -0.3479
   85MOL0     H11206   4.501   8.500   5.327  0.7841  0.5922 -0.1874
   85MOL0     H11207   4.274   8.545   5.350 -0.0594 -0.7741 -0.7922
   85MOL0     H11208   3.818   8.388   5.258 -3.8236  0.8332 -2.2522
   85MOL0     H11209   3.600   8.456   5.267  2.6805 -2.3758  0.1697
   85MOL0     H11210   3.312   8.678   5.375 -0.6034  2.4039 -2.3676
   85MOL0     H11211   3.413   8.564   5.276 -0.9096 -0.6494  0.1557
   85MOL0     H11212   3.488   8.866   5.332  0.2002 -0.4462  2.0901
   85MOL0     H11213   3.588   8.756   5.240  1.5617  0.7200  2.9098
   85MOL0     H11214   3.382   8.735   5.078  0.8883  1.3813 -2.6811
   85MOL0     H11215   3.480   8.872   5.075 -2.5361 -2.2314 -3.6602
   85MOL0     H11216   3.242   8.882   5.256 -0.6389 -1.6670 -0.8621
   85MOL0     H11217   3.340   9.021   5.189 -0.5509  0.4420 -1.0152
   85MOL0     H11218   3.101   8.898   4.850 -1.5902 -0.4580  1.1440
   85MOL0     H11219   3.672   8.673   5.622 -0.6528 -1.8870  0.9306
   85MOL0     H11220   3.905   8.576   5.634  2.2966 -2.7519 -1.2342
   86MOL0     O11221   5.693   3.858   8.540  0.4096 -0.7837  0.1606
   86MOL0     C11222   5.747   3.884   8.647 -0.0928  0.3147 -0.2181
   86MOL0     O11223   5.755   3.797   8.749 -0.4235  0.2292  0.1685
   86MOL0     C11224   5.708   3.672   8.741  0.4308  1.1579  1.0528
   86MOL0     C11225   5.788   3.558   8.730  0.0257 -0.4581 -0.3571
   86MOL0     C11226   5.737   3.432   8.721  0.1510 -0.0272 -0.8180
   86MOL0     C11227   5.606   3.415   8.706  0.1197 -0.8614 -0.6292
   86MOL0     O11228   5.553   3.288   8.704  0.8347  0.4823 -0.6214
   86MOL0     C11229   5.527   3.248   8.834 -0.0771  0.2714  0.9928
   86MOL0     C11230   5.383   3.272   8.868  0.9181 -0.1172  0.3360
   86MOL0     C11231   5.278   3.213   8.763 -0.1153 -1.2603  0.1841
   86MOL0     C11232   5.159   3.153   8.828 -0.2904  0.1181  0.4130
   86MOL0     C11233   5.052   3.127   8.725 -0.0384  0.4486 -0.2769
   86MOL0     C11234   4.958   3.017   8.776 -1.3329  0.5383  0.9573
   86MOL0     C11235   4.866   2.965   8.674  0.5111  0.4091 -0.0990
   86MOL0     C11236   4.776   3.075   8.612 -0.5969  0.2784 -0.4142
   86MOL0     N11237   4.674   3.020   8.519 -0.7363  0.3032  0.8980
   86MOL0     C11238   4.546   2.979   8.552  0.2689  0.4223  0.8475
   86MOL0     C11239   4.496   2.923   8.442  0.0306  0.3704  0.3863
   86MOL0     C11240   4.367   2.839   8.440 -0.7104  0.7334  0.4117
   86MOL0     C11241   4.263   2.923   8.373 -0.2092 -0.7792 -0.3274
   86MOL0     C11242   4.138   2.846   8.352  0.7374 -0.0068  0.4716
   86MOL0     C11243   4.007   2.920   8.291  0.5858 -0.6923  0.6479
   86MOL0     O11244   3.901   2.894   8.384 -0.0569  0.5424 -0.2052
   86MOL0     C11245   3.773   2.939   8.369 -0.9103 -0.1796 -0.1817
   86MOL0     C11246   3.664   2.908   8.452 -0.3815 -0.3261 -0.4108
   86MOL0     C11247   3.530   2.938   8.424 -0.2082  0.3298 -0.2966
   86MOL0     C11248   3.496   3.010   8.306  0.0864  0.1402 -0.0141
   86MOL0     C11249   3.352   3.048   8.274 -0.7271  0.5672  0.1705
   86MOL0     O11250   3.257   3.007   8.366  0.2058 -0.4653  0.2043
   86MOL0     C11251   3.120   3.048   8.358  0.4305 -0.0444 -0.3923
   86MOL0     C11252   3.064   3.150   8.276  0.6443 -0.1400 -1.2266
   86MOL0     C11253   2.924   3.175   8.289 -0.3672 -0.1936  0.9284
   86MOL0     C11254   2.858   3.116   8.391  1.0637  0.3886 -0.6432
   86MOL0     O11255   2.721   3.138   8.424  0.3217  0.1846  0.3877
   86MOL0     C11256   2.639   3.228   8.353 -0.3580 -0.4376 -0.6783
   86MOL0     C11257   2.494   3.256   8.410 -0.6863 -0.2849  0.4403
   86MOL0     C11258   2.410   3.139   8.428  0.4358  0.8516  0.0279
   86MOL0     C11259   2.352   3.130   8.577  0.2340 -0.9441  0.2464
   86MOL0     C11260   2.231   3.219   8.600 -0.6878 -0.8776  0.8346
   86MOL0     C11261   2.098   3.194   8.520  0.2911 -0.8112 -0.8786
   86MOL0     C11262   1.979   3.269   8.591 -0.4513 -0.8788  0.5140
   86MOL0     C11263   1.857   3.194   8.553 -0.4439  0.2578  0.3365
   86MOL0    Cl11264   1.725   3.273   8.630  0.2975  0.2671 -0.3529
   86MOL0     C11265   2.907   3.025   8.472 -0.4185 -0.1482 -0.1427
   86MOL0     C11266   3.047   2.991   8.459 -0.1974  0.3027 -0.1820
   86MOL0     O11267   3.332   3.096   8.162 -0.5096  0.1183 -0.7676
   86MOL0     C11268   3.597   3.046   8.220 -0.0453 -0.2734  0.3185
   86MOL0     C11269   3.733   3.010   8.252 -0.2184  0.4665 -0.4358
   86MOL0     N11270   4.585   2.929   8.337 -0.0560 -0.4366 -0.5810
   86MOL0     N11271   4.695   2.988   8.384 -0.1105 -0.8816 -1.2162
   86MOL0     C11272   5.520   3.526   8.713  1.3552 -0.5925 -0.4269
   86MOL0     C11273   5.566   3.655   8.736 -0.9524 -0.6888  0.1039
   86MOL0     C11274   5.829   4.003   8.652 -1.7666 -0.6695 -0.7744
   86MOL0     C11275   5.835   4.084   8.540 -0.2734  0.1993  0.4068
   86MOL0     C11276   5.916   4.185   8.530 -0.9194 -0.3093  0.1968
   86MOL0     C11277   6.001   4.220   8.638 -1.1912  0.5427 -0.9710
   86MOL0     O11278   6.093   4.326   8.650 -0.8155  0.0732  0.0993
   86MOL0     C11279   6.079   4.442   8.564  0.8168  0.0209  0.0972
   86MOL0     C11280   6.171   4.420   8.439  0.6443 -0.2524 -0.6889
   86MOL0     C11281   6.127   4.496   8.314 -0.2843 -0.0330 -0.2343
   86MOL0     C11282   6.153   4.650   8.329  0.1829  0.1575 -0.6195
   86MOL0     C11283   6.296   4.691   8.338 -0.2447  0.5095 -0.1769
   86MOL0     C11284   6.410   4.713   8.347  0.2430  0.4449 -0.2084
   86MOL0     C11285   5.999   4.133   8.755 -0.3111 -0.2660 -0.3437
   86MOL0     C11286   5.909   4.030   8.765  0.5545 -0.9283 -0.5891
   86MOL0     H11287   5.895   3.567   8.748  0.0735  1.7276 -1.4539
   86MOL0     H11288   5.815   3.357   8.720 -0.1117 -0.4193  1.9433
   86MOL0     H11289   5.599   3.291   8.904  0.9266  0.3691 -0.0810
   86MOL0     H11290   5.530   3.140   8.852 -2.6711 -0.6924 -3.0325
   86MOL0     H11291   5.358   3.379   8.869 -0.4350 -0.4206  1.3238
   86MOL0     H11292   5.360   3.227   8.965 -0.9514 -0.6052 -0.3091
   86MOL0     H11293   5.322   3.122   8.723 -2.6176 -2.4711  0.0230
   86MOL0     H11294   5.256   3.281   8.680  1.0370 -0.7421  0.2799
   86MOL0     H11295   5.180   3.068   8.894  0.8563 -1.3018 -1.6657
   86MOL0     H11296   5.118   3.236   8.888  1.6429  1.1224  0.4339
   86MOL0     H11297   5.092   3.097   8.628  0.0229  1.7818 -0.6806
   86MOL0     H11298   4.994   3.216   8.698 -0.9124  0.4033  1.3342
   86MOL0     H11299   4.902   3.059   8.860  0.3562 -0.0405  2.4365
   86MOL0     H11300   5.022   2.939   8.819 -0.4649  0.6856 -0.0187
   86MOL0     H11301   4.915   2.906   8.597  0.2111 -0.5194  0.4048
   86MOL0     H11302   4.800   2.893   8.725 -1.5757  2.1320 -0.2218
   86MOL0     H11303   4.841   3.145   8.559 -2.1047  1.4814 -0.7576
   86MOL0     H11304   4.731   3.132   8.694 -0.4471 -0.4116  0.1564
   86MOL0     H11305   4.504   2.974   8.651 -0.0405 -2.1317  0.6599
   86MOL0     H11306   4.346   2.812   8.544 -1.4771  3.7062  1.1272
   86MOL0     H11307   4.389   2.750   8.380  1.7003  0.5153  1.5376
   86MOL0     H11308   4.303   2.960   8.279  1.8760  0.5641  1.0154
   86MOL0     H11309   4.232   2.998   8.446 -1.4429 -2.2037  0.6832
   86MOL0     H11310   4.160   2.759   8.288  2.0529 -0.3819  1.3869
   86MOL0     H11311   4.100   2.802   8.445  3.1058 -2.3406  0.4407
   86MOL0     H11312   3.977   2.883   8.192  0.3924  2.4726 -0.6080
   86MOL0     H11313   4.022   3.027   8.270 -2.0152 -0.8857 -3.0757
   86MOL0     H11314   3.694   2.849   8.538  1.3809  3.4420  1.7834
   86MOL0     H11315   3.455   2.900   8.492 -0.8508 -0.8445 -1.6189
   86MOL0     H11316   3.124   3.208   8.208  3.2200 -0.5530  0.5297
   86MOL0     H11317   2.865   3.244   8.229 -1.8425 -2.3998 -0.2839
   86MOL0     H11318   2.634   3.189   8.251  0.6478  0.1108 -0.9435
   86MOL0     H11319   2.694   3.321   8.337  1.2757 -1.4463 -1.1826
   86MOL0     H11320   2.451   3.330   8.342 -0.5408  0.7943  1.4929
   86MOL0     H11321   2.497   3.314   8.503  0.6606 -1.0764  0.9312
   86MOL0     H11322   2.470   3.048   8.423  3.1272  2.3342  2.2084
   86MOL0     H11323   2.325   3.129   8.360 -1.3939 -0.0065  2.3234
   86MOL0     H11324   2.320   3.028   8.598  0.0710 -0.9912 -0.2244
   86MOL0     H11325   2.418   3.160   8.658 -1.2893 -0.6570  1.4159
   86MOL0     H11326   2.254   3.325   8.586 -1.3676 -0.5513  1.9931
   86MOL0     H11327   2.205   3.217   8.706  2.2114 -3.6421  1.6603
   86MOL0     H11328   2.083   3.086   8.531 -2.3708 -0.5364 -1.1760
   86MOL0     H11329   2.108   3.217   8.414 -1.0436  1.0094 -0.6381
   86MOL0     H11330   1.989   3.263   8.699 -1.5468 -1.2294  0.6097
   86MOL0     H11331   1.987   3.373   8.559 -1.2353 -0.5170  1.4797
   86MOL0     H11332   1.872   3.094   8.596  2.0685  0.7983  0.8487
   86MOL0     H11333   1.847   3.196   8.444  1.2975 -0.3976  0.1297
   86MOL0     H11334   2.854   2.991   8.561  0.9501  2.9340  2.0334
   86MOL0     H11335   3.085   2.906   8.515  0.0935 -0.3744 -1.3646
   86MOL0     H11336   3.572   3.099   8.129 -3.1472 -2.1660 -0.0826
   86MOL0     H11337   3.816   3.028   8.184 -0.2519 -1.1489 -0.9521
   86MOL0     H11338   5.413   3.507   8.710  1.4630 -1.6747  1.2757
   86MOL0     H11339   5.497   3.737   8.757 -0.1464 -0.7369  3.7704
   86MOL0     H11340   5.785   4.064   8.445 -0.7438 -2.2504  1.0998
   86MOL0     H11341   5.909   4.246   8.441 -0.9100 -2.7092 -1.5506
   86MOL0     H11342   6.108   4.525   8.629 -1.5789  0.9869  0.0163
   86MOL0     H11343   5.977   4.461   8.530  1.3350  0.7753 -1.1252
   86MOL0     H11344   6.275   4.446   8.459  0.0662  4.0104 -2.1437
   86MOL0     H11345   6.158   4.315   8.412  3.2216 -0.9634  0.4685
   86MOL0     H11346   6.023   4.477   8.287 -0.9673  0.8564  1.5719
   86MOL0     H11347   6.182   4.443   8.236  0.9805 -1.6752  1.6886
   86MOL0     H11348   6.113   4.693   8.236  2.1764 -2.9069 -3.1318
   86MOL0     H11349   6.095   4.686   8.413 -1.4276 -1.9010 -0.7733
   86MOL0     H11350   6.513   4.745   8.349  0.4637  0.0495 -2.5213
   86MOL0     H11351   6.068   4.147   8.838 -0.5907  2.3674 -0.4761
   86MOL0     H11352   5.905   3.978   8.860 -1.6732  1.4843  0.7761
   87MOL0     O11353  10.655   9.760   0.766 -0.5796  0.5065  0.1541
   87MOL0     C11354  10.688   9.644   0.796 -0.3628  0.0340 -0.5923
   87MOL0     O11355  10.632   9.564   0.891 -0.2726  0.0748  0.1509
   87MOL0     C11356  10.497   9.572   0.911  0.0964  1.3036  0.6613
   87MOL0     C11357  10.414   9.541   0.805 -0.7908  0.3594 -0.0178
   87MOL0     C11358  10.277   9.526   0.834  0.2275  0.1068 -0.4902
   87MOL0     C11359  10.227   9.543   0.964 -0.7765  0.3334  0.3045
   87MOL0     O11360  10.091   9.533   0.987  0.0888  0.7988  0.1669
   87MOL0     C11361  10.000   9.561   0.878  0.6932  0.6014  0.5780
   87MOL0     C11362   9.859   9.590   0.936 -0.1614 -0.1773  0.4521
   87MOL0     C11363   9.756   9.588   0.822 -0.4596  0.8521 -0.6361
   87MOL0     C11364   9.626   9.630   0.872  0.5187  0.4143  0.0705
   87MOL0     C11365   9.508   9.598   0.777 -1.1333  0.3296 -0.7966
   87MOL0     C11366   9.373   9.586   0.849  0.0905  0.0580  0.7613
   87MOL0     C11367   9.270   9.549   0.738  0.2164  0.3868 -0.2522
   87MOL0     C11368   9.131   9.555   0.806 -0.0684  0.5817  1.0224
   87MOL0     N11369   9.036   9.494   0.710  0.5014  0.6034  0.1925
   87MOL0     C11370   8.979   9.552   0.598 -0.2514 -0.0202  1.0605
   87MOL0     C11371   8.884   9.466   0.550 -0.4108 -0.8443  0.5472
   87MOL0     C11372   8.798   9.498   0.430  0.2708 -0.6768  0.1111
   87MOL0     C11373   8.662   9.432   0.439 -0.2454 -0.1378  0.7390
   87MOL0     C11374   8.547   9.518   0.372 -0.6655  0.5648  0.3044
   87MOL0     C11375   8.421   9.430   0.368 -0.0739  0.5520 -0.5114
   87MOL0     O11376   8.383   9.431   0.509 -0.4060 -0.4101  0.3945
   87MOL0     C11377   8.264   9.380   0.542  0.1718  0.3591 -0.2602
   87MOL0     C11378   8.238   9.389   0.676 -0.5558 -0.4324 -1.2918
   87MOL0     C11379   8.112   9.340   0.728  1.1764 -0.1901  0.3977
   87MOL0     C11380   8.020   9.289   0.633  0.6361  0.1094 -0.6261
   87MOL0     C11381   7.894   9.233   0.691  0.5385 -1.7842 -0.1734
   87MOL0     O11382   7.815   9.173   0.595 -1.2101  1.1832  0.4061
   87MOL0     C11383   7.698   9.115   0.637  0.0481  0.5678  0.8684
   87MOL0     C11384   7.719   9.012   0.735  0.1229 -1.0743 -0.5086
   87MOL0     C11385   7.614   8.923   0.760  0.2391  0.4917  1.0293
   87MOL0     C11386   7.486   8.926   0.692  0.4049  0.1250 -0.4132
   87MOL0     O11387   7.371   8.842   0.706 -0.4435 -0.2814 -0.9557
   87MOL0     C11388   7.338   8.809   0.841  0.8715  0.3550 -0.4762
   87MOL0     C11389   7.237   8.705   0.855  0.9423  0.6952  0.2750
   87MOL0     C11390   7.211   8.663   0.996 -0.8586 -0.4969 -0.0546
   87MOL0     C11391   7.090   8.573   1.014  1.1266 -0.2335 -0.0786
   87MOL0     C11392   7.073   8.560   1.162  0.4806  0.9315  1.0211
   87MOL0     C11393   7.188   8.477   1.222 -0.0563 -0.6186 -0.2166
   87MOL0     C11394   7.167   8.467   1.367 -0.7610 -0.5559 -0.9920
   87MOL0     C11395   7.265   8.365   1.430 -0.1510  1.0736 -0.1372
   87MOL0    Cl11396   7.428   8.426   1.403 -0.0810 -0.3520 -0.6113
   87MOL0     C11397   7.476   9.028   0.599 -0.1323 -0.5150 -0.8908
   87MOL0     C11398   7.581   9.109   0.563  0.1843  0.2062  0.1374
   87MOL0     O11399   7.859   9.258   0.808  0.3171  0.4308  0.2982
   87MOL0     C11400   8.052   9.280   0.499 -0.1586 -0.5572  1.2121
   87MOL0     C11401   8.173   9.328   0.456  0.8326  0.2932 -0.0510
   87MOL0     N11402   8.875   9.371   0.647 -0.4945  0.0449  0.1967
   87MOL0     N11403   8.958   9.387   0.745  0.4357  0.3780 -0.6630
   87MOL0     C11404  10.312   9.577   1.070  0.6778  0.6420 -0.1093
   87MOL0     C11405  10.450   9.582   1.042  0.1058 -0.7210  0.3901
   87MOL0     C11406  10.813   9.595   0.738 -1.6902 -0.1122  0.1611
   87MOL0     C11407  10.873   9.462   0.759  0.1494  0.3888 -0.7531
   87MOL0     C11408  11.003   9.434   0.707 -0.0018  0.3191  0.0844
   87MOL0     C11409  11.072   9.521   0.625  0.1446  1.0053 -0.1393
   87MOL0     O11410  11.186   9.464   0.576  0.3263  0.0731 -0.0628
   87MOL0     C11411  11.246   9.543   0.477  0.8403  0.3126 -0.0035
   87MOL0     C11412  11.370   9.472   0.424 -1.1847 -0.9425 -0.2611
   87MOL0     C11413  11.339   9.342   0.348  0.6937  0.2793  0.5625
   87MOL0     C11414  11.467   9.270   0.299 -0.6589  0.1384 -0.1422
   87MOL0     C11415  11.536   9.346   0.205  0.4350 -0.3382 -0.7174
   87MOL0     C11416  11.596   9.416   0.127 -0.5963  0.7903 -0.1268
   87MOL0     C11417  11.011   9.646   0.592 -0.1994  0.6147 -1.4155
   87MOL0     C11418  10.891   9.682   0.647 -0.1433  1.0861  0.0989
   87MOL0     H11419  10.448   9.528   0.702 -0.0874  2.2169 -0.0480
   87MOL0     H11420  10.216   9.490   0.752 -3.1346  2.0439  0.9523
   87MOL0     H11421   9.993   9.474   0.812  2.8674  1.9273 -1.5931
   87MOL0     H11422  10.032   9.642   0.812  1.5454 -0.0106  0.2185
   87MOL0     H11423   9.862   9.690   0.980  0.4122  0.5247 -1.0878
   87MOL0     H11424   9.830   9.510   1.004 -1.0649 -0.7596 -0.5760
   87MOL0     H11425   9.743   9.484   0.789 -3.7606  0.8007  0.4092
   87MOL0     H11426   9.791   9.647   0.737  0.8164 -0.6475 -1.2108
   87MOL0     H11427   9.607   9.578   0.967  3.5328 -1.8581 -0.3974
   87MOL0     H11428   9.629   9.732   0.911  1.7538  0.2056  0.5533
   87MOL0     H11429   9.536   9.501   0.736  2.9615  1.1956 -0.4470
   87MOL0     H11430   9.518   9.667   0.693  1.5245 -3.6073 -4.0853
   87MOL0     H11431   9.348   9.681   0.896 -0.9167  0.7167 -1.0154
   87MOL0     H11432   9.375   9.508   0.926  2.0662 -0.9881 -0.2894
   87MOL0     H11433   9.286   9.615   0.653 -1.2829  0.7012 -0.3138
   87MOL0     H11434   9.289   9.448   0.701 -1.8671  0.2514 -1.1004
   87MOL0     H11435   9.110   9.662   0.814  3.3807  1.4083  0.3737
   87MOL0     H11436   9.122   9.506   0.903  0.6042  2.0147  1.8464
   87MOL0     H11437   9.021   9.634   0.541  0.2887 -0.6947  0.4677
   87MOL0     H11438   8.854   9.482   0.338 -0.7634  0.1342 -0.6844
   87MOL0     H11439   8.782   9.606   0.438  1.3204 -0.5241  0.3179
   87MOL0     H11440   8.635   9.403   0.541 -1.0397 -0.4096  0.4580
   87MOL0     H11441   8.673   9.349   0.369  0.8815  2.1369 -1.9836
   87MOL0     H11442   8.527   9.614   0.422  2.0895 -0.0113  2.7545
   87MOL0     H11443   8.566   9.535   0.266 -0.4648 -2.0794 -0.1367
   87MOL0     H11444   8.424   9.326   0.336 -2.1258 -0.1193  1.2020
   87MOL0     H11445   8.342   9.471   0.304 -3.0348 -1.2273  1.7401
   87MOL0     H11446   8.316   9.421   0.745 -0.5502  0.1471 -1.5607
   87MOL0     H11447   8.077   9.330   0.830  1.7071 -1.8143  0.4475
   87MOL0     H11448   7.809   8.993   0.792  0.4751 -1.8400 -1.2973
   87MOL0     H11449   7.621   8.848   0.838  0.4072  0.7698  1.2852
   87MOL0     H11450   7.305   8.899   0.893 -1.8207 -1.0050  0.3395
   87MOL0     H11451   7.426   8.772   0.894  0.6289 -1.4285 -1.2388
   87MOL0     H11452   7.289   8.621   0.808  3.7915  1.5644  1.6348
   87MOL0     H11453   7.144   8.737   0.807 -0.3460 -0.9278  1.5666
   87MOL0     H11454   7.189   8.756   1.050 -1.3408 -0.1277 -0.8716
   87MOL0     H11455   7.303   8.620   1.037 -0.3009  1.5824  1.0033
   87MOL0     H11456   7.003   8.626   0.973  1.8094 -0.0868 -1.3650
   87MOL0     H11457   7.107   8.475   0.968 -0.0991 -1.1853  1.3685
   87MOL0     H11458   6.978   8.510   1.182  0.0749  0.5671 -1.4751
   87MOL0     H11459   7.067   8.660   1.205  2.0108  2.0790 -1.2416
   87MOL0     H11460   7.288   8.515   1.199 -0.3889 -1.9386 -4.8495
   87MOL0     H11461   7.192   8.379   1.175 -1.4299 -0.0201 -1.6764
   87MOL0     H11462   7.174   8.562   1.420  3.3633 -2.0916  1.7435
   87MOL0     H11463   7.065   8.431   1.383 -0.9086 -0.9257 -2.6325
   87MOL0     H11464   7.242   8.264   1.396 -1.5015  1.4378 -0.3963
   87MOL0     H11465   7.248   8.373   1.538 -0.2091  0.6015 -0.1115
   87MOL0     H11466   7.381   9.024   0.546 -0.4109 -3.6781 -0.3836
   87MOL0     H11467   7.588   9.171   0.474 -0.6784  0.0681 -0.0336
   87MOL0     H11468   7.987   9.240   0.421 -0.2692  0.3308  0.8355
   87MOL0     H11469   8.205   9.323   0.352  2.9824  1.0602  0.5257
   87MOL0     H11470  10.262   9.581   1.166 -1.4030 -1.2828 -1.0497
   87MOL0     H11471  10.532   9.602   1.111  0.1751  0.6154 -0.0525
   87MOL0     H11472  10.826   9.387   0.822  3.5392 -1.6639 -0.4141
   87MOL0     H11473  11.053   9.341   0.735 -2.7099 -1.7821 -1.5874
   87MOL0     H11474  11.273   9.644   0.510  1.2893  0.9013 -1.9887
   87MOL0     H11475  11.178   9.562   0.393  0.2633 -0.2790  0.3249
   87MOL0     H11476  11.423   9.541   0.357  0.7280 -0.8821  1.2166
   87MOL0     H11477  11.438   9.453   0.508 -0.1735  2.0714 -0.2458
   87MOL0     H11478  11.269   9.364   0.267 -1.0431  0.5169  2.0668
   87MOL0     H11479  11.299   9.277   0.426  0.2284  1.1911  1.1037
   87MOL0     H11480  11.529   9.248   0.386 -0.5438 -1.0596 -0.5191
   87MOL0     H11481  11.454   9.174   0.248  2.2568  1.4584 -3.7958
   87MOL0     H11482  11.654   9.480   0.064 -0.7399  1.0615  0.0143
   87MOL0     H11483  11.064   9.725   0.540  1.2936  1.3732  1.1390
   87MOL0     H11484  10.851   9.781   0.630 -1.1811  0.8282  0.8899
   88MOL0     O11485   6.449   1.200  10.618  0.2606  0.0180 -0.0361
   88MOL0     C11486   6.516   1.157  10.527  0.5677 -0.2681  0.3778
   88MOL0     O11487   6.470   1.114  10.415  0.2453 -0.1196  0.1462
   88MOL0     C11488   6.333   1.086  10.379 -0.1527  0.1856 -0.0197
   88MOL0     C11489   6.307   1.060  10.244  0.0907 -0.1911 -0.8734
   88MOL0     C11490   6.186   1.025  10.200  0.6879 -0.2251 -1.2716
   88MOL0     C11491   6.072   1.028  10.290  0.4517  0.3999  0.4112
   88MOL0     O11492   5.942   1.019  10.254 -0.2245 -0.3591  0.0284
   88MOL0     C11493   5.911   0.974  10.117 -0.0608 -0.0116  0.3562
   88MOL0     C11494   5.771   0.916  10.115  0.6206 -0.3226  0.2572
   88MOL0     C11495   5.741   0.859   9.977  2.2469 -0.2846  0.6632
   88MOL0     C11496   5.586   0.824   9.959 -0.6408 -0.4463 -1.0891
   88MOL0     C11497   5.555   0.791   9.813  0.7566 -0.3407 -0.1587
   88MOL0     C11498   5.402   0.738   9.807 -0.2654 -0.2535  0.5697
   88MOL0     C11499   5.291   0.845   9.825  0.3973  0.1339 -0.0067
   88MOL0     C11500   5.158   0.781   9.875 -0.5835 -0.0853  0.5141
   88MOL0     N11501   5.062   0.883   9.835  0.7348 -0.4193  0.3503
   88MOL0     C11502   5.028   0.983   9.920 -0.2931  0.7850  0.1321
   88MOL0     C11503   4.943   1.059   9.846  0.0448  0.5467  0.8432
   88MOL0     C11504   4.875   1.189   9.868 -1.1487  0.3246 -0.1065
   88MOL0     C11505   4.738   1.177   9.924 -0.0635  0.0822 -0.2708
   88MOL0     C11506   4.681   1.310   9.949  0.3383  0.0439  0.0089
   88MOL0     C11507   4.530   1.308   9.965  0.4528  0.2887 -0.5775
   88MOL0     O11508   4.474   1.441   9.971  0.2543 -0.1526  0.0858
   88MOL0     C11509   4.339   1.441   9.985  0.1341 -0.3587  0.5200
   88MOL0     C11510   4.293   1.432  10.114  0.7894 -0.1501 -0.6983
   88MOL0     C11511   4.157   1.437  10.130  0.8322  0.2928 -0.4539
   88MOL0     C11512   4.063   1.453  10.021  0.5796 -0.5393 -0.2720
   88MOL0     C11513   3.917   1.476  10.046 -0.5708  0.2320 -0.1813
   88MOL0     O11514   3.854   1.531   9.928 -0.3942  0.9679  0.0534
   88MOL0     C11515   3.728   1.583   9.957  0.3345  0.5900 -0.2224
   88MOL0     C11516   3.711   1.702  10.025  0.1592 -0.3832  1.3467
   88MOL0     C11517   3.581   1.750  10.053  1.2451 -0.6073  0.5050
   88MOL0     C11518   3.466   1.691  10.005 -0.1714  0.1756  0.1155
   88MOL0     O11519   3.339   1.735  10.046 -0.1611 -0.2899 -0.0489
   88MOL0     C11520   3.295   1.865  10.027  0.5202 -0.2834  0.5461
   88MOL0     C11521   3.194   1.913  10.128 -0.6428 -0.0120 -0.0898
   88MOL0     C11522   3.066   1.823  10.134  0.3741 -0.1761 -0.2611
   88MOL0     C11523   2.985   1.873  10.251 -0.0298  0.0717 -1.4586
   88MOL0     C11524   2.839   1.853  10.233 -0.1863 -0.7362  0.2099
   88MOL0     C11525   2.749   1.938  10.325 -0.2218  0.5569  0.4654
   88MOL0     C11526   2.605   1.879  10.319  0.0070 -0.2332 -0.2786
   88MOL0     C11527   2.521   1.928  10.440  0.8064  0.3522  0.8496
   88MOL0    Cl11528   2.480   2.097  10.400 -0.4680  0.3321 -0.2163
   88MOL0     C11529   3.485   1.573   9.925  0.1246 -0.2235  1.2664
   88MOL0     C11530   3.615   1.524   9.896 -0.4578 -0.6147  0.0185
   88MOL0     O11531   3.860   1.457  10.154  0.4139  0.5565 -0.8072
   88MOL0     C11532   4.113   1.449   9.888  0.8786 -0.1441  1.5160
   88MOL0     C11533   4.251   1.447   9.874 -0.5864 -0.1096  0.8223
   88MOL0     N11534   4.921   0.991   9.727  0.5616  0.0254 -0.3013
   88MOL0     N11535   4.986   0.880   9.722  0.4737 -0.3171  0.3814
   88MOL0     C11536   6.086   1.064  10.424 -0.4367 -0.4557 -0.9164
   88MOL0     C11537   6.219   1.087  10.467 -0.3935 -0.3275  0.4975
   88MOL0     C11538   6.663   1.155  10.545  0.2053  0.2387  0.2354
   88MOL0     C11539   6.719   1.192  10.671  1.3127  1.1392  0.9775
   88MOL0     C11540   6.851   1.224  10.681  0.2492 -0.2094 -0.0845
   88MOL0     C11541   6.936   1.223  10.570  0.7783  0.7299 -0.0891
   88MOL0     O11542   7.061   1.280  10.568  0.4864  0.7295 -0.2700
   88MOL0     C11543   7.143   1.257  10.681  0.3664 -0.8519  0.2144
   88MOL0     C11544   7.284   1.320  10.673  0.0300  0.1801 -0.7655
   88MOL0     C11545   7.355   1.295  10.540  0.5389  0.6999 -0.4643
   88MOL0     C11546   7.496   1.351  10.540  0.5281 -0.6452 -0.1137
   88MOL0     C11547   7.512   1.501  10.542  0.3636 -0.3586  0.1534
   88MOL0     C11548   7.513   1.624  10.559  0.1549 -0.0886  0.7442
   88MOL0     C11549   6.888   1.168  10.452 -0.0068  0.1104  0.8449
   88MOL0     C11550   6.751   1.138  10.434  0.5134  0.4682 -0.6958
   88MOL0     H11551   6.394   1.057  10.179  0.8450  0.0833  0.0927
   88MOL0     H11552   6.165   0.988  10.100  0.8653  1.3699 -1.9155
   88MOL0     H11553   5.984   0.898  10.085  0.0055  0.8534 -1.7542
   88MOL0     H11554   5.916   1.060  10.050 -1.5411  0.5071  0.8794
   88MOL0     H11555   5.706   1.003  10.125  2.7890  1.0908  4.0877
   88MOL0     H11556   5.750   0.851  10.200  0.2974 -2.3923 -1.3274
   88MOL0     H11557   5.807   0.772   9.968  0.2279 -1.7176 -1.3856
   88MOL0     H11558   5.764   0.931   9.898  2.5162  0.5832  1.5127
   88MOL0     H11559   5.574   0.744  10.032  1.4388  1.8533  2.0561
   88MOL0     H11560   5.515   0.902   9.989 -1.3290 -0.7447 -1.9064
   88MOL0     H11561   5.616   0.705   9.784  2.7557  0.4723  1.3784
   88MOL0     H11562   5.579   0.878   9.751  2.7687 -0.8166 -0.0920
   88MOL0     H11563   5.389   0.667   9.890 -1.4951 -0.0116  0.6104
   88MOL0     H11564   5.383   0.676   9.719  1.1338 -2.2933  1.6202
   88MOL0     H11565   5.326   0.931   9.883 -0.2329  0.3705  0.0334
   88MOL0     H11566   5.283   0.900   9.731 -0.9774  1.5316  0.8712
   88MOL0     H11567   5.170   0.768   9.983  1.6697  0.0622  0.3272
   88MOL0     H11568   5.152   0.683   9.827  2.5285 -0.4979  0.7289
   88MOL0     H11569   5.064   1.020  10.015 -0.0727  0.6170  0.1148
   88MOL0     H11570   4.875   1.240   9.772  2.8178 -0.2264 -0.5664
   88MOL0     H11571   4.939   1.247   9.936  1.0885 -1.5118 -0.4932
   88MOL0     H11572   4.749   1.125  10.020 -1.1667  2.3809  1.1997
   88MOL0     H11573   4.667   1.115   9.869 -2.2641 -1.0618  3.4211
   88MOL0     H11574   4.733   1.353  10.036 -0.1376 -0.6485  0.6443
   88MOL0     H11575   4.697   1.381   9.868 -0.5526 -1.2179 -1.3100
   88MOL0     H11576   4.509   1.245  10.053  0.9384 -0.2091 -0.8157
   88MOL0     H11577   4.476   1.255   9.886  0.2123 -0.1378 -0.1311
   88MOL0     H11578   4.367   1.436  10.193  1.6033 -1.0199 -1.3947
   88MOL0     H11579   4.125   1.432  10.234  0.4732 -0.4859 -0.5968
   88MOL0     H11580   3.796   1.743  10.078 -0.5027  0.2284  1.9707
   88MOL0     H11581   3.570   1.846  10.101  0.8572  0.9723 -2.4921
   88MOL0     H11582   3.247   1.876   9.930 -3.0605  0.7115  2.2295
   88MOL0     H11583   3.374   1.940  10.018 -0.1661  0.6029  1.5050
   88MOL0     H11584   3.167   2.012  10.090  1.1572  0.9555  1.0205
   88MOL0     H11585   3.236   1.929  10.227 -2.3611  2.6690  0.3183
   88MOL0     H11586   3.095   1.718  10.135  1.1362  0.0198  0.8257
   88MOL0     H11587   3.009   1.846  10.044 -0.1141 -1.9916 -0.4394
   88MOL0     H11588   3.017   1.824  10.343 -3.7729  0.7390  0.3895
   88MOL0     H11589   3.004   1.981  10.252  2.6998 -0.1823  2.9278
   88MOL0     H11590   2.819   1.746  10.242 -2.5931 -0.4519 -1.1697
   88MOL0     H11591   2.814   1.886  10.132 -0.1954 -2.3264 -0.3431
   88MOL0     H11592   2.755   2.045  10.304  0.6781  1.3718  4.1674
   88MOL0     H11593   2.784   1.931  10.428 -0.3675  0.8231  0.5341
   88MOL0     H11594   2.563   1.914  10.225 -0.0404 -0.9478 -0.5258
   88MOL0     H11595   2.599   1.770  10.316 -0.3012 -0.2227 -0.1164
   88MOL0     H11596   2.575   1.931  10.535 -0.2401 -0.4670  1.4959
   88MOL0     H11597   2.431   1.869  10.458  1.0019 -0.5014 -0.7085
   88MOL0     H11598   3.401   1.515   9.888 -0.6119  0.8786  1.1529
   88MOL0     H11599   3.633   1.429   9.847  1.7072  0.6335 -1.7935
   88MOL0     H11600   4.045   1.449   9.804  2.1241  0.9299  0.4656
   88MOL0     H11601   4.288   1.447   9.772  2.2656 -0.5029  1.7800
   88MOL0     H11602   5.999   1.073  10.488  1.4138  2.4331  1.4707
   88MOL0     H11603   6.231   1.086  10.575 -2.4462 -5.4732  0.9614
   88MOL0     H11604   6.652   1.223  10.751 -0.1783 -1.8220  1.0203
   88MOL0     H11605   6.881   1.286  10.765  1.3912  0.4331 -0.9274
   88MOL0     H11606   7.168   1.150  10.679  0.2123 -0.9009  0.7355
   88MOL0     H11607   7.089   1.268  10.775 -1.5113 -2.4727 -0.5915
   88MOL0     H11608   7.275   1.428  10.691 -0.6782  0.0992 -0.6336
   88MOL0     H11609   7.347   1.277  10.751 -0.3493 -0.6082 -0.8871
   88MOL0     H11610   7.302   1.344  10.457 -2.1968  0.5614  1.0764
   88MOL0     H11611   7.355   1.187  10.525  3.6523  0.6564 -0.7448
   88MOL0     H11612   7.542   1.319  10.634  0.1818  4.0731  1.9500
   88MOL0     H11613   7.553   1.319  10.453 -1.2524 -1.7257 -0.9382
   88MOL0     H11614   7.520   1.731  10.560  1.7766 -0.1732  0.4865
   88MOL0     H11615   6.954   1.160  10.366 -1.8654  1.8118 -0.8243
   88MOL0     H11616   6.721   1.096  10.338 -1.1462 -1.0861  0.4402
   89MOL0     O11617  10.486   3.900   0.717  0.3322  0.8018 -0.3442
   89MOL0     C11618  10.562   3.808   0.756 -0.2366  0.2748  0.5906
   89MOL0     O11619  10.531   3.690   0.814  0.0154  0.4585 -0.3758
   89MOL0     C11620  10.399   3.658   0.823  0.4016  0.5731  0.0413
   89MOL0     C11621  10.353   3.614   0.943 -0.5962  0.9075 -0.0711
   89MOL0     C11622  10.217   3.578   0.955 -0.3550 -0.6746  0.6336
   89MOL0     C11623  10.126   3.585   0.846  0.3372 -0.0732 -0.3627
   89MOL0     O11624   9.995   3.562   0.876  0.2666 -0.3100 -0.1405
   89MOL0     C11625   9.919   3.491   0.771 -0.2454 -0.6916  0.4193
   89MOL0     C11626   9.799   3.420   0.834 -0.2774  0.0278 -0.2514
   89MOL0     C11627   9.839   3.300   0.918  0.2502  1.0883  1.1641
   89MOL0     C11628   9.721   3.240   0.992 -0.1080  0.5732  0.5791
   89MOL0     C11629   9.761   3.123   1.083 -0.3695  0.0120  0.8767
   89MOL0     C11630   9.634   3.075   1.148 -0.0292  0.4112  0.2873
   89MOL0     C11631   9.646   2.944   1.238  0.3788 -0.5128 -0.6201
   89MOL0     C11632   9.496   2.899   1.267 -0.1174  0.1058  0.0408
   89MOL0     N11633   9.492   2.788   1.364  0.3019 -0.0231  0.3267
   89MOL0     C11634   9.432   2.796   1.490  0.0036 -0.2576  0.2109
   89MOL0     C11635   9.438   2.664   1.526 -0.5740 -0.6895 -1.4141
   89MOL0     C11636   9.388   2.605   1.658  0.1321 -0.1200 -0.1133
   89MOL0     C11637   9.243   2.619   1.672 -0.4143 -0.2267  0.1773
   89MOL0     C11638   9.172   2.551   1.551  1.0051  0.4012 -0.3844
   89MOL0     C11639   9.019   2.547   1.584 -0.1277 -0.0884  0.7263
   89MOL0     O11640   8.997   2.462   1.692  0.5773 -0.6048 -0.1333
   89MOL0     C11641   8.868   2.457   1.730  0.2011 -0.7285 -0.2532
   89MOL0     C11642   8.833   2.329   1.781 -0.4929  0.2243 -1.0415
   89MOL0     C11643   8.713   2.302   1.844 -0.3675  0.0866 -0.3990
   89MOL0     C11644   8.616   2.402   1.851  0.0011 -0.5451 -0.5558
   89MOL0     C11645   8.484   2.364   1.908 -0.0843  0.0427  1.2340
   89MOL0     O11646   8.452   2.240   1.932 -0.5803  0.7210  0.2399
   89MOL0     C11647   8.328   2.202   1.983  1.1878  0.5306 -0.3090
   89MOL0     C11648   8.209   2.263   1.937 -0.0578  0.1786 -0.5739
   89MOL0     C11649   8.085   2.227   1.989 -0.5943  0.1345 -0.3573
   89MOL0     C11650   8.071   2.133   2.092 -0.6436  1.3979 -0.7789
   89MOL0     O11651   7.957   2.090   2.148  0.5921 -0.5780  0.5186
   89MOL0     C11652   7.849   2.180   2.139  0.6980 -1.0625  0.2281
   89MOL0     C11653   7.721   2.128   2.201  0.2463 -0.4781  0.0308
   89MOL0     C11654   7.603   2.229   2.183  0.8722  0.1463 -1.0443
   89MOL0     C11655   7.469   2.188   2.239  0.2670  0.0484  0.3571
   89MOL0     C11656   7.437   2.197   2.386 -0.2765 -0.8066 -0.1809
   89MOL0     C11657   7.362   2.319   2.428  0.6351  0.5654  0.7903
   89MOL0     C11658   7.351   2.311   2.580  0.6680 -0.2798 -0.1964
   89MOL0     C11659   7.483   2.326   2.643  1.1774 -0.1864  0.0281
   89MOL0    Cl11660   7.463   2.350   2.820 -0.1784 -0.4888 -0.0003
   89MOL0     C11661   8.189   2.065   2.132  0.7324  0.1298  0.3390
   89MOL0     C11662   8.317   2.100   2.080 -0.0346 -0.3660  0.1058
   89MOL0     O11663   8.410   2.466   1.932  0.2663 -0.8103 -0.2859
   89MOL0     C11664   8.643   2.530   1.797  0.0110 -0.7652 -0.0761
   89MOL0     C11665   8.767   2.557   1.737 -0.5785  0.1472 -0.3265
   89MOL0     N11666   9.510   2.589   1.437 -0.4215  1.1416  0.4239
   89MOL0     N11667   9.538   2.665   1.331 -0.1244 -0.1475  0.1235
   89MOL0     C11668  10.179   3.614   0.721  0.4082  0.1125  0.4945
   89MOL0     C11669  10.314   3.647   0.711 -0.2413 -0.1636  0.5815
   89MOL0     C11670  10.706   3.832   0.731  0.5407 -0.4722 -0.4701
   89MOL0     C11671  10.756   3.913   0.629 -0.4665  0.4731  0.2675
   89MOL0     C11672  10.890   3.922   0.604 -0.4497  0.2153 -0.4556
   89MOL0     C11673  10.978   3.840   0.678  0.6181  1.2236 -0.8846
   89MOL0     O11674  11.111   3.836   0.641 -0.3607 -0.5283 -0.7680
   89MOL0     C11675  11.200   3.753   0.711  0.3296  0.2060  0.6758
   89MOL0     C11676  11.345   3.768   0.648  0.6501 -0.2267  0.1382
   89MOL0     C11677  11.441   3.681   0.739 -0.4737 -0.2142  0.7281
   89MOL0     C11678  11.581   3.755   0.743  1.1402 -0.1623  0.8884
   89MOL0     C11679  11.683   3.680   0.804 -0.6071  0.6393  0.0682
   89MOL0     C11680  11.781   3.612   0.850 -0.5688 -1.6261 -0.1002
   89MOL0     C11681  10.932   3.775   0.806  0.9642 -0.7802  0.3651
   89MOL0     C11682  10.795   3.773   0.825  0.5017  0.2252 -0.2789
   89MOL0     H11683  10.428   3.619   1.022  0.7481  1.2591 -1.3127
   89MOL0     H11684  10.171   3.554   1.050 -1.1049  0.6587  0.6362
   89MOL0     H11685   9.977   3.426   0.704 -3.4269 -3.1075 -0.2723
   89MOL0     H11686   9.879   3.563   0.699  1.4875 -1.8754 -1.8714
   89MOL0     H11687   9.735   3.390   0.750 -1.4254 -0.1926  0.6713
   89MOL0     H11688   9.736   3.494   0.884 -1.0288  1.7717 -3.5240
   89MOL0     H11689   9.915   3.330   0.991  1.9259  2.0965 -0.9001
   89MOL0     H11690   9.882   3.225   0.851  1.6939  3.4947 -0.7779
   89MOL0     H11691   9.689   3.325   1.054  0.4471  1.4843 -0.3365
   89MOL0     H11692   9.649   3.200   0.921 -0.9019  0.7887  1.2421
   89MOL0     H11693   9.839   3.144   1.157 -1.7953  0.2550  2.3747
   89MOL0     H11694   9.795   3.042   1.018  1.9733  0.5386  1.3502
   89MOL0     H11695   9.568   3.042   1.067 -0.5263 -1.0898  1.2602
   89MOL0     H11696   9.585   3.160   1.197 -0.9290  0.6329 -0.9713
   89MOL0     H11697   9.699   2.874   1.173  1.4203  1.0358 -1.4969
   89MOL0     H11698   9.702   2.965   1.329  0.8355  2.0978 -1.4178
   89MOL0     H11699   9.453   2.872   1.170  1.3950 -2.7000  0.0465
   89MOL0     H11700   9.444   2.984   1.311  2.5879  2.0390 -0.2584
   89MOL0     H11701   9.378   2.876   1.539 -0.7878 -0.2368 -0.6645
   89MOL0     H11702   9.425   2.676   1.733  2.4648  0.9666 -2.1523
   89MOL0     H11703   9.442   2.511   1.671  1.7160  0.7140 -0.5024
   89MOL0     H11704   9.207   2.722   1.679 -1.5962 -0.6723  0.9836
   89MOL0     H11705   9.208   2.582   1.769 -0.6366  0.0250  0.1969
   89MOL0     H11706   9.197   2.593   1.453 -0.0904 -0.9526 -1.2767
   89MOL0     H11707   9.202   2.446   1.552 -0.9987 -0.2391 -1.7435
   89MOL0     H11708   8.972   2.503   1.495 -0.4156 -1.6856  1.6139
   89MOL0     H11709   8.984   2.650   1.589 -0.5664 -0.2328  0.7062
   89MOL0     H11710   8.912   2.255   1.774 -1.0580 -0.4901 -0.0543
   89MOL0     H11711   8.696   2.201   1.881  0.4015  0.1816  0.2394
   89MOL0     H11712   8.205   2.327   1.850 -2.6578 -1.4095 -1.7552
   89MOL0     H11713   8.003   2.267   1.932  0.8070  0.8078 -1.9748
   89MOL0     H11714   7.818   2.203   2.037 -1.1934  3.6033  1.5817
   89MOL0     H11715   7.878   2.277   2.180 -4.7450 -0.2597  3.0621
   89MOL0     H11716   7.738   2.110   2.307 -1.9303 -2.7153  0.1038
   89MOL0     H11717   7.689   2.033   2.158  0.8563 -0.1799 -1.1404
   89MOL0     H11718   7.590   2.232   2.075  1.5541 -0.8688 -1.1664
   89MOL0     H11719   7.624   2.334   2.209  0.1500  0.6219 -2.3347
   89MOL0     H11720   7.393   2.242   2.181 -0.8258 -3.3162 -1.6272
   89MOL0     H11721   7.450   2.085   2.207  1.3041  0.6318 -2.3959
   89MOL0     H11722   7.530   2.192   2.444 -0.4880  1.1308  0.4012
   89MOL0     H11723   7.377   2.107   2.399 -1.5040 -0.5872 -3.3283
   89MOL0     H11724   7.267   2.324   2.375  2.1958  0.0734 -2.3301
   89MOL0     H11725   7.421   2.407   2.402  0.5911 -0.2634 -2.5168
   89MOL0     H11726   7.277   2.388   2.603  1.1936  1.1709 -2.8626
   89MOL0     H11727   7.300   2.220   2.610 -1.7952  1.1343  0.1757
   89MOL0     H11728   7.523   2.416   2.596  0.0704  1.1562  1.5465
   89MOL0     H11729   7.547   2.239   2.625  1.1652 -0.2223  0.1542
   89MOL0     H11730   8.182   1.979   2.197  2.2885  0.0231  0.4081
   89MOL0     H11731   8.402   2.036   2.098 -0.4972 -0.8111  0.7564
   89MOL0     H11732   8.575   2.614   1.802  2.1203  1.0218 -0.2396
   89MOL0     H11733   8.788   2.653   1.691 -0.2129  0.0429 -0.3787
   89MOL0     H11734  10.114   3.610   0.634  1.5052  0.5660 -0.3673
   89MOL0     H11735  10.355   3.670   0.613  0.4670  0.3572  0.9954
   89MOL0     H11736  10.694   3.971   0.561  0.3249 -0.5627 -1.4043
   89MOL0     H11737  10.933   3.956   0.510  0.1095 -1.7343 -0.9438
   89MOL0     H11738  11.171   3.649   0.694  2.4176 -0.7451  2.4595
   89MOL0     H11739  11.193   3.763   0.820 -0.4689  3.0553  0.4492
   89MOL0     H11740  11.339   3.737   0.543 -2.1985  1.3539 -0.2792
   89MOL0     H11741  11.372   3.874   0.656 -2.2698  1.0400 -3.4602
   89MOL0     H11742  11.446   3.580   0.698 -1.4230 -1.1424  2.7641
   89MOL0     H11743  11.396   3.678   0.839 -0.8865  1.2476  0.6103
   89MOL0     H11744  11.606   3.795   0.645 -2.3703  1.9012  0.6730
   89MOL0     H11745  11.565   3.841   0.809 -3.0229 -1.2290  1.5254
   89MOL0     H11746  11.865   3.572   0.902  1.7712  3.2572  0.4711
   89MOL0     H11747  10.998   3.717   0.871 -0.0855 -0.0956  2.1006
   89MOL0     H11748  10.755   3.712   0.906 -1.3825  1.8289  0.0803
   90MOL0     O11749   0.812   9.384   1.308  0.1045  0.3984  0.4215
   90MOL0     C11750   0.784   9.360   1.424 -0.2454  0.7275  1.1863
   90MOL0     O11751   0.869   9.304   1.514  0.6664  0.4168  0.1120
   90MOL0     C11752   0.995   9.259   1.467  0.3952  0.1205 -0.1554
   90MOL0     C11753   1.010   9.130   1.420 -0.4997  1.0138 -0.2647
   90MOL0     C11754   1.138   9.076   1.389 -0.5476 -0.1355 -0.6237
   90MOL0     C11755   1.252   9.149   1.417 -0.1210 -0.5977 -0.6641
   90MOL0     O11756   1.378   9.102   1.385  0.0023  0.4622 -0.6778
   90MOL0     C11757   1.483   9.203   1.380  0.0956  0.4060  0.2428
   90MOL0     C11758   1.588   9.145   1.286 -1.0535  0.7383 -0.3310
   90MOL0     C11759   1.699   9.232   1.245 -0.7091  0.4723 -0.0004
   90MOL0     C11760   1.817   9.152   1.179 -0.9094  0.3948 -0.7850
   90MOL0     C11761   1.922   9.238   1.112 -0.7217  0.0993 -0.0134
   90MOL0     C11762   2.014   9.323   1.208  0.6194  0.1901 -0.0877
   90MOL0     C11763   2.094   9.434   1.130 -0.9396 -0.2576 -0.8773
   90MOL0     C11764   2.148   9.532   1.236 -0.1993 -0.1285 -0.0991
   90MOL0     N11765   2.279   9.492   1.287  0.1134  0.2350 -0.2524
   90MOL0     C11766   2.404   9.496   1.233 -0.3623 -0.3724  0.4846
   90MOL0     C11767   2.491   9.492   1.335 -0.2132  0.1018 -0.6215
   90MOL0     C11768   2.644   9.507   1.322  1.0149  0.0126 -0.5933
   90MOL0     C11769   2.678   9.652   1.355  0.3363 -0.5263 -0.6047
   90MOL0     C11770   2.823   9.694   1.355 -0.1881 -0.3643  0.8403
   90MOL0     C11771   2.850   9.831   1.426  0.4803  0.8384 -0.0784
   90MOL0     O11772   2.987   9.839   1.396 -1.1967  0.4930 -0.1433
   90MOL0     C11773   3.060   9.939   1.451 -0.7020 -0.8349 -0.5583
   90MOL0     C11774   3.001  10.049   1.516  0.1087 -0.2181  0.4062
   90MOL0     C11775   3.073  10.169   1.543  0.1936 -0.8382 -0.4259
   90MOL0     C11776   3.212  10.171   1.530  0.4754  0.7783 -0.8364
   90MOL0     C11777   3.293  10.296   1.563 -0.2441 -0.1072  0.1990
   90MOL0     O11778   3.432  10.278   1.542  0.4137  0.1239  0.3490
   90MOL0     C11779   3.526  10.356   1.607 -0.0001  0.7515 -0.3472
   90MOL0     C11780   3.501  10.454   1.706 -0.1335 -0.7630 -1.1578
   90MOL0     C11781   3.601  10.527   1.777  0.0012  0.1320 -0.3871
   90MOL0     C11782   3.735  10.508   1.754  0.8194 -0.1482  0.1579
   90MOL0     O11783   3.821  10.599   1.815  0.1588  0.4490  0.1765
   90MOL0     C11784   3.955  10.554   1.796 -0.4268  0.2349 -0.8039
   90MOL0     C11785   4.054  10.657   1.835 -1.2187 -0.0462 -1.3742
   90MOL0     C11786   4.044  10.784   1.751  0.2596  0.6979 -0.1373
   90MOL0     C11787   4.176  10.817   1.673  0.3063  0.0722  0.3477
   90MOL0     C11788   4.144  10.920   1.561  0.4901 -0.2690 -0.0934
   90MOL0     C11789   4.270  10.956   1.482  0.1566  0.1538  0.0584
   90MOL0     C11790   4.239  11.063   1.370 -0.5190  0.0021 -0.3791
   90MOL0     C11791   4.313  11.034   1.244 -0.2577  0.7360  0.4375
   90MOL0    Cl11792   4.253  10.897   1.156  0.0223  0.0631 -0.1934
   90MOL0     C11793   3.759  10.406   1.656 -0.3374 -0.4883  0.3168
   90MOL0     C11794   3.662  10.332   1.581  0.3812 -0.2472  0.0538
   90MOL0     O11795   3.242  10.394   1.606  0.5821  0.2831 -0.8386
   90MOL0     C11796   3.275  10.045   1.489 -0.8078  0.0999  0.2726
   90MOL0     C11797   3.205   9.932   1.445 -0.0117 -0.6191  0.8416
   90MOL0     N11798   2.415   9.468   1.444  0.2017 -0.4270 -0.3277
   90MOL0     N11799   2.292   9.462   1.415 -1.1244 -0.1450 -0.7644
   90MOL0     C11800   1.234   9.277   1.476 -1.1634  0.9368  0.4758
   90MOL0     C11801   1.113   9.333   1.495  0.7172  0.0342 -0.6080
   90MOL0     C11802   0.644   9.395   1.464 -1.1296  0.0188  0.8819
   90MOL0     C11803   0.559   9.489   1.395  0.5309 -0.2996 -0.5735
   90MOL0     C11804   0.422   9.500   1.417 -0.8397  0.2657 -0.1476
   90MOL0     C11805   0.363   9.424   1.513 -0.5673  0.6969  0.6050
   90MOL0     O11806   0.228   9.452   1.530 -0.2916 -0.4038 -0.1040
   90MOL0     C11807   0.138   9.344   1.580  1.3781 -0.8765  0.0760
   90MOL0     C11808   0.004   9.362   1.505  0.4874  0.3251 -0.0962
   90MOL0     C11809  -0.109   9.280   1.573  0.1564 -0.6771  0.3472
   90MOL0     C11810  -0.241   9.282   1.491 -0.7264  0.0350 -0.8870
   90MOL0     C11811  -0.356   9.266   1.583  0.5906 -0.7617  0.2143
   90MOL0     C11812  -0.440   9.264   1.677 -0.1390  0.7830  0.3818
   90MOL0     C11813   0.446   9.337   1.596  0.3674 -0.1070 -0.3717
   90MOL0     C11814   0.583   9.325   1.572  0.2868 -0.8057 -0.5457
   90MOL0     H11815   0.922   9.075   1.389  0.9917 -1.3697 -0.5917
   90MOL0     H11816   1.143   8.978   1.344  0.2177  0.1503 -1.1734
   90MOL0     H11817   1.510   9.215   1.486 -0.5550  0.4121  0.4119
   90MOL0     H11818   1.448   9.295   1.333 -0.1512 -1.4289 -3.4646
   90MOL0     H11819   1.542   9.126   1.189 -0.6831  1.7677 -0.7196
   90MOL0     H11820   1.624   9.060   1.346  0.1091  2.7737  2.0223
   90MOL0     H11821   1.747   9.283   1.329 -1.0221 -1.6019  1.5284
   90MOL0     H11822   1.672   9.309   1.172 -0.0821 -0.1387 -0.8969
   90MOL0     H11823   1.868   9.088   1.252  0.8136  1.3231 -1.1444
   90MOL0     H11824   1.770   9.096   1.098 -1.3678  1.4945 -1.2904
   90MOL0     H11825   1.867   9.316   1.059  2.3263  2.7484  0.4561
   90MOL0     H11826   1.989   9.178   1.049  1.2538  2.2425 -0.0963
   90MOL0     H11827   2.085   9.270   1.271  1.8760 -1.0363 -2.4282
   90MOL0     H11828   1.942   9.370   1.277 -0.3259 -0.3375 -0.6868
   90MOL0     H11829   2.182   9.397   1.076 -0.4966  0.3892 -0.6008
   90MOL0     H11830   2.037   9.496   1.061  1.7487  0.9875 -2.1428
   90MOL0     H11831   2.072   9.552   1.313 -0.8366  1.4971 -1.1035
   90MOL0     H11832   2.166   9.628   1.186 -2.4128 -0.5775 -1.9411
   90MOL0     H11833   2.441   9.526   1.135  2.8675 -2.3266  0.9658
   90MOL0     H11834   2.680   9.482   1.222  1.8062 -1.7428  0.0880
   90MOL0     H11835   2.682   9.438   1.398 -1.6245 -1.4251 -0.4842
   90MOL0     H11836   2.645   9.681   1.455  4.2845 -3.1818  1.7463
   90MOL0     H11837   2.624   9.715   1.284 -1.1112 -1.2119 -0.1517
   90MOL0     H11838   2.872   9.621   1.421  0.3841 -0.3352  0.4525
   90MOL0     H11839   2.867   9.685   1.256 -0.1549  1.7535  0.6165
   90MOL0     H11840   2.817   9.820   1.529 -0.3019 -0.5945 -0.4557
   90MOL0     H11841   2.796   9.920   1.391 -2.0069 -0.8816 -0.8854
   90MOL0     H11842   2.895  10.058   1.536 -0.3326  0.5880 -1.9318
   90MOL0     H11843   3.008  10.252   1.569  0.8685 -0.4100 -0.0746
   90MOL0     H11844   3.403  10.486   1.742  0.1513 -2.1186  1.0752
   90MOL0     H11845   3.581  10.613   1.841 -1.5003  0.1610 -0.8399
   90MOL0     H11846   3.981  10.538   1.691  1.4225  0.2893 -0.3881
   90MOL0     H11847   3.971  10.461   1.850  0.9482  0.5130 -0.6941
   90MOL0     H11848   4.157  10.619   1.831 -0.6979  0.8783  1.4910
   90MOL0     H11849   4.047  10.688   1.939  2.1402  1.2225 -1.3852
   90MOL0     H11850   4.029  10.871   1.816 -0.5177  0.4124  0.0857
   90MOL0     H11851   3.954  10.780   1.688  0.2560  1.6484 -0.2091
   90MOL0     H11852   4.250  10.863   1.738 -0.3364  4.4424 -1.6645
   90MOL0     H11853   4.225  10.727   1.631  0.3121 -0.1323  0.7893
   90MOL0     H11854   4.094  11.009   1.600  0.5160  0.9083 -2.5093
   90MOL0     H11855   4.075  10.866   1.496 -0.9307  0.1356  1.0261
   90MOL0     H11856   4.301  10.864   1.431  0.4142  0.1134  0.2900
   90MOL0     H11857   4.347  10.997   1.547  0.8409  2.7006 -2.1973
   90MOL0     H11858   4.133  11.083   1.353 -0.3856 -0.5179 -1.9177
   90MOL0     H11859   4.268  11.163   1.404  1.8525 -0.3909 -1.1198
   90MOL0     H11860   4.420  11.023   1.261 -0.2278 -2.9725 -1.2180
   90MOL0     H11861   4.304  11.118   1.175 -2.4069 -1.6347 -2.4507
   90MOL0     H11862   3.862  10.384   1.628 -0.0506  0.9335  0.1439
   90MOL0     H11863   3.687  10.252   1.511  2.4144  1.1996 -0.9729
   90MOL0     H11864   3.383  10.038   1.488 -0.8697 -2.8801  1.6767
   90MOL0     H11865   3.246   9.839   1.407  2.8467 -0.2807  2.8147
   90MOL0     H11866   1.320   9.331   1.515 -2.1445  2.0339  1.1745
   90MOL0     H11867   1.093   9.422   1.554 -0.8889  0.8155 -2.2395
   90MOL0     H11868   0.599   9.559   1.323 -1.8848  2.1992  0.3418
   90MOL0     H11869   0.369   9.577   1.361 -0.5083 -0.7944 -2.0238
   90MOL0     H11870   0.119   9.356   1.687 -0.9863  0.8266 -0.4528
   90MOL0     H11871   0.181   9.245   1.558  1.7317 -0.5077 -0.9722
   90MOL0     H11872  -0.017   9.470   1.504 -2.2563 -0.1049 -2.5187
   90MOL0     H11873   0.016   9.327   1.402 -2.0298 -1.9293  0.2549
   90MOL0     H11874  -0.119   9.337   1.666 -0.0028 -0.9353  0.4870
   90MOL0     H11875  -0.073   9.179   1.594  0.9775 -0.5336 -0.3399
   90MOL0     H11876  -0.270   9.377   1.444 -2.3288  0.2366  0.4139
   90MOL0     H11877  -0.242   9.201   1.418  0.8530 -1.6014  0.8137
   90MOL0     H11878  -0.507   9.257   1.761 -0.2992 -1.8539  0.1149
   90MOL0     H11879   0.404   9.277   1.676 -0.9946  1.7092  0.3347
   90MOL0     H11880   0.645   9.256   1.629 -0.6698 -2.5593 -1.5723
   91MOL0     O11881   5.996   5.690   2.121 -0.1558 -0.5373  0.0129
   91MOL0     C11882   5.977   5.805   2.087  0.7346 -0.4027 -0.6810
   91MOL0     O11883   6.063   5.884   2.008  0.4514 -0.1546 -0.1296
   91MOL0     C11884   6.162   5.821   1.937 -0.7365  0.6106 -0.5885
   91MOL0     C11885   6.140   5.756   1.823  0.0599 -0.3076 -0.3330
   91MOL0     C11886   6.243   5.696   1.753 -0.4013 -0.7897  0.3688
   91MOL0     C11887   6.370   5.696   1.806 -0.1499  0.5031  0.1510
   91MOL0     O11888   6.468   5.610   1.752 -0.2867  0.2852 -0.5041
   91MOL0     C11889   6.470   5.588   1.615  0.4137 -0.0422  0.3704
   91MOL0     C11890   6.608   5.545   1.564  0.4722  0.5668  0.2223
   91MOL0     C11891   6.673   5.424   1.635 -0.0471 -0.7566 -0.0155
   91MOL0     C11892   6.802   5.372   1.591 -1.1497  1.1371 -0.0561
   91MOL0     C11893   6.796   5.311   1.452 -0.4615  0.6810  1.4858
   91MOL0     C11894   6.926   5.235   1.410 -0.1176  1.0052 -0.2839
   91MOL0     C11895   7.054   5.322   1.425  0.5554 -0.1607  0.0891
   91MOL0     C11896   7.163   5.268   1.334 -0.4218 -0.3142  0.2355
   91MOL0     N11897   7.295   5.311   1.375 -0.0281  0.3377 -0.5906
   91MOL0     C11898   7.346   5.437   1.356  0.1781  0.4904  0.1067
   91MOL0     C11899   7.467   5.429   1.398  0.7050  0.1310 -0.9086
   91MOL0     C11900   7.562   5.547   1.412 -0.1426  0.5719  0.2123
   91MOL0     C11901   7.563   5.588   1.550  0.0768 -0.4044 -0.0432
   91MOL0     C11902   7.682   5.682   1.588 -0.6702 -0.4253 -0.5696
   91MOL0     C11903   7.652   5.738   1.732  0.8290  0.0369 -0.2700
   91MOL0     O11904   7.540   5.834   1.736  0.0415  0.3786 -0.1235
   91MOL0     C11905   7.507   5.874   1.867 -0.5102 -0.6928 -0.3810
   91MOL0     C11906   7.373   5.896   1.891  0.1910  0.3474  0.2133
   91MOL0     C11907   7.329   5.928   2.014 -0.0877  0.2436  0.2648
   91MOL0     C11908   7.409   5.953   2.127 -1.0440 -0.9990  0.4089
   91MOL0     C11909   7.337   5.979   2.249 -0.0650 -0.8321  0.1977
   91MOL0     O11910   7.219   5.904   2.258 -0.0554  0.0698 -0.4330
   91MOL0     C11911   7.120   5.932   2.348  0.1446  0.4533  0.6515
   91MOL0     C11912   7.019   5.845   2.351 -0.1045  0.6280  0.6709
   91MOL0     C11913   6.904   5.856   2.436 -0.2399 -0.2193 -0.5621
   91MOL0     C11914   6.907   5.959   2.531 -0.2950 -1.1190  0.1717
   91MOL0     O11915   6.831   5.975   2.637 -0.4855  0.2036 -0.4615
   91MOL0     C11916   6.690   5.946   2.624 -0.5819 -1.3184  0.5131
   91MOL0     C11917   6.627   6.038   2.522 -0.2226  0.1311  0.5892
   91MOL0     C11918   6.480   5.994   2.501 -0.7649  0.3416 -0.3399
   91MOL0     C11919   6.397   6.058   2.391 -0.2079  0.4370  0.4599
   91MOL0     C11920   6.250   6.006   2.388  0.2368  0.5553 -0.2159
   91MOL0     C11921   6.165   6.037   2.508  0.0122  0.0284 -1.0685
   91MOL0     C11922   6.015   5.993   2.485 -1.1102  0.2218 -0.1525
   91MOL0     C11923   5.923   6.055   2.590 -0.1505  0.6697  0.0869
   91MOL0    Cl11924   5.884   6.224   2.532  0.0888 -0.1976 -0.1702
   91MOL0     C11925   7.016   6.050   2.531  0.2946 -0.1553 -0.1451
   91MOL0     C11926   7.116   6.034   2.441  0.1164  0.1897 -1.1175
   91MOL0     O11927   7.383   6.058   2.333 -0.0821  0.6365  0.3570
   91MOL0     C11928   7.547   5.933   2.102  0.6422  0.9694  0.1142
   91MOL0     C11929   7.593   5.894   1.976  0.0202 -0.5003  0.3719
   91MOL0     N11930   7.495   5.305   1.447  0.3344  0.2397  0.2799
   91MOL0     N11931   7.390   5.223   1.428 -0.4793 -0.4925 -0.6878
   91MOL0     C11932   6.393   5.765   1.929  0.4123  0.0455 -0.0800
   91MOL0     C11933   6.292   5.832   1.991  0.2178  1.0726  0.3268
   91MOL0     C11934   5.858   5.867   2.146  0.3511 -0.3928 -0.1100
   91MOL0     C11935   5.764   5.801   2.227 -0.2801  0.8281  0.0212
   91MOL0     C11936   5.657   5.860   2.286 -0.0353 -0.7057 -0.0690
   91MOL0     C11937   5.647   5.997   2.293  0.1973 -0.3498 -0.3164
   91MOL0     O11938   5.547   6.058   2.372 -0.2259 -0.3010  0.0863
   91MOL0     C11939   5.544   6.199   2.392 -0.4110  0.3078 -0.3539
   91MOL0     C11940   5.420   6.231   2.477  0.1972 -0.0341  0.5144
   91MOL0     C11941   5.281   6.198   2.418 -0.2760 -0.7514  0.3511
   91MOL0     C11942   5.201   6.323   2.385  0.1301  0.3601  0.0591
   91MOL0     C11943   5.078   6.289   2.308 -0.3761 -0.0950  0.1218
   91MOL0     C11944   4.977   6.260   2.256  0.3540 -0.2530  1.3800
   91MOL0     C11945   5.742   6.070   2.228 -0.2057  0.5552 -0.0281
   91MOL0     C11946   5.846   6.008   2.158 -0.9293  0.1403  0.1782
   91MOL0     H11947   6.037   5.743   1.792  0.0411 -2.9711  0.6308
   91MOL0     H11948   6.214   5.642   1.664 -1.4840  0.3543  0.0211
   91MOL0     H11949   6.427   5.668   1.554 -0.8974 -1.9680 -1.3575
   91MOL0     H11950   6.405   5.501   1.600  0.0247  0.4047 -0.6757
   91MOL0     H11951   6.679   5.627   1.581 -0.5729  1.2112  1.7849
   91MOL0     H11952   6.611   5.519   1.458  0.4563  2.5769 -0.3272
   91MOL0     H11953   6.601   5.342   1.642 -0.2170 -0.7107 -1.1059
   91MOL0     H11954   6.688   5.459   1.738 -2.0244 -1.8225  0.6858
   91MOL0     H11955   6.872   5.456   1.583 -0.5602  0.5429 -1.3455
   91MOL0     H11956   6.843   5.309   1.671  1.6448 -0.5441 -2.5735
   91MOL0     H11957   6.768   5.385   1.376 -0.8109 -1.5080 -0.6573
   91MOL0     H11958   6.720   5.231   1.449 -1.4204  1.5753 -1.1451
   91MOL0     H11959   6.918   5.182   1.315  2.1754 -1.2605  0.6532
   91MOL0     H11960   6.929   5.155   1.485  0.6240  0.8221 -0.5082
   91MOL0     H11961   7.040   5.426   1.394  1.9744  0.1544  0.4158
   91MOL0     H11962   7.086   5.318   1.529  1.2878 -0.6574 -0.1464
   91MOL0     H11963   7.146   5.308   1.233  0.3823 -2.2032 -0.6946
   91MOL0     H11964   7.162   5.159   1.332  2.4661 -0.4245 -0.5522
   91MOL0     H11965   7.297   5.527   1.319 -0.6907  1.2645  2.8503
   91MOL0     H11966   7.539   5.630   1.345 -1.6281 -0.8796 -1.1820
   91MOL0     H11967   7.664   5.509   1.400 -0.0451  0.1122  2.0477
   91MOL0     H11968   7.572   5.499   1.614  1.1697  0.5961  1.2560
   91MOL0     H11969   7.472   5.646   1.569 -0.1312 -0.8596  0.3892
   91MOL0     H11970   7.769   5.616   1.599 -1.3648 -1.1210  1.1470
   91MOL0     H11971   7.695   5.763   1.516 -1.4183 -0.9072 -1.2683
   91MOL0     H11972   7.743   5.765   1.786  0.2377 -0.3272  0.9617
   91MOL0     H11973   7.612   5.654   1.790  1.2280  1.0502  1.5418
   91MOL0     H11974   7.305   5.858   1.816 -0.4452 -1.0320  1.4540
   91MOL0     H11975   7.222   5.941   2.025  0.2557  1.7038  2.7211
   91MOL0     H11976   7.005   5.769   2.274  0.3848 -0.0993  1.2834
   91MOL0     H11977   6.820   5.787   2.437  2.7718 -4.3380  0.7788
   91MOL0     H11978   6.639   5.964   2.719 -1.5894 -1.3571 -0.0131
   91MOL0     H11979   6.670   5.843   2.593 -0.2326 -1.2072 -0.1019
   91MOL0     H11980   6.676   6.035   2.425  1.3559  1.7621  1.2778
   91MOL0     H11981   6.630   6.143   2.554 -0.8087 -0.2372  1.9515
   91MOL0     H11982   6.424   5.999   2.595 -0.2314 -0.7793  0.0475
   91MOL0     H11983   6.485   5.888   2.475 -2.4181  0.2664 -0.4855
   91MOL0     H11984   6.404   6.167   2.385 -4.1293  0.8067 -0.3133
   91MOL0     H11985   6.447   6.028   2.298  1.6132  1.6765  0.9767
   91MOL0     H11986   6.248   5.897   2.375 -3.0749  0.2838  1.5751
   91MOL0     H11987   6.209   6.050   2.297  1.9193  1.0316 -0.7836
   91MOL0     H11988   6.166   6.141   2.541 -1.4632 -0.9978  2.7616
   91MOL0     H11989   6.207   5.986   2.594 -0.5571  1.1203 -0.1134
   91MOL0     H11990   5.987   6.038   2.389  0.5586  1.3189 -0.1643
   91MOL0     H11991   6.009   5.884   2.481 -1.6375  0.1348  2.0494
   91MOL0     H11992   5.988   6.060   2.677  0.7660  3.1712 -0.6469
   91MOL0     H11993   5.825   6.009   2.602  0.6147 -0.4963  2.3925
   91MOL0     H11994   7.043   6.122   2.607  4.6698  1.5066 -2.9258
   91MOL0     H11995   7.196   6.107   2.449 -0.4228  0.6203  0.8320
   91MOL0     H11996   7.616   5.923   2.185  0.5377 -1.4561 -0.0405
   91MOL0     H11997   7.700   5.883   1.958  0.1626  3.0573 -1.8285
   91MOL0     H11998   6.489   5.753   1.978  1.0951 -1.5111 -1.6748
   91MOL0     H11999   6.317   5.894   2.077  0.0867  1.9062 -0.2281
   91MOL0     H12000   5.774   5.694   2.243 -1.7829  0.9355  2.0314
   91MOL0     H12001   5.598   5.789   2.344  2.1785 -4.2677 -1.8435
   91MOL0     H12002   5.534   6.258   2.301 -4.1205 -0.4140 -0.5909
   91MOL0     H12003   5.629   6.232   2.453 -1.6584  0.2950  1.4528
   91MOL0     H12004   5.423   6.190   2.578 -0.7699 -2.9263 -0.5097
   91MOL0     H12005   5.430   6.340   2.485 -1.0661  0.2206 -0.7895
   91MOL0     H12006   5.218   6.137   2.484 -2.4794  0.1436 -0.8078
   91MOL0     H12007   5.303   6.142   2.327  2.4098  3.5656 -2.0045
   91MOL0     H12008   5.169   6.372   2.477 -2.8730 -2.1068  0.4680
   91MOL0     H12009   5.267   6.394   2.335  1.7807 -0.7315  0.5953
   91MOL0     H12010   4.879   6.225   2.233 -0.5109  1.6329  2.0189
   91MOL0     H12011   5.750   6.177   2.210 -0.4383  0.9609  2.0771
   91MOL0     H12012   5.910   6.082   2.109 -1.4312  0.0668 -0.6037
   92MOL0     O12013   5.599   3.107   4.884 -0.6009 -0.0330  0.0343
   92MOL0     C12014   5.602   3.070   4.769  0.1801  0.6387  0.1059
   92MOL0     O12015   5.505   3.088   4.672 -0.0786  0.1370  0.3092
   92MOL0     C12016   5.388   3.150   4.718  1.0888  0.3867  0.5391
   92MOL0     C12017   5.366   3.286   4.722  0.7478 -0.2724  0.6981
   92MOL0     C12018   5.273   3.344   4.806  0.5360 -0.7096 -0.0136
   92MOL0     C12019   5.176   3.262   4.874 -1.1040 -0.2433  0.7788
   92MOL0     O12020   5.072   3.310   4.947 -0.0139  1.0252 -0.7889
   92MOL0     C12021   4.967   3.220   5.002  0.0805 -0.4116 -0.7189
   92MOL0     C12022   4.843   3.296   5.042  0.6364 -0.6867 -0.6527
   92MOL0     C12023   4.853   3.399   5.147 -0.1124 -0.0266  0.0977
   92MOL0     C12024   4.747   3.390   5.249  0.4545 -0.3300 -1.0316
   92MOL0     C12025   4.769   3.487   5.364  0.3844  0.3863 -0.0616
   92MOL0     C12026   4.723   3.632   5.323  0.0296 -0.3022 -0.3943
   92MOL0     C12027   4.712   3.718   5.461 -0.3592  0.0835 -0.4044
   92MOL0     C12028   4.839   3.791   5.483  0.8721  0.3366  0.0778
   92MOL0     N12029   4.825   3.862   5.607  0.5206  0.6733 -0.1144
   92MOL0     C12030   4.828   3.790   5.728  0.4871 -0.4635 -0.9965
   92MOL0     C12031   4.879   3.878   5.809 -0.0157  0.0954 -0.4895
   92MOL0     C12032   4.907   3.846   5.949  0.7223 -0.1280 -0.2340
   92MOL0     C12033   4.793   3.890   6.041 -0.1173  0.4095  0.5317
   92MOL0     C12034   4.816   3.995   6.148 -0.0455 -0.0151 -0.4581
   92MOL0     C12035   4.687   4.014   6.227 -0.3553 -1.2140 -0.2729
   92MOL0     O12036   4.666   3.898   6.316 -0.4949  0.5153  1.0439
   92MOL0     C12037   4.563   3.909   6.411 -0.1967  0.3378  0.4920
   92MOL0     C12038   4.451   3.993   6.418  0.1584  0.0970  0.7424
   92MOL0     C12039   4.360   3.994   6.532 -0.5302  0.0329  0.5079
   92MOL0     C12040   4.373   3.901   6.634  0.0992  0.7885 -0.3579
   92MOL0     C12041   4.278   3.901   6.744 -0.5953  0.1525  0.8682
   92MOL0     O12042   4.305   3.799   6.825  0.0778 -0.1755 -0.1853
   92MOL0     C12043   4.212   3.783   6.925 -0.6447 -0.3406  0.1666
   92MOL0     C12044   4.151   3.661   6.932  0.2425 -0.1830  0.9516
   92MOL0     C12045   4.075   3.615   7.038  0.6091 -0.0591 -0.0123
   92MOL0     C12046   4.041   3.702   7.136  0.1741 -0.6193 -0.5979
   92MOL0     O12047   3.939   3.676   7.224  0.0980 -0.2129  0.1377
   92MOL0     C12048   3.991   3.589   7.331  0.0966  0.5387 -1.2213
   92MOL0     C12049   3.909   3.614   7.458 -0.0264 -0.1948 -0.9101
   92MOL0     C12050   3.995   3.705   7.551  0.6213  0.3487 -0.0449
   92MOL0     C12051   4.028   3.849   7.502  0.1800 -0.3830  0.1437
   92MOL0     C12052   4.104   3.931   7.606  0.1094  0.0945 -0.7318
   92MOL0     C12053   4.245   3.897   7.628 -0.2840 -0.5257  1.4662
   92MOL0     C12054   4.328   4.002   7.706  0.4389  0.0206 -0.1715
   92MOL0     C12055   4.473   3.987   7.670 -0.3971 -0.1729 -1.1264
   92MOL0    Cl12056   4.581   4.107   7.753 -0.2278  0.3955  0.1958
   92MOL0     C12057   4.104   3.827   7.134  0.4334  0.4335  0.0017
   92MOL0     C12058   4.181   3.869   7.026  0.2012  0.0438  0.0475
   92MOL0     O12059   4.176   3.977   6.748 -0.7985 -0.0012  0.7118
   92MOL0     C12060   4.478   3.809   6.623  0.1601 -0.2132  0.7160
   92MOL0     C12061   4.568   3.813   6.512  0.8594  0.4215 -0.1632
   92MOL0     N12062   4.892   4.007   5.748 -0.4492 -0.5149 -0.2843
   92MOL0     N12063   4.856   3.987   5.630 -0.1143 -0.3927 -0.0670
   92MOL0     C12064   5.183   3.123   4.847  0.4037  0.4786 -0.4883
   92MOL0     C12065   5.286   3.068   4.770  0.0720 -0.3828 -0.2849
   92MOL0     C12066   5.714   2.973   4.740  0.3008  0.2817  0.9125
   92MOL0     C12067   5.802   2.930   4.837 -0.4189 -0.2087 -0.2513
   92MOL0     C12068   5.913   2.854   4.809  0.7204 -0.5732  0.1055
   92MOL0     C12069   5.932   2.796   4.689 -0.3883  0.0334  0.5898
   92MOL0     O12070   6.038   2.712   4.667  0.1602 -0.0459  0.6131
   92MOL0     C12071   6.008   2.582   4.685  0.1378 -0.0739  0.1672
   92MOL0     C12072   6.116   2.484   4.633 -0.2090  0.6920  0.3509
   92MOL0     C12073   6.242   2.484   4.722  0.5394  0.5455  0.5210
   92MOL0     C12074   6.208   2.425   4.863  0.1380 -0.3127  0.0350
   92MOL0     C12075   6.326   2.376   4.927 -0.3159  1.4709  0.4838
   92MOL0     C12076   6.432   2.335   4.979 -0.1445 -0.3512 -0.3795
   92MOL0     C12077   5.847   2.827   4.587  0.4016 -0.2027 -1.2639
   92MOL0     C12078   5.741   2.925   4.605  0.1859 -0.9368  0.1658
   92MOL0     H12079   5.437   3.349   4.669  1.4807 -0.4227  1.4791
   92MOL0     H12080   5.288   3.439   4.856  2.5696 -1.0316  0.0858
   92MOL0     H12081   5.003   3.164   5.089 -1.7099 -2.2473 -1.0762
   92MOL0     H12082   4.931   3.149   4.927  0.6561  0.0437 -1.4243
   92MOL0     H12083   4.765   3.230   5.081 -1.5537  2.0084 -0.1504
   92MOL0     H12084   4.800   3.339   4.951 -2.1449  0.2427  0.9763
   92MOL0     H12085   4.834   3.498   5.104 -0.1779  0.6867  1.7042
   92MOL0     H12086   4.953   3.414   5.189 -1.0657 -0.5581  2.7568
   92MOL0     H12087   4.646   3.408   5.211 -0.0927  1.9949  1.2160
   92MOL0     H12088   4.749   3.289   5.292 -0.7442  0.7116  1.6811
   92MOL0     H12089   4.877   3.492   5.379  0.2608  1.2317  0.6350
   92MOL0     H12090   4.718   3.454   5.455  0.9726  2.7887  1.2438
   92MOL0     H12091   4.625   3.633   5.273 -0.5358  0.9997  0.6620
   92MOL0     H12092   4.797   3.677   5.256  0.0114  0.0466 -0.1826
   92MOL0     H12093   4.630   3.788   5.445  0.0574  0.7782  0.3979
   92MOL0     H12094   4.663   3.653   5.534 -0.4801  2.0680  1.3637
   92MOL0     H12095   4.855   3.855   5.396 -0.8130 -1.0955 -1.3505
   92MOL0     H12096   4.914   3.712   5.492  2.6052  1.8655 -0.3425
   92MOL0     H12097   4.788   3.691   5.747 -0.9410  0.3283  0.4344
   92MOL0     H12098   4.998   3.901   5.975  0.6968  0.5913 -1.5774
   92MOL0     H12099   4.927   3.740   5.967 -1.8708 -0.7221 -0.5569
   92MOL0     H12100   4.764   3.796   6.089 -1.4209 -1.1208 -2.9277
   92MOL0     H12101   4.706   3.921   5.982  0.1272 -2.7413 -1.7326
   92MOL0     H12102   4.902   3.974   6.212  0.9365  0.1493 -1.6811
   92MOL0     H12103   4.839   4.089   6.097  2.4504 -0.1637  0.2579
   92MOL0     H12104   4.598   4.033   6.165 -0.1425  2.4749  0.2906
   92MOL0     H12105   4.699   4.105   6.287 -2.2767 -1.7980  1.1204
   92MOL0     H12106   4.431   4.062   6.336 -3.4386 -0.5142  0.9140
   92MOL0     H12107   4.274   4.062   6.531 -0.0606  0.7182 -1.9163
   92MOL0     H12108   4.169   3.592   6.850  0.6031 -1.1039  1.7924
   92MOL0     H12109   4.026   3.518   7.043 -1.4779  0.8796 -1.0703
   92MOL0     H12110   4.099   3.591   7.347  0.1345  0.6875 -1.4910
   92MOL0     H12111   3.969   3.494   7.284  1.5844  1.7652 -4.7006
   92MOL0     H12112   3.883   3.525   7.517  1.8744 -0.9129 -1.1007
   92MOL0     H12113   3.818   3.667   7.427 -0.2540  1.2222  1.8729
   92MOL0     H12114   4.091   3.658   7.576  0.9548  1.9374  1.8430
   92MOL0     H12115   3.944   3.720   7.646 -0.3590 -0.1780 -0.4653
   92MOL0     H12116   4.098   3.835   7.419  0.8063 -1.5781  0.8595
   92MOL0     H12117   3.933   3.894   7.471  0.3269  0.4748  0.9154
   92MOL0     H12118   4.049   3.931   7.701 -0.1070  0.7077 -0.8482
   92MOL0     H12119   4.097   4.037   7.580 -1.6602 -0.3514 -2.2170
   92MOL0     H12120   4.290   3.891   7.528 -2.5913 -0.5797  0.3660
   92MOL0     H12121   4.258   3.797   7.670 -0.5145 -1.4112 -0.4479
   92MOL0     H12122   4.306   4.108   7.688 -0.8924  0.1328  1.7621
   92MOL0     H12123   4.304   3.978   7.810  1.4968  1.3431  0.4134
   92MOL0     H12124   4.489   4.023   7.568  0.2860  0.4108 -0.8256
   92MOL0     H12125   4.507   3.884   7.685 -0.9332 -0.2104 -0.0746
   92MOL0     H12126   4.076   3.895   7.213 -0.1342  0.9530 -0.6308
   92MOL0     H12127   4.237   3.962   7.024 -0.1267  0.2304 -1.2087
   92MOL0     H12128   4.496   3.731   6.696  0.4275  0.0236  0.9049
   92MOL0     H12129   4.646   3.737   6.506 -1.2128 -1.8719  0.3522
   92MOL0     H12130   5.106   3.063   4.893  0.5489 -1.2287 -2.3178
   92MOL0     H12131   5.282   2.961   4.755 -1.3624 -0.1763 -1.6029
   92MOL0     H12132   5.805   2.969   4.938  0.9049  1.1812 -0.7838
   92MOL0     H12133   5.983   2.849   4.892  1.1891 -0.7767 -0.2985
   92MOL0     H12134   5.917   2.553   4.632 -1.0288  3.2799  0.0623
   92MOL0     H12135   5.980   2.572   4.790  2.7567  2.2767  1.1978
   92MOL0     H12136   6.068   2.386   4.625  1.9386 -0.4523  0.7574
   92MOL0     H12137   6.147   2.515   4.533  0.4853  1.5295  0.8149
   92MOL0     H12138   6.278   2.586   4.740  0.8550  0.2697  1.5066
   92MOL0     H12139   6.319   2.423   4.674  1.3344  1.1073  1.0498
   92MOL0     H12140   6.180   2.513   4.920  2.5738  1.1697 -0.8889
   92MOL0     H12141   6.131   2.349   4.878  0.0158 -0.5176 -1.4675
   92MOL0     H12142   6.520   2.298   5.028 -1.2370 -1.4030  0.8501
   92MOL0     H12143   5.872   2.785   4.490 -1.3327 -2.8364 -0.6769
   92MOL0     H12144   5.677   2.955   4.523 -1.4276  0.5437  1.8671
   93MOL0     O12145  10.235   8.385  10.921  0.1327 -0.2559  0.5195
   93MOL0     C12146  10.213   8.365  11.040 -0.0416 -0.5303  0.3557
   93MOL0     O12147  10.303   8.321  11.136 -0.0751  0.9545 -0.7225
   93MOL0     C12148  10.433   8.309  11.111  0.4213  0.7945  1.0879
   93MOL0     C12149  10.523   8.389  11.176  0.6828  0.2925 -0.5804
   93MOL0     C12150  10.658   8.376  11.146 -0.3352 -0.2798 -0.2772
   93MOL0     C12151  10.708   8.275  11.052  0.0158  0.3121 -0.3116
   93MOL0     O12152  10.843   8.283  11.020 -0.1664  0.4509 -0.6328
   93MOL0     C12153  10.894   8.181  10.927 -0.7014  0.5622  0.5022
   93MOL0     C12154  11.045   8.204  10.926  0.3589 -0.1882  0.4933
   93MOL0     C12155  11.110   8.154  11.048 -0.4428  0.1022 -0.0419
   93MOL0     C12156  11.261   8.197  11.053  0.0326  0.9150 -1.2881
   93MOL0     C12157  11.306   8.189  11.202  0.0143 -0.0409 -0.6924
   93MOL0     C12158  11.461   8.239  11.214 -0.3013  0.4723  0.2006
   93MOL0     C12159  11.495   8.221  11.361  0.5946 -0.2918  0.0723
   93MOL0     C12160  11.449   8.349  11.440 -0.5094  0.7570  0.2043
   93MOL0     N12161  11.565   8.427  11.462 -0.2528 -0.2721  0.2681
   93MOL0     C12162  11.621   8.504  11.367  0.3994 -0.0650  0.0228
   93MOL0     C12163  11.688   8.594  11.439 -0.2272  0.2445  0.3908
   93MOL0     C12164  11.753   8.718  11.383 -0.5531  0.4715  0.0574
   93MOL0     C12165  11.644   8.821  11.359 -0.2359  1.0696  0.6247
   93MOL0     C12166  11.711   8.957  11.318 -0.5214 -1.1714 -0.4097
   93MOL0     C12167  11.608   9.073  11.312  0.6902 -1.0083  0.5497
   93MOL0     O12168  11.509   9.039  11.218  0.3985  0.3151  0.3298
   93MOL0     C12169  11.398   9.122  11.237 -0.2292  0.6448  0.5292
   93MOL0     C12170  11.399   9.262  11.225 -0.8789  0.2671  0.2333
   93MOL0     C12171  11.287   9.338  11.260  0.0177  1.3013  0.5166
   93MOL0     C12172  11.164   9.277  11.311 -0.2715 -1.1972  0.6703
   93MOL0     C12173  11.051   9.368  11.346  0.0430  0.1455 -0.8930
   93MOL0     O12174  10.965   9.308  11.439 -0.2220 -0.3921 -0.8168
   93MOL0     C12175  10.866   9.387  11.505 -0.5510  0.9496 -0.5331
   93MOL0     C12176  10.859   9.390  11.649  0.1382  0.4103  0.1867
   93MOL0     C12177  10.751   9.451  11.710 -0.5464 -0.6419  0.0367
   93MOL0     C12178  10.648   9.515  11.647 -0.0438  0.0963  0.6779
   93MOL0     O12179  10.547   9.566  11.724  0.0936 -0.4995  0.6846
   93MOL0     C12180  10.453   9.655  11.668  0.4202  0.4853  0.8854
   93MOL0     C12181  10.371   9.695  11.790 -0.9135 -0.2513  0.1445
   93MOL0     C12182  10.249   9.779  11.743 -0.8314  0.1692  0.0305
   93MOL0     C12183  10.170   9.809  11.869  0.1687  0.8526  0.2852
   93MOL0     C12184  10.042   9.873  11.810  0.0287 -0.3455  0.1354
   93MOL0     C12185   9.946   9.904  11.928  0.2852  0.1747  0.1535
   93MOL0     C12186   9.808   9.946  11.887 -0.0070 -0.3747  0.9287
   93MOL0     C12187   9.763  10.066  11.969  0.0761 -0.0045  0.4888
   93MOL0    Cl12188   9.750  10.024  12.141 -0.2895  0.3257  0.3453
   93MOL0     C12189  10.660   9.523  11.502  0.0061 -0.1180  0.8228
   93MOL0     C12190  10.769   9.463  11.437 -0.0979  0.5722  0.9932
   93MOL0     O12191  11.037   9.486  11.305  0.1113 -0.2656  0.1943
   93MOL0     C12192  11.166   9.141  11.294 -0.1085 -0.0499 -0.5717
   93MOL0     C12193  11.275   9.062  11.278 -0.4525  0.2001  0.0003
   93MOL0     N12194  11.689   8.565  11.574 -0.2689 -0.4427  0.6099
   93MOL0     N12195  11.614   8.457  11.586  0.2130  0.3887 -0.8581
   93MOL0     C12196  10.616   8.197  10.991  0.1656  0.0323  0.1206
   93MOL0     C12197  10.485   8.203  11.025 -0.1178 -0.2752 -0.3559
   93MOL0     C12198  10.085   8.423  11.100 -0.0767  0.6203  0.3016
   93MOL0     C12199  10.040   8.391  11.230 -0.0608  0.3949  0.0909
   93MOL0     C12200   9.932   8.468  11.290  0.5463  0.6263 -0.5860
   93MOL0     C12201   9.859   8.560  11.212 -0.5599  1.0157 -0.3970
   93MOL0     O12202   9.737   8.598  11.267 -0.6586 -0.5652  0.4078
   93MOL0     C12203   9.647   8.674  11.200  1.1294 -0.6205 -0.0538
   93MOL0     C12204   9.535   8.727  11.294 -0.1825 -0.7784 -0.6489
   93MOL0     C12205   9.495   8.871  11.254 -0.0324  0.1741 -0.2704
   93MOL0     C12206   9.360   8.897  11.297 -0.5317 -0.5149 -0.6991
   93MOL0     C12207   9.348   8.886  11.449 -0.6894 -0.3518 -0.4342
   93MOL0     C12208   9.330   8.875  11.567 -0.6045 -0.0380 -1.6345
   93MOL0     C12209   9.900   8.581  11.086  0.0589 -0.8335  0.1044
   93MOL0     C12210  10.011   8.517  11.033  0.9319  0.6819 -0.5758
   93MOL0     H12211  10.484   8.464  11.244 -1.2771 -0.9714 -0.2561
   93MOL0     H12212  10.725   8.453  11.182  0.4005 -0.8551 -0.3972
   93MOL0     H12213  10.860   8.202  10.825  2.5163 -1.3878 -1.1595
   93MOL0     H12214  10.876   8.077  10.955 -5.0178  0.9639 -0.1257
   93MOL0     H12215  11.065   8.311  10.912  0.5291 -0.3682 -0.7270
   93MOL0     H12216  11.087   8.151  10.840 -1.6616  0.7090 -1.1222
   93MOL0     H12217  11.105   8.045  11.059  2.5965  0.0825  2.7459
   93MOL0     H12218  11.065   8.196  11.139 -1.1194 -0.3873 -0.1488
   93MOL0     H12219  11.320   8.124  10.996 -0.7665 -1.7360  1.0305
   93MOL0     H12220  11.283   8.293  11.007  1.3248  0.9658 -0.6109
   93MOL0     H12221  11.287   8.090  11.243 -1.6791 -0.3452 -2.0877
   93MOL0     H12222  11.238   8.259  11.253 -1.4899 -2.1010  0.2477
   93MOL0     H12223  11.467   8.343  11.182 -2.1840  0.4710 -0.2616
   93MOL0     H12224  11.536   8.188  11.154  0.2457  0.3810  0.9409
   93MOL0     H12225  11.446   8.134  11.408 -0.4464 -0.8181 -1.8532
   93MOL0     H12226  11.601   8.198  11.376 -0.3085 -3.2521  3.6092
   93MOL0     H12227  11.421   8.330  11.543 -0.3828 -4.1322 -0.4276
   93MOL0     H12228  11.372   8.400  11.382 -1.3853 -1.4826 -0.7339
   93MOL0     H12229  11.613   8.492  11.260 -1.1474 -1.2479  0.2367
   93MOL0     H12230  11.805   8.698  11.289 -1.4440 -1.4956 -0.0835
   93MOL0     H12231  11.824   8.759  11.456  0.3580 -3.6494  1.7936
   93MOL0     H12232  11.591   8.821  11.454  1.3590 -1.9730  1.6328
   93MOL0     H12233  11.579   8.784  11.280 -0.4081  0.9677  0.8162
   93MOL0     H12234  11.785   8.981  11.395  0.5848  1.0942 -2.0331
   93MOL0     H12235  11.773   8.946  11.228 -0.9726  0.3257 -0.9423
   93MOL0     H12236  11.666   9.161  11.285 -0.6301 -0.4515 -0.5759
   93MOL0     H12237  11.555   9.083  11.407 -0.0101  2.9434 -0.1122
   93MOL0     H12238  11.484   9.320  11.191 -0.1784  0.3839  2.0492
   93MOL0     H12239  11.283   9.446  11.246  1.5690  1.4229  0.7698
   93MOL0     H12240  10.923   9.335  11.717 -0.0613 -0.7601 -0.5414
   93MOL0     H12241  10.767   9.454  11.818 -1.3718  2.2059  0.1772
   93MOL0     H12242  10.389   9.603  11.596  2.6011 -0.8767 -0.1565
   93MOL0     H12243  10.483   9.747  11.617  0.5129 -0.1010 -0.1497
   93MOL0     H12244  10.427   9.764  11.853  0.4349  0.4680 -1.7492
   93MOL0     H12245  10.334   9.605  11.841 -3.9919  0.5185 -0.5247
   93MOL0     H12246  10.189   9.723  11.671  0.7157 -0.3612 -0.8858
   93MOL0     H12247  10.274   9.874  11.696 -0.0487  0.2590  0.6062
   93MOL0     H12248  10.153   9.714  11.920  5.2437 -0.7081 -0.3630
   93MOL0     H12249  10.215   9.878  11.940 -0.3680 -2.0266  3.7325
   93MOL0     H12250   9.985   9.807  11.744  0.1878  0.2280 -0.5949
   93MOL0     H12251  10.072   9.965  11.759  0.9596 -0.0858  1.1121
   93MOL0     H12252   9.988   9.974  12.001 -2.2091  0.8457  1.0274
   93MOL0     H12253   9.935   9.809  11.981 -0.8953 -0.4431 -1.1418
   93MOL0     H12254   9.817   9.966  11.780  1.7240 -0.1802  1.0840
   93MOL0     H12255   9.734   9.868  11.907  0.0538 -0.1226  2.2602
   93MOL0     H12256   9.666  10.107  11.938  0.6935  0.9827 -0.1932
   93MOL0     H12257   9.835  10.146  11.950  1.3772 -1.4363 -0.9298
   93MOL0     H12258  10.593   9.579  11.437  2.4165  0.3494 -1.4283
   93MOL0     H12259  10.778   9.470  11.329  0.7440 -0.6761  0.9593
   93MOL0     H12260  11.070   9.091  11.291 -1.3424  2.0313  1.3849
   93MOL0     H12261  11.262   8.954  11.277 -0.5562  0.2165 -0.6780
   93MOL0     H12262  10.654   8.106  10.945  1.5752 -0.7610  2.6518
   93MOL0     H12263  10.419   8.139  10.966 -3.2304  4.3087 -2.3730
   93MOL0     H12264  10.101   8.322  11.287 -0.8312  0.8813  1.5730
   93MOL0     H12265   9.911   8.457  11.396  2.7286  2.1855  0.0966
   93MOL0     H12266   9.601   8.624  11.114 -2.2382  0.5497  0.8760
   93MOL0     H12267   9.700   8.760  11.158  0.9536 -0.0756  0.8190
   93MOL0     H12268   9.451   8.657  11.283 -0.6837 -0.3527  0.3145
   93MOL0     H12269   9.557   8.730  11.401 -1.4246 -0.9648 -0.3722
   93MOL0     H12270   9.498   8.869  11.144  3.5018 -0.4574 -0.2928
   93MOL0     H12271   9.569   8.943  11.291  0.3504 -1.8682  3.4135
   93MOL0     H12272   9.332   8.999  11.269 -0.9892  1.1995  4.7860
   93MOL0     H12273   9.289   8.823  11.257  1.6791 -2.2050 -1.7036
   93MOL0     H12274   9.327   8.879  11.674  1.0067 -0.5108 -1.5364
   93MOL0     H12275   9.853   8.655  11.022  1.6283 -0.2414 -0.3956
   93MOL0     H12276  10.037   8.558  10.936  0.4369 -2.4338 -2.1470
   94MOL0     O12277  10.768   5.284   6.631  0.7476  0.0401  0.8007
   94MOL0     C12278  10.804   5.395   6.661 -0.7337  0.5573  0.3126
   94MOL0     O12279  10.727   5.508   6.676 -0.6336  0.3404  0.7341
   94MOL0     C12280  10.596   5.513   6.639 -0.4421 -0.2693  0.3166
   94MOL0     C12281  10.529   5.431   6.541 -0.0570 -0.0876 -0.1958
   94MOL0     C12282  10.403   5.471   6.496  0.3893 -0.1476 -0.4507
   94MOL0     C12283  10.343   5.592   6.536 -0.3835  0.3819  0.1194
   94MOL0     O12284  10.236   5.643   6.459  0.2119  1.0103 -0.1026
   94MOL0     C12285  10.170   5.767   6.488  0.2997 -1.1975  0.2534
   94MOL0     C12286  10.092   5.791   6.364  0.3535 -0.4783 -0.0222
   94MOL0     C12287   9.974   5.892   6.395  0.3999  0.7474  0.6900
   94MOL0     C12288   9.907   5.930   6.262 -0.4502 -0.3294 -0.3225
   94MOL0     C12289   9.792   5.829   6.224 -0.0295 -0.8652  0.3815
   94MOL0     C12290   9.718   5.873   6.097 -0.0574  0.0738  0.0433
   94MOL0     C12291   9.614   5.767   6.045 -0.3236  0.0853  0.1826
   94MOL0     C12292   9.506   5.839   5.966  0.4644  0.5875  0.2675
   94MOL0     N12293   9.389   5.745   5.949 -0.2752 -0.2607 -0.6184
   94MOL0     C12294   9.394   5.632   5.865 -0.3832  0.4370 -0.3486
   94MOL0     C12295   9.280   5.567   5.893  0.2222 -0.0411  0.1229
   94MOL0     C12296   9.279   5.420   5.848 -0.8509 -0.3241 -0.1420
   94MOL0     C12297   9.149   5.335   5.875 -0.2438 -0.2694  0.8433
   94MOL0     C12298   9.153   5.209   5.787 -0.1769 -0.1249  0.8982
   94MOL0     C12299   9.049   5.102   5.824 -0.0474 -0.9591  0.0744
   94MOL0     O12300   8.920   5.157   5.777 -0.0502 -0.7816 -0.5594
   94MOL0     C12301   8.806   5.085   5.795 -1.0958 -0.3519 -0.7133
   94MOL0     C12302   8.688   5.129   5.734  0.4017 -0.1727 -0.1942
   94MOL0     C12303   8.574   5.057   5.736  0.3401  0.0381  0.1596
   94MOL0     C12304   8.565   4.930   5.794 -0.0807  1.1646 -0.2329
   94MOL0     C12305   8.436   4.851   5.796  0.1653  0.1381 -0.0227
   94MOL0     O12306   8.433   4.724   5.830  0.4028  0.1403 -0.0803
   94MOL0     C12307   8.311   4.658   5.845 -0.9464  0.6344 -0.1900
   94MOL0     C12308   8.269   4.574   5.746  0.2793 -0.6123  0.2109
   94MOL0     C12309   8.163   4.485   5.760  0.0033 -0.0153 -0.1978
   94MOL0     C12310   8.092   4.490   5.881 -0.3599 -0.4286  0.2575
   94MOL0     O12311   7.978   4.415   5.911 -0.0335 -0.2932 -0.7781
   94MOL0     C12312   7.928   4.313   5.823  0.2207  0.0117 -0.4766
   94MOL0     C12313   7.795   4.251   5.870 -0.2986  0.4490  0.1030
   94MOL0     C12314   7.776   4.124   5.792 -0.7901  0.7419  0.0693
   94MOL0     C12315   7.647   4.054   5.860  0.6459 -1.0604 -0.2788
   94MOL0     C12316   7.611   3.931   5.783 -0.4205 -0.3752  0.0155
   94MOL0     C12317   7.479   3.884   5.846  0.9693  0.1386  0.4559
   94MOL0     C12318   7.419   3.755   5.770  1.2700 -0.8267 -0.3664
   94MOL0     C12319   7.337   3.678   5.875 -0.9335  0.2373 -0.3013
   94MOL0    Cl12320   7.199   3.758   5.949 -0.2128 -0.0706 -0.2549
   94MOL0     C12321   8.136   4.575   5.982 -0.4209  0.4683  0.2737
   94MOL0     C12322   8.249   4.664   5.964 -0.0018  0.2419 -0.0052
   94MOL0     O12323   8.336   4.927   5.789  0.3760  0.2424 -0.5519
   94MOL0     C12324   8.684   4.881   5.850 -0.1536  0.4443  1.2564
   94MOL0     C12325   8.802   4.959   5.860 -0.2688 -0.1674 -0.1410
   94MOL0     N12326   9.214   5.620   6.002  0.5419 -0.1069 -0.3021
   94MOL0     N12327   9.284   5.723   6.036  0.1378 -0.7172 -0.4349
   94MOL0     C12328  10.411   5.670   6.629  0.9757 -0.3922 -1.1445
   94MOL0     C12329  10.533   5.628   6.680  0.8898  0.4610  0.7352
   94MOL0     C12330  10.951   5.399   6.671  0.7860  0.0477  1.4196
   94MOL0     C12331  11.021   5.307   6.599 -0.3024  0.3923  0.1358
   94MOL0     C12332  11.161   5.300   6.623 -0.5260 -0.3714  0.9292
   94MOL0     C12333  11.228   5.382   6.713  0.1863  0.4830  0.2156
   94MOL0     O12334  11.362   5.394   6.733 -0.5110 -0.2247 -0.0498
   94MOL0     C12335  11.442   5.285   6.693  0.7279 -0.2774  0.9646
   94MOL0     C12336  11.584   5.283   6.747 -1.0860  0.1061  0.0466
   94MOL0     C12337  11.587   5.261   6.897  0.9374  1.0297  0.0532
   94MOL0     C12338  11.724   5.211   6.949 -0.2034  0.0852  0.0702
   94MOL0     C12339  11.720   5.141   7.076 -1.7597 -0.5244  0.6804
   94MOL0     C12340  11.716   5.073   7.173  0.2128  0.7301  0.0510
   94MOL0     C12341  11.147   5.484   6.771 -0.1706  0.4919  0.9282
   94MOL0     C12342  11.008   5.493   6.758 -0.2122 -0.2790  0.9787
   94MOL0     H12343  10.584   5.350   6.494  0.2441 -0.3775  0.6309
   94MOL0     H12344  10.347   5.411   6.425  2.8646 -3.9434  0.4828
   94MOL0     H12345  10.234   5.854   6.506 -0.2031  0.2898 -4.1323
   94MOL0     H12346  10.110   5.746   6.577  1.9788  1.0575  2.0437
   94MOL0     H12347  10.041   5.700   6.330  2.8960 -0.3433 -5.0358
   94MOL0     H12348  10.160   5.825   6.285  0.5794  2.1693  1.2218
   94MOL0     H12349  10.008   5.985   6.443 -1.5132  2.0513 -0.3520
   94MOL0     H12350   9.902   5.839   6.457  1.5789  0.6160  2.0002
   94MOL0     H12351   9.866   6.030   6.274  1.0686  0.1397  1.4552
   94MOL0     H12352   9.992   5.934   6.193  2.1832 -0.9259  2.6259
   94MOL0     H12353   9.714   5.823   6.301  0.2178  2.1686  0.9857
   94MOL0     H12354   9.834   5.729   6.211 -0.3284 -0.9632  0.1601
   94MOL0     H12355   9.789   5.912   6.022 -2.6000  0.6957 -2.1981
   94MOL0     H12356   9.655   5.956   6.131  0.3737 -0.0123  1.0825
   94MOL0     H12357   9.657   5.682   5.992 -4.6432 -2.4453  0.2053
   94MOL0     H12358   9.565   5.718   6.130 -3.0277  0.0835 -1.2469
   94MOL0     H12359   9.550   5.871   5.871  0.8092 -2.0196 -0.5347
   94MOL0     H12360   9.468   5.927   6.018  0.4782  1.2197 -0.7622
   94MOL0     H12361   9.470   5.602   5.794  0.5589  0.4729  0.6188
   94MOL0     H12362   9.362   5.371   5.898 -0.7782 -0.9423 -0.8408
   94MOL0     H12363   9.297   5.421   5.740  0.2094  0.0351  0.0280
   94MOL0     H12364   9.059   5.389   5.846 -0.0340 -0.1949  0.3150
   94MOL0     H12365   9.138   5.297   5.977 -0.8311 -2.4711  0.0099
   94MOL0     H12366   9.137   5.232   5.681  1.6066 -4.0396 -0.4038
   94MOL0     H12367   9.250   5.159   5.790 -0.8679 -1.5475  0.2498
   94MOL0     H12368   9.050   5.103   5.934 -0.1732 -0.3485  0.0718
   94MOL0     H12369   9.067   5.001   5.784  1.6827 -0.9391  0.7469
   94MOL0     H12370   8.682   5.229   5.693 -1.9966 -0.1051  0.2219
   94MOL0     H12371   8.483   5.101   5.696 -1.4682  1.1036  4.8144
   94MOL0     H12372   8.315   4.578   5.648  0.4436 -2.1100  0.2058
   94MOL0     H12373   8.125   4.424   5.679 -1.4512  0.5770  0.0106
   94MOL0     H12374   8.009   4.240   5.811  1.7305  0.9624  2.8226
   94MOL0     H12375   7.906   4.362   5.727 -3.1345  2.4231  1.3241
   94MOL0     H12376   7.712   4.316   5.842 -1.9017 -1.6067 -0.0912
   94MOL0     H12377   7.801   4.216   5.973 -6.6923  0.7525  0.9514
   94MOL0     H12378   7.865   4.061   5.790 -1.3884 -0.1805  1.0670
   94MOL0     H12379   7.746   4.147   5.690 -2.7490  0.4212  0.5264
   94MOL0     H12380   7.660   4.015   5.961  0.6130  0.0256  0.1637
   94MOL0     H12381   7.561   4.122   5.865  0.0044 -1.7770 -1.2957
   94MOL0     H12382   7.682   3.848   5.777 -1.6722 -1.3894 -4.5658
   94MOL0     H12383   7.597   3.966   5.680 -2.4623  0.2720  0.4652
   94MOL0     H12384   7.410   3.969   5.837  1.3268  0.2594 -1.6327
   94MOL0     H12385   7.487   3.865   5.953 -1.8138 -0.9814  0.5516
   94MOL0     H12386   7.347   3.781   5.691  0.2251 -1.4408  0.3638
   94MOL0     H12387   7.505   3.696   5.736  1.5904 -0.3163 -0.4555
   94MOL0     H12388   7.413   3.656   5.951  0.7320  3.2924 -0.9248
   94MOL0     H12389   7.293   3.587   5.833 -3.0158 -0.5143  3.1135
   94MOL0     H12390   8.075   4.582   6.071 -0.4710 -2.9208  0.6149
   94MOL0     H12391   8.276   4.745   6.030 -0.3372 -1.1446  1.9340
   94MOL0     H12392   8.687   4.781   5.894 -1.4853  0.6076  1.7672
   94MOL0     H12393   8.886   4.906   5.904  0.3750  1.5858  0.8072
   94MOL0     H12394  10.370   5.769   6.645  0.3800 -0.2072 -3.5413
   94MOL0     H12395  10.583   5.698   6.746  1.2355  2.1311 -1.1822
   94MOL0     H12396  10.975   5.240   6.526 -0.3047 -0.1348  0.6169
   94MOL0     H12397  11.220   5.238   6.556  0.1383  0.7120  0.4912
   94MOL0     H12398  11.454   5.274   6.585  2.5762 -0.4164  1.1499
   94MOL0     H12399  11.400   5.185   6.713  1.9626 -1.1484 -0.6040
   94MOL0     H12400  11.627   5.191   6.704 -0.3331  0.2391  0.4931
   94MOL0     H12401  11.650   5.363   6.714 -0.2302 -0.7829 -0.4566
   94MOL0     H12402  11.513   5.185   6.927  1.5111 -0.5565 -2.2664
   94MOL0     H12403  11.564   5.354   6.949 -0.0111  0.6007  0.4336
   94MOL0     H12404  11.771   5.142   6.878  1.2396 -1.0203  1.9866
   94MOL0     H12405  11.787   5.300   6.950 -1.0622  0.7026  0.3630
   94MOL0     H12406  11.699   5.003   7.253  0.8536  0.5579  0.0434
   94MOL0     H12407  11.208   5.561   6.817 -0.5942  1.4667 -0.0811
   94MOL0     H12408  10.950   5.556   6.825 -0.4726  0.0252  0.4734
   95MOL0     O12409   9.506  10.692   6.239  0.2060  0.8413 -0.4442
   95MOL0     C12410   9.467  10.793   6.183  0.3858 -0.1132  0.8486
   95MOL0     O12411   9.338  10.834   6.175 -0.3786 -0.2547 -0.4473
   95MOL0     C12412   9.244  10.770   6.252  0.5003 -0.8326 -0.1186
   95MOL0     C12413   9.128  10.744   6.178  0.1805 -1.8728 -0.8397
   95MOL0     C12414   9.011  10.683   6.226 -0.0422  0.2147  0.6522
   95MOL0     C12415   9.018  10.637   6.357  0.4049 -0.1674  0.4440
   95MOL0     O12416   8.905  10.592   6.421  0.1214 -0.2287  0.1557
   95MOL0     C12417   8.818  10.505   6.342  0.5625 -0.5180 -0.8280
   95MOL0     C12418   8.723  10.411   6.426 -0.1476 -0.5909  0.2875
   95MOL0     C12419   8.583  10.392   6.362 -0.7540  0.6008 -0.8300
   95MOL0     C12420   8.597  10.315   6.233  1.5907  0.5172  0.6319
   95MOL0     C12421   8.460  10.286   6.176 -0.2544 -0.5895  0.5720
   95MOL0     C12422   8.466  10.223   6.031  0.3630 -0.6051 -0.1952
   95MOL0     C12423   8.325  10.199   5.986 -0.5248  0.2927  0.4109
   95MOL0     C12424   8.314  10.206   5.837 -0.0851  0.6402  0.1833
   95MOL0     N12425   8.171  10.184   5.794  0.3263 -0.3392 -0.3630
   95MOL0     C12426   8.105  10.056   5.783  0.0205  0.2371 -0.0036
   95MOL0     C12427   7.976  10.094   5.736 -0.0658  0.1806  0.1926
   95MOL0     C12428   7.863  10.013   5.686  0.9895 -0.9508  0.4726
   95MOL0     C12429   7.852   9.875   5.746 -0.4599  0.1915 -0.0151
   95MOL0     C12430   7.733   9.805   5.679  0.7777 -0.1048 -0.4724
   95MOL0     C12431   7.702   9.664   5.741  0.2435 -0.3752 -0.6460
   95MOL0     O12432   7.675   9.667   5.884 -0.0696  0.4342  0.3187
   95MOL0     C12433   7.537   9.651   5.930  0.2097 -1.1376  0.1083
   95MOL0     C12434   7.506   9.591   6.049 -0.1853 -0.2019 -0.0907
   95MOL0     C12435   7.374   9.563   6.083 -0.0834  0.4376  0.2063
   95MOL0     C12436   7.269   9.603   6.003  0.8509  0.0631  0.6747
   95MOL0     C12437   7.126   9.583   6.053  0.3191  0.7108  0.1748
   95MOL0     O12438   7.111   9.516   6.172  0.4853 -0.2716  0.1405
   95MOL0     C12439   6.987   9.492   6.225 -0.3999  0.2561 -0.0014
   95MOL0     C12440   6.972   9.370   6.287  0.4882 -0.0216  0.5787
   95MOL0     C12441   6.851   9.338   6.351 -0.8455  0.3142 -0.0580
   95MOL0     C12442   6.748   9.426   6.361  0.4598  0.0409  0.1649
   95MOL0     O12443   6.630   9.407   6.428 -0.1460  0.5479 -0.4356
   95MOL0     C12444   6.625   9.294   6.527  0.0749  0.2407 -0.0953
   95MOL0     C12445   6.503   9.301   6.622 -0.4660  0.1013  0.6122
   95MOL0     C12446   6.361   9.298   6.582 -0.1405 -0.7834  0.4730
   95MOL0     C12447   6.251   9.311   6.696 -0.5301 -0.7275  0.2087
   95MOL0     C12448   6.106   9.302   6.659 -0.4326  0.7754 -0.2442
   95MOL0     C12449   6.012   9.291   6.781  0.2896 -0.3073 -0.2115
   95MOL0     C12450   5.853   9.281   6.745 -0.6965  0.2819 -0.4780
   95MOL0     C12451   5.818   9.168   6.652 -0.8608  0.0676 -0.6573
   95MOL0    Cl12452   5.647   9.166   6.609 -0.0749 -0.3015  0.4334
   95MOL0     C12453   6.759   9.553   6.292 -0.3612 -0.2483  0.2211
   95MOL0     C12454   6.885   9.591   6.235 -1.3042  0.3325 -0.6149
   95MOL0     O12455   7.036   9.605   5.978  0.3572  0.7463  0.0876
   95MOL0     C12456   7.292   9.662   5.883  0.0449 -0.4411  0.1914
   95MOL0     C12457   7.426   9.679   5.841  0.7457  0.0258  0.8698
   95MOL0     N12458   7.963  10.229   5.719 -0.4910  0.2977 -0.1285
   95MOL0     N12459   8.080  10.275   5.748 -0.6770  0.3925 -0.7704
   95MOL0     C12460   9.139  10.670   6.432 -0.1080 -0.3543 -0.1967
   95MOL0     C12461   9.247  10.738   6.381  0.5578  0.9315  0.7036
   95MOL0     C12462   9.566  10.876   6.109 -0.6915  0.2126  0.8945
   95MOL0     C12463   9.532  11.005   6.073 -0.6660 -0.7593 -1.2341
   95MOL0     C12464   9.634  11.085   6.007  0.2121  0.2966 -0.6667
   95MOL0     C12465   9.757  11.032   5.976 -0.6080  0.8774  0.0470
   95MOL0     O12466   9.858  11.095   5.908  0.3398 -0.3672  0.5111
   95MOL0     C12467   9.816  11.189   5.808  0.5873  0.5901  0.2958
   95MOL0     C12468   9.950  11.225   5.733 -0.3726 -0.0530 -0.2587
   95MOL0     C12469   9.945  11.168   5.587  0.5586 -0.3104  0.3607
   95MOL0     C12470  10.067  11.169   5.515 -0.0071 -0.6357  0.2468
   95MOL0     C12471  10.062  11.092   5.388 -0.7561  0.4104  0.7021
   95MOL0     C12472  10.057  11.017   5.289  0.4732 -1.3930  0.7654
   95MOL0     C12473   9.788  10.905   6.022 -0.2215 -0.4496 -0.2717
   95MOL0     C12474   9.695  10.822   6.087 -0.7074 -1.0993  0.3166
   95MOL0     H12475   9.100  10.801   6.089 -2.3375  2.1118  2.1299
   95MOL0     H12476   8.926  10.673   6.160 -0.2551 -1.7820  1.1579
   95MOL0     H12477   8.864  10.454   6.257 -1.4613  0.2132 -2.4551
   95MOL0     H12478   8.752  10.576   6.291  0.8344 -0.2477 -0.8064
   95MOL0     H12479   8.700  10.455   6.523  3.1983  1.4342  0.3198
   95MOL0     H12480   8.782  10.323   6.454 -0.6854 -1.4836 -1.2375
   95MOL0     H12481   8.549  10.496   6.351  0.8229  1.2794  0.3301
   95MOL0     H12482   8.512  10.342   6.429 -1.4071  0.2468 -1.7638
   95MOL0     H12483   8.658  10.373   6.162  0.5493 -0.9252 -1.5301
   95MOL0     H12484   8.642  10.217   6.252 -2.5157 -1.4313  1.4264
   95MOL0     H12485   8.417  10.387   6.170  1.7745  0.3820  1.1432
   95MOL0     H12486   8.395  10.235   6.246 -0.8836  0.9419  1.1527
   95MOL0     H12487   8.526  10.132   6.037  2.3906  0.7559  2.8022
   95MOL0     H12488   8.533  10.284   5.969 -1.5949  4.2987  1.9215
   95MOL0     H12489   8.284  10.101   6.010 -0.5139 -0.6137 -2.7443
   95MOL0     H12490   8.255  10.278   6.013 -1.7303  0.3002 -2.3547
   95MOL0     H12491   8.373  10.132   5.783 -3.1681 -0.8688 -1.3400
   95MOL0     H12492   8.348  10.305   5.804  1.7314 -0.5003 -1.5906
   95MOL0     H12493   8.140   9.956   5.805  1.1758  0.2848 -1.4708
   95MOL0     H12494   7.882  10.011   5.579 -1.4399  0.7347 -0.0631
   95MOL0     H12495   7.768  10.064   5.703 -0.6829 -2.8773 -2.3162
   95MOL0     H12496   7.834   9.885   5.853  0.6347 -0.3946  0.2455
   95MOL0     H12497   7.935   9.805   5.732 -1.5438 -1.3015  0.9164
   95MOL0     H12498   7.647   9.870   5.700  0.4258 -0.6821 -0.1032
   95MOL0     H12499   7.745   9.786   5.572 -0.2914 -1.3467 -0.3967
   95MOL0     H12500   7.793   9.606   5.724  0.7325  0.8326 -2.4441
   95MOL0     H12501   7.620   9.619   5.684  1.1950  0.8790 -3.1734
   95MOL0     H12502   7.576   9.559   6.126 -1.6850 -0.9391  1.0174
   95MOL0     H12503   7.360   9.517   6.180  2.9943 -2.1523 -0.4121
   95MOL0     H12504   7.051   9.296   6.272  1.0505  0.6453  0.1671
   95MOL0     H12505   6.846   9.244   6.405  0.1416  0.1544 -0.2170
   95MOL0     H12506   6.699   9.294   6.608 -1.8860  0.7499  1.7913
   95MOL0     H12507   6.630   9.195   6.480 -0.5454 -0.5298  1.4115
   95MOL0     H12508   6.509   9.404   6.658  1.7684  0.0133  0.6533
   95MOL0     H12509   6.520   9.229   6.703 -0.6304  0.8861  1.3551
   95MOL0     H12510   6.326   9.211   6.525 -3.3577  1.7614 -1.9008
   95MOL0     H12511   6.347   9.382   6.513 -0.9682  0.4633  2.0811
   95MOL0     H12512   6.270   9.250   6.785  1.3178 -0.1672  0.2451
   95MOL0     H12513   6.262   9.417   6.724  0.9597 -1.0110  0.8345
   95MOL0     H12514   6.098   9.213   6.597  3.4557 -0.2727  0.5126
   95MOL0     H12515   6.079   9.387   6.596 -0.7700  1.9348  1.3827
   95MOL0     H12516   6.029   9.367   6.857 -0.3753 -2.6320  2.4012
   95MOL0     H12517   6.038   9.197   6.830  0.8066 -0.0996 -0.0897
   95MOL0     H12518   5.798   9.275   6.839  1.6210  3.4007  1.3063
   95MOL0     H12519   5.831   9.374   6.692  0.9341 -0.9281 -3.4892
   95MOL0     H12520   5.854   9.074   6.695 -0.9033  0.8339  1.1449
   95MOL0     H12521   5.872   9.198   6.562 -0.1817  1.7922  0.2619
   95MOL0     H12522   6.676   9.622   6.287  1.8390  2.4344 -2.6425
   95MOL0     H12523   6.902   9.688   6.191 -0.4293  0.2134 -0.5705
   95MOL0     H12524   7.209   9.684   5.816  0.4041 -0.8426 -0.3975
   95MOL0     H12525   7.448   9.713   5.741 -0.3659 -0.5395  0.4199
   95MOL0     H12526   9.157  10.629   6.531  3.4518 -3.6998 -1.9475
   95MOL0     H12527   9.333  10.771   6.439  0.8311  0.1609  0.7404
   95MOL0     H12528   9.435  11.046   6.101 -0.1572 -0.5389  0.3001
   95MOL0     H12529   9.619  11.191   5.989  2.5333  0.9843  0.9403
   95MOL0     H12530   9.772  11.279   5.851 -0.5248 -1.0309  2.7276
   95MOL0     H12531   9.737  11.151   5.742  1.1726 -1.0807  0.5197
   95MOL0     H12532   9.949  11.335   5.725 -1.6444 -0.0956 -0.9211
   95MOL0     H12533  10.037  11.189   5.788 -1.6596  0.1988  2.1059
   95MOL0     H12534   9.871  11.207   5.516  0.4366 -0.4499  0.4094
   95MOL0     H12535   9.932  11.061   5.605  4.4224 -0.7289  1.6951
   95MOL0     H12536  10.094  11.272   5.490 -1.4580 -0.6062 -1.4326
   95MOL0     H12537  10.140  11.134   5.589 -1.2423 -0.6565  1.4840
   95MOL0     H12538  10.044  10.941   5.215  0.8423  1.4219 -2.4844
   95MOL0     H12539   9.887  10.867   5.999  0.1730  0.2765  0.1788
   95MOL0     H12540   9.743  10.729   6.116  4.7422  1.9686  2.6619
   96MOL0     O12541   2.848  10.836   8.662  0.6688 -0.3837  0.0820
   96MOL0     C12542   2.781  10.786   8.567 -0.3486 -0.7201 -0.6637
   96MOL0     O12543   2.822  10.694   8.473 -0.4683  0.0467 -0.2919
   96MOL0     C12544   2.957  10.671   8.476 -0.7753 -0.3219 -0.1575
   96MOL0     C12545   3.046  10.789   8.462 -0.4627  0.1973 -0.6269
   96MOL0     C12546   3.179  10.768   8.442 -1.0228  0.5086  0.9067
   96MOL0     C12547   3.241  10.640   8.440  0.2812  0.1740 -0.2760
   96MOL0     O12548   3.372  10.610   8.425 -0.0789 -0.4855 -0.0278
   96MOL0     C12549   3.456  10.692   8.505  0.0423  0.5620  1.3089
   96MOL0     C12550   3.597  10.639   8.526  0.3079  1.0596 -0.9103
   96MOL0     C12551   3.705  10.745   8.526  0.3880  0.0088  0.4296
   96MOL0     C12552   3.827  10.702   8.601 -0.6345  0.1584  0.1916
   96MOL0     C12553   3.938  10.799   8.583 -0.4150  0.3999  0.6267
   96MOL0     C12554   4.044  10.757   8.686 -0.9385 -0.0442 -0.5009
   96MOL0     C12555   4.189  10.810   8.667  0.1735 -0.4164 -0.1800
   96MOL0     C12556   4.276  10.747   8.560 -0.1716  0.3889 -0.0887
   96MOL0     N12557   4.382  10.645   8.596 -0.2108  0.3542 -0.8307
   96MOL0     C12558   4.512  10.673   8.620 -0.1939 -0.2415  0.7267
   96MOL0     C12559   4.571  10.557   8.639 -0.6552  0.9577  0.8312
   96MOL0     C12560   4.713  10.522   8.672  0.6352 -0.2851  0.2608
   96MOL0     C12561   4.813  10.568   8.559  0.8169  0.0316 -0.5795
   96MOL0     C12562   4.960  10.593   8.614  0.2162 -0.9855 -0.6225
   96MOL0     C12563   5.060  10.563   8.503  1.1559 -0.6941 -0.5616
   96MOL0     O12564   5.187  10.634   8.526  0.9329  0.6315  0.5909
   96MOL0     C12565   5.259  10.642   8.414 -0.8760  0.7173 -0.2182
   96MOL0     C12566   5.276  10.545   8.316 -0.2523 -0.3583  0.0268
   96MOL0     C12567   5.354  10.583   8.207  0.2766 -0.7154  0.0586
   96MOL0     C12568   5.422  10.697   8.193 -0.0304 -0.2884  0.0886
   96MOL0     C12569   5.499  10.737   8.072  0.3776 -0.0400 -0.4418
   96MOL0     O12570   5.572  10.857   8.087 -0.3489  0.6061 -0.0704
   96MOL0     C12571   5.654  10.902   7.987  0.8850  0.1961 -1.1137
   96MOL0     C12572   5.632  10.882   7.859  0.5904 -0.4461  0.4896
   96MOL0     C12573   5.726  10.906   7.757  0.1091  0.5451  0.0843
   96MOL0     C12574   5.850  10.946   7.793 -0.0697 -0.3318 -0.8838
   96MOL0     O12575   5.952  10.965   7.701  0.4075 -0.1447  0.3597
   96MOL0     C12576   5.996  11.098   7.686 -0.4538 -0.3575 -0.4108
   96MOL0     C12577   5.939  11.160   7.565 -0.0527 -0.1957  0.2394
   96MOL0     C12578   6.030  11.134   7.446 -0.2249 -0.5118 -0.0656
   96MOL0     C12579   5.961  11.155   7.307 -0.1101 -0.1236  0.1647
   96MOL0     C12580   6.043  11.227   7.201  0.1296  0.0133  0.1587
   96MOL0     C12581   6.066  11.372   7.255 -0.2273 -0.0548  0.2519
   96MOL0     C12582   6.138  11.470   7.159  0.8442  0.5879  0.0284
   96MOL0     C12583   6.208  11.599   7.211 -0.0588 -0.4138  0.2487
   96MOL0    Cl12584   6.088  11.677   7.318 -0.1056  0.0316 -0.2587
   96MOL0     C12585   5.873  10.981   7.932  0.8691 -0.5438  0.6575
   96MOL0     C12586   5.778  10.954   8.026  0.4168  0.3345  0.1386
   96MOL0     O12587   5.497  10.661   7.978  0.3699  0.0211  0.2099
   96MOL0     C12588   5.421  10.780   8.304  0.4025  0.0367  0.6986
   96MOL0     C12589   5.339  10.753   8.413  0.8565 -0.1211  0.9698
   96MOL0     N12590   4.473  10.456   8.631 -0.7821  0.4187 -0.6930
   96MOL0     N12591   4.359  10.510   8.612 -0.2451 -0.5259  0.5613
   96MOL0     C12592   3.156  10.532   8.460 -0.5898 -0.4851  1.5288
   96MOL0     C12593   3.021  10.546   8.469 -0.6430 -0.9187  1.0526
   96MOL0     C12594   2.633  10.816   8.565 -1.1154  0.0657 -0.0848
   96MOL0     C12595   2.576  10.895   8.667 -1.3807 -0.9151  0.5733
   96MOL0     C12596   2.447  10.945   8.651  0.2058 -0.0756 -0.0329
   96MOL0     C12597   2.361  10.886   8.559 -0.3546 -0.4782 -0.6763
   96MOL0     O12598   2.228  10.913   8.570 -0.3312 -0.1623 -0.7373
   96MOL0     C12599   2.122  10.856   8.493  1.1041 -0.0766  0.7111
   96MOL0     C12600   2.001  10.850   8.577  0.6630  0.2294  0.1508
   96MOL0     C12601   1.888  10.781   8.510  0.2578 -0.2240  1.0038
   96MOL0     C12602   1.802  10.874   8.415  0.4738 -0.2516 -0.0246
   96MOL0     C12603   1.723  10.803   8.328  0.1243  0.7491  0.2038
   96MOL0     C12604   1.665  10.739   8.241 -0.6094 -0.9378  0.4003
   96MOL0     C12605   2.408  10.802   8.460 -0.3128  0.3997 -0.7168
   96MOL0     C12606   2.551  10.780   8.459 -1.0272  0.0984 -0.3593
   96MOL0     H12607   3.002  10.888   8.463 -0.6946  0.1168 -1.8632
   96MOL0     H12608   3.232  10.854   8.402  1.6299 -0.9497  1.0900
   96MOL0     H12609   3.414  10.714   8.603 -1.7607  5.6037 -0.2940
   96MOL0     H12610   3.466  10.790   8.458  4.0823 -0.3613 -0.2162
   96MOL0     H12611   3.610  10.559   8.453  3.1465 -0.6129  1.2289
   96MOL0     H12612   3.600  10.591   8.625 -0.1321 -4.0072 -3.0407
   96MOL0     H12613   3.663  10.837   8.566 -2.8168 -1.0953 -0.1510
   96MOL0     H12614   3.731  10.762   8.421  0.5352  0.3191  0.5173
   96MOL0     H12615   3.786  10.702   8.703 -1.6224  2.3208 -0.1441
   96MOL0     H12616   3.863  10.602   8.574 -0.5423 -0.0752  1.1444
   96MOL0     H12617   3.897  10.899   8.594 -2.2346 -0.1069 -0.9474
   96MOL0     H12618   3.979  10.789   8.482  0.4346 -4.1015  1.1902
   96MOL0     H12619   4.045  10.647   8.689  1.8593 -0.1165  2.6725
   96MOL0     H12620   4.012  10.785   8.786  1.5983 -1.2739  0.7589
   96MOL0     H12621   4.187  10.919   8.660 -3.8962 -0.1942  1.8236
   96MOL0     H12622   4.237  10.792   8.764 -1.1751 -1.1882  0.3779
   96MOL0     H12623   4.316  10.827   8.496 -3.4424  1.6860 -0.6879
   96MOL0     H12624   4.211  10.686   8.497  1.2859 -0.9215 -0.4069
   96MOL0     H12625   4.558  10.771   8.626 -1.2801  0.4278 -1.0558
   96MOL0     H12626   4.727  10.415   8.693  0.1699 -0.2934  0.5544
   96MOL0     H12627   4.738  10.591   8.753  1.6533  1.2424 -1.2825
   96MOL0     H12628   4.784  10.662   8.511  0.6737  0.0189 -0.5162
   96MOL0     H12629   4.820  10.486   8.487 -0.6397 -0.4846 -0.1599
   96MOL0     H12630   4.970  10.697   8.647  2.1785 -0.6134 -2.2118
   96MOL0     H12631   4.987  10.524   8.696 -1.7716  2.6809  3.5519
   96MOL0     H12632   5.017  10.600   8.409  0.4339  1.0283  0.4069
   96MOL0     H12633   5.082  10.456   8.500  3.7490 -0.2945  1.2969
   96MOL0     H12634   5.231  10.446   8.316  0.5537 -0.7366  0.1143
   96MOL0     H12635   5.374  10.503   8.135  1.9361  0.5696 -0.9759
   96MOL0     H12636   5.528  10.873   7.830  0.4888  1.4174  0.1092
   96MOL0     H12637   5.682  10.899   7.658 -4.2313 -0.3181  1.8229
   96MOL0     H12638   6.105  11.103   7.681 -0.3793  0.1659  1.1097
   96MOL0     H12639   5.976  11.164   7.771 -1.4814 -3.3817  1.9106
   96MOL0     H12640   5.929  11.265   7.593 -1.5844 -0.9743  3.0023
   96MOL0     H12641   5.838  11.124   7.543  0.5285 -1.3100 -0.7249
   96MOL0     H12642   6.062  11.030   7.454  0.8297 -0.0941  1.5105
   96MOL0     H12643   6.119  11.197   7.455 -1.8030  1.6978  1.3528
   96MOL0     H12644   5.925  11.064   7.259  0.9089 -0.2365 -0.4015
   96MOL0     H12645   5.869  11.213   7.320 -1.1394 -1.3664 -1.2447
   96MOL0     H12646   5.989  11.219   7.106 -0.1198 -0.4138  0.3343
   96MOL0     H12647   6.131  11.167   7.177 -0.6126 -0.9352 -0.2451
   96MOL0     H12648   6.120  11.377   7.350  1.0541  2.1824 -0.5052
   96MOL0     H12649   5.971  11.418   7.283  1.5032  4.2618 -0.0643
   96MOL0     H12650   6.214  11.421   7.098  0.1898  1.8947 -1.9646
   96MOL0     H12651   6.068  11.517   7.089  0.7820 -0.2797 -0.5043
   96MOL0     H12652   6.233  11.656   7.121  2.0829  0.4621  1.3276
   96MOL0     H12653   6.294  11.576   7.274  0.4068  2.7393  0.9679
   96MOL0     H12654   5.969  11.010   7.973  1.4940 -3.8658  1.9080
   96MOL0     H12655   5.800  10.977   8.130 -0.3800  0.0066  0.3939
   96MOL0     H12656   5.485  10.868   8.312 -1.5617  1.4282  1.8699
   96MOL0     H12657   5.334  10.830   8.489 -3.9511  0.8541  0.0040
   96MOL0     H12658   3.193  10.430   8.456 -3.3902 -1.5911  1.9525
   96MOL0     H12659   2.967  10.453   8.486 -1.4638 -0.2782  2.0890
   96MOL0     H12660   2.639  10.920   8.751 -0.2273 -3.3816  0.5266
   96MOL0     H12661   2.399  11.020   8.713 -1.0055 -0.7372 -0.1236
   96MOL0     H12662   2.152  10.757   8.460  0.8834 -0.6392  2.1531
   96MOL0     H12663   2.106  10.919   8.404  0.8687 -1.8746 -0.5592
   96MOL0     H12664   2.021  10.787   8.664  1.2566  1.3747  0.8756
   96MOL0     H12665   1.971  10.949   8.614 -3.0235  1.2300 -4.5544
   96MOL0     H12666   1.826  10.737   8.589 -1.2646  0.4235  0.2138
   96MOL0     H12667   1.920  10.694   8.452  1.2830  1.2593 -0.7435
   96MOL0     H12668   1.740  10.943   8.473 -0.2506  0.4537 -1.5793
   96MOL0     H12669   1.878  10.937   8.368  0.7108 -0.8375 -0.4509
   96MOL0     H12670   1.629  10.684   8.156  0.9125  0.3468 -1.1663
   96MOL0     H12671   2.348  10.762   8.380 -0.7547  0.1270 -0.2539
   96MOL0     H12672   2.589  10.728   8.371  0.0981 -0.0271  0.1836
   97MOL0     O12673  10.029   8.420   5.374 -0.1324  0.6470  1.6579
   97MOL0     C12674  10.069   8.323   5.313 -0.1524 -0.7470 -0.1212
   97MOL0     O12675   9.990   8.234   5.249 -0.1065  0.6835  0.2599
   97MOL0     C12676   9.859   8.251   5.261 -0.1445 -0.2952  0.9949
   97MOL0     C12677   9.777   8.150   5.307  0.0328  1.2362  0.1676
   97MOL0     C12678   9.643   8.170   5.329 -0.5398 -0.0536 -1.0825
   97MOL0     C12679   9.579   8.284   5.290 -0.0162 -0.5128 -0.9200
   97MOL0     O12680   9.444   8.301   5.313  0.3488 -0.3483 -0.1092
   97MOL0     C12681   9.364   8.267   5.205  0.1859  0.0940  0.4598
   97MOL0     C12682   9.223   8.281   5.243 -0.1953  0.3810  0.8096
   97MOL0     C12683   9.139   8.246   5.117 -0.2518 -0.4193 -0.3102
   97MOL0     C12684   8.994   8.296   5.131 -1.3266  0.5473 -0.3630
   97MOL0     C12685   8.985   8.437   5.083 -0.4627 -0.2194  0.5904
   97MOL0     C12686   8.843   8.495   5.062  0.0365  0.1961  0.4759
   97MOL0     C12687   8.749   8.478   5.186 -0.4291 -0.1527 -0.0667
   97MOL0     C12688   8.623   8.566   5.176 -1.1000  0.2572 -0.1605
   97MOL0     N12689   8.509   8.503   5.111 -0.1105  0.2687  0.5317
   97MOL0     C12690   8.503   8.412   5.006 -0.9018 -0.3817  0.1029
   97MOL0     C12691   8.368   8.389   4.987 -0.5769  0.1412 -0.2933
   97MOL0     C12692   8.326   8.319   4.870  0.2541  0.0342  0.4344
   97MOL0     C12693   8.199   8.228   4.874  0.0420 -0.8620 -0.0369
   97MOL0     C12694   8.186   8.142   4.999  0.7916  0.2627  0.1789
   97MOL0     C12695   8.080   8.044   4.977  0.3955  0.1773 -0.0909
   97MOL0     O12696   7.956   8.108   4.933 -0.1087 -0.6493 -0.1887
   97MOL0     C12697   7.838   8.047   4.946  0.7840  0.3633  0.3130
   97MOL0     C12698   7.818   7.916   4.991  0.7009  0.2133  0.5764
   97MOL0     C12699   7.691   7.861   4.984  0.1057 -1.1518 -0.2376
   97MOL0     C12700   7.580   7.941   4.946 -0.4845  1.1945 -0.0353
   97MOL0     C12701   7.437   7.883   4.953  0.1665  0.4895 -0.2212
   97MOL0     O12702   7.332   7.966   4.949 -0.0910 -0.2374  0.8250
   97MOL0     C12703   7.206   7.914   4.907 -0.0708  1.2543  0.0498
   97MOL0     C12704   7.110   7.872   5.007 -0.2398  0.0918  0.2036
   97MOL0     C12705   6.993   7.813   4.967 -0.7029  0.5155  0.3379
   97MOL0     C12706   6.963   7.794   4.833  0.1200  0.3187  0.0953
   97MOL0     O12707   6.851   7.714   4.800  0.2359  0.1072  0.0598
   97MOL0     C12708   6.810   7.701   4.661 -0.2973  1.1059  0.2572
   97MOL0     C12709   6.691   7.598   4.644 -0.1781  0.3612  0.5349
   97MOL0     C12710   6.577   7.659   4.716  1.2956  0.0616 -0.6745
   97MOL0     C12711   6.449   7.570   4.706 -0.0362 -0.2159 -0.1678
   97MOL0     C12712   6.334   7.624   4.796  0.0736  0.4205  0.7389
   97MOL0     C12713   6.225   7.516   4.815  0.5151  0.1576  0.8789
   97MOL0     C12714   6.109   7.595   4.860  0.1184  0.5150 -0.6995
   97MOL0     C12715   5.986   7.505   4.872  0.2362  0.0645 -0.0828
   97MOL0    Cl12716   5.944   7.446   5.039 -0.0723 -0.3347 -0.2622
   97MOL0     C12717   7.061   7.823   4.740  0.3524  0.1796  0.4968
   97MOL0     C12718   7.181   7.874   4.773 -0.4201  0.9901  0.0989
   97MOL0     O12719   7.432   7.757   4.947  0.7018 -0.4571 -0.4206
   97MOL0     C12720   7.598   8.073   4.917  0.5777  0.0660 -0.1253
   97MOL0     C12721   7.728   8.121   4.905  0.1865  0.2765  0.3514
   97MOL0     N12722   8.302   8.449   5.088 -0.4214 -0.3390  0.4384
   97MOL0     N12723   8.382   8.518   5.157  0.2476 -0.6974  0.1082
   97MOL0     C12724   9.655   8.388   5.233 -0.6305  0.3333  0.4951
   97MOL0     C12725   9.789   8.365   5.211 -0.5521 -0.9773  0.3047
   97MOL0     C12726  10.218   8.295   5.321  1.2076 -0.3277  0.5944
   97MOL0     C12727  10.305   8.393   5.380 -0.3011  0.2165 -0.4081
   97MOL0     C12728  10.443   8.366   5.394 -0.6209 -0.2436  0.6170
   97MOL0     C12729  10.497   8.251   5.343 -0.3091  0.2075  0.3121
   97MOL0     O12730  10.638   8.237   5.360  0.3981  0.8783 -0.3282
   97MOL0     C12731  10.709   8.142   5.272 -0.0111 -1.1504  0.0750
   97MOL0     C12732  10.869   8.171   5.276  0.1367  0.4031 -0.7670
   97MOL0     C12733  10.940   8.052   5.206  0.8810 -1.3730  0.7649
   97MOL0     C12734  11.087   8.088   5.164 -0.1963 -0.2282 -1.1151
   97MOL0     C12735  11.165   8.137   5.277 -0.7073 -0.3488 -0.3127
   97MOL0     C12736  11.249   8.155   5.367 -0.3672 -0.4663  0.0521
   97MOL0     C12737  10.406   8.156   5.292 -0.1129 -0.5854  0.0220
   97MOL0     C12738  10.270   8.171   5.289  0.0514  0.4107  0.3347
   97MOL0     H12739   9.818   8.055   5.339 -3.1420 -0.6138 -0.7436
   97MOL0     H12740   9.598   8.100   5.399 -0.5112 -1.2550 -2.2432
   97MOL0     H12741   9.385   8.163   5.176 -0.6658  0.2544 -0.7869
   97MOL0     H12742   9.391   8.329   5.120 -1.8494 -2.2937 -2.1341
   97MOL0     H12743   9.204   8.384   5.276  0.9776  1.0511 -0.5025
   97MOL0     H12744   9.195   8.214   5.324  0.3452 -2.7886 -1.4531
   97MOL0     H12745   9.137   8.137   5.110 -1.5192 -0.5096  0.9691
   97MOL0     H12746   9.189   8.262   5.021 -0.9005 -2.1938 -0.9865
   97MOL0     H12747   8.924   8.234   5.074 -1.7704  2.3836 -1.9362
   97MOL0     H12748   8.955   8.279   5.232  1.1239 -1.3213  0.3483
   97MOL0     H12749   9.037   8.450   4.987  0.3025 -1.9962  0.7247
   97MOL0     H12750   9.043   8.496   5.155  1.7662 -0.7913 -0.6136
   97MOL0     H12751   8.803   8.449   4.971 -1.6718  0.6602  0.9522
   97MOL0     H12752   8.856   8.600   5.038  0.4593  0.2462  0.9185
   97MOL0     H12753   8.726   8.376   5.219 -2.3077  0.6895  1.3980
   97MOL0     H12754   8.802   8.512   5.276  1.4099 -1.8877 -0.4165
   97MOL0     H12755   8.648   8.666   5.140  0.9448  0.2328  1.0257
   97MOL0     H12756   8.583   8.586   5.275 -1.2993 -3.1306  0.5706
   97MOL0     H12757   8.587   8.392   4.940  1.9613  1.4801  2.9122
   97MOL0     H12758   8.408   8.250   4.851 -0.1155 -0.2284 -0.2528
   97MOL0     H12759   8.308   8.385   4.784  1.9678  0.9325  0.7344
   97MOL0     H12760   8.201   8.166   4.785  2.9976 -4.8413  2.4511
   97MOL0     H12761   8.116   8.300   4.872 -0.9640 -1.9271  1.3519
   97MOL0     H12762   8.278   8.094   5.034  1.5146  0.3734 -1.4769
   97MOL0     H12763   8.154   8.205   5.083  1.3310 -1.2753  1.6098
   97MOL0     H12764   8.064   7.992   5.072  0.4761 -2.4269 -1.4081
   97MOL0     H12765   8.106   7.960   4.913 -2.1194 -1.2892  0.6950
   97MOL0     H12766   7.900   7.845   4.998  1.5071  0.8321 -1.7236
   97MOL0     H12767   7.671   7.758   5.014 -0.7389 -1.4240 -1.6108
   97MOL0     H12768   7.134   7.877   5.113 -2.0353 -0.4091  0.6740
   97MOL0     H12769   6.924   7.775   5.042  0.1721 -0.9488  0.4526
   97MOL0     H12770   6.895   7.661   4.605 -1.0774  0.8093 -0.7478
   97MOL0     H12771   6.786   7.795   4.610  0.6438  0.6501 -1.0675
   97MOL0     H12772   6.696   7.507   4.705 -1.3567 -1.0538 -1.3744
   97MOL0     H12773   6.669   7.571   4.540  1.4084  1.4467 -0.1244
   97MOL0     H12774   6.566   7.763   4.683 -4.3059 -0.1225 -0.2168
   97MOL0     H12775   6.601   7.663   4.822 -0.8839  1.7453 -0.1626
   97MOL0     H12776   6.419   7.551   4.603  0.9457 -2.0870 -0.1466
   97MOL0     H12777   6.478   7.478   4.758  1.6005  0.6476  0.5224
   97MOL0     H12778   6.301   7.719   4.754  0.1574  0.1660  0.0879
   97MOL0     H12779   6.385   7.651   4.889 -0.1244  0.3902  0.8584
   97MOL0     H12780   6.256   7.442   4.890 -2.1708 -2.1180 -0.0862
   97MOL0     H12781   6.207   7.472   4.717 -0.1099 -0.5841  1.3131
   97MOL0     H12782   6.112   7.652   4.953 -2.2407 -0.3510 -0.0417
   97MOL0     H12783   6.101   7.665   4.776  1.9351 -0.4875 -1.7855
   97MOL0     H12784   6.001   7.414   4.813  0.3147  1.8209 -2.9961
   97MOL0     H12785   5.893   7.554   4.841 -0.4891 -0.6453  0.9046
   97MOL0     H12786   7.031   7.820   4.636 -0.6577  1.9567  0.6936
   97MOL0     H12787   7.272   7.880   4.715  1.6964 -3.2276  2.4869
   97MOL0     H12788   7.513   8.126   4.875 -1.7333 -4.3404 -1.7034
   97MOL0     H12789   7.754   8.218   4.863 -2.1721 -0.4232 -3.2064
   97MOL0     H12790   9.609   8.482   5.204  1.4664  1.6134  1.1584
   97MOL0     H12791   9.856   8.419   5.146 -1.8975 -2.0616 -2.1174
   97MOL0     H12792  10.266   8.486   5.420  2.8585  1.8052 -0.7667
   97MOL0     H12793  10.507   8.441   5.439 -0.9446  0.0724  0.5598
   97MOL0     H12794  10.656   8.155   5.177  1.9832 -0.5503 -1.0163
   97MOL0     H12795  10.688   8.040   5.305  0.0284 -1.6604 -1.3897
   97MOL0     H12796  10.905   8.266   5.233  0.7023  0.4274 -0.2518
   97MOL0     H12797  10.904   8.171   5.380 -0.9108 -1.4357 -0.3743
   97MOL0     H12798  10.888   8.040   5.111 -1.2100 -3.2002  2.0388
   97MOL0     H12799  10.933   7.956   5.258 -1.6575 -1.9744 -0.5216
   97MOL0     H12800  11.142   8.002   5.125  1.0543  0.9084 -1.9282
   97MOL0     H12801  11.090   8.158   5.081 -1.3523  0.3344 -0.7041
   97MOL0     H12802  11.330   8.181   5.432  0.9467  1.0635 -2.0459
   97MOL0     H12803  10.457   8.065   5.261  4.5629  2.8123 -3.9076
   97MOL0     H12804  10.194   8.106   5.247  2.3045 -1.4820 -1.0585
   98MOL0     O12805   4.813  10.680   4.881  0.3815 -0.7405  0.0909
   98MOL0     C12806   4.765  10.641   4.773 -0.6764 -0.4375  0.2109
   98MOL0     O12807   4.631  10.624   4.742  0.1273  0.6915  0.5755
   98MOL0     C12808   4.546  10.667   4.849  0.6592 -0.2430  0.3593
   98MOL0     C12809   4.455  10.572   4.906 -0.2463 -0.3295 -0.7482
   98MOL0     C12810   4.357  10.614   5.000  0.6049 -0.1822  0.5130
   98MOL0     C12811   4.335  10.743   5.030  0.6692 -0.0805 -0.1165
   98MOL0     O12812   4.225  10.792   5.100 -0.0898  0.5494 -0.5837
   98MOL0     C12813   4.165  10.693   5.178 -0.3121  0.4304 -0.3537
   98MOL0     C12814   4.095  10.766   5.300  0.1103  0.4439 -0.1955
   98MOL0     C12815   3.965  10.829   5.252  0.6066  0.1515  0.2810
   98MOL0     C12816   3.886  10.906   5.368  0.2409 -0.1425  0.2116
   98MOL0     C12817   3.761  10.986   5.328 -0.5033 -0.6733 -0.1953
   98MOL0     C12818   3.708  11.086   5.435  0.1272 -0.1552  0.1654
   98MOL0     C12819   3.656  11.023   5.564  0.8381  0.0605  0.3513
   98MOL0     C12820   3.520  10.957   5.543 -0.0765  0.7078  0.4103
   98MOL0     N12821   3.405  11.055   5.552  0.1773 -0.7025 -0.4105
   98MOL0     C12822   3.326  11.065   5.666  0.0522 -0.1888 -0.3740
   98MOL0     C12823   3.217  11.132   5.632  0.1473  0.1406  0.3624
   98MOL0     C12824   3.092  11.140   5.713  0.9736  0.1735 -0.1020
   98MOL0     C12825   2.965  11.098   5.633  0.0207  0.2793 -0.6414
   98MOL0     C12826   2.849  11.109   5.728  0.8588 -0.4413  0.1175
   98MOL0     C12827   2.726  11.176   5.650 -0.2779  0.4515  0.3187
   98MOL0     O12828   2.653  11.077   5.566  0.5953  0.3511  0.8062
   98MOL0     C12829   2.516  11.082   5.594 -0.3812 -0.2486 -0.0109
   98MOL0     C12830   2.437  11.115   5.487 -0.7493  0.2335  0.2385
   98MOL0     C12831   2.308  11.128   5.505 -0.3417  1.2683  0.7349
   98MOL0     C12832   2.241  11.112   5.621  0.1321 -0.2236 -0.7665
   98MOL0     C12833   2.100  11.136   5.636 -0.7280 -0.2822 -0.2645
   98MOL0     O12834   2.021  11.143   5.516 -0.4173 -0.1131 -0.1304
   98MOL0     C12835   1.876  11.131   5.515 -0.3794 -0.0370  0.7981
   98MOL0     C12836   1.793  11.143   5.630  0.1517  1.2449  0.2084
   98MOL0     C12837   1.657  11.159   5.611  0.5768  1.0174 -0.3343
   98MOL0     C12838   1.600  11.154   5.479  0.1126 -1.1077  0.0833
   98MOL0     O12839   1.466  11.154   5.474  0.0141  0.5281  0.3591
   98MOL0     C12840   1.412  11.158   5.342  0.9003 -0.7512 -0.1140
   98MOL0     C12841   1.258  11.148   5.350  0.1226  0.0713 -0.0132
   98MOL0     C12842   1.210  11.148   5.206  0.1033 -0.2078 -0.0958
   98MOL0     C12843   1.059  11.166   5.194 -0.4496  0.0148 -0.4797
   98MOL0     C12844   1.000  11.024   5.233 -0.4302 -0.1293  0.7513
   98MOL0     C12845   0.851  11.013   5.236  0.1785 -0.6087 -0.7317
   98MOL0     C12846   0.788  10.885   5.292 -0.3972 -0.5040 -0.1199
   98MOL0     C12847   0.651  10.864   5.233 -0.6610  0.2849  0.7766
   98MOL0    Cl12848   0.591  10.698   5.272  0.3219  0.1186 -0.0584
   98MOL0     C12849   1.680  11.141   5.371  0.1332  0.1958 -0.5757
   98MOL0     C12850   1.816  11.131   5.392  0.2281  0.6365 -0.0914
   98MOL0     O12851   2.062  11.165   5.747  0.0282 -0.1961 -0.5477
   98MOL0     C12852   2.319  11.071   5.732  0.5912  0.1421 -0.3105
   98MOL0     C12853   2.454  11.069   5.719  0.0876  0.1658  0.1694
   98MOL0     N12854   3.228  11.175   5.500 -1.0564 -0.3363 -0.2447
   98MOL0     N12855   3.339  11.115   5.452 -0.0165 -0.4588  0.2387
   98MOL0     C12856   4.422  10.837   4.980 -0.7933  0.0057 -0.2778
   98MOL0     C12857   4.522  10.802   4.892 -0.8193  0.6590  0.3394
   98MOL0     C12858   4.873  10.596   4.675  0.4204  0.4087 -0.8321
   98MOL0     C12859   4.832  10.549   4.545 -0.3222 -0.4066  0.4866
   98MOL0     C12860   4.930  10.514   4.443 -0.6537  0.0659  0.4673
   98MOL0     C12861   5.064  10.517   4.466 -0.8558 -0.5041  0.1219
   98MOL0     O12862   5.151  10.483   4.369  0.1382 -1.1000  0.5003
   98MOL0     C12863   5.298  10.480   4.390 -0.0440 -0.4326  0.1971
   98MOL0     C12864   5.363  10.618   4.397 -0.4367  0.4688 -0.2175
   98MOL0     C12865   5.507  10.603   4.444 -0.1220  0.6717  0.2666
   98MOL0     C12866   5.570  10.736   4.501 -0.3686 -0.8995 -0.7157
   98MOL0     C12867   5.480  10.819   4.584  0.5312  0.0837 -1.0678
   98MOL0     C12868   5.407  10.885   4.657 -0.9037  0.1769 -0.0160
   98MOL0     C12869   5.100  10.551   4.597 -0.4328 -0.3568 -0.3209
   98MOL0     C12870   5.010  10.596   4.696 -0.1936  0.7935  0.0603
   98MOL0     H12871   4.459  10.466   4.883  0.2927 -0.9982  2.0759
   98MOL0     H12872   4.281  10.539   5.018 -0.2915  0.1908 -1.4311
   98MOL0     H12873   4.244  10.635   5.225  2.3785  3.0852 -1.2795
   98MOL0     H12874   4.088  10.648   5.115 -1.4870  0.6740  0.8713
   98MOL0     H12875   4.157  10.851   5.330 -0.3361  0.9940 -0.8099
   98MOL0     H12876   4.087  10.693   5.381 -1.7311  2.0257  1.1286
   98MOL0     H12877   3.902  10.749   5.213  1.6681  0.0433 -1.3003
   98MOL0     H12878   3.976  10.898   5.168 -0.8417 -3.1784 -2.9095
   98MOL0     H12879   3.864  10.836   5.449  0.4338 -2.1495 -1.4063
   98MOL0     H12880   3.954  10.986   5.399  1.9946 -1.3572 -0.3826
   98MOL0     H12881   3.686  10.915   5.292 -0.1433 -0.9774 -0.3474
   98MOL0     H12882   3.784  11.052   5.244 -1.2092  1.3209  1.0925
   98MOL0     H12883   3.623  11.139   5.392 -1.9569 -3.7543 -0.5025
   98MOL0     H12884   3.782  11.163   5.461 -1.6464  2.0896 -1.0364
   98MOL0     H12885   3.732  10.957   5.608  2.6857  0.8118 -1.5074
   98MOL0     H12886   3.641  11.105   5.634  0.9702  1.1198 -0.8305
   98MOL0     H12887   3.512  10.896   5.633  0.6548  0.5605  0.3836
   98MOL0     H12888   3.528  10.887   5.459  0.0750 -0.4396  1.3564
   98MOL0     H12889   3.335  11.036   5.770  4.4815 -0.9736 -0.8138
   98MOL0     H12890   3.077  11.246   5.737 -2.0983 -0.0175 -0.7589
   98MOL0     H12891   3.097  11.082   5.805 -0.1315  1.8992  1.1064
   98MOL0     H12892   2.972  10.994   5.599 -1.0106  0.7351 -2.3661
   98MOL0     H12893   2.952  11.151   5.538  1.4466  0.3320 -0.8403
   98MOL0     H12894   2.816  11.024   5.788 -1.0223  0.4474  0.3949
   98MOL0     H12895   2.880  11.174   5.811 -1.5766  1.7865 -0.5963
   98MOL0     H12896   2.749  11.264   5.590 -0.3153  2.9461  3.6250
   98MOL0     H12897   2.654  11.211   5.725  0.2269  3.5217 -0.4947
   98MOL0     H12898   2.470  11.114   5.383  0.0135  4.7573  0.2376
   98MOL0     H12899   2.251  11.139   5.414  0.6000  5.3563  0.4705
   98MOL0     H12900   1.831  11.164   5.730 -0.3690  1.3443  0.3858
   98MOL0     H12901   1.597  11.171   5.701 -0.8411  2.1511 -1.3841
   98MOL0     H12902   1.445  11.074   5.280 -0.2283 -0.8621 -0.5988
   98MOL0     H12903   1.441  11.248   5.287  1.0982 -1.0360 -0.4801
   98MOL0     H12904   1.217  11.243   5.384 -1.7465  0.9458 -4.1398
   98MOL0     H12905   1.222  11.063   5.409  0.1354 -0.5928 -0.9359
   98MOL0     H12906   1.244  11.066   5.143 -1.1507  0.6549 -1.9762
   98MOL0     H12907   1.252  11.240   5.162 -3.1762  0.7704 -1.4480
   98MOL0     H12908   1.013  11.239   5.261 -1.8646 -1.1016 -0.1866
   98MOL0     H12909   1.037  11.177   5.087 -0.2811 -0.5862 -0.5813
   98MOL0     H12910   1.031  10.993   5.333 -0.4535  1.4442  1.2820
   98MOL0     H12911   1.032  10.952   5.157  0.8520  2.5189 -1.4323
   98MOL0     H12912   0.815  11.033   5.135  2.2319  1.6447 -1.1198
   98MOL0     H12913   0.815  11.100   5.293 -0.9687  1.0198 -3.7171
   98MOL0     H12914   0.855  10.804   5.263  0.4651  0.8366 -2.1779
   98MOL0     H12915   0.769  10.878   5.399 -4.8029  0.7583 -0.6145
   98MOL0     H12916   0.659  10.883   5.126 -1.2739  0.2880  0.7261
   98MOL0     H12917   0.584  10.940   5.273 -1.5714 -0.3756  0.5498
   98MOL0     H12918   1.641  11.138   5.270  0.4781  0.2643 -0.7145
   98MOL0     H12919   1.874  11.100   5.305  1.7454  1.4108  0.6083
   98MOL0     H12920   2.276  11.057   5.831  1.1803  1.5500  0.1782
   98MOL0     H12921   2.524  11.041   5.797  1.9974 -0.8254 -1.8190
   98MOL0     H12922   4.400  10.943   4.991  0.1669  0.1633  0.1784
   98MOL0     H12923   4.586  10.885   4.862  2.0085 -1.6191 -0.3964
   98MOL0     H12924   4.726  10.532   4.534 -1.1762  3.1539  1.7236
   98MOL0     H12925   4.902  10.485   4.342 -1.8586  2.2156  0.1361
   98MOL0     H12926   5.342  10.429   4.304 -3.1300  0.2709 -1.9771
   98MOL0     H12927   5.318  10.423   4.481  1.5492  0.9513  0.7741
   98MOL0     H12928   5.358  10.658   4.296  0.0706 -0.8957 -0.8120
   98MOL0     H12929   5.309  10.688   4.461 -1.0674 -1.0161  0.9379
   98MOL0     H12930   5.564  10.567   4.358  0.0514  2.3783 -0.3686
   98MOL0     H12931   5.506  10.522   4.518 -0.3845  1.2785  0.9345
   98MOL0     H12932   5.659  10.722   4.563 -1.0719  2.0966  1.1831
   98MOL0     H12933   5.590  10.786   4.406  2.2751 -2.5418 -1.1459
   98MOL0     H12934   5.340  10.944   4.717 -1.0075  0.0969 -0.0532
   98MOL0     H12935   5.204  10.553   4.631 -0.8137 -0.0040  0.8838
   98MOL0     H12936   5.041  10.628   4.795 -1.4137 -5.2352  2.8966
   99MOL0     O12937   7.937   8.888   1.990 -0.6403  0.1024  0.2482
   99MOL0     C12938   7.901   8.923   1.876 -0.2795 -0.6782 -0.1245
   99MOL0     O12939   7.964   8.904   1.760  0.1288 -0.2606  0.3227
   99MOL0     C12940   8.097   8.870   1.743  0.8483  0.1498  0.1230
   99MOL0     C12941   8.190   8.851   1.841 -0.3097  0.6455 -0.4740
   99MOL0     C12942   8.325   8.810   1.805 -0.4317  0.0156 -0.7775
   99MOL0     C12943   8.362   8.786   1.675 -0.8043  0.4113  0.4725
   99MOL0     O12944   8.494   8.751   1.645 -0.3354  0.7027 -0.1726
   99MOL0     C12945   8.515   8.672   1.526  0.2682 -0.0247 -0.5080
   99MOL0     C12946   8.665   8.639   1.519  0.0942  0.3402 -0.1731
   99MOL0     C12947   8.694   8.530   1.414 -0.6445 -0.3633 -0.7233
   99MOL0     C12948   8.848   8.482   1.429  1.0883 -0.0715 -0.6239
   99MOL0     C12949   8.872   8.360   1.335 -0.9287 -0.3230 -1.2568
   99MOL0     C12950   9.010   8.303   1.357 -0.0556  0.1272  0.3480
   99MOL0     C12951   9.114   8.373   1.268 -0.4761 -0.5847 -0.3763
   99MOL0     C12952   9.252   8.306   1.267 -0.1049 -0.3894  0.1075
   99MOL0     N12953   9.258   8.165   1.217 -0.4424 -0.1326  0.6352
   99MOL0     C12954   9.208   8.131   1.095  0.2815 -0.5324  0.4933
   99MOL0     C12955   9.238   7.998   1.091 -0.2725  0.4042 -0.6938
   99MOL0     C12956   9.226   7.923   0.961 -0.6418 -0.2030  0.4043
   99MOL0     C12957   9.110   7.823   0.939 -0.3725 -0.1808 -0.1780
   99MOL0     C12958   9.116   7.706   1.033 -0.2729 -0.4632  0.0538
   99MOL0     C12959   9.024   7.578   1.004 -0.8106  0.1089  0.3889
   99MOL0     O12960   8.909   7.604   0.921 -0.2502  0.5561 -0.1024
   99MOL0     C12961   8.800   7.637   0.991 -0.2658  0.1192  0.1026
   99MOL0     C12962   8.672   7.595   0.947 -0.8594 -0.4741  0.5671
   99MOL0     C12963   8.548   7.636   1.004  0.0177  0.1805 -0.1390
   99MOL0     C12964   8.549   7.710   1.120  0.0472 -0.4111  0.0426
   99MOL0     C12965   8.424   7.741   1.201 -0.3412 -1.0442  0.0726
   99MOL0     O12966   8.305   7.781   1.129 -0.4777 -0.9098 -0.6710
   99MOL0     C12967   8.215   7.847   1.208 -0.8891  0.1617  0.6378
   99MOL0     C12968   8.138   7.780   1.310 -0.8783 -0.3398 -0.5455
   99MOL0     C12969   8.040   7.849   1.384  0.3648 -0.0997  0.6052
   99MOL0     C12970   8.030   7.990   1.367 -0.7867  1.1607 -0.1672
   99MOL0     O12971   7.948   8.082   1.442 -0.0833 -0.1643 -0.2965
   99MOL0     C12972   7.827   8.016   1.495 -1.4292 -1.1086 -1.1545
   99MOL0     C12973   7.731   7.967   1.385  0.7454  0.4181 -0.3502
   99MOL0     C12974   7.651   8.075   1.323  0.2033 -0.5666 -0.2623
   99MOL0     C12975   7.524   8.021   1.259 -0.5161  0.0966  0.2653
   99MOL0     C12976   7.558   7.920   1.147  0.5474 -0.8176 -0.3382
   99MOL0     C12977   7.451   7.933   1.028 -0.5537  0.5568  0.1309
   99MOL0     C12978   7.463   7.808   0.940 -0.3958  0.3540  0.4989
   99MOL0     C12979   7.402   7.678   0.984  0.2248 -0.3244 -0.2173
   99MOL0    Cl12980   7.337   7.573   0.860  0.3254  0.0498  0.2116
   99MOL0     C12981   8.102   8.054   1.265 -0.2692  0.4493  0.0348
   99MOL0     C12982   8.192   7.982   1.184 -0.4108 -0.2975  0.4534
   99MOL0     O12983   8.446   7.740   1.326  0.1988 -0.5975  0.9980
   99MOL0     C12984   8.672   7.743   1.168  0.4527  0.4690 -0.6552
   99MOL0     C12985   8.790   7.715   1.100 -1.0131  0.1282 -0.2768
   99MOL0     N12986   9.311   7.961   1.200  0.7092  0.9441 -0.1923
   99MOL0     N12987   9.315   8.060   1.267 -0.5784 -0.6127  0.2013
   99MOL0     C12988   8.265   8.789   1.575 -0.8892 -0.9526 -0.1321
   99MOL0     C12989   8.136   8.834   1.606 -0.2478 -0.4245 -0.4584
   99MOL0     C12990   7.758   8.982   1.871 -0.3576 -0.4266  1.4165
   99MOL0     C12991   7.705   9.021   1.742 -0.4946 -0.3012 -0.8185
   99MOL0     C12992   7.583   9.081   1.738 -0.1508  0.2522  1.0396
   99MOL0     C12993   7.504   9.101   1.854  0.7500  0.4496 -0.1225
   99MOL0     O12994   7.381   9.146   1.839  1.0781 -0.2623 -0.1065
   99MOL0     C12995   7.271   9.110   1.923  0.3142 -0.0577 -0.0183
   99MOL0     C12996   7.237   9.215   2.034  0.3099  0.3698  0.0092
   99MOL0     C12997   7.100   9.191   2.107 -0.6088  0.0839 -0.1099
   99MOL0     C12998   7.110   9.164   2.264 -0.1770  0.1341 -0.1113
   99MOL0     C12999   6.976   9.147   2.326 -0.1696 -0.4372 -0.6082
   99MOL0     C13000   6.876   9.101   2.367 -0.0442  0.1599 -0.0459
   99MOL0     C13001   7.553   9.048   1.969 -0.4378  0.3995  0.4225
   99MOL0     C13002   7.675   8.994   1.978 -0.6922  0.4400 -0.3021
   99MOL0     H13003   8.161   8.873   1.943 -0.5545  0.0497 -0.4104
   99MOL0     H13004   8.398   8.794   1.884  1.1841  2.8342 -1.5310
   99MOL0     H13005   8.477   8.712   1.431 -1.9298 -0.0501  0.2980
   99MOL0     H13006   8.456   8.584   1.552 -2.6464  2.1353  0.7476
   99MOL0     H13007   8.685   8.596   1.617  0.1178  0.0521 -0.3027
   99MOL0     H13008   8.732   8.725   1.510  1.0065 -0.4346 -1.0367
   99MOL0     H13009   8.673   8.577   1.318  0.3862  1.9245  0.0956
   99MOL0     H13010   8.625   8.451   1.445 -1.7475  1.5990  2.3107
   99MOL0     H13011   8.922   8.555   1.394  2.7186 -0.9567  0.8298
   99MOL0     H13012   8.863   8.473   1.537 -2.7768  3.6516  0.4954
   99MOL0     H13013   8.858   8.386   1.230 -0.8344 -0.2001 -1.2383
   99MOL0     H13014   8.807   8.275   1.362  0.0889 -1.6155 -2.6944
   99MOL0     H13015   9.011   8.196   1.331  1.1108  0.6569 -2.0879
   99MOL0     H13016   9.052   8.321   1.457  1.3623 -0.7156 -0.0565
   99MOL0     H13017   9.079   8.381   1.164 -1.8049  0.1099  0.1110
   99MOL0     H13018   9.119   8.471   1.316 -4.9385 -0.2946 -0.1250
   99MOL0     H13019   9.292   8.308   1.369  1.2667  2.7514 -0.3805
   99MOL0     H13020   9.314   8.370   1.203 -1.5475  1.7938  0.7939
   99MOL0     H13021   9.154   8.191   1.023  0.5054  1.2733  1.7672
   99MOL0     H13022   9.313   7.858   0.951 -1.4587 -1.3082  0.2415
   99MOL0     H13023   9.207   7.997   0.883  0.0358 -1.2355 -0.7725
   99MOL0     H13024   9.098   7.788   0.836  0.3472 -1.2870  0.1058
   99MOL0     H13025   9.017   7.874   0.967  0.6499  1.3337  0.5738
   99MOL0     H13026   9.217   7.666   1.048  0.4004  0.4531 -1.7988
   99MOL0     H13027   9.080   7.746   1.128  2.0187  3.5101 -0.5527
   99MOL0     H13028   8.989   7.544   1.102  0.4787  3.1100  2.0321
   99MOL0     H13029   9.093   7.507   0.958  0.3144  2.3938 -1.7021
   99MOL0     H13030   8.650   7.527   0.866 -1.7175 -0.9910  1.2160
   99MOL0     H13031   8.452   7.607   0.963 -0.9867  1.1672  1.3980
   99MOL0     H13032   8.165   7.682   1.347 -0.8709  0.0432  0.4959
   99MOL0     H13033   7.990   7.785   1.456  1.0380 -1.7602 -0.3494
   99MOL0     H13034   7.790   8.097   1.558 -1.6102 -1.6026 -0.6115
   99MOL0     H13035   7.851   7.934   1.564 -1.9248 -1.1967 -1.0823
   99MOL0     H13036   7.663   7.898   1.438 -0.1864  1.1750 -0.5358
   99MOL0     H13037   7.772   7.905   1.305 -1.1832 -2.4276  0.6844
   99MOL0     H13038   7.707   8.124   1.243  1.6733  0.6942  1.4470
   99MOL0     H13039   7.619   8.155   1.391 -1.6493  0.2811 -2.0297
   99MOL0     H13040   7.462   7.967   1.331  0.0110  0.8347  1.3032
   99MOL0     H13041   7.467   8.109   1.229 -0.8406 -0.8154 -1.9473
   99MOL0     H13042   7.557   7.817   1.184  1.3920 -0.4897  0.6494
   99MOL0     H13043   7.652   7.947   1.099 -0.3720 -1.5940 -2.6788
   99MOL0     H13044   7.491   8.019   0.973  3.1479  0.3096  2.1077
   99MOL0     H13045   7.347   7.949   1.059 -1.1023  4.0719 -2.7692
   99MOL0     H13046   7.407   7.835   0.850 -0.9615  1.4440  1.1565
   99MOL0     H13047   7.568   7.795   0.914 -0.1493  3.8829 -0.8695
   99MOL0     H13048   7.319   7.707   1.050  0.4157  2.0674 -0.9520
   99MOL0     H13049   7.482   7.624   1.034 -1.8818 -0.9489  2.7982
   99MOL0     H13050   8.098   8.159   1.239 -3.0484 -0.2441 -3.0042
   99MOL0     H13051   8.258   8.031   1.113  1.1864  0.4305  2.3502
   99MOL0     H13052   8.673   7.795   1.263  2.9357  0.3333 -0.5374
   99MOL0     H13053   8.871   7.749   1.163 -1.2878 -1.1653  0.8164
   99MOL0     H13054   8.277   8.751   1.474 -1.9219 -0.4973 -0.4348
   99MOL0     H13055   8.074   8.832   1.517 -0.0742 -0.6116 -0.5756
   99MOL0     H13056   7.749   8.996   1.646 -0.5257  0.4013 -1.0227
   99MOL0     H13057   7.538   9.107   1.642 -1.5762 -1.1465  1.2946
   99MOL0     H13058   7.299   9.013   1.967 -0.4343 -1.0977 -1.7141
   99MOL0     H13059   7.183   9.090   1.861  0.0616  0.3974  0.1966
   99MOL0     H13060   7.317   9.225   2.109 -0.2556 -1.4323  0.9207
   99MOL0     H13061   7.221   9.302   1.971 -0.2847 -0.3912 -0.9126
   99MOL0     H13062   7.058   9.103   2.058  1.7988 -1.6164  0.6438
   99MOL0     H13063   7.027   9.270   2.091 -0.3628  0.4410  0.4655
   99MOL0     H13064   7.172   9.074   2.278 -2.6758 -2.1564 -2.5749
   99MOL0     H13065   7.157   9.249   2.315 -0.5852  0.0633  0.4027
   99MOL0     H13066   6.791   9.054   2.411  1.8150 -1.3554  2.2151
   99MOL0     H13067   7.492   9.035   2.058 -0.1465  0.1355  0.5852
   99MOL0     H13068   7.713   8.972   2.077  4.8878  3.3379 -1.4113
  100MOL0     O13069   2.802   8.915   4.691 -0.2881 -0.2864  0.6858
  100MOL0     C13070   2.800   8.924   4.566 -0.6482 -0.2210  0.1787
  100MOL0     O13071   2.892   8.984   4.492  0.2748  0.2758 -0.2818
  100MOL0     C13072   3.004   9.033   4.548 -0.4772 -0.2908  0.1338
  100MOL0     C13073   3.120   8.961   4.510  1.3688 -0.6745 -0.2838
  100MOL0     C13074   3.242   8.997   4.558 -0.4733 -0.9777 -1.0312
  100MOL0     C13075   3.261   9.104   4.647 -0.2707 -0.4307 -0.1777
  100MOL0     O13076   3.387   9.152   4.690  0.8005  0.7595  0.2172
  100MOL0     C13077   3.385   9.239   4.812 -0.1485  0.7673  0.9076
  100MOL0     C13078   3.389   9.388   4.794 -0.3840  0.2259  0.2990
  100MOL0     C13079   3.515   9.439   4.724  0.1613  0.4046 -0.5720
  100MOL0     C13080   3.639   9.463   4.819  1.1571  0.1820 -0.4892
  100MOL0     C13081   3.757   9.520   4.744  0.1704  0.0308 -0.4131
  100MOL0     C13082   3.882   9.521   4.837  0.7186 -0.0592  0.1810
  100MOL0     C13083   3.994   9.603   4.764 -0.5889  0.2873  0.1410
  100MOL0     C13084   4.001   9.750   4.824  0.0949 -0.2065  1.6143
  100MOL0     N13085   4.131   9.791   4.878 -0.0271 -0.5847 -1.1238
  100MOL0     C13086   4.191   9.735   4.996 -1.1082 -0.0464 -0.2029
  100MOL0     C13087   4.318   9.786   4.975  0.1278 -0.2581  0.0827
  100MOL0     C13088   4.430   9.738   5.066  0.5410 -0.2789 -0.2938
  100MOL0     C13089   4.458   9.836   5.186 -0.3290  0.3823  0.3856
  100MOL0     C13090   4.422   9.797   5.330  0.1667  0.0591  0.8559
  100MOL0     C13091   4.282   9.818   5.362 -0.0310  0.1056 -0.5729
  100MOL0     O13092   4.272   9.843   5.502  1.2219  0.8002  0.0680
  100MOL0     C13093   4.153   9.877   5.557 -0.1116 -0.4570 -0.2109
  100MOL0     C13094   4.146   9.902   5.692 -0.0095  0.3289  0.2878
  100MOL0     C13095   4.022   9.929   5.751  0.2198 -0.6850 -0.2002
  100MOL0     C13096   3.907   9.940   5.674  0.6128 -0.5952  1.0421
  100MOL0     C13097   3.778   9.964   5.747  0.2153 -0.2973  0.5425
  100MOL0     O13098   3.809  10.017   5.868 -0.0030  0.8196  0.4117
  100MOL0     C13099   3.705  10.083   5.925 -0.0323  0.1062  0.3420
  100MOL0     C13100   3.710  10.223   5.939 -0.8269  0.4023  0.3483
  100MOL0     C13101   3.607  10.291   5.995 -0.4709 -0.6616  0.2843
  100MOL0     C13102   3.501  10.232   6.051  0.6926  0.0630 -0.0406
  100MOL0     O13103   3.396  10.314   6.104 -0.8178  0.3078 -1.0823
  100MOL0     C13104   3.334  10.270   6.225 -0.5708 -0.2934 -0.3618
  100MOL0     C13105   3.290  10.393   6.302  0.1404  0.4279 -0.2751
  100MOL0     C13106   3.148  10.444   6.275  0.1577  0.2536  0.9545
  100MOL0     C13107   3.120  10.578   6.344  0.8309  0.7261  0.4063
  100MOL0     C13108   2.971  10.619   6.321 -0.2851 -0.4418  0.3118
  100MOL0     C13109   2.876  10.574   6.428 -0.0274 -0.1347  0.6027
  100MOL0     C13110   2.724  10.611   6.393 -0.1836 -0.2814  0.8446
  100MOL0     C13111   2.648  10.629   6.536 -0.6618  0.4360  0.9029
  100MOL0    Cl13112   2.473  10.626   6.508 -0.0854 -0.6279  0.5078
  100MOL0     C13113   3.490  10.091   6.046 -0.4563  1.1874 -0.4190
  100MOL0     C13114   3.597  10.016   5.984  0.2378  1.1592 -0.8912
  100MOL0     O13115   3.667   9.926   5.697 -0.0512  0.3113 -0.4597
  100MOL0     C13116   3.915   9.901   5.543 -0.1440  0.5534  0.0542
  100MOL0     C13117   4.035   9.870   5.487 -0.2631 -0.3202 -0.4078
  100MOL0     N13118   4.320   9.878   4.874 -1.0610 -0.4845  0.9446
  100MOL0     N13119   4.210   9.884   4.818 -0.3269  0.0286 -0.7625
  100MOL0     C13120   3.139   9.167   4.678 -0.3052 -0.9275 -0.2478
  100MOL0     C13121   3.007   9.138   4.640 -0.5711  0.2412  0.6821
  100MOL0     C13122   2.684   8.864   4.487 -0.1511  0.5864 -0.3091
  100MOL0     C13123   2.671   8.896   4.356  1.3519  1.4458  0.2677
  100MOL0     C13124   2.583   8.829   4.267 -0.4898  0.9097  0.3105
  100MOL0     C13125   2.492   8.729   4.311 -0.1731  0.6201 -0.2906
  100MOL0     O13126   2.423   8.677   4.205 -0.6685  0.4692 -0.5505
  100MOL0     C13127   2.304   8.595   4.241  0.1329 -0.2779  0.0285
  100MOL0     C13128   2.185   8.689   4.240  0.0279  0.3434  0.4059
  100MOL0     C13129   2.054   8.606   4.241  0.4537 -0.2304  0.3949
  100MOL0     C13130   1.937   8.703   4.253 -0.0376 -1.4746  0.2673
  100MOL0     C13131   1.823   8.630   4.271  0.6593 -0.5749 -0.7740
  100MOL0     C13132   1.717   8.571   4.302 -0.3572 -0.9139  0.2201
  100MOL0     C13133   2.497   8.698   4.453  0.6123 -0.8967  0.4479
  100MOL0     C13134   2.595   8.766   4.538  1.0974  0.8190  0.6243
  100MOL0     H13135   3.107   8.885   4.434  0.7841  1.3356 -2.3011
  100MOL0     H13136   3.334   8.952   4.523  2.0571  2.1891  0.9944
  100MOL0     H13137   3.479   9.211   4.860  1.1135  1.2633 -1.1655
  100MOL0     H13138   3.310   9.198   4.881 -0.5838 -0.5002 -0.2893
  100MOL0     H13139   3.378   9.441   4.889  0.5799  2.3947 -0.7184
  100MOL0     H13140   3.303   9.421   4.734 -1.0697  0.2508  1.2728
  100MOL0     H13141   3.479   9.525   4.667 -0.5035 -0.1167 -0.9537
  100MOL0     H13142   3.539   9.375   4.639 -1.1065 -2.7869  1.3012
  100MOL0     H13143   3.612   9.531   4.900  0.8392 -0.3989 -0.0982
  100MOL0     H13144   3.673   9.372   4.870  2.4179 -0.4807 -2.3903
  100MOL0     H13145   3.729   9.619   4.707  1.3477 -0.0521 -1.6045
  100MOL0     H13146   3.789   9.474   4.650 -2.4156  0.9206 -1.8096
  100MOL0     H13147   3.921   9.422   4.864 -0.7039 -0.3097  1.4741
  100MOL0     H13148   3.854   9.566   4.933 -0.0165  2.4779 -1.1308
  100MOL0     H13149   4.092   9.556   4.778 -1.5226 -1.8166 -0.1309
  100MOL0     H13150   3.995   9.596   4.655  1.7154 -1.5015  0.1988
  100MOL0     H13151   3.933   9.762   4.909 -2.3799 -3.3154  0.2659
  100MOL0     H13152   3.971   9.811   4.738 -0.1352 -4.2559 -1.4971
  100MOL0     H13153   4.162   9.667   5.075 -3.2208  3.1691  2.0069
  100MOL0     H13154   4.517   9.724   5.001  0.1912  1.9415 -1.3348
  100MOL0     H13155   4.392   9.643   5.105  0.7391  0.4478  1.8154
  100MOL0     H13156   4.425   9.937   5.159 -0.3654  0.0416 -0.8908
  100MOL0     H13157   4.567   9.844   5.197 -0.3085 -0.8125  1.2629
  100MOL0     H13158   4.442   9.691   5.352 -2.6034  0.2669  6.3716
  100MOL0     H13159   4.481   9.855   5.401  1.8351 -1.5276  0.8518
  100MOL0     H13160   4.221   9.734   5.326  0.0157  0.2340 -0.9495
  100MOL0     H13161   4.250   9.906   5.305  1.1240  0.8605 -0.0806
  100MOL0     H13162   4.240   9.913   5.746 -0.6264  3.6137  0.9211
  100MOL0     H13163   4.031   9.948   5.857  2.1226 -3.1248  0.1588
  100MOL0     H13164   3.804  10.263   5.901 -0.7768 -0.5143 -0.5138
  100MOL0     H13165   3.618  10.399   5.998 -2.5648 -0.3421 -1.3058
  100MOL0     H13166   3.400  10.210   6.289  1.6792  0.0313 -2.2331
  100MOL0     H13167   3.252  10.204   6.196 -1.6061  0.6731  0.3174
  100MOL0     H13168   3.369  10.467   6.286 -0.3572  0.5053 -2.8604
  100MOL0     H13169   3.296  10.356   6.405  1.2418 -0.2901 -0.5721
  100MOL0     H13170   3.086  10.361   6.310  4.3531 -2.7225  2.1869
  100MOL0     H13171   3.139  10.464   6.168  1.0225 -1.7894  0.4514
  100MOL0     H13172   3.141  10.568   6.451 -3.0746  0.0700  1.2609
  100MOL0     H13173   3.191  10.648   6.299  1.6498  1.2478  2.4288
  100MOL0     H13174   2.938  10.580   6.224  0.2420 -2.4829  0.9142
  100MOL0     H13175   2.959  10.728   6.321 -3.8973 -0.7062  0.5478
  100MOL0     H13176   2.900  10.627   6.520 -0.8538  2.2199 -0.4514
  100MOL0     H13177   2.890  10.468   6.448  0.9014 -0.4424 -1.4350
  100MOL0     H13178   2.718  10.704   6.335  0.5962 -0.7224  0.0247
  100MOL0     H13179   2.690  10.521   6.340 -1.3540  0.3818  0.4262
  100MOL0     H13180   2.683  10.715   6.593 -1.9893  1.2423  0.5544
  100MOL0     H13181   2.664  10.545   6.604 -0.4895  0.3348  0.7361
  100MOL0     H13182   3.400  10.036   6.072  0.7812 -1.2475 -1.0146
  100MOL0     H13183   3.581   9.912   5.957  1.5159  1.0130 -1.1624
  100MOL0     H13184   3.822   9.893   5.488  0.6830 -2.2922 -1.0897
  100MOL0     H13185   4.043   9.857   5.379 -0.8600  0.1964 -0.5183
  100MOL0     H13186   3.138   9.253   4.744 -0.7267  0.6978 -2.2702
  100MOL0     H13187   2.923   9.193   4.683 -0.9634 -0.8694  1.3827
  100MOL0     H13188   2.728   8.978   4.312 -0.3786  2.5411 -0.0427
  100MOL0     H13189   2.577   8.837   4.159 -0.1195 -1.8654  0.0196
  100MOL0     H13190   2.317   8.540   4.335 -0.2267 -0.3774  0.0219
  100MOL0     H13191   2.286   8.517   4.166  1.1112  0.8769 -1.4719
  100MOL0     H13192   2.173   8.759   4.324  0.3927  3.0256 -1.6133
  100MOL0     H13193   2.186   8.748   4.148 -2.5216  1.2921  0.8791
  100MOL0     H13194   2.060   8.538   4.327 -0.4933  0.7620  1.2723
  100MOL0     H13195   2.058   8.553   4.145  0.2166 -2.7868  1.6973
  100MOL0     H13196   1.956   8.777   4.332  0.5943  1.2051 -2.2078
  100MOL0     H13197   1.928   8.748   4.153 -2.0564  0.3677  1.1939
  100MOL0     H13198   1.622   8.525   4.317 -0.9736  0.2716  0.0735
  100MOL0     H13199   2.425   8.628   4.492 -2.1501 -0.0502 -2.6345
  100MOL0     H13200   2.598   8.729   4.640  0.8030  1.1210  0.7448
  101MOL0     O13201   5.549  11.299   8.625  0.4568  0.2986 -0.3311
  101MOL0     C13202   5.525  11.415   8.592  1.0871 -0.1429 -0.9828
  101MOL0     O13203   5.396  11.473   8.582  0.0375 -0.1536 -0.0398
  101MOL0     C13204   5.276  11.405   8.599 -0.6978 -0.5136 -0.0516
  101MOL0     C13205   5.261  11.264   8.637 -0.6047 -1.2795 -0.3821
  101MOL0     C13206   5.142  11.212   8.667  0.0333 -0.8411  0.0486
  101MOL0     C13207   5.023  11.299   8.657 -0.5904  0.0249 -0.3820
  101MOL0     O13208   4.893  11.248   8.666  0.5634 -0.4286 -0.0249
  101MOL0     C13209   4.884  11.129   8.746  0.8237  0.7043  0.0180
  101MOL0     C13210   4.728  11.089   8.778 -0.3141  0.0124 -0.2348
  101MOL0     C13211   4.747  11.000   8.898 -0.3355  0.7646  0.0782
  101MOL0     C13212   4.616  10.934   8.928 -0.0095  0.2247 -0.5531
  101MOL0     C13213   4.512  11.032   8.982 -0.3287 -0.3281  0.3177
  101MOL0     C13214   4.369  10.967   8.987  0.6946 -0.4470 -0.0634
  101MOL0     C13215   4.280  11.059   9.080  0.0319 -1.0738 -0.1573
  101MOL0     C13216   4.202  11.185   9.002 -0.4135  0.9142 -0.3587
  101MOL0     N13217   4.103  11.131   8.906 -0.3031 -0.3579 -0.1820
  101MOL0     C13218   3.993  11.064   8.949 -0.3530  0.4675 -0.3510
  101MOL0     C13219   3.915  11.060   8.844 -0.3878 -0.3433  0.2891
  101MOL0     C13220   3.780  10.990   8.852 -1.0293 -1.3686  0.1977
  101MOL0     C13221   3.678  11.067   8.939  0.1308  0.7446  0.1700
  101MOL0     C13222   3.536  11.014   8.909  0.0709 -0.2019 -0.8033
  101MOL0     C13223   3.428  11.062   9.003  0.1008  0.2541  0.1126
  101MOL0     O13224   3.313  10.986   8.959 -0.3066 -0.3314  0.1983
  101MOL0     C13225   3.186  11.018   8.998 -0.0354 -0.0310  0.0123
  101MOL0     C13226   3.150  11.116   9.090 -0.0775 -0.0131 -0.8960
  101MOL0     C13227   3.018  11.135   9.129  0.1469 -0.5775  0.6284
  101MOL0     C13228   2.911  11.057   9.072  0.4960 -0.1390  1.3105
  101MOL0     C13229   2.767  11.071   9.115  0.4514  0.4249 -0.0248
  101MOL0     O13230   2.677  11.028   9.029 -0.7103 -0.8728  0.0035
  101MOL0     C13231   2.553  11.077   9.037  0.9904 -0.9351  0.1797
  101MOL0     C13232   2.450  10.987   8.997 -0.6125  0.3130  0.1589
  101MOL0     C13233   2.324  11.038   8.979 -0.1986 -0.3651  0.3186
  101MOL0     C13234   2.294  11.167   9.004 -0.6257  0.3942  1.0511
  101MOL0     O13235   2.165  11.209   8.990  0.4225 -0.6912 -0.3117
  101MOL0     C13236   2.071  11.146   8.909 -0.4958  0.5191  0.1240
  101MOL0     C13237   1.956  11.089   9.000  0.2072  0.0511  0.1225
  101MOL0     C13238   2.013  10.991   9.107  0.5057 -0.7527  0.2883
  101MOL0     C13239   1.892  10.936   9.185 -1.0512  0.5269 -0.4839
  101MOL0     C13240   1.937  10.843   9.296  0.6452  0.3199  0.2379
  101MOL0     C13241   2.027  10.719   9.256  0.7952 -0.3243  0.5947
  101MOL0     C13242   1.967  10.629   9.140 -0.2672  0.4173 -0.2982
  101MOL0     C13243   2.072  10.514   9.103  0.2943 -0.5660  0.6723
  101MOL0    Cl13244   2.220  10.576   9.023 -0.5345  0.5499 -0.1353
  101MOL0     C13245   2.388  11.255   9.062  0.4434 -0.5781 -0.3574
  101MOL0     C13246   2.524  11.209   9.069 -0.1644 -0.0688  0.7831
  101MOL0     O13247   2.746  11.111   9.225 -0.3940  0.1820 -0.5183
  101MOL0     C13248   2.945  10.979   8.972  0.0486  0.4676  0.2872
  101MOL0     C13249   3.079  10.943   8.948  0.0901  0.4250 -0.4824
  101MOL0     N13250   3.981  11.117   8.739  0.0342 -0.8166 -0.2852
  101MOL0     N13251   4.091  11.177   8.772 -0.3516 -0.9552 -0.5849
  101MOL0     C13252   5.032  11.436   8.624 -0.5642  0.0358 -0.8319
  101MOL0     C13253   5.156  11.488   8.596 -0.8522  0.0107 -0.7831
  101MOL0     C13254   5.632  11.515   8.599  0.5138 -0.3892  0.1548
  101MOL0     C13255   5.598  11.654   8.611 -0.0199  0.1758  0.0335
  101MOL0     C13256   5.693  11.752   8.585 -0.0019 -0.5634 -0.1809
  101MOL0     C13257   5.825  11.710   8.567 -0.5364  0.1136 -0.0536
  101MOL0     O13258   5.916  11.803   8.524  0.6901  0.3392 -0.2575
  101MOL0     C13259   6.031  11.820   8.608 -0.3988 -0.6027 -0.5198
  101MOL0     C13260   6.010  11.938   8.703 -0.1636 -0.5991  0.4706
  101MOL0     C13261   5.954  12.065   8.635  0.2293  0.0355  0.1688
  101MOL0     C13262   5.823  12.108   8.707 -0.0252 -0.5152  0.5446
  101MOL0     C13263   5.748  12.211   8.638  0.3277  0.2875  0.1366
  101MOL0     C13264   5.681  12.294   8.577  1.2529 -0.5909 -0.5044
  101MOL0     C13265   5.859  11.571   8.574  0.4189 -0.1401  0.2030
  101MOL0     C13266   5.759  11.481   8.587 -0.0894  0.5508  0.0742
  101MOL0     H13267   5.347  11.198   8.641  0.5368  0.0681 -1.6330
  101MOL0     H13268   5.137  11.105   8.682  2.5431 -0.9697  0.3028
  101MOL0     H13269   4.946  11.142   8.835  2.6435  3.9668 -1.5386
  101MOL0     H13270   4.934  11.049   8.692 -0.3461  0.0984 -0.1813
  101MOL0     H13271   4.682  11.033   8.696 -0.2342 -4.3637  2.3534
  101MOL0     H13272   4.662  11.173   8.799  0.9962  1.1630 -0.5482
  101MOL0     H13273   4.801  11.050   8.979  4.5313 -2.0881 -0.9969
  101MOL0     H13274   4.813  10.917   8.871 -1.0190 -0.3381  1.6290
  101MOL0     H13275   4.576  10.893   8.835  0.9879 -0.1367 -0.8478
  101MOL0     H13276   4.640  10.849   8.993  2.5931  1.8635  0.8122
  101MOL0     H13277   4.499  11.123   8.923 -0.1514 -0.2027  0.4696
  101MOL0     H13278   4.545  11.067   9.080  0.5717 -2.0461  0.6625
  101MOL0     H13279   4.377  10.868   9.034  1.3994 -1.0662 -1.4353
  101MOL0     H13280   4.325  10.959   8.888  1.5716 -2.1119 -0.3676
  101MOL0     H13281   4.197  11.003   9.125  0.9397 -2.6784 -0.4125
  101MOL0     H13282   4.342  11.105   9.157  0.2168 -0.9321 -0.3917
  101MOL0     H13283   4.275  11.243   8.945  1.6828 -1.4864 -0.2758
  101MOL0     H13284   4.158  11.253   9.076  0.8990 -0.6886  2.0612
  101MOL0     H13285   3.981  11.027   9.051 -1.5296  1.4021 -0.1349
  101MOL0     H13286   3.801  10.891   8.894 -2.7661 -1.7900  0.1488
  101MOL0     H13287   3.744  10.978   8.750  4.5945 -0.5051 -2.2263
  101MOL0     H13288   3.682  11.173   8.911 -0.0063  0.4359 -1.1032
  101MOL0     H13289   3.714  11.056   9.041 -2.6886 -0.6338  1.1386
  101MOL0     H13290   3.500  11.046   8.811 -3.3012  0.7509  0.6116
  101MOL0     H13291   3.538  10.905   8.918 -0.1690 -0.0312  3.1064
  101MOL0     H13292   3.409  11.170   8.993 -0.9109 -0.0674 -1.9650
  101MOL0     H13293   3.456  11.023   9.101 -1.3928 -2.7382 -0.5305
  101MOL0     H13294   3.232  11.172   9.135  2.8208 -3.6600 -1.0637
  101MOL0     H13295   2.991  11.205   9.207 -3.9222 -0.2667 -0.8205
  101MOL0     H13296   2.483  10.884   8.981  0.2244  1.0039 -3.4532
  101MOL0     H13297   2.246  10.969   8.950  1.2740 -0.9172 -2.7833
  101MOL0     H13298   2.118  11.073   8.842  1.9795  1.8529  0.2586
  101MOL0     H13299   2.038  11.219   8.834 -2.3473  0.5023  0.8861
  101MOL0     H13300   1.881  11.045   8.935 -0.5518  0.8625  0.4286
  101MOL0     H13301   1.911  11.170   9.058 -0.0164  0.5464 -0.7313
  101MOL0     H13302   2.094  11.031   9.169  0.9090 -0.7314 -0.2517
  101MOL0     H13303   2.050  10.905   9.050  0.8687  0.2352 -1.0141
  101MOL0     H13304   1.852  11.021   9.242  2.5419  1.5244  0.8566
  101MOL0     H13305   1.808  10.906   9.121 -0.2532  3.3397 -3.1429
  101MOL0     H13306   1.844  10.804   9.338 -1.3641  2.5247 -1.8507
  101MOL0     H13307   1.987  10.901   9.375  3.8483  0.3551 -1.6575
  101MOL0     H13308   2.044  10.661   9.347  2.0383  2.3731  2.1898
  101MOL0     H13309   2.126  10.747   9.219  1.5687 -1.0975  1.9679
  101MOL0     H13310   1.864  10.597   9.160  0.5398 -2.1507  0.2272
  101MOL0     H13311   1.968  10.701   9.058 -2.0400  0.2934 -0.4515
  101MOL0     H13312   2.031  10.444   9.030 -0.1068  0.3369  0.0149
  101MOL0     H13313   2.092  10.457   9.194  0.6070  1.0514  1.6716
  101MOL0     H13314   2.355  11.354   9.089  1.6521  0.2889 -1.8756
  101MOL0     H13315   2.602  11.281   9.095  2.6364 -3.1102  1.4325
  101MOL0     H13316   2.877  10.906   8.929  1.0931 -2.6794  3.5437
  101MOL0     H13317   3.100  10.855   8.890  0.6825 -0.5311  1.1108
  101MOL0     H13318   4.942  11.495   8.609  0.5960  1.2196 -3.8302
  101MOL0     H13319   5.164  11.595   8.585 -0.2071  0.1384  0.6480
  101MOL0     H13320   5.494  11.685   8.614 -0.3585 -0.4265 -2.5396
  101MOL0     H13321   5.672  11.859   8.589  1.5429 -0.2576  0.1630
  101MOL0     H13322   6.124  11.832   8.552  0.3842 -0.4589  0.7644
  101MOL0     H13323   6.039  11.733   8.674 -0.8948  0.2190  0.6515
  101MOL0     H13324   5.950  11.908   8.789  1.6107 -0.2782  1.8945
  101MOL0     H13325   6.109  11.956   8.747 -0.8210 -2.4338  2.8865
  101MOL0     H13326   5.926  12.040   8.533 -1.6182 -2.4249  1.1827
  101MOL0     H13327   6.027  12.147   8.626 -2.2743  2.4409  0.4848
  101MOL0     H13328   5.755  12.029   8.740 -2.3078  2.1893  2.8107
  101MOL0     H13329   5.855  12.150   8.803 -2.6690  2.1849  0.3901
  101MOL0     H13330   5.627  12.367   8.519 -0.2847 -0.8635  0.5242
  101MOL0     H13331   5.961  11.539   8.555  0.7107 -0.1767  1.7355
  101MOL0     H13332   5.786  11.377   8.570  2.8131  0.8582  2.0395
  102MOL0     O13333   0.999   6.749   1.600  0.4860 -0.4260  0.3685
  102MOL0     C13334   0.991   6.853   1.673  0.9341 -0.1244  0.3370
  102MOL0     O13335   0.876   6.882   1.746 -0.2179 -0.4789  0.1057
  102MOL0     C13336   0.751   6.821   1.727 -1.3354 -0.0432 -0.0758
  102MOL0     C13337   0.744   6.681   1.727  0.3109  0.2723  1.0770
  102MOL0     C13338   0.627   6.611   1.719 -0.0904 -0.2527  0.2407
  102MOL0     C13339   0.505   6.679   1.699 -0.5939  0.1645 -0.3279
  102MOL0     O13340   0.398   6.591   1.686  0.3235  0.9961 -0.4144
  102MOL0     C13341   0.284   6.642   1.604  0.4360  0.1897 -0.1411
  102MOL0     C13342   0.319   6.614   1.457 -0.1299 -0.9555 -0.8479
  102MOL0     C13343   0.193   6.632   1.373  0.2534  0.3167 -0.7171
  102MOL0     C13344   0.223   6.581   1.227 -0.5836 -0.2450 -0.5061
  102MOL0     C13345   0.090   6.573   1.154  0.3966 -0.4808 -0.6011
  102MOL0     C13346   0.120   6.515   1.013 -0.5040 -0.0386  0.4177
  102MOL0     C13347  -0.014   6.458   0.956  0.2783 -0.4365  0.2641
  102MOL0     C13348  -0.054   6.334   1.025 -0.1408  0.6319  0.0724
  102MOL0     N13349   0.026   6.218   0.974  0.6594  1.0385 -0.2078
  102MOL0     C13350   0.049   6.190   0.838  0.1116 -0.3787 -0.0894
  102MOL0     C13351   0.140   6.097   0.839 -0.0794 -0.4247  0.0872
  102MOL0     C13352   0.203   6.022   0.723 -0.8913 -0.5211 -0.2270
  102MOL0     C13353   0.350   6.063   0.715 -0.4904 -0.3493  0.2439
  102MOL0     C13354   0.369   6.207   0.654  0.1368  0.3608 -0.7271
  102MOL0     C13355   0.513   6.216   0.598 -0.5154  0.0872  0.3189
  102MOL0     O13356   0.595   6.267   0.703 -0.1326 -0.1703 -0.2860
  102MOL0     C13357   0.732   6.273   0.686  0.4062 -0.0162  0.1948
  102MOL0     C13358   0.799   6.258   0.561 -0.5259  0.5036  0.1087
  102MOL0     C13359   0.935   6.265   0.549 -0.2283 -0.2232  0.3023
  102MOL0     C13360   1.024   6.265   0.655  0.5037 -0.4410  0.0205
  102MOL0     C13361   1.168   6.263   0.636  0.5092  0.2026  0.4699
  102MOL0     O13362   1.220   6.183   0.540 -0.6204 -0.3248 -0.1294
  102MOL0     C13363   1.352   6.194   0.499 -0.0253 -0.1459 -1.2596
  102MOL0     C13364   1.376   6.155   0.369  1.3940  0.0381 -0.0762
  102MOL0     C13365   1.509   6.145   0.322  0.0212  0.9402  0.9999
  102MOL0     C13366   1.620   6.153   0.404 -0.2438 -0.1898  0.5870
  102MOL0     O13367   1.754   6.153   0.371 -0.3172 -0.4172  0.5442
  102MOL0     C13368   1.822   6.031   0.348  0.1735  0.7855 -0.3936
  102MOL0     C13369   1.908   5.999   0.479  0.2851  0.9502 -0.0428
  102MOL0     C13370   1.978   6.120   0.541 -0.5665 -0.9937  0.1470
  102MOL0     C13371   2.068   6.206   0.441  0.5280  1.0259 -0.0376
  102MOL0     C13372   2.090   6.339   0.503  0.7591 -0.6852  0.0133
  102MOL0     C13373   2.211   6.403   0.429  0.8750  0.3825 -0.4049
  102MOL0     C13374   2.191   6.458   0.291 -0.1202 -0.9939 -0.3299
  102MOL0     C13375   2.309   6.440   0.204  0.5384  0.3147 -0.2423
  102MOL0    Cl13376   2.264   6.517   0.049 -0.6846  0.4175 -0.0228
  102MOL0     C13377   1.591   6.181   0.540  0.3144 -0.3239 -0.5559
  102MOL0     C13378   1.461   6.213   0.590  0.9965  0.7462  0.9276
  102MOL0     O13379   1.230   6.348   0.704  0.3400 -0.4332 -0.1664
  102MOL0     C13380   0.964   6.280   0.782  0.6870 -0.2276 -1.0491
  102MOL0     C13381   0.820   6.282   0.797  0.5105  0.2374 -0.8534
  102MOL0     N13382   0.170   6.066   0.973 -0.0268 -0.0702 -0.0238
  102MOL0     N13383   0.095   6.136   1.050 -0.0376  0.4113 -0.0273
  102MOL0     C13384   0.513   6.820   1.692  0.8375 -0.1072  0.1416
  102MOL0     C13385   0.637   6.886   1.709  0.2377  0.1880 -0.4971
  102MOL0     C13386   1.103   6.954   1.685 -0.7264 -0.6051  0.6366
  102MOL0     C13387   1.088   7.080   1.742 -0.0162 -0.0259  0.4402
  102MOL0     C13388   1.191   7.173   1.744  0.2017 -1.1908  0.0069
  102MOL0     C13389   1.313   7.148   1.675  0.8059 -0.7185 -0.0030
  102MOL0     O13390   1.415   7.240   1.662 -0.0653  0.1545  0.5839
  102MOL0     C13391   1.441   7.319   1.780  0.4237 -0.6772  0.8903
  102MOL0     C13392   1.567   7.253   1.855  0.2881 -0.6704  0.0587
  102MOL0     C13393   1.672   7.247   1.741 -0.2029  0.6045 -0.7396
  102MOL0     C13394   1.698   7.380   1.664 -0.0993 -1.0350 -0.6901
  102MOL0     C13395   1.833   7.395   1.602 -0.0251  0.7516  0.0991
  102MOL0     C13396   1.936   7.419   1.545  0.0155  0.4233  0.0374
  102MOL0     C13397   1.336   7.025   1.610  0.1255 -0.5134  0.0868
  102MOL0     C13398   1.232   6.922   1.625 -0.9113 -0.0532  0.2761
  102MOL0     H13399   0.833   6.619   1.730 -0.6660 -1.4082 -1.3305
  102MOL0     H13400   0.628   6.502   1.724 -1.2618 -0.3390 -0.8600
  102MOL0     H13401   0.263   6.746   1.628 -0.6389 -0.5106  2.3615
  102MOL0     H13402   0.185   6.597   1.620  0.8693 -0.8014 -0.1284
  102MOL0     H13403   0.345   6.508   1.458 -1.9007 -1.4292 -1.1390
  102MOL0     H13404   0.395   6.687   1.429 -2.9509  2.7644  0.3545
  102MOL0     H13405   0.159   6.736   1.374  2.2626  1.0521 -2.3885
  102MOL0     H13406   0.113   6.573   1.418  0.1636  0.3702 -0.8039
  102MOL0     H13407   0.299   6.652   1.192  0.7708  0.0331  2.6278
  102MOL0     H13408   0.266   6.482   1.243  0.2103  0.5727  3.7920
  102MOL0     H13409   0.052   6.676   1.150  2.3890  0.2564 -2.0360
  102MOL0     H13410   0.030   6.503   1.213  0.4059 -1.4850 -1.7391
  102MOL0     H13411   0.190   6.431   1.025  0.6477  1.2447  3.6683
  102MOL0     H13412   0.154   6.590   0.941  0.8027 -0.7069  0.3057
  102MOL0     H13413  -0.086   6.539   0.970 -1.3103 -1.6072 -0.9319
  102MOL0     H13414  -0.004   6.444   0.848  0.9029 -0.1156  0.2726
  102MOL0     H13415  -0.160   6.314   1.005  0.3837 -0.0327 -2.4057
  102MOL0     H13416  -0.042   6.338   1.133 -1.4905 -2.4598  0.4329
  102MOL0     H13417   0.001   6.250   0.761 -0.5236 -0.8331 -0.0590
  102MOL0     H13418   0.153   6.055   0.632  1.2909 -0.7006 -1.5773
  102MOL0     H13419   0.197   5.914   0.740  0.1001 -0.1318  3.5352
  102MOL0     H13420   0.396   5.987   0.652 -0.3291 -2.7223  3.0086
  102MOL0     H13421   0.395   6.067   0.815 -0.0803 -2.1306  0.1691
  102MOL0     H13422   0.295   6.226   0.577  1.8316  0.3250 -2.4469
  102MOL0     H13423   0.361   6.270   0.743 -0.6847 -0.9393  0.1513
  102MOL0     H13424   0.500   6.277   0.508 -4.1799 -0.0604  0.5790
  102MOL0     H13425   0.544   6.115   0.569 -1.0484 -0.1951  0.7089
  102MOL0     H13426   0.734   6.245   0.475 -0.9397 -1.2220  0.6333
  102MOL0     H13427   0.972   6.254   0.447 -1.9879 -2.2811 -0.1897
  102MOL0     H13428   1.287   6.148   0.307  0.3470 -2.2402  1.5755
  102MOL0     H13429   1.525   6.111   0.220  0.3882 -0.4878  1.5123
  102MOL0     H13430   1.886   6.050   0.262 -2.8671  2.9863 -2.3832
  102MOL0     H13431   1.753   5.950   0.321  1.7336 -0.3783 -1.0452
  102MOL0     H13432   1.970   5.910   0.466 -0.3451 -0.1059  3.1611
  102MOL0     H13433   1.846   5.966   0.563 -0.5490 -0.6936 -1.2598
  102MOL0     H13434   2.054   6.084   0.612  2.3220 -3.8326 -3.9000
  102MOL0     H13435   1.896   6.169   0.593 -1.1225 -3.7511  2.0909
  102MOL0     H13436   2.161   6.152   0.421  2.4184  2.3091  4.1547
  102MOL0     H13437   2.011   6.229   0.350  0.7064  1.7911  0.0438
  102MOL0     H13438   2.131   6.329   0.604  1.5268 -2.7601 -0.4505
  102MOL0     H13439   1.998   6.397   0.503  0.3500 -1.2833 -1.8212
  102MOL0     H13440   2.295   6.333   0.427  0.3719 -0.4305  2.5073
  102MOL0     H13441   2.234   6.480   0.502  1.3999  1.6242 -1.8329
  102MOL0     H13442   2.102   6.406   0.255 -2.6624  1.3052  2.0743
  102MOL0     H13443   2.162   6.563   0.307 -0.2066 -1.1135  0.3325
  102MOL0     H13444   2.337   6.334   0.200  0.2055  0.2276 -0.2980
  102MOL0     H13445   2.383   6.502   0.254 -1.1056  1.5781  0.6980
  102MOL0     H13446   1.668   6.190   0.615 -2.4408 -0.6614  2.5795
  102MOL0     H13447   1.452   6.238   0.695  1.2158 -1.8206  1.6206
  102MOL0     H13448   1.017   6.290   0.877  0.9172 -0.3200 -1.1663
  102MOL0     H13449   0.786   6.280   0.900  1.9024 -2.5732 -0.3301
  102MOL0     H13450   0.421   6.874   1.676  0.3868 -0.1080  2.3630
  102MOL0     H13451   0.638   6.995   1.703  1.5210  0.1976 -0.3307
  102MOL0     H13452   0.997   7.090   1.800  0.1202 -0.7144  0.7865
  102MOL0     H13453   1.180   7.268   1.794 -2.4833 -1.6521  0.4393
  102MOL0     H13454   1.358   7.336   1.849 -0.0950  1.6879 -0.2400
  102MOL0     H13455   1.475   7.413   1.737  0.4390 -1.0481  0.0789
  102MOL0     H13456   1.601   7.314   1.939 -2.3561  0.8974  0.0743
  102MOL0     H13457   1.553   7.153   1.898 -0.2312 -0.3713  0.6026
  102MOL0     H13458   1.651   7.175   1.661  0.1853  2.1023 -2.2352
  102MOL0     H13459   1.764   7.213   1.791  0.2722 -1.0960 -2.6546
  102MOL0     H13460   1.633   7.380   1.576  1.4258 -0.0927 -1.8734
  102MOL0     H13461   1.675   7.471   1.721 -1.9979 -0.3948 -2.3377
  102MOL0     H13462   2.030   7.450   1.505  0.3209  3.4554  2.6687
  102MOL0     H13463   1.433   7.019   1.562  0.3855 -1.8978  0.7296
  102MOL0     H13464   1.256   6.827   1.579  0.7362  0.3886  0.1529
  103MOL0     O13465   9.856   8.336   9.886 -0.0869 -0.4174  0.1704
  103MOL0     C13466   9.895   8.295   9.994  0.1315  0.9372 -0.1404
  103MOL0     O13467   9.815   8.244  10.089 -0.2693  0.1636 -0.4037
  103MOL0     C13468   9.679   8.244  10.064 -0.3104  0.2123  0.0152
  103MOL0     C13469   9.608   8.362  10.074 -0.2129  0.7916 -0.4923
  103MOL0     C13470   9.473   8.367  10.063  0.6218  1.4434  0.3320
  103MOL0     C13471   9.394   8.260  10.015  0.0473  0.0754  0.3525
  103MOL0     O13472   9.264   8.283   9.990  0.8299  0.1717 -0.4609
  103MOL0     C13473   9.182   8.177   9.935  0.5553  0.0356  0.4754
  103MOL0     C13474   9.034   8.212   9.942  0.5331 -0.2519  0.2132
  103MOL0     C13475   8.991   8.242  10.086 -0.1093  0.1768 -0.1340
  103MOL0     C13476   8.841   8.261  10.100 -0.9592  0.8100 -0.6969
  103MOL0     C13477   8.791   8.259  10.251 -0.1290  0.1131  0.2103
  103MOL0     C13478   8.632   8.274  10.250 -0.2594 -0.0789 -0.5527
  103MOL0     C13479   8.560   8.294  10.387 -0.3502  0.7047 -0.2560
  103MOL0     C13480   8.593   8.174  10.465  0.1220  1.3699  0.0319
  103MOL0     N13481   8.537   8.183  10.604  0.5623 -0.3070 -0.0368
  103MOL0     C13482   8.405   8.152  10.638 -0.4197 -2.1536  0.3503
  103MOL0     C13483   8.410   8.187  10.768  0.1406  0.0248  0.1338
  103MOL0     C13484   8.299   8.161  10.860  0.5009  0.9474 -0.0678
  103MOL0     C13485   8.178   8.250  10.805  0.2493  0.6190 -0.7244
  103MOL0     C13486   8.060   8.246  10.897  0.0671 -0.3941 -0.6406
  103MOL0     C13487   7.993   8.108  10.902 -0.6828  0.5092  0.4983
  103MOL0     O13488   7.873   8.150  10.957  0.1381  0.4356 -0.4309
  103MOL0     C13489   7.782   8.055  10.991 -0.1865 -0.1728  0.2761
  103MOL0     C13490   7.678   8.097  11.078 -0.8632  1.1725  0.5543
  103MOL0     C13491   7.577   8.005  11.109 -0.1796 -0.1512 -0.1988
  103MOL0     C13492   7.567   7.875  11.061 -0.0444  0.2346 -0.3769
  103MOL0     C13493   7.454   7.787  11.100 -0.5940  0.3676 -0.0851
  103MOL0     O13494   7.347   7.842  11.152  0.0226 -0.7654 -0.3386
  103MOL0     C13495   7.245   7.763  11.188  0.0099  0.3179 -0.0814
  103MOL0     C13496   7.247   7.697  11.308  0.1817 -0.0933  0.1017
  103MOL0     C13497   7.128   7.630  11.354 -0.5998 -1.6095 -0.5265
  103MOL0     C13498   7.013   7.629  11.275  0.3592 -0.1111  0.9593
  103MOL0     O13499   6.897   7.574  11.330 -0.8307 -0.0969 -0.2567
  103MOL0     C13500   6.805   7.522  11.239  0.7805 -0.1555 -0.5032
  103MOL0     C13501   6.693   7.465  11.319  0.6605  0.4699  0.2315
  103MOL0     C13502   6.614   7.570  11.395  0.0534 -0.3717 -0.1813
  103MOL0     C13503   6.516   7.505  11.498  0.6104  0.3284 -0.6768
  103MOL0     C13504   6.430   7.592  11.598  0.3377  0.4557 -0.3035
  103MOL0     C13505   6.517   7.655  11.702 -0.9116  0.5549  0.8672
  103MOL0     C13506   6.434   7.753  11.789 -0.8646  0.2025  0.1645
  103MOL0     C13507   6.532   7.841  11.878 -0.3438  0.1631  0.4505
  103MOL0    Cl13508   6.617   7.746  11.998  0.2902 -0.1598 -0.1339
  103MOL0     C13509   7.018   7.693  11.150 -0.0435  0.1742 -0.4155
  103MOL0     C13510   7.132   7.765  11.113  0.4081  0.1185  1.1802
  103MOL0     O13511   7.484   7.668  11.096 -0.4441 -0.7530  0.4613
  103MOL0     C13512   7.672   7.835  10.979 -0.4644  0.0883 -0.0264
  103MOL0     C13513   7.780   7.922  10.945  0.2047 -0.8773 -0.1835
  103MOL0     N13514   8.526   8.245  10.803  0.2087  0.1217  0.1530
  103MOL0     N13515   8.608   8.252  10.706  0.0835 -0.5283  0.7594
  103MOL0     C13516   9.462   8.139   9.982  0.0482  0.1385 -0.7952
  103MOL0     C13517   9.602   8.137  10.014  0.4118 -0.0934  0.2176
  103MOL0     C13518  10.042   8.254  10.006  0.2358  0.1096  0.0200
  103MOL0     C13519  10.089   8.164  10.106  0.5912 -0.0521 -1.1065
  103MOL0     C13520  10.223   8.141  10.131 -0.6755 -0.2697  0.1802
  103MOL0     C13521  10.317   8.207  10.055 -0.3926  0.2498 -0.4002
  103MOL0     O13522  10.445   8.190  10.102  0.7067  0.2975  0.3092
  103MOL0     C13523  10.553   8.247  10.023 -0.0674 -0.4752 -0.3042
  103MOL0     C13524  10.675   8.167  10.066 -0.0218  0.8743 -0.6023
  103MOL0     C13525  10.805   8.207   9.985 -0.2784 -0.4355 -0.4673
  103MOL0     C13526  10.902   8.089   9.953  0.0968  0.4387  0.1399
  103MOL0     C13527  10.946   8.032  10.078 -0.1301 -0.6883 -0.1192
  103MOL0     C13528  10.994   7.975  10.171 -0.0140 -0.1646 -0.8409
  103MOL0     C13529  10.283   8.297   9.955  0.4089 -0.3289 -0.6803
  103MOL0     C13530  10.147   8.324   9.932  0.2180  0.6067  0.5363
  103MOL0     H13531   9.651   8.459  10.095 -0.2275  0.8454 -0.7104
  103MOL0     H13532   9.438   8.469  10.079  1.1780  1.6440  0.3235
  103MOL0     H13533   9.200   8.074   9.965  1.7947 -0.9215 -2.9696
  103MOL0     H13534   9.197   8.169   9.826 -1.9313 -0.5124  0.1307
  103MOL0     H13535   8.973   8.129   9.905  1.5051 -1.5961  1.5205
  103MOL0     H13536   9.009   8.288   9.867 -0.0983 -1.1665 -0.5296
  103MOL0     H13537   9.035   8.331  10.130 -0.5750 -0.3000  1.3294
  103MOL0     H13538   9.016   8.162  10.156  0.0186  0.8558  0.5990
  103MOL0     H13539   8.812   8.351  10.046 -1.7172 -0.7664 -3.0666
  103MOL0     H13540   8.785   8.188  10.042 -0.6909  0.8369 -0.9942
  103MOL0     H13541   8.843   8.342  10.299 -0.6065  1.7073 -1.8496
  103MOL0     H13542   8.825   8.168  10.302 -0.3447  0.2351  0.5705
  103MOL0     H13543   8.594   8.183  10.201  0.7564 -1.5693  1.2946
  103MOL0     H13544   8.604   8.363  10.194  0.8479  1.6292  1.4852
  103MOL0     H13545   8.597   8.374  10.451 -0.0840 -1.8673  3.1121
  103MOL0     H13546   8.453   8.303  10.364 -1.2912 -3.4780  1.5233
  103MOL0     H13547   8.699   8.172  10.494  0.3964 -0.5539 -0.9223
  103MOL0     H13548   8.569   8.081  10.412  0.5501  1.3588 -0.1458
  103MOL0     H13549   8.324   8.102  10.584 -0.8623 -2.1344  0.9828
  103MOL0     H13550   8.320   8.193  10.962  1.7661 -3.2836  1.2158
  103MOL0     H13551   8.280   8.053  10.864  0.7665  0.8900 -0.3556
  103MOL0     H13552   8.159   8.209  10.706  3.4483 -2.2693 -0.3605
  103MOL0     H13553   8.207   8.354  10.784  0.1529  0.4717 -1.5955
  103MOL0     H13554   8.081   8.256  11.004 -0.3327  1.2886 -0.6977
  103MOL0     H13555   8.004   8.335  10.867  2.6993  1.5921 -0.1126
  103MOL0     H13556   8.043   8.033  10.964  0.6555 -0.5093 -1.6948
  103MOL0     H13557   7.987   8.073  10.799  1.2426 -0.8333  0.8119
  103MOL0     H13558   7.685   8.194  11.125  3.4539  0.8261  1.0972
  103MOL0     H13559   7.496   8.036  11.174 -1.4438  0.1444 -1.8316
  103MOL0     H13560   7.333   7.696  11.375  3.5032  0.0324 -3.7818
  103MOL0     H13561   7.131   7.591  11.455 -0.2236  0.0796  0.1541
  103MOL0     H13562   6.843   7.454  11.162 -1.4847 -0.3895 -1.5059
  103MOL0     H13563   6.766   7.608  11.183 -0.6957 -0.2949  0.2760
  103MOL0     H13564   6.733   7.395  11.393  0.2635  0.4734  0.4496
  103MOL0     H13565   6.630   7.407  11.250 -1.1136 -0.1137  2.2445
  103MOL0     H13566   6.556   7.627  11.322  0.7055  2.2109  1.2045
  103MOL0     H13567   6.681   7.641  11.445 -1.5129  0.1732  1.2267
  103MOL0     H13568   6.440   7.446  11.445  0.5561 -2.4559  2.2103
  103MOL0     H13569   6.574   7.426  11.547  1.7761  0.0428 -2.3993
  103MOL0     H13570   6.359   7.525  11.648 -0.8806  1.6388 -0.3981
  103MOL0     H13571   6.373   7.668  11.544 -0.0106  1.2237  1.1035
  103MOL0     H13572   6.597   7.705  11.646 -0.3604 -0.9525  0.2817
  103MOL0     H13573   6.562   7.576  11.762 -1.2549 -3.7248 -3.9026
  103MOL0     H13574   6.382   7.821  11.720 -2.3438 -0.9390  0.0980
  103MOL0     H13575   6.369   7.704  11.862  1.6435 -0.7798  1.8787
  103MOL0     H13576   6.464   7.910  11.929 -0.0100  1.4546 -0.7919
  103MOL0     H13577   6.599   7.899  11.814  0.2868 -1.4170 -0.3860
  103MOL0     H13578   6.931   7.710  11.088  0.3707  1.5564 -0.6606
  103MOL0     H13579   7.134   7.824  11.022 -0.8173  0.0029  1.0535
  103MOL0     H13580   7.667   7.737  10.934 -0.0331 -1.0156  2.1621
  103MOL0     H13581   7.848   7.893  10.866 -0.7520 -1.4762 -0.8014
  103MOL0     H13582   9.415   8.048   9.946  0.8020  1.0378 -4.5035
  103MOL0     H13583   9.660   8.046   9.999 -0.6621 -0.7418 -0.1465
  103MOL0     H13584  10.010   8.109  10.157 -0.6190 -1.2790 -4.0689
  103MOL0     H13585  10.251   8.066  10.203 -2.3953  0.0664  1.2569
  103MOL0     H13586  10.556   8.351  10.056  1.7035 -0.3680 -0.7074
  103MOL0     H13587  10.538   8.249   9.914 -1.8177 -0.4479 -0.0979
  103MOL0     H13588  10.686   8.178  10.174 -1.5425  1.2254 -0.4704
  103MOL0     H13589  10.663   8.061  10.042  3.5508  0.9364 -3.5782
  103MOL0     H13590  10.859   8.283  10.044 -2.5188 -0.6845  2.0863
  103MOL0     H13591  10.775   8.254   9.892 -1.2314 -1.1535 -0.5304
  103MOL0     H13592  10.853   8.017   9.885 -0.0011  0.1317  0.5356
  103MOL0     H13593  10.988   8.118   9.892 -0.6003  0.1749 -1.0229
  103MOL0     H13594  11.034   7.914  10.250 -2.0015 -1.1707 -0.5305
  103MOL0     H13595  10.359   8.353   9.900  0.5330  0.5279  0.3358
  103MOL0     H13596  10.125   8.387   9.846  1.8352 -1.0800 -1.2169
  104MOL0     O13597   9.168   3.377   3.009 -0.4961 -0.0010  1.3685
  104MOL0     C13598   9.205   3.336   3.112 -0.2511  0.2969 -0.3822
  104MOL0     O13599   9.135   3.252   3.192 -1.1074  0.6046  0.0662
  104MOL0     C13600   9.009   3.220   3.160 -0.4709 -0.3938  0.3776
  104MOL0     C13601   8.974   3.137   3.056 -0.3572 -0.5785  0.1885
  104MOL0     C13602   8.837   3.111   3.025  0.3306  0.2876 -0.1452
  104MOL0     C13603   8.739   3.176   3.108  0.1892 -0.1254  0.8173
  104MOL0     O13604   8.603   3.157   3.101 -0.7022  0.0612  0.0554
  104MOL0     C13605   8.539   3.098   2.979  0.2741  0.0365  0.1837
  104MOL0     C13606   8.392   3.139   2.974 -0.1393 -0.0767 -0.3066
  104MOL0     C13607   8.327   3.121   2.837 -0.5383 -0.0349  1.0220
  104MOL0     C13608   8.174   3.118   2.836  0.6128  0.5747 -0.4693
  104MOL0     C13609   8.120   3.256   2.798  0.0329 -0.7655 -0.5117
  104MOL0     C13610   7.970   3.272   2.803 -0.6352  0.4395  0.2436
  104MOL0     C13611   7.889   3.197   2.701  0.1281  0.4851  0.0546
  104MOL0     C13612   7.942   3.223   2.562 -0.5054 -0.3712  0.1744
  104MOL0     N13613   7.859   3.148   2.469 -0.1931  0.2793 -0.3198
  104MOL0     C13614   7.729   3.188   2.443  0.5927  0.0904  0.3374
  104MOL0     C13615   7.694   3.118   2.330  0.4192  0.3527  0.1836
  104MOL0     C13616   7.567   3.115   2.249  0.3817  0.1632 -0.3829
  104MOL0     C13617   7.472   2.993   2.295  0.4320 -0.7136 -0.5866
  104MOL0     C13618   7.499   2.857   2.218 -0.0913 -0.1065 -0.3888
  104MOL0     C13619   7.399   2.755   2.253  0.7287 -0.1596  0.7652
  104MOL0     O13620   7.285   2.807   2.196  0.3773  0.5353 -0.3021
  104MOL0     C13621   7.172   2.726   2.179 -0.1510 -0.1563 -0.1202
  104MOL0     C13622   7.083   2.774   2.087 -0.2304  0.1286  1.0812
  104MOL0     C13623   6.955   2.710   2.060 -0.8612  0.1256  0.4249
  104MOL0     C13624   6.931   2.588   2.129 -0.2017 -0.6895 -0.3110
  104MOL0     C13625   6.807   2.502   2.116 -0.2728 -0.1920  0.1022
  104MOL0     O13626   6.718   2.545   2.020  0.3648 -0.3525 -0.7566
  104MOL0     C13627   6.624   2.450   1.980 -0.9192 -0.0719  0.4067
  104MOL0     C13628   6.669   2.347   1.894  0.6842 -0.3919  0.7391
  104MOL0     C13629   6.576   2.256   1.835  0.4879 -0.3297  0.2175
  104MOL0     C13630   6.439   2.259   1.868  0.8562 -0.3719  0.5633
  104MOL0     O13631   6.346   2.183   1.804 -0.1784 -0.6326  0.2445
  104MOL0     C13632   6.386   2.048   1.803 -0.1599  0.3360 -0.2194
  104MOL0     C13633   6.260   1.980   1.828 -0.4787  0.1170  0.2699
  104MOL0     C13634   6.178   1.982   1.698  0.0562  0.4550  0.1669
  104MOL0     C13635   6.046   1.917   1.745 -0.8546 -0.2276  0.4363
  104MOL0     C13636   5.960   1.897   1.625  0.0278 -0.6636 -1.0109
  104MOL0     C13637   5.872   1.771   1.616  0.1838 -0.6656  0.9753
  104MOL0     C13638   5.757   1.774   1.732  0.2026  0.7564 -0.0350
  104MOL0     C13639   5.748   1.633   1.797  0.2698  0.8638  0.5543
  104MOL0    Cl13640   5.659   1.627   1.948 -0.2107 -0.3469  0.2073
  104MOL0     C13641   6.390   2.362   1.958 -0.2968  0.6860  0.7620
  104MOL0     C13642   6.488   2.452   2.011  0.2221  0.7355 -0.3995
  104MOL0     O13643   6.812   2.390   2.161  0.8206  0.3156  0.1341
  104MOL0     C13644   7.030   2.541   2.221  0.1255  1.0388  0.4729
  104MOL0     C13645   7.145   2.609   2.245  0.0020 -0.3136  0.1347
  104MOL0     N13646   7.805   3.046   2.295  0.2605  0.5814 -0.3817
  104MOL0     N13647   7.904   3.055   2.379  0.1066 -0.2087  0.3686
  104MOL0     C13648   8.777   3.271   3.206 -0.3995  0.2573 -0.9690
  104MOL0     C13649   8.909   3.290   3.233  0.8787 -0.1476 -0.3049
  104MOL0     C13650   9.354   3.345   3.147 -0.4162 -0.3808  0.8590
  104MOL0     C13651   9.390   3.343   3.286  0.2461 -0.7184 -0.8314
  104MOL0     C13652   9.528   3.363   3.323  0.5131  0.7039 -0.3336
  104MOL0     C13653   9.631   3.394   3.233 -0.6519  0.2146  0.2433
  104MOL0     O13654   9.760   3.425   3.280 -0.6308  1.1927 -0.1201
  104MOL0     C13655   9.882   3.390   3.201 -0.5808 -0.7514 -0.6547
  104MOL0     C13656   9.958   3.522   3.204 -0.5463 -0.3479 -0.5743
  104MOL0     C13657  10.087   3.523   3.127  0.3839  1.1276  0.2626
  104MOL0     C13658  10.203   3.437   3.193  0.2261  0.4275 -0.7379
  104MOL0     C13659  10.272   3.518   3.302 -0.2789  0.0078 -0.2872
  104MOL0     C13660  10.313   3.591   3.393  0.1953  0.3677 -0.4542
  104MOL0     C13661   9.588   3.402   3.100  0.4252  1.1110  0.0811
  104MOL0     C13662   9.455   3.372   3.062  0.0535 -0.0305  0.7215
  104MOL0     H13663   9.051   3.092   2.995  0.5569  0.5144  0.5049
  104MOL0     H13664   8.810   3.052   2.939 -2.2301  0.4751  0.4394
  104MOL0     H13665   8.549   2.989   2.990  3.0373 -0.0043 -1.6135
  104MOL0     H13666   8.589   3.126   2.886 -0.0913  1.6772  0.4503
  104MOL0     H13667   8.392   3.246   2.995  0.3312 -0.2240  0.4898
  104MOL0     H13668   8.331   3.095   3.052  1.9739 -2.0832  0.3300
  104MOL0     H13669   8.369   3.024   2.807 -2.7206 -1.2784  1.7289
  104MOL0     H13670   8.350   3.201   2.766 -2.5168  0.7577  1.2188
  104MOL0     H13671   8.136   3.047   2.762 -0.0601  1.2022 -0.7275
  104MOL0     H13672   8.138   3.087   2.935 -0.4238 -4.4414 -2.0852
  104MOL0     H13673   8.167   3.285   2.703  2.6502  0.1938  0.9819
  104MOL0     H13674   8.162   3.333   2.864 -1.6492  0.6065 -0.9774
  104MOL0     H13675   7.942   3.377   2.793 -3.5274 -0.3116 -0.4952
  104MOL0     H13676   7.945   3.233   2.903  1.2269 -1.7259 -0.0632
  104MOL0     H13677   7.879   3.091   2.727  1.1391  0.6137  1.0378
  104MOL0     H13678   7.792   3.248   2.702  1.0403  2.3535 -1.0356
  104MOL0     H13679   8.040   3.175   2.557  0.0096  0.6144  0.4936
  104MOL0     H13680   7.942   3.329   2.535  0.8294 -0.7628 -1.5198
  104MOL0     H13681   7.682   3.270   2.496 -0.3360  0.4150 -0.9358
  104MOL0     H13682   7.589   3.099   2.143 -0.1043  1.6997 -0.7365
  104MOL0     H13683   7.520   3.213   2.264 -1.1038 -0.9442  3.1307
  104MOL0     H13684   7.367   3.020   2.279  0.1565 -0.0975  1.8580
  104MOL0     H13685   7.482   2.990   2.404 -0.2810  3.2780 -0.2599
  104MOL0     H13686   7.510   2.866   2.109 -2.5783  2.1422 -0.5536
  104MOL0     H13687   7.601   2.827   2.244  0.4230  1.2008 -0.7982
  104MOL0     H13688   7.396   2.734   2.360  1.1341 -0.5850  0.6952
  104MOL0     H13689   7.422   2.659   2.205 -2.7507 -1.0968  0.7422
  104MOL0     H13690   7.113   2.861   2.029  0.0301  0.1077  1.1824
  104MOL0     H13691   6.885   2.753   1.989 -3.5220 -3.2300  0.7411
  104MOL0     H13692   6.777   2.350   1.889  0.6354  1.9246 -2.7415
  104MOL0     H13693   6.612   2.189   1.757 -1.7633  1.4335 -2.5629
  104MOL0     H13694   6.455   2.021   1.883  0.0820 -0.2310 -0.6066
  104MOL0     H13695   6.432   2.017   1.708 -0.6597 -1.3038  0.0393
  104MOL0     H13696   6.197   2.022   1.908 -0.8494 -0.1857  0.1396
  104MOL0     H13697   6.275   1.880   1.870 -0.5267  0.4645  1.1321
  104MOL0     H13698   6.232   1.917   1.629 -1.0616  1.0033 -1.2803
  104MOL0     H13699   6.180   2.082   1.655 -0.8177  0.4749  0.1609
  104MOL0     H13700   6.052   1.816   1.788  2.5039  0.2854  1.4230
  104MOL0     H13701   6.009   1.990   1.817 -0.3148 -0.9847  1.5058
  104MOL0     H13702   6.018   1.903   1.533  0.8297 -1.8065 -0.6072
  104MOL0     H13703   5.903   1.990   1.622  1.4871  0.2322 -1.4567
  104MOL0     H13704   5.930   1.680   1.636 -0.5040 -1.6785 -1.3008
  104MOL0     H13705   5.821   1.759   1.519  0.9579 -0.1489  0.4964
  104MOL0     H13706   5.782   1.849   1.807  1.2887 -0.2146  0.6150
  104MOL0     H13707   5.657   1.793   1.695  0.0797  0.2428  0.0178
  104MOL0     H13708   5.841   1.582   1.823  0.6587  0.7480 -0.9804
  104MOL0     H13709   5.684   1.569   1.735  1.9513 -1.8610  1.5014
  104MOL0     H13710   6.283   2.366   1.976 -0.5880 -0.4371 -0.5953
  104MOL0     H13711   6.459   2.529   2.083 -0.9505  0.5122 -0.6104
  104MOL0     H13712   7.027   2.439   2.257  2.2087 -0.2218 -2.4794
  104MOL0     H13713   7.218   2.567   2.314  1.2740  3.4014  1.2585
  104MOL0     H13714   8.704   3.310   3.277 -1.5290  1.0127 -2.4777
  104MOL0     H13715   8.937   3.339   3.326 -3.3076  1.1758  0.4549
  104MOL0     H13716   9.323   3.338   3.371 -0.0523  1.2643 -0.8911
  104MOL0     H13717   9.563   3.356   3.426  1.3067 -1.6629 -0.6986
  104MOL0     H13718   9.855   3.370   3.097  0.8249  1.1030 -1.4264
  104MOL0     H13719   9.946   3.307   3.231 -0.6285 -1.5258 -2.5533
  104MOL0     H13720   9.891   3.601   3.171 -1.6847 -1.2706 -0.5229
  104MOL0     H13721   9.970   3.549   3.310  2.5592 -1.6702 -0.4611
  104MOL0     H13722  10.127   3.621   3.102  4.5419 -1.2292 -3.8626
  104MOL0     H13723  10.068   3.455   3.043  0.8949  0.0571  0.9889
  104MOL0     H13724  10.156   3.349   3.237  2.7301 -1.4382 -1.5548
  104MOL0     H13725  10.279   3.410   3.119  0.6077  2.9860 -1.3784
  104MOL0     H13726  10.340   3.644   3.482 -0.4086 -0.0145 -0.0379
  104MOL0     H13727   9.654   3.438   3.022 -0.8227 -2.0831 -2.6876
  104MOL0     H13728   9.427   3.372   2.958 -0.0347 -0.9566  0.7337
  105MOL0     O13729   1.502   0.631   4.203  0.2372 -0.3565 -0.0099
  105MOL0     C13730   1.491   0.538   4.285  0.4696 -0.4879  1.0084
  105MOL0     O13731   1.381   0.514   4.360 -0.0292  0.0422 -0.5715
  105MOL0     C13732   1.261   0.582   4.345  0.3336 -1.4892  0.0139
  105MOL0     C13733   1.142   0.512   4.329  0.0450 -0.0800 -0.5891
  105MOL0     C13734   1.025   0.579   4.310 -0.2291  0.4398 -0.0161
  105MOL0     C13735   1.012   0.720   4.324  0.2614  0.0878 -0.3850
  105MOL0     O13736   0.904   0.801   4.315  0.7795  0.9554  0.4241
  105MOL0     C13737   0.786   0.727   4.334  0.3504 -0.4609 -0.1525
  105MOL0     C13738   0.672   0.835   4.333 -0.8305  0.0244 -0.1874
  105MOL0     C13739   0.554   0.755   4.287 -1.2501 -0.0137 -0.2393
  105MOL0     C13740   0.435   0.855   4.305  0.0375  0.1554 -0.6433
  105MOL0     C13741   0.310   0.793   4.243  0.0183 -0.4330  0.7227
  105MOL0     C13742   0.194   0.887   4.268  0.1148  0.0844 -0.3722
  105MOL0     C13743   0.056   0.833   4.230 -0.4330  0.8442 -0.0888
  105MOL0     C13744  -0.054   0.931   4.276 -0.6556  0.3235  0.3756
  105MOL0     N13745  -0.183   0.878   4.247  0.0227  1.0916 -0.0458
  105MOL0     C13746  -0.244   0.773   4.314  0.0649  0.5666 -0.1837
  105MOL0     C13747  -0.377   0.782   4.276 -0.6744  0.5078 -0.0063
  105MOL0     C13748  -0.475   0.670   4.311 -0.5823  0.6693  0.5064
  105MOL0     C13749  -0.609   0.708   4.377  0.3445  0.1581 -0.4819
  105MOL0     C13750  -0.714   0.721   4.270  0.2994  0.6269  0.2471
  105MOL0     C13751  -0.841   0.770   4.328  0.4712  0.0909 -0.1498
  105MOL0     O13752  -0.912   0.676   4.411  0.6689  0.2354  0.7972
  105MOL0     C13753  -1.048   0.672   4.382 -0.5119  0.5736  0.0477
  105MOL0     C13754  -1.136   0.686   4.488  0.3095  0.3001  0.7902
  105MOL0     C13755  -1.274   0.698   4.462  0.1563  0.8636  0.8070
  105MOL0     C13756  -1.332   0.671   4.342  0.2575 -0.0570 -0.1409
  105MOL0     C13757  -1.475   0.665   4.319  0.1343 -0.4572 -0.0880
  105MOL0     O13758  -1.560   0.663   4.426 -0.8082 -0.2721 -0.4819
  105MOL0     C13759  -1.687   0.630   4.420 -0.6686 -0.5853  0.7441
  105MOL0     C13760  -1.737   0.530   4.330  1.0821  0.5720 -0.3826
  105MOL0     C13761  -1.874   0.500   4.322  0.4348 -0.3401 -0.3836
  105MOL0     C13762  -1.963   0.571   4.406  0.7440 -0.2005  0.2934
  105MOL0     O13763  -2.100   0.526   4.396  0.1322 -0.3344  0.8849
  105MOL0     C13764  -2.193   0.611   4.457 -0.3936  0.6893 -0.7849
  105MOL0     C13765  -2.335   0.572   4.414 -0.8176 -0.3799  0.4636
  105MOL0     C13766  -2.429   0.647   4.508 -0.3907 -0.0309  0.3121
  105MOL0     C13767  -2.569   0.639   4.449 -0.3871  1.5701 -0.8646
  105MOL0     C13768  -2.670   0.720   4.531  0.1279  0.5066 -0.1495
  105MOL0     C13769  -2.811   0.698   4.476  0.6020  0.7740 -0.7602
  105MOL0     C13770  -2.906   0.774   4.580 -0.2695 -0.0630  0.2479
  105MOL0     C13771  -3.048   0.742   4.563 -0.4647  0.5551 -0.5002
  105MOL0    Cl13772  -3.143   0.881   4.632  0.0340 -0.4697 -0.0522
  105MOL0     C13773  -1.909   0.667   4.502  0.9174  0.6040  0.3260
  105MOL0     C13774  -1.771   0.694   4.508  0.1338 -0.0267  0.6539
  105MOL0     O13775  -1.499   0.636   4.203  0.2391 -0.9030 -0.2326
  105MOL0     C13776  -1.241   0.636   4.235  0.2097  0.0239 -0.5173
  105MOL0     C13777  -1.104   0.644   4.255 -0.4238  0.2232  0.5461
  105MOL0     N13778  -0.398   0.891   4.192 -0.6411  0.3230  0.6121
  105MOL0     N13779  -0.280   0.953   4.190  0.3053 -0.2526  0.7286
  105MOL0     C13780   1.130   0.791   4.354 -0.4026  0.0562 -0.0702
  105MOL0     C13781   1.250   0.721   4.364 -0.2023  0.6701 -0.4106
  105MOL0     C13782   1.614   0.447   4.296  0.3250 -1.4097 -0.0639
  105MOL0     C13783   1.732   0.493   4.228 -0.6552 -0.5266 -0.5072
  105MOL0     C13784   1.844   0.414   4.231  0.8742 -0.8125 -0.0708
  105MOL0     C13785   1.850   0.297   4.306  0.1262  0.2374 -0.8041
  105MOL0     O13786   1.952   0.212   4.316 -0.1409 -0.1346  0.9149
  105MOL0     C13787   2.087   0.247   4.266 -0.0145 -0.5733 -0.2757
  105MOL0     C13788   2.197   0.149   4.319  0.3544 -0.9247 -0.3639
  105MOL0     C13789   2.326   0.220   4.323  0.4828  0.7707  0.8417
  105MOL0     C13790   2.349   0.296   4.194 -0.0757 -1.2139 -0.8944
  105MOL0     C13791   2.496   0.316   4.180  0.4392 -0.1791  0.0916
  105MOL0     C13792   2.610   0.319   4.151 -1.2433  1.2848  0.4926
  105MOL0     C13793   1.728   0.248   4.373  0.4138 -0.1917  0.1876
  105MOL0     C13794   1.612   0.323   4.370 -0.1767 -0.2435 -0.0194
  105MOL0     H13795   1.145   0.404   4.325  3.6997 -0.2224  1.3060
  105MOL0     H13796   0.938   0.516   4.291 -1.3321  2.7307 -3.5990
  105MOL0     H13797   0.793   0.677   4.432  2.8929 -1.0365 -0.5374
  105MOL0     H13798   0.773   0.649   4.259  0.3841  0.0653 -0.7151
  105MOL0     H13799   0.700   0.918   4.267 -3.1708  0.0051 -1.2911
  105MOL0     H13800   0.662   0.863   4.438  0.5013 -2.7861  0.7822
  105MOL0     H13801   0.546   0.661   4.341 -0.7669  0.6917  1.1181
  105MOL0     H13802   0.560   0.734   4.180  0.1986  1.0780 -0.4154
  105MOL0     H13803   0.426   0.878   4.412 -0.2243 -0.6516 -0.4824
  105MOL0     H13804   0.451   0.953   4.258 -1.1547  0.6607 -0.0345
  105MOL0     H13805   0.282   0.691   4.271  0.5520 -0.2724  1.8752
  105MOL0     H13806   0.320   0.783   4.134  1.5034 -2.0737  0.9480
  105MOL0     H13807   0.206   0.966   4.193 -2.4975 -1.4136 -2.5722
  105MOL0     H13808   0.202   0.931   4.368  0.8316 -0.5103 -0.1591
  105MOL0     H13809   0.050   0.820   4.122  0.4440 -0.5174  0.0122
  105MOL0     H13810   0.053   0.735   4.278 -2.2222  2.3686  3.3173
  105MOL0     H13811  -0.046   1.030   4.230 -1.4715  0.4209  0.4279
  105MOL0     H13812  -0.050   0.945   4.384  2.8368  1.3987  0.2364
  105MOL0     H13813  -0.194   0.703   4.380  0.2536  1.3347  0.5041
  105MOL0     H13814  -0.424   0.600   4.378 -1.1837 -0.6910 -0.3876
  105MOL0     H13815  -0.496   0.612   4.220  1.4276 -0.8778  0.9426
  105MOL0     H13816  -0.606   0.808   4.420  0.4014  0.4912 -1.2475
  105MOL0     H13817  -0.632   0.636   4.456  1.4481  1.0883  0.7070
  105MOL0     H13818  -0.682   0.791   4.191 -0.1053  0.1706 -0.3308
  105MOL0     H13819  -0.727   0.623   4.223 -1.0084 -1.3162  4.2712
  105MOL0     H13820  -0.906   0.809   4.249  0.6643  2.8940  0.9829
  105MOL0     H13821  -0.824   0.865   4.380  1.4707 -1.0488  1.7399
  105MOL0     H13822  -1.099   0.725   4.582 -0.4582 -0.3920  1.3981
  105MOL0     H13823  -1.328   0.736   4.549  1.7527  1.3429  1.6120
  105MOL0     H13824  -1.659   0.470   4.284  0.5529  0.9535 -1.8309
  105MOL0     H13825  -1.914   0.423   4.257 -0.8217 -2.1518  2.3385
  105MOL0     H13826  -2.176   0.715   4.427  2.0874  1.0263  1.4124
  105MOL0     H13827  -2.174   0.609   4.564  0.4121 -3.4033 -0.8330
  105MOL0     H13828  -2.351   0.464   4.420 -3.5130  0.0212  5.1480
  105MOL0     H13829  -2.337   0.610   4.311  2.0840  1.3200  0.9166
  105MOL0     H13830  -2.390   0.749   4.497 -0.7926 -0.0589 -1.9462
  105MOL0     H13831  -2.415   0.611   4.610 -2.4982  0.0264  0.6557
  105MOL0     H13832  -2.559   0.685   4.350  0.4562 -0.6608 -1.8884
  105MOL0     H13833  -2.600   0.534   4.441  0.8101  1.1980 -0.9390
  105MOL0     H13834  -2.637   0.823   4.512  0.6530  0.3491 -0.1207
  105MOL0     H13835  -2.658   0.694   4.636 -2.0872 -4.2210 -0.8266
  105MOL0     H13836  -2.836   0.592   4.476  0.3424  0.8331 -1.1378
  105MOL0     H13837  -2.825   0.742   4.377 -0.5254 -1.8571 -1.8490
  105MOL0     H13838  -2.878   0.747   4.683  0.1274 -1.2620 -0.1615
  105MOL0     H13839  -2.888   0.881   4.562  0.7620 -0.2629  0.0063
  105MOL0     H13840  -3.074   0.655   4.624 -0.6577  0.4672 -0.7113
  105MOL0     H13841  -3.079   0.723   4.461 -1.9169  1.9667 -0.3560
  105MOL0     H13842  -1.970   0.713   4.579 -1.0637 -0.9796 -0.2088
  105MOL0     H13843  -1.736   0.773   4.574 -0.0746 -0.1271  0.8893
  105MOL0     H13844  -1.268   0.602   4.136  0.6506  0.7920 -0.9086
  105MOL0     H13845  -1.041   0.623   4.170  1.7537  1.9186  1.6404
  105MOL0     H13846   1.123   0.897   4.373 -2.0836 -0.5228  3.0641
  105MOL0     H13847   1.341   0.778   4.375  1.3697 -1.7922  0.3541
  105MOL0     H13848   1.728   0.579   4.162 -2.3227  1.2330  1.6999
  105MOL0     H13849   1.935   0.448   4.182 -0.9815  2.4759 -1.5435
  105MOL0     H13850   2.108   0.351   4.292 -1.6071  0.8329 -3.8496
  105MOL0     H13851   2.093   0.239   4.157  1.5236  1.8540 -0.4603
  105MOL0     H13852   2.157   0.125   4.418 -1.0608  1.6985 -0.2044
  105MOL0     H13853   2.203   0.060   4.255  1.8437 -0.6876 -0.5793
  105MOL0     H13854   2.411   0.151   4.332  0.1871  0.2707 -0.0226
  105MOL0     H13855   2.312   0.297   4.399  0.2832  0.4322  1.1453
  105MOL0     H13856   2.326   0.233   4.108 -0.2603  2.2157 -3.5994
  105MOL0     H13857   2.297   0.391   4.178 -1.5378 -1.7448  0.4477
  105MOL0     H13858   2.714   0.315   4.125 -1.8559  0.3807 -2.0555
  105MOL0     H13859   1.738   0.155   4.428 -1.4751 -0.8883 -0.5673
  105MOL0     H13860   1.527   0.296   4.431  2.7280 -3.6481  2.9894
  106MOL0     O13861   5.609   3.157   9.125 -0.1449 -0.1347  0.6443
  106MOL0     C13862   5.681   3.156   9.227 -0.4454  0.2272 -0.3416
  106MOL0     O13863   5.634   3.147   9.355  0.8723 -0.2436 -1.0069
  106MOL0     C13864   5.498   3.113   9.365  1.3831 -0.2865 -0.9573
  106MOL0     C13865   5.465   2.988   9.415 -0.0935 -0.1187 -1.2407
  106MOL0     C13866   5.323   2.964   9.435 -0.0565  0.0500  0.1749
  106MOL0     C13867   5.224   3.059   9.408  0.7897  1.4690  0.4195
  106MOL0     O13868   5.087   3.010   9.425 -0.9816 -0.3222  0.4959
  106MOL0     C13869   4.978   3.064   9.346  0.1552 -0.4548  0.5808
  106MOL0     C13870   4.843   2.995   9.386  0.3994 -0.6448 -0.0215
  106MOL0     C13871   4.723   3.081   9.349 -0.1593 -0.2414  0.3950
  106MOL0     C13872   4.594   3.002   9.367 -0.2809 -1.1584 -0.0106
  106MOL0     C13873   4.471   3.084   9.330 -0.0484  0.5196 -0.3826
  106MOL0     C13874   4.368   3.101   9.449 -0.5664  0.6585 -0.9364
  106MOL0     C13875   4.238   3.165   9.410  0.4783 -0.2580  0.0244
  106MOL0     C13876   4.155   3.090   9.306  0.0400  0.1634  0.5198
  106MOL0     N13877   4.023   3.141   9.306  0.3788 -0.1879  0.5535
  106MOL0     C13878   3.992   3.270   9.292 -0.3233 -0.5375  0.2258
  106MOL0     C13879   3.865   3.279   9.259  0.4021 -1.2940  0.8386
  106MOL0     C13880   3.802   3.422   9.242 -0.6008 -0.4275 -0.1623
  106MOL0     C13881   3.647   3.421   9.208 -0.5669 -0.6080 -0.3519
  106MOL0     C13882   3.565   3.388   9.328 -0.1215  0.4868 -0.8343
  106MOL0     C13883   3.444   3.299   9.297  0.8452 -0.2391  0.9451
  106MOL0     O13884   3.372   3.377   9.207 -0.3160 -0.0576  0.0043
  106MOL0     C13885   3.241   3.406   9.247  0.7467  0.1884  0.0342
  106MOL0     C13886   3.186   3.462   9.361 -0.6986  0.1484 -0.5492
  106MOL0     C13887   3.060   3.519   9.370  0.7412  0.4733  0.3985
  106MOL0     C13888   2.966   3.489   9.268 -0.5350 -0.0740 -0.6949
  106MOL0     C13889   2.838   3.553   9.272  0.6987  0.6467 -0.3415
  106MOL0     O13890   2.763   3.542   9.159  0.7575 -0.3739 -0.7215
  106MOL0     C13891   2.626   3.581   9.150 -0.8661 -0.4387 -0.3248
  106MOL0     C13892   2.538   3.500   9.082 -0.7214 -0.9576  0.3587
  106MOL0     C13893   2.407   3.537   9.048 -0.5740 -0.2670  0.8421
  106MOL0     C13894   2.357   3.658   9.102 -0.5364 -0.6876 -0.5351
  106MOL0     O13895   2.232   3.699   9.108  0.6798  0.0162 -0.5266
  106MOL0     C13896   2.127   3.620   9.060  0.1082  0.1812  0.4690
  106MOL0     C13897   1.999   3.695   9.069  0.4468 -0.1584 -0.1281
  106MOL0     C13898   1.888   3.611   9.013 -0.0195 -0.4998 -0.8472
  106MOL0     C13899   1.754   3.690   9.036 -0.1508 -0.0531 -0.6042
  106MOL0     C13900   1.647   3.641   8.939 -0.3434  0.2317 -0.4382
  106MOL0     C13901   1.512   3.728   8.943  0.6350 -0.9586  0.0355
  106MOL0     C13902   1.395   3.643   8.897 -0.0781 -0.0203 -0.4349
  106MOL0     C13903   1.268   3.720   8.873 -0.4328  0.3174  0.0354
  106MOL0    Cl13904   1.171   3.781   9.023 -0.0054 -0.4061  0.4495
  106MOL0     C13905   2.438   3.731   9.189 -0.5567 -0.3444 -0.4458
  106MOL0     C13906   2.573   3.698   9.208  0.0874  0.3920  0.3983
  106MOL0     O13907   2.798   3.604   9.379  0.3854 -0.7300 -0.8097
  106MOL0     C13908   3.016   3.411   9.164  0.7046  0.1425  0.6890
  106MOL0     C13909   3.150   3.382   9.148 -0.8220 -0.5040  0.6754
  106MOL0     N13910   3.818   3.151   9.248  0.5004  0.3718  0.7639
  106MOL0     N13911   3.917   3.071   9.276  0.2760  0.6155  0.5598
  106MOL0     C13912   5.260   3.182   9.345  0.3975  0.5871 -0.7320
  106MOL0     C13913   5.397   3.202   9.322 -0.1631 -0.6051 -0.0261
  106MOL0     C13914   5.822   3.134   9.210  0.7032  0.6063 -0.1056
  106MOL0     C13915   5.862   3.120   9.074  0.5805 -1.0385 -0.7154
  106MOL0     C13916   5.994   3.084   9.048  0.6972  0.2456  0.1277
  106MOL0     C13917   6.088   3.080   9.154  0.4925  0.7325  0.6390
  106MOL0     O13918   6.221   3.063   9.119  0.3663 -0.3604  0.3634
  106MOL0     C13919   6.323   3.034   9.216 -0.4389 -0.4932  0.5248
  106MOL0     C13920   6.425   2.928   9.161  0.1387  0.7415 -0.1089
  106MOL0     C13921   6.514   2.988   9.059  0.4350 -0.5768 -0.1983
  106MOL0     C13922   6.482   2.942   8.911  0.4385  0.7248  0.4182
  106MOL0     C13923   6.537   3.048   8.817  0.2279  0.6022 -0.2775
  106MOL0     C13924   6.579   3.138   8.757  0.0118  0.6906  0.7162
  106MOL0     C13925   6.040   3.092   9.287  0.5772  0.4181 -0.5463
  106MOL0     C13926   5.908   3.120   9.317  0.2551 -1.0894 -0.0910
  106MOL0     H13927   5.543   2.913   9.426  2.1879  2.2075 -0.7151
  106MOL0     H13928   5.295   2.867   9.475  1.7838 -0.6099 -0.0181
  106MOL0     H13929   5.005   3.032   9.245  1.9121 -3.8372  1.9543
  106MOL0     H13930   4.968   3.173   9.351 -2.4997 -0.6591  1.0491
  106MOL0     H13931   4.850   2.977   9.494  2.0594 -1.8932 -0.2925
  106MOL0     H13932   4.831   2.892   9.350 -2.1060 -0.1342 -0.8369
  106MOL0     H13933   4.732   3.104   9.242  2.7294 -0.8518  0.4043
  106MOL0     H13934   4.718   3.175   9.405  0.0826 -0.9986  1.7286
  106MOL0     H13935   4.601   2.914   9.302  0.7022 -0.8942 -0.2852
  106MOL0     H13936   4.577   2.962   9.468 -0.9728 -2.3080 -0.5575
  106MOL0     H13937   4.410   3.031   9.256 -1.7990  0.9647  0.6845
  106MOL0     H13938   4.501   3.184   9.298  1.6612  0.0261 -0.3895
  106MOL0     H13939   4.415   3.147   9.535  0.1208 -0.1235 -0.8849
  106MOL0     H13940   4.338   3.002   9.484  2.9826 -0.6192 -1.1758
  106MOL0     H13941   4.181   3.175   9.503  0.0405  3.0949 -0.4682
  106MOL0     H13942   4.262   3.268   9.384 -0.2827  0.1256  0.7760
  106MOL0     H13943   4.145   2.987   9.341 -1.7406  0.5837  1.3687
  106MOL0     H13944   4.199   3.094   9.206 -3.0355  2.4725 -0.9053
  106MOL0     H13945   4.053   3.358   9.307  1.5514 -1.5603 -1.0273
  106MOL0     H13946   3.844   3.482   9.161  1.4661 -0.6762  0.6587
  106MOL0     H13947   3.826   3.478   9.333  1.1992  0.7461 -1.3048
  106MOL0     H13948   3.628   3.341   9.136  0.4286 -0.0126 -1.2953
  106MOL0     H13949   3.622   3.521   9.172 -4.2714 -1.5496 -0.8655
  106MOL0     H13950   3.618   3.318   9.393 -1.1571 -0.8188 -1.3819
  106MOL0     H13951   3.532   3.476   9.385 -0.4835 -0.3644  0.3173
  106MOL0     H13952   3.387   3.264   9.384 -0.7100 -0.2203 -0.0305
  106MOL0     H13953   3.469   3.212   9.237  2.2326 -0.1411  1.3456
  106MOL0     H13954   3.254   3.481   9.444  2.6050 -0.4500 -2.9270
  106MOL0     H13955   3.029   3.587   9.449  0.5357 -0.5157  1.1948
  106MOL0     H13956   2.582   3.406   9.051 -3.9236 -2.3332 -0.4286
  106MOL0     H13957   2.347   3.469   8.989 -0.2649  0.6717 -0.5927
  106MOL0     H13958   2.124   3.526   9.116  0.1311 -1.0608 -1.5013
  106MOL0     H13959   2.138   3.579   8.959  4.6584  0.0537  0.8294
  106MOL0     H13960   2.018   3.783   9.007  0.2827 -1.3410 -1.9419
  106MOL0     H13961   1.995   3.712   9.177  0.6354 -2.1658  0.2241
  106MOL0     H13962   1.884   3.508   9.050 -1.5496 -1.2207 -2.8470
  106MOL0     H13963   1.909   3.596   8.907  1.1614 -1.1850 -0.5273
  106MOL0     H13964   1.720   3.673   9.139  0.5505  1.4020 -0.1013
  106MOL0     H13965   1.774   3.797   9.026 -0.8356  0.1301 -0.1499
  106MOL0     H13966   1.635   3.534   8.958  1.3746 -0.6810 -3.7553
  106MOL0     H13967   1.685   3.645   8.837 -1.1829 -0.1206 -0.7743
  106MOL0     H13968   1.525   3.812   8.874 -1.2226  0.8741  1.7679
  106MOL0     H13969   1.479   3.763   9.042  1.9417  0.8933 -0.1309
  106MOL0     H13970   1.422   3.582   8.810 -1.0830 -0.8003 -0.2209
  106MOL0     H13971   1.379   3.568   8.975  0.2041  0.4908  0.1272
  106MOL0     H13972   1.201   3.659   8.812  0.4852  0.8397 -1.5590
  106MOL0     H13973   1.308   3.804   8.815 -2.2467  1.0749 -0.1614
  106MOL0     H13974   2.409   3.823   9.238  2.9116  1.1255 -0.9067
  106MOL0     H13975   2.629   3.764   9.273  2.3254  1.1155 -2.1116
  106MOL0     H13976   2.938   3.376   9.097  0.6459 -1.9552  1.7647
  106MOL0     H13977   3.190   3.346   9.054  1.1400  1.8871  0.4806
  106MOL0     H13978   5.193   3.256   9.301 -1.9095 -1.3697 -0.6708
  106MOL0     H13979   5.422   3.295   9.273 -0.9333 -0.1038  0.5146
  106MOL0     H13980   5.804   3.123   8.982  1.5607  0.2061 -1.3198
  106MOL0     H13981   6.021   3.067   8.944 -1.3556 -1.0779 -0.2545
  106MOL0     H13982   6.275   2.975   9.295 -0.6468 -0.1205  0.6823
  106MOL0     H13983   6.366   3.129   9.250  0.3591 -0.1933 -1.2030
  106MOL0     H13984   6.485   2.892   9.245  0.7708 -0.8691 -1.2026
  106MOL0     H13985   6.377   2.844   9.111  2.4083 -0.4716 -0.3894
  106MOL0     H13986   6.621   2.969   9.074  0.3298 -2.6642 -1.6627
  106MOL0     H13987   6.517   3.097   9.060  0.0518 -0.5462 -1.3089
  106MOL0     H13988   6.518   2.845   8.875 -3.7277  0.9807 -6.2029
  106MOL0     H13989   6.374   2.929   8.901  0.4912 -1.5725  1.9276
  106MOL0     H13990   6.601   3.217   8.688  4.2083 -2.2422 -1.7814
  106MOL0     H13991   6.116   3.078   9.363  0.9556  1.9820 -0.5961
  106MOL0     H13992   5.871   3.121   9.419  0.7101  1.5792  0.1135
  107MOL0     O13993   7.035   3.420   3.888 -0.4230 -0.5467 -0.0178
  107MOL0     C13994   7.135   3.459   3.947 -0.0389 -0.1600 -1.0861
  107MOL0     O13995   7.149   3.569   4.034  0.2517 -0.0518  0.2794
  107MOL0     C13996   7.038   3.655   4.041 -0.7871 -0.2915 -0.5712
  107MOL0     C13997   6.997   3.675   4.174 -0.1905 -1.1082 -0.4746
  107MOL0     C13998   6.885   3.763   4.201  0.3390  0.5095 -0.2920
  107MOL0     C13999   6.824   3.831   4.096 -0.7861  1.1177  0.2102
  107MOL0     O14000   6.731   3.932   4.123 -0.6633 -0.1239  0.8086
  107MOL0     C14001   6.604   3.887   4.179 -0.6510 -0.1785  0.3495
  107MOL0     C14002   6.499   3.987   4.157 -0.1000  0.0013  0.7657
  107MOL0     C14003   6.454   4.013   4.012  0.3474  0.5079  0.1115
  107MOL0     C14004   6.333   4.113   4.011 -0.0927 -0.1082  0.0506
  107MOL0     C14005   6.379   4.264   4.042  1.3169  1.1331 -0.1098
  107MOL0     C14006   6.271   4.370   4.014  0.2117 -0.6946  0.4307
  107MOL0     C14007   6.302   4.514   4.067 -0.9230 -0.2183  0.0577
  107MOL0     C14008   6.181   4.598   4.110  0.7138  1.0971 -0.7301
  107MOL0     N14009   6.223   4.730   4.143 -0.9570 -0.5508 -0.1977
  107MOL0     C14010   6.223   4.834   4.057  0.1361 -0.2093  0.5889
  107MOL0     C14011   6.325   4.908   4.094  0.8714 -0.3955 -0.4643
  107MOL0     C14012   6.375   5.024   4.023  0.2542 -0.3767 -0.2496
  107MOL0     C14013   6.319   5.153   4.069 -0.7513  0.2124 -0.3347
  107MOL0     C14014   6.361   5.198   4.218  0.1098 -0.1161 -1.0019
  107MOL0     C14015   6.276   5.299   4.278  0.1909 -0.6495 -0.3386
  107MOL0     O14016   6.340   5.428   4.248  0.7619 -0.2409 -0.2781
  107MOL0     C14017   6.427   5.476   4.338 -0.2981  0.1511 -0.4645
  107MOL0     C14018   6.441   5.615   4.331 -0.6493  0.3750 -0.1244
  107MOL0     C14019   6.511   5.681   4.433 -0.3177  0.5654 -0.3543
  107MOL0     C14020   6.580   5.611   4.538  0.3567 -0.3189 -0.2960
  107MOL0     C14021   6.668   5.681   4.640 -0.1263 -0.2202  0.3641
  107MOL0     O14022   6.733   5.588   4.728  0.4754  0.6323  1.0484
  107MOL0     C14023   6.839   5.625   4.803  0.8057 -0.1942  0.8118
  107MOL0     C14024   6.936   5.721   4.765  0.2782 -0.4233 -0.7685
  107MOL0     C14025   7.043   5.752   4.859  0.1225 -0.1974 -0.3204
  107MOL0     C14026   7.053   5.680   4.986  0.4015 -0.6572  0.0973
  107MOL0     O14027   7.162   5.667   5.074  0.1102 -0.8789 -0.1878
  107MOL0     C14028   7.259   5.771   5.066  0.3147  0.0497  0.4516
  107MOL0     C14029   7.240   5.891   5.158  0.1045 -1.0681  0.4380
  107MOL0     C14030   7.271   5.838   5.298  0.1696 -0.5675 -0.0625
  107MOL0     C14031   7.240   5.961   5.386  0.0487 -0.2209 -0.4376
  107MOL0     C14032   7.280   5.928   5.529 -0.1048 -1.3899 -0.1351
  107MOL0     C14033   7.266   6.056   5.615 -0.9650 -0.2883 -0.0219
  107MOL0     C14034   7.270   6.038   5.769 -0.1160 -0.1877  0.0970
  107MOL0     C14035   7.340   6.152   5.823  0.4704  0.0118 -0.0262
  107MOL0    Cl14036   7.384   6.115   5.982  0.4585  0.3122  0.1176
  107MOL0     C14037   6.952   5.597   5.014 -0.1179  0.4549 -0.5845
  107MOL0     C14038   6.841   5.579   4.930  0.2831 -0.2660 -0.2833
  107MOL0     O14039   6.684   5.805   4.640 -0.5356  0.4736 -0.0521
  107MOL0     C14040   6.565   5.469   4.542  0.3137  0.1496 -0.4636
  107MOL0     C14041   6.479   5.402   4.451  0.5198 -0.3215  0.1837
  107MOL0     N14042   6.391   4.849   4.206  0.5826 -0.5078  0.6657
  107MOL0     N14043   6.314   4.752   4.242  0.2544 -0.1496 -0.4893
  107MOL0     C14044   6.875   3.813   3.962 -0.0691  0.0429  0.3581
  107MOL0     C14045   6.988   3.728   3.940 -0.8845  1.5382 -0.6059
  107MOL0     C14046   7.268   3.391   3.914 -0.1193  0.6017 -1.0538
  107MOL0     C14047   7.275   3.293   3.809  0.3586  0.0977 -0.1587
  107MOL0     C14048   7.400   3.232   3.791 -0.7620  0.2313 -0.3695
  107MOL0     C14049   7.518   3.263   3.862 -0.2181 -0.1577 -0.0900
  107MOL0     O14050   7.632   3.195   3.833  0.1759 -0.6022 -0.2163
  107MOL0     C14051   7.719   3.196   3.946 -0.5037  1.0161 -0.5621
  107MOL0     C14052   7.846   3.110   3.901 -0.9269 -0.8269  0.0038
  107MOL0     C14053   7.981   3.168   3.947 -0.5602 -0.0763  0.0691
  107MOL0     C14054   8.099   3.076   3.923  0.2039 -0.5592 -0.5503
  107MOL0     C14055   8.234   3.133   3.914  0.9803 -0.4255 -0.1649
  107MOL0     C14056   8.357   3.165   3.907 -0.4233  0.8117  0.8471
  107MOL0     C14057   7.505   3.367   3.958  0.7814 -0.4373 -0.5773
  107MOL0     C14058   7.383   3.433   3.986 -1.0397  0.2357 -0.6568
  107MOL0     H14059   7.048   3.629   4.258 -2.3240 -0.8003  1.0691
  107MOL0     H14060   6.848   3.782   4.301 -2.5376 -2.9745 -0.4674
  107MOL0     H14061   6.620   3.870   4.286  0.7989  1.9447  0.5196
  107MOL0     H14062   6.576   3.788   4.143 -1.4753 -0.8534  2.6648
  107MOL0     H14063   6.520   4.079   4.213  0.9946 -0.1967  0.6878
  107MOL0     H14064   6.408   3.952   4.207  1.5124 -0.6053  3.4551
  107MOL0     H14065   6.419   3.922   3.963 -2.0792  1.7445 -0.6115
  107MOL0     H14066   6.530   4.066   3.954 -0.3075  2.0394  0.6018
  107MOL0     H14067   6.277   4.106   3.917 -3.0155  2.5889  1.3939
  107MOL0     H14068   6.262   4.076   4.087  0.8829 -0.7523  0.6642
  107MOL0     H14069   6.467   4.283   3.981  2.8863  1.4380  2.1105
  107MOL0     H14070   6.414   4.282   4.145  2.5012 -1.4299  0.0019
  107MOL0     H14071   6.184   4.338   4.073  0.9352  0.7721  2.4349
  107MOL0     H14072   6.248   4.378   3.908  2.0254  4.0962  0.1835
  107MOL0     H14073   6.368   4.507   4.154 -0.3457 -2.0634 -0.4942
  107MOL0     H14074   6.358   4.568   3.990 -2.8555  0.8051 -0.7317
  107MOL0     H14075   6.132   4.537   4.186  1.4453 -1.7644 -2.3882
  107MOL0     H14076   6.106   4.610   4.030  1.6128  1.3441 -1.5592
  107MOL0     H14077   6.162   4.839   3.967  2.6460 -0.5973 -1.2820
  107MOL0     H14078   6.357   5.016   3.915  0.1566 -0.4170 -0.2309
  107MOL0     H14079   6.484   5.032   4.027  0.3649 -1.7502 -0.0798
  107MOL0     H14080   6.210   5.150   4.062 -0.7535  0.3171 -0.3444
  107MOL0     H14081   6.345   5.224   3.989  1.1450 -1.9402 -1.7769
  107MOL0     H14082   6.349   5.108   4.279  1.0053  0.0924 -0.5077
  107MOL0     H14083   6.466   5.225   4.210  1.0547 -3.4582 -1.5588
  107MOL0     H14084   6.278   5.269   4.383 -1.6518 -1.6737 -0.5688
  107MOL0     H14085   6.174   5.307   4.240  0.5069  0.9033 -0.9700
  107MOL0     H14086   6.383   5.672   4.259  1.3086  0.5062 -1.6773
  107MOL0     H14087   6.506   5.790   4.430 -1.3150  0.5508  0.2615
  107MOL0     H14088   6.935   5.779   4.673 -1.4897  3.3880  1.4183
  107MOL0     H14089   7.126   5.817   4.832  0.7494 -0.6841  0.4064
  107MOL0     H14090   7.282   5.799   4.962  2.2167 -2.0049  0.2364
  107MOL0     H14091   7.354   5.726   5.097  0.9694  0.4315 -0.9049
  107MOL0     H14092   7.137   5.927   5.151 -0.3804 -1.4113  4.0278
  107MOL0     H14093   7.301   5.980   5.141 -3.4493  1.4795 -0.1781
  107MOL0     H14094   7.375   5.804   5.304  0.7868  1.3479  1.2923
  107MOL0     H14095   7.209   5.754   5.328  0.5332 -0.8213 -0.0204
  107MOL0     H14096   7.288   6.054   5.355  0.6029 -0.3908 -0.0976
  107MOL0     H14097   7.132   5.983   5.384  0.7151  3.7285 -0.7064
  107MOL0     H14098   7.380   5.883   5.531  0.0511 -1.0972 -0.8742
  107MOL0     H14099   7.212   5.854   5.572 -1.0946  0.8907  2.5487
  107MOL0     H14100   7.170   6.106   5.599  0.2514  1.1146 -4.1801
  107MOL0     H14101   7.352   6.114   5.581 -0.3732 -1.9150 -1.4471
  107MOL0     H14102   7.173   6.030   5.818 -0.9158  0.9329 -1.2160
  107MOL0     H14103   7.320   5.942   5.786  2.3491  0.8103 -1.0209
  107MOL0     H14104   7.281   6.244   5.813 -1.3753 -1.0444  0.7063
  107MOL0     H14105   7.439   6.170   5.780  0.7259  0.0039  0.5483
  107MOL0     H14106   6.971   5.540   5.104  1.2968  0.4471 -0.8592
  107MOL0     H14107   6.772   5.498   4.952 -0.6118  1.0206  1.9744
  107MOL0     H14108   6.602   5.415   4.629  3.5210  3.0413  0.1600
  107MOL0     H14109   6.461   5.297   4.470  0.7590 -0.2561  0.7896
  107MOL0     H14110   6.829   3.878   3.888  2.8640 -0.1502 -1.8122
  107MOL0     H14111   7.038   3.714   3.845  2.7540  0.2292  1.3115
  107MOL0     H14112   7.184   3.264   3.757  0.2891  0.8617 -0.4622
  107MOL0     H14113   7.410   3.155   3.716 -2.8572  0.6726 -1.1562
  107MOL0     H14114   7.677   3.156   4.039 -1.4994  5.6857  1.2532
  107MOL0     H14115   7.750   3.299   3.966  3.5135 -0.0624 -0.4658
  107MOL0     H14116   7.844   3.010   3.945  3.2262 -0.8518  0.4972
  107MOL0     H14117   7.864   3.100   3.793  2.1759  0.7399  0.2718
  107MOL0     H14118   7.971   3.179   4.056  1.2548  0.4413  0.2080
  107MOL0     H14119   7.992   3.272   3.914 -2.9595  0.5217  0.9558
  107MOL0     H14120   8.111   2.997   3.998  3.1582  1.8033  1.7433
  107MOL0     H14121   8.072   3.025   3.830  1.2425 -3.9129  0.8216
  107MOL0     H14122   8.461   3.189   3.901  0.2726 -1.6403  1.9831
  107MOL0     H14123   7.585   3.407   4.020 -1.2352  2.0959  0.6394
  107MOL0     H14124   7.385   3.511   4.061 -1.4898 -0.0790 -0.3129
  108MOL0     O14125   0.593   9.462   5.452 -1.4306  0.8208 -0.2787
  108MOL0     C14126   0.649   9.532   5.526  0.0217 -0.2380 -0.7077
  108MOL0     O14127   0.595   9.580   5.641 -0.1293 -0.1565 -0.6444
  108MOL0     C14128   0.455   9.580   5.672 -0.3885  0.1254  0.4681
  108MOL0     C14129   0.350   9.535   5.597 -0.5278 -0.1577  0.3600
  108MOL0     C14130   0.222   9.556   5.654 -0.4449 -0.0307  0.6241
  108MOL0     C14131   0.203   9.620   5.769 -0.1951 -0.4167 -0.3098
  108MOL0     O14132   0.074   9.661   5.791 -0.1253 -0.1538  0.0610
  108MOL0     C14133   0.021   9.607   5.914  0.0322 -0.6682 -0.5116
  108MOL0     C14134  -0.092   9.709   5.956  0.0894  0.3068 -0.8105
  108MOL0     C14135  -0.130   9.695   6.105  0.0021 -0.5793  0.2393
  108MOL0     C14136  -0.265   9.605   6.116 -0.8149 -0.5890 -0.1603
  108MOL0     C14137  -0.320   9.556   6.252 -0.0790  0.4052 -1.0325
  108MOL0     C14138  -0.344   9.672   6.354 -0.0942  0.1032 -0.3341
  108MOL0     C14139  -0.441   9.785   6.319  0.5609 -0.3691  0.3719
  108MOL0     C14140  -0.588   9.737   6.272 -0.3982 -0.2400  0.1757
  108MOL0     N14141  -0.679   9.851   6.260 -0.3822 -0.9432 -0.0498
  108MOL0     C14142  -0.719   9.929   6.365  0.4854 -0.1172  0.0360
  108MOL0     C14143  -0.811  10.015   6.318  0.3105  0.1504  0.0177
  108MOL0     C14144  -0.895  10.112   6.394 -0.0715  0.1120 -0.3760
  108MOL0     C14145  -1.039  10.073   6.446 -0.2916 -0.3332 -0.2871
  108MOL0     C14146  -1.031   9.942   6.524 -0.4120 -0.2555  0.0131
  108MOL0     C14147  -1.167   9.909   6.564 -0.5118 -0.2000  0.4491
  108MOL0     O14148  -1.211  10.005   6.659 -0.6280 -0.0374 -0.1795
  108MOL0     C14149  -1.337   9.988   6.714  0.4847  0.9380 -0.6033
  108MOL0     C14150  -1.379  10.095   6.793  0.3344  0.4486  0.5169
  108MOL0     C14151  -1.503  10.089   6.855  0.3342  0.8235 -0.2841
  108MOL0     C14152  -1.596   9.979   6.840 -0.4011  0.4830  0.3668
  108MOL0     C14153  -1.725   9.966   6.904 -0.0379  0.1532  0.3544
  108MOL0     O14154  -1.787   9.837   6.914  0.6196  0.2917 -0.0997
  108MOL0     C14155  -1.929   9.824   6.939 -0.9150 -0.6889  0.1296
  108MOL0     C14156  -1.972   9.701   6.987 -0.2628 -0.4654 -0.2336
  108MOL0     C14157  -2.099   9.677   6.999  0.7218 -0.0033  0.9864
  108MOL0     C14158  -2.199   9.773   6.992 -0.1284  0.1641 -0.0968
  108MOL0     O14159  -2.327   9.747   7.036 -0.7145  0.4159  0.0209
  108MOL0     C14160  -2.434   9.789   6.950  0.3613 -0.8655 -0.3596
  108MOL0     C14161  -2.513   9.672   6.887 -0.4445  0.0596 -0.4096
  108MOL0     C14162  -2.613   9.721   6.776 -0.7787  0.5078 -1.1126
  108MOL0     C14163  -2.684   9.598   6.722 -0.2310  0.6936 -0.0680
  108MOL0     C14164  -2.783   9.634   6.611 -0.1651 -0.2985 -0.5085
  108MOL0     C14165  -2.854   9.514   6.551  0.1904 -0.4120 -0.3795
  108MOL0     C14166  -2.968   9.547   6.449  0.4941  0.7143  1.2780
  108MOL0     C14167  -2.927   9.510   6.304  0.0549  0.0819  0.7221
  108MOL0    Cl14168  -2.903   9.341   6.284 -0.5239 -0.2699  0.1033
  108MOL0     C14169  -2.156   9.901   6.952  0.4128 -0.5109  0.9264
  108MOL0     C14170  -2.024   9.923   6.915  1.0038  0.5878  1.2035
  108MOL0     O14171  -1.770  10.069   6.955 -0.1712 -0.1459  0.1540
  108MOL0     C14172  -1.543   9.870   6.769 -0.5234 -0.9299  0.3895
  108MOL0     C14173  -1.416   9.871   6.706  0.0335 -0.5786 -0.0842
  108MOL0     N14174  -0.806   9.999   6.179 -0.0557  0.3161  0.1530
  108MOL0     N14175  -0.728   9.901   6.145 -1.1418 -0.1938 -0.7861
  108MOL0     C14176   0.308   9.668   5.848 -0.4600  0.6942 -0.7936
  108MOL0     C14177   0.442   9.643   5.802  0.1475 -0.3324  0.2458
  108MOL0     C14178   0.782   9.579   5.490  0.6689  0.1677 -0.6255
  108MOL0     C14179   0.859   9.515   5.394 -0.0233 -0.4304 -0.0244
  108MOL0     C14180   0.967   9.560   5.343 -0.8420  0.1684 -0.6369
  108MOL0     C14181   1.023   9.677   5.388 -0.3893 -0.1348 -0.3308
  108MOL0     O14182   1.149   9.726   5.350  0.2481 -0.1432  0.8565
  108MOL0     C14183   1.187   9.862   5.334 -0.8553  0.4285 -0.0407
  108MOL0     C14184   1.268   9.869   5.199  0.0672  0.2263  0.2307
  108MOL0     C14185   1.414   9.919   5.232  1.0967 -0.6388  0.5903
  108MOL0     C14186   1.493   9.922   5.102 -0.8550  0.2706 -0.2326
  108MOL0     C14187   1.639   9.970   5.113 -0.3837 -0.2623 -0.0533
  108MOL0     C14188   1.752  10.017   5.097 -0.1486  0.0221  0.5022
  108MOL0     C14189   0.955   9.745   5.491  0.4340  0.0659 -0.6368
  108MOL0     C14190   0.828   9.703   5.542  1.1158 -0.5427  0.2124
  108MOL0     H14191   0.366   9.500   5.495 -0.8738  2.7283 -0.7856
  108MOL0     H14192   0.132   9.530   5.597  0.9101 -1.0891 -1.1622
  108MOL0     H14193   0.087   9.602   6.000  1.4015 -0.6635 -1.5321
  108MOL0     H14194  -0.026   9.511   5.891 -0.4921 -0.6829  0.5724
  108MOL0     H14195  -0.171   9.705   5.882  0.8238 -3.4195 -1.6027
  108MOL0     H14196  -0.057   9.808   5.925 -1.9831  0.7086 -2.0385
  108MOL0     H14197  -0.143   9.791   6.157  3.1409  0.1072 -0.0413
  108MOL0     H14198  -0.040   9.657   6.154  0.1673  0.9713  1.2216
  108MOL0     H14199  -0.350   9.662   6.079 -0.4210 -0.6860 -1.2541
  108MOL0     H14200  -0.260   9.522   6.045 -1.3529 -0.0154 -0.8778
  108MOL0     H14201  -0.237   9.509   6.304  1.5458  4.1269  0.0733
  108MOL0     H14202  -0.408   9.491   6.243 -0.5464  0.8790 -0.0725
  108MOL0     H14203  -0.251   9.728   6.365 -1.5456  2.2634  2.1868
  108MOL0     H14204  -0.364   9.624   6.451 -0.3282  0.0639 -0.3997
  108MOL0     H14205  -0.452   9.846   6.409 -3.0140 -0.5985  0.2458
  108MOL0     H14206  -0.394   9.844   6.239 -0.2459 -0.7544 -0.4019
  108MOL0     H14207  -0.625   9.677   6.356  0.6650  0.4664  1.1840
  108MOL0     H14208  -0.578   9.672   6.185 -0.6359 -1.0556  0.7465
  108MOL0     H14209  -0.682   9.920   6.466 -1.7182  1.7179  1.1152
  108MOL0     H14210  -0.898  10.201   6.331  1.5721  0.5008  0.0450
  108MOL0     H14211  -0.835  10.135   6.483  2.0947 -1.9356 -1.1925
  108MOL0     H14212  -1.108  10.076   6.361 -0.8134 -0.4192  0.1317
  108MOL0     H14213  -1.068  10.152   6.515  1.2039 -0.1292  0.1554
  108MOL0     H14214  -0.987   9.864   6.462  1.1935  0.2706  0.4380
  108MOL0     H14215  -0.963   9.942   6.610 -0.3360 -1.9124 -0.0164
  108MOL0     H14216  -1.155   9.806   6.600 -0.6273  0.0709  1.2856
  108MOL0     H14217  -1.242   9.900   6.485 -1.0115  1.0356  0.7517
  108MOL0     H14218  -1.310  10.176   6.814  1.0507 -0.7169  3.0815
  108MOL0     H14219  -1.533  10.166   6.926  0.4816  1.8071 -1.2614
  108MOL0     H14220  -1.900   9.626   7.018 -0.8405 -0.3658  1.4562
  108MOL0     H14221  -2.132   9.590   7.055 -1.2414  0.8768  1.2824
  108MOL0     H14222  -2.402   9.868   6.882 -0.2077  1.2273  1.6626
  108MOL0     H14223  -2.504   9.841   7.016 -2.3447 -2.3947 -1.8666
  108MOL0     H14224  -2.559   9.621   6.973 -0.8077  0.9772 -0.0442
  108MOL0     H14225  -2.434   9.608   6.847  2.3485  2.9612  0.0905
  108MOL0     H14226  -2.562   9.777   6.697 -0.8535 -0.9365 -2.2263
  108MOL0     H14227  -2.688   9.787   6.820  2.0227  1.8045  2.1853
  108MOL0     H14228  -2.612   9.525   6.684  1.5436  1.2494  2.0721
  108MOL0     H14229  -2.744   9.562   6.806  0.1435  0.7829  0.2381
  108MOL0     H14230  -2.733   9.693   6.533  0.4396  0.1396  0.1991
  108MOL0     H14231  -2.866   9.686   6.660  2.1778  0.6229  2.8261
  108MOL0     H14232  -2.896   9.460   6.636  2.9298 -2.0746  0.0208
  108MOL0     H14233  -2.776   9.447   6.514 -0.6040 -3.0954  2.4528
  108MOL0     H14234  -3.059   9.492   6.476 -0.4136  0.2528 -2.2417
  108MOL0     H14235  -2.988   9.655   6.443 -0.4748  0.5672 -4.7276
  108MOL0     H14236  -2.841   9.568   6.270 -0.9767  0.4496 -1.3935
  108MOL0     H14237  -2.989   9.547   6.222  0.6936  0.5481  0.4421
  108MOL0     H14238  -2.226   9.983   6.936  0.1686 -0.6146  1.4531
  108MOL0     H14239  -2.010  10.013   6.856 -1.0090  1.7063  2.2934
  108MOL0     H14240  -1.616   9.791   6.765 -3.4065  1.5739 -0.0368
  108MOL0     H14241  -1.375   9.785   6.653 -1.4642  0.0182 -2.3514
  108MOL0     H14242   0.286   9.732   5.933  0.4220 -1.0554  0.8323
  108MOL0     H14243   0.527   9.668   5.864 -0.0685 -0.2881  0.5265
  108MOL0     H14244   0.828   9.418   5.356  0.8027 -2.5753  4.1627
  108MOL0     H14245   1.011   9.502   5.263 -1.6692 -1.4326  0.0385
  108MOL0     H14246   1.235   9.891   5.428  0.2697 -1.5309  0.0652
  108MOL0     H14247   1.095   9.919   5.330 -1.7949 -0.9341  1.1240
  108MOL0     H14248   1.284   9.777   5.142  0.9089  1.9246 -2.4176
  108MOL0     H14249   1.205   9.939   5.144 -0.4939  0.7674  1.5229
  108MOL0     H14250   1.472   9.861   5.304  2.0469  0.4266  0.7082
  108MOL0     H14251   1.404  10.018   5.278 -2.1676 -1.5710  2.1966
  108MOL0     H14252   1.495   9.820   5.061 -1.1509  0.0810  0.2116
  108MOL0     H14253   1.449   9.985   5.024  1.3479  2.0936 -0.1004
  108MOL0     H14254   1.847  10.061   5.079 -0.1285 -0.1431  0.2027
  108MOL0     H14255   0.995   9.833   5.539 -2.0166  1.1232 -0.3465
  108MOL0     H14256   0.771   9.764   5.611  2.4282 -0.8572  1.6309
  109MOL0     O14257   9.361   8.133   7.113  0.8688 -0.4997 -0.7304
  109MOL0     C14258   9.343   8.258   7.101 -1.0937  0.5831 -0.4445
  109MOL0     O14259   9.224   8.324   7.092 -0.0992  0.0655  0.4834
  109MOL0     C14260   9.107   8.250   7.088  0.1334  0.3259  0.5914
  109MOL0     C14261   9.015   8.269   7.187 -0.6632  0.8958  0.2515
  109MOL0     C14262   8.898   8.194   7.186 -0.1095 -0.3301 -0.2369
  109MOL0     C14263   8.865   8.102   7.084 -0.2259  0.4359  0.1525
  109MOL0     O14264   8.752   8.023   7.085 -0.3711 -0.3540 -1.0464
  109MOL0     C14265   8.748   7.897   7.030  0.0063 -0.3324 -0.5489
  109MOL0     C14266   8.624   7.809   7.058  1.0388 -0.9253  0.8552
  109MOL0     C14267   8.599   7.697   6.954 -0.5424 -0.1348  0.0463
  109MOL0     C14268   8.507   7.745   6.843 -0.8341  0.4789  0.1500
  109MOL0     C14269   8.465   7.626   6.751 -0.2903  0.8224 -0.0352
  109MOL0     C14270   8.574   7.533   6.694 -0.6998 -0.0705 -0.3460
  109MOL0     C14271   8.684   7.622   6.626  0.3841  0.0623 -0.1209
  109MOL0     C14272   8.763   7.531   6.530 -0.0888  0.4710 -0.4837
  109MOL0     N14273   8.868   7.591   6.449 -0.4812 -0.0429 -0.4392
  109MOL0     C14274   8.981   7.665   6.487 -0.4252  1.1270  0.8991
  109MOL0     C14275   9.059   7.692   6.371  0.6268  0.5734  0.1346
  109MOL0     C14276   9.188   7.753   6.365 -0.7876  0.5505  0.3783
  109MOL0     C14277   9.292   7.654   6.415 -0.7763 -0.6304  0.2811
  109MOL0     C14278   9.417   7.663   6.327  0.6050  0.1393  0.4690
  109MOL0     C14279   9.530   7.749   6.382  0.3402  0.3365 -0.1215
  109MOL0     O14280   9.564   7.690   6.513 -0.2261  0.3519  0.1515
  109MOL0     C14281   9.688   7.721   6.571 -0.0510 -0.4823  0.3454
  109MOL0     C14282   9.760   7.621   6.634  0.4468 -0.3817  0.0080
  109MOL0     C14283   9.877   7.656   6.707  0.3460  0.4792  0.6254
  109MOL0     C14284   9.944   7.780   6.702  0.1865 -0.0636  0.5848
  109MOL0     C14285  10.077   7.803   6.768 -0.5334 -0.1973 -0.2970
  109MOL0     O14286  10.106   7.731   6.883  0.0378 -0.5285 -0.1047
  109MOL0     C14287  10.206   7.761   6.964  0.1273  0.8823  0.4518
  109MOL0     C14288  10.334   7.814   6.928  0.3239 -0.0305  1.1055
  109MOL0     C14289  10.420   7.834   7.034 -0.0405 -0.0405 -1.3058
  109MOL0     C14290  10.387   7.827   7.168  0.7292  0.4269  0.2291
  109MOL0     O14291  10.487   7.855   7.256  0.0033 -0.1808  0.5039
  109MOL0     C14292  10.451   7.893   7.387 -0.4922  0.3862  0.3398
  109MOL0     C14293  10.582   7.926   7.471  0.6196 -0.0637  0.3353
  109MOL0     C14294  10.656   8.051   7.421  0.4929  0.1166 -0.5135
  109MOL0     C14295  10.769   8.010   7.319 -0.1501  0.2304  0.1382
  109MOL0     C14296  10.833   8.128   7.260  0.2637 -0.0880  0.0617
  109MOL0     C14297  10.746   8.217   7.166  0.5077 -0.6222 -0.3104
  109MOL0     C14298  10.672   8.137   7.051 -1.2633  0.8529 -0.4615
  109MOL0     C14299  10.646   8.218   6.930  0.3785 -1.0243  0.4075
  109MOL0    Cl14300  10.547   8.111   6.805 -0.1245 -0.1990 -0.1581
  109MOL0     C14301  10.257   7.785   7.194  0.0908  0.4637 -0.4058
  109MOL0     C14302  10.171   7.732   7.096  0.2927 -1.4490  0.0734
  109MOL0     O14303  10.142   7.897   6.724  0.8461  0.3688 -0.0121
  109MOL0     C14304   9.871   7.872   6.615 -0.5006 -0.0677 -0.2382
  109MOL0     C14305   9.746   7.844   6.566  0.3895  0.0660  0.0219
  109MOL0     N14306   8.981   7.640   6.265  0.5935  0.9569 -0.8538
  109MOL0     N14307   8.870   7.590   6.316  0.4425  0.5860 -0.0602
  109MOL0     C14308   8.964   8.098   6.983  0.0540 -0.1826 -0.4761
  109MOL0     C14309   9.075   8.177   6.974  0.9144 -0.3903  0.4681
  109MOL0     C14310   9.463   8.346   7.096  0.4859  0.6753  0.5624
  109MOL0     C14311   9.448   8.486   7.120 -0.2365 -0.5118 -0.4628
  109MOL0     C14312   9.566   8.553   7.135 -0.2050  0.8962 -0.5660
  109MOL0     C14313   9.699   8.492   7.126  0.4710  0.7087  0.3145
  109MOL0     O14314   9.820   8.553   7.140  0.2714 -0.2848  0.1649
  109MOL0     C14315   9.813   8.678   7.209  0.0697  0.5080 -0.3195
  109MOL0     C14316   9.945   8.698   7.264  0.5269  0.1003  0.5623
  109MOL0     C14317  10.030   8.757   7.144 -1.1979  0.8283 -0.0838
  109MOL0     C14318  10.169   8.807   7.199  0.1787  0.4534 -0.5907
  109MOL0     C14319  10.274   8.795   7.098  0.0949  0.4274  0.2955
  109MOL0     C14320  10.348   8.804   7.006  0.3650  0.2857 -0.4599
  109MOL0     C14321   9.711   8.350   7.099 -0.4654 -1.5026  0.3705
  109MOL0     C14322   9.587   8.280   7.096  0.6695 -0.1499  0.5387
  109MOL0     H14323   9.044   8.342   7.263  2.6631  2.9128 -2.6230
  109MOL0     H14324   8.842   8.182   7.278  1.5169  0.4957  0.9089
  109MOL0     H14325   8.831   7.836   7.068 -1.6859 -4.5004 -2.8343
  109MOL0     H14326   8.755   7.903   6.921 -1.2219  0.0520 -0.6229
  109MOL0     H14327   8.534   7.870   7.069  2.3750  1.7780 -1.8741
  109MOL0     H14328   8.641   7.766   7.157 -0.4703 -0.7449  1.2261
  109MOL0     H14329   8.540   7.616   6.999  0.4607 -0.3194  1.0900
  109MOL0     H14330   8.696   7.656   6.923  0.0536  1.3302 -0.1293
  109MOL0     H14331   8.428   7.800   6.895  1.5255  3.2666  1.0351
  109MOL0     H14332   8.559   7.824   6.787  0.6279 -0.3241  0.3104
  109MOL0     H14333   8.415   7.673   6.666  2.1357  2.4152 -0.7241
  109MOL0     H14334   8.396   7.563   6.807 -2.0002 -0.9234 -3.7701
  109MOL0     H14335   8.530   7.469   6.616 -4.2269  2.5995 -0.8004
  109MOL0     H14336   8.623   7.463   6.762 -0.9627 -3.5468 -3.3843
  109MOL0     H14337   8.635   7.695   6.561  0.4546 -0.7430 -1.0969
  109MOL0     H14338   8.738   7.677   6.704  0.4415  2.6934 -1.8782
  109MOL0     H14339   8.702   7.466   6.467  2.7372 -0.8220 -2.0967
  109MOL0     H14340   8.806   7.455   6.595  1.0949  1.8822  0.4328
  109MOL0     H14341   9.020   7.678   6.587  3.0687 -0.0947 -0.1745
  109MOL0     H14342   9.189   7.848   6.418  0.1981  0.6041  0.2802
  109MOL0     H14343   9.200   7.778   6.259 -0.1160  1.5644  0.6886
  109MOL0     H14344   9.251   7.553   6.407  2.0363 -1.8043 -0.5168
  109MOL0     H14345   9.319   7.678   6.518 -1.4867 -0.0178  0.3299
  109MOL0     H14346   9.456   7.562   6.317 -2.9488 -1.1495 -5.7047
  109MOL0     H14347   9.399   7.698   6.225  2.5328 -0.3465 -0.0756
  109MOL0     H14348   9.484   7.848   6.389  3.2386  1.8215 -0.4404
  109MOL0     H14349   9.614   7.738   6.313  1.2810 -1.8639  1.2847
  109MOL0     H14350   9.727   7.518   6.639  1.7283 -0.7795  0.8606
  109MOL0     H14351   9.915   7.567   6.755 -1.0738 -0.4461  0.1158
  109MOL0     H14352  10.360   7.820   6.823  0.7222 -2.1568  1.0314
  109MOL0     H14353  10.523   7.859   7.009  0.4675 -0.8837 -0.1350
  109MOL0     H14354  10.392   7.817   7.438  2.4084 -2.0470  0.3219
  109MOL0     H14355  10.392   7.985   7.393 -1.0390  0.0398  0.4243
  109MOL0     H14356  10.652   7.842   7.472  3.0081  1.7095  3.3144
  109MOL0     H14357  10.547   7.934   7.575  2.0516 -0.3117  0.8711
  109MOL0     H14358  10.710   8.106   7.499  0.9978  2.0500 -2.1480
  109MOL0     H14359  10.579   8.122   7.388  0.3304  0.2607  0.1643
  109MOL0     H14360  10.839   7.944   7.372 -1.3217  0.1665  1.6680
  109MOL0     H14361  10.724   7.954   7.237  1.4050 -3.2366  1.4435
  109MOL0     H14362  10.916   8.088   7.201 -1.5328 -1.5755 -1.6056
  109MOL0     H14363  10.880   8.205   7.323 -1.5710  1.4706 -0.3954
  109MOL0     H14364  10.811   8.285   7.111 -1.9308  0.6756 -1.7644
  109MOL0     H14365  10.679   8.275   7.230 -0.0489  1.0289 -2.3036
  109MOL0     H14366  10.745   8.061   7.020 -1.1910 -0.0603  1.7183
  109MOL0     H14367  10.580   8.094   7.092 -0.6991  0.5249  0.5119
  109MOL0     H14368  10.735   8.258   6.880 -0.0579  0.6372  0.8935
  109MOL0     H14369  10.578   8.300   6.954 -1.1101 -1.8250 -0.9300
  109MOL0     H14370  10.220   7.787   7.296  1.6994  0.4561  0.2104
  109MOL0     H14371  10.083   7.697   7.148  0.2215  0.5982  1.4681
  109MOL0     H14372   9.900   7.976   6.602 -1.8838  0.4758  0.7420
  109MOL0     H14373   9.702   7.930   6.517  0.5844 -0.6882 -1.5594
  109MOL0     H14374   8.950   8.029   6.900  1.0573 -0.2960 -0.5669
  109MOL0     H14375   9.137   8.148   6.890 -0.0408 -1.8417  0.2095
  109MOL0     H14376   9.349   8.526   7.139 -0.3422 -1.6857  1.8564
  109MOL0     H14377   9.556   8.652   7.179  1.9869 -0.0626  2.5219
  109MOL0     H14378   9.744   8.680   7.294  0.6294  1.4265  0.1313
  109MOL0     H14379   9.772   8.754   7.141 -1.6104 -0.8423 -0.8588
  109MOL0     H14380   9.932   8.773   7.342 -1.0200  4.3946 -3.3448
  109MOL0     H14381   9.994   8.611   7.309 -0.6049 -0.5455  0.5900
  109MOL0     H14382   9.966   8.833   7.098 -2.5813 -0.3273 -0.1763
  109MOL0     H14383  10.040   8.671   7.077  1.4134  0.2675  0.9026
  109MOL0     H14384  10.164   8.907   7.242  2.7117  0.4757 -0.1865
  109MOL0     H14385  10.203   8.747   7.284  0.3741  2.2751  0.6854
  109MOL0     H14386  10.428   8.816   6.935  2.8172  1.3445  2.2964
  109MOL0     H14387   9.802   8.298   7.072  0.4309  1.0990 -2.1901
  109MOL0     H14388   9.609   8.174   7.092  3.5355  0.3891 -1.8502
  110MOL0     O14389   8.713   7.778   1.730 -0.1790  0.3023 -0.2624
  110MOL0     C14390   8.694   7.870   1.648  0.1455 -0.3644 -0.7174
  110MOL0     O14391   8.764   7.892   1.536 -0.3569  0.4088 -0.0110
  110MOL0     C14392   8.854   7.798   1.483 -0.4824  0.4649 -0.2002
  110MOL0     C14393   8.818   7.662   1.455 -0.3674  0.0814 -0.8112
  110MOL0     C14394   8.915   7.578   1.397 -0.2691  0.3550 -0.4483
  110MOL0     C14395   9.051   7.621   1.390  0.0411  0.8610 -0.2449
  110MOL0     O14396   9.145   7.533   1.364  0.2222  0.8093  0.2353
  110MOL0     C14397   9.277   7.562   1.408  0.3455 -1.3994 -1.3371
  110MOL0     C14398   9.348   7.437   1.384  1.1742  0.1925  0.5472
  110MOL0     C14399   9.318   7.334   1.487  0.4946 -1.0219  0.3278
  110MOL0     C14400   9.402   7.204   1.462  0.2456  0.4019  0.0373
  110MOL0     C14401   9.386   7.101   1.575  0.3600  0.2097 -0.7664
  110MOL0     C14402   9.479   6.976   1.559 -0.1862  1.1016 -0.0648
  110MOL0     C14403   9.459   6.876   1.674  0.5134  0.2850 -0.2758
  110MOL0     C14404   9.339   6.784   1.645  0.2268 -1.1112  0.5238
  110MOL0     N14405   9.301   6.714   1.768 -0.3815  0.9373  0.0965
  110MOL0     C14406   9.192   6.737   1.847  0.9119  0.0727 -0.2194
  110MOL0     C14407   9.188   6.630   1.931  0.4436 -0.1695 -0.6812
  110MOL0     C14408   9.082   6.622   2.042 -0.5567  0.6999  1.6288
  110MOL0     C14409   9.119   6.710   2.157  0.3894 -0.3487  0.6015
  110MOL0     C14410   9.267   6.692   2.200  0.4812  0.6278  0.0727
  110MOL0     C14411   9.297   6.536   2.240 -0.2249  0.6670 -0.3518
  110MOL0     O14412   9.192   6.488   2.323 -0.3833 -0.6327 -0.1236
  110MOL0     C14413   9.207   6.356   2.382 -0.0175 -0.1501  1.2081
  110MOL0     C14414   9.317   6.277   2.364 -0.9438 -0.0643  0.3602
  110MOL0     C14415   9.324   6.146   2.419 -0.0437  0.2448  0.7917
  110MOL0     C14416   9.221   6.103   2.502 -0.6949 -0.2767 -0.8182
  110MOL0     C14417   9.226   5.966   2.568  0.5202  1.1309  0.1764
  110MOL0     O14418   9.098   5.907   2.591  0.7814  0.1390 -0.0319
  110MOL0     C14419   9.097   5.783   2.652  0.0237  0.8015  0.3088
  110MOL0     C14420   9.154   5.771   2.781  0.7106 -0.4278  0.0918
  110MOL0     C14421   9.152   5.648   2.840  0.5648  0.2932 -0.1159
  110MOL0     C14422   9.110   5.528   2.776  0.1192  0.3870  0.1278
  110MOL0     O14423   9.106   5.416   2.846  0.5266 -0.1191  0.6923
  110MOL0     C14424   9.178   5.311   2.792  0.5148 -0.6907 -0.6095
  110MOL0     C14425   9.143   5.173   2.859 -0.2975 -0.6290  0.2541
  110MOL0     C14426   9.208   5.062   2.778 -0.0653  0.1097  0.6694
  110MOL0     C14427   9.187   4.932   2.838  0.0573  0.6183 -0.1244
  110MOL0     C14428   9.208   4.818   2.739  0.9453  0.6275  0.7729
  110MOL0     C14429   9.352   4.793   2.686  0.0333 -0.0517  0.1017
  110MOL0     C14430   9.443   4.781   2.812  0.3483 -0.9223  0.1444
  110MOL0     C14431   9.567   4.711   2.771 -0.2578  0.3499  0.3126
  110MOL0    Cl14432   9.558   4.528   2.759  0.3938 -0.0808  0.8455
  110MOL0     C14433   9.031   5.541   2.662  0.5351  0.4991  0.9959
  110MOL0     C14434   9.026   5.664   2.601  0.2266 -0.8077  0.0113
  110MOL0     O14435   9.336   5.902   2.581  0.2928  0.5136 -0.3677
  110MOL0     C14436   9.114   6.198   2.523 -0.3740 -0.9299 -0.0743
  110MOL0     C14437   9.109   6.322   2.468  0.2641 -0.5411 -0.3970
  110MOL0     N14438   9.292   6.542   1.902 -0.2797  0.6300  0.0769
  110MOL0     N14439   9.351   6.598   1.804 -0.5790 -0.0825 -0.2926
  110MOL0     C14440   9.079   7.760   1.413  0.2132  0.8982 -0.5675
  110MOL0     C14441   8.983   7.847   1.454  0.7250 -0.5277  0.5824
  110MOL0     C14442   8.588   7.970   1.685  0.2349  0.3750 -0.3825
  110MOL0     C14443   8.600   8.101   1.644  0.5825 -0.5442 -0.1015
  110MOL0     C14444   8.490   8.191   1.688 -0.4469  0.1306  1.0582
  110MOL0     C14445   8.386   8.152   1.769 -0.3719 -0.5192  0.6893
  110MOL0     O14446   8.289   8.231   1.823 -0.0257  0.3527 -0.1488
  110MOL0     C14447   8.275   8.363   1.775 -0.3973 -0.0429  0.0679
  110MOL0     C14448   8.173   8.435   1.864 -0.8650 -0.5736  0.2188
  110MOL0     C14449   8.043   8.359   1.893 -0.0138 -1.0326  0.3892
  110MOL0     C14450   7.944   8.453   1.971  0.1042  0.4445  0.4523
  110MOL0     C14451   7.801   8.408   1.958  0.4444  0.4992  0.6390
  110MOL0     C14452   7.695   8.361   1.932 -0.3069  0.9453  0.2772
  110MOL0     C14453   8.380   8.022   1.801 -0.4397 -0.2651 -0.3283
  110MOL0     C14454   8.478   7.930   1.764 -0.4360 -0.2970  0.9351
  110MOL0     H14455   8.720   7.628   1.486 -2.2674  3.8466 -2.0357
  110MOL0     H14456   8.889   7.476   1.368 -1.8463 -0.0755  2.1252
  110MOL0     H14457   9.292   7.591   1.512  4.8710 -1.4572 -1.7405
  110MOL0     H14458   9.328   7.641   1.353  0.6947  0.9737  2.1307
  110MOL0     H14459   9.455   7.453   1.370  1.2448  0.7939  1.6855
  110MOL0     H14460   9.316   7.384   1.293  1.3283  1.0603 -0.0180
  110MOL0     H14461   9.209   7.321   1.489  0.4620 -0.8256 -0.0009
  110MOL0     H14462   9.350   7.371   1.585  0.2546 -3.4238  1.3695
  110MOL0     H14463   9.371   7.155   1.369  0.4131 -1.7174  1.0437
  110MOL0     H14464   9.506   7.233   1.447 -0.1290  1.7671 -0.0920
  110MOL0     H14465   9.285   7.061   1.583  0.6849 -0.5880 -0.5889
  110MOL0     H14466   9.414   7.147   1.670  2.7286 -1.1450 -0.7427
  110MOL0     H14467   9.583   7.009   1.568  0.7732 -1.3028 -1.4105
  110MOL0     H14468   9.455   6.939   1.459 -2.6158  1.3158  0.3617
  110MOL0     H14469   9.548   6.816   1.696  2.3642  2.7958 -0.4922
  110MOL0     H14470   9.447   6.940   1.761  0.2006  1.1806 -0.9606
  110MOL0     H14471   9.382   6.719   1.569  1.9221  2.1084 -1.4924
  110MOL0     H14472   9.252   6.840   1.609  2.6149  0.2182 -3.9216
  110MOL0     H14473   9.117   6.813   1.830  0.2926 -0.8538 -1.7499
  110MOL0     H14474   9.062   6.518   2.072 -1.0715  0.0235 -0.8655
  110MOL0     H14475   8.988   6.663   2.004  0.8877  3.4704  0.7764
  110MOL0     H14476   9.052   6.697   2.243  0.6578 -2.1266  0.5974
  110MOL0     H14477   9.102   6.814   2.130 -1.8711 -0.3998  1.6033
  110MOL0     H14478   9.333   6.716   2.116 -0.0644  1.2050 -0.2002
  110MOL0     H14479   9.295   6.761   2.280  0.8507 -0.2118  0.6777
  110MOL0     H14480   9.390   6.534   2.297 -1.4451  2.4046  1.9198
  110MOL0     H14481   9.300   6.480   2.146 -2.1477  1.2935 -0.8454
  110MOL0     H14482   9.403   6.320   2.314 -0.1754  0.7981  2.3234
  110MOL0     H14483   9.416   6.089   2.409  0.6091  1.1221  1.5645
  110MOL0     H14484   9.198   5.856   2.831 -0.1570 -0.9026  1.7268
  110MOL0     H14485   9.196   5.641   2.939 -1.6497  0.1438  0.9232
  110MOL0     H14486   9.281   5.347   2.802  0.1199  0.4673 -0.5218
  110MOL0     H14487   9.155   5.296   2.686  0.2766 -0.9493 -0.5213
  110MOL0     H14488   9.034   5.163   2.865 -0.7738  2.6770 -0.5913
  110MOL0     H14489   9.184   5.185   2.960  0.9218 -1.6147 -0.0958
  110MOL0     H14490   9.312   5.075   2.748  0.5722 -1.1514  2.2344
  110MOL0     H14491   9.142   5.063   2.690 -0.4869 -1.0716  0.9550
  110MOL0     H14492   9.249   4.920   2.927 -0.2026  0.4094  0.0303
  110MOL0     H14493   9.082   4.929   2.867 -0.0697  1.6688 -0.4114
  110MOL0     H14494   9.136   4.839   2.660  2.8108  3.7874 -0.2886
  110MOL0     H14495   9.184   4.726   2.793  0.4399  0.2147 -0.1479
  110MOL0     H14496   9.388   4.881   2.631 -0.4160  0.6850  0.9659
  110MOL0     H14497   9.351   4.707   2.618 -1.0437 -1.5725  1.9604
  110MOL0     H14498   9.469   4.879   2.854  2.1404 -1.3759  0.1893
  110MOL0     H14499   9.398   4.715   2.887 -0.3440  0.2839  0.8212
  110MOL0     H14500   9.642   4.734   2.848  2.2642 -2.0329 -1.2130
  110MOL0     H14501   9.603   4.768   2.685  2.1821 -1.0775  0.2626
  110MOL0     H14502   8.980   5.455   2.619 -0.2669  1.6809 -0.5142
  110MOL0     H14503   8.972   5.667   2.507  2.0912 -1.3369 -1.1167
  110MOL0     H14504   9.040   6.174   2.599 -1.2299 -1.2454 -0.9784
  110MOL0     H14505   9.032   6.397   2.484 -0.1575 -0.6866 -1.6038
  110MOL0     H14506   9.174   7.790   1.369  0.4694 -2.0403 -2.2626
  110MOL0     H14507   9.023   7.946   1.474 -0.4660 -0.4208  2.7380
  110MOL0     H14508   8.675   8.135   1.572  0.9771  1.3740  1.1403
  110MOL0     H14509   8.497   8.293   1.651 -0.8521 -0.4161 -0.6541
  110MOL0     H14510   8.254   8.351   1.669  3.9414 -0.9400 -0.8728
  110MOL0     H14511   8.368   8.419   1.785  0.9422 -2.5305  3.4515
  110MOL0     H14512   8.225   8.468   1.954 -2.7760 -0.0392  1.1793
  110MOL0     H14513   8.156   8.526   1.806  3.1233 -1.3529 -2.5706
  110MOL0     H14514   8.067   8.273   1.955 -0.8591 -2.6984 -1.4723
  110MOL0     H14515   7.994   8.339   1.797 -4.7569 -0.1372  2.3356
  110MOL0     H14516   7.970   8.446   2.077  1.0129 -2.5309  0.1335
  110MOL0     H14517   7.950   8.553   1.926 -1.2975 -0.0086 -0.7943
  110MOL0     H14518   7.595   8.328   1.910 -0.8285  0.6610  2.7705
  110MOL0     H14519   8.290   7.997   1.857  1.1645 -1.6732  1.8052
  110MOL0     H14520   8.475   7.827   1.799 -2.9622 -1.3405 -1.9419
  111MOL0     O14521   6.303   6.698   4.725 -0.3890 -0.1375  0.2254
  111MOL0     C14522   6.399   6.667   4.646 -0.4409 -1.4300 -0.3515
  111MOL0     O14523   6.387   6.602   4.525 -0.1020 -0.5613 -0.8615
  111MOL0     C14524   6.270   6.563   4.480  0.1485  0.7175  0.4141
  111MOL0     C14525   6.259   6.573   4.343 -0.0234 -0.8526 -0.2294
  111MOL0     C14526   6.147   6.521   4.273 -0.4825  0.5471 -0.5920
  111MOL0     C14527   6.056   6.442   4.351  0.1397  0.0853  0.0042
  111MOL0     O14528   5.946   6.394   4.283 -0.1856 -0.0485 -1.1296
  111MOL0     C14529   5.921   6.254   4.277 -0.4105  0.7057 -0.7973
  111MOL0     C14530   5.903   6.193   4.132 -0.1139  0.8389 -0.0398
  111MOL0     C14531   5.918   6.038   4.138  0.0806  0.0850  0.0073
  111MOL0     C14532   5.811   5.974   4.222  0.4361 -0.0038 -0.1944
  111MOL0     C14533   5.778   5.834   4.179  0.7702 -0.1712  0.1812
  111MOL0     C14534   5.878   5.721   4.201 -0.3793  0.2194 -0.4024
  111MOL0     C14535   5.945   5.715   4.344 -0.1432 -0.9425 -0.2568
  111MOL0     C14536   6.037   5.604   4.379 -0.2720 -0.1069  0.8563
  111MOL0     N14537   6.089   5.618   4.517  0.0403  0.7474  0.1012
  111MOL0     C14538   6.184   5.704   4.573 -0.0694  0.7141 -0.2491
  111MOL0     C14539   6.204   5.660   4.705  0.3992  1.5533 -0.8443
  111MOL0     C14540   6.310   5.710   4.809  0.1983  0.2359 -0.3377
  111MOL0     C14541   6.367   5.594   4.885 -0.2767  0.0771 -0.4215
  111MOL0     C14542   6.477   5.621   4.988  0.0671 -0.0007  0.5004
  111MOL0     C14543   6.416   5.705   5.108  0.3095 -0.5227 -0.0319
  111MOL0     O14544   6.407   5.849   5.082 -0.1959  0.7389  0.0661
  111MOL0     C14545   6.525   5.910   5.053  0.4520 -0.0175  0.6600
  111MOL0     C14546   6.657   5.862   5.076 -0.3435 -0.0893  0.1015
  111MOL0     C14547   6.763   5.939   5.031  0.1734 -0.8423  0.6266
  111MOL0     C14548   6.745   6.061   4.960 -0.7384  0.3376  0.5050
  111MOL0     C14549   6.860   6.133   4.903 -0.1583  0.6012  0.0555
  111MOL0     O14550   6.838   6.236   4.814  0.3406  0.4136 -0.2418
  111MOL0     C14551   6.939   6.308   4.771 -1.0399 -1.0788  0.8453
  111MOL0     C14552   7.042   6.362   4.850 -1.0393  0.1279  1.1902
  111MOL0     C14553   7.143   6.428   4.785  0.3370 -0.4811  0.8482
  111MOL0     C14554   7.151   6.437   4.644  0.4211 -0.5213 -0.3824
  111MOL0     O14555   7.251   6.505   4.581 -0.3238  0.0224  0.2215
  111MOL0     C14556   7.285   6.472   4.445 -0.8683  0.3700  1.1289
  111MOL0     C14557   7.423   6.541   4.428 -0.5545  0.3719 -1.1936
  111MOL0     C14558   7.537   6.449   4.472 -0.9038 -0.2450  0.9247
  111MOL0     C14559   7.678   6.500   4.418 -0.2246  0.6679 -1.2261
  111MOL0     C14560   7.797   6.418   4.480 -0.2842  0.2299  0.2924
  111MOL0     C14561   7.936   6.435   4.415 -0.1809 -0.2330 -0.2426
  111MOL0     C14562   7.950   6.388   4.274  0.0635  0.5288  0.5571
  111MOL0     C14563   8.076   6.309   4.232 -0.0016  0.4954  0.3796
  111MOL0    Cl14564   8.053   6.188   4.100  0.3690 -0.3733 -0.2117
  111MOL0     C14565   7.042   6.381   4.570 -0.1138 -0.3047 -0.0176
  111MOL0     C14566   6.932   6.329   4.637  0.1531  0.6863 -1.0586
  111MOL0     O14567   6.968   6.090   4.932  0.1127 -0.0856  0.1721
  111MOL0     C14568   6.616   6.113   4.947 -0.6643  0.3886 -0.5455
  111MOL0     C14569   6.509   6.034   4.992 -0.0761  0.4970  0.6911
  111MOL0     N14570   6.126   5.537   4.714 -0.1755  0.4351  0.4200
  111MOL0     N14571   6.057   5.516   4.609  0.3085  0.6733  0.0253
  111MOL0     C14572   6.069   6.434   4.491 -0.0834  0.2325 -1.1454
  111MOL0     C14573   6.177   6.490   4.554  0.9295 -0.0654 -0.9312
  111MOL0     C14574   6.537   6.695   4.694  0.8947  0.4207 -0.0510
  111MOL0     C14575   6.568   6.788   4.799  0.4565 -0.0267  0.2527
  111MOL0     C14576   6.700   6.813   4.847 -0.4619  1.2992 -0.5122
  111MOL0     C14577   6.804   6.738   4.779 -0.8271 -0.4507 -0.3295
  111MOL0     O14578   6.934   6.718   4.823  0.4585  0.1485  1.0190
  111MOL0     C14579   6.981   6.805   4.931 -0.3028 -0.4545 -0.3043
  111MOL0     C14580   7.133   6.782   4.935  1.2543 -0.0762  0.9524
  111MOL0     C14581   7.210   6.796   4.795  0.2188  1.0204 -0.3744
  111MOL0     C14582   7.190   6.938   4.727  0.6227  0.6457  0.1161
  111MOL0     C14583   7.290   6.940   4.619 -1.0033  0.8795 -0.4861
  111MOL0     C14584   7.354   6.923   4.521  0.2646 -0.1452  2.0175
  111MOL0     C14585   6.779   6.661   4.663 -0.5043 -0.1861 -0.4916
  111MOL0     C14586   6.643   6.639   4.628  0.0796  0.0182  0.1753
  111MOL0     H14587   6.334   6.640   4.302 -1.2110  0.1660 -0.8071
  111MOL0     H14588   6.136   6.530   4.166 -2.0629  1.7719 -0.3607
  111MOL0     H14589   5.832   6.244   4.340  0.3145  0.2957  0.1906
  111MOL0     H14590   6.000   6.202   4.332 -1.1740  0.6180  0.2557
  111MOL0     H14591   5.979   6.228   4.061 -0.2221 -0.6502 -0.9481
  111MOL0     H14592   5.806   6.220   4.088 -0.3189  2.9698  1.5752
  111MOL0     H14593   6.020   6.024   4.176 -0.2011 -1.2830  0.3161
  111MOL0     H14594   5.911   6.001   4.035  0.0858  0.1643 -0.0208
  111MOL0     H14595   5.836   5.986   4.328 -0.0193 -2.1374  0.1941
  111MOL0     H14596   5.720   6.032   4.207  0.5392 -0.0649 -1.1326
  111MOL0     H14597   5.739   5.841   4.077  2.9493  1.3610 -0.6404
  111MOL0     H14598   5.696   5.812   4.248  0.1636 -0.9680 -0.7778
  111MOL0     H14599   5.957   5.726   4.126  3.5131 -2.7876  3.0369
  111MOL0     H14600   5.823   5.627   4.192 -0.7142  0.5632 -2.7182
  111MOL0     H14601   5.998   5.809   4.356 -0.3858 -0.5379 -2.0395
  111MOL0     H14602   5.865   5.709   4.419 -1.1433 -0.1570 -1.2351
  111MOL0     H14603   6.125   5.594   4.315  0.1727  0.9809  1.2693
  111MOL0     H14604   5.987   5.507   4.365  1.9650 -1.0271 -1.6351
  111MOL0     H14605   6.241   5.774   4.514 -1.4259  2.3818  0.3373
  111MOL0     H14606   6.254   5.761   4.888 -2.3139 -1.1464 -1.1048
  111MOL0     H14607   6.385   5.762   4.749  0.8466 -2.4774 -2.0491
  111MOL0     H14608   6.415   5.531   4.811  3.8586  0.6304  1.5123
  111MOL0     H14609   6.289   5.537   4.937 -1.3720  1.3884 -0.5798
  111MOL0     H14610   6.520   5.528   5.025  1.8432  1.0672  1.2446
  111MOL0     H14611   6.552   5.680   4.935  0.0511  0.3053  0.8185
  111MOL0     H14612   6.458   5.688   5.207  1.8492 -2.8358 -1.0049
  111MOL0     H14613   6.316   5.670   5.137  0.5274  0.8228  2.6618
  111MOL0     H14614   6.676   5.767   5.126  0.4025 -0.5894 -1.0952
  111MOL0     H14615   6.863   5.898   5.044 -0.4758 -3.2282 -1.1337
  111MOL0     H14616   7.044   6.351   4.958  0.7324  0.6798  1.2460
  111MOL0     H14617   7.220   6.477   4.844  0.6302  1.9643 -1.3663
  111MOL0     H14618   7.210   6.513   4.378 -0.5266 -1.0125 -0.1558
  111MOL0     H14619   7.281   6.364   4.431 -2.0069  0.2913  1.9017
  111MOL0     H14620   7.430   6.633   4.487  3.6395  1.8588 -3.6134
  111MOL0     H14621   7.429   6.575   4.324 -3.3682  5.8950  0.0367
  111MOL0     H14622   7.516   6.353   4.424  1.0068  0.1319 -0.7973
  111MOL0     H14623   7.528   6.432   4.580 -2.3624 -2.9702  0.4772
  111MOL0     H14624   7.683   6.515   4.309 -0.9059  1.6923 -1.1265
  111MOL0     H14625   7.705   6.595   4.465  4.6959 -0.8584 -0.4030
  111MOL0     H14626   7.765   6.314   4.491  1.3831 -0.1574  1.9656
  111MOL0     H14627   7.796   6.458   4.582 -0.8946 -0.1155  0.4305
  111MOL0     H14628   8.007   6.376   4.475 -0.6121 -1.5842 -1.0239
  111MOL0     H14629   7.959   6.541   4.427  0.6321 -0.0561 -2.8678
  111MOL0     H14630   7.857   6.335   4.252 -0.4129  1.1973  0.9377
  111MOL0     H14631   7.952   6.478   4.213  1.3491  0.0713 -0.1192
  111MOL0     H14632   8.133   6.265   4.314  3.3928 -0.7296 -2.3821
  111MOL0     H14633   8.148   6.377   4.184  1.0954 -0.7480  0.2120
  111MOL0     H14634   7.039   6.384   4.461 -1.4428 -1.4965 -0.0511
  111MOL0     H14635   6.849   6.277   4.590 -0.2685 -1.6359  1.9376
  111MOL0     H14636   6.602   6.211   4.902  1.2122  1.4363  1.0007
  111MOL0     H14637   6.408   6.071   5.001 -1.2157 -1.5467 -2.2520
  111MOL0     H14638   5.997   6.384   4.555 -1.7178  2.8724 -0.7703
  111MOL0     H14639   6.203   6.477   4.659  2.2907 -1.6708 -1.4119
  111MOL0     H14640   6.481   6.828   4.851  1.4919  1.2282  1.0831
  111MOL0     H14641   6.703   6.864   4.943  0.9950  0.4232 -0.0508
  111MOL0     H14642   6.934   6.777   5.026 -1.6260 -0.1679 -0.8512
  111MOL0     H14643   6.966   6.911   4.911  0.5026 -0.6107 -1.9287
  111MOL0     H14644   7.174   6.858   5.003 -0.4028  0.7171  1.1243
  111MOL0     H14645   7.153   6.686   4.982  0.4138 -0.2605  0.9372
  111MOL0     H14646   7.182   6.710   4.734  0.1321 -0.3421  1.5069
  111MOL0     H14647   7.316   6.783   4.815  0.4726  2.9288 -0.2921
  111MOL0     H14648   7.085   6.947   4.697 -0.7793 -5.5700  1.7916
  111MOL0     H14649   7.205   7.020   4.798  0.1563  0.6888  0.1658
  111MOL0     H14650   7.405   6.924   4.427 -1.5489 -0.5245  0.9703
  111MOL0     H14651   6.857   6.612   4.606 -0.8233  0.4451 -1.4763
  111MOL0     H14652   6.624   6.590   4.533 -2.9878  2.3817 -0.6068
  112MOL0     O14653   5.076   5.957   0.633  1.5492 -0.4279  0.3995
  112MOL0     C14654   5.044   5.858   0.570 -0.2014 -0.0541 -0.3798
  112MOL0     O14655   5.135   5.791   0.491 -0.3048  0.4105 -0.0427
  112MOL0     C14656   5.252   5.841   0.443 -0.1747 -0.9500  0.0286
  112MOL0     C14657   5.318   5.749   0.362  0.4834 -0.1086 -0.2743
  112MOL0     C14658   5.433   5.778   0.292 -0.8250 -0.4855 -0.0713
  112MOL0     C14659   5.499   5.897   0.317  0.0159 -0.2195 -0.6894
  112MOL0     O14660   5.624   5.909   0.259 -1.3106 -0.2737  0.7978
  112MOL0     C14661   5.651   6.036   0.205 -0.0792 -0.0966  0.0487
  112MOL0     C14662   5.800   6.039   0.164 -0.0254 -0.9297  0.2680
  112MOL0     C14663   5.865   5.923   0.081 -0.2863 -0.4941 -1.0807
  112MOL0     C14664   6.014   5.892   0.105 -0.8101 -0.5719  0.1434
  112MOL0     C14665   6.091   6.029   0.095 -0.7634  0.1765  0.9707
  112MOL0     C14666   6.251   6.004   0.112 -0.2188 -0.3037  0.2435
  112MOL0     C14667   6.297   5.986   0.258 -0.4658 -0.2051  0.4747
  112MOL0     C14668   6.367   6.115   0.304 -0.4815  0.7856 -0.0020
  112MOL0     N14669   6.405   6.114   0.440  0.1241  0.5223 -0.3120
  112MOL0     C14670   6.348   6.179   0.546  1.0401 -0.6006  0.0622
  112MOL0     C14671   6.399   6.143   0.663 -0.1040  0.0516 -0.0928
  112MOL0     C14672   6.364   6.195   0.801  0.4086  0.4826 -1.0435
  112MOL0     C14673   6.216   6.197   0.826 -1.5909  1.0731 -0.1613
  112MOL0     C14674   6.188   6.223   0.969  0.0639 -0.0886 -0.5109
  112MOL0     C14675   6.036   6.232   0.983  0.6597 -0.0492 -0.6251
  112MOL0     O14676   5.994   6.094   0.980  0.1314  0.4560  0.6237
  112MOL0     C14677   5.899   6.067   1.072  1.0265 -1.0700  0.2211
  112MOL0     C14678   5.896   5.949   1.145 -0.3247  0.0269  0.1529
  112MOL0     C14679   5.816   5.928   1.249  0.4226  0.9550 -0.4695
  112MOL0     C14680   5.718   6.029   1.275  0.8539 -0.5242 -0.5470
  112MOL0     C14681   5.634   6.020   1.400 -0.7397  1.1908  0.2712
  112MOL0     O14682   5.681   5.922   1.488 -0.2038 -0.3136 -0.3622
  112MOL0     C14683   5.606   5.882   1.593  0.0402 -0.4715 -0.6781
  112MOL0     C14684   5.471   5.871   1.580 -0.4051 -0.1618  0.6887
  112MOL0     C14685   5.388   5.815   1.683  0.4592  0.5525 -0.3778
  112MOL0     C14686   5.439   5.793   1.812 -0.2786  0.4294  0.1781
  112MOL0     O14687   5.354   5.744   1.898  0.0220  0.2138 -0.2574
  112MOL0     C14688   5.389   5.771   2.040 -0.8125 -0.7973  0.0069
  112MOL0     C14689   5.250   5.801   2.104 -0.1090  0.2623  0.2586
  112MOL0     C14690   5.262   5.810   2.258 -0.6795 -0.4600 -0.2878
  112MOL0     C14691   5.139   5.859   2.327  0.5656  0.6995  0.4585
  112MOL0     C14692   5.142   5.864   2.477  0.4019  0.7239 -0.6470
  112MOL0     C14693   4.993   5.906   2.514 -0.0039  0.1258  0.3927
  112MOL0     C14694   4.972   5.940   2.661  0.1232 -0.3927  0.2498
  112MOL0     C14695   4.827   5.967   2.698 -0.2079 -0.3578 -0.3245
  112MOL0    Cl14696   4.743   5.811   2.688 -0.6368 -0.4291  0.0547
  112MOL0     C14697   5.579   5.794   1.825  0.2388  0.4976  0.2969
  112MOL0     C14698   5.662   5.839   1.714 -0.6754  0.6799 -0.1212
  112MOL0     O14699   5.536   6.088   1.411  0.0438  0.3486 -0.5775
  112MOL0     C14700   5.694   6.140   1.188 -0.3500  0.1718 -0.7299
  112MOL0     C14701   5.796   6.164   1.090  0.5084 -0.5793 -0.1717
  112MOL0     N14702   6.502   6.060   0.630  0.7355 -0.6361  0.2556
  112MOL0     N14703   6.497   6.032   0.499 -0.4522 -0.0489  0.3326
  112MOL0     C14704   5.439   5.998   0.397 -0.3642 -0.0766 -0.1002
  112MOL0     C14705   5.316   5.966   0.458 -0.6241  0.0186 -0.1294
  112MOL0     C14706   4.915   5.790   0.600  0.1075 -0.9314  0.4317
  112MOL0     C14707   4.862   5.687   0.528  0.3978 -0.1762  0.4587
  112MOL0     C14708   4.733   5.643   0.551 -0.4526  0.2393 -0.5028
  112MOL0     C14709   4.657   5.673   0.660 -0.6779  0.2076 -0.7678
  112MOL0     O14710   4.527   5.630   0.672  0.7633  0.3051  0.8397
  112MOL0     C14711   4.439   5.705   0.760  0.6182  0.3438  0.3050
  112MOL0     C14712   4.293   5.659   0.751  0.2103 -0.6324  0.6640
  112MOL0     C14713   4.256   5.516   0.742  0.3224 -0.3977  0.5222
  112MOL0     C14714   4.105   5.505   0.740  1.2951 -0.8721 -0.8113
  112MOL0     C14715   4.063   5.367   0.718  0.6399 -0.5453  0.7413
  112MOL0     C14716   4.024   5.260   0.705  0.0852 -0.0724 -0.5336
  112MOL0     C14717   4.711   5.779   0.738  0.3171 -0.6433 -0.0142
  112MOL0     C14718   4.838   5.843   0.709  0.3802  0.1011 -0.3558
  112MOL0     H14719   5.269   5.654   0.341  1.5454 -0.8989  0.7255
  112MOL0     H14720   5.476   5.711   0.218  3.2057  0.7438  0.8585
  112MOL0     H14721   5.633   6.111   0.283  1.6285 -1.2949  1.6481
  112MOL0     H14722   5.582   6.062   0.124  0.2406 -0.0484 -0.2083
  112MOL0     H14723   5.844   6.044   0.264 -2.5961 -0.0413  1.4399
  112MOL0     H14724   5.831   6.134   0.120  1.2184 -1.6430 -0.4375
  112MOL0     H14725   5.858   5.955  -0.023 -1.7233 -0.8439 -1.1113
  112MOL0     H14726   5.811   5.830   0.098 -1.0982  0.1927  0.2041
  112MOL0     H14727   6.031   5.841   0.200 -1.2687 -1.5913 -0.3121
  112MOL0     H14728   6.042   5.826   0.022  0.1576  1.4026 -1.1944
  112MOL0     H14729   6.057   6.086   0.183 -0.3280 -0.3897  1.5210
  112MOL0     H14730   6.076   6.091   0.006  2.5420  0.4831  0.4960
  112MOL0     H14731   6.303   6.088   0.065 -0.7865  0.8019  1.5087
  112MOL0     H14732   6.278   5.912   0.059 -0.2842  0.0749 -0.4538
  112MOL0     H14733   6.232   5.954   0.340 -0.2109 -1.7919  0.0887
  112MOL0     H14734   6.377   5.911   0.257  0.9756  1.2921 -1.0216
  112MOL0     H14735   6.307   6.202   0.276 -0.8877  0.2716 -0.7837
  112MOL0     H14736   6.457   6.128   0.243 -1.6850  0.9737 -1.8057
  112MOL0     H14737   6.271   6.254   0.532  0.9688 -0.8090 -0.7350
  112MOL0     H14738   6.415   6.291   0.812 -0.5578  0.8320  0.6055
  112MOL0     H14739   6.393   6.120   0.875 -2.4707 -0.3214 -0.6313
  112MOL0     H14740   6.179   6.096   0.805 -1.8893  0.8567  1.3469
  112MOL0     H14741   6.161   6.266   0.762 -0.9111  0.5378 -1.3675
  112MOL0     H14742   6.230   6.147   1.035 -3.7298 -1.4231  0.5995
  112MOL0     H14743   6.231   6.323   0.977  1.0661 -0.4481 -1.2461
  112MOL0     H14744   5.989   6.296   0.908 -3.5377 -0.5380  1.3554
  112MOL0     H14745   6.019   6.283   1.077 -1.9447 -4.1314  1.4071
  112MOL0     H14746   5.983   5.884   1.136  0.7371  1.2787  0.8698
  112MOL0     H14747   5.825   5.832   1.299  2.3551  0.5345 -1.5116
  112MOL0     H14748   5.425   5.884   1.483  0.6771 -0.4185  0.1315
  112MOL0     H14749   5.284   5.828   1.656  0.3623  0.3523 -0.1117
  112MOL0     H14750   5.463   5.851   2.048  0.1375 -1.5417 -1.0094
  112MOL0     H14751   5.425   5.679   2.087 -1.0581 -1.3289 -0.8422
  112MOL0     H14752   5.173   5.728   2.079  0.3962 -0.4896  0.8487
  112MOL0     H14753   5.211   5.897   2.068 -4.7746 -2.5027 -3.1001
  112MOL0     H14754   5.345   5.873   2.290  1.6735 -3.1413 -0.7221
  112MOL0     H14755   5.282   5.710   2.297  0.5310 -0.3128 -0.4728
  112MOL0     H14756   5.123   5.962   2.296  0.1961  1.4108  2.7731
  112MOL0     H14757   5.064   5.783   2.302  2.5124 -1.6249  1.2927
  112MOL0     H14758   5.211   5.939   2.518 -0.2277  1.3674 -0.7359
  112MOL0     H14759   5.154   5.763   2.515 -0.1842  0.2585 -1.6607
  112MOL0     H14760   4.928   5.827   2.476 -0.0821 -0.0546  0.8905
  112MOL0     H14761   4.972   5.998   2.460  2.4701 -0.2106 -1.3176
  112MOL0     H14762   5.019   5.855   2.711 -2.9453 -2.3232  0.1501
  112MOL0     H14763   5.030   6.029   2.688 -1.4962  0.6141  0.5474
  112MOL0     H14764   4.776   6.027   2.622  2.3985  0.0897 -1.8385
  112MOL0     H14765   4.823   6.007   2.799  2.5821 -1.2332  0.2256
  112MOL0     H14766   5.614   5.759   1.921 -3.9207 -0.6659  1.5847
  112MOL0     H14767   5.770   5.832   1.720 -0.6577  1.0502  0.0651
  112MOL0     H14768   5.612   6.210   1.203  0.9169  1.6289 -0.3673
  112MOL0     H14769   5.776   6.247   1.023 -1.2697 -0.3236  0.6332
  112MOL0     H14770   5.492   6.088   0.425 -0.7502 -0.3624  1.7002
  112MOL0     H14771   5.264   6.043   0.515 -1.0856 -0.1271 -0.3449
  112MOL0     H14772   4.913   5.646   0.442  2.7395 -0.8731  2.0568
  112MOL0     H14773   4.693   5.569   0.482 -0.5671  1.4328 -1.7755
  112MOL0     H14774   4.447   5.812   0.736  0.2496  0.0084 -1.4496
  112MOL0     H14775   4.470   5.693   0.864  1.7902  2.5742  0.2780
  112MOL0     H14776   4.236   5.691   0.839  0.4192  0.1245  0.5218
  112MOL0     H14777   4.257   5.713   0.663  0.5802 -1.2690  0.1131
  112MOL0     H14778   4.305   5.463   0.824  2.3486  2.0721  1.0238
  112MOL0     H14779   4.294   5.493   0.642 -0.0733  3.5509 -0.6859
  112MOL0     H14780   4.052   5.534   0.832 -0.0563 -2.1429 -1.1554
  112MOL0     H14781   4.066   5.578   0.669 -2.4012 -2.6730 -0.8839
  112MOL0     H14782   3.979   5.165   0.683  1.7283 -0.8872 -0.5190
  112MOL0     H14783   4.648   5.814   0.820 -0.2728 -0.1798 -0.6557
  112MOL0     H14784   4.877   5.921   0.774 -0.1362  1.9433 -2.1521
  113MOL0     O14785   6.765   9.932   5.995 -0.0765  0.0792  1.0121
  113MOL0     C14786   6.736   9.987   6.098  0.5589  0.4581  0.6846
  113MOL0     O14787   6.617   9.989   6.162  0.4681  0.2298 -0.0447
  113MOL0     C14788   6.529   9.886   6.132  0.4118 -0.8362  0.6212
  113MOL0     C14789   6.397   9.919   6.131  0.5404  0.1396  0.2455
  113MOL0     C14790   6.290   9.823   6.118  0.9363  0.4111 -0.5861
  113MOL0     C14791   6.326   9.682   6.122  0.9178 -0.4153 -1.2246
  113MOL0     O14792   6.226   9.593   6.130  0.2123  0.0947  0.1472
  113MOL0     C14793   6.259   9.463   6.186  0.6590  0.0147  1.0889
  113MOL0     C14794   6.120   9.401   6.211 -0.0085  0.8745 -0.3112
  113MOL0     C14795   6.065   9.325   6.093 -0.1478  0.6502  0.3373
  113MOL0     C14796   5.949   9.236   6.137 -0.4528  0.5835 -0.5041
  113MOL0     C14797   5.846   9.318   6.219 -0.3135  0.4420 -0.4437
  113MOL0     C14798   5.789   9.437   6.142 -0.3418 -0.0336  0.7031
  113MOL0     C14799   5.639   9.439   6.132 -0.9993 -0.7631  0.8842
  113MOL0     C14800   5.573   9.472   6.267 -0.4824  0.6226 -0.9560
  113MOL0     N14801   5.423   9.463   6.257 -0.7067 -0.1461 -0.1361
  113MOL0     C14802   5.339   9.396   6.177  0.8692 -0.6997  0.8509
  113MOL0     C14803   5.226   9.465   6.185  0.4656  0.3261  1.2338
  113MOL0     C14804   5.096   9.440   6.105 -1.0830  0.6448 -0.3210
  113MOL0     C14805   4.980   9.379   6.194 -0.6247 -0.4304 -0.8098
  113MOL0     C14806   4.844   9.398   6.127 -0.1387  0.6729 -0.3615
  113MOL0     C14807   4.795   9.532   6.167 -0.9261  1.1511 -0.1653
  113MOL0     O14808   4.722   9.583   6.054 -0.3372 -0.3321  0.0900
  113MOL0     C14809   4.588   9.564   6.050  1.2539 -1.0439  0.2158
  113MOL0     C14810   4.513   9.498   6.149  0.2658 -0.3960  0.0714
  113MOL0     C14811   4.377   9.514   6.148  0.0651  0.8588  0.2311
  113MOL0     C14812   4.304   9.577   6.044  0.5296  0.0426  0.5559
  113MOL0     C14813   4.157   9.602   6.048 -0.1500  0.6795 -0.0151
  113MOL0     O14814   4.098   9.562   6.159 -0.6014  0.7138 -0.2051
  113MOL0     C14815   3.966   9.602   6.181 -0.8171 -0.0009  0.7491
  113MOL0     C14816   3.875   9.499   6.159  0.7972 -0.3206 -0.1743
  113MOL0     C14817   3.740   9.518   6.193 -0.1137 -1.0707  0.3639
  113MOL0     C14818   3.693   9.641   6.249 -1.2587  0.3128  0.7995
  113MOL0     O14819   3.564   9.642   6.300 -0.1782 -0.3281 -0.1070
  113MOL0     C14820   3.494   9.767   6.308  0.0962  0.5604  0.5059
  113MOL0     C14821   3.358   9.727   6.375 -0.0359  0.6918 -0.3458
  113MOL0     C14822   3.292   9.856   6.422 -0.8399  0.2801  0.3197
  113MOL0     C14823   3.161   9.836   6.494  0.2322 -0.2994 -0.1409
  113MOL0     C14824   3.119   9.973   6.560  0.1532 -0.4649  0.1191
  113MOL0     C14825   2.984   9.968   6.634  0.6531 -0.6946  0.3224
  113MOL0     C14826   2.930  10.098   6.694  0.0351  0.2419  0.2929
  113MOL0     C14827   2.795  10.089   6.762 -0.1895  0.2616 -0.1040
  113MOL0    Cl14828   2.677  10.142   6.641 -0.3450 -0.3574 -0.0504
  113MOL0     C14829   3.787   9.748   6.244  0.3485  0.3792  0.0184
  113MOL0     C14830   3.925   9.724   6.211  0.4016 -1.2716  0.2819
  113MOL0     O14831   4.109   9.670   5.961  1.0206  1.0661  0.8990
  113MOL0     C14832   4.382   9.633   5.937  0.2054  0.3308  1.3745
  113MOL0     C14833   4.522   9.636   5.947 -0.0100  0.7215 -0.3667
  113MOL0     N14834   5.241   9.574   6.254  0.0247  0.6028  1.0156
  113MOL0     N14835   5.351   9.567   6.311 -0.1194  0.0460  0.6141
  113MOL0     C14836   6.466   9.655   6.118 -0.7169 -0.4206  1.3439
  113MOL0     C14837   6.560   9.754   6.127  1.0944 -0.2091  0.3377
  113MOL0     C14838   6.844  10.053   6.163  0.1307  0.4505 -0.2012
  113MOL0     C14839   6.980  10.017   6.135  0.0460 -0.3371  0.3661
  113MOL0     C14840   7.084  10.082   6.199 -0.0337  0.2991 -0.3842
  113MOL0     C14841   7.062  10.183   6.287 -0.5773 -0.3111  0.1760
  113MOL0     O14842   7.164  10.237   6.361 -0.0169 -0.6859 -0.1688
  113MOL0     C14843   7.231  10.356   6.314 -0.0045  0.0759 -0.3728
  113MOL0     C14844   7.379  10.329   6.368 -0.2076 -0.6352  1.1277
  113MOL0     C14845   7.460  10.241   6.274  0.2757  0.9631 -0.0994
  113MOL0     C14846   7.583  10.172   6.343 -0.7242 -0.0631 -0.4015
  113MOL0     C14847   7.645  10.279   6.420 -0.2444 -0.1220  0.3372
  113MOL0     C14848   7.723  10.342   6.491 -0.0101  1.0080 -1.4166
  113MOL0     C14849   6.930  10.214   6.320  0.0674 -0.2696 -0.5179
  113MOL0     C14850   6.823  10.147   6.266  0.3376 -0.0633  0.5443
  113MOL0     H14851   6.372  10.023   6.148  2.8615  1.1711 -1.9665
  113MOL0     H14852   6.191   9.865   6.117 -0.0414 -1.5612  1.9314
  113MOL0     H14853   6.321   9.476   6.275  0.1846  0.6643  1.3351
  113MOL0     H14854   6.314   9.397   6.118  2.7071  0.6892  2.0122
  113MOL0     H14855   6.051   9.477   6.250 -0.4188  1.1678 -1.5674
  113MOL0     H14856   6.127   9.334   6.297 -0.3977 -0.2650 -1.1441
  113MOL0     H14857   6.145   9.257   6.061 -1.4339 -0.4960 -0.6045
  113MOL0     H14858   6.041   9.386   6.005  0.7495  0.3875 -0.1027
  113MOL0     H14859   5.903   9.195   6.047 -0.8036 -1.7476  0.6631
  113MOL0     H14860   5.997   9.161   6.200 -0.3839  1.3629  0.4021
  113MOL0     H14861   5.890   9.350   6.313  0.2124  1.8626 -1.1445
  113MOL0     H14862   5.758   9.253   6.230 -2.5187  2.8002 -2.6705
  113MOL0     H14863   5.838   9.438   6.044  3.6529 -1.6755  2.4484
  113MOL0     H14864   5.820   9.530   6.189  1.1006  0.8611 -1.8037
  113MOL0     H14865   5.600   9.511   6.059 -2.2596 -0.3744  1.9039
  113MOL0     H14866   5.606   9.339   6.104  0.4881 -1.1142  0.2502
  113MOL0     H14867   5.595   9.577   6.285  1.3720 -0.0959  1.5718
  113MOL0     H14868   5.600   9.400   6.345 -3.0629  0.8554  0.2425
  113MOL0     H14869   5.353   9.322   6.100 -1.3551  0.2853 -0.6001
  113MOL0     H14870   5.128   9.368   6.029 -3.9782 -0.5920 -0.5086
  113MOL0     H14871   5.077   9.533   6.051 -1.1602 -0.0858 -1.5918
  113MOL0     H14872   4.980   9.416   6.297 -2.3369 -0.9251 -0.5838
  113MOL0     H14873   5.002   9.272   6.197 -0.3061 -0.4296 -2.4823
  113MOL0     H14874   4.849   9.391   6.018  4.1815  2.0855 -0.4361
  113MOL0     H14875   4.769   9.328   6.166 -0.5219  2.2979  1.9910
  113MOL0     H14876   4.877   9.603   6.180  1.5100 -1.6155  0.7587
  113MOL0     H14877   4.735   9.524   6.258  0.0795  3.6435  0.8093
  113MOL0     H14878   4.543   9.433   6.231  0.9264 -1.7364 -1.1849
  113MOL0     H14879   4.322   9.466   6.228  0.4219 -3.1373 -1.6674
  113MOL0     H14880   3.902   9.398   6.132 -0.3635  0.0445 -3.0951
  113MOL0     H14881   3.664   9.442   6.175 -1.5627  0.2115  0.8956
  113MOL0     H14882   3.467   9.802   6.208 -1.1456 -0.8209  0.3145
  113MOL0     H14883   3.553   9.845   6.355  2.1637 -3.1231  4.7741
  113MOL0     H14884   3.375   9.664   6.462  3.2112  1.3248 -0.3728
  113MOL0     H14885   3.293   9.686   6.297  0.4639  1.7499 -1.3717
  113MOL0     H14886   3.268   9.916   6.334 -0.5725 -3.0981 -2.2813
  113MOL0     H14887   3.351   9.921   6.487  2.1908 -1.0628 -0.8844
  113MOL0     H14888   3.083   9.807   6.422  0.9768  0.4054 -1.2648
  113MOL0     H14889   3.162   9.759   6.572 -2.5080  0.6748  0.9934
  113MOL0     H14890   3.106  10.043   6.476  0.6707 -1.3578 -0.7234
  113MOL0     H14891   3.207  10.009   6.614  0.6609 -0.5308 -0.6585
  113MOL0     H14892   2.981   9.887   6.708 -3.4325  0.3679  1.5647
  113MOL0     H14893   2.912   9.948   6.555 -0.2605  0.5217  0.8107
  113MOL0     H14894   3.001  10.122   6.774  1.0436  0.8842 -0.7623
  113MOL0     H14895   2.928  10.175   6.617 -2.4522 -0.2090 -0.1574
  113MOL0     H14896   2.789  10.155   6.849 -1.4250 -0.7790  0.6281
  113MOL0     H14897   2.758   9.990   6.790 -0.6264 -0.0073 -1.5470
  113MOL0     H14898   3.753   9.847   6.273 -1.0570  0.3255 -1.2709
  113MOL0     H14899   3.988   9.812   6.221 -1.1431 -0.1755  0.7152
  113MOL0     H14900   4.343   9.688   5.852  5.0154 -2.6810 -3.4543
  113MOL0     H14901   4.581   9.693   5.876 -1.9707 -0.1275 -2.7889
  113MOL0     H14902   6.505   9.554   6.105  2.0070  0.8064 -1.3319
  113MOL0     H14903   6.664   9.725   6.116  0.7159 -1.8863  0.9197
  113MOL0     H14904   7.001   9.937   6.065 -0.9611 -0.7130  0.4753
  113MOL0     H14905   7.187  10.065   6.168  0.4740 -2.2412  2.2733
  113MOL0     H14906   7.201  10.448   6.366 -0.0225 -0.3990  0.4646
  113MOL0     H14907   7.223  10.358   6.205 -0.5045  1.3998 -0.3318
  113MOL0     H14908   7.439  10.420   6.363 -1.9422  0.4746 -1.9140
  113MOL0     H14909   7.373  10.278   6.465  3.6718 -1.2324  1.2250
  113MOL0     H14910   7.483  10.288   6.178 -2.8175 -1.6076 -2.3308
  113MOL0     H14911   7.389  10.161   6.251  1.3851 -0.4138  0.9913
  113MOL0     H14912   7.558  10.088   6.409 -1.0172  1.1872  1.1348
  113MOL0     H14913   7.652  10.125   6.273 -2.5260 -1.4716 -1.3413
  113MOL0     H14914   7.798  10.393   6.547 -1.5363  2.3679 -0.5087
  113MOL0     H14915   6.921  10.284   6.402 -0.1786 -1.9062  0.9216
  113MOL0     H14916   6.721  10.165   6.299  0.3557  2.7424 -0.6331
  114MOL0     O14917   5.815  10.476   5.700 -0.6492  0.3613 -0.4354
  114MOL0     C14918   5.850  10.371   5.641 -1.0202 -0.3733  0.5333
  114MOL0     O14919   5.766  10.291   5.569 -0.2277  0.4159  0.1607
  114MOL0     C14920   5.636  10.317   5.572 -0.3464  0.5322 -0.8501
  114MOL0     C14921   5.550  10.280   5.674  1.1481  0.3954 -0.2600
  114MOL0     C14922   5.428  10.328   5.689 -1.1267 -0.0152  0.7331
  114MOL0     C14923   5.372  10.407   5.586  0.3438 -0.2995  0.0818
  114MOL0     O14924   5.239  10.433   5.565  0.0632 -0.8617  0.1615
  114MOL0     C14925   5.174  10.509   5.670 -0.1698 -0.5766  0.2290
  114MOL0     C14926   5.028  10.466   5.672 -0.0598 -1.2078 -0.1090
  114MOL0     C14927   5.012  10.344   5.757 -0.0494 -0.1737 -0.2313
  114MOL0     C14928   4.874  10.276   5.733 -0.9269  0.1278  0.3444
  114MOL0     C14929   4.755  10.363   5.763 -0.4075 -0.1562 -0.0913
  114MOL0     C14930   4.629  10.263   5.776 -0.3828 -0.6325  0.2522
  114MOL0     C14931   4.504  10.350   5.803  0.2323 -0.7969  0.1402
  114MOL0     C14932   4.394  10.259   5.845  0.0127 -0.0111 -0.3737
  114MOL0     N14933   4.273  10.332   5.893  0.3562 -0.6015 -0.1428
  114MOL0     C14934   4.269  10.464   5.934  0.2311  0.6413  0.9877
  114MOL0     C14935   4.143  10.471   5.987  0.5962  0.2022  0.4396
  114MOL0     C14936   4.105  10.594   6.079 -0.0461  0.1749  0.3862
  114MOL0     C14937   3.952  10.619   6.063 -0.1496  0.0327 -0.1999
  114MOL0     C14938   3.877  10.553   6.187  1.1905  0.1082 -0.3470
  114MOL0     C14939   3.865  10.645   6.311 -1.4009  0.2248 -0.3493
  114MOL0     O14940   3.819  10.775   6.274  0.0652 -0.4511 -0.7793
  114MOL0     C14941   3.699  10.814   6.328 -0.4809 -0.3525 -0.9437
  114MOL0     C14942   3.684  10.941   6.385 -0.0532 -0.7274 -0.1296
  114MOL0     C14943   3.568  10.980   6.440 -0.5785  0.2892 -1.0885
  114MOL0     C14944   3.459  10.895   6.439 -0.1368  0.1221  0.6302
  114MOL0     C14945   3.332  10.943   6.504 -0.5388 -0.5014 -0.6688
  114MOL0     O14946   3.218  10.867   6.481 -0.7053  0.1543  0.2584
  114MOL0     C14947   3.097  10.894   6.546  0.1808  0.6901 -0.4086
  114MOL0     C14948   3.009  10.983   6.489 -0.2291  0.5539  0.0674
  114MOL0     C14949   2.887  11.013   6.550  0.4361  0.2572 -0.9854
  114MOL0     C14950   2.851  10.945   6.669  0.0181  0.5324 -0.4879
  114MOL0     O14951   2.739  10.961   6.747 -0.5518  0.3518 -0.0907
  114MOL0     C14952   2.628  10.979   6.665 -0.9740  0.7440  0.4893
  114MOL0     C14953   2.514  10.931   6.743  0.9135  0.4353  0.4532
  114MOL0     C14954   2.483  11.024   6.849  0.2431  1.0779 -0.5248
  114MOL0     C14955   2.365  10.957   6.919  0.1761  0.0996 -0.8550
  114MOL0     C14956   2.326  11.050   7.034  0.1278 -0.1428 -0.4576
  114MOL0     C14957   2.290  11.192   6.999  0.8446  0.1870 -0.4584
  114MOL0     C14958   2.186  11.198   6.889  0.3339 -0.4269 -0.3583
  114MOL0     C14959   2.039  11.177   6.944  0.3165  0.3534  0.1949
  114MOL0    Cl14960   1.983  10.996   6.961 -0.2428  0.1334  0.0005
  114MOL0     C14961   2.942  10.852   6.724 -0.2700 -1.0090 -0.6415
  114MOL0     C14962   3.062  10.830   6.663 -0.0184  0.8423  0.5997
  114MOL0     O14963   3.331  11.045   6.572  0.1511 -0.3101  0.2867
  114MOL0     C14964   3.467  10.765   6.385  0.0337 -0.7989 -0.9267
  114MOL0     C14965   3.592  10.732   6.329  1.1972  0.4034  0.5979
  114MOL0     N14966   4.067  10.358   5.965  0.5964 -0.6719  0.2092
  114MOL0     N14967   4.144  10.276   5.910  0.4045 -0.3161  0.2363
  114MOL0     C14968   5.449  10.433   5.472 -0.1712 -0.7052 -0.4254
  114MOL0     C14969   5.581  10.390   5.467 -0.3262 -0.8550  0.8673
  114MOL0     C14970   6.000  10.356   5.635 -0.1505  0.7472  0.7637
  114MOL0     C14971   6.052  10.246   5.572 -0.5888  0.5467  0.1365
  114MOL0     C14972   6.187  10.233   5.549 -0.8392 -0.1165  0.7323
  114MOL0     C14973   6.276  10.333   5.584  0.4665 -0.1993  0.4719
  114MOL0     O14974   6.417  10.328   5.569  0.0045  0.4723 -0.2095
  114MOL0     C14975   6.473  10.216   5.502 -0.3231 -0.6519  0.0542
  114MOL0     C14976   6.632  10.214   5.487  0.0134 -0.6620  0.2425
  114MOL0     C14977   6.694  10.195   5.632  0.0183 -0.2451  0.3804
  114MOL0     C14978   6.704  10.339   5.700 -0.4728 -0.7910 -1.0085
  114MOL0     C14979   6.801  10.333   5.803  0.2436  0.1547  0.3810
  114MOL0     C14980   6.873  10.332   5.902  0.9306  0.1393  0.0169
  114MOL0     C14981   6.226  10.444   5.647 -1.0691  0.3802  0.2267
  114MOL0     C14982   6.090  10.455   5.668 -0.4876  0.2340 -0.3275
  114MOL0     H14983   5.587  10.221   5.757  0.8459  1.5853  0.7484
  114MOL0     H14984   5.374  10.300   5.779  0.6404 -0.7018  1.6315
  114MOL0     H14985   5.174  10.614   5.639  3.1114  0.1470  2.2837
  114MOL0     H14986   5.223  10.512   5.767  0.0547  1.2876  0.1010
  114MOL0     H14987   4.992  10.454   5.569 -1.4585 -1.7210  0.4077
  114MOL0     H14988   4.964  10.545   5.712  1.2151 -0.6679  0.9039
  114MOL0     H14989   5.023  10.371   5.862 -1.8377 -1.1381  0.2522
  114MOL0     H14990   5.094  10.278   5.726  0.4349  0.3961 -0.1725
  114MOL0     H14991   4.873  10.255   5.626  0.7421  0.5457  0.2151
  114MOL0     H14992   4.863  10.182   5.787  2.3267 -0.7718 -0.3565
  114MOL0     H14993   4.743  10.441   5.688  3.3201  2.8000  2.0317
  114MOL0     H14994   4.777  10.412   5.859  0.1347  0.2422 -0.4158
  114MOL0     H14995   4.641  10.202   5.865 -1.4509  0.1916  0.9786
  114MOL0     H14996   4.619  10.203   5.685 -3.1037 -1.9555  1.3126
  114MOL0     H14997   4.532  10.427   5.876  0.7075  0.1916 -1.0427
  114MOL0     H14998   4.468  10.406   5.716 -0.9451  1.1651  1.8020
  114MOL0     H14999   4.422  10.191   5.926 -2.1575 -0.1520  0.3108
  114MOL0     H15000   4.372  10.199   5.757  0.9931  1.0238 -1.3515
  114MOL0     H15001   4.351  10.534   5.924  0.5347  0.0989 -0.5862
  114MOL0     H15002   4.155  10.684   6.044  3.1068 -1.3470  0.6154
  114MOL0     H15003   4.146  10.560   6.175  0.5192  0.0990  0.1206
  114MOL0     H15004   3.903  10.581   5.973  1.2203 -0.4772 -0.7622
  114MOL0     H15005   3.926  10.725   6.064  0.9434  0.4440 -3.5782
  114MOL0     H15006   3.784  10.505   6.156  0.9673  1.0756 -1.2258
  114MOL0     H15007   3.929  10.460   6.213 -3.8127 -2.7556  0.6661
  114MOL0     H15008   3.964  10.662   6.353 -0.9820  1.1575 -1.6504
  114MOL0     H15009   3.804  10.611   6.395 -3.1516  1.3611 -1.1215
  114MOL0     H15010   3.766  11.013   6.378 -1.0391  0.7709  2.5201
  114MOL0     H15011   3.561  11.080   6.479 -0.6479 -0.1757  0.1326
  114MOL0     H15012   3.041  11.027   6.395  0.4655  0.6044  0.3259
  114MOL0     H15013   2.813  11.082   6.513  0.9383  1.0547 -0.5238
  114MOL0     H15014   2.636  10.924   6.571  2.7895  1.4143  0.2777
  114MOL0     H15015   2.627  11.085   6.640 -0.4817  1.1688  2.1045
  114MOL0     H15016   2.534  10.830   6.780  2.0496  1.2481  2.1825
  114MOL0     H15017   2.426  10.932   6.679 -2.2799 -2.0204  4.3445
  114MOL0     H15018   2.460  11.118   6.797 -0.7740 -0.5855 -3.2891
  114MOL0     H15019   2.565  11.028   6.921 -0.8299  2.9387  0.6561
  114MOL0     H15020   2.286  10.942   6.846  1.9318 -1.7961 -2.4917
  114MOL0     H15021   2.393  10.858   6.956 -2.7089  0.1186  1.8533
  114MOL0     H15022   2.404  11.051   7.110  0.0920 -1.6850 -0.3700
  114MOL0     H15023   2.243  11.007   7.092  0.4853  2.2087  1.9986
  114MOL0     H15024   2.387  11.233   6.970  1.7897 -1.3962  0.3303
  114MOL0     H15025   2.244  11.246   7.082 -1.7555 -1.7012 -0.5410
  114MOL0     H15026   2.196  11.295   6.840 -2.7451 -0.4277 -1.2460
  114MOL0     H15027   2.203  11.132   6.804 -2.2790 -0.0827 -1.2664
  114MOL0     H15028   1.963  11.232   6.887 -2.1710 -1.4855  1.5704
  114MOL0     H15029   2.031  11.228   7.040 -0.2397 -2.0128  1.4861
  114MOL0     H15030   2.906  10.796   6.810 -0.0680 -3.9322 -2.3142
  114MOL0     H15031   3.127  10.753   6.705  2.1507  2.1435 -0.2036
  114MOL0     H15032   3.381  10.699   6.379  1.3257 -2.4401 -4.2536
  114MOL0     H15033   3.593  10.640   6.272  1.4684  1.0010 -0.3886
  114MOL0     H15034   5.410  10.487   5.386  0.3708 -1.5044 -1.1873
  114MOL0     H15035   5.639  10.409   5.378 -0.1784 -1.9568  0.7116
  114MOL0     H15036   5.975  10.176   5.541 -0.4742  0.4255  0.1281
  114MOL0     H15037   6.230  10.141   5.509 -0.9152  0.6163 -1.1241
  114MOL0     H15038   6.438  10.215   5.398  2.6275  1.1167 -1.0998
  114MOL0     H15039   6.441  10.133   5.565  2.0292  0.2785  2.6615
  114MOL0     H15040   6.660  10.145   5.407 -0.1012 -0.7906  0.3096
  114MOL0     H15041   6.660  10.314   5.453 -2.9611  1.3995  3.1464
  114MOL0     H15042   6.795  10.153   5.627 -0.7632 -2.1448 -1.0227
  114MOL0     H15043   6.641  10.123   5.694 -0.0470 -0.6019 -0.0795
  114MOL0     H15044   6.740  10.413   5.628 -1.1733 -1.0157 -1.6037
  114MOL0     H15045   6.610  10.382   5.737  0.8082  2.7866 -1.5323
  114MOL0     H15046   6.929  10.325   5.993  0.4009 -0.6436  0.2944
  114MOL0     H15047   6.299  10.518   5.679 -2.3946  0.6403  2.9158
  114MOL0     H15048   6.054  10.542   5.722  3.8277 -0.3887  4.3461
  115MOL0     O15049   6.539   7.562   8.209 -0.5446 -1.0689 -0.2197
  115MOL0     C15050   6.546   7.550   8.081  0.3026 -0.5343 -0.3163
  115MOL0     O15051   6.446   7.529   7.999 -0.3324  0.0665 -0.0399
  115MOL0     C15052   6.323   7.548   8.067 -1.2400 -0.5735  0.6436
  115MOL0     C15053   6.251   7.672   8.077 -1.0924 -0.7139 -0.3500
  115MOL0     C15054   6.133   7.668   8.148  0.0057  0.1489 -0.2508
  115MOL0     C15055   6.078   7.555   8.202  1.3332  1.2062 -0.8738
  115MOL0     O15056   5.947   7.555   8.260  0.8683 -0.1015 -0.1992
  115MOL0     C15057   5.844   7.632   8.194  0.4997 -1.3297 -0.4121
  115MOL0     C15058   5.711   7.552   8.174  0.0293 -0.5906 -0.4528
  115MOL0     C15059   5.596   7.640   8.108  0.0617  1.2348 -1.1287
  115MOL0     C15060   5.464   7.559   8.115  1.0184 -0.1300 -0.1854
  115MOL0     C15061   5.424   7.510   7.981 -1.0444 -0.1173  0.7550
  115MOL0     C15062   5.282   7.462   7.993 -0.1498  0.1877 -0.1379
  115MOL0     C15063   5.209   7.462   7.862  0.6867 -0.6315  0.7378
  115MOL0     C15064   5.077   7.380   7.884 -0.5188  0.4732 -0.1706
  115MOL0     N15065   4.987   7.455   7.977 -1.1513 -0.2125 -0.0018
  115MOL0     C15066   4.880   7.536   7.944  0.3620  0.2322  0.5792
  115MOL0     C15067   4.804   7.543   8.050 -1.0795  0.1550 -0.3201
  115MOL0     C15068   4.684   7.626   8.073  0.3127  0.2713 -0.0098
  115MOL0     C15069   4.571   7.570   7.987 -0.2545 -0.2493  0.8119
  115MOL0     C15070   4.596   7.602   7.837 -0.1362 -0.8795  0.2017
  115MOL0     C15071   4.461   7.612   7.767  0.0303 -0.1417 -0.1795
  115MOL0     O15072   4.363   7.516   7.815 -0.0593  0.2678  0.1493
  115MOL0     C15073   4.237   7.557   7.822  0.6199 -0.3688 -1.0593
  115MOL0     C15074   4.163   7.487   7.912  0.5117 -0.0710 -0.0870
  115MOL0     C15075   4.026   7.487   7.903  0.8924  0.8970  0.3472
  115MOL0     C15076   3.955   7.577   7.821  0.7218 -0.4464  0.8198
  115MOL0     C15077   3.808   7.599   7.842 -0.0526 -0.6147 -0.4747
  115MOL0     O15078   3.759   7.550   7.952  0.7377 -0.1655  0.1342
  115MOL0     C15079   3.636   7.602   7.995 -0.0290  0.4445  0.1829
  115MOL0     C15080   3.536   7.515   7.990  0.7642 -0.0705 -0.3089
  115MOL0     C15081   3.403   7.558   8.010  0.7954  0.1182 -1.4448
  115MOL0     C15082   3.374   7.693   8.043 -0.5011 -0.4728 -0.7832
  115MOL0     O15083   3.246   7.739   8.043 -0.8206  0.2601 -0.1401
  115MOL0     C15084   3.214   7.876   8.073 -1.4425 -0.0302  0.0856
  115MOL0     C15085   3.074   7.917   8.037  0.3404  0.8380  0.5070
  115MOL0     C15086   2.969   7.828   8.103 -1.0487  0.7228 -0.1069
  115MOL0     C15087   2.829   7.869   8.079  0.4994 -0.1434  0.3355
  115MOL0     C15088   2.731   7.787   8.158 -0.1766  0.1457  0.1269
  115MOL0     C15089   2.713   7.636   8.105 -0.5207 -1.6740  0.1487
  115MOL0     C15090   2.648   7.541   8.210 -0.6877  0.2661  0.4716
  115MOL0     C15091   2.659   7.399   8.169  0.2118  0.3532 -0.4638
  115MOL0    Cl15092   2.811   7.321   8.193  0.0563 -0.1247 -0.0665
  115MOL0     C15093   3.487   7.781   8.064  0.8847 -0.6881 -0.8281
  115MOL0     C15094   3.615   7.730   8.039 -0.5955 -0.6651 -0.6528
  115MOL0     O15095   3.746   7.662   7.754  0.2463  0.2362 -0.2320
  115MOL0     C15096   4.029   7.652   7.724  0.4925  0.0498  0.8321
  115MOL0     C15097   4.170   7.634   7.718 -0.6143 -1.0993 -0.4840
  115MOL0     N15098   4.864   7.458   8.136 -0.0092  0.6832 -0.1731
  115MOL0     N15099   4.976   7.407   8.100 -0.4694  0.7596 -0.2270
  115MOL0     C15100   6.154   7.436   8.203  0.2387 -0.5992  0.7440
  115MOL0     C15101   6.271   7.437   8.128  0.2734  0.0694  0.4434
  115MOL0     C15102   6.676   7.577   8.011 -0.0333 -0.6449 -0.1302
  115MOL0     C15103   6.773   7.663   8.064 -0.1320 -0.4741  0.3440
  115MOL0     C15104   6.901   7.667   8.008  0.1142  0.2052  0.1555
  115MOL0     C15105   6.936   7.594   7.894 -0.5304  0.4608 -0.9053
  115MOL0     O15106   7.062   7.576   7.840 -0.5437  0.0766  0.0865
  115MOL0     C15107   7.155   7.688   7.840  0.4514 -0.5751 -0.1589
  115MOL0     C15108   7.297   7.657   7.785  0.8791 -0.3288  0.5598
  115MOL0     C15109   7.271   7.609   7.640 -0.4905  1.1122  0.3462
  115MOL0     C15110   7.198   7.688   7.537  0.3919 -0.1088  0.6709
  115MOL0     C15111   7.266   7.816   7.526 -0.1620 -0.7205 -0.8070
  115MOL0     C15112   7.346   7.904   7.518 -0.3473 -0.1448 -0.2656
  115MOL0     C15113   6.836   7.517   7.827  0.1273  0.1730 -0.6087
  115MOL0     C15114   6.707   7.511   7.887  0.0470  0.1614  0.4689
  115MOL0     H15115   6.294   7.763   8.036  0.3182 -0.9882  0.4691
  115MOL0     H15116   6.085   7.761   8.177 -2.3941 -0.6561 -1.3828
  115MOL0     H15117   5.871   7.668   8.095 -0.0107 -1.9452 -0.7815
  115MOL0     H15118   5.833   7.723   8.255 -0.5358 -0.2582 -2.1165
  115MOL0     H15119   5.681   7.507   8.269  2.1474 -0.8204  0.1457
  115MOL0     H15120   5.733   7.470   8.105 -1.4716  0.9173 -2.9077
  115MOL0     H15121   5.625   7.687   8.014 -0.6624  0.7701 -1.5881
  115MOL0     H15122   5.585   7.723   8.178  0.2327  1.2028 -1.0617
  115MOL0     H15123   5.484   7.475   8.184  4.1239  1.7174  1.4044
  115MOL0     H15124   5.384   7.621   8.157  0.2553  0.2003 -2.0547
  115MOL0     H15125   5.487   7.423   7.960 -0.5137  0.1892  1.0364
  115MOL0     H15126   5.434   7.589   7.905 -0.4379  0.1267  1.0817
  115MOL0     H15127   5.221   7.530   8.053 -0.9269  1.7472 -2.5307
  115MOL0     H15128   5.279   7.363   8.040  2.3940 -0.2012 -0.6526
  115MOL0     H15129   5.187   7.564   7.830 -1.8309 -1.5356 -0.6758
  115MOL0     H15130   5.277   7.404   7.798  0.2109 -2.0532  1.4840
  115MOL0     H15131   5.093   7.282   7.929  0.9921  1.8740  2.5664
  115MOL0     H15132   5.044   7.356   7.782 -0.3709  0.9034 -0.3211
  115MOL0     H15133   4.879   7.585   7.848  1.3186 -0.5338  0.1668
  115MOL0     H15134   4.717   7.730   8.058  2.7878 -0.5874 -1.0627
  115MOL0     H15135   4.648   7.628   8.176 -2.8694  0.7226 -1.0382
  115MOL0     H15136   4.474   7.613   8.015 -2.3245 -2.3499 -2.3955
  115MOL0     H15137   4.565   7.461   7.995 -1.2381 -0.6931 -3.4654
  115MOL0     H15138   4.651   7.696   7.829 -4.3454  1.7412 -1.0038
  115MOL0     H15139   4.651   7.530   7.775 -3.1370 -1.5523 -1.9039
  115MOL0     H15140   4.476   7.600   7.659  0.0528  0.8992 -0.3002
  115MOL0     H15141   4.437   7.717   7.785  0.9383 -0.0492  0.5262
  115MOL0     H15142   4.212   7.408   7.968  1.4304  0.9083  0.5458
  115MOL0     H15143   3.968   7.423   7.969 -2.2496  1.6654 -1.4485
  115MOL0     H15144   3.562   7.412   7.969 -0.4365 -0.0357 -2.3115
  115MOL0     H15145   3.317   7.494   7.996  1.2208 -0.0637 -3.4263
  115MOL0     H15146   3.271   7.942   8.007 -1.9426  0.6937  0.3649
  115MOL0     H15147   3.234   7.906   8.176  0.5687  2.3909 -0.9196
  115MOL0     H15148   3.079   7.897   7.930 -0.0733 -0.6610  0.7349
  115MOL0     H15149   3.059   8.022   8.063  2.5769  1.2130  0.4667
  115MOL0     H15150   3.007   7.813   8.205  1.5050 -3.2160 -1.4145
  115MOL0     H15151   2.986   7.725   8.070  0.5403 -0.6828  4.2466
  115MOL0     H15152   2.813   7.976   8.098 -1.4393  0.0245 -1.7649
  115MOL0     H15153   2.809   7.861   7.972  0.0464 -2.2560  0.5455
  115MOL0     H15154   2.635   7.838   8.153 -0.0186  0.9568  3.2576
  115MOL0     H15155   2.769   7.793   8.260  3.2686  2.5342 -1.1054
  115MOL0     H15156   2.815   7.605   8.083 -0.0910  1.1821 -2.5630
  115MOL0     H15157   2.658   7.650   8.012  0.8952 -0.8531 -0.5895
  115MOL0     H15158   2.698   7.566   8.304  2.8897 -2.4701 -0.4913
  115MOL0     H15159   2.544   7.570   8.223  0.1043  2.2150  3.5235
  115MOL0     H15160   2.625   7.381   8.067 -0.9901 -0.6793  0.0819
  115MOL0     H15161   2.596   7.343   8.239  3.2336 -1.7764  0.7732
  115MOL0     H15162   3.475   7.879   8.109 -1.4534 -1.0175 -0.6075
  115MOL0     H15163   3.700   7.797   8.051 -1.7659  1.1907 -2.0362
  115MOL0     H15164   3.970   7.719   7.663 -1.6790 -5.6454 -4.2565
  115MOL0     H15165   4.219   7.688   7.638 -2.6025  1.5162 -0.0698
  115MOL0     H15166   6.117   7.346   8.251 -1.3084 -0.9086 -0.9242
  115MOL0     H15167   6.322   7.341   8.126 -2.0116 -1.2436  1.3869
  115MOL0     H15168   6.744   7.736   8.138 -0.4604  2.2696 -2.3213
  115MOL0     H15169   6.971   7.731   8.059 -1.1489  0.0029  2.2516
  115MOL0     H15170   7.162   7.712   7.947 -0.3237 -2.6222  0.4025
  115MOL0     H15171   7.108   7.766   7.780 -0.0088 -0.0188  0.9053
  115MOL0     H15172   7.371   7.736   7.791  1.5365 -0.5638 -2.5839
  115MOL0     H15173   7.331   7.572   7.844 -2.0968 -1.3507  1.0000
  115MOL0     H15174   7.219   7.514   7.650 -1.8259  1.7383 -0.4420
  115MOL0     H15175   7.368   7.578   7.598 -2.0651 -2.6992 -0.8818
  115MOL0     H15176   7.194   7.639   7.439 -1.4101 -0.1294  0.7205
  115MOL0     H15177   7.102   7.714   7.583  0.3935 -0.6166  0.9784
  115MOL0     H15178   7.425   7.977   7.514 -0.5024  0.0043 -0.6726
  115MOL0     H15179   6.860   7.460   7.737  2.2111 -0.6774  0.4123
  115MOL0     H15180   6.632   7.453   7.835  1.6232 -0.4965 -1.1448
  116MOL0     O15181   5.144   5.344   1.042 -0.1669 -0.3249 -0.0487
  116MOL0     C15182   5.141   5.435   0.958 -0.0087  0.7358  0.2830
  116MOL0     O15183   5.029   5.503   0.918  0.1537  0.4159  0.1261
  116MOL0     C15184   4.904   5.466   0.968 -0.5732  0.2211 -0.3523
  116MOL0     C15185   4.806   5.469   0.870  0.5219  0.0314  0.1173
  116MOL0     C15186   4.675   5.445   0.905 -0.0195  0.3470  0.5714
  116MOL0     C15187   4.639   5.430   1.040  0.6130 -0.3696  0.0447
  116MOL0     O15188   4.507   5.413   1.058  0.0146  0.0728 -0.4550
  116MOL0     C15189   4.457   5.445   1.190 -1.0255 -0.0966  0.5887
  116MOL0     C15190   4.303   5.435   1.190  0.3521  0.6694  0.1401
  116MOL0     C15191   4.259   5.447   1.332  0.1978 -0.3647  0.4732
  116MOL0     C15192   4.313   5.552   1.424  0.4054 -0.3923 -0.3675
  116MOL0     C15193   4.245   5.530   1.562  0.3599 -0.7373  0.0843
  116MOL0     C15194   4.289   5.648   1.665 -0.1331  0.0668 -0.4838
  116MOL0     C15195   4.191   5.763   1.666 -0.2996 -0.0186  0.4486
  116MOL0     C15196   4.060   5.732   1.747  0.4858  0.2015  0.5514
  116MOL0     N15197   3.973   5.843   1.716  0.7267  0.4946  0.4367
  116MOL0     C15198   3.885   5.854   1.608  1.0745  0.8142 -0.2537
  116MOL0     C15199   3.821   5.975   1.620 -0.0380  0.2367  0.1033
  116MOL0     C15200   3.722   6.032   1.523 -0.5093  0.1491 -0.3070
  116MOL0     C15201   3.592   6.038   1.589  0.8181 -0.0393 -0.4181
  116MOL0     C15202   3.526   5.899   1.604 -0.1984  1.3520  0.1532
  116MOL0     C15203   3.447   5.885   1.738  0.8278  0.3338 -0.4905
  116MOL0     O15204   3.326   5.963   1.727 -0.1174  0.6800 -0.4341
  116MOL0     C15205   3.232   5.941   1.815  0.2267 -0.2568 -0.6413
  116MOL0     C15206   3.110   6.004   1.796  0.4395  0.1950 -0.1173
  116MOL0     C15207   3.003   5.987   1.886 -0.0648  0.5599  0.8895
  116MOL0     C15208   3.018   5.902   1.998 -0.3423 -0.4820  0.3213
  116MOL0     C15209   2.903   5.865   2.083  0.2976  0.1484  0.7092
  116MOL0     O15210   2.928   5.763   2.174  0.0971  0.3905  0.6090
  116MOL0     C15211   2.824   5.702   2.243  0.4125 -0.1470  0.4966
  116MOL0     C15212   2.685   5.709   2.216 -0.4184  0.5603  0.6114
  116MOL0     C15213   2.596   5.634   2.299  0.7681 -0.1218 -0.4645
  116MOL0     C15214   2.638   5.561   2.418 -0.4099  1.0552  0.0200
  116MOL0     O15215   2.547   5.490   2.491  0.2821 -0.1495  0.0258
  116MOL0     C15216   2.583   5.458   2.628  0.1011  0.3912  0.0161
  116MOL0     C15217   2.627   5.315   2.635 -0.7883  0.4314 -0.2423
  116MOL0     C15218   2.606   5.267   2.768  0.5017 -0.4926 -0.3710
  116MOL0     C15219   2.610   5.118   2.777 -0.1504  0.1164  0.5692
  116MOL0     C15220   2.573   5.073   2.911  0.2386 -0.7515 -0.0245
  116MOL0     C15221   2.608   4.922   2.932 -0.0640 -0.1233  1.0405
  116MOL0     C15222   2.551   4.879   3.067  0.6928  0.1354  0.3626
  116MOL0     C15223   2.550   4.721   3.087  0.0245 -0.5461  0.6866
  116MOL0    Cl15224   2.469   4.677   3.244 -0.3248 -0.4270 -0.0182
  116MOL0     C15225   2.779   5.554   2.434  0.3642  0.1577  0.0792
  116MOL0     C15226   2.870   5.613   2.347 -0.9904  0.6151 -0.6617
  116MOL0     O15227   2.799   5.931   2.067  0.2094 -0.1184  0.0148
  116MOL0     C15228   3.139   5.837   2.019  0.2297 -0.0688  0.9586
  116MOL0     C15229   3.251   5.868   1.939  0.5217 -0.0149  0.7190
  116MOL0     N15230   3.870   6.030   1.737  0.3761 -0.1316  0.0481
  116MOL0     N15231   3.957   5.953   1.793  0.1993  0.0114  0.6304
  116MOL0     C15232   4.739   5.419   1.143 -0.3935  0.4491  0.3419
  116MOL0     C15233   4.873   5.439   1.099  0.5092 -0.1699  0.4389
  116MOL0     C15234   5.259   5.484   0.878  0.4926 -0.1700 -0.6358
  116MOL0     C15235   5.256   5.585   0.780 -0.2069  0.9392 -0.0873
  116MOL0     C15236   5.374   5.618   0.718 -1.4902 -0.5047  0.6067
  116MOL0     C15237   5.503   5.564   0.748  0.3073  0.3154  0.1482
  116MOL0     O15238   5.608   5.592   0.665  0.7391 -0.1091  0.4486
  116MOL0     C15239   5.622   5.720   0.596  0.0201 -0.3113  0.2219
  116MOL0     C15240   5.737   5.799   0.667 -0.5851 -0.0645 -0.3201
  116MOL0     C15241   5.787   5.924   0.582  0.3430  0.3982  0.5843
  116MOL0     C15242   5.875   6.002   0.677 -0.5219 -0.6499 -0.3550
  116MOL0     C15243   5.933   6.112   0.602  0.1787  0.0239  0.0485
  116MOL0     C15244   5.974   6.206   0.542 -0.6882 -0.8660  0.0902
  116MOL0     C15245   5.500   5.463   0.840 -0.3531 -0.0495 -0.0930
  116MOL0     C15246   5.384   5.426   0.908 -0.4220  1.0929  0.1965
  116MOL0     H15247   4.834   5.515   0.776  2.2947  2.4913  1.7163
  116MOL0     H15248   4.588   5.466   0.842 -0.0794 -0.5251  0.3517
  116MOL0     H15249   4.496   5.543   1.217  4.2050 -1.3961 -1.0141
  116MOL0     H15250   4.506   5.366   1.247  0.4481 -1.2065 -2.0121
  116MOL0     H15251   4.275   5.339   1.144  1.0016 -0.4456  1.9422
  116MOL0     H15252   4.267   5.526   1.142 -1.6820 -0.2011 -0.0676
  116MOL0     H15253   4.291   5.355   1.382  0.5536 -1.2664 -1.3353
  116MOL0     H15254   4.150   5.457   1.333 -0.2167 -2.1603 -3.9140
  116MOL0     H15255   4.422   5.563   1.423  0.1934  3.7172 -2.2720
  116MOL0     H15256   4.281   5.647   1.379 -0.3240 -0.7905 -0.6953
  116MOL0     H15257   4.272   5.431   1.599 -1.3484 -1.8430 -1.4359
  116MOL0     H15258   4.135   5.531   1.557  0.3246 -1.2648  0.6627
  116MOL0     H15259   4.384   5.696   1.640 -0.7471 -0.1722 -3.6191
  116MOL0     H15260   4.295   5.611   1.768 -1.9458 -2.3418 -1.1463
  116MOL0     H15261   4.253   5.848   1.699  0.6465  0.4203 -2.2241
  116MOL0     H15262   4.156   5.783   1.565 -0.3854  2.5804  0.9141
  116MOL0     H15263   4.078   5.725   1.855 -0.9461 -2.5866  0.7047
  116MOL0     H15264   4.012   5.640   1.712  3.1647 -1.0212 -0.1838
  116MOL0     H15265   3.867   5.784   1.527 -0.7094 -0.6594  1.3140
  116MOL0     H15266   3.725   5.963   1.438 -0.8042 -0.3253  0.0591
  116MOL0     H15267   3.753   6.131   1.491  0.7452 -0.0899  0.0950
  116MOL0     H15268   3.531   6.093   1.517  0.1523 -0.3459 -0.0888
  116MOL0     H15269   3.604   6.099   1.680  1.2503  1.1706 -1.2513
  116MOL0     H15270   3.460   5.874   1.520 -0.1265 -1.1017  0.7428
  116MOL0     H15271   3.600   5.819   1.600 -0.4044  0.2956  6.7324
  116MOL0     H15272   3.516   5.928   1.811  2.6362  0.0337 -1.9362
  116MOL0     H15273   3.416   5.783   1.766  1.1669  0.0093 -1.2638
  116MOL0     H15274   3.101   6.073   1.712 -0.1194 -0.4815 -0.6325
  116MOL0     H15275   2.911   6.041   1.865 -0.9378 -1.3107 -0.4418
  116MOL0     H15276   2.650   5.762   2.127  0.2401  0.8502  0.5163
  116MOL0     H15277   2.492   5.627   2.272 -0.6033  1.0877  3.6343
  116MOL0     H15278   2.489   5.477   2.681  0.9057 -0.1073  1.6908
  116MOL0     H15279   2.663   5.512   2.679  0.6940 -1.2228  0.8543
  116MOL0     H15280   2.733   5.300   2.613 -0.7759  3.4013 -3.1435
  116MOL0     H15281   2.576   5.260   2.556  1.7498 -0.1544 -1.5789
  116MOL0     H15282   2.512   5.316   2.796 -0.3749 -0.1264 -3.5798
  116MOL0     H15283   2.683   5.305   2.837 -1.1088  3.5682 -0.4942
  116MOL0     H15284   2.540   5.070   2.709  1.5977 -0.0891 -1.1536
  116MOL0     H15285   2.713   5.084   2.759  0.4712  3.0972 -2.4618
  116MOL0     H15286   2.466   5.090   2.928  0.3800 -1.2051  1.4134
  116MOL0     H15287   2.627   5.137   2.981  1.1922 -0.4123 -1.0464
  116MOL0     H15288   2.717   4.914   2.927 -0.1819 -1.2439 -2.5934
  116MOL0     H15289   2.564   4.851   2.862  1.8292 -0.8187  0.4748
  116MOL0     H15290   2.609   4.933   3.142  1.8532  1.7967 -1.6181
  116MOL0     H15291   2.445   4.906   3.071 -0.9958 -5.2684  0.1909
  116MOL0     H15292   2.652   4.682   3.082  0.2984  0.2623 -0.1431
  116MOL0     H15293   2.494   4.681   3.002  0.4953  1.3725 -0.5831
  116MOL0     H15294   2.819   5.506   2.523 -1.7064  1.0348  1.5576
  116MOL0     H15295   2.972   5.589   2.374 -1.7827 -4.2943 -1.2204
  116MOL0     H15296   3.170   5.760   2.089  1.1778 -3.2356 -2.6243
  116MOL0     H15297   3.344   5.815   1.958 -1.2394 -2.3938  3.7849
  116MOL0     H15298   4.716   5.405   1.248 -0.7444  3.8615  0.8536
  116MOL0     H15299   4.948   5.451   1.177  4.3553  2.6692 -3.2321
  116MOL0     H15300   5.170   5.642   0.747 -0.6440  0.3805  0.0803
  116MOL0     H15301   5.368   5.697   0.644  0.4751  0.2441  1.1693
  116MOL0     H15302   5.531   5.781   0.589 -0.6234 -1.1453  1.1373
  116MOL0     H15303   5.648   5.697   0.492  1.6678  1.7733  0.1101
  116MOL0     H15304   5.701   5.833   0.765 -0.2943 -0.1282 -0.1898
  116MOL0     H15305   5.821   5.730   0.679 -0.3228  0.1785 -0.7622
  116MOL0     H15306   5.711   5.994   0.546  0.3635  1.4013  2.3579
  116MOL0     H15307   5.847   5.882   0.502 -1.6082  2.2413 -2.0072
  116MOL0     H15308   5.814   6.049   0.755  1.2362  2.0657 -0.4413
  116MOL0     H15309   5.951   5.939   0.724 -1.0139  0.7523  2.5499
  116MOL0     H15310   6.039   6.282   0.504 -0.0760 -0.3145  2.0717
  116MOL0     H15311   5.594   5.409   0.853  2.2920  3.7512 -1.5490
  116MOL0     H15312   5.390   5.348   0.984 -1.0549 -0.9428 -1.7493
  117MOL0     O15313   2.171   1.888   7.093  0.2384 -0.3457 -0.4459
  117MOL0     C15314   2.257   1.800   7.075  1.0804 -0.1787 -0.4186
  117MOL0     O15315   2.222   1.668   7.045 -0.2184 -0.3976  0.4674
  117MOL0     C15316   2.090   1.650   6.992 -0.4106 -0.4488  0.4152
  117MOL0     C15317   2.020   1.539   7.042 -0.1469  0.4903 -0.1842
  117MOL0     C15318   1.894   1.510   6.986 -0.5268  0.5159 -0.4066
  117MOL0     C15319   1.833   1.581   6.881  0.1141 -0.0743 -0.6883
  117MOL0     O15320   1.717   1.559   6.819  0.3684 -0.2449  0.1938
  117MOL0     C15321   1.639   1.445   6.848 -0.1312  0.6050  0.0494
  117MOL0     C15322   1.529   1.426   6.750 -0.6290  0.3513 -1.0212
  117MOL0     C15323   1.422   1.543   6.778  0.1224  0.6044  0.1897
  117MOL0     C15324   1.300   1.536   6.680 -0.4173  0.0123 -0.3581
  117MOL0     C15325   1.221   1.681   6.686 -0.1525  0.4749  0.0128
  117MOL0     C15326   1.178   1.709   6.831  0.0021  0.6010 -1.0444
  117MOL0     C15327   1.073   1.833   6.828  0.2593 -0.0590  0.0771
  117MOL0     C15328   0.925   1.785   6.791 -0.5482 -1.0757  0.6903
  117MOL0     N15329   0.865   1.706   6.888  0.4508  0.2177 -0.1028
  117MOL0     C15330   0.844   1.732   7.020  0.4404  0.8911  0.2259
  117MOL0     C15331   0.794   1.619   7.069  0.1721  1.2882  1.5516
  117MOL0     C15332   0.762   1.595   7.213  0.4568 -0.9812  0.7810
  117MOL0     C15333   0.861   1.491   7.279  1.0759  0.3185  0.3544
  117MOL0     C15334   0.851   1.464   7.430 -0.9463 -0.1905  0.1310
  117MOL0     C15335   0.713   1.432   7.472 -0.2958  0.3233  0.2845
  117MOL0     O15336   0.713   1.396   7.606  0.0657 -0.0996 -0.5272
  117MOL0     C15337   0.593   1.361   7.670 -0.0638 -0.6939 -0.3148
  117MOL0     C15338   0.596   1.338   7.810 -0.3891  0.0607 -0.1109
  117MOL0     C15339   0.487   1.289   7.875 -0.1401  0.9371  0.5769
  117MOL0     C15340   0.362   1.260   7.803  0.3560  0.1254  0.7493
  117MOL0     C15341   0.262   1.185   7.879  1.8448  0.2696 -0.1124
  117MOL0     O15342   0.156   1.152   7.802  0.2043  0.9510 -0.5074
  117MOL0     C15343   0.026   1.109   7.852  0.5724 -0.8479  0.4038
  117MOL0     C15344   0.018   0.984   7.913  0.3138  0.2024 -0.0263
  117MOL0     C15345  -0.107   0.933   7.947  0.1020  0.2994 -0.3694
  117MOL0     C15346  -0.218   1.003   7.928  0.4858  0.5468 -0.8599
  117MOL0     O15347  -0.325   0.933   7.983  0.5203 -0.0477 -0.1613
  117MOL0     C15348  -0.446   0.972   7.915 -0.2906 -0.2015 -0.1539
  117MOL0     C15349  -0.549   0.869   7.964 -0.7362  0.1771 -0.4088
  117MOL0     C15350  -0.693   0.918   7.932 -0.3099 -0.2396 -0.5510
  117MOL0     C15351  -0.802   0.808   7.962 -0.3066 -0.0240  1.2377
  117MOL0     C15352  -0.947   0.864   7.950 -0.2634 -0.4399  0.3473
  117MOL0     C15353  -1.056   0.788   8.021 -0.0814 -0.6200  0.1093
  117MOL0     C15354  -1.192   0.841   8.004  0.8763  0.1047  0.8804
  117MOL0     C15355  -1.297   0.774   8.087  0.6005  0.5089  0.7829
  117MOL0    Cl15356  -1.322   0.608   8.048 -0.4168 -0.0282  0.2985
  117MOL0     C15357  -0.216   1.128   7.862  0.0930 -0.1482 -0.0113
  117MOL0     C15358  -0.097   1.175   7.811 -0.1602  0.0638 -0.6279
  117MOL0     O15359   0.256   1.177   8.006 -0.1316 -0.2830  0.6297
  117MOL0     C15360   0.353   1.303   7.672  0.2086  0.1938 -0.0034
  117MOL0     C15361   0.461   1.353   7.604 -0.6070  0.1187  1.1325
  117MOL0     N15362   0.792   1.517   6.967  0.2883 -0.2821 -0.4722
  117MOL0     N15363   0.832   1.573   6.861 -0.8710 -0.8156  0.2804
  117MOL0     C15364   1.905   1.693   6.834 -0.5063 -0.1369  0.5144
  117MOL0     C15365   2.029   1.730   6.886  0.6448  0.4410 -0.6033
  117MOL0     C15366   2.393   1.811   7.127  1.2786  0.8672  0.3490
  117MOL0     C15367   2.437   1.935   7.167 -1.0640 -0.0860 -0.5142
  117MOL0     C15368   2.567   1.953   7.216  0.1172  0.3147  0.2932
  117MOL0     C15369   2.651   1.847   7.238 -0.9606 -0.1128  1.0664
  117MOL0     O15370   2.769   1.891   7.298  0.4621 -0.4340  0.2487
  117MOL0     C15371   2.867   1.788   7.328  0.3801 -1.0249  0.7799
  117MOL0     C15372   2.981   1.837   7.413 -0.0741  0.5557 -0.4843
  117MOL0     C15373   3.073   1.931   7.337 -0.0258 -1.1476  0.2421
  117MOL0     C15374   3.200   1.970   7.418 -0.4172  0.9186 -0.5806
  117MOL0     C15375   3.275   2.070   7.349 -0.3622 -0.0272  0.4381
  117MOL0     C15376   3.329   2.153   7.288 -0.0843 -0.1007  0.7593
  117MOL0     C15377   2.610   1.723   7.188  0.5913  0.9461 -0.0003
  117MOL0     C15378   2.477   1.701   7.145  0.1848  0.1242  0.3339
  117MOL0     H15379   2.066   1.482   7.122  1.1329  0.8073 -0.6744
  117MOL0     H15380   1.836   1.431   7.032 -1.7124  1.7371  0.2735
  117MOL0     H15381   1.593   1.459   6.947 -1.2021  1.7781 -0.5817
  117MOL0     H15382   1.703   1.358   6.836 -0.4489  0.2451  0.8795
  117MOL0     H15383   1.492   1.323   6.742  3.0369 -1.0813 -1.5678
  117MOL0     H15384   1.557   1.444   6.646  1.2622 -1.4772 -0.8925
  117MOL0     H15385   1.474   1.638   6.768 -0.5441  0.9057 -0.5181
  117MOL0     H15386   1.388   1.539   6.882 -0.6288 -0.2421 -0.0703
  117MOL0     H15387   1.339   1.523   6.578  0.2272  0.3760 -0.1680
  117MOL0     H15388   1.243   1.446   6.704  1.3134 -1.0825 -0.1811
  117MOL0     H15389   1.130   1.663   6.627 -1.0720 -1.5520  1.9066
  117MOL0     H15390   1.285   1.761   6.647  1.4665 -0.0975  1.3840
  117MOL0     H15391   1.266   1.753   6.880  1.9256 -1.0818 -2.7786
  117MOL0     H15392   1.138   1.624   6.887  1.4768 -0.7087 -1.8856
  117MOL0     H15393   1.074   1.877   6.928  0.7903  3.6134 -1.3837
  117MOL0     H15394   1.109   1.909   6.758 -1.7114 -0.7881 -1.8724
  117MOL0     H15395   0.922   1.748   6.688  2.8989  1.7036 -0.6134
  117MOL0     H15396   0.872   1.881   6.796  0.4157 -0.2650 -2.1480
  117MOL0     H15397   0.884   1.814   7.079  1.0885  0.6325  0.1544
  117MOL0     H15398   0.659   1.558   7.210  0.3032 -0.5512 -2.0373
  117MOL0     H15399   0.755   1.693   7.260 -2.2748 -1.2187  1.0057
  117MOL0     H15400   0.962   1.521   7.251  0.0025  1.5310 -2.6142
  117MOL0     H15401   0.861   1.396   7.225  3.0191  0.7395 -0.4439
  117MOL0     H15402   0.924   1.384   7.448 -0.2309  0.3546 -0.2851
  117MOL0     H15403   0.897   1.554   7.470  1.3508 -1.7361  1.1923
  117MOL0     H15404   0.673   1.358   7.402 -1.8227  0.0039  1.4385
  117MOL0     H15405   0.647   1.519   7.463 -0.4453  0.1428 -0.3677
  117MOL0     H15406   0.699   1.347   7.844  1.1910  0.1663 -4.3068
  117MOL0     H15407   0.499   1.254   7.977  2.5550 -0.4543 -0.1354
  117MOL0     H15408   0.106   0.923   7.930 -0.1439 -1.1642 -2.1816
  117MOL0     H15409  -0.125   0.843   8.005  1.0837 -0.0754 -0.6163
  117MOL0     H15410  -0.425   0.970   7.808  1.1608 -2.3900  0.1160
  117MOL0     H15411  -0.482   1.070   7.949  2.1223  0.2004  1.4730
  117MOL0     H15412  -0.543   0.862   8.073 -2.1165  0.3382 -0.3066
  117MOL0     H15413  -0.522   0.772   7.920  3.7732  0.5370  1.0689
  117MOL0     H15414  -0.698   0.949   7.827  1.1617  0.7264 -0.3657
  117MOL0     H15415  -0.713   1.007   7.992  1.5910  0.6776 -1.1969
  117MOL0     H15416  -0.777   0.718   7.904  2.8063  0.9011  0.9459
  117MOL0     H15417  -0.801   0.779   8.068 -0.1252 -2.4420  0.6297
  117MOL0     H15418  -0.964   0.882   7.843  2.7291 -2.2235 -0.5417
  117MOL0     H15419  -0.937   0.963   7.996  1.1729 -0.2296 -0.3428
  117MOL0     H15420  -1.038   0.786   8.129  3.4658  3.2440 -0.1560
  117MOL0     H15421  -1.049   0.688   7.978 -4.0556 -0.5187 -1.2178
  117MOL0     H15422  -1.204   0.948   8.022 -3.1808 -0.3143  1.5264
  117MOL0     H15423  -1.215   0.824   7.898 -2.2906  1.7895  1.2097
  117MOL0     H15424  -1.397   0.816   8.080  0.7634  1.3082  2.6625
  117MOL0     H15425  -1.272   0.786   8.193  2.3399  1.6989  0.2914
  117MOL0     H15426  -0.310   1.183   7.856  1.3471  2.9866  3.8974
  117MOL0     H15427  -0.097   1.265   7.750 -4.1261  0.8646  0.2922
  117MOL0     H15428   0.266   1.297   7.608 -0.3354 -0.8133  0.7963
  117MOL0     H15429   0.455   1.379   7.499  1.8230  0.9212  1.1200
  117MOL0     H15430   1.865   1.757   6.756 -1.2500  0.0306  1.0240
  117MOL0     H15431   2.092   1.802   6.834 -0.3942  2.1746  0.4498
  117MOL0     H15432   2.371   2.020   7.153 -1.3318 -0.2399 -0.1895
  117MOL0     H15433   2.605   2.049   7.250  1.5599  0.5390 -1.7320
  117MOL0     H15434   2.911   1.762   7.232  2.1144 -1.8303  1.7371
  117MOL0     H15435   2.820   1.698   7.370 -0.3451 -0.8036  0.4642
  117MOL0     H15436   2.925   1.881   7.497 -0.1262  2.5179 -1.4967
  117MOL0     H15437   3.036   1.751   7.453  0.9647  0.9889 -0.9605
  117MOL0     H15438   3.026   2.028   7.317  4.8077  1.8074  1.4615
  117MOL0     H15439   3.104   1.886   7.242  1.0520 -1.8137  0.8855
  117MOL0     H15440   3.185   2.003   7.521  0.4712 -0.3399 -0.0167
  117MOL0     H15441   3.265   1.884   7.439 -1.7487 -0.2042 -0.8807
  117MOL0     H15442   3.372   2.220   7.216 -1.3669 -1.8549 -1.8359
  117MOL0     H15443   2.663   1.632   7.214  0.4608  0.5134 -1.1682
  117MOL0     H15444   2.432   1.604   7.129  0.9002 -0.1313 -0.1951
  118MOL0     O15445   9.163   2.168   8.095  0.0319 -0.0335  0.0385
  118MOL0     C15446   9.238   2.184   7.994  0.5129 -0.2754  0.0182
  118MOL0     O15447   9.209   2.139   7.866 -0.0005  0.5278 -0.0179
  118MOL0     C15448   9.108   2.040   7.863  0.8079 -0.7288  0.4403
  118MOL0     C15449   9.007   2.063   7.766 -0.1335 -0.1391 -0.5152
  118MOL0     C15450   8.906   1.963   7.760  0.5853 -0.1190  0.2192
  118MOL0     C15451   8.906   1.848   7.831 -0.7762  0.2505  0.6123
  118MOL0     O15452   8.796   1.770   7.820  1.0649 -0.0583 -0.1162
  118MOL0     C15453   8.816   1.636   7.806  0.1229  0.4624 -0.4421
  118MOL0     C15454   8.670   1.574   7.791 -0.6680  0.4556 -0.1382
  118MOL0     C15455   8.585   1.640   7.672 -0.3614 -0.5664 -0.4262
  118MOL0     C15456   8.441   1.588   7.677  0.5717 -0.1518  0.8960
  118MOL0     C15457   8.426   1.438   7.651  0.1719 -0.1932 -0.0626
  118MOL0     C15458   8.507   1.383   7.524  0.3910  0.1681 -0.8439
  118MOL0     C15459   8.451   1.248   7.477  0.1838 -0.5114  0.0948
  118MOL0     C15460   8.469   1.125   7.577  0.2494 -0.4729  0.4520
  118MOL0     N15461   8.598   1.133   7.650 -0.1757 -0.6443 -0.2312
  118MOL0     C15462   8.720   1.136   7.586  0.3989  0.1976 -0.2477
  118MOL0     C15463   8.811   1.166   7.682 -0.7338 -0.7398  0.9336
  118MOL0     C15464   8.964   1.196   7.656  0.4317 -0.0173 -0.6037
  118MOL0     C15465   8.994   1.335   7.710 -0.7373 -0.0589 -0.4534
  118MOL0     C15466   9.130   1.370   7.664 -0.7712  0.1839  0.4857
  118MOL0     C15467   9.191   1.474   7.752 -0.0250  0.1879 -0.3513
  118MOL0     O15468   9.326   1.479   7.697  0.2242  0.1534  0.5108
  118MOL0     C15469   9.415   1.581   7.728  0.5148  0.6084 -0.8298
  118MOL0     C15470   9.528   1.597   7.645 -0.7707 -0.1033  0.1329
  118MOL0     C15471   9.618   1.698   7.667  0.7392 -0.3168 -0.2420
  118MOL0     C15472   9.597   1.789   7.773  0.4278  0.1601 -0.4714
  118MOL0     C15473   9.701   1.895   7.789  0.8983 -0.3973 -0.2094
  118MOL0     O15474   9.775   1.907   7.677  0.3330 -0.3425  1.5332
  118MOL0     C15475   9.867   2.011   7.669 -0.3861 -0.0345 -0.3914
  118MOL0     C15476   9.832   2.145   7.665  0.9713  0.7682  0.0009
  118MOL0     C15477   9.928   2.251   7.638  0.6135  0.0607  0.0900
  118MOL0     C15478  10.062   2.218   7.619 -0.7756 -0.5399  0.3716
  118MOL0     O15479  10.166   2.299   7.582  0.3842  0.5665  0.1313
  118MOL0     C15480  10.123   2.428   7.527 -0.2720  0.3869 -0.3848
  118MOL0     C15481  10.219   2.538   7.533  0.2030  0.8798  1.0744
  118MOL0     C15482  10.256   2.567   7.671 -0.0688 -0.4993  0.6801
  118MOL0     C15483  10.378   2.502   7.716 -0.3816  0.2449 -0.1581
  118MOL0     C15484  10.400   2.524   7.865 -0.3373  0.2536 -0.2462
  118MOL0     C15485  10.518   2.448   7.920 -0.6711  1.3053 -1.1365
  118MOL0     C15486  10.550   2.478   8.066  0.1645 -0.1297  0.1830
  118MOL0     C15487  10.679   2.407   8.102  1.1463 -0.1324 -1.1969
  118MOL0    Cl15488  10.692   2.400   8.285  0.0381  0.2301 -0.1588
  118MOL0     C15489  10.097   2.083   7.635  0.2237  0.1638 -1.0559
  118MOL0     C15490  10.005   1.987   7.643  0.1807  0.3679  0.1610
  118MOL0     O15491   9.711   1.959   7.896  0.0076 -0.0634  0.7569
  118MOL0     C15492   9.484   1.785   7.849  0.3735 -0.1550 -0.3753
  118MOL0     C15493   9.390   1.673   7.830 -0.1769 -0.5474  0.3285
  118MOL0     N15494   8.754   1.175   7.803  0.1670 -0.5652  0.6905
  118MOL0     N15495   8.625   1.159   7.782 -0.4360 -0.4337 -0.1494
  118MOL0     C15496   9.007   1.827   7.915 -0.1238 -0.4904 -0.4837
  118MOL0     C15497   9.105   1.921   7.939  0.5047  0.4624  0.4572
  118MOL0     C15498   9.369   2.247   8.024  1.1290  0.2751 -0.0967
  118MOL0     C15499   9.395   2.343   8.118 -0.1177 -0.8459 -0.2312
  118MOL0     C15500   9.515   2.409   8.138 -0.9221 -0.5874 -0.0283
  118MOL0     C15501   9.614   2.388   8.051 -0.9247 -0.5524  1.1459
  118MOL0     O15502   9.726   2.467   8.069  0.1316  0.0041 -0.0955
  118MOL0     C15503   9.856   2.430   8.014  0.3538  0.1133 -0.4677
  118MOL0     C15504   9.911   2.294   8.062  0.3389  0.9435 -0.3427
  118MOL0     C15505  10.049   2.271   8.017 -0.4882  0.7603  0.6212
  118MOL0     C15506  10.075   2.123   7.996 -0.8269 -0.2557 -0.1323
  118MOL0     C15507  10.206   2.100   7.937  0.2567  0.3910  0.0735
  118MOL0     C15508  10.316   2.066   7.901  0.3908  0.3419 -0.0112
  118MOL0     C15509   9.597   2.294   7.953 -0.4245 -0.5469  0.3650
  118MOL0     C15510   9.486   2.219   7.938  0.2031 -0.5391 -0.3693
  118MOL0     H15511   9.009   2.160   7.717  1.7768  0.3110  0.3561
  118MOL0     H15512   8.820   1.980   7.695  0.6481  1.5197  0.5300
  118MOL0     H15513   8.858   1.587   7.894 -1.5876 -1.8328 -0.8126
  118MOL0     H15514   8.881   1.617   7.720  0.1028 -1.0709 -0.1537
  118MOL0     H15515   8.617   1.600   7.883 -0.9010  2.6046 -0.8156
  118MOL0     H15516   8.666   1.465   7.788 -1.3370  0.4880 -1.2821
  118MOL0     H15517   8.623   1.617   7.572  1.7755 -0.2962  0.2846
  118MOL0     H15518   8.587   1.749   7.679  0.9365 -0.4416 -2.0810
  118MOL0     H15519   8.408   1.607   7.780  0.1897  4.3696  0.1225
  118MOL0     H15520   8.376   1.643   7.608 -2.1525 -2.4603  1.4043
  118MOL0     H15521   8.319   1.415   7.640 -0.3816  2.9380 -2.9198
  118MOL0     H15522   8.455   1.379   7.738 -0.9095  0.1866  0.5692
  118MOL0     H15523   8.614   1.376   7.550  0.1979  1.3886  0.4183
  118MOL0     H15524   8.480   1.453   7.445 -3.6332  1.8486  1.6980
  118MOL0     H15525   8.350   1.264   7.440 -0.3404 -0.1728  1.6066
  118MOL0     H15526   8.505   1.223   7.385  2.1720  4.1294 -0.2736
  118MOL0     H15527   8.464   1.027   7.528 -3.6141 -0.3886  0.3890
  118MOL0     H15528   8.395   1.134   7.657  1.9152  0.9162  1.9191
  118MOL0     H15529   8.750   1.135   7.482 -0.3743 -1.7814 -0.5099
  118MOL0     H15530   8.995   1.181   7.552  1.3931  0.4150 -0.3929
  118MOL0     H15531   9.034   1.127   7.705  0.3250  0.5064  0.3147
  118MOL0     H15532   8.988   1.346   7.818  2.5583 -1.0641 -0.0606
  118MOL0     H15533   8.922   1.397   7.656 -0.1427 -0.5560 -1.8834
  118MOL0     H15534   9.195   1.283   7.675  0.6162  1.3054  1.5167
  118MOL0     H15535   9.128   1.403   7.560 -0.2385 -2.8168 -0.5926
  118MOL0     H15536   9.195   1.448   7.858 -1.0721 -2.5365 -0.9089
  118MOL0     H15537   9.137   1.569   7.746 -0.9671 -0.2479  0.8360
  118MOL0     H15538   9.556   1.532   7.563 -2.4119 -0.4958 -0.1565
  118MOL0     H15539   9.705   1.696   7.602  3.5251 -1.5669  3.2254
  118MOL0     H15540   9.727   2.168   7.675  0.4567 -1.2881 -0.0992
  118MOL0     H15541   9.878   2.344   7.613 -0.5465 -0.9639 -1.6838
  118MOL0     H15542  10.027   2.461   7.567 -1.0039 -1.4339 -0.5593
  118MOL0     H15543  10.092   2.414   7.423  2.5844  0.3770 -1.3017
  118MOL0     H15544  10.178   2.627   7.486  0.6397  0.7654  0.4584
  118MOL0     H15545  10.305   2.513   7.470 -0.0598 -0.1280  1.0911
  118MOL0     H15546  10.169   2.550   7.735 -2.5343  3.6631 -1.0591
  118MOL0     H15547  10.279   2.674   7.671 -1.2962 -0.2193  1.2827
  118MOL0     H15548  10.363   2.397   7.690  2.7563  0.2426 -2.6022
  118MOL0     H15549  10.459   2.545   7.657  1.2126 -1.1459  0.9137
  118MOL0     H15550  10.322   2.488   7.932 -0.0751 -1.4150 -0.7950
  118MOL0     H15551  10.413   2.632   7.877  1.3975 -0.0763  1.3665
  118MOL0     H15552  10.611   2.463   7.865 -1.0894  4.8657 -1.1379
  118MOL0     H15553  10.495   2.341   7.915  0.4189  0.9493  0.6800
  118MOL0     H15554  10.556   2.586   8.082 -0.9089 -0.1475  0.8140
  118MOL0     H15555  10.466   2.436   8.123 -0.1534 -0.1708 -0.3079
  118MOL0     H15556  10.759   2.460   8.049  1.1172 -0.4173 -1.5341
  118MOL0     H15557  10.667   2.307   8.058 -2.3419 -0.8961  1.1454
  118MOL0     H15558  10.197   2.044   7.620 -0.4192 -1.8820 -0.3812
  118MOL0     H15559  10.050   1.888   7.635  1.1412  0.8652 -1.0920
  118MOL0     H15560   9.471   1.861   7.925  2.2435 -1.8422  1.7856
  118MOL0     H15561   9.307   1.662   7.899 -1.2635  0.8906 -0.6808
  118MOL0     H15562   9.011   1.728   7.958 -1.8554 -0.6148 -0.5347
  118MOL0     H15563   9.178   1.906   8.018  1.4850 -2.5603 -0.8812
  118MOL0     H15564   9.312   2.368   8.182  0.9334  0.2340  0.7815
  118MOL0     H15565   9.531   2.467   8.228  0.1452  0.6684 -0.9820
  118MOL0     H15566   9.927   2.511   8.034 -0.9179  1.5000 -1.4172
  118MOL0     H15567   9.835   2.428   7.906 -1.6585  4.1861 -0.3265
  118MOL0     H15568   9.921   2.309   8.170 -0.4661 -0.8424  0.0121
  118MOL0     H15569   9.838   2.215   8.043  0.0919  1.0878 -0.0041
  118MOL0     H15570  10.116   2.321   8.087 -1.0486 -1.1182  2.6100
  118MOL0     H15571  10.074   2.315   7.920  0.5004  1.2374  1.0759
  118MOL0     H15572  10.050   2.079   8.093  0.7595 -0.5065  0.1926
  118MOL0     H15573  10.008   2.074   7.925  1.8831 -0.0557 -3.0096
  118MOL0     H15574  10.413   2.043   7.860 -0.2342 -1.0582 -0.7917
  118MOL0     H15575   9.675   2.274   7.880 -0.0075 -0.6492  0.8348
  118MOL0     H15576   9.489   2.143   7.861  1.5599 -3.6789  2.5145
  119MOL0     O15577   1.122   7.858   2.060  0.2644  0.9497  0.1018
  119MOL0     C15578   1.131   7.769   2.145 -0.8492 -0.2834  1.3052
  119MOL0     O15579   1.026   7.691   2.179 -0.1457 -0.0871  0.4165
  119MOL0     C15580   0.899   7.736   2.143  0.2826  0.3325 -1.0858
  119MOL0     C15581   0.806   7.623   2.132  0.0782  0.2632  0.2217
  119MOL0     C15582   0.675   7.651   2.116  0.1130  0.1253 -0.6817
  119MOL0     C15583   0.623   7.777   2.101  0.2693  1.0891  0.4726
  119MOL0     O15584   0.486   7.792   2.081 -0.0436 -0.1052 -1.0544
  119MOL0     C15585   0.430   7.890   2.172  0.0329 -0.0900  0.1671
  119MOL0     C15586   0.279   7.848   2.204  0.3625  0.7508 -0.2069
  119MOL0     C15587   0.187   7.886   2.087  1.1061  0.4939  0.4424
  119MOL0     C15588   0.048   7.846   2.091  0.1770  0.5283 -0.3181
  119MOL0     C15589  -0.033   7.914   1.976 -0.6855 -1.4127  0.4578
  119MOL0     C15590  -0.175   7.845   1.960 -0.1029  0.6399 -0.6835
  119MOL0     C15591  -0.188   7.687   1.957  0.0634  1.2486  0.4043
  119MOL0     C15592  -0.318   7.654   1.891 -0.0770  0.6765  0.3810
  119MOL0     N15593  -0.450   7.681   1.955 -0.0278  0.4297 -0.5007
  119MOL0     C15594  -0.523   7.792   1.953  0.2306  0.1477  0.4433
  119MOL0     C15595  -0.629   7.772   2.039 -0.1194  0.0603  0.0864
  119MOL0     C15596  -0.737   7.873   2.062 -0.3435 -1.0066 -0.2129
  119MOL0     C15597  -0.862   7.861   1.976  1.2479  0.1776  0.0818
  119MOL0     C15598  -0.962   7.747   2.005 -0.0684  0.5464  0.0736
  119MOL0     C15599  -1.080   7.744   1.906 -0.6805  0.0775 -0.2056
  119MOL0     O15600  -1.062   7.800   1.778  0.0393  0.3639 -0.0446
  119MOL0     C15601  -1.137   7.751   1.681  0.6876 -0.4648 -0.6814
  119MOL0     C15602  -1.089   7.758   1.554  0.0590 -0.3916  0.1245
  119MOL0     C15603  -1.172   7.736   1.441 -0.0418  0.6241 -0.0892
  119MOL0     C15604  -1.306   7.692   1.460  0.1929 -0.6755  0.1349
  119MOL0     C15605  -1.393   7.652   1.350  1.0618  1.1209  0.4736
  119MOL0     O15606  -1.529   7.685   1.363 -0.1267 -0.2826  0.1577
  119MOL0     C15607  -1.607   7.663   1.254  0.2742 -0.2900  0.4361
  119MOL0     C15608  -1.627   7.532   1.211 -0.5114  0.0551  0.1876
  119MOL0     C15609  -1.708   7.513   1.102  0.3127 -0.5096  0.0388
  119MOL0     C15610  -1.750   7.615   1.023 -0.7969  0.1979 -0.3731
  119MOL0     O15611  -1.819   7.591   0.910 -0.4969  1.0559  0.2173
  119MOL0     C15612  -1.773   7.668   0.800 -0.3719 -0.8021 -0.0425
  119MOL0     C15613  -1.832   7.620   0.674  1.6495 -0.1674  1.3768
  119MOL0     C15614  -1.974   7.684   0.671 -0.2982  0.8455 -0.5147
  119MOL0     C15615  -2.048   7.629   0.548 -0.0310 -0.8089  0.0111
  119MOL0     C15616  -2.185   7.690   0.544  0.2711 -0.6110 -0.4629
  119MOL0     C15617  -2.294   7.587   0.574  0.8954 -0.7940 -0.2091
  119MOL0     C15618  -2.433   7.654   0.585 -0.1277  0.0088 -0.1181
  119MOL0     C15619  -2.554   7.561   0.594  0.0704  0.8894 -0.5949
  119MOL0    Cl15620  -2.554   7.445   0.457  0.5581  0.0943  0.2799
  119MOL0     C15621  -1.734   7.748   1.066 -0.4534  0.2626  0.0461
  119MOL0     C15622  -1.665   7.774   1.184  0.5412 -0.2258  0.3458
  119MOL0     O15623  -1.337   7.613   1.245 -0.1906  0.0060 -0.1556
  119MOL0     C15624  -1.359   7.688   1.593 -0.2928 -0.6370 -0.6499
  119MOL0     C15625  -1.270   7.715   1.698  0.0317 -0.4167 -0.5239
  119MOL0     N15626  -0.611   7.657   2.098 -0.5961  0.2708 -0.2239
  119MOL0     N15627  -0.507   7.602   2.054  0.1218 -0.0899 -0.9701
  119MOL0     C15628   0.711   7.887   2.108  0.3166 -0.0093 -0.1329
  119MOL0     C15629   0.848   7.871   2.132 -0.0332 -0.9224  0.2289
  119MOL0     C15630   1.269   7.739   2.189 -0.2057  0.6017  0.3195
  119MOL0     C15631   1.375   7.827   2.174 -0.5861 -0.0432 -0.3157
  119MOL0     C15632   1.510   7.799   2.206  0.0118 -0.0338 -0.2186
  119MOL0     C15633   1.536   7.672   2.259  0.5105  0.7902 -0.2247
  119MOL0     O15634   1.659   7.624   2.281 -0.7203  0.2037  0.1049
  119MOL0     C15635   1.765   7.662   2.193 -1.0336  1.3013  0.5980
  119MOL0     C15636   1.763   7.579   2.068 -0.0509  0.1865 -0.2289
  119MOL0     C15637   1.851   7.637   1.957 -0.5532 -0.4465 -0.5851
  119MOL0     C15638   1.779   7.737   1.872 -0.1316 -0.6899 -0.0726
  119MOL0     C15639   1.865   7.791   1.773  0.4921  0.2037  0.2125
  119MOL0     C15640   1.933   7.835   1.691  0.1041  0.6111 -0.4981
  119MOL0     C15641   1.426   7.578   2.275  0.7905  0.7942  0.1505
  119MOL0     C15642   1.296   7.606   2.236  0.2356 -0.1867  0.7390
  119MOL0     H15643   0.854   7.526   2.135  0.4876  0.4396 -0.4533
  119MOL0     H15644   0.611   7.563   2.109  1.1692 -0.6207 -1.1257
  119MOL0     H15645   0.437   7.990   2.126  0.8945  1.2080  2.8899
  119MOL0     H15646   0.492   7.889   2.262  3.0536 -0.2590 -1.7395
  119MOL0     H15647   0.241   7.897   2.294  1.6707 -1.0519  1.4192
  119MOL0     H15648   0.264   7.743   2.234  0.7457  0.1268 -2.0415
  119MOL0     H15649   0.240   7.851   1.998  0.4135 -1.6647  0.8083
  119MOL0     H15650   0.189   7.995   2.085  2.7073  0.5168  1.5804
  119MOL0     H15651   0.040   7.737   2.083 -0.4082  0.5739 -0.4137
  119MOL0     H15652   0.002   7.876   2.185 -1.7180  1.5570 -1.5063
  119MOL0     H15653   0.014   7.920   1.878 -0.0670  1.4119  0.8197
  119MOL0     H15654  -0.059   8.017   2.005 -0.4271 -0.7679 -1.4698
  119MOL0     H15655  -0.204   7.878   1.859  3.8791  5.8549 -0.5497
  119MOL0     H15656  -0.243   7.882   2.037 -2.3919 -3.6752 -0.3210
  119MOL0     H15657  -0.111   7.643   1.893 -1.7272  0.5513 -1.3973
  119MOL0     H15658  -0.179   7.637   2.054  1.1685 -0.3533 -0.4669
  119MOL0     H15659  -0.320   7.545   1.883 -0.1439  0.4439  2.7672
  119MOL0     H15660  -0.317   7.680   1.785 -2.4035  0.3107  0.2273
  119MOL0     H15661  -0.517   7.875   1.883 -3.5300 -0.3174 -0.6869
  119MOL0     H15662  -0.695   7.971   2.040 -1.0269 -0.9019 -1.0787
  119MOL0     H15663  -0.771   7.872   2.166 -0.0418 -0.6999 -0.1074
  119MOL0     H15664  -0.826   7.855   1.873  0.1412  0.8380 -0.3674
  119MOL0     H15665  -0.914   7.955   1.996 -0.4739 -1.0839  1.9646
  119MOL0     H15666  -0.901   7.658   1.986  0.8134  1.1611  0.0022
  119MOL0     H15667  -0.983   7.754   2.112  2.1981  2.5149  0.4682
  119MOL0     H15668  -1.159   7.809   1.944 -1.1546 -0.8399  0.4318
  119MOL0     H15669  -1.118   7.642   1.905  3.7492 -1.8131  0.4011
  119MOL0     H15670  -0.982   7.777   1.546 -0.2297  0.6299 -3.7738
  119MOL0     H15671  -1.126   7.736   1.342  2.2750 -0.1952  0.9148
  119MOL0     H15672  -1.588   7.449   1.269  1.2042  1.0221  0.4806
  119MOL0     H15673  -1.730   7.408   1.082 -0.6182 -0.7743  2.1354
  119MOL0     H15674  -1.664   7.659   0.791 -0.3592 -0.0391 -0.7704
  119MOL0     H15675  -1.791   7.773   0.822 -0.7908 -1.1780  1.4912
  119MOL0     H15676  -1.843   7.511   0.669  0.2739 -0.0087  0.3897
  119MOL0     H15677  -1.777   7.640   0.581 -1.1011  1.6879  0.0335
  119MOL0     H15678  -1.971   7.793   0.672  1.6434  0.8369 -0.7157
  119MOL0     H15679  -2.024   7.659   0.766 -0.7059  0.8392 -0.7299
  119MOL0     H15680  -1.988   7.655   0.460 -0.0762 -2.2688 -0.4649
  119MOL0     H15681  -2.068   7.523   0.532 -3.2772 -0.4702  1.0920
  119MOL0     H15682  -2.202   7.723   0.441  0.5371 -0.1110 -0.3508
  119MOL0     H15683  -2.194   7.779   0.607 -0.4548 -0.4930 -0.7308
  119MOL0     H15684  -2.273   7.548   0.674  1.2603  0.3795  0.1798
  119MOL0     H15685  -2.300   7.503   0.505 -1.7631  0.9438 -2.2785
  119MOL0     H15686  -2.433   7.720   0.672  1.2922  0.6242 -0.5486
  119MOL0     H15687  -2.451   7.722   0.501 -4.0499 -0.3471  0.2323
  119MOL0     H15688  -2.641   7.627   0.585 -0.6675 -0.1600 -1.3663
  119MOL0     H15689  -2.545   7.494   0.680  2.2065 -2.8632 -3.4487
  119MOL0     H15690  -1.782   7.830   1.013 -1.2063 -0.9713 -1.2417
  119MOL0     H15691  -1.652   7.878   1.215  0.4899 -0.0217 -0.2986
  119MOL0     H15692  -1.464   7.671   1.614 -0.6776  2.0259 -0.0404
  119MOL0     H15693  -1.306   7.725   1.800  1.8729 -0.7272  0.2080
  119MOL0     H15694   0.676   7.989   2.093 -2.1437 -1.0411 -2.1643
  119MOL0     H15695   0.923   7.947   2.151 -1.1998  0.1432  0.6899
  119MOL0     H15696   1.351   7.929   2.147 -1.1351  0.8290  3.0042
  119MOL0     H15697   1.589   7.872   2.192  0.0239 -0.3158 -1.7639
  119MOL0     H15698   1.860   7.656   2.247  0.3623 -0.8004 -1.8501
  119MOL0     H15699   1.759   7.768   2.165 -3.6433  1.0388 -0.0911
  119MOL0     H15700   1.779   7.474   2.093 -1.2190 -0.0010 -0.2102
  119MOL0     H15701   1.663   7.584   2.023 -1.0616 -0.3178  1.8562
  119MOL0     H15702   1.895   7.560   1.893  1.2206 -0.0220  0.0597
  119MOL0     H15703   1.936   7.690   2.002 -2.5003  1.9251  0.4904
  119MOL0     H15704   1.694   7.689   1.823 -0.7839  2.8340 -2.8291
  119MOL0     H15705   1.744   7.822   1.931  0.1837  0.0749 -0.9599
  119MOL0     H15706   1.986   7.889   1.615  1.1102 -0.1267 -0.3355
  119MOL0     H15707   1.437   7.483   2.326 -2.4910 -1.0943 -2.2701
  119MOL0     H15708   1.212   7.538   2.248  1.0325 -1.2558  0.4083
  120MOL0     O15709   2.952   1.854   7.934  0.2677  0.5533  0.4327
  120MOL0     C15710   2.975   1.915   7.832  0.1029  0.0226  0.0216
  120MOL0     O15711   2.894   1.923   7.725  0.1685  0.2599 -0.9527
  120MOL0     C15712   2.785   1.831   7.719 -0.1128 -0.5209 -0.6129
  120MOL0     C15713   2.769   1.710   7.785 -0.1508  0.1999 -0.3069
  120MOL0     C15714   2.664   1.626   7.749 -0.4178  0.3771  0.2263
  120MOL0     C15715   2.560   1.676   7.663 -1.2998 -0.0484 -0.5981
  120MOL0     O15716   2.452   1.585   7.639 -0.1001 -0.6000  0.0423
  120MOL0     C15717   2.343   1.616   7.546  0.3355  0.3314  0.2282
  120MOL0     C15718   2.226   1.525   7.586  0.7690 -0.5820  0.7210
  120MOL0     C15719   2.108   1.554   7.499  0.0949 -0.2171  1.0664
  120MOL0     C15720   1.984   1.467   7.532 -0.8129  1.0077 -0.5920
  120MOL0     C15721   1.862   1.481   7.443 -0.3666 -0.6464  0.6805
  120MOL0     C15722   1.749   1.382   7.479  0.9190 -0.2973 -0.0303
  120MOL0     C15723   1.640   1.362   7.368  0.0964 -0.7678 -0.7107
  120MOL0     C15724   1.547   1.239   7.384 -0.1907  0.2467  0.1794
  120MOL0     N15725   1.460   1.226   7.267 -0.0237  0.2557  0.5470
  120MOL0     C15726   1.337   1.284   7.265 -0.6995 -0.0083  0.3634
  120MOL0     C15727   1.300   1.286   7.134  0.6956  0.4648  0.2283
  120MOL0     C15728   1.171   1.343   7.079 -0.1550  0.9660  0.2972
  120MOL0     C15729   1.061   1.246   7.049  0.1115  0.4694  0.2375
  120MOL0     C15730   1.107   1.116   6.960 -0.1835  0.0334  0.2133
  120MOL0     C15731   0.994   1.056   6.882  0.0245 -0.6769 -0.0472
  120MOL0     O15732   0.899   1.003   6.976  0.0297 -0.2390  0.2880
  120MOL0     C15733   0.773   0.952   6.932  0.1968  0.3111 -0.6404
  120MOL0     C15734   0.708   1.006   6.818 -0.4239  0.4788  0.3776
  120MOL0     C15735   0.576   0.959   6.792  0.0616  0.7932  0.7914
  120MOL0     C15736   0.508   0.871   6.876  0.5481  0.4932 -0.7511
  120MOL0     C15737   0.362   0.857   6.867 -0.4734 -0.9402  1.0231
  120MOL0     O15738   0.305   0.785   6.972  0.7216  0.2173  0.2989
  120MOL0     C15739   0.169   0.778   6.983 -0.3807  0.2466 -0.1896
  120MOL0     C15740   0.131   0.677   7.078  0.1579  0.1799 -0.5687
  120MOL0     C15741  -0.008   0.659   7.113 -0.4729 -0.4401 -0.7796
  120MOL0     C15742  -0.105   0.748   7.055  0.1842 -0.7028 -0.1318
  120MOL0     O15743  -0.237   0.749   7.086  0.0245  0.2679  0.4412
  120MOL0     C15744  -0.308   0.627   7.105  0.7452  0.0943  0.8320
  120MOL0     C15745  -0.454   0.643   7.059  0.5503 -0.4058 -0.4907
  120MOL0     C15746  -0.526   0.754   7.138  0.0464 -0.3495  0.9743
  120MOL0     C15747  -0.681   0.764   7.131 -0.2003 -0.4196 -0.5266
  120MOL0     C15748  -0.729   0.889   7.203  0.1797 -0.3536 -0.4826
  120MOL0     C15749  -0.861   0.870   7.279  0.8197 -0.2395  0.5355
  120MOL0     C15750  -0.860   0.837   7.425  0.5202 -0.9464  0.2679
  120MOL0     C15751  -1.002   0.867   7.503 -0.5217 -0.1295  0.5729
  120MOL0    Cl15752  -1.125   0.754   7.450 -0.3347  0.0306 -0.0747
  120MOL0     C15753  -0.067   0.841   6.969 -0.0241  0.1701  0.3244
  120MOL0     C15754   0.067   0.858   6.927 -0.5340  0.1861  0.5100
  120MOL0     O15755   0.304   0.910   6.776  0.7786  0.4042 -0.5316
  120MOL0     C15756   0.571   0.830   7.000 -0.1583 -0.1188 -0.5680
  120MOL0     C15757   0.707   0.866   7.025 -0.5651 -0.5659  0.0311
  120MOL0     N15758   1.404   1.231   7.060 -0.2162 -0.3301 -0.3297
  120MOL0     N15759   1.499   1.195   7.138  0.4839  0.2396  0.0768
  120MOL0     C15760   2.563   1.808   7.622 -0.5013 -0.4191  0.9325
  120MOL0     C15761   2.681   1.877   7.629  0.0364  0.7325 -0.2856
  120MOL0     C15762   3.092   2.002   7.820 -0.2050 -0.7276 -0.5071
  120MOL0     C15763   3.218   1.976   7.875  0.7674  0.0725 -0.8733
  120MOL0     C15764   3.331   2.050   7.857 -0.1193 -0.1205  0.9438
  120MOL0     C15765   3.325   2.167   7.782 -0.2865 -0.5126 -0.4169
  120MOL0     O15766   3.445   2.226   7.763  0.5220 -0.0626 -0.4227
  120MOL0     C15767   3.441   2.369   7.738 -0.3448 -0.3440  0.3926
  120MOL0     C15768   3.574   2.426   7.755 -0.4636 -0.2954  0.7398
  120MOL0     C15769   3.579   2.574   7.716 -0.2308  1.2223 -0.0170
  120MOL0     C15770   3.708   2.636   7.752 -0.6383  0.1689  0.2200
  120MOL0     C15771   3.727   2.771   7.691  0.2661  0.2328 -0.0614
  120MOL0     C15772   3.748   2.879   7.638 -0.7922 -0.7444  0.3050
  120MOL0     C15773   3.199   2.210   7.736 -0.3637  0.0145 -0.4493
  120MOL0     C15774   3.083   2.125   7.751  0.0985 -1.0150  0.0053
  120MOL0     H15775   2.833   1.669   7.862 -1.1266 -1.8104 -0.5094
  120MOL0     H15776   2.662   1.527   7.795 -0.9899 -0.2115 -1.0273
  120MOL0     H15777   2.384   1.587   7.448 -2.3434 -3.3276 -0.0271
  120MOL0     H15778   2.312   1.720   7.555 -1.8285 -0.3708  1.6948
  120MOL0     H15779   2.199   1.552   7.688  2.0424  4.5290 -0.0190
  120MOL0     H15780   2.250   1.418   7.591 -3.6377 -1.7274  0.7788
  120MOL0     H15781   2.128   1.529   7.394  0.6000 -3.6759  1.8511
  120MOL0     H15782   2.078   1.659   7.499  3.5057  0.9603 -1.6613
  120MOL0     H15783   2.021   1.365   7.533  0.2721  1.3920 -0.2072
  120MOL0     H15784   1.956   1.501   7.632 -0.1139  3.9761 -1.3082
  120MOL0     H15785   1.890   1.469   7.337  2.0884  0.9614  1.0602
  120MOL0     H15786   1.821   1.583   7.448 -0.6945 -0.7095 -0.3480
  120MOL0     H15787   1.698   1.416   7.570  1.5656  1.2810 -0.2306
  120MOL0     H15788   1.789   1.286   7.511 -0.4481 -0.6673  0.6512
  120MOL0     H15789   1.583   1.456   7.369 -0.8175 -1.3139  0.2592
  120MOL0     H15790   1.701   1.361   7.278  1.7260  0.8496  0.3135
  120MOL0     H15791   1.490   1.246   7.477  0.8723  2.3426  0.7400
  120MOL0     H15792   1.621   1.159   7.397  0.1468  0.6217  0.5928
  120MOL0     H15793   1.297   1.328   7.356 -1.3296  0.6458 -0.2163
  120MOL0     H15794   1.206   1.386   6.985  2.9015 -3.2499 -0.7913
  120MOL0     H15795   1.137   1.418   7.151 -0.0128  0.2399  1.1489
  120MOL0     H15796   0.973   1.295   7.006 -2.3739 -2.7754  1.2175
  120MOL0     H15797   1.018   1.200   7.138 -0.2260 -1.0738 -0.6677
  120MOL0     H15798   1.191   1.134   6.891 -0.7058 -1.8739 -1.0019
  120MOL0     H15799   1.143   1.042   7.031 -1.3641 -1.6589 -0.8740
  120MOL0     H15800   1.038   0.973   6.825 -0.0612  0.2414 -1.4901
  120MOL0     H15801   0.948   1.139   6.828  1.4392  0.7416  0.8432
  120MOL0     H15802   0.763   1.077   6.756  2.6161 -0.8743  1.3051
  120MOL0     H15803   0.519   1.007   6.713  1.2135  0.5460 -0.2224
  120MOL0     H15804   0.208   0.614   7.121  0.3021  2.3732  2.7861
  120MOL0     H15805  -0.040   0.585   7.186 -2.8236 -0.7622 -2.0194
  120MOL0     H15806  -0.313   0.605   7.212  0.8919  1.6811  1.1812
  120MOL0     H15807  -0.262   0.544   7.050 -0.2277 -0.1324  0.3384
  120MOL0     H15808  -0.505   0.549   7.080  1.4212 -0.5903  0.9143
  120MOL0     H15809  -0.458   0.668   6.953  0.1884  2.3726  0.0781
  120MOL0     H15810  -0.475   0.848   7.114 -0.4388 -0.2699  0.2275
  120MOL0     H15811  -0.504   0.737   7.244  1.7263 -0.6312  0.6008
  120MOL0     H15812  -0.720   0.765   7.029 -0.5859  2.7388 -0.4426
  120MOL0     H15813  -0.720   0.676   7.184 -3.2555 -0.3281 -2.3818
  120MOL0     H15814  -0.740   0.964   7.124 -2.0016  0.8048  0.8179
  120MOL0     H15815  -0.654   0.934   7.270 -2.0523  2.8850  0.1084
  120MOL0     H15816  -0.919   0.794   7.225  0.1351 -0.7336  1.9148
  120MOL0     H15817  -0.912   0.967   7.274  1.1149 -0.1289 -0.8800
  120MOL0     H15818  -0.847   0.729   7.434  0.7994 -0.8687  0.8109
  120MOL0     H15819  -0.776   0.884   7.477 -0.8770 -1.1098  2.8292
  120MOL0     H15820  -1.028   0.970   7.479  0.2195  0.0895  0.6681
  120MOL0     H15821  -0.993   0.858   7.612 -0.2029 -1.6415  0.4414
  120MOL0     H15822  -0.152   0.888   6.920 -1.4689 -1.8743  0.6921
  120MOL0     H15823   0.083   0.939   6.856  4.0634  2.0230  3.1449
  120MOL0     H15824   0.519   0.778   7.080 -0.0385 -1.1128 -1.1267
  120MOL0     H15825   0.769   0.825   7.105  1.3269  0.4300 -0.8455
  120MOL0     H15826   2.491   1.859   7.559  1.7120  1.8391  0.0922
  120MOL0     H15827   2.703   1.972   7.581  0.0604  0.6392 -0.4596
  120MOL0     H15828   3.213   1.884   7.932 -1.2140  1.4255  1.2974
  120MOL0     H15829   3.424   2.013   7.897 -0.5147 -3.6857 -1.0696
  120MOL0     H15830   3.378   2.417   7.814  0.5443  1.2957  0.1378
  120MOL0     H15831   3.401   2.403   7.642  1.1960  1.8123  0.4322
  120MOL0     H15832   3.612   2.423   7.858  2.3078  2.8068 -0.0365
  120MOL0     H15833   3.642   2.372   7.689  0.6469  1.1960  0.6048
  120MOL0     H15834   3.499   2.628   7.767 -1.2375 -1.3028  1.2418
  120MOL0     H15835   3.561   2.585   7.608 -1.3969  0.2644  0.0638
  120MOL0     H15836   3.721   2.642   7.861  0.2887  0.3943  0.1010
  120MOL0     H15837   3.785   2.567   7.718  0.2459  0.7162  1.0439
  120MOL0     H15838   3.772   2.978   7.603 -0.4515 -1.1900 -0.7703
  120MOL0     H15839   3.196   2.289   7.661  2.4415  0.5669 -0.0989
  120MOL0     H15840   2.989   2.153   7.704  0.0342  0.2883  0.8479
  121MOL0     O15841   0.964   0.970  10.074  0.1327 -0.0618  0.4428
  121MOL0     C15842   1.043   0.900  10.016  0.5746 -1.3875  0.0245
  121MOL0     O15843   1.008   0.784   9.962 -0.7669  0.0488  0.2570
  121MOL0     C15844   0.878   0.749   9.969 -0.6380 -0.2277  0.7816
  121MOL0     C15845   0.796   0.738   9.849 -0.6880  0.9272 -0.7868
  121MOL0     C15846   0.663   0.692   9.866  0.2191 -0.1588  0.4644
  121MOL0     C15847   0.605   0.679   9.986  0.3574  0.3891 -0.1145
  121MOL0     O15848   0.473   0.647   9.997  0.2119  0.6851  0.3956
  121MOL0     C15849   0.403   0.681  10.113 -0.2056  0.0391  0.0052
  121MOL0     C15850   0.277   0.730  10.063  0.3433  0.4320 -0.3908
  121MOL0     C15851   0.193   0.619  10.003 -0.2218  1.0283  0.3666
  121MOL0     C15852   0.050   0.671   9.977 -1.1587 -0.1048  0.6773
  121MOL0     C15853   0.017   0.752   9.846  0.4252 -0.4204  0.4960
  121MOL0     C15854  -0.121   0.802   9.852  0.0474  0.1212 -0.2191
  121MOL0     C15855  -0.149   0.900   9.740  0.7351 -0.7619  0.2465
  121MOL0     C15856  -0.298   0.934   9.733 -0.2768  0.5809  0.1814
  121MOL0     N15857  -0.384   0.813   9.739  0.6008  0.5941 -0.0071
  121MOL0     C15858  -0.476   0.787   9.841 -1.1485  0.7008 -0.4761
  121MOL0     C15859  -0.518   0.664   9.804 -0.1318  0.1630 -0.2491
  121MOL0     C15860  -0.627   0.596   9.896  0.3186  0.2987  0.1651
  121MOL0     C15861  -0.767   0.572   9.817 -0.4708 -0.3384 -0.8744
  121MOL0     C15862  -0.865   0.477   9.900  0.0253 -0.2150  0.0415
  121MOL0     C15863  -0.827   0.321   9.895  0.3395 -0.3514 -0.1046
  121MOL0     O15864  -0.931   0.268   9.971 -0.6602  0.4827  0.1129
  121MOL0     C15865  -0.917   0.174  10.068 -0.0519  0.1444  0.2627
  121MOL0     C15866  -1.037   0.141  10.143 -0.3873  0.4467 -0.0763
  121MOL0     C15867  -1.029   0.045  10.247  0.3853 -0.5900  0.0386
  121MOL0     C15868  -0.921  -0.037  10.256 -0.5552  0.4134  0.0495
  121MOL0     C15869  -0.913  -0.142  10.352 -0.4455  0.3658 -0.0460
  121MOL0     O15870  -0.871  -0.264  10.304 -0.1553  0.6526  0.1203
  121MOL0     C15871  -0.834  -0.375  10.379  0.8262 -0.1577  0.2944
  121MOL0     C15872  -0.728  -0.377  10.467 -0.9204  1.1756  0.0979
  121MOL0     C15873  -0.699  -0.498  10.531 -0.7128 -1.1575  0.0036
  121MOL0     C15874  -0.762  -0.617  10.501 -0.6337 -0.3095 -0.2910
  121MOL0     O15875  -0.713  -0.725  10.562 -0.4683  0.1578 -0.4300
  121MOL0     C15876  -0.811  -0.819  10.607  0.5222  1.2060 -0.2130
  121MOL0     C15877  -0.897  -0.775  10.721  0.5041 -0.3290 -0.2752
  121MOL0     C15878  -0.831  -0.706  10.842 -0.1741 -0.1476 -0.2753
  121MOL0     C15879  -0.906  -0.748  10.967 -0.7815  0.0695 -0.7981
  121MOL0     C15880  -0.821  -0.676  11.085 -0.4906  0.2092  0.0494
  121MOL0     C15881  -0.795  -0.520  11.080 -0.9160 -0.3439 -0.0384
  121MOL0     C15882  -0.928  -0.439  11.090 -0.5090 -0.3189 -0.4601
  121MOL0     C15883  -0.922  -0.288  11.038  0.4006  0.2982  0.5598
  121MOL0    Cl15884  -0.927  -0.147  11.147 -0.3291  0.0331 -0.0706
  121MOL0     C15885  -0.863  -0.613  10.405  0.1524 -0.0966 -0.4025
  121MOL0     C15886  -0.907  -0.494  10.341 -0.9648 -0.4840 -0.3498
  121MOL0     O15887  -0.955  -0.117  10.468  0.0225 -0.1589  0.6208
  121MOL0     C15888  -0.812  -0.018  10.175  0.2210  0.1814  0.4007
  121MOL0     C15889  -0.810   0.087  10.081  0.0057  1.0443  0.0923
  121MOL0     N15890  -0.467   0.621   9.687 -0.0276  0.8732  0.6089
  121MOL0     N15891  -0.382   0.710   9.649  0.1126  0.5213 -0.4032
  121MOL0     C15892   0.681   0.689  10.100 -0.3978 -0.7116 -0.6714
  121MOL0     C15893   0.821   0.709  10.091  0.9688 -0.2634  0.0904
  121MOL0     C15894   1.181   0.937   9.989  0.2453  0.2375 -0.4201
  121MOL0     C15895   1.281   0.853   9.942  0.6199 -0.2162  0.0368
  121MOL0     C15896   1.419   0.898   9.926 -0.0429 -0.7790  0.1326
  121MOL0     C15897   1.447   1.026   9.960  0.0186 -1.6617 -1.3208
  121MOL0     O15898   1.567   1.088   9.924  0.0510 -0.4194  0.5174
  121MOL0     C15899   1.685   1.014   9.940  0.2909  0.1261  0.6250
  121MOL0     C15900   1.794   1.114   9.973  0.7186 -0.3117 -0.2022
  121MOL0     C15901   1.919   1.044  10.023  0.9973 -0.1396  0.8390
  121MOL0     C15902   2.041   1.122   9.973  0.1016 -0.0500 -0.0850
  121MOL0     C15903   2.055   1.101   9.826  1.6124 -0.0633 -0.2173
  121MOL0     C15904   2.059   1.106   9.704  0.5602  1.0538 -0.0112
  121MOL0     C15905   1.350   1.110  10.004 -0.2125 -0.4189 -0.8913
  121MOL0     C15906   1.221   1.065  10.022  0.4849 -0.1512  0.3609
  121MOL0     H15907   0.839   0.745   9.750  2.1318  0.6364  0.3338
  121MOL0     H15908   0.590   0.681   9.787 -1.4702 -2.0606  2.1698
  121MOL0     H15909   0.447   0.763  10.171  1.1017 -0.4566 -0.2395
  121MOL0     H15910   0.381   0.595  10.177  0.4411 -0.7178 -0.7711
  121MOL0     H15911   0.303   0.809   9.992  1.2359  0.4783 -0.0287
  121MOL0     H15912   0.223   0.775  10.146 -2.3044 -1.9168 -0.6753
  121MOL0     H15913   0.181   0.525  10.057 -1.2194  0.6260 -0.5342
  121MOL0     H15914   0.235   0.589   9.907 -0.8399 -0.2154  0.4635
  121MOL0     H15915  -0.012   0.583   9.958 -1.3124  0.3868 -1.3455
  121MOL0     H15916   0.026   0.722  10.070  1.6790 -1.6952  2.4105
  121MOL0     H15917   0.038   0.679   9.768  3.1805 -1.7004  2.2984
  121MOL0     H15918   0.082   0.840   9.838  1.0176 -0.9355 -0.5826
  121MOL0     H15919  -0.147   0.837   9.953  0.6216 -1.3939  0.4993
  121MOL0     H15920  -0.180   0.709   9.847  0.3262 -0.0404 -0.4941
  121MOL0     H15921  -0.094   0.994   9.750  1.3134 -1.0412 -0.2807
  121MOL0     H15922  -0.131   0.855   9.642  1.4670  0.7741 -0.3524
  121MOL0     H15923  -0.313   0.981   9.636 -0.2976  0.8304  0.3060
  121MOL0     H15924  -0.331   1.007   9.808  1.9743  0.5313  1.2995
  121MOL0     H15925  -0.505   0.852   9.923  1.2433  1.3581 -0.0760
  121MOL0     H15926  -0.655   0.666   9.975 -1.8010  0.9220 -1.0621
  121MOL0     H15927  -0.595   0.509   9.953 -1.8423  0.7845  2.3071
  121MOL0     H15928  -0.756   0.522   9.720 -3.4877 -1.8100 -0.5986
  121MOL0     H15929  -0.818   0.668   9.801  0.9513  0.3451 -1.4247
  121MOL0     H15930  -0.868   0.511  10.004  0.5126 -2.7132  0.9511
  121MOL0     H15931  -0.963   0.469   9.852  0.0002 -1.5344  0.2826
  121MOL0     H15932  -0.724   0.297   9.925 -0.6153 -4.5552  0.3406
  121MOL0     H15933  -0.855   0.283   9.796 -3.5911 -0.2370  0.8255
  121MOL0     H15934  -1.126   0.203  10.134  0.0714  1.1592  0.2122
  121MOL0     H15935  -1.116   0.044  10.313  0.3835  1.4337  0.1089
  121MOL0     H15936  -0.671  -0.288  10.492 -0.3640  0.2296  2.4025
  121MOL0     H15937  -0.622  -0.510  10.607  0.3155 -0.7362 -0.9285
  121MOL0     H15938  -0.761  -0.912  10.637 -0.0228  0.7446 -0.7158
  121MOL0     H15939  -0.876  -0.852  10.525 -0.8686  1.5760  0.7135
  121MOL0     H15940  -0.942  -0.870  10.752  0.3875 -1.3957 -3.3963
  121MOL0     H15941  -0.969  -0.705  10.679  0.9910  0.4237  0.1238
  121MOL0     H15942  -0.839  -0.599  10.822 -3.0460 -0.1764  0.3664
  121MOL0     H15943  -0.731  -0.751  10.853 -0.5799 -1.2887 -1.0671
  121MOL0     H15944  -1.009  -0.713  10.958  0.0763  2.6128 -1.6843
  121MOL0     H15945  -0.911  -0.857  10.976 -1.6175  0.0052 -1.8078
  121MOL0     H15946  -0.724  -0.727  11.079  0.9215  2.4373  1.9990
  121MOL0     H15947  -0.866  -0.698  11.183 -1.8283  0.1077 -0.5758
  121MOL0     H15948  -0.744  -0.492  10.987  1.1940 -1.0661  0.8592
  121MOL0     H15949  -0.733  -0.496  11.166  3.5461 -1.3706 -2.6082
  121MOL0     H15950  -1.009  -0.498  11.045 -3.1005  1.4989  1.4627
  121MOL0     H15951  -0.964  -0.418  11.191 -4.2028 -1.1713 -1.4268
  121MOL0     H15952  -1.016  -0.292  10.981  0.2440 -2.5978  0.8661
  121MOL0     H15953  -0.842  -0.280  10.964  0.1624 -2.7589 -0.2004
  121MOL0     H15954  -0.905  -0.709  10.376  0.4880 -0.0817 -0.9420
  121MOL0     H15955  -0.985  -0.484  10.266  0.7875 -0.2716 -2.2200
  121MOL0     H15956  -0.716  -0.063  10.200 -0.5898 -2.1327 -0.3295
  121MOL0     H15957  -0.718   0.096  10.024 -0.3598  1.3925 -0.4418
  121MOL0     H15958   0.641   0.680  10.201 -0.2815  4.0334  0.0446
  121MOL0     H15959   0.884   0.707  10.179 -1.4297  0.8006  1.9324
  121MOL0     H15960   1.246   0.752   9.922 -0.7012  0.6694 -2.4469
  121MOL0     H15961   1.488   0.823   9.888  2.8036  2.4012 -1.5919
  121MOL0     H15962   1.703   0.965   9.844  0.1036  1.9884 -0.4167
  121MOL0     H15963   1.672   0.931  10.009  0.1731 -1.3284 -1.0625
  121MOL0     H15964   1.813   1.182   9.890 -0.6569 -1.4043 -1.4647
  121MOL0     H15965   1.760   1.175  10.057  1.1345 -1.0201  0.4958
  121MOL0     H15966   1.915   0.944   9.980 -3.1551 -0.0874  0.7352
  121MOL0     H15967   1.925   1.036  10.132  0.4244  2.4203  1.1413
  121MOL0     H15968   2.044   1.230   9.989  0.3401 -0.1216  0.3851
  121MOL0     H15969   2.126   1.075  10.025 -1.6691 -0.3349  2.7660
  121MOL0     H15970   2.053   1.097   9.598  0.8722  2.5672 -0.1825
  121MOL0     H15971   1.370   1.213  10.032  0.2659 -0.7246 -0.0687
  121MOL0     H15972   1.143   1.116  10.076 -1.6857 -3.2750  0.4603
  122MOL0     O15973   6.114   4.810   5.306  0.4614  0.3793  0.0141
  122MOL0     C15974   5.993   4.798   5.284  0.1680 -0.2732  0.1975
  122MOL0     O15975   5.931   4.750   5.165  0.3255 -0.7314  0.5605
  122MOL0     C15976   6.006   4.720   5.056  0.5745 -0.4690 -0.9417
  122MOL0     C15977   6.055   4.829   4.989  0.8718  0.2122  0.3873
  122MOL0     C15978   6.138   4.809   4.877  0.0485  0.6494  0.1582
  122MOL0     C15979   6.173   4.688   4.837 -0.7365 -0.0972  0.1257
  122MOL0     O15980   6.264   4.682   4.732  0.5314 -0.4292  0.8006
  122MOL0     C15981   6.388   4.731   4.769  0.5681  0.7005  0.5504
  122MOL0     C15982   6.487   4.699   4.656 -0.2040 -0.3352 -0.1163
  122MOL0     C15983   6.635   4.721   4.699  0.2588 -0.9492  0.7143
  122MOL0     C15984   6.732   4.722   4.580 -0.3391  0.0444  0.7871
  122MOL0     C15985   6.879   4.777   4.614  0.1744  0.9331  0.2066
  122MOL0     C15986   6.928   4.711   4.737 -0.2711 -0.0080  0.5610
  122MOL0     C15987   7.060   4.764   4.788  0.4390 -0.2797 -0.9664
  122MOL0     C15988   7.175   4.740   4.695 -0.3039  0.0821  0.6768
  122MOL0     N15989   7.243   4.863   4.642 -0.3031  0.4640  0.6124
  122MOL0     C15990   7.380   4.879   4.627  0.9939  0.3207  0.1707
  122MOL0     C15991   7.405   5.008   4.603 -0.1459 -1.0118  0.5171
  122MOL0     C15992   7.539   5.080   4.587  1.2971  1.0056 -0.1869
  122MOL0     C15993   7.625   5.093   4.712  2.0596 -0.8041  0.5193
  122MOL0     C15994   7.768   5.122   4.682 -0.6699  0.5157  0.6927
  122MOL0     C15995   7.863   5.102   4.802  0.4927  0.7852  0.5104
  122MOL0     O15996   7.957   5.207   4.805 -0.4891  0.3988  0.3894
  122MOL0     C15997   7.954   5.300   4.902  1.3865 -0.4167 -0.3077
  122MOL0     C15998   8.050   5.308   4.998  0.0344 -0.3262 -0.2413
  122MOL0     C15999   8.044   5.402   5.102 -0.1262 -0.0294  0.4142
  122MOL0     C16000   7.942   5.496   5.109 -0.3677  0.5672  0.5277
  122MOL0     C16001   7.935   5.603   5.213 -0.1412  0.4894  0.2973
  122MOL0     O16002   7.818   5.662   5.233  0.0413 -0.0777 -0.6248
  122MOL0     C16003   7.804   5.741   5.356  0.5160  0.3658  0.5250
  122MOL0     C16004   7.718   5.698   5.459 -0.0858  1.0313  0.0339
  122MOL0     C16005   7.702   5.761   5.582  0.0581  0.1828 -0.1493
  122MOL0     C16006   7.783   5.864   5.608  0.1459  0.1146  0.6222
  122MOL0     O16007   7.785   5.932   5.731  0.0645 -0.7392 -0.5227
  122MOL0     C16008   7.700   5.888   5.833 -0.7119 -0.0995 -0.2026
  122MOL0     C16009   7.687   5.995   5.940 -0.5024 -0.3587  0.8726
  122MOL0     C16010   7.831   6.017   6.012  0.0142 -0.0314 -0.3181
  122MOL0     C16011   7.825   6.154   6.090 -0.1640 -0.0152  0.3885
  122MOL0     C16012   7.957   6.178   6.159  0.7367  0.9278 -0.4742
  122MOL0     C16013   7.969   6.314   6.229 -0.5710 -0.2087  0.9528
  122MOL0     C16014   8.115   6.354   6.243 -0.8311  0.3377  0.3502
  122MOL0     C16015   8.137   6.458   6.343 -0.0271 -0.7314 -0.3414
  122MOL0    Cl16016   8.104   6.611   6.274  0.5288 -0.8778 -0.1876
  122MOL0     C16017   7.875   5.914   5.513 -0.1069 -0.0813  0.2772
  122MOL0     C16018   7.889   5.857   5.381 -0.1328  1.3799  0.4153
  122MOL0     O16019   8.035   5.625   5.278  0.4193  0.3152 -0.2119
  122MOL0     C16020   7.843   5.488   5.007  0.0438 -0.7351  0.7153
  122MOL0     C16021   7.843   5.388   4.906  1.0050 -0.0833 -0.6697
  122MOL0     N16022   7.279   5.069   4.598  0.2070 -0.9150  0.4069
  122MOL0     N16023   7.185   4.983   4.631 -0.0164  0.1415 -0.1593
  122MOL0     C16024   6.137   4.585   4.911  0.1479  0.5603 -0.4522
  122MOL0     C16025   6.043   4.600   5.018 -0.0150  0.9833  0.3764
  122MOL0     C16026   5.887   4.829   5.388  0.4662 -0.0156  0.1235
  122MOL0     C16027   5.759   4.873   5.354  0.1682  0.0406  0.3864
  122MOL0     C16028   5.662   4.903   5.444 -0.6259 -0.5911 -0.4449
  122MOL0     C16029   5.681   4.891   5.581 -0.3457 -0.1591  0.5209
  122MOL0     O16030   5.581   4.900   5.673  0.2573  0.9432  0.1741
  122MOL0     C16031   5.515   4.766   5.701  0.1436 -0.6178 -0.2421
  122MOL0     C16032   5.407   4.725   5.605 -0.3793 -0.6756 -0.4212
  122MOL0     C16033   5.308   4.839   5.584 -0.6612 -0.2959 -0.9229
  122MOL0     C16034   5.230   4.820   5.460  0.4024  0.6774 -0.1703
  122MOL0     C16035   5.117   4.918   5.440 -0.4982  0.4565 -0.4071
  122MOL0     C16036   5.036   5.008   5.410  1.4225  0.0788  0.3581
  122MOL0     C16037   5.811   4.873   5.622  0.6173 -0.3089  0.8619
  122MOL0     C16038   5.909   4.847   5.527 -0.1498 -0.1239  0.6552
  122MOL0     H16039   6.006   4.925   5.003  1.6732  0.9364 -1.3696
  122MOL0     H16040   6.159   4.896   4.815  2.8108 -0.3432 -0.4222
  122MOL0     H16041   6.434   4.688   4.859  0.3659  0.5535  0.5841
  122MOL0     H16042   6.374   4.838   4.787 -0.7428  0.4734  1.0358
  122MOL0     H16043   6.459   4.745   4.561 -1.1089  3.2450  1.6913
  122MOL0     H16044   6.467   4.592   4.645 -0.5834 -0.2265 -0.5056
  122MOL0     H16045   6.674   4.652   4.775  2.0363 -0.4681  0.2778
  122MOL0     H16046   6.646   4.822   4.739  1.1925 -1.6876  2.4486
  122MOL0     H16047   6.731   4.612   4.573 -2.7280  0.0748 -0.8280
  122MOL0     H16048   6.688   4.758   4.486  2.7085 -3.0554 -2.1183
  122MOL0     H16049   6.867   4.885   4.628 -1.3088  1.0136 -1.3493
  122MOL0     H16050   6.954   4.767   4.534 -1.4626  0.7060 -1.3695
  122MOL0     H16051   6.922   4.603   4.723 -0.5497 -0.1896  1.9175
  122MOL0     H16052   6.855   4.741   4.814 -0.4998  2.4068 -0.4958
  122MOL0     H16053   7.040   4.868   4.815 -2.2213 -0.7866 -0.6709
  122MOL0     H16054   7.077   4.717   4.885  0.1747 -3.5188 -2.3644
  122MOL0     H16055   7.144   4.682   4.608 -0.6225 -0.2956  1.0340
  122MOL0     H16056   7.255   4.680   4.741  0.8559  1.1891  0.1384
  122MOL0     H16057   7.469   4.818   4.639  2.5807  2.3124 -0.8340
  122MOL0     H16058   7.515   5.178   4.546 -0.1041  1.8762  2.5133
  122MOL0     H16059   7.600   5.026   4.513 -1.2174  1.6608 -2.9452
  122MOL0     H16060   7.612   4.996   4.761 -4.0368  0.1079  1.4640
  122MOL0     H16061   7.575   5.156   4.787  2.1375 -0.6212  0.4198
  122MOL0     H16062   7.796   5.066   4.592  3.5895  0.1503  2.0411
  122MOL0     H16063   7.774   5.228   4.657  0.0851  0.2433 -0.3476
  122MOL0     H16064   7.911   5.004   4.792 -0.8224  0.0512  1.2160
  122MOL0     H16065   7.809   5.092   4.896 -2.0399  2.7787 -0.5945
  122MOL0     H16066   8.132   5.236   4.999  1.0295  0.7031 -2.0183
  122MOL0     H16067   8.117   5.405   5.182  2.2835  1.5389 -1.6684
  122MOL0     H16068   7.654   5.612   5.442  2.2913 -0.7953 -0.2787
  122MOL0     H16069   7.634   5.733   5.661  2.8763 -0.6352  2.1777
  122MOL0     H16070   7.740   5.798   5.881 -0.9988  1.6377  3.7001
  122MOL0     H16071   7.597   5.869   5.801 -0.2376 -1.4403 -1.0172
  122MOL0     H16072   7.619   5.959   6.017  0.8175  0.3701  2.4370
  122MOL0     H16073   7.650   6.084   5.888  0.2179 -0.2471  0.5414
  122MOL0     H16074   7.913   6.017   5.940 -0.1755 -1.8204 -0.5842
  122MOL0     H16075   7.850   5.934   6.080  1.0617 -0.6219 -1.3105
  122MOL0     H16076   7.798   6.236   6.022  1.8327  0.6830  0.3947
  122MOL0     H16077   7.744   6.157   6.164 -0.6321  2.2097 -0.1274
  122MOL0     H16078   8.046   6.161   6.098  1.2507 -0.8284  0.7087
  122MOL0     H16079   7.960   6.101   6.236  2.0856  0.2776 -1.1473
  122MOL0     H16080   7.928   6.316   6.331  1.2996  0.8690  1.7286
  122MOL0     H16081   7.927   6.401   6.176 -0.5292  0.8601  2.5783
  122MOL0     H16082   8.188   6.277   6.274  0.3504  1.6015  0.8038
  122MOL0     H16083   8.158   6.395   6.151 -0.3074 -2.6371 -0.8540
  122MOL0     H16084   8.241   6.458   6.377 -0.6334  0.8940  1.7848
  122MOL0     H16085   8.066   6.435   6.423 -1.5500 -2.4260 -2.0822
  122MOL0     H16086   7.940   5.991   5.554 -0.2905 -1.1330  2.7358
  122MOL0     H16087   7.975   5.884   5.321  0.4192  0.5317  0.8149
  122MOL0     H16088   7.768   5.565   5.017  0.3877 -0.0820 -1.4040
  122MOL0     H16089   7.776   5.388   4.821 -0.7030  0.7389  0.6021
  122MOL0     H16090   6.167   4.483   4.887  0.2082  0.1453  1.2698
  122MOL0     H16091   5.994   4.511   5.056  4.1858 -1.8456 -0.1218
  122MOL0     H16092   5.740   4.865   5.247  0.7467 -1.8881  0.3862
  122MOL0     H16093   5.562   4.940   5.425 -1.0436 -0.9462  0.9324
  122MOL0     H16094   5.483   4.777   5.805 -1.9858  2.3760 -1.0856
  122MOL0     H16095   5.585   4.684   5.681 -0.7467 -1.0553 -1.7665
  122MOL0     H16096   5.449   4.700   5.508  0.8082  1.5064 -0.5358
  122MOL0     H16097   5.364   4.633   5.646  0.2956 -0.1875  1.5082
  122MOL0     H16098   5.367   4.930   5.572  3.2977 -2.3244  1.1815
  122MOL0     H16099   5.245   4.846   5.673 -0.6731 -0.2090 -0.9376
  122MOL0     H16100   5.295   4.820   5.372 -1.6510  1.5748 -1.7796
  122MOL0     H16101   5.199   4.715   5.461  2.4119  0.0357  1.2159
  122MOL0     H16102   4.963   5.077   5.375  0.1580 -0.4607  1.8326
  122MOL0     H16103   5.845   4.883   5.725  0.1393 -0.9123  1.0840
  122MOL0     H16104   6.007   4.821   5.567 -1.4537 -2.7769  2.4518
  123MOL0     O16105   0.742   8.274   7.553  0.3493  0.1912  0.1577
  123MOL0     C16106   0.798   8.356   7.619 -0.1746 -0.7979  0.2922
  123MOL0     O16107   0.740   8.461   7.675 -0.5010 -0.2822  0.4980
  123MOL0     C16108   0.608   8.489   7.663 -0.4407 -0.2010 -0.5885
  123MOL0     C16109   0.485   8.414   7.662  0.5302  0.1598 -0.0836
  123MOL0     C16110   0.354   8.473   7.659 -0.3535  0.5597 -0.3163
  123MOL0     C16111   0.344   8.610   7.666  0.2353  0.1209 -0.1592
  123MOL0     O16112   0.217   8.660   7.649  0.2224 -0.0402 -0.8983
  123MOL0     C16113   0.202   8.780   7.571  0.2425 -0.1994 -0.1939
  123MOL0     C16114   0.054   8.795   7.560 -0.3949  0.4082  1.4793
  123MOL0     C16115  -0.011   8.821   7.697  0.3560  0.1407 -0.7634
  123MOL0     C16116  -0.130   8.914   7.698 -0.1867 -0.3036  0.9079
  123MOL0     C16117  -0.259   8.853   7.639  0.3365 -0.7462 -0.1976
  123MOL0     C16118  -0.371   8.955   7.612  0.3331  0.7058  0.2063
  123MOL0     C16119  -0.499   8.915   7.530  0.0587 -0.5387 -0.7640
  123MOL0     C16120  -0.603   8.843   7.610 -0.1710 -0.3322  0.4297
  123MOL0     N16121  -0.694   8.772   7.516 -0.4804 -0.1067 -0.3592
  123MOL0     C16122  -0.659   8.661   7.444 -0.0515  0.0444  0.2496
  123MOL0     C16123  -0.762   8.653   7.357 -0.8316 -0.3398 -0.1435
  123MOL0     C16124  -0.799   8.557   7.240  0.2184  0.6705  0.6224
  123MOL0     C16125  -0.918   8.478   7.295 -0.1986  1.4262  0.3700
  123MOL0     C16126  -0.964   8.372   7.194  0.1797 -0.0826 -0.1813
  123MOL0     C16127  -0.987   8.419   7.054  0.0389 -0.0321 -0.0172
  123MOL0     O16128  -1.044   8.309   6.985  0.0809 -0.5173  0.3888
  123MOL0     C16129  -1.171   8.309   6.926  0.9807  0.4825  0.2453
  123MOL0     C16130  -1.221   8.183   6.892 -0.0878  0.8269  1.0353
  123MOL0     C16131  -1.343   8.175   6.826 -0.7460  0.6527 -0.9383
  123MOL0     C16132  -1.427   8.278   6.804 -0.6640  0.0603 -1.1152
  123MOL0     C16133  -1.559   8.249   6.741 -0.4622 -0.2324 -0.7806
  123MOL0     O16134  -1.672   8.294   6.790  0.2027  0.7650  0.5430
  123MOL0     C16135  -1.796   8.268   6.725 -1.2625 -0.0155  0.1334
  123MOL0     C16136  -1.824   8.166   6.636  0.0228  0.8348  1.1402
  123MOL0     C16137  -1.949   8.150   6.571 -0.2057 -0.0431  0.0965
  123MOL0     C16138  -2.055   8.239   6.604 -0.5077 -0.1732  0.4409
  123MOL0     O16139  -2.179   8.224   6.549  0.1453 -0.2449 -0.6444
  123MOL0     C16140  -2.295   8.299   6.581 -0.0002  0.2524  0.1246
  123MOL0     C16141  -2.424   8.230   6.529 -0.5735  0.0680  1.1491
  123MOL0     C16142  -2.440   8.083   6.576  0.7540  0.2072  0.5027
  123MOL0     C16143  -2.561   8.017   6.498  0.5000 -0.2578 -0.3097
  123MOL0     C16144  -2.511   7.946   6.370 -0.4956 -0.5257 -0.7076
  123MOL0     C16145  -2.546   8.019   6.239 -0.3898  0.3024  1.0341
  123MOL0     C16146  -2.695   7.976   6.216 -0.9211  1.0267 -0.4164
  123MOL0     C16147  -2.723   7.996   6.069  0.6840 -0.2187 -0.0626
  123MOL0    Cl16148  -2.732   8.175   6.029  0.3393 -0.0398 -0.0858
  123MOL0     C16149  -2.035   8.337   6.701 -1.6109 -0.2342  0.2082
  123MOL0     C16150  -1.903   8.352   6.762  0.4966 -0.0109  0.1909
  123MOL0     O16151  -1.545   8.198   6.640 -0.0768  0.2783  0.5640
  123MOL0     C16152  -1.378   8.406   6.831  0.7706  0.3289 -0.5050
  123MOL0     C16153  -1.252   8.417   6.892  0.1322  0.7208 -0.4153
  123MOL0     N16154  -0.847   8.758   7.378  0.2272  0.5334 -0.0980
  123MOL0     N16155  -0.809   8.826   7.477 -0.0497 -0.5723  0.5161
  123MOL0     C16156   0.465   8.682   7.650  1.4712 -0.0696 -0.3945
  123MOL0     C16157   0.590   8.626   7.645 -0.2882 -0.1733  0.2467
  123MOL0     C16158   0.948   8.349   7.634 -0.2574  0.6600  0.6642
  123MOL0     C16159   1.025   8.411   7.733  0.6788 -1.1572 -0.1371
  123MOL0     C16160   1.161   8.396   7.745 -0.6725 -0.7390  0.6063
  123MOL0     C16161   1.238   8.328   7.652 -0.7124  0.2757  0.2290
  123MOL0     O16162   1.375   8.324   7.671 -0.7733 -0.0127  0.0358
  123MOL0     C16163   1.454   8.255   7.569 -0.2269  0.8873  0.0295
  123MOL0     C16164   1.592   8.247   7.621 -0.9063 -0.7133  0.0081
  123MOL0     C16165   1.648   8.387   7.644  0.2625  0.4908 -0.6848
  123MOL0     C16166   1.797   8.398   7.639 -0.3700  0.1263 -0.1844
  123MOL0     C16167   1.836   8.542   7.628 -0.2622 -0.5246  0.3055
  123MOL0     C16168   1.855   8.656   7.613 -0.1014 -0.0905 -0.1657
  123MOL0     C16169   1.166   8.262   7.554 -0.4603  0.6266 -0.0208
  123MOL0     C16170   1.023   8.269   7.541  0.3418  1.2164  0.4557
  123MOL0     H16171   0.492   8.306   7.658 -2.8515 -0.1642 -1.0393
  123MOL0     H16172   0.276   8.398   7.653  2.1206 -2.4792  1.9813
  123MOL0     H16173   0.258   8.766   7.479  1.7043 -2.2567  0.9286
  123MOL0     H16174   0.247   8.860   7.631 -1.5122  0.4594  0.3188
  123MOL0     H16175   0.007   8.716   7.500 -0.2125  1.2348  0.2020
  123MOL0     H16176   0.039   8.889   7.506 -2.2251 -0.3019  0.6501
  123MOL0     H16177   0.061   8.865   7.766 -0.6721  0.0367  0.4026
  123MOL0     H16178  -0.044   8.724   7.737 -1.2074  1.7396  2.0964
  123MOL0     H16179  -0.155   8.934   7.802 -2.3605  5.7136 -0.4012
  123MOL0     H16180  -0.098   9.001   7.640  0.0541 -1.6848 -1.1884
  123MOL0     H16181  -0.289   8.768   7.700 -0.1340 -2.5444 -2.7697
  123MOL0     H16182  -0.240   8.806   7.542 -3.4136 -2.7871 -0.1036
  123MOL0     H16183  -0.324   9.032   7.550  0.9527  1.3172  1.3975
  123MOL0     H16184  -0.396   8.995   7.710 -1.2664 -0.0099  0.1163
  123MOL0     H16185  -0.551   9.004   7.496 -0.2088 -1.0241 -1.6820
  123MOL0     H16186  -0.476   8.847   7.447 -0.1392 -3.0253  1.0819
  123MOL0     H16187  -0.673   8.903   7.669 -0.3843  0.6182 -0.7597
  123MOL0     H16188  -0.567   8.773   7.686 -2.0781 -1.0759  0.6986
  123MOL0     H16189  -0.574   8.594   7.453  1.6401  2.1086  0.3498
  123MOL0     H16190  -0.712   8.497   7.211 -0.3413  0.0711  0.1436
  123MOL0     H16191  -0.834   8.615   7.155 -3.7095 -0.9309  0.9218
  123MOL0     H16192  -0.999   8.542   7.330 -2.0402 -2.0408  3.0567
  123MOL0     H16193  -0.881   8.453   7.395  1.2444  2.8351  0.2325
  123MOL0     H16194  -0.901   8.283   7.195 -1.0411 -0.9847 -0.6480
  123MOL0     H16195  -1.062   8.342   7.232 -0.9060  1.2556 -1.8085
  123MOL0     H16196  -0.891   8.447   7.011 -0.1657  2.5512  1.0334
  123MOL0     H16197  -1.050   8.509   7.048  2.2564  1.6724  0.7784
  123MOL0     H16198  -1.153   8.098   6.895  0.2340  1.0055 -0.3419
  123MOL0     H16199  -1.367   8.076   6.787 -2.3920  0.0784  1.2845
  123MOL0     H16200  -1.755   8.090   6.600 -1.1540 -0.3420  1.2569
  123MOL0     H16201  -1.951   8.078   6.490  2.3249  0.5707 -0.5925
  123MOL0     H16202  -2.281   8.397   6.533  2.2788 -1.2790 -2.6429
  123MOL0     H16203  -2.301   8.309   6.690 -1.2225  0.0804  0.0929
  123MOL0     H16204  -2.403   8.229   6.422  2.4343 -1.6467  1.6512
  123MOL0     H16205  -2.515   8.289   6.544  0.2253  2.2640 -1.7674
  123MOL0     H16206  -2.450   8.085   6.685  1.0298  0.3279  0.5263
  123MOL0     H16207  -2.352   8.018   6.568 -0.9904 -2.3393  0.5674
  123MOL0     H16208  -2.599   7.936   6.561 -2.5553  1.7960  0.7144
  123MOL0     H16209  -2.642   8.089   6.481  0.3213 -1.1182 -3.7873
  123MOL0     H16210  -2.554   7.845   6.373 -1.0528 -0.3236  3.0753
  123MOL0     H16211  -2.403   7.943   6.354 -0.2890  2.1621 -0.1883
  123MOL0     H16212  -2.481   7.980   6.161 -0.4132  1.5027  0.3997
  123MOL0     H16213  -2.525   8.126   6.227  4.5865 -0.7090 -1.7351
  123MOL0     H16214  -2.715   7.871   6.239 -0.3329  0.3336 -2.8232
  123MOL0     H16215  -2.760   8.030   6.285 -1.6759 -1.2078  0.7388
  123MOL0     H16216  -2.814   7.951   6.029  0.7684 -0.2575 -0.2106
  123MOL0     H16217  -2.645   7.944   6.013 -0.1680  0.2869 -1.7550
  123MOL0     H16218  -2.116   8.403   6.730 -1.1088  0.1151  0.8806
  123MOL0     H16219  -1.880   8.427   6.837 -1.2876  1.4556 -0.6475
  123MOL0     H16220  -1.450   8.486   6.816 -3.8275 -2.7724  2.5069
  123MOL0     H16221  -1.215   8.517   6.912  0.8673  1.2413 -3.7752
  123MOL0     H16222   0.458   8.790   7.648 -1.0293 -0.1927 -2.5833
  123MOL0     H16223   0.672   8.696   7.630  0.6114 -1.8152 -3.9526
  123MOL0     H16224   0.973   8.483   7.797  2.7687  2.7413 -2.4074
  123MOL0     H16225   1.221   8.448   7.819  0.2627  0.1779 -0.7502
  123MOL0     H16226   1.468   8.314   7.478  1.0646 -0.4082 -0.6332
  123MOL0     H16227   1.405   8.159   7.551  0.1391 -0.3871  4.4509
  123MOL0     H16228   1.604   8.189   7.713 -0.7989  0.0091  0.4598
  123MOL0     H16229   1.642   8.199   7.536  0.2309  0.0491  0.2242
  123MOL0     H16230   1.610   8.421   7.741  1.2861  0.2920 -0.2064
  123MOL0     H16231   1.611   8.456   7.568  3.4594  4.1630  0.7430
  123MOL0     H16232   1.844   8.347   7.723  2.1222  2.3204 -0.1357
  123MOL0     H16233   1.837   8.349   7.550  1.0667 -0.3668  0.7005
  123MOL0     H16234   1.859   8.763   7.604  0.6912 -0.2359 -2.3084
  123MOL0     H16235   1.218   8.202   7.481 -0.1842 -0.9204  1.3887
  123MOL0     H16236   0.965   8.210   7.470 -2.4617  3.8782  0.3448
  124MOL0     O16237   9.812   2.577   0.009 -0.1904 -0.0895 -0.4267
  124MOL0     C16238   9.896   2.655   0.045  0.0561 -0.1872 -0.2537
  124MOL0     O16239   9.933   2.683   0.175  0.1578 -0.2364  0.4553
  124MOL0     C16240   9.840   2.665   0.277  0.2752 -0.5237  0.2438
  124MOL0     C16241   9.708   2.707   0.267  0.0161  0.4320 -1.0901
  124MOL0     C16242   9.622   2.688   0.377 -0.6250 -0.1106  0.6860
  124MOL0     C16243   9.665   2.620   0.492  0.4003  0.2975 -0.5115
  124MOL0     O16244   9.590   2.618   0.604  0.1430 -0.1615  0.3961
  124MOL0     C16245   9.451   2.657   0.595 -0.5108  0.0871 -0.6043
  124MOL0     C16246   9.380   2.605   0.712  0.2218 -0.2130 -0.0187
  124MOL0     C16247   9.463   2.620   0.840 -1.0330 -0.0910 -1.4225
  124MOL0     C16248   9.391   2.563   0.966  0.1925  0.2012 -0.4740
  124MOL0     C16249   9.248   2.602   0.982  0.4820 -1.4192 -0.3537
  124MOL0     C16250   9.195   2.544   1.111  0.8222  0.3387  0.2995
  124MOL0     C16251   9.061   2.610   1.172 -0.3737 -0.2698  0.6160
  124MOL0     C16252   9.071   2.758   1.205  0.4871  0.5524  0.3434
  124MOL0     N16253   8.960   2.814   1.281 -0.8007  0.1111  0.2239
  124MOL0     C16254   8.831   2.792   1.257  0.1294 -0.7444  1.1461
  124MOL0     C16255   8.765   2.846   1.361 -0.6630  0.4119 -0.4834
  124MOL0     C16256   8.614   2.850   1.385 -0.6386 -0.1937 -0.1716
  124MOL0     C16257   8.588   2.730   1.482  0.7152  0.2545  0.4277
  124MOL0     C16258   8.453   2.747   1.561 -0.1461 -0.1786  0.0052
  124MOL0     C16259   8.318   2.748   1.486  0.6174  0.3062 -0.2906
  124MOL0     O16260   8.217   2.783   1.587  0.3057  0.1934  0.6091
  124MOL0     C16261   8.078   2.783   1.552 -0.4396  0.1798 -0.2266
  124MOL0     C16262   7.991   2.833   1.640  0.4821 -0.2102 -0.2780
  124MOL0     C16263   7.858   2.850   1.606  0.2861  0.6533 -0.2997
  124MOL0     C16264   7.813   2.814   1.482  0.4734  0.6281  0.3759
  124MOL0     C16265   7.675   2.843   1.434  0.0739  1.2686 -0.0161
  124MOL0     O16266   7.601   2.765   1.348  0.5122  1.2109  0.1179
  124MOL0     C16267   7.476   2.799   1.312 -0.2777  0.8194 -0.4101
  124MOL0     C16268   7.361   2.775   1.392 -0.0838 -0.7805 -0.9341
  124MOL0     C16269   7.242   2.819   1.352  0.4973 -0.6821 -0.1403
  124MOL0     C16270   7.234   2.889   1.225  0.1811 -0.8564 -0.5851
  124MOL0     O16271   7.122   2.932   1.173  0.4758 -0.4464 -0.1155
  124MOL0     C16272   7.020   2.831   1.178  0.3566  0.9175 -1.2156
  124MOL0     C16273   6.929   2.851   1.060  0.0060 -0.4942 -0.7592
  124MOL0     C16274   6.853   2.730   1.018  0.0065 -0.2712 -1.0725
  124MOL0     C16275   6.736   2.708   1.120 -0.4063  0.5133 -0.5459
  124MOL0     C16276   6.621   2.611   1.086  0.8235  0.3672 -0.1757
  124MOL0     C16277   6.664   2.471   1.038  0.4451 -0.1799  0.0378
  124MOL0     C16278   6.538   2.397   0.988 -0.4671  0.2624  0.1557
  124MOL0     C16279   6.574   2.267   0.917 -0.2995 -0.4652 -0.6674
  124MOL0    Cl16280   6.658   2.159   1.023  0.0417 -0.1013 -0.1690
  124MOL0     C16281   7.350   2.914   1.150  1.2253 -0.4791 -0.6246
  124MOL0     C16282   7.477   2.861   1.194 -0.3970 -0.7294  0.4485
  124MOL0     O16283   7.635   2.939   1.502 -0.2342  0.1984  0.2522
  124MOL0     C16284   7.902   2.752   1.396 -0.0623  0.2517  0.1135
  124MOL0     C16285   8.032   2.749   1.423  1.2130 -0.4703  0.4494
  124MOL0     N16286   8.852   2.906   1.452 -0.2152 -0.2679  0.0731
  124MOL0     N16287   8.973   2.873   1.408  0.3273 -0.3405  0.0560
  124MOL0     C16288   9.795   2.571   0.501 -0.5755 -0.2938 -0.6497
  124MOL0     C16289   9.882   2.608   0.394 -0.7851  0.1277  0.5046
  124MOL0     C16290   9.986   2.715  -0.052  0.0636  0.6455  0.1237
  124MOL0     C16291  10.130   2.707  -0.033  0.7208 -0.0765 -0.6563
  124MOL0     C16292  10.221   2.748  -0.132 -0.5746  0.3700  0.1832
  124MOL0     C16293  10.176   2.804  -0.248 -0.1336  0.0724  0.2485
  124MOL0     O16294  10.256   2.844  -0.361  0.0399  0.4794 -0.0423
  124MOL0     C16295  10.380   2.899  -0.344  0.1631  0.2535  0.0562
  124MOL0     C16296  10.448   2.920  -0.480  0.2336  0.3504  0.0570
  124MOL0     C16297  10.596   2.955  -0.457 -0.3830  1.1222 -0.8104
  124MOL0     C16298  10.694   2.952  -0.576 -0.3667 -0.3240 -0.5549
  124MOL0     C16299  10.833   2.920  -0.547 -0.3610  0.2161 -0.4806
  124MOL0     C16300  10.955   2.909  -0.523  0.5106  0.4046 -0.1345
  124MOL0     C16301  10.044   2.821  -0.270  1.0206  0.3991  0.2278
  124MOL0     C16302   9.954   2.763  -0.180  0.9623  0.6373 -0.0629
  124MOL0     H16303   9.676   2.761   0.178 -0.5120  1.8024 -0.1059
  124MOL0     H16304   9.525   2.736   0.375 -1.6360 -2.0152  1.7229
  124MOL0     H16305   9.396   2.624   0.506  0.0362  2.1969 -1.8038
  124MOL0     H16306   9.443   2.767   0.593 -2.8094 -0.0194 -0.5276
  124MOL0     H16307   9.361   2.498   0.699  4.1506 -1.1695  0.8926
  124MOL0     H16308   9.286   2.662   0.717 -2.1258 -3.9205  2.9765
  124MOL0     H16309   9.474   2.727   0.860  1.7082 -0.7195  1.0983
  124MOL0     H16310   9.558   2.568   0.830 -1.4240 -0.3249 -5.4723
  124MOL0     H16311   9.395   2.454   0.964 -0.4279 -0.0240  3.2102
  124MOL0     H16312   9.444   2.602   1.053  2.5664 -0.7286 -1.4332
  124MOL0     H16313   9.181   2.580   0.899 -2.2021 -0.0071  1.3041
  124MOL0     H16314   9.247   2.712   0.983  0.4925 -1.4180 -0.4471
  124MOL0     H16315   9.271   2.565   1.187 -0.3680 -0.4174  1.7266
  124MOL0     H16316   9.191   2.436   1.092 -3.3986  0.4637 -0.3406
  124MOL0     H16317   8.977   2.588   1.105  0.4531  0.4595 -0.6842
  124MOL0     H16318   9.042   2.556   1.265 -0.3528 -0.9289  0.2423
  124MOL0     H16319   9.078   2.801   1.105 -1.5742  1.7155  0.6639
  124MOL0     H16320   9.158   2.772   1.271  0.2611 -0.2183  0.8331
  124MOL0     H16321   8.785   2.726   1.184 -0.9481 -0.4918  1.5861
  124MOL0     H16322   8.571   2.844   1.285 -0.7563 -2.3069 -0.0446
  124MOL0     H16323   8.575   2.947   1.417 -1.9589  0.7044 -3.9430
  124MOL0     H16324   8.672   2.742   1.552  0.6021  4.1260  0.0782
  124MOL0     H16325   8.589   2.633   1.432 -1.2479  0.7889 -0.7275
  124MOL0     H16326   8.461   2.666   1.633  1.4973 -0.9143 -0.9508
  124MOL0     H16327   8.465   2.840   1.617 -1.1244 -0.8398  1.3665
  124MOL0     H16328   8.293   2.648   1.450  2.7853  0.2389 -1.7691
  124MOL0     H16329   8.308   2.809   1.396 -0.5873  3.6132  1.8786
  124MOL0     H16330   8.028   2.860   1.738  1.5398  0.5039 -0.8587
  124MOL0     H16331   7.786   2.883   1.681  0.9711  2.5030 -0.4044
  124MOL0     H16332   7.377   2.722   1.485 -0.1765 -0.9097 -0.9921
  124MOL0     H16333   7.152   2.801   1.409 -0.3719 -1.0522 -1.5689
  124MOL0     H16334   6.962   2.857   1.268 -0.1829  1.9273 -1.8351
  124MOL0     H16335   7.059   2.729   1.178 -0.0832  0.7408 -0.7953
  124MOL0     H16336   7.000   2.874   0.980  1.0913  1.2309  0.6116
  124MOL0     H16337   6.868   2.939   1.083  2.2934  0.5891  1.7288
  124MOL0     H16338   6.917   2.642   1.009 -1.5676 -1.3906 -1.8535
  124MOL0     H16339   6.829   2.746   0.912  1.6950 -1.5677 -1.6936
  124MOL0     H16340   6.788   2.668   1.207  1.7811  3.9852 -0.0930
  124MOL0     H16341   6.696   2.805   1.149  2.8542  1.7003  0.3917
  124MOL0     H16342   6.565   2.660   1.006  1.1550 -0.8638 -1.1921
  124MOL0     H16343   6.559   2.607   1.177  0.6987 -2.3749 -0.2914
  124MOL0     H16344   6.705   2.408   1.118 -3.2138 -2.0724  0.6325
  124MOL0     H16345   6.737   2.486   0.958  2.1580  0.2887  1.6004
  124MOL0     H16346   6.463   2.377   1.064 -0.9596 -1.6882 -0.7595
  124MOL0     H16347   6.483   2.445   0.906 -1.0492  0.6147  0.7444
  124MOL0     H16348   6.622   2.272   0.818 -0.5869 -1.4693 -0.8655
  124MOL0     H16349   6.481   2.216   0.893 -0.1231 -1.0786 -0.0861
  124MOL0     H16350   7.343   2.966   1.055 -0.8392 -2.3162 -1.5781
  124MOL0     H16351   7.569   2.881   1.139  1.6488 -0.9332  3.5412
  124MOL0     H16352   7.867   2.718   1.299 -0.3978 -0.1191  0.3605
  124MOL0     H16353   8.101   2.708   1.349  1.9403 -0.3657  1.0500
  124MOL0     H16354   9.827   2.512   0.587  1.2322 -1.8750 -2.3032
  124MOL0     H16355   9.986   2.580   0.403 -0.9166 -1.0498 -1.1932
  124MOL0     H16356  10.174   2.674   0.060  2.8343  2.9756 -0.4166
  124MOL0     H16357  10.327   2.747  -0.107 -0.8729  0.3111  1.5202
  124MOL0     H16358  10.448   2.843  -0.279 -0.4076  1.0397  1.3817
  124MOL0     H16359  10.353   2.993  -0.294 -3.9017  0.2802 -1.7521
  124MOL0     H16360  10.460   2.832  -0.544  2.2671 -1.0170  2.1502
  124MOL0     H16361  10.404   3.004  -0.533 -0.9939  0.0741  0.5974
  124MOL0     H16362  10.644   2.886  -0.386 -3.4761  1.7731  2.2243
  124MOL0     H16363  10.608   3.050  -0.404  0.1290  0.4858  0.2730
  124MOL0     H16364  10.666   2.882  -0.655  1.8346  1.0981 -2.7723
  124MOL0     H16365  10.697   3.046  -0.632 -1.4839 -1.0090 -1.8148
  124MOL0     H16366  11.054   2.909  -0.481 -0.8412 -0.3571  3.4077
  124MOL0     H16367  10.010   2.871  -0.360 -1.1142  2.7247  2.1790
  124MOL0     H16368   9.851   2.775  -0.214  1.4181  0.3814 -1.6013
  125MOL0     O16369   5.164  11.027   3.731 -0.0778  0.2004  0.0912
  125MOL0     C16370   5.162  11.053   3.613 -0.6915  0.4229  1.0106
  125MOL0     O16371   5.048  11.035   3.534  0.3772  1.6658  0.5648
  125MOL0     C16372   4.933  10.982   3.593  0.1877 -0.2788  0.0186
  125MOL0     C16373   4.886  11.001   3.724 -0.6131  0.2977  0.2568
  125MOL0     C16374   4.761  10.964   3.758  0.9420  0.0644  0.6141
  125MOL0     C16375   4.665  10.911   3.661  0.2052 -0.0134  0.0635
  125MOL0     O16376   4.532  10.878   3.683  0.1930  0.2988  0.4150
  125MOL0     C16377   4.477  10.881   3.820 -0.0460 -0.8814 -0.8061
  125MOL0     C16378   4.328  10.834   3.802  0.4164 -0.0273  0.6284
  125MOL0     C16379   4.325  10.684   3.804 -0.2908  0.9294  0.3393
  125MOL0     C16380   4.176  10.639   3.768 -0.3664 -0.3480 -0.3814
  125MOL0     C16381   4.166  10.500   3.715 -0.5987 -0.0293  0.4006
  125MOL0     C16382   4.204  10.387   3.814 -0.1905 -0.4672 -0.3017
  125MOL0     C16383   4.127  10.385   3.949  1.3299 -0.2126  0.8060
  125MOL0     C16384   4.178  10.282   4.052 -0.2054 -0.2627  0.5613
  125MOL0     N16385   4.091  10.268   4.172 -0.1104  0.7376 -0.5855
  125MOL0     C16386   4.081  10.348   4.284  0.1483  0.0974  0.0204
  125MOL0     C16387   3.966  10.321   4.351 -0.6983 -0.1224  0.4062
  125MOL0     C16388   3.919  10.393   4.470 -1.2226 -0.7163 -0.0237
  125MOL0     C16389   3.814  10.300   4.545  0.0941  0.8717 -0.0340
  125MOL0     C16390   3.887  10.176   4.608 -0.6706  0.9047  0.3737
  125MOL0     C16391   3.812  10.110   4.721  0.1722 -0.0921  0.7576
  125MOL0     O16392   3.709  10.039   4.646 -0.6809 -0.1039  0.2735
  125MOL0     C16393   3.613   9.975   4.717 -0.2066  0.0958  0.7135
  125MOL0     C16394   3.485   9.971   4.658 -0.3366 -0.7331 -0.8492
  125MOL0     C16395   3.388   9.887   4.722  0.4067 -0.0078  0.4472
  125MOL0     C16396   3.413   9.823   4.836  0.3518 -0.5983 -0.2933
  125MOL0     C16397   3.303   9.733   4.886 -0.4711 -0.4394 -0.3304
  125MOL0     O16398   3.184   9.752   4.821  0.0188  0.3520  0.1828
  125MOL0     C16399   3.069   9.681   4.863 -0.5904  0.4654  0.2058
  125MOL0     C16400   3.065   9.546   4.890  0.7479 -0.1629 -0.1843
  125MOL0     C16401   2.946   9.468   4.913 -0.3779 -0.0669  0.5191
  125MOL0     C16402   2.825   9.543   4.932 -0.9183 -0.3052 -0.4941
  125MOL0     O16403   2.709   9.477   4.977 -0.1570  0.1577 -0.2884
  125MOL0     C16404   2.611   9.557   5.050  0.3774  0.5480 -0.0513
  125MOL0     C16405   2.656   9.627   5.172 -0.1414 -0.2089  0.7048
  125MOL0     C16406   2.698   9.528   5.285  0.0714  0.0020  0.8442
  125MOL0     C16407   2.844   9.522   5.323 -0.5006  0.2947 -0.3154
  125MOL0     C16408   2.899   9.636   5.413 -0.0187  0.1496  0.3242
  125MOL0     C16409   3.052   9.610   5.438  0.1972 -0.1720 -0.2999
  125MOL0     C16410   3.108   9.717   5.530 -1.0140  0.1224 -0.8841
  125MOL0     C16411   3.265   9.699   5.544 -0.4453  0.5760 -0.1883
  125MOL0    Cl16412   3.320   9.823   5.663 -0.4241  0.2982 -0.4139
  125MOL0     C16413   2.835   9.676   4.910 -0.0742  0.3203  0.1545
  125MOL0     C16414   2.950   9.749   4.866  0.1789  0.2206  0.4400
  125MOL0     O16415   3.326   9.658   4.982  0.6541  0.6905 -0.6673
  125MOL0     C16416   3.531   9.843   4.902  0.5166  0.1084 -0.4973
  125MOL0     C16417   3.631   9.916   4.838 -0.3582 -0.5338  0.1644
  125MOL0     N16418   3.897  10.239   4.270  0.0282 -0.5448  0.7721
  125MOL0     N16419   3.981  10.199   4.179  0.1016  0.8679  0.2572
  125MOL0     C16420   4.712  10.887   3.532 -0.6124 -0.1936  0.0315
  125MOL0     C16421   4.839  10.937   3.495 -0.7332  0.6387  0.2919
  125MOL0     C16422   5.279  11.128   3.551 -0.7571 -1.2137 -0.1655
  125MOL0     C16423   5.376  11.182   3.640  0.7248  0.0333  0.3399
  125MOL0     C16424   5.484  11.254   3.591 -0.3929 -0.4473  0.4594
  125MOL0     C16425   5.492  11.283   3.457  0.0322  0.4386 -0.0320
  125MOL0     O16426   5.598  11.349   3.398  0.3984  0.4445 -0.8528
  125MOL0     C16427   5.735  11.321   3.451  0.7172  0.5031  0.3055
  125MOL0     C16428   5.836  11.388   3.358  0.3009 -0.1465 -0.5464
  125MOL0     C16429   5.983  11.354   3.390 -0.4535  0.9263 -0.4296
  125MOL0     C16430   6.099  11.429   3.316  0.0336  0.1941  0.1161
  125MOL0     C16431   6.230  11.434   3.378 -0.4107 -0.2314 -0.8104
  125MOL0     C16432   6.330  11.455   3.441 -0.6225 -0.3575 -0.5288
  125MOL0     C16433   5.393  11.243   3.374  0.3926 -0.0721 -0.8725
  125MOL0     C16434   5.279  11.173   3.421  0.3046 -0.1259 -0.3742
  125MOL0     H16435   4.944  11.057   3.797  0.2253 -1.6120  1.1133
  125MOL0     H16436   4.731  11.003   3.855 -4.8718  5.4715 -2.5524
  125MOL0     H16437   4.463  10.983   3.857 -1.9798 -1.1739 -0.6525
  125MOL0     H16438   4.537  10.822   3.890  1.1558 -2.0584 -2.7314
  125MOL0     H16439   4.278  10.872   3.712  0.0912 -1.3886  0.2118
  125MOL0     H16440   4.266  10.870   3.884  1.5378 -1.6959  2.3001
  125MOL0     H16441   4.348  10.648   3.905  1.5454 -1.4922 -0.8306
  125MOL0     H16442   4.402  10.638   3.741 -1.6219 -1.5560  0.3952
  125MOL0     H16443   4.101  10.656   3.845 -1.2939 -2.1256 -0.8569
  125MOL0     H16444   4.145  10.701   3.683 -0.0379  0.5069  0.1114
  125MOL0     H16445   4.221  10.477   3.623  0.2168 -0.5415  1.0025
  125MOL0     H16446   4.061  10.471   3.699  0.2833 -2.1876 -2.3577
  125MOL0     H16447   4.310  10.397   3.839 -0.2979  1.0454 -0.3572
  125MOL0     H16448   4.194  10.291   3.762 -0.3095 -0.2869 -0.6186
  125MOL0     H16449   4.129  10.483   3.996 -2.8044  0.7924 -0.6463
  125MOL0     H16450   4.021  10.366   3.930  1.1637  0.4507  1.0539
  125MOL0     H16451   4.277  10.310   4.087 -0.3365  0.1400  0.6078
  125MOL0     H16452   4.186  10.184   4.004  0.0694 -1.8415  3.6068
  125MOL0     H16453   4.166  10.406   4.318 -0.4230  2.0967 -1.7386
  125MOL0     H16454   3.875  10.488   4.440  1.9293  0.4857 -1.3261
  125MOL0     H16455   4.007  10.401   4.535  0.2712 -4.1599 -1.3100
  125MOL0     H16456   3.734  10.273   4.475 -0.2262  0.2634  0.5651
  125MOL0     H16457   3.766  10.359   4.624  3.9137  1.6442  1.9307
  125MOL0     H16458   3.915  10.105   4.530 -0.8894  1.3319 -0.1014
  125MOL0     H16459   3.980  10.203   4.659 -1.4455  0.8377  1.9142
  125MOL0     H16460   3.756  10.178   4.787  1.1049  0.2001  1.2669
  125MOL0     H16461   3.882  10.045   4.774  1.2472 -1.9016 -2.5804
  125MOL0     H16462   3.473  10.020   4.562 -0.5793  2.3210  0.6449
  125MOL0     H16463   3.290   9.880   4.677  1.0846 -1.3258 -0.9231
  125MOL0     H16464   3.154   9.485   4.893  0.3590 -0.7138  2.2306
  125MOL0     H16465   2.966   9.362   4.921  0.3588  0.0956  0.9025
  125MOL0     H16466   2.533   9.486   5.079 -0.8420  1.0164 -2.0185
  125MOL0     H16467   2.565   9.638   4.992  1.2449  0.2924 -1.1239
  125MOL0     H16468   2.568   9.677   5.215 -1.3594 -3.3235  2.1397
  125MOL0     H16469   2.734   9.700   5.149  0.5815 -1.1866 -0.0174
  125MOL0     H16470   2.677   9.426   5.251 -1.5411  0.8478 -0.8946
  125MOL0     H16471   2.649   9.550   5.380  2.9758  3.5733  1.7466
  125MOL0     H16472   2.874   9.424   5.359  0.8300 -0.1933 -2.5550
  125MOL0     H16473   2.905   9.530   5.233  0.5331  1.5030  0.4661
  125MOL0     H16474   2.877   9.634   5.520  1.1260 -0.0158  0.5708
  125MOL0     H16475   2.887   9.738   5.376  1.3271  0.1173 -0.2812
  125MOL0     H16476   3.116   9.603   5.350  0.9109 -1.8805  0.3147
  125MOL0     H16477   3.058   9.512   5.485 -2.1548 -0.5883 -0.7440
  125MOL0     H16478   3.105   9.812   5.475 -0.1532 -0.6958 -2.3945
  125MOL0     H16479   3.058   9.720   5.628  0.2907 -0.8689 -0.1530
  125MOL0     H16480   3.315   9.723   5.449 -0.9751 -0.1316 -0.6516
  125MOL0     H16481   3.291   9.598   5.575  1.1315  0.8351 -0.5783
  125MOL0     H16482   2.747   9.734   4.935 -2.0026 -1.4889 -1.9435
  125MOL0     H16483   2.935   9.854   4.842 -2.8297 -0.5026 -1.4278
  125MOL0     H16484   3.556   9.800   4.999  2.1827 -1.3997 -1.5368
  125MOL0     H16485   3.728   9.933   4.883  0.4720  0.5822 -1.9191
  125MOL0     H16486   4.642  10.863   3.453 -1.0877 -0.7032  0.5938
  125MOL0     H16487   4.881  10.935   3.395  0.7267 -2.2228  0.8625
  125MOL0     H16488   5.363  11.163   3.746  0.6589 -0.0608  0.3156
  125MOL0     H16489   5.561  11.290   3.660 -0.7096  1.8851 -0.3138
  125MOL0     H16490   5.755  11.214   3.451 -0.8563  0.1529  2.3854
  125MOL0     H16491   5.750  11.347   3.556  2.1946  0.9543 -0.0027
  125MOL0     H16492   5.827  11.364   3.252 -1.4109  2.1514 -0.9935
  125MOL0     H16493   5.840  11.497   3.362  1.9471  0.0193 -3.5391
  125MOL0     H16494   5.991  11.246   3.374 -1.9808  0.7310 -0.0621
  125MOL0     H16495   5.993  11.385   3.495 -1.7525  2.8049 -0.8056
  125MOL0     H16496   6.107  11.383   3.217 -0.3321 -2.3362  1.2071
  125MOL0     H16497   6.075  11.536   3.320 -1.2484 -0.0935  0.5117
  125MOL0     H16498   6.410  11.470   3.510 -1.8139  0.5633  0.7038
  125MOL0     H16499   5.398  11.274   3.270  0.0117 -0.6342 -1.0595
  125MOL0     H16500   5.211  11.146   3.341 -1.6873 -2.5968  1.9601
  126MOL0     O16501   4.364   7.915   2.517  1.1265  0.5824 -0.3895
  126MOL0     C16502   4.348   8.032   2.480 -0.2714  0.0126  0.2589
  126MOL0     O16503   4.232   8.094   2.456  0.0694  0.0252  0.4251
  126MOL0     C16504   4.116   8.030   2.456  0.6025  0.3855 -0.1657
  126MOL0     C16505   4.023   8.046   2.352 -0.6361  0.1623  0.4123
  126MOL0     C16506   3.898   7.989   2.355  0.2191  0.0614  0.2602
  126MOL0     C16507   3.858   7.924   2.468  0.8203  0.7100  0.1409
  126MOL0     O16508   3.728   7.884   2.510  0.6623  0.8826  0.0860
  126MOL0     C16509   3.645   7.832   2.404  1.0566  0.0923 -0.6331
  126MOL0     C16510   3.506   7.796   2.471  0.7397 -0.3567 -0.5769
  126MOL0     C16511   3.420   7.696   2.380 -0.7648  0.0722 -0.9408
  126MOL0     C16512   3.307   7.654   2.476 -0.2283  0.7267 -0.1951
  126MOL0     C16513   3.204   7.565   2.389 -0.1961  0.5262 -0.0112
  126MOL0     C16514   3.082   7.532   2.484 -0.3855  0.3231 -0.5053
  126MOL0     C16515   2.954   7.475   2.415 -0.4831 -0.0599 -0.3471
  126MOL0     C16516   2.834   7.463   2.509  0.0975  0.4921  0.2123
  126MOL0     N16517   2.717   7.390   2.452 -0.3197 -0.8731 -0.2621
  126MOL0     C16518   2.601   7.432   2.394  0.5353 -0.8166  0.6360
  126MOL0     C16519   2.560   7.328   2.318  0.2914  0.2274  0.2139
  126MOL0     C16520   2.438   7.313   2.230 -0.4332 -0.2602 -0.1185
  126MOL0     C16521   2.315   7.279   2.312  0.5280  0.1889  0.8276
  126MOL0     C16522   2.246   7.401   2.368 -0.0097  0.3756  0.5467
  126MOL0     C16523   2.178   7.486   2.256 -0.3399 -0.3684 -1.0239
  126MOL0     O16524   2.091   7.404   2.169  0.5453  0.1277  1.1735
  126MOL0     C16525   1.975   7.355   2.218 -0.7012 -0.2256  0.3215
  126MOL0     C16526   1.907   7.275   2.123  0.0955 -0.4372 -0.1453
  126MOL0     C16527   1.781   7.223   2.156  0.4721  0.7204 -0.4968
  126MOL0     C16528   1.717   7.262   2.274 -0.6767  0.8306 -0.2017
  126MOL0     C16529   1.575   7.224   2.297  0.5513 -0.3281 -0.1675
  126MOL0     O16530   1.509   7.179   2.181 -0.1654  0.0896  0.4608
  126MOL0     C16531   1.377   7.138   2.186  0.1418 -0.1915 -0.2384
  126MOL0     C16532   1.339   7.061   2.074 -0.6467  0.3439 -0.0851
  126MOL0     C16533   1.211   7.013   2.058  0.3795 -0.0363  0.1440
  126MOL0     C16534   1.108   7.062   2.140  0.0101  0.3466  0.5581
  126MOL0     O16535   0.981   7.023   2.124 -0.8021 -0.6016 -0.4760
  126MOL0     C16536   0.954   6.890   2.081  0.2472 -0.1110 -0.7487
  126MOL0     C16537   0.803   6.856   2.110  0.1284  0.7667 -0.6546
  126MOL0     C16538   0.766   6.717   2.085  0.8044  0.2478 -0.1234
  126MOL0     C16539   0.614   6.692   2.091  0.0415  0.0881 -0.3778
  126MOL0     C16540   0.583   6.536   2.104  1.2149  0.4413  0.1807
  126MOL0     C16541   0.446   6.497   2.053  0.6066  0.7485 -0.5039
  126MOL0     C16542   0.413   6.350   2.074  0.2369  0.4952  0.0292
  126MOL0     C16543   0.380   6.302   2.217  0.3626  0.4062  0.6285
  126MOL0    Cl16544   0.517   6.259   2.314  0.0069  0.0718  0.0842
  126MOL0     C16545   1.138   7.132   2.254 -0.5796 -0.4629 -0.4403
  126MOL0     C16546   1.273   7.177   2.279 -0.6573  0.2656 -0.1812
  126MOL0     O16547   1.527   7.232   2.411  0.2979  0.1576  0.6503
  126MOL0     C16548   1.788   7.333   2.367 -0.1448 -0.1715 -0.2752
  126MOL0     C16549   1.920   7.378   2.343 -0.9301  0.3901 -0.3874
  126MOL0     N16550   2.650   7.226   2.327 -0.2604  0.4915  0.8218
  126MOL0     N16551   2.745   7.266   2.402 -0.0862  0.1501 -1.0790
  126MOL0     C16552   3.948   7.906   2.573  0.0798  0.0772  0.3477
  126MOL0     C16553   4.079   7.958   2.567  0.0500 -0.7986 -0.6895
  126MOL0     C16554   4.472   8.105   2.446  0.2735  0.6522  0.5743
  126MOL0     C16555   4.596   8.054   2.475 -0.3583  0.8279  0.6555
  126MOL0     C16556   4.718   8.121   2.451 -0.0954  0.4218 -0.4873
  126MOL0     C16557   4.712   8.242   2.384  0.4775  1.1567 -0.1707
  126MOL0     O16558   4.832   8.314   2.371  0.4004 -0.2755 -0.5890
  126MOL0     C16559   4.844   8.404   2.258 -0.2671  0.0864 -0.2040
  126MOL0     C16560   4.786   8.348   2.123  0.1549  0.8969 -0.2226
  126MOL0     C16561   4.840   8.404   1.994 -0.4894 -0.1471 -0.0723
  126MOL0     C16562   4.820   8.556   1.982 -0.2741  0.9979 -0.6987
  126MOL0     C16563   4.919   8.632   2.062  0.0024  0.1500 -0.5185
  126MOL0     C16564   5.007   8.700   2.109  0.4586  0.7361  0.6646
  126MOL0     C16565   4.586   8.301   2.371 -0.3864 -0.5867 -0.2988
  126MOL0     C16566   4.469   8.234   2.397  0.1382 -0.0285  1.0732
  126MOL0     H16567   4.063   8.087   2.260  4.3660 -0.9745  1.7639
  126MOL0     H16568   3.826   7.996   2.274  1.2655 -0.3412 -0.7357
  126MOL0     H16569   3.692   7.740   2.368 -0.6243 -0.4567 -1.5901
  126MOL0     H16570   3.638   7.897   2.316  2.7520 -0.1039 -0.9343
  126MOL0     H16571   3.457   7.892   2.488 -0.4315 -0.2924 -3.5351
  126MOL0     H16572   3.526   7.740   2.563 -1.2537  0.7522  0.5862
  126MOL0     H16573   3.479   7.606   2.361 -1.5720 -0.7170  0.1364
  126MOL0     H16574   3.386   7.739   2.285 -0.0330  0.5480 -0.9964
  126MOL0     H16575   3.357   7.597   2.555 -0.6647  0.7553  0.1048
  126MOL0     H16576   3.261   7.746   2.512  0.4057  2.1982 -2.8592
  126MOL0     H16577   3.254   7.472   2.360  2.5831  1.5020  1.3008
  126MOL0     H16578   3.172   7.619   2.299  0.8859  2.4044  0.6716
  126MOL0     H16579   3.051   7.624   2.534  1.6800 -0.7449  3.1144
  126MOL0     H16580   3.120   7.458   2.555 -0.5744 -2.5296 -3.1641
  126MOL0     H16581   2.923   7.548   2.339 -2.0573  0.8278  1.0824
  126MOL0     H16582   2.960   7.376   2.369 -1.1841  0.0233 -0.6403
  126MOL0     H16583   2.812   7.558   2.559  2.2170  2.1253 -1.6835
  126MOL0     H16584   2.873   7.387   2.577 -2.4177 -1.1396 -0.0325
  126MOL0     H16585   2.546   7.526   2.397 -1.9050 -2.0321 -1.7435
  126MOL0     H16586   2.465   7.230   2.164 -0.8152 -1.7227  1.5053
  126MOL0     H16587   2.426   7.397   2.161 -1.1313  0.2446  0.5890
  126MOL0     H16588   2.331   7.201   2.387 -1.0961 -2.6981 -1.6038
  126MOL0     H16589   2.242   7.232   2.245  0.2823  0.6180  0.7846
  126MOL0     H16590   2.165   7.368   2.434 -0.4001 -3.1916 -1.4401
  126MOL0     H16591   2.317   7.462   2.425  2.4868  1.1130 -3.0488
  126MOL0     H16592   2.248   7.542   2.194  1.2188 -1.1585 -0.0343
  126MOL0     H16593   2.125   7.573   2.295 -1.6705 -0.4922 -2.4576
  126MOL0     H16594   1.949   7.253   2.025  3.2679  3.0650  0.1974
  126MOL0     H16595   1.734   7.157   2.085  5.3699 -0.4239 -3.0995
  126MOL0     H16596   1.404   7.022   1.996 -2.1805  0.6583 -1.5798
  126MOL0     H16597   1.200   6.955   1.967 -1.2634  0.8122 -0.2421
  126MOL0     H16598   1.018   6.829   2.145 -1.0022 -0.3648  0.3166
  126MOL0     H16599   0.972   6.870   1.975 -1.1553 -0.8288 -0.8840
  126MOL0     H16600   0.743   6.921   2.046 -0.3004  0.4436 -0.5846
  126MOL0     H16601   0.774   6.880   2.212 -1.0646 -1.0039 -0.5443
  126MOL0     H16602   0.811   6.654   2.162 -1.3376  0.1859  1.1320
  126MOL0     H16603   0.809   6.686   1.988 -2.5753  1.8667 -2.3298
  126MOL0     H16604   0.567   6.743   2.175  3.3359 -1.2690  2.5090
  126MOL0     H16605   0.574   6.731   1.996 -1.4393  1.7581  0.8511
  126MOL0     H16606   0.594   6.513   2.210 -3.6696 -2.1649  0.3930
  126MOL0     H16607   0.665   6.478   2.059 -2.2943 -2.8517 -2.6481
  126MOL0     H16608   0.449   6.518   1.945  0.7872 -1.5933 -0.9878
  126MOL0     H16609   0.366   6.558   2.097  0.5523  2.3517 -2.6328
  126MOL0     H16610   0.325   6.324   2.015  1.5107  1.3269 -2.3725
  126MOL0     H16611   0.481   6.277   2.029  0.3969 -0.7835  2.2194
  126MOL0     H16612   0.323   6.209   2.209  0.5738  0.4469 -3.6442
  126MOL0     H16613   0.318   6.385   2.253 -0.5169  2.0852 -4.1283
  126MOL0     H16614   1.059   7.170   2.318  0.0089  0.4055 -0.2080
  126MOL0     H16615   1.293   7.242   2.364 -0.9258  0.6961 -0.4484
  126MOL0     H16616   1.727   7.367   2.450 -0.4174  0.1366 -0.5976
  126MOL0     H16617   1.965   7.438   2.422  0.7915  0.2368 -1.2279
  126MOL0     H16618   3.919   7.849   2.661 -2.9740  3.1310  1.5452
  126MOL0     H16619   4.146   7.939   2.651  1.2201  1.0002 -1.1807
  126MOL0     H16620   4.607   7.958   2.525  1.9041 -0.0246 -1.2655
  126MOL0     H16621   4.815   8.080   2.479 -0.6837 -1.7407 -1.4093
  126MOL0     H16622   4.951   8.413   2.238 -0.4260 -1.2904 -1.9154
  126MOL0     H16623   4.804   8.506   2.270  1.7489  1.1943 -2.0464
  126MOL0     H16624   4.799   8.240   2.116  0.2734  0.9378 -0.6554
  126MOL0     H16625   4.678   8.360   2.126  0.1304  0.4651  1.9561
  126MOL0     H16626   4.787   8.346   1.919 -1.7326  2.3134 -1.2218
  126MOL0     H16627   4.946   8.385   1.974 -0.4559  0.2835 -0.3089
  126MOL0     H16628   4.823   8.565   1.873 -2.4377 -0.7854 -0.9869
  126MOL0     H16629   4.718   8.579   2.012  0.1174 -0.0246  1.6028
  126MOL0     H16630   5.090   8.756   2.145  1.0959  0.3680 -0.1916
  126MOL0     H16631   4.594   8.406   2.342  3.0508 -1.2261 -2.1621
  126MOL0     H16632   4.380   8.295   2.385  0.2005  0.0456  0.9901
  127MOL0     O16633   5.396   9.132   1.051 -0.1786  0.6682 -0.0035
  127MOL0     C16634   5.367   9.185   1.162  0.0557  0.1691 -0.5426
  127MOL0     O16635   5.443   9.272   1.230  0.0231  0.1318 -0.3673
  127MOL0     C16636   5.566   9.310   1.182  0.1716 -0.1320 -0.3007
  127MOL0     C16637   5.605   9.427   1.244  0.5699  0.7453 -0.4221
  127MOL0     C16638   5.724   9.489   1.204 -0.7046  0.5274  0.6540
  127MOL0     C16639   5.817   9.424   1.117 -0.2716  0.0225 -0.1665
  127MOL0     O16640   5.936   9.487   1.095 -0.2368 -0.5375  0.9164
  127MOL0     C16641   6.012   9.467   0.973  0.1679  0.6983 -0.2282
  127MOL0     C16642   6.163   9.508   1.003  0.9011 -0.3227 -0.3108
  127MOL0     C16643   6.255   9.502   0.885  0.0138  0.1182 -0.1505
  127MOL0     C16644   6.390   9.571   0.910  0.5506  0.4794  0.0076
  127MOL0     C16645   6.475   9.554   0.783 -0.0457  0.3321  0.5594
  127MOL0     C16646   6.604   9.626   0.812  0.0819  0.2660  0.0859
  127MOL0     C16647   6.714   9.583   0.697 -0.0649  0.2049 -0.4192
  127MOL0     C16648   6.839   9.671   0.703 -0.5117 -0.3036  0.5834
  127MOL0     N16649   6.802   9.802   0.635  0.0885  0.9197 -1.1677
  127MOL0     C16650   6.729   9.822   0.522  0.2453  0.0596  0.6881
  127MOL0     C16651   6.693   9.949   0.520 -0.4020 -0.2617  0.2672
  127MOL0     C16652   6.615  10.014   0.415  0.0147 -0.4754 -0.5793
  127MOL0     C16653   6.478  10.077   0.455  0.3478  1.0068  0.6370
  127MOL0     C16654   6.403   9.972   0.535 -0.3937  0.2435  0.1679
  127MOL0     C16655   6.250   9.976   0.528 -0.4584  0.4533 -0.3097
  127MOL0     O16656   6.209   9.904   0.648  0.0500 -0.1394 -0.6191
  127MOL0     C16657   6.075   9.892   0.670  0.4289 -0.3668 -0.4377
  127MOL0     C16658   6.034   9.835   0.792  0.2929  0.3839 -0.0491
  127MOL0     C16659   5.897   9.807   0.812 -0.3601  0.0064  0.1827
  127MOL0     C16660   5.801   9.833   0.719 -0.4011 -0.9170  0.4121
  127MOL0     C16661   5.659   9.798   0.732 -1.1207 -0.0581 -0.4380
  127MOL0     O16662   5.633   9.742   0.859  0.3398  0.0122  0.8375
  127MOL0     C16663   5.501   9.718   0.895 -0.5353 -0.7089 -0.0829
  127MOL0     C16664   5.394   9.810   0.885 -0.2139 -0.4584  0.0171
  127MOL0     C16665   5.269   9.774   0.923 -0.3309 -0.7480  0.0834
  127MOL0     C16666   5.248   9.661   0.993  0.4335  0.6054  0.0611
  127MOL0     O16667   5.121   9.623   1.047 -0.0874 -0.1419 -0.0934
  127MOL0     C16668   5.035   9.585   0.944 -0.8054  0.8833 -1.0143
  127MOL0     C16669   4.900   9.561   1.011 -0.0350  0.2382  0.0509
  127MOL0     C16670   4.892   9.442   1.100 -0.1163  0.4843  0.9970
  127MOL0     C16671   4.748   9.407   1.150 -0.9448 -0.1655  0.2238
  127MOL0     C16672   4.645   9.372   1.044 -0.5750 -0.2746  0.7644
  127MOL0     C16673   4.545   9.268   1.093 -0.2144 -0.0839 -0.2439
  127MOL0     C16674   4.419   9.256   1.003  0.1399  0.2368 -0.0169
  127MOL0     C16675   4.313   9.169   1.070  0.0013  0.4501  0.0069
  127MOL0    Cl16676   4.347   9.001   1.019 -0.6563  0.1519  0.0121
  127MOL0     C16677   5.353   9.569   1.008 -0.1046  0.4527  0.0012
  127MOL0     C16678   5.483   9.594   0.955  1.2067 -0.8356  1.3381
  127MOL0     O16679   5.576   9.826   0.643 -0.5571  0.0071 -0.9401
  127MOL0     C16680   5.848   9.877   0.596  0.0271  0.8765 -0.2898
  127MOL0     C16681   5.981   9.905   0.564 -0.4197 -0.7435 -0.1059
  127MOL0     N16682   6.748  10.012   0.630  0.4191 -0.2213  0.0568
  127MOL0     N16683   6.815   9.923   0.693 -0.2891  0.3389 -0.3590
  127MOL0     C16684   5.776   9.307   1.052 -1.5208  0.4453 -0.6468
  127MOL0     C16685   5.652   9.248   1.088 -0.3728 -0.8590  0.5583
  127MOL0     C16686   5.230   9.172   1.218  1.2498  0.5951  0.4620
  127MOL0     C16687   5.200   9.217   1.351  0.6200  0.3387  0.2964
  127MOL0     C16688   5.072   9.209   1.402 -0.0773  0.3957 -0.4819
  127MOL0     C16689   4.980   9.145   1.334  0.4017  0.7311  0.2601
  127MOL0     O16690   4.864   9.126   1.396  0.2897  0.2077 -1.5074
  127MOL0     C16691   4.803   9.008   1.384  0.6314 -0.0422 -0.5938
  127MOL0     C16692   4.733   8.967   1.516 -0.2005  0.1902  0.3339
  127MOL0     C16693   4.600   9.043   1.537  0.5630 -0.1681 -0.8819
  127MOL0     C16694   4.481   9.018   1.439  0.1817  0.0626  0.0495
  127MOL0     C16695   4.357   9.048   1.503 -0.3054  0.5805 -0.1056
  127MOL0     C16696   4.262   9.056   1.568  0.2802  0.4203 -1.0368
  127MOL0     C16697   5.003   9.100   1.199  0.1256 -0.6526 -0.1185
  127MOL0     C16698   5.127   9.111   1.148  0.4055 -0.1959  0.5273
  127MOL0     H16699   5.555   9.469   1.331 -1.2623  0.4188 -1.2661
  127MOL0     H16700   5.738   9.581   1.260 -0.7159  0.6940  0.3822
  127MOL0     H16701   5.967   9.526   0.893 -0.3026  2.2854  1.1528
  127MOL0     H16702   6.012   9.361   0.947  1.5653  0.8169 -0.8083
  127MOL0     H16703   6.193   9.445   1.087  1.7337  1.4928  0.8095
  127MOL0     H16704   6.166   9.611   1.039 -1.1037 -0.1548 -0.5180
  127MOL0     H16705   6.201   9.549   0.802 -1.5556 -2.5863 -0.7908
  127MOL0     H16706   6.265   9.398   0.854 -0.2410 -0.4982  1.6889
  127MOL0     H16707   6.369   9.675   0.939  0.1155 -0.6419  4.2198
  127MOL0     H16708   6.446   9.534   0.996  0.9486 -2.3869 -1.3686
  127MOL0     H16709   6.428   9.594   0.693 -0.3172  0.0336  0.5682
  127MOL0     H16710   6.488   9.446   0.768 -1.1111  0.0580  1.5314
  127MOL0     H16711   6.646   9.605   0.911  1.7832 -2.6612 -1.0994
  127MOL0     H16712   6.590   9.734   0.807 -1.8031  0.1598  1.9608
  127MOL0     H16713   6.743   9.478   0.709 -0.7595 -0.2735 -2.3940
  127MOL0     H16714   6.656   9.589   0.604 -1.3795  0.0687  0.3610
  127MOL0     H16715   6.914   9.629   0.636 -0.7464 -0.9357  0.7114
  127MOL0     H16716   6.886   9.687   0.801 -0.4089 -0.1968  0.5181
  127MOL0     H16717   6.696   9.743   0.455  2.4009  0.2966 -0.7535
  127MOL0     H16718   6.605   9.949   0.328 -1.5874  1.5046 -2.0007
  127MOL0     H16719   6.681  10.095   0.380  1.1517 -1.1128  0.0365
  127MOL0     H16720   6.427  10.098   0.361  2.1878  0.4119 -0.5603
  127MOL0     H16721   6.504  10.174   0.499 -0.1496  2.4584 -2.0335
  127MOL0     H16722   6.439   9.873   0.505  0.0084  0.9421 -1.8694
  127MOL0     H16723   6.433   9.982   0.639 -1.9372  1.5693  0.5266
  127MOL0     H16724   6.217   9.927   0.436  0.0193  2.1873 -1.4280
  127MOL0     H16725   6.219  10.080   0.526  0.3390  0.7596  1.4707
  127MOL0     H16726   6.094   9.827   0.882  2.3029 -0.9610 -1.4232
  127MOL0     H16727   5.870   9.773   0.911 -2.1441  1.3657  0.2235
  127MOL0     H16728   5.408   9.910   0.845  0.4103 -0.5120  0.0996
  127MOL0     H16729   5.183   9.840   0.925 -2.2681 -2.9543 -2.2633
  127MOL0     H16730   5.083   9.511   0.881  0.2143 -0.0920  0.8307
  127MOL0     H16731   5.022   9.669   0.874 -1.0861  0.8721 -0.9772
  127MOL0     H16732   4.822   9.554   0.934 -1.7511 -1.7783  1.8288
  127MOL0     H16733   4.886   9.651   1.071 -1.0540  0.0154  0.1717
  127MOL0     H16734   4.950   9.468   1.189  1.3424 -0.4553  0.3513
  127MOL0     H16735   4.945   9.352   1.070  0.2241 -0.8011  4.8615
  127MOL0     H16736   4.761   9.323   1.219  2.9520  1.5538  1.8926
  127MOL0     H16737   4.721   9.498   1.204  1.6108 -0.7764  2.7346
  127MOL0     H16738   4.689   9.349   0.946  0.7979  2.6363  0.5647
  127MOL0     H16739   4.592   9.467   1.029  0.6312  0.1165 -1.5923
  127MOL0     H16740   4.519   9.297   1.195 -2.3059 -0.4170 -0.6310
  127MOL0     H16741   4.600   9.173   1.089 -0.0387  0.0414 -4.1483
  127MOL0     H16742   4.365   9.350   0.993  0.0277  0.1911  0.1567
  127MOL0     H16743   4.453   9.215   0.908  5.2737  0.2146  1.5634
  127MOL0     H16744   4.218   9.206   1.032  0.2596  0.6698 -0.4342
  127MOL0     H16745   4.318   9.168   1.179 -2.1011 -2.6207  0.1909
  127MOL0     H16746   5.332   9.475   1.058  0.9466 -0.4235 -1.1274
  127MOL0     H16747   5.568   9.527   0.960  0.9595 -1.0993  2.2148
  127MOL0     H16748   5.774   9.899   0.520 -1.6096  2.4102  1.5920
  127MOL0     H16749   5.996   9.949   0.467  0.6355 -0.2129  0.2746
  127MOL0     H16750   5.837   9.259   0.976 -1.9063 -2.1616  0.5633
  127MOL0     H16751   5.629   9.159   1.030  1.2633 -2.9895  2.9572
  127MOL0     H16752   5.276   9.262   1.413  3.2208  0.7755 -2.9069
  127MOL0     H16753   5.046   9.253   1.497  2.1362 -1.2657  0.9804
  127MOL0     H16754   4.866   8.926   1.349 -1.1495 -1.3223 -0.9267
  127MOL0     H16755   4.736   9.029   1.300  0.7901 -0.2421 -0.7710
  127MOL0     H16756   4.708   8.861   1.526 -2.6017  0.8469  2.6706
  127MOL0     H16757   4.794   8.989   1.604 -0.0173 -0.5112  0.3864
  127MOL0     H16758   4.608   9.152   1.540  1.2241 -0.2257  0.2005
  127MOL0     H16759   4.565   9.026   1.640 -2.2240  1.7499 -1.4168
  127MOL0     H16760   4.491   9.086   1.353  0.0672 -0.0260 -0.0339
  127MOL0     H16761   4.484   8.915   1.401 -0.9914 -0.0925  0.3537
  127MOL0     H16762   4.173   9.082   1.621 -0.0637 -1.7315 -0.4357
  127MOL0     H16763   4.926   9.053   1.139 -2.8133  0.5860  2.3904
  127MOL0     H16764   5.142   9.065   1.050 -1.0548 -2.2355  1.2042
  128MOL0     O16765   1.152   6.444   8.511 -0.3195 -0.1148  0.3602
  128MOL0     C16766   1.180   6.341   8.573  0.5884  0.8182 -0.0803
  128MOL0     O16767   1.146   6.314   8.703 -0.2304 -0.3190 -0.3050
  128MOL0     C16768   1.051   6.402   8.761  0.2112  0.4832 -0.6582
  128MOL0     C16769   1.085   6.505   8.852 -0.3531  0.3317  0.0648
  128MOL0     C16770   0.991   6.589   8.904  0.0477  0.6185 -0.0219
  128MOL0     C16771   0.856   6.586   8.870  0.3494  0.2762  0.8705
  128MOL0     O16772   0.755   6.663   8.919  0.5840  0.0330  0.0671
  128MOL0     C16773   0.786   6.774   9.003  0.1092  0.1906  0.2121
  128MOL0     C16774   0.678   6.781   9.110 -0.1509 -0.7495  0.1931
  128MOL0     C16775   0.713   6.880   9.226 -0.6578 -0.4654 -0.7811
  128MOL0     C16776   0.816   6.820   9.322  0.6233 -0.8199 -0.3619
  128MOL0     C16777   0.851   6.927   9.429 -1.0594  0.3121 -0.2399
  128MOL0     C16778   0.775   6.912   9.553 -0.5097 -0.8533 -0.4800
  128MOL0     C16779   0.645   6.989   9.557 -0.3047 -0.4798  0.2031
  128MOL0     C16780   0.550   6.912   9.664 -0.1104 -0.0623  0.4387
  128MOL0     N16781   0.424   6.985   9.699  0.4748  0.2431 -0.3183
  128MOL0     C16782   0.294   6.956   9.659  0.3807 -0.3384  0.2721
  128MOL0     C16783   0.210   7.040   9.726 -0.4273  0.9472 -0.4194
  128MOL0     C16784   0.056   7.038   9.735 -0.5794  0.4674 -0.5597
  128MOL0     C16785  -0.011   7.101   9.612 -0.1077  0.4055 -0.5655
  128MOL0     C16786  -0.033   7.252   9.593 -0.3643  0.0912  0.1778
  128MOL0     C16787  -0.129   7.326   9.690  0.6965  0.4183 -0.2202
  128MOL0     O16788  -0.139   7.465   9.652 -0.3663  1.2302  0.1205
  128MOL0     C16789  -0.259   7.524   9.676  0.8123 -0.3419  0.0828
  128MOL0     C16790  -0.298   7.570   9.804  0.2498  0.1809 -0.1303
  128MOL0     C16791  -0.418   7.636   9.833 -0.5124 -0.4616  0.2068
  128MOL0     C16792  -0.505   7.670   9.728  0.1506  0.5483 -0.3550
  128MOL0     C16793  -0.629   7.742   9.760 -0.4290 -0.4289  0.5279
  128MOL0     O16794  -0.719   7.757   9.657 -0.5572  0.0596  0.4221
  128MOL0     C16795  -0.835   7.824   9.668 -0.5255  0.4949 -0.0589
  128MOL0     C16796  -0.843   7.952   9.717 -0.5130  0.1445 -0.5066
  128MOL0     C16797  -0.961   8.023   9.720 -0.8000  0.5350  0.2505
  128MOL0     C16798  -1.078   7.970   9.664  0.8180  0.3995  0.0633
  128MOL0     O16799  -1.195   8.047   9.674 -0.2906  0.7261 -0.2194
  128MOL0     C16800  -1.302   8.030   9.581 -0.2077  0.6450 -0.3549
  128MOL0     C16801  -1.408   8.133   9.631 -0.3348  0.3960 -0.2212
  128MOL0     C16802  -1.542   8.090   9.575  0.3629 -0.1839  0.7120
  128MOL0     C16803  -1.651   8.198   9.626 -0.6301  0.4364 -0.1743
  128MOL0     C16804  -1.782   8.198   9.543 -0.3069  0.2038 -0.1707
  128MOL0     C16805  -1.814   8.355   9.511  0.8120  1.5863 -0.1116
  128MOL0     C16806  -1.936   8.369   9.421  1.6589  0.6360  0.5183
  128MOL0     C16807  -2.072   8.311   9.479  0.7597 -0.5019  0.1148
  128MOL0    Cl16808  -2.200   8.390   9.374  0.3174 -0.2582 -0.6132
  128MOL0     C16809  -1.073   7.832   9.617 -0.7922 -0.5557  0.0051
  128MOL0     C16810  -0.953   7.764   9.623 -0.2883 -0.2289  0.3414
  128MOL0     O16811  -0.646   7.800   9.867 -0.2791 -0.2732 -0.0497
  128MOL0     C16812  -0.477   7.618   9.603  0.5748  0.5741  0.3829
  128MOL0     C16813  -0.345   7.561   9.578 -0.0415  0.5464  0.2512
  128MOL0     N16814   0.295   7.112   9.812  0.0243  0.4182 -0.7648
  128MOL0     N16815   0.415   7.090   9.785 -0.3484  0.5472  0.0972
  128MOL0     C16816   0.819   6.485   8.778 -0.0847  0.2205 -0.7909
  128MOL0     C16817   0.909   6.397   8.727  0.2996  0.6527 -0.0119
  128MOL0     C16818   1.256   6.228   8.505  0.5812 -0.3362 -0.6925
  128MOL0     C16819   1.295   6.232   8.366 -1.2357 -0.2289 -0.8202
  128MOL0     C16820   1.352   6.121   8.304 -0.3337  0.2830  0.1827
  128MOL0     C16821   1.371   6.000   8.383 -0.1897 -0.7196 -0.5922
  128MOL0     O16822   1.417   5.887   8.332  0.3568  0.9519  0.2820
  128MOL0     C16823   1.545   5.889   8.273  0.2725 -0.7410 -0.6688
  128MOL0     C16824   1.605   5.754   8.225 -0.6903  0.7515 -0.2728
  128MOL0     C16825   1.758   5.778   8.217  0.4429 -0.4032  0.0871
  128MOL0     C16826   1.836   5.651   8.171  0.2502  0.4793 -0.2555
  128MOL0     C16827   1.981   5.681   8.164  0.2606  1.3391  0.3515
  128MOL0     C16828   2.097   5.693   8.141 -0.7120 -0.4601 -0.5130
  128MOL0     C16829   1.327   5.988   8.515 -0.1236 -0.6352  0.7223
  128MOL0     C16830   1.274   6.106   8.577 -0.2787 -0.2903  0.2388
  128MOL0     H16831   1.185   6.500   8.894 -1.7976 -0.3406  3.9081
  128MOL0     H16832   1.034   6.662   8.972  1.0969  0.8990 -0.9599
  128MOL0     H16833   0.792   6.858   8.933  1.0318  0.6744  0.8408
  128MOL0     H16834   0.885   6.770   9.051  0.7083  1.4430 -0.8597
  128MOL0     H16835   0.671   6.681   9.155 -0.9238  0.3627  2.7127
  128MOL0     H16836   0.584   6.809   9.063  0.6140  1.3717 -0.1830
  128MOL0     H16837   0.626   6.917   9.281  0.7418 -0.9430  1.9824
  128MOL0     H16838   0.756   6.968   9.177  1.0604 -1.7324 -1.6272
  128MOL0     H16839   0.776   6.728   9.367 -0.0715  0.7493  2.4626
  128MOL0     H16840   0.910   6.807   9.268  1.7586  0.8478  1.1085
  128MOL0     H16841   0.856   7.026   9.383  0.7661  0.3185 -0.0843
  128MOL0     H16842   0.957   6.907   9.448 -1.6053 -0.8650  1.9140
  128MOL0     H16843   0.831   6.947   9.639 -0.8589 -3.0869  0.7408
  128MOL0     H16844   0.767   6.804   9.569 -0.8151 -1.0665 -1.9085
  128MOL0     H16845   0.675   7.088   9.592 -1.6726  0.1085 -0.2147
  128MOL0     H16846   0.579   6.994   9.470 -0.2383 -2.7249 -0.0475
  128MOL0     H16847   0.619   6.889   9.746 -1.1823 -0.7232  1.1858
  128MOL0     H16848   0.520   6.821   9.610 -0.4125  1.1411 -1.5038
  128MOL0     H16849   0.264   6.884   9.584 -3.1781  1.1733  0.0630
  128MOL0     H16850   0.021   7.085   9.827  1.4345 -0.4041  0.7295
  128MOL0     H16851   0.026   6.933   9.736  1.9850 -0.3541  1.1111
  128MOL0     H16852  -0.109   7.056   9.595 -0.9778  1.0700  2.0607
  128MOL0     H16853   0.060   7.082   9.532 -3.7059 -4.4031 -3.1061
  128MOL0     H16854   0.065   7.301   9.597 -1.1363  1.6444  0.8312
  128MOL0     H16855  -0.079   7.262   9.495 -1.8855 -2.0133  0.6021
  128MOL0     H16856  -0.090   7.322   9.792  2.2251  2.9150 -0.6375
  128MOL0     H16857  -0.229   7.282   9.684 -0.6415  3.1198  0.5905
  128MOL0     H16858  -0.236   7.543   9.889 -0.4968  0.3384  0.4747
  128MOL0     H16859  -0.440   7.667   9.934 -0.8374  2.3566 -0.6444
  128MOL0     H16860  -0.758   7.990   9.773  1.5782 -1.5529 -2.3283
  128MOL0     H16861  -0.967   8.117   9.776 -4.3938  0.1336  0.7957
  128MOL0     H16862  -1.342   7.928   9.576  0.0497  0.5956 -1.8576
  128MOL0     H16863  -1.264   8.071   9.487  1.5620  1.7803  0.7926
  128MOL0     H16864  -1.379   8.233   9.598  0.3909 -0.1972 -1.4544
  128MOL0     H16865  -1.409   8.133   9.740  0.5030 -1.4466 -0.1614
  128MOL0     H16866  -1.566   7.991   9.613 -0.2466 -0.0964  0.5711
  128MOL0     H16867  -1.547   8.086   9.466 -1.3898  2.5063  0.5947
  128MOL0     H16868  -1.682   8.195   9.731 -0.7941 -1.4236 -0.2369
  128MOL0     H16869  -1.599   8.293   9.611 -0.1723 -0.0524 -1.8851
  128MOL0     H16870  -1.870   8.149   9.586  0.8997 -1.4368  0.5093
  128MOL0     H16871  -1.755   8.152   9.447  0.1765 -0.1255  0.1220
  128MOL0     H16872  -1.729   8.403   9.461  2.6436 -0.0049  1.3487
  128MOL0     H16873  -1.847   8.405   9.602 -0.1203  0.5294  0.1577
  128MOL0     H16874  -1.959   8.474   9.398  0.1637  0.9953  3.2016
  128MOL0     H16875  -1.927   8.333   9.318  0.3368  1.8160 -0.0559
  128MOL0     H16876  -2.095   8.335   9.583 -1.1148 -1.2160 -0.0920
  128MOL0     H16877  -2.073   8.202   9.476  0.4290 -0.7096  3.5209
  128MOL0     H16878  -1.154   7.791   9.557  0.3090 -1.2950 -1.0316
  128MOL0     H16879  -0.948   7.665   9.580  2.7131 -1.0862  2.2748
  128MOL0     H16880  -0.527   7.639   9.509  0.2469 -0.6072  0.2686
  128MOL0     H16881  -0.315   7.528   9.480 -0.1840  1.2715 -0.0399
  128MOL0     H16882   0.715   6.469   8.752  0.1679  0.4702 -2.0407
  128MOL0     H16883   0.882   6.312   8.665  1.9457  1.0006 -1.2670
  128MOL0     H16884   1.283   6.330   8.322 -2.0250 -0.5592 -1.3627
  128MOL0     H16885   1.360   6.130   8.197 -0.5930  2.2965  0.2857
  128MOL0     H16886   1.596   5.933   8.359 -2.3703  0.3308  0.4591
  128MOL0     H16887   1.541   5.958   8.188  0.5420  0.6369  0.3804
  128MOL0     H16888   1.583   5.691   8.312  1.6083 -1.3273 -1.0722
  128MOL0     H16889   1.564   5.715   8.131  2.0371 -1.9100 -0.5211
  128MOL0     H16890   1.809   5.817   8.305  2.0000 -0.6143 -0.6717
  128MOL0     H16891   1.780   5.862   8.150 -2.1339 -0.1963 -0.6216
  128MOL0     H16892   1.818   5.583   8.255  0.4112  1.1052  0.2875
  128MOL0     H16893   1.803   5.608   8.076  1.4658 -1.0880 -0.0070
  128MOL0     H16894   2.200   5.702   8.115 -0.6273  0.2031  0.0300
  128MOL0     H16895   1.332   5.891   8.563  2.4729 -0.0834  1.7298
  128MOL0     H16896   1.233   6.086   8.676 -0.5060 -1.0391  0.0034
  129MOL0     O16897   8.913  10.161   1.460 -0.4677 -0.0753 -0.3116
  129MOL0     C16898   8.985  10.060   1.474  0.1078 -0.2198  0.6367
  129MOL0     O16899   8.952   9.959   1.557  0.1834  0.1260  0.4358
  129MOL0     C16900   8.821   9.966   1.606 -0.4878 -0.8728  0.1010
  129MOL0     C16901   8.807  10.009   1.737 -0.3215 -0.2040  0.4247
  129MOL0     C16902   8.680  10.007   1.800  0.2988 -0.0848  0.8620
  129MOL0     C16903   8.563   9.988   1.736 -0.0333  0.3413 -1.0080
  129MOL0     O16904   8.452  10.004   1.803  0.8000 -0.1194 -0.7727
  129MOL0     C16905   8.328   9.948   1.758  0.3434  0.2995 -0.5548
  129MOL0     C16906   8.223  10.028   1.826  0.6090 -0.2952  0.2946
  129MOL0     C16907   8.078   9.992   1.788 -0.0645  0.3641 -0.6806
  129MOL0     C16908   7.963  10.066   1.861  0.6770 -0.0182 -0.5795
  129MOL0     C16909   7.822  10.016   1.836 -0.9946  0.1964 -0.7319
  129MOL0     C16910   7.803   9.863   1.876  0.7463 -0.1533  0.4901
  129MOL0     C16911   7.652   9.836   1.864 -0.8414 -0.1329 -0.1500
  129MOL0     C16912   7.621   9.776   1.724 -0.1639 -0.1497 -0.3269
  129MOL0     N16913   7.477   9.799   1.689 -1.1752 -0.4332  0.8108
  129MOL0     C16914   7.422   9.720   1.591 -0.5232 -0.0450  0.1743
  129MOL0     C16915   7.298   9.768   1.568  0.0495 -0.6592 -0.5126
  129MOL0     C16916   7.196   9.715   1.471  1.1067 -0.7035  0.9392
  129MOL0     C16917   7.054   9.700   1.526  0.5696  0.3419  0.2480
  129MOL0     C16918   6.959   9.813   1.485 -0.2925 -0.4751 -0.1478
  129MOL0     C16919   6.816   9.782   1.520 -0.6513  0.6616  0.4956
  129MOL0     O16920   6.813   9.772   1.661  0.0490  0.0344  0.3840
  129MOL0     C16921   6.700   9.740   1.721  1.1573 -0.1739 -0.2699
  129MOL0     C16922   6.565   9.771   1.678  0.4042  0.3255 -0.5983
  129MOL0     C16923   6.457   9.726   1.753  0.4008 -0.3438 -0.1169
  129MOL0     C16924   6.467   9.662   1.877 -0.4157  1.5361  0.8327
  129MOL0     C16925   6.355   9.618   1.967  0.0822 -0.4392 -0.1650
  129MOL0     O16926   6.375   9.531   2.068  0.1162 -0.0896  0.1471
  129MOL0     C16927   6.282   9.513   2.162 -0.2640 -0.2197  0.5860
  129MOL0     C16928   6.166   9.442   2.140  0.6836 -0.3445 -0.1480
  129MOL0     C16929   6.066   9.446   2.238 -0.3079  0.1297 -1.0020
  129MOL0     C16930   6.078   9.520   2.353  0.8585 -0.7150 -0.2156
  129MOL0     O16931   5.981   9.527   2.447  0.6496 -0.0725 -0.2514
  129MOL0     C16932   5.889   9.428   2.458  0.2348 -0.3204 -0.0616
  129MOL0     C16933   5.809   9.434   2.584  0.1430  1.6279  0.2512
  129MOL0     C16934   5.723   9.302   2.597 -0.3401 -1.3623 -0.1733
  129MOL0     C16935   5.623   9.313   2.712 -0.0722  0.9360 -0.7852
  129MOL0     C16936   5.480   9.353   2.679 -0.4461 -0.5577 -0.3642
  129MOL0     C16937   5.394   9.389   2.797 -0.1741 -0.2848  0.0044
  129MOL0     C16938   5.355   9.264   2.876 -0.9761 -0.7414 -0.2911
  129MOL0     C16939   5.298   9.322   3.012 -0.3213  0.9337  0.0394
  129MOL0    Cl16940   5.216   9.189   3.097  0.0421  0.2005  0.0520
  129MOL0     C16941   6.196   9.581   2.379 -1.0938 -0.1221  1.1037
  129MOL0     C16942   6.299   9.584   2.278 -0.0150 -0.1982 -0.7953
  129MOL0     O16943   6.251   9.658   1.931 -0.0420  0.0595  0.6873
  129MOL0     C16944   6.600   9.632   1.910  0.3390 -0.9715 -0.4919
  129MOL0     C16945   6.710   9.668   1.839 -0.4539 -0.8629  0.5175
  129MOL0     N16946   7.275   9.867   1.662  0.9766 -0.0772  0.0392
  129MOL0     N16947   7.391   9.895   1.724  0.6687 -1.0126 -0.0408
  129MOL0     C16948   8.567   9.965   1.597  0.3795  0.6451 -0.0159
  129MOL0     C16949   8.696   9.945   1.535 -0.3902  0.6086  0.4927
  129MOL0     C16950   9.115  10.050   1.406 -0.3687 -0.2963 -0.9241
  129MOL0     C16951   9.206   9.943   1.426  1.3667 -0.0468 -0.2839
  129MOL0     C16952   9.336   9.959   1.381 -0.3670  1.3668  0.2884
  129MOL0     C16953   9.387  10.067   1.310 -0.3049  0.1598 -0.7587
  129MOL0     O16954   9.520  10.099   1.278  0.3779  0.2922  0.6993
  129MOL0     C16955   9.621  10.006   1.286 -0.3239 -0.2668 -0.0463
  129MOL0     C16956   9.742  10.077   1.221 -0.0984  0.9369  0.0213
  129MOL0     C16957   9.875  10.002   1.254  0.0504  0.2896  0.1983
  129MOL0     C16958   9.998  10.070   1.189  0.3815 -0.3760 -0.3013
  129MOL0     C16959  10.058   9.970   1.107 -0.5523  0.4406  0.8656
  129MOL0     C16960  10.112   9.893   1.033  0.0359 -1.1612  0.2159
  129MOL0     C16961   9.299  10.167   1.291 -0.1391  0.3743 -0.9270
  129MOL0     C16962   9.169  10.161   1.337  0.7913 -0.4765 -0.0580
  129MOL0     H16963   8.905  10.025   1.782  1.3308 -6.8407  0.2617
  129MOL0     H16964   8.674  10.026   1.907  0.4209 -3.4998  1.5838
  129MOL0     H16965   8.322   9.842   1.787  1.6728  0.4669  0.3935
  129MOL0     H16966   8.309   9.944   1.651 -1.5246 -3.1830 -0.2419
  129MOL0     H16967   8.232  10.134   1.802  4.3986  0.0981  2.6258
  129MOL0     H16968   8.229  10.013   1.934 -1.2016  0.7431  0.5852
  129MOL0     H16969   8.062   9.889   1.821 -1.0495  0.3185 -1.2723
  129MOL0     H16970   8.070   9.992   1.679 -1.5776  0.2441 -0.5892
  129MOL0     H16971   7.968  10.066   1.970 -0.6260 -0.1468 -0.5057
  129MOL0     H16972   7.971  10.170   1.826  3.0249 -0.7802 -2.6017
  129MOL0     H16973   7.793  10.027   1.731 -0.9373  2.2063 -0.5882
  129MOL0     H16974   7.753  10.067   1.905  0.7992 -0.1192  1.4065
  129MOL0     H16975   7.838   9.844   1.978  0.6494 -1.0200  0.3698
  129MOL0     H16976   7.860   9.796   1.812 -0.9525 -2.8249  1.6087
  129MOL0     H16977   7.616   9.764   1.938 -0.2598  1.1491  1.4448
  129MOL0     H16978   7.588   9.925   1.872 -1.5411 -0.4569 -1.7037
  129MOL0     H16979   7.646   9.670   1.725  4.5517  0.6785 -2.0764
  129MOL0     H16980   7.688   9.831   1.657 -0.4598  1.6967  0.7935
  129MOL0     H16981   7.473   9.647   1.529 -1.0753  0.7575 -1.2622
  129MOL0     H16982   7.220   9.612   1.442 -2.5088 -0.6469 -3.3820
  129MOL0     H16983   7.198   9.772   1.378  1.0959 -0.3656  1.1443
  129MOL0     H16984   7.063   9.686   1.634 -0.3049  1.8336  0.5394
  129MOL0     H16985   7.004   9.613   1.482 -0.7507  1.0288  0.3186
  129MOL0     H16986   6.995   9.899   1.543 -0.2147 -0.0644 -0.7865
  129MOL0     H16987   6.957   9.840   1.378 -2.2176  0.1749  0.0103
  129MOL0     H16988   6.783   9.688   1.474 -0.7237  1.6930 -1.6884
  129MOL0     H16989   6.752   9.861   1.480 -0.3786 -0.2238 -1.8502
  129MOL0     H16990   6.532   9.832   1.594 -0.2853  1.9466  0.8152
  129MOL0     H16991   6.358   9.747   1.713  0.2067 -0.3348  0.3657
  129MOL0     H16992   6.154   9.387   2.047  0.4863 -1.7488  0.6827
  129MOL0     H16993   5.974   9.405   2.197 -1.0180  1.5027 -0.8296
  129MOL0     H16994   5.934   9.328   2.452  0.8748 -0.0111 -0.5630
  129MOL0     H16995   5.815   9.441   2.379  1.3653 -3.4656 -1.8120
  129MOL0     H16996   5.743   9.521   2.576 -1.6377  0.3324  0.0980
  129MOL0     H16997   5.880   9.431   2.667  0.6637 -1.8900 -0.1615
  129MOL0     H16998   5.775   9.211   2.629 -2.5992 -2.1503  1.5598
  129MOL0     H16999   5.674   9.285   2.501 -1.5735  0.4574  0.0893
  129MOL0     H17000   5.606   9.212   2.750  2.3736  0.6598 -0.2956
  129MOL0     H17001   5.660   9.368   2.800 -4.0509 -0.1855  1.8798
  129MOL0     H17002   5.437   9.265   2.630 -1.1718  0.6437 -1.9738
  129MOL0     H17003   5.478   9.440   2.612 -0.0256 -0.7289 -0.6074
  129MOL0     H17004   5.301   9.425   2.753 -0.6751 -0.5553  0.8262
  129MOL0     H17005   5.441   9.469   2.855  2.0799 -0.2960 -1.6519
  129MOL0     H17006   5.280   9.197   2.832  0.5436 -3.3997  0.9383
  129MOL0     H17007   5.439   9.197   2.892 -2.4847 -2.8739 -0.8142
  129MOL0     H17008   5.231   9.403   2.984  0.3133  1.1004 -1.0429
  129MOL0     H17009   5.374   9.359   3.083  2.2192  1.1499 -2.6100
  129MOL0     H17010   6.219   9.636   2.469 -1.8208 -0.7203  1.6688
  129MOL0     H17011   6.386   9.644   2.303  0.2913 -0.2958 -1.6079
  129MOL0     H17012   6.611   9.588   2.009  1.8592 -0.4186 -0.3887
  129MOL0     H17013   6.814   9.649   1.867  0.6615  1.8287 -1.3467
  129MOL0     H17014   8.475   9.957   1.541  1.1878 -0.2784 -1.2643
  129MOL0     H17015   8.700   9.941   1.427  2.5170  3.7042  0.3216
  129MOL0     H17016   9.166   9.855   1.476 -1.3752  1.2647  0.0202
  129MOL0     H17017   9.398   9.872   1.400 -2.1128  0.5907  3.0857
  129MOL0     H17018   9.592   9.908   1.249  0.6271 -0.4740 -0.2746
  129MOL0     H17019   9.637  10.001   1.395 -0.8697  3.0262  0.3087
  129MOL0     H17020   9.717  10.089   1.115 -0.2142  0.6226  0.0113
  129MOL0     H17021   9.759  10.177   1.262  1.2917  1.0327 -0.7292
  129MOL0     H17022   9.856   9.904   1.208  0.3688  0.3056  0.0347
  129MOL0     H17023   9.877   9.987   1.362  3.1291  1.3387  0.3709
  129MOL0     H17024   9.966  10.156   1.128 -2.6565 -0.7006  0.6602
  129MOL0     H17025  10.051  10.106   1.277 -1.4333  0.5029  0.4845
  129MOL0     H17026  10.166   9.839   0.958 -2.5142 -3.3640 -0.2141
  129MOL0     H17027   9.326  10.248   1.225  1.9962  0.4616 -0.0189
  129MOL0     H17028   9.088  10.228   1.310 -0.8770 -2.3618  0.0952
  130MOL0     O17029   4.169   4.273   8.229 -0.4414 -0.2090  0.1055
  130MOL0     C17030   4.175   4.395   8.246  0.3855 -0.0613 -0.5135
  130MOL0     O17031   4.068   4.481   8.235  0.0512  0.6461 -0.3533
  130MOL0     C17032   3.936   4.429   8.217 -0.1104  1.0293 -0.1377
  130MOL0     C17033   3.839   4.485   8.135  0.4434  0.1288  1.0100
  130MOL0     C17034   3.710   4.437   8.126  0.3189 -0.1147 -0.2058
  130MOL0     C17035   3.662   4.340   8.222 -0.4326 -0.2968  0.6852
  130MOL0     O17036   3.532   4.296   8.207 -0.6712 -0.1658 -0.8229
  130MOL0     C17037   3.447   4.287   8.324  0.8008  0.5652 -0.0018
  130MOL0     C17038   3.416   4.139   8.345 -0.0926 -0.1401  0.2375
  130MOL0     C17039   3.351   4.074   8.231 -0.3557 -0.3851  0.9831
  130MOL0     C17040   3.277   3.945   8.268 -0.4924  0.1007 -0.3482
  130MOL0     C17041   3.194   3.904   8.152 -0.4496 -0.1301 -0.3500
  130MOL0     C17042   3.149   3.767   8.161  0.6957  0.3014  0.1505
  130MOL0     C17043   3.073   3.715   8.049 -0.6536  0.7587  0.8105
  130MOL0     C17044   2.929   3.770   8.031  0.5753  0.5067 -0.2885
  130MOL0     N17045   2.854   3.712   8.139  0.5979  1.0000  0.0597
  130MOL0     C17046   2.842   3.759   8.274 -0.0867 -0.2250  1.4093
  130MOL0     C17047   2.748   3.689   8.335 -0.1766  0.4148 -0.6197
  130MOL0     C17048   2.697   3.688   8.470  0.0459 -0.7571  1.2253
  130MOL0     C17049   2.567   3.766   8.475  1.2858 -0.3799 -0.2178
  130MOL0     C17050   2.527   3.792   8.622  0.5896 -0.9678 -0.3061
  130MOL0     C17051   2.444   3.682   8.696  0.2015 -0.1595 -0.0581
  130MOL0     O17052   2.347   3.620   8.601  0.5221  0.3564 -0.1905
  130MOL0     C17053   2.218   3.667   8.600  0.3307  0.3185  0.3459
  130MOL0     C17054   2.166   3.755   8.696  0.6260 -0.8436 -0.3645
  130MOL0     C17055   2.031   3.799   8.681 -0.5054  0.9354  0.2319
  130MOL0     C17056   1.940   3.739   8.590  0.5618 -0.2649 -0.2680
  130MOL0     C17057   1.799   3.778   8.598 -0.1711 -0.1614 -0.2814
  130MOL0     O17058   1.709   3.707   8.530  0.4956  0.1317  0.1288
  130MOL0     C17059   1.577   3.735   8.542 -0.3270 -0.4728  0.3003
  130MOL0     C17060   1.516   3.852   8.581  0.4083  0.0624 -1.3473
  130MOL0     C17061   1.373   3.867   8.593 -0.1177 -0.6085  0.4382
  130MOL0     C17062   1.287   3.770   8.545  0.5283  0.6177  0.4209
  130MOL0     O17063   1.154   3.793   8.555 -0.0144 -0.4170  0.4228
  130MOL0     C17064   1.066   3.711   8.472 -0.5140  0.1530 -0.1065
  130MOL0     C17065   0.934   3.789   8.451  0.0814  0.5990 -0.7913
  130MOL0     C17066   0.953   3.928   8.387 -0.4233  1.1075  0.5422
  130MOL0     C17067   0.825   3.998   8.333 -0.0481 -0.1103  0.1760
  130MOL0     C17068   0.765   3.927   8.208  0.1911 -0.6729 -0.4718
  130MOL0     C17069   0.669   4.013   8.125 -0.2755  0.2792 -0.8139
  130MOL0     C17070   0.533   4.005   8.205 -0.4496 -0.3791  0.5600
  130MOL0     C17071   0.429   4.086   8.125 -0.5076 -0.3302  0.1404
  130MOL0    Cl17072   0.381   4.009   7.973 -0.1125 -0.1285 -0.1228
  130MOL0     C17073   1.352   3.652   8.495  0.1928  0.2759  0.9379
  130MOL0     C17074   1.494   3.627   8.508  0.5639  0.3186  0.5110
  130MOL0     O17075   1.767   3.853   8.696 -0.4644 -0.3591  0.6289
  130MOL0     C17076   1.991   3.644   8.501  0.2329 -1.1683 -0.4937
  130MOL0     C17077   2.131   3.619   8.499 -0.3938 -0.0368  0.7314
  130MOL0     N17078   2.699   3.604   8.242  0.2351 -0.2202 -0.1309
  130MOL0     N17079   2.755   3.620   8.128  0.2311  0.3182  0.7534
  130MOL0     C17080   3.755   4.286   8.318 -0.0634  0.0175  0.0666
  130MOL0     C17081   3.888   4.330   8.305 -0.3544  0.1630 -0.3191
  130MOL0     C17082   4.308   4.452   8.289  0.6948 -0.4743 -0.2563
  130MOL0     C17083   4.316   4.582   8.337  0.2299 -0.1174  0.4987
  130MOL0     C17084   4.435   4.643   8.370 -1.3412  0.2853 -0.3539
  130MOL0     C17085   4.554   4.568   8.352 -0.1889  0.7820 -0.3333
  130MOL0     O17086   4.670   4.621   8.399 -0.8362 -0.3155  0.7865
  130MOL0     C17087   4.796   4.585   8.337 -0.4791  0.2778  1.5879
  130MOL0     C17088   4.903   4.693   8.365 -0.8498 -0.6321  0.2596
  130MOL0     C17089   5.032   4.653   8.296  0.1539  0.3025  0.5635
  130MOL0     C17090   5.154   4.738   8.318  0.7483  0.1792 -0.6408
  130MOL0     C17091   5.227   4.708   8.441  0.9297 -1.1390 -0.5441
  130MOL0     C17092   5.275   4.658   8.540 -0.0886 -1.7017 -0.4431
  130MOL0     C17093   4.554   4.435   8.306  0.1396 -0.1639 -0.6423
  130MOL0     C17094   4.430   4.382   8.273  0.5584 -0.4163 -0.1732
  130MOL0     H17095   3.860   4.557   8.056 -0.8300  2.0214  2.2970
  130MOL0     H17096   3.645   4.470   8.046  0.5640 -0.5538 -0.5931
  130MOL0     H17097   3.355   4.334   8.288  0.7926 -2.2587 -4.5817
  130MOL0     H17098   3.489   4.333   8.414  1.7494  0.9471 -0.6214
  130MOL0     H17099   3.351   4.136   8.433 -0.3432 -1.2547  0.0271
  130MOL0     H17100   3.507   4.082   8.370 -1.1981 -2.6113 -1.0308
  130MOL0     H17101   3.428   4.050   8.158  0.8955 -1.6242  2.6232
  130MOL0     H17102   3.271   4.137   8.190 -1.4745 -1.7078  1.0410
  130MOL0     H17103   3.356   3.869   8.271 -1.3251 -0.8315  2.8347
  130MOL0     H17104   3.213   3.954   8.356 -1.2394  2.0608 -1.0455
  130MOL0     H17105   3.242   3.911   8.054  1.9776 -3.1936  0.4723
  130MOL0     H17106   3.103   3.966   8.145 -0.8888 -0.8296 -1.0482
  130MOL0     H17107   3.098   3.759   8.258 -1.3310 -0.8406 -0.9248
  130MOL0     H17108   3.232   3.697   8.170 -1.2541 -1.8417  3.7127
  130MOL0     H17109   3.135   3.737   7.962  2.0669 -0.4233  2.3302
  130MOL0     H17110   3.065   3.606   8.051 -1.4008  0.6944 -1.8988
  130MOL0     H17111   2.896   3.735   7.933  2.2932 -2.7455  0.1397
  130MOL0     H17112   2.938   3.879   8.039  0.2678  0.5792 -0.9134
  130MOL0     H17113   2.902   3.834   8.325  6.0160 -2.0253 -2.1393
  130MOL0     H17114   2.769   3.741   8.533  0.2848 -1.3338  1.4458
  130MOL0     H17115   2.674   3.586   8.505 -0.0754 -2.5645 -3.3907
  130MOL0     H17116   2.486   3.710   8.428  0.5223 -1.4582  2.2113
  130MOL0     H17117   2.578   3.863   8.424  1.1246 -1.1885 -1.8474
  130MOL0     H17118   2.613   3.817   8.686  1.3159 -1.2531 -1.1538
  130MOL0     H17119   2.455   3.873   8.637 -0.3313 -1.8692  0.2661
  130MOL0     H17120   2.402   3.716   8.791 -0.6351 -2.7387  0.5749
  130MOL0     H17121   2.511   3.597   8.715  0.5068  0.8516  4.4631
  130MOL0     H17122   2.225   3.791   8.780 -0.3669 -1.5776  0.6761
  130MOL0     H17123   1.990   3.867   8.756 -1.6446 -2.0511  2.5406
  130MOL0     H17124   1.563   3.939   8.625 -1.8925  0.0731  1.3280
  130MOL0     H17125   1.334   3.953   8.647 -0.0754  0.7774 -1.6063
  130MOL0     H17126   1.049   3.618   8.528 -0.9778  1.9998  3.0788
  130MOL0     H17127   1.116   3.675   8.382  0.9043 -2.1011  1.4819
  130MOL0     H17128   0.889   3.804   8.550  2.3537 -0.2436  0.4447
  130MOL0     H17129   0.871   3.734   8.382  0.1852  0.0402 -0.4441
  130MOL0     H17130   1.028   3.929   8.308 -1.7188  3.5970 -0.7528
  130MOL0     H17131   0.992   3.998   8.462 -0.6719  0.9746  0.7990
  130MOL0     H17132   0.757   3.991   8.419  0.5858 -0.3089  0.6700
  130MOL0     H17133   0.854   4.104   8.332 -1.0116  0.1637  0.4914
  130MOL0     H17134   0.722   3.833   8.245 -0.3149  0.6146  2.4949
  130MOL0     H17135   0.849   3.906   8.141  1.4904 -0.1156  0.9192
  130MOL0     H17136   0.662   3.995   8.018  2.4655  0.1394 -1.0477
  130MOL0     H17137   0.714   4.112   8.137  2.8207 -1.0582 -0.3213
  130MOL0     H17138   0.510   3.898   8.208  0.5284 -0.5830  1.1390
  130MOL0     H17139   0.542   4.044   8.307  1.9708 -0.1169  0.2962
  130MOL0     H17140   0.481   4.179   8.103  0.9740 -1.0398  0.5167
  130MOL0     H17141   0.335   4.099   8.178  0.3994 -1.1773  2.0362
  130MOL0     H17142   1.286   3.572   8.462 -0.0749 -0.0128  2.1164
  130MOL0     H17143   1.525   3.523   8.506 -2.3197 -0.6348 -0.5127
  130MOL0     H17144   1.934   3.593   8.424 -0.3098 -1.0955 -0.1476
  130MOL0     H17145   2.174   3.557   8.421  0.1062  1.1234  0.0508
  130MOL0     H17146   3.723   4.212   8.390 -0.9857  2.0617  1.8624
  130MOL0     H17147   3.956   4.295   8.382  1.3165  2.3726 -0.6791
  130MOL0     H17148   4.220   4.633   8.332 -0.9665 -2.0089  2.6011
  130MOL0     H17149   4.435   4.731   8.434 -0.8203 -0.2516  0.3987
  130MOL0     H17150   4.789   4.570   8.229  0.3101  2.8155  1.1100
  130MOL0     H17151   4.827   4.490   8.379  2.0963  0.4644  0.2827
  130MOL0     H17152   4.873   4.796   8.341  1.2950 -0.2919 -1.2259
  130MOL0     H17153   4.919   4.694   8.473  2.3246 -0.8761 -0.1312
  130MOL0     H17154   5.002   4.660   8.191 -0.1448 -2.4901  0.3706
  130MOL0     H17155   5.055   4.552   8.331 -5.8810 -0.9856  2.0428
  130MOL0     H17156   5.210   4.726   8.224 -1.8652 -1.2187 -2.1291
  130MOL0     H17157   5.124   4.843   8.327  0.4666 -0.0664  1.6274
  130MOL0     H17158   5.333   4.636   8.627  1.5307  1.5134 -0.5752
  130MOL0     H17159   4.645   4.378   8.297  1.9474  2.3529  0.4311
  130MOL0     H17160   4.426   4.281   8.235  1.4836 -1.7796  2.9652
  131MOL0     O17161   5.221   7.108   2.138 -0.5668 -0.3040 -0.3880
  131MOL0     C17162   5.280   7.107   2.031 -0.3523  0.7086 -0.3913
  131MOL0     O17163   5.222   7.094   1.908 -0.0189 -0.0805  0.9673
  131MOL0     C17164   5.104   7.021   1.883 -0.3126 -0.4019  0.2264
  131MOL0     C17165   5.019   7.059   1.783 -1.2104 -0.0334  0.0213
  131MOL0     C17166   4.902   6.988   1.773  0.8505 -0.0272 -0.0021
  131MOL0     C17167   4.855   6.880   1.850 -0.2451  0.1220  0.6855
  131MOL0     O17168   4.721   6.839   1.838  0.9371  0.8374  0.3803
  131MOL0     C17169   4.657   6.764   1.935  0.2709 -0.1366 -0.0578
  131MOL0     C17170   4.505   6.767   1.936  0.3185  0.2391 -0.2673
  131MOL0     C17171   4.438   6.683   1.837 -0.2097 -0.3695  0.2530
  131MOL0     C17172   4.291   6.694   1.835 -1.2225 -0.3110  0.5709
  131MOL0     C17173   4.223   6.639   1.712  0.0404 -0.2937  0.5554
  131MOL0     C17174   4.264   6.703   1.584  0.2662 -0.4158  0.1353
  131MOL0     C17175   4.192   6.632   1.469  0.9014 -0.4292 -0.3874
  131MOL0     C17176   4.177   6.701   1.340 -0.3960 -0.0184  0.2100
  131MOL0     N17177   4.306   6.720   1.259  0.1291 -0.0393  0.4812
  131MOL0     C17178   4.370   6.618   1.183  0.7802 -0.4276 -1.2048
  131MOL0     C17179   4.494   6.672   1.166  0.0644 -0.3674  0.2355
  131MOL0     C17180   4.609   6.618   1.093  0.1217 -0.1829 -0.1714
  131MOL0     C17181   4.595   6.470   1.046  0.5843  0.4299  0.4671
  131MOL0     C17182   4.609   6.461   0.896  0.2347  1.2487 -0.4971
  131MOL0     C17183   4.626   6.306   0.850  0.5580 -0.6757 -0.8301
  131MOL0     O17184   4.638   6.304   0.710 -0.3743  0.4421 -0.2375
  131MOL0     C17185   4.771   6.313   0.661  0.3074 -0.0077 -0.8193
  131MOL0     C17186   4.772   6.325   0.528  0.1632  0.3805  0.2382
  131MOL0     C17187   4.888   6.322   0.454 -0.1600 -0.6145  0.5445
  131MOL0     C17188   5.013   6.322   0.511 -0.1115 -0.3731  0.0233
  131MOL0     C17189   5.133   6.322   0.432 -0.3728  1.2949  0.2177
  131MOL0     O17190   5.112   6.324   0.300 -0.8661 -0.4049 -0.4900
  131MOL0     C17191   5.213   6.326   0.206 -0.0806  0.0193 -0.1794
  131MOL0     C17192   5.178   6.306   0.070 -0.0371 -0.3108  0.1500
  131MOL0     C17193   5.276   6.297  -0.027  0.6647 -0.1489  0.1750
  131MOL0     C17194   5.412   6.294   0.000  0.2218 -0.0653  0.0892
  131MOL0     O17195   5.493   6.297  -0.111 -0.1893 -0.1679 -0.4614
  131MOL0     C17196   5.627   6.353  -0.100 -0.0829  0.4770 -0.0530
  131MOL0     C17197   5.681   6.389  -0.239 -0.5634  0.4819 -1.5293
  131MOL0     C17198   5.803   6.474  -0.223  0.3170 -0.2177  0.5241
  131MOL0     C17199   5.862   6.528  -0.357  0.7221 -0.4833 -0.7808
  131MOL0     C17200   5.988   6.624  -0.336  0.8672  0.4683  0.4519
  131MOL0     C17201   6.080   6.582  -0.223 -1.1158 -0.2369 -0.1213
  131MOL0     C17202   6.218   6.658  -0.223  0.2945 -0.3081 -0.0197
  131MOL0     C17203   6.321   6.585  -0.306  0.3867 -0.4501 -0.7032
  131MOL0    Cl17204   6.486   6.652  -0.301  0.0847 -0.2857 -0.2235
  131MOL0     C17205   5.449   6.302   0.135 -0.4771  0.5171  0.7518
  131MOL0     C17206   5.351   6.326   0.231 -0.1403 -0.6346 -0.3683
  131MOL0     O17207   5.237   6.316   0.486 -0.1735 -0.3927 -0.7725
  131MOL0     C17208   5.013   6.313   0.653 -0.5568  1.4356  0.3565
  131MOL0     C17209   4.895   6.312   0.730  0.4298  0.0032 -0.0401
  131MOL0     N17210   4.505   6.806   1.216  0.4717  0.0959  0.2110
  131MOL0     N17211   4.390   6.831   1.267 -0.3568 -0.1193  0.1447
  131MOL0     C17212   4.952   6.827   1.940 -0.6328  0.1107  0.6102
  131MOL0     C17213   5.072   6.902   1.963  0.2551 -0.5858  0.4831
  131MOL0     C17214   5.422   7.126   2.040  0.8371 -0.4468  0.0484
  131MOL0     C17215   5.495   7.124   2.161  0.8550  0.4454  0.1515
  131MOL0     C17216   5.630   7.111   2.171 -0.2437 -0.9230  0.1030
  131MOL0     C17217   5.709   7.125   2.060  0.5319 -0.2988 -0.2257
  131MOL0     O17218   5.850   7.116   2.078 -0.5354  0.0753  0.0870
  131MOL0     C17219   5.932   7.087   1.966 -0.6434 -0.2642  0.1907
  131MOL0     C17220   5.982   7.214   1.892 -0.1817  0.0433 -0.1946
  131MOL0     C17221   6.102   7.282   1.959 -0.0146 -0.2999  0.3644
  131MOL0     C17222   6.155   7.389   1.858 -0.2402 -0.1166 -0.3080
  131MOL0     C17223   6.278   7.451   1.902 -0.6331  0.4258  0.1356
  131MOL0     C17224   6.395   7.493   1.941  0.0399  0.0944  0.3054
  131MOL0     C17225   5.640   7.142   1.930 -0.2387 -0.4400 -0.2429
  131MOL0     C17226   5.499   7.149   1.923  0.3441  0.0476  0.2149
  131MOL0     H17227   5.049   7.134   1.711 -3.3771  0.9594  0.0836
  131MOL0     H17228   4.822   7.014   1.704  1.1219 -0.7492 -0.6034
  131MOL0     H17229   4.694   6.802   2.031  1.2432  0.6996 -0.7418
  131MOL0     H17230   4.687   6.659   1.932  1.7280  0.2166  1.2307
  131MOL0     H17231   4.471   6.870   1.923 -0.4658 -0.0232 -0.3184
  131MOL0     H17232   4.467   6.727   2.030  0.0002 -0.3655 -0.6429
  131MOL0     H17233   4.476   6.581   1.850 -0.9292 -0.7674 -0.6506
  131MOL0     H17234   4.482   6.727   1.747 -1.4895  2.7687  1.0204
  131MOL0     H17235   4.254   6.635   1.919 -1.2570  2.7240  2.8513
  131MOL0     H17236   4.260   6.797   1.854 -0.6269 -0.2448  1.2404
  131MOL0     H17237   4.114   6.635   1.725 -0.4647  1.0536 -2.3190
  131MOL0     H17238   4.262   6.537   1.709 -0.6201 -0.5645  0.9343
  131MOL0     H17239   4.371   6.691   1.564  0.3970  0.2334  0.4170
  131MOL0     H17240   4.230   6.807   1.578 -0.5264 -0.7222 -1.0479
  131MOL0     H17241   4.238   6.533   1.461  2.2602  0.2368 -1.1685
  131MOL0     H17242   4.086   6.619   1.493  1.1345 -1.3594  0.1887
  131MOL0     H17243   4.133   6.801   1.345  0.3245  0.2566  1.3712
  131MOL0     H17244   4.120   6.640   1.269  2.3493  1.8796 -4.0591
  131MOL0     H17245   4.330   6.523   1.150 -1.8857  0.2637 -0.2125
  131MOL0     H17246   4.686   6.615   1.170 -0.3519  1.3022  0.4065
  131MOL0     H17247   4.646   6.682   1.012 -1.3650 -3.9152 -4.1840
  131MOL0     H17248   4.496   6.431   1.074  1.5431 -2.2521  0.4484
  131MOL0     H17249   4.672   6.411   1.098  3.0679  2.2500 -0.9393
  131MOL0     H17250   4.529   6.503   0.835 -0.1897  0.3177 -0.6049
  131MOL0     H17251   4.699   6.514   0.865  0.8911  0.6074  0.2600
  131MOL0     H17252   4.526   6.265   0.869 -0.3564  1.5337 -0.5484
  131MOL0     H17253   4.710   6.268   0.908  1.3839  1.6894 -0.3686
  131MOL0     H17254   4.677   6.320   0.475 -0.9469 -3.4690  2.2245
  131MOL0     H17255   4.878   6.322   0.345  1.1222  2.7864  0.2895
  131MOL0     H17256   5.072   6.312   0.049 -0.1842  1.1534  1.1520
  131MOL0     H17257   5.252   6.305  -0.133  1.0678 -2.4161 -0.1260
  131MOL0     H17258   5.695   6.296  -0.036  0.7170  1.5896  0.1224
  131MOL0     H17259   5.615   6.442  -0.038  0.3631  1.5444 -1.4554
  131MOL0     H17260   5.621   6.448  -0.308  2.9349  2.3260 -3.2473
  131MOL0     H17261   5.699   6.296  -0.292 -1.8658 -1.1094  0.6391
  131MOL0     H17262   5.878   6.409  -0.178 -0.1416 -0.3439  1.1017
  131MOL0     H17263   5.781   6.559  -0.158 -0.6073  1.2744 -1.6186
  131MOL0     H17264   5.888   6.442  -0.419  0.9840 -0.2995 -0.9277
  131MOL0     H17265   5.787   6.582  -0.417  2.9276  3.6491 -0.2001
  131MOL0     H17266   5.968   6.730  -0.322 -1.2671  0.2767 -0.7729
  131MOL0     H17267   6.038   6.606  -0.432 -2.7630 -2.5302 -1.1473
  131MOL0     H17268   6.095   6.474  -0.215 -0.3743 -0.2719 -1.7491
  131MOL0     H17269   6.034   6.594  -0.124  0.0992 -4.0581  1.0971
  131MOL0     H17270   6.210   6.760  -0.261 -0.7775 -0.5311 -0.4435
  131MOL0     H17271   6.245   6.665  -0.118  0.0319 -1.6060  0.1531
  131MOL0     H17272   6.293   6.573  -0.411 -1.5391 -1.0409 -0.1737
  131MOL0     H17273   6.328   6.486  -0.261  0.9964  0.6977  1.9452
  131MOL0     H17274   5.552   6.297   0.168 -1.2473 -1.9955  3.0720
  131MOL0     H17275   5.407   6.353   0.320  1.7018  0.6405 -1.8350
  131MOL0     H17276   5.108   6.310   0.705 -0.1292  3.0466 -0.2669
  131MOL0     H17277   4.892   6.299   0.837 -1.0442 -1.0200 -0.1634
  131MOL0     H17278   4.941   6.728   1.983  0.3113  0.1234  0.9102
  131MOL0     H17279   5.143   6.859   2.034  0.1444  1.6969  2.0677
  131MOL0     H17280   5.436   7.112   2.252 -0.4545 -0.9635 -0.8209
  131MOL0     H17281   5.669   7.085   2.269  0.7794 -0.6119 -0.2068
  131MOL0     H17282   5.876   7.027   1.894  2.3750 -1.2721 -1.4652
  131MOL0     H17283   6.022   7.033   1.996 -1.6798 -1.4959  1.1603
  131MOL0     H17284   6.024   7.179   1.797 -0.0705 -2.1186  0.5977
  131MOL0     H17285   5.905   7.290   1.874  0.3363  1.8413  4.0426
  131MOL0     H17286   6.187   7.212   1.957  0.1415 -0.3575 -4.8804
  131MOL0     H17287   6.079   7.317   2.060  2.3498  1.2071  0.4639
  131MOL0     H17288   6.176   7.340   1.762 -0.7870  0.2983 -0.6460
  131MOL0     H17289   6.088   7.475   1.859  0.4013  0.4174 -1.4169
  131MOL0     H17290   6.491   7.501   1.988 -0.0681 -3.2277  1.3876
  131MOL0     H17291   5.706   7.159   1.846  4.1183 -0.4435  2.8197
  131MOL0     H17292   5.436   7.175   1.838 -2.8089 -0.9809  2.0943
  132MOL0     O17293  10.698   0.165   3.045  0.1990  0.0820 -0.3684
  132MOL0     C17294  10.730   0.203   2.929 -0.5136 -0.1592 -0.2480
  132MOL0     O17295  10.660   0.281   2.849 -0.6757  0.2643  0.0356
  132MOL0     C17296  10.538   0.310   2.904 -0.9618 -0.1207  0.3066
  132MOL0     C17297  10.424   0.231   2.873  0.2076  0.0153 -0.1423
  132MOL0     C17298  10.301   0.247   2.923  0.0194  0.3316 -0.6583
  132MOL0     C17299  10.279   0.363   2.999 -0.2360 -0.0009 -0.6612
  132MOL0     O17300  10.151   0.400   3.032 -0.8968  0.1984 -0.0205
  132MOL0     C17301  10.041   0.311   3.029  0.7532  0.0958  0.8489
  132MOL0     C17302   9.909   0.389   3.078 -0.6318  0.0227 -0.3033
  132MOL0     C17303   9.779   0.325   3.030 -0.1494 -0.3321  0.0350
  132MOL0     C17304   9.652   0.396   3.053 -0.1813  0.1299 -0.3244
  132MOL0     C17305   9.619   0.425   3.200  0.6015  0.2958 -0.1928
  132MOL0     C17306   9.642   0.320   3.299  0.8942  0.7281  0.0224
  132MOL0     C17307   9.590   0.349   3.438  0.3014  0.2800  0.7338
  132MOL0     C17308   9.595   0.227   3.537 -0.0454 -0.7357 -0.0480
  132MOL0     N17309   9.727   0.190   3.585  0.8371  0.1413 -0.1421
  132MOL0     C17310   9.851   0.253   3.577  0.6171 -0.4171 -0.2350
  132MOL0     C17311   9.941   0.168   3.628 -0.4168 -0.6789  0.2750
  132MOL0     C17312  10.089   0.189   3.619 -0.3861 -0.5846  0.5610
  132MOL0     C17313  10.157   0.100   3.511  0.3565  0.6714 -0.4100
  132MOL0     C17314  10.151   0.171   3.374 -0.0564 -0.3916 -0.2283
  132MOL0     C17315  10.242   0.110   3.273 -0.4992  0.2212  0.3947
  132MOL0     O17316  10.211  -0.018   3.235  0.4953 -0.1042  0.0406
  132MOL0     C17317  10.303  -0.098   3.177  0.5944  0.1854  0.4178
  132MOL0     C17318  10.270  -0.238   3.173 -0.0838  0.1561  0.6588
  132MOL0     C17319  10.357  -0.320   3.103 -0.9548  0.0083  0.1981
  132MOL0     C17320  10.470  -0.267   3.036  0.3514 -0.2313 -0.6830
  132MOL0     C17321  10.564  -0.365   2.965 -1.1239  0.0791 -0.0727
  132MOL0     O17322  10.673  -0.304   2.894  0.1332  0.1620 -0.7696
  132MOL0     C17323  10.769  -0.377   2.828 -0.0727  0.1457 -0.2797
  132MOL0     C17324  10.839  -0.296   2.740 -0.2668  0.1405 -0.0689
  132MOL0     C17325  10.948  -0.356   2.672 -0.6384  0.7357 -0.1151
  132MOL0     C17326  10.991  -0.485   2.704 -0.3248 -0.3435  0.1244
  132MOL0     O17327  11.108  -0.537   2.641 -0.1222  0.2362  0.4331
  132MOL0     C17328  11.231  -0.466   2.648 -0.1273 -0.0659 -0.0670
  132MOL0     C17329  11.342  -0.565   2.597  0.3981  0.7699 -0.0573
  132MOL0     C17330  11.474  -0.479   2.599  0.0947 -0.2995  0.0278
  132MOL0     C17331  11.600  -0.559   2.565  0.1426 -0.6974  1.1428
  132MOL0     C17332  11.720  -0.473   2.532 -0.4656  0.2795  0.1781
  132MOL0     C17333  11.825  -0.565   2.452  0.5223  0.2205 -0.5141
  132MOL0     C17334  11.947  -0.477   2.440  0.7771 -0.2133  0.4970
  132MOL0     C17335  12.053  -0.539   2.360 -0.9198 -0.0427 -0.9129
  132MOL0    Cl17336  12.204  -0.450   2.404  0.2327 -0.1764  0.2107
  132MOL0     C17337  10.921  -0.563   2.796  0.5030  0.4592  1.1059
  132MOL0     C17338  10.808  -0.509   2.857 -0.6668 -0.0352 -0.1858
  132MOL0     O17339  10.527  -0.480   2.947  0.1662  0.2370 -0.0506
  132MOL0     C17340  10.494  -0.133   3.032  0.3851  0.5626  0.0949
  132MOL0     C17341  10.413  -0.043   3.104 -0.7043 -0.5988  0.1985
  132MOL0     N17342   9.878   0.062   3.680 -0.5006  0.3736  0.3471
  132MOL0     N17343   9.756   0.073   3.648  0.7211  0.4185 -0.4798
  132MOL0     C17344  10.392   0.440   3.038 -0.2540  0.1012  0.1842
  132MOL0     C17345  10.518   0.415   2.985  0.2549  0.2687  0.1918
  132MOL0     C17346  10.851   0.140   2.856  0.2589  0.1824 -0.3082
  132MOL0     C17347  10.927   0.041   2.924 -0.9054 -0.7698  0.7608
  132MOL0     C17348  11.031  -0.020   2.850  0.3210 -0.1260  0.3583
  132MOL0     C17349  11.057   0.014   2.720 -0.0582  0.0509  0.6776
  132MOL0     O17350  11.160  -0.057   2.656 -0.1212 -0.6484 -1.0003
  132MOL0     C17351  11.170  -0.051   2.513 -0.3280  0.2036  0.1821
  132MOL0     C17352  11.320  -0.081   2.483  0.0976  0.0992 -0.7730
  132MOL0     C17353  11.342  -0.161   2.349  0.3498 -0.3530 -0.2435
  132MOL0     C17354  11.487  -0.133   2.293 -0.2061  0.9977  0.1019
  132MOL0     C17355  11.511  -0.205   2.167  0.1682 -0.5336 -0.0384
  132MOL0     C17356  11.512  -0.252   2.056  0.0095 -0.2726 -0.3009
  132MOL0     C17357  10.978   0.109   2.657  0.2619 -0.6628 -0.1609
  132MOL0     C17358  10.881   0.176   2.726 -0.3361 -0.0709  0.1887
  132MOL0     H17359  10.453   0.151   2.805 -1.0459  1.8853 -3.0575
  132MOL0     H17360  10.225   0.177   2.889  0.7384  0.8937 -3.7608
  132MOL0     H17361  10.044   0.226   3.098 -3.2986 -1.6107 -0.7633
  132MOL0     H17362  10.015   0.281   2.927  3.4641  3.6107 -1.0688
  132MOL0     H17363   9.911   0.494   3.046 -3.6972  1.2276  2.7992
  132MOL0     H17364   9.910   0.407   3.186 -1.4115  0.5579 -0.3802
  132MOL0     H17365   9.783   0.232   3.087  1.7336  1.9028  3.9800
  132MOL0     H17366   9.771   0.300   2.924  1.1853  0.4227 -0.2750
  132MOL0     H17367   9.644   0.491   2.998 -1.6985  0.4177  0.3437
  132MOL0     H17368   9.571   0.331   3.018  1.4958 -3.0433  1.2686
  132MOL0     H17369   9.514   0.455   3.199  0.7476  0.8312  0.1233
  132MOL0     H17370   9.678   0.509   3.238 -0.4035  0.9965 -0.1331
  132MOL0     H17371   9.751   0.306   3.301  0.8195 -0.3473 -1.3525
  132MOL0     H17372   9.591   0.235   3.251  0.2351  1.4485 -0.5709
  132MOL0     H17373   9.633   0.444   3.471  0.6521 -0.6996  3.3593
  132MOL0     H17374   9.482   0.363   3.428  0.3414  0.5464  0.6495
  132MOL0     H17375   9.538   0.146   3.489 -2.6209  1.4651 -0.9203
  132MOL0     H17376   9.549   0.262   3.629 -2.6262 -2.0841 -0.7118
  132MOL0     H17377   9.871   0.355   3.545  1.3822  0.1397  1.8069
  132MOL0     H17378  10.125   0.151   3.715  1.1666 -0.0638  0.2068
  132MOL0     H17379  10.115   0.294   3.607  2.1964 -1.2891 -0.7060
  132MOL0     H17380  10.097   0.009   3.518  1.4374  0.0205  1.1333
  132MOL0     H17381  10.261   0.080   3.540  0.0087 -0.7106 -0.0348
  132MOL0     H17382  10.047   0.150   3.347 -1.4124  2.2380  2.3704
  132MOL0     H17383  10.171   0.278   3.385  2.9325 -0.9458  0.6611
  132MOL0     H17384  10.338   0.109   3.325  0.0686  0.8148 -0.6202
  132MOL0     H17385  10.251   0.171   3.182 -1.3864 -0.8755 -0.4579
  132MOL0     H17386  10.169  -0.253   3.211 -1.4427  1.7093 -2.1132
  132MOL0     H17387  10.335  -0.426   3.100  0.9485 -0.4156 -1.7040
  132MOL0     H17388  10.807  -0.198   2.706  2.2724  0.6998 -1.1039
  132MOL0     H17389  11.007  -0.310   2.594 -1.0237 -1.4921 -1.8501
  132MOL0     H17390  11.258  -0.429   2.748 -1.5538  1.9811 -0.3823
  132MOL0     H17391  11.224  -0.374   2.590 -2.1583  0.7270  1.3081
  132MOL0     H17392  11.319  -0.607   2.499 -0.4801 -1.4515  1.0348
  132MOL0     H17393  11.347  -0.647   2.669  2.0167  0.3077 -0.6515
  132MOL0     H17394  11.475  -0.440   2.701 -0.5352  1.7274 -0.6912
  132MOL0     H17395  11.453  -0.395   2.532  0.4493  1.1342  1.6411
  132MOL0     H17396  11.620  -0.625   2.650  1.4809 -1.0923  0.5428
  132MOL0     H17397  11.586  -0.625   2.479  2.9083  1.0976 -0.8687
  132MOL0     H17398  11.765  -0.433   2.624  1.1441 -0.5740 -0.1860
  132MOL0     H17399  11.694  -0.388   2.468  0.4252  0.6498  0.2827
  132MOL0     H17400  11.792  -0.578   2.348 -0.8627 -0.8300  0.0277
  132MOL0     H17401  11.848  -0.663   2.494  1.3118  0.7624  0.3478
  132MOL0     H17402  11.915  -0.382   2.397 -0.0482 -0.3949  0.6839
  132MOL0     H17403  11.984  -0.466   2.542  3.0064  0.0676 -0.2862
  132MOL0     H17404  12.034  -0.528   2.253  0.2909  3.2213 -0.9020
  132MOL0     H17405  12.056  -0.645   2.388 -1.5243 -0.6280 -2.9072
  132MOL0     H17406  10.951  -0.666   2.813 -0.1357 -0.2286 -1.4876
  132MOL0     H17407  10.743  -0.568   2.921 -1.5649 -1.4178 -2.2341
  132MOL0     H17408  10.583  -0.104   2.977  0.5306 -3.5047 -2.1862
  132MOL0     H17409  10.440   0.062   3.097 -2.4733 -0.1185  0.0423
  132MOL0     H17410  10.374   0.523   3.106  1.2375  0.6537 -0.0646
  132MOL0     H17411  10.594   0.487   3.013 -0.0000  1.1132 -1.1940
  132MOL0     H17412  10.903   0.006   3.023 -0.2004 -1.6296  0.6410
  132MOL0     H17413  11.095  -0.090   2.903 -2.4301 -1.7694  1.7375
  132MOL0     H17414  11.140   0.039   2.458 -1.5370 -0.7242 -0.7505
  132MOL0     H17415  11.108  -0.131   2.472 -0.0192 -0.7623  1.5461
  132MOL0     H17416  11.362   0.020   2.475  2.6560 -0.6840  1.3303
  132MOL0     H17417  11.369  -0.142   2.559  0.2018  0.3293 -0.6562
  132MOL0     H17418  11.281  -0.120   2.268  1.5922 -0.2101 -1.1368
  132MOL0     H17419  11.332  -0.268   2.370  1.3686 -0.3694  0.2208
  132MOL0     H17420  11.505  -0.025   2.284 -1.0934  1.2317  0.9063
  132MOL0     H17421  11.558  -0.171   2.368  0.6947  1.7558 -0.3429
  132MOL0     H17422  11.525  -0.282   1.954  2.5881 -0.5394  0.0390
  132MOL0     H17423  11.004   0.151   2.560  2.3829 -3.9615 -1.1956
  132MOL0     H17424  10.834   0.260   2.676  1.6162  1.3554  0.6168
  133MOL0     O17425   5.111   4.777   7.408 -0.8897 -0.0671 -0.4090
  133MOL0     C17426   5.152   4.868   7.333 -0.1807  0.2551  0.4638
  133MOL0     O17427   5.084   4.900   7.221 -0.5003  0.3709  0.1602
  133MOL0     C17428   4.958   4.847   7.200  0.0995  0.1896 -0.8381
  133MOL0     C17429   4.932   4.786   7.079 -0.5501 -0.0041  0.1886
  133MOL0     C17430   4.806   4.723   7.055 -0.8764 -1.0155  0.5666
  133MOL0     C17431   4.708   4.736   7.153 -0.5125  0.7396 -1.1549
  133MOL0     O17432   4.585   4.684   7.118  0.7709 -0.5316 -0.2539
  133MOL0     C17433   4.480   4.651   7.212  0.1546 -0.0457 -0.0935
  133MOL0     C17434   4.358   4.608   7.136 -0.3608  1.0121 -0.4445
  133MOL0     C17435   4.278   4.709   7.052 -0.5752 -0.0609 -0.3968
  133MOL0     C17436   4.200   4.813   7.128 -0.3634 -0.2337 -0.6012
  133MOL0     C17437   4.106   4.899   7.038 -0.1745  0.0443  0.6485
  133MOL0     C17438   4.059   5.024   7.109  0.3005 -0.3770 -0.4918
  133MOL0     C17439   3.961   5.101   7.021 -0.1340 -0.0454  0.3824
  133MOL0     C17440   3.942   5.251   7.062  0.5855 -0.5117 -0.0354
  133MOL0     N17441   3.874   5.333   6.961 -0.0963  0.6234  0.1804
  133MOL0     C17442   3.912   5.454   6.903  0.5194  0.4361  0.1454
  133MOL0     C17443   3.827   5.469   6.798  0.5212 -0.5208 -0.0919
  133MOL0     C17444   3.841   5.594   6.714 -0.0842  0.1575  0.4255
  133MOL0     C17445   3.930   5.572   6.585 -0.3050  0.3160  0.0734
  133MOL0     C17446   4.022   5.692   6.564 -0.3736  0.7916 -0.0869
  133MOL0     C17447   4.122   5.654   6.450 -0.3525  0.0244 -0.0993
  133MOL0     O17448   4.230   5.747   6.435 -0.1315  0.2048 -0.2107
  133MOL0     C17449   4.333   5.720   6.351 -0.2365 -0.0578 -0.3427
  133MOL0     C17450   4.390   5.839   6.287  0.0517 -0.3265 -0.3133
  133MOL0     C17451   4.496   5.832   6.197 -0.7593  1.3129  0.4901
  133MOL0     C17452   4.542   5.706   6.157 -0.2126 -0.0091  0.1669
  133MOL0     C17453   4.648   5.694   6.060  0.1158 -0.0018 -0.7476
  133MOL0     O17454   4.701   5.573   6.039  0.0751  0.0809  0.0402
  133MOL0     C17455   4.817   5.561   5.962  0.2638  0.7344 -0.3056
  133MOL0     C17456   4.947   5.571   6.029  0.1036  0.2612  0.4577
  133MOL0     C17457   5.063   5.556   5.946  0.0281 -0.9100 -0.0191
  133MOL0     C17458   5.051   5.551   5.803  0.4966 -0.7030 -0.1167
  133MOL0     O17459   5.154   5.560   5.712  0.2205  0.2882 -0.2457
  133MOL0     C17460   5.284   5.605   5.754  0.3491 -0.1077 -0.7141
  133MOL0     C17461   5.374   5.602   5.635 -0.7464 -0.1509  0.5385
  133MOL0     C17462   5.520   5.649   5.678  0.7902  0.0725  0.3921
  133MOL0     C17463   5.614   5.651   5.548  0.4171  0.1570  0.4391
  133MOL0     C17464   5.761   5.635   5.598 -0.1212 -0.2808  0.1804
  133MOL0     C17465   5.858   5.636   5.475  0.3851 -0.1464  0.5219
  133MOL0     C17466   6.003   5.641   5.522  0.5543  0.2247  0.1217
  133MOL0     C17467   6.094   5.613   5.400  0.6438 -0.0126 -0.1926
  133MOL0    Cl17468   6.259   5.652   5.460 -0.2784  0.0106 -0.1599
  133MOL0     C17469   4.932   5.546   5.745  0.5446  0.7699 -0.2206
  133MOL0     C17470   4.813   5.559   5.825  0.2120 -0.1972  0.2433
  133MOL0     O17471   4.684   5.800   6.001  0.5631 -0.0041  0.6738
  133MOL0     C17472   4.489   5.594   6.230 -0.5161 -0.2741  0.1193
  133MOL0     C17473   4.391   5.599   6.326 -0.1593  0.1676 -0.7381
  133MOL0     N17474   3.740   5.363   6.797 -0.1977 -0.0206 -1.0525
  133MOL0     N17475   3.774   5.281   6.892  0.6114 -1.1116 -0.7349
  133MOL0     C17476   4.724   4.806   7.268 -0.3334 -0.8194  0.1085
  133MOL0     C17477   4.851   4.867   7.288  0.0600  0.4352  0.2414
  133MOL0     C17478   5.294   4.903   7.345  0.2560 -0.0267  0.2164
  133MOL0     C17479   5.371   4.955   7.237  0.5384 -0.3097  1.3971
  133MOL0     C17480   5.505   5.003   7.256 -0.3132  0.5190  0.1568
  133MOL0     C17481   5.576   4.964   7.368  0.1646  0.5517  0.3727
  133MOL0     O17482   5.711   4.997   7.379 -0.1595  0.0653  0.5833
  133MOL0     C17483   5.780   4.938   7.484 -0.2546 -0.0437  0.2266
  133MOL0     C17484   5.935   4.937   7.449 -0.3610  0.6849  0.1834
  133MOL0     C17485   6.004   4.835   7.534  0.4980  0.5834  0.2318
  133MOL0     C17486   6.158   4.866   7.535  0.6382 -0.4064 -1.0411
  133MOL0     C17487   6.228   4.878   7.409 -0.3993  1.0201  0.0009
  133MOL0     C17488   6.284   4.894   7.304  0.0289  0.0831 -0.1862
  133MOL0     C17489   5.501   4.894   7.465  0.6141 -0.2357  0.2001
  133MOL0     C17490   5.363   4.869   7.463  0.0746  0.0413  0.2362
  133MOL0     H17491   5.007   4.785   7.001 -1.0452 -0.5620 -0.2959
  133MOL0     H17492   4.781   4.675   6.961  0.1799  1.3293 -1.0246
  133MOL0     H17493   4.453   4.739   7.270 -4.2002 -0.6074 -0.9510
  133MOL0     H17494   4.503   4.569   7.280 -0.5186  0.7293  1.0937
  133MOL0     H17495   4.289   4.563   7.208 -0.3859  1.2919 -0.2919
  133MOL0     H17496   4.391   4.538   7.059  1.3824  3.5044 -2.1005
  133MOL0     H17497   4.210   4.648   6.992 -4.1564  0.6325  2.5960
  133MOL0     H17498   4.345   4.760   6.981 -1.0901  2.1275  0.5872
  133MOL0     H17499   4.149   4.764   7.212  1.5561 -0.7882  0.3047
  133MOL0     H17500   4.268   4.888   7.169 -1.5295  0.9499 -0.7799
  133MOL0     H17501   4.017   4.839   7.017  1.4788 -3.1411  2.0293
  133MOL0     H17502   4.156   4.933   6.947 -0.3889  0.1193  0.5563
  133MOL0     H17503   4.141   5.092   7.135 -0.5756  1.4702 -2.2480
  133MOL0     H17504   4.005   5.001   7.201  0.3789 -0.0866 -0.3720
  133MOL0     H17505   3.985   5.098   6.914 -1.5230 -0.9750  0.0715
  133MOL0     H17506   3.864   5.049   7.021  0.3763 -1.1058 -1.5567
  133MOL0     H17507   4.037   5.297   7.091 -0.8551  0.8565  2.9577
  133MOL0     H17508   3.891   5.259   7.158  2.0531  0.1533  0.7239
  133MOL0     H17509   3.999   5.516   6.923  0.2447  0.3949  1.5314
  133MOL0     H17510   3.894   5.668   6.775  0.0963  1.4005 -1.1699
  133MOL0     H17511   3.745   5.637   6.685 -0.7486 -0.6016  1.4003
  133MOL0     H17512   3.871   5.552   6.495  0.3935  0.8969 -0.5184
  133MOL0     H17513   3.990   5.482   6.597 -1.8103 -0.6813  0.4873
  133MOL0     H17514   3.965   5.779   6.530 -0.3184  1.3102  1.1001
  133MOL0     H17515   4.081   5.716   6.653  3.1206 -1.3456 -1.5933
  133MOL0     H17516   4.077   5.657   6.350 -0.9527 -0.5409  0.1446
  133MOL0     H17517   4.150   5.550   6.469 -3.0155 -0.9291 -0.8860
  133MOL0     H17518   4.337   5.930   6.312 -1.8794 -0.9167 -1.9336
  133MOL0     H17519   4.535   5.923   6.152  2.6598 -0.2316  0.0604
  133MOL0     H17520   4.955   5.603   6.132 -1.9149  0.6566  0.5304
  133MOL0     H17521   5.156   5.563   6.001  0.0089  2.4980 -0.1882
  133MOL0     H17522   5.324   5.533   5.826 -3.6398 -1.4830  0.4260
  133MOL0     H17523   5.288   5.708   5.792 -1.9952 -0.4374  0.6283
  133MOL0     H17524   5.333   5.669   5.559 -0.1060  0.0465  0.3651
  133MOL0     H17525   5.378   5.499   5.597 -0.1900 -0.9104  2.5256
  133MOL0     H17526   5.550   5.574   5.751 -0.2259 -1.8069 -1.0101
  133MOL0     H17527   5.512   5.748   5.722 -1.6218 -0.8260  2.1882
  133MOL0     H17528   5.588   5.572   5.478 -0.1018 -1.6452  2.5620
  133MOL0     H17529   5.591   5.744   5.495  0.0246 -0.2582 -0.1244
  133MOL0     H17530   5.773   5.545   5.659 -3.4519 -1.4229 -0.6346
  133MOL0     H17531   5.789   5.719   5.663  1.5574 -0.2298 -0.5535
  133MOL0     H17532   5.829   5.723   5.415  0.1221 -2.0828 -2.3408
  133MOL0     H17533   5.845   5.553   5.406  3.1984 -1.1945  1.1263
  133MOL0     H17534   6.016   5.742   5.562  0.1529 -0.5999  2.4456
  133MOL0     H17535   6.033   5.566   5.595  3.1497 -1.5040 -2.4470
  133MOL0     H17536   6.070   5.675   5.313 -2.9966 -1.5111 -0.4410
  133MOL0     H17537   6.086   5.509   5.366  1.9513 -0.6571  1.3711
  133MOL0     H17538   4.925   5.533   5.637 -0.0814  0.9232 -0.2023
  133MOL0     H17539   4.714   5.567   5.783  1.2451 -0.9002 -2.5148
  133MOL0     H17540   4.529   5.494   6.213 -1.2316 -0.6585  0.6538
  133MOL0     H17541   4.351   5.509   6.373  0.6711 -0.7243 -1.6692
  133MOL0     H17542   4.646   4.811   7.344  1.5232 -0.4661  2.0755
  133MOL0     H17543   4.867   4.918   7.382  0.5096  1.0004 -0.1299
  133MOL0     H17544   5.320   4.988   7.147 -0.1396  1.1148  2.2589
  133MOL0     H17545   5.557   5.061   7.181  1.9011 -2.0995 -0.5279
  133MOL0     H17546   5.749   4.836   7.507 -0.4917  0.0438  0.3071
  133MOL0     H17547   5.750   4.988   7.577 -0.7032 -0.1276  0.1299
  133MOL0     H17548   5.948   4.902   7.346 -0.6860  0.6962  0.1397
  133MOL0     H17549   5.968   5.040   7.462 -0.3711  0.3596  3.5723
  133MOL0     H17550   5.981   4.733   7.501 -1.7143  1.4868 -1.2833
  133MOL0     H17551   5.974   4.846   7.638  1.5216 -0.2445  0.6475
  133MOL0     H17552   6.168   4.963   7.585 -3.3481 -0.0080 -0.7174
  133MOL0     H17553   6.216   4.797   7.598  2.6506  1.3156 -0.8771
  133MOL0     H17554   6.334   4.906   7.210 -1.4371  0.5267 -0.9426
  133MOL0     H17555   5.546   4.872   7.561 -0.4129  1.6882  1.2042
  133MOL0     H17556   5.331   4.823   7.556 -0.0232 -2.2919 -0.9029
  134MOL0     O17557   5.432   4.852   5.189  0.3342  0.1231  0.7343
  134MOL0     C17558   5.515   4.894   5.111 -0.0965  0.4786 -0.7047
  134MOL0     O17559   5.577   4.823   5.011 -0.0591 -0.0047  0.0009
  134MOL0     C17560   5.533   4.696   4.985 -0.1346 -0.7472  1.4096
  134MOL0     C17561   5.606   4.591   5.042  0.3746 -0.2125  0.0259
  134MOL0     C17562   5.556   4.464   5.015 -0.4297 -0.2459 -0.1355
  134MOL0     C17563   5.443   4.440   4.932  0.7493 -0.5783  0.1789
  134MOL0     O17564   5.390   4.314   4.900 -0.2141 -0.2843  0.1139
  134MOL0     C17565   5.427   4.268   4.770 -0.1763 -0.1793 -0.3991
  134MOL0     C17566   5.570   4.209   4.768 -0.3265 -0.3965  0.4097
  134MOL0     C17567   5.577   4.100   4.876  0.0944  0.7395  0.7080
  134MOL0     C17568   5.721   4.050   4.903 -0.9231 -0.1642  0.3569
  134MOL0     C17569   5.776   3.978   4.771 -1.0293 -0.6483  0.8963
  134MOL0     C17570   5.914   3.907   4.804  0.0091  0.9268  0.4297
  134MOL0     C17571   5.979   3.856   4.682 -0.2077  0.1938  0.6151
  134MOL0     C17572   6.089   3.750   4.699  0.6633  0.0971 -0.5544
  134MOL0     N17573   6.213   3.779   4.628 -1.1151  1.0340  0.2405
  134MOL0     C17574   6.333   3.730   4.666  0.0328  0.2213 -0.2594
  134MOL0     C17575   6.420   3.759   4.569 -0.3568 -0.2949  0.5766
  134MOL0     C17576   6.569   3.722   4.567  0.2919  0.3904  0.2194
  134MOL0     C17577   6.653   3.790   4.675 -0.1155 -0.1293 -0.2235
  134MOL0     C17578   6.813   3.775   4.664 -0.1805 -0.2211 -0.8954
  134MOL0     C17579   6.863   3.643   4.722 -0.3369  0.0461 -0.0363
  134MOL0     O17580   6.997   3.668   4.775 -0.1572 -0.2254  0.0355
  134MOL0     C17581   7.104   3.634   4.701 -0.4626 -0.2441  0.6564
  134MOL0     C17582   7.228   3.671   4.748 -0.4224 -0.7455 -1.5443
  134MOL0     C17583   7.349   3.631   4.689  0.3987  0.3165 -0.5940
  134MOL0     C17584   7.342   3.556   4.567 -0.3139  0.1448  0.0955
  134MOL0     C17585   7.469   3.515   4.501 -0.3799 -0.3323  0.7977
  134MOL0     O17586   7.583   3.573   4.538  0.1450 -0.0965 -0.5300
  134MOL0     C17587   7.700   3.516   4.500  0.1242  0.4307  0.0665
  134MOL0     C17588   7.734   3.498   4.359 -0.1883  0.0806 -0.8170
  134MOL0     C17589   7.854   3.452   4.309  0.0852 -0.4262 -0.0900
  134MOL0     C17590   7.939   3.393   4.400  0.4771 -0.6023  0.2311
  134MOL0     O17591   8.046   3.313   4.355  0.4174 -0.0152  0.4965
  134MOL0     C17592   8.143   3.378   4.277  0.6113 -0.2190 -0.2361
  134MOL0     C17593   8.258   3.283   4.272  0.5972 -0.4997 -0.1918
  134MOL0     C17594   8.382   3.355   4.223  0.5818  0.2880 -0.0146
  134MOL0     C17595   8.494   3.248   4.224 -0.5380 -0.2426 -0.5730
  134MOL0     C17596   8.628   3.309   4.183  0.0586  0.2149 -0.1786
  134MOL0     C17597   8.729   3.198   4.142  0.3135  0.2502 -0.3334
  134MOL0     C17598   8.839   3.271   4.055 -0.0653  1.1429  0.3340
  134MOL0     C17599   8.969   3.190   4.048  0.6169 -0.1221  0.0399
  134MOL0    Cl17600   9.038   3.216   4.211 -0.6401  0.0616 -0.3271
  134MOL0     C17601   7.903   3.401   4.532 -0.3029 -0.2473 -0.4979
  134MOL0     C17602   7.792   3.479   4.588 -1.0754  0.1972  0.5313
  134MOL0     O17603   7.471   3.416   4.427  0.0377  0.1135 -0.7243
  134MOL0     C17604   7.217   3.517   4.514  0.2386  0.6634  0.4448
  134MOL0     C17605   7.103   3.561   4.579  0.1748 -0.1150  0.4663
  134MOL0     N17606   6.351   3.826   4.469 -0.0174  0.4572  0.2296
  134MOL0     N17607   6.225   3.825   4.501  0.4594  0.8805 -0.4161
  134MOL0     C17608   5.390   4.548   4.872 -0.0463 -0.4949  0.5706
  134MOL0     C17609   5.441   4.677   4.887  0.8391  0.9475  0.5392
  134MOL0     C17610   5.548   5.033   5.111 -0.3056  0.1259  0.1694
  134MOL0     C17611   5.493   5.126   5.207  0.3212  0.4066 -0.1455
  134MOL0     C17612   5.531   5.258   5.222 -0.1616 -0.0411  0.6118
  134MOL0     C17613   5.629   5.309   5.145  0.1357  1.2222 -0.1841
  134MOL0     O17614   5.681   5.436   5.147 -0.2501 -0.2398 -0.2309
  134MOL0     C17615   5.587   5.528   5.085 -0.6624  0.6428 -0.5424
  134MOL0     C17616   5.654   5.660   5.034  0.4160  0.2952 -0.4872
  134MOL0     C17617   5.676   5.767   5.143  0.1486  0.0808  0.4492
  134MOL0     C17618   5.756   5.878   5.081  0.4046 -0.0813 -0.3309
  134MOL0     C17619   5.897   5.844   5.068 -0.1823  0.3537  0.2045
  134MOL0     C17620   6.017   5.843   5.072  0.4494  0.4552 -0.0834
  134MOL0     C17621   5.688   5.218   5.047 -0.0962 -0.1890 -0.7357
  134MOL0     C17622   5.645   5.089   5.031 -0.4836  0.7997  0.2825
  134MOL0     H17623   5.695   4.600   5.103  1.3948 -0.6067 -1.3609
  134MOL0     H17624   5.607   4.380   5.062  2.9789  2.1020  0.6941
  134MOL0     H17625   5.447   4.357   4.711  0.4124  0.4058  0.6551
  134MOL0     H17626   5.356   4.192   4.737 -0.9474 -0.6805  2.1965
  134MOL0     H17627   5.641   4.290   4.791 -1.0368 -0.7909  4.8176
  134MOL0     H17628   5.598   4.163   4.673  1.3661 -2.9350  2.0121
  134MOL0     H17629   5.527   4.011   4.838  2.1766 -0.7924  1.3978
  134MOL0     H17630   5.532   4.141   4.966 -3.6109 -0.4232 -0.4486
  134MOL0     H17631   5.789   4.134   4.919  1.5990 -1.9265 -0.4204
  134MOL0     H17632   5.729   3.975   4.982 -1.9661 -0.5839  0.0874
  134MOL0     H17633   5.787   4.058   4.696 -2.7807  0.5448  1.8436
  134MOL0     H17634   5.705   3.910   4.723  0.7769 -0.5504 -2.2530
  134MOL0     H17635   5.887   3.821   4.866 -4.2728  1.5072 -0.3357
  134MOL0     H17636   5.971   3.971   4.872  0.8779  1.6500 -0.9449
  134MOL0     H17637   5.911   3.803   4.615 -0.6101  2.1623 -0.6128
  134MOL0     H17638   6.020   3.939   4.624  0.4796 -1.6592 -1.7163
  134MOL0     H17639   6.050   3.652   4.669 -2.1451  1.0704 -0.3848
  134MOL0     H17640   6.119   3.756   4.804  0.8334  5.9853 -0.6072
  134MOL0     H17641   6.355   3.684   4.762 -2.5562 -1.0340 -0.1951
  134MOL0     H17642   6.620   3.738   4.472 -0.4441  0.6837 -0.1301
  134MOL0     H17643   6.568   3.615   4.590 -0.7057  0.3914  0.2440
  134MOL0     H17644   6.621   3.754   4.773  1.5473 -0.5194  0.1943
  134MOL0     H17645   6.629   3.897   4.679  1.6530  0.3554 -1.4531
  134MOL0     H17646   6.850   3.786   4.561 -2.9063  4.3729 -1.6454
  134MOL0     H17647   6.841   3.861   4.725 -1.5254 -2.0533  2.5731
  134MOL0     H17648   6.842   3.557   4.657  3.4378 -2.5908  1.9111
  134MOL0     H17649   6.800   3.627   4.810  1.5375 -1.0852  1.1521
  134MOL0     H17650   7.242   3.734   4.836 -0.3174 -1.7053 -0.8560
  134MOL0     H17651   7.445   3.658   4.730  1.9592 -3.0724 -1.6323
  134MOL0     H17652   7.667   3.539   4.284  2.2051  1.2364 -2.4404
  134MOL0     H17653   7.873   3.429   4.204  2.5139  0.2272  0.1573
  134MOL0     H17654   8.167   3.472   4.328 -1.8156  0.7241 -0.6890
  134MOL0     H17655   8.114   3.413   4.178 -1.6754 -0.3470  0.3460
  134MOL0     H17656   8.221   3.201   4.210  1.4925 -0.5203 -0.7236
  134MOL0     H17657   8.279   3.237   4.369 -0.7604 -2.2882 -0.6942
  134MOL0     H17658   8.411   3.446   4.276 -0.4566  0.4968  0.2268
  134MOL0     H17659   8.366   3.396   4.123 -2.2396  0.8789  0.5979
  134MOL0     H17660   8.518   3.210   4.324 -1.3355  3.4374  1.2034
  134MOL0     H17661   8.464   3.160   4.166 -1.8195  1.5087 -2.7403
  134MOL0     H17662   8.670   3.371   4.262  0.7627  1.2571 -1.3446
  134MOL0     H17663   8.595   3.377   4.104  0.9590  0.5821 -0.2404
  134MOL0     H17664   8.683   3.119   4.083  2.8162 -2.2378  0.8097
  134MOL0     H17665   8.769   3.151   4.233 -2.5508  0.0426  0.9463
  134MOL0     H17666   8.800   3.284   3.954 -1.1024 -1.1304  0.3668
  134MOL0     H17667   8.857   3.368   4.101  0.3860  2.1331 -1.8198
  134MOL0     H17668   9.045   3.234   3.983 -0.6908 -1.1511 -2.2847
  134MOL0     H17669   8.948   3.085   4.030  1.6621 -0.8290  2.5301
  134MOL0     H17670   7.981   3.352   4.589  1.4076  0.9769 -1.6758
  134MOL0     H17671   7.787   3.485   4.696  0.1781 -0.8307  0.6699
  134MOL0     H17672   7.210   3.446   4.432 -4.2029  1.0653  0.2407
  134MOL0     H17673   7.011   3.513   4.549  0.5052  0.4527 -1.6170
  134MOL0     H17674   5.313   4.531   4.797 -0.7143  0.2948  1.0636
  134MOL0     H17675   5.391   4.762   4.841 -1.1297  0.2068  1.2075
  134MOL0     H17676   5.436   5.083   5.289 -0.0835 -0.0250 -0.6536
  134MOL0     H17677   5.486   5.317   5.302  1.1455 -0.3889  1.6299
  134MOL0     H17678   5.506   5.560   5.151  0.3241  0.3098  0.8760
  134MOL0     H17679   5.553   5.484   4.990  1.3788 -1.0974 -0.5415
  134MOL0     H17680   5.754   5.637   4.996 -0.2371  0.7086 -2.6179
  134MOL0     H17681   5.596   5.697   4.949 -1.3056 -0.3610  0.3433
  134MOL0     H17682   5.725   5.724   5.231  0.6325 -1.9145 -0.7165
  134MOL0     H17683   5.589   5.823   5.178  1.9155  2.1847  1.7340
  134MOL0     H17684   5.715   5.904   4.983 -0.1437  0.1153 -0.0546
  134MOL0     H17685   5.750   5.966   5.145 -0.0251  0.6002 -1.2933
  134MOL0     H17686   6.122   5.835   5.052  0.3023 -0.0514 -0.6954
  134MOL0     H17687   5.755   5.270   4.979  0.5269  3.7048  2.4885
  134MOL0     H17688   5.692   5.027   4.955 -1.8737  1.0848 -0.8660
  135MOL0     O17689   7.869   4.961  10.596 -0.2014  0.2110  0.1120
  135MOL0     C17690   7.806   4.988  10.698 -0.1475  0.4114  1.0674
  135MOL0     O17691   7.859   5.007  10.826  1.0810  0.0416  0.2772
  135MOL0     C17692   7.989   5.035  10.857  0.4978  0.9549 -0.6232
  135MOL0     C17693   8.020   5.032  10.997 -0.1115  0.6125  0.9702
  135MOL0     C17694   8.150   5.043  11.043  0.4512  1.2460 -0.0509
  135MOL0     C17695   8.256   5.054  10.946  0.6900 -0.5793 -0.0029
  135MOL0     O17696   8.378   5.039  11.009  0.0658  0.2254 -0.3676
  135MOL0     C17697   8.486   5.110  10.947 -0.3630 -0.1364 -0.0395
  135MOL0     C17698   8.613   5.116  11.039  0.4468 -0.8441 -0.2555
  135MOL0     C17699   8.588   5.159  11.185 -0.4266  0.1901  0.0143
  135MOL0     C17700   8.725   5.168  11.265 -0.0625 -0.4289  0.3572
  135MOL0     C17701   8.785   5.030  11.278  0.0182  0.5815 -0.7303
  135MOL0     C17702   8.894   5.008  11.382 -0.8734  0.2394  0.0056
  135MOL0     C17703   9.017   5.101  11.368  0.6982 -0.5292  0.6870
  135MOL0     C17704   9.117   5.113  11.490  0.4139 -0.2310 -0.6461
  135MOL0     N17705   9.184   4.989  11.507  0.5807 -0.0874  0.2348
  135MOL0     C17706   9.274   4.946  11.410 -0.3714  0.2734  0.4189
  135MOL0     C17707   9.302   4.823  11.443 -0.9418 -0.0593  0.2977
  135MOL0     C17708   9.394   4.733  11.359  0.9040  0.7134  0.0182
  135MOL0     C17709   9.538   4.764  11.385  0.6750 -0.1908 -0.1484
  135MOL0     C17710   9.615   4.676  11.286 -0.7307  0.4190  1.0742
  135MOL0     C17711   9.712   4.577  11.357 -0.1303  0.9310  0.0535
  135MOL0     O17712   9.835   4.637  11.411  1.2162 -0.1440 -0.0070
  135MOL0     C17713   9.928   4.553  11.453  0.7311  0.0393 -0.4948
  135MOL0     C17714  10.046   4.613  11.499  0.9114 -1.4450 -0.9021
  135MOL0     C17715  10.151   4.539  11.535 -0.0410 -0.4848  0.0786
  135MOL0     C17716  10.147   4.395  11.541 -0.7343 -0.0484  0.7173
  135MOL0     C17717  10.272   4.317  11.566 -0.0239  0.4767  0.2358
  135MOL0     O17718  10.255   4.178  11.551 -0.0864  0.0417 -0.6964
  135MOL0     C17719  10.374   4.118  11.553  0.8073  0.3486 -0.5648
  135MOL0     C17720  10.420   4.059  11.672  0.4922  0.5887 -0.0540
  135MOL0     C17721  10.530   3.980  11.677 -0.5149  0.7130 -0.0420
  135MOL0     C17722  10.611   3.973  11.563 -1.0501  0.4307 -0.6300
  135MOL0     O17723  10.727   3.901  11.569 -0.1597  0.4239  0.5061
  135MOL0     C17724  10.846   3.983  11.546 -0.4497  0.2623 -0.5371
  135MOL0     C17725  10.858   4.126  11.609  0.3439  0.3250  0.1161
  135MOL0     C17726  11.000   4.183  11.578 -0.5385  0.2243 -0.9842
  135MOL0     C17727  11.100   4.155  11.690  0.5816 -0.6385  0.8045
  135MOL0     C17728  11.209   4.053  11.654 -0.2561 -0.2766  0.0652
  135MOL0     C17729  11.312   4.114  11.562 -0.5864  0.5413 -0.1362
  135MOL0     C17730  11.422   4.010  11.544 -0.1738  0.4300  0.0363
  135MOL0     C17731  11.545   4.078  11.484 -0.6314 -0.1203 -0.0929
  135MOL0    Cl17732  11.495   4.137  11.323 -0.5576  0.0389  0.3606
  135MOL0     C17733  10.564   4.025  11.442  0.8138 -0.2432  0.3345
  135MOL0     C17734  10.446   4.095  11.440 -0.6780  0.2055  0.1577
  135MOL0     O17735  10.367   4.377  11.607 -0.5768  0.5124  0.4095
  135MOL0     C17736  10.029   4.333  11.496 -0.0300 -0.5998 -0.1510
  135MOL0     C17737   9.923   4.412  11.459  1.0785  0.6291 -0.5004
  135MOL0     N17738   9.229   4.782  11.550  0.7653 -0.1086 -0.2152
  135MOL0     N17739   9.162   4.881  11.592 -0.0986  0.1998  0.1555
  135MOL0     C17740   8.226   5.067  10.812  0.2090  0.4242 -0.3578
  135MOL0     C17741   8.089   5.058  10.765 -0.0766 -0.6009  0.0228
  135MOL0     C17742   7.655   4.985  10.700 -1.2284  0.4441 -0.1651
  135MOL0     C17743   7.589   4.980  10.822  0.4776  0.1170 -0.4817
  135MOL0     C17744   7.450   4.980  10.837  1.4271 -0.1310  0.5739
  135MOL0     C17745   7.377   4.972  10.721 -0.2624  0.7519 -0.3257
  135MOL0     O17746   7.245   4.953  10.716 -0.0520  0.0423 -0.5841
  135MOL0     C17747   7.186   4.886  10.831 -0.4992  0.6475  0.1545
  135MOL0     C17748   7.049   4.831  10.805 -0.4933 -0.2546  0.3211
  135MOL0     C17749   6.948   4.920  10.720  0.1747  0.2337 -0.0887
  135MOL0     C17750   6.823   4.842  10.668  0.5401  0.0719 -0.3658
  135MOL0     C17751   6.729   4.815  10.773 -0.1207 -0.5434  0.6354
  135MOL0     C17752   6.635   4.816  10.848 -0.1163  0.1913 -0.0221
  135MOL0     C17753   7.436   4.968  10.593  0.0005  0.3747 -0.0736
  135MOL0     C17754   7.573   4.973  10.587  0.3427  0.6725  0.2545
  135MOL0     H17755   7.933   5.025  11.062  0.1062 -1.1835  1.1296
  135MOL0     H17756   8.167   5.043  11.150  1.1771  1.1796 -0.1622
  135MOL0     H17757   8.462   5.212  10.917  2.3678  0.2134 -1.2523
  135MOL0     H17758   8.508   5.053  10.856  0.7322 -1.0213  0.7414
  135MOL0     H17759   8.693   5.180  11.001 -0.7005  0.7330 -0.1120
  135MOL0     H17760   8.649   5.013  11.045  1.0641 -0.7573 -1.9979
  135MOL0     H17761   8.535   5.075  11.231 -0.7894 -1.1633 -2.6806
  135MOL0     H17762   8.531   5.252  11.186 -1.1349 -0.1285 -2.6684
  135MOL0     H17763   8.798   5.236  11.220  1.0461 -0.6514  1.7491
  135MOL0     H17764   8.699   5.206  11.364 -2.2796 -0.0095 -0.3236
  135MOL0     H17765   8.825   5.013  11.178  1.0847  0.4845 -0.2940
  135MOL0     H17766   8.705   4.957  11.297 -0.1750  0.6495 -1.2606
  135MOL0     H17767   8.935   4.907  11.373 -1.0924  0.2789 -1.8311
  135MOL0     H17768   8.865   5.023  11.487  0.3056 -0.4383  0.4547
  135MOL0     H17769   9.081   5.062  11.288  1.0300  1.5576 -0.1227
  135MOL0     H17770   8.992   5.205  11.350 -1.0341 -0.9042  0.8151
  135MOL0     H17771   9.076   5.128  11.590  3.2078  1.4636  0.3630
  135MOL0     H17772   9.197   5.188  11.488  0.3944  0.0097  2.5479
  135MOL0     H17773   9.312   4.999  11.323 -3.2566  1.1331 -0.4371
  135MOL0     H17774   9.360   4.734  11.255 -6.7830 -1.6227  1.8811
  135MOL0     H17775   9.375   4.631  11.392 -0.7904  0.8946 -0.3161
  135MOL0     H17776   9.569   4.751  11.489  0.7146  2.3844  0.2151
  135MOL0     H17777   9.562   4.869  11.367  2.5057 -0.8519 -2.0208
  135MOL0     H17778   9.557   4.620  11.212  3.5237 -1.2078 -1.4110
  135MOL0     H17779   9.679   4.739  11.224  1.8994 -0.1854  2.9686
  135MOL0     H17780   9.728   4.491  11.292 -1.6379 -0.0470  0.9164
  135MOL0     H17781   9.657   4.527  11.437  0.5963 -1.0258 -0.6247
  135MOL0     H17782  10.041   4.720  11.515 -0.4613 -1.3089 -2.0782
  135MOL0     H17783  10.239   4.586  11.578  0.7795 -0.7566 -1.2555
  135MOL0     H17784  10.360   4.069  11.761  0.1074  0.8245 -0.3384
  135MOL0     H17785  10.549   3.914  11.760 -1.2256  1.0120  0.3660
  135MOL0     H17786  10.875   3.990  11.441  0.4066  0.8637 -0.2719
  135MOL0     H17787  10.931   3.933  11.593  0.4301  1.1899 -1.1095
  135MOL0     H17788  10.826   4.130  11.714  1.6494 -1.8408  0.6778
  135MOL0     H17789  10.776   4.184  11.566 -2.6268 -4.1731 -0.9634
  135MOL0     H17790  10.989   4.291  11.561  0.3602  0.8383  1.8150
  135MOL0     H17791  11.031   4.143  11.482  0.1989  0.1902 -0.7413
  135MOL0     H17792  11.145   4.252  11.710  1.6231 -1.2344  1.4131
  135MOL0     H17793  11.038   4.133  11.777 -0.5739 -1.3139 -0.1432
  135MOL0     H17794  11.165   3.966  11.605 -0.9514  0.0354  0.1090
  135MOL0     H17795  11.254   4.022  11.749 -1.5322  1.8922  1.4939
  135MOL0     H17796  11.354   4.208  11.599 -0.2504  1.0302 -1.6761
  135MOL0     H17797  11.261   4.144  11.470  0.8528  1.5251 -0.6628
  135MOL0     H17798  11.448   3.966  11.641 -3.0473  0.9074  1.0969
  135MOL0     H17799  11.378   3.936  11.476  0.3176  1.5222 -1.5287
  135MOL0     H17800  11.618   3.997  11.476 -0.6814 -0.3094  1.1878
  135MOL0     H17801  11.570   4.166  11.544 -2.1939  1.1190 -1.1622
  135MOL0     H17802  10.629   4.002  11.359  0.3757  0.7051 -0.2896
  135MOL0     H17803  10.406   4.128  11.344 -1.6621 -0.8683  0.1791
  135MOL0     H17804  10.022   4.226  11.479 -1.4872 -0.1368 -3.2368
  135MOL0     H17805   9.835   4.364  11.419 -0.5147  3.4340 -0.6135
  135MOL0     H17806   8.301   5.088  10.737 -0.7160  0.5737 -1.2544
  135MOL0     H17807   8.083   5.084  10.660  0.9271  2.9635  0.7291
  135MOL0     H17808   7.639   4.993  10.918  1.0834  2.1921 -1.0300
  135MOL0     H17809   7.391   4.992  10.927  0.9109 -0.6261  0.3092
  135MOL0     H17810   7.190   4.954  10.917 -0.3534  0.7744  0.0486
  135MOL0     H17811   7.236   4.792  10.856  0.5201  1.8252  3.0347
  135MOL0     H17812   7.060   4.749  10.733 -1.5202 -0.6221  0.5729
  135MOL0     H17813   7.022   4.786  10.901  4.8888  0.4541  2.5415
  135MOL0     H17814   6.993   4.981  10.642  1.0582  2.7695  2.2143
  135MOL0     H17815   6.918   4.984  10.804  1.8274  1.1563 -0.1660
  135MOL0     H17816   6.765   4.905  10.599  2.5444  0.8427 -1.4062
  135MOL0     H17817   6.857   4.750  10.620  0.2499 -0.3471  0.2139
  135MOL0     H17818   6.546   4.817  10.908 -1.8737  3.4778 -2.3671
  135MOL0     H17819   7.375   4.949  10.506  1.2154 -1.0810 -0.6416
  135MOL0     H17820   7.613   4.954  10.488 -0.2293 -0.2066  0.1788
  136MOL0     O17821   5.208   7.554   3.684 -0.1760 -0.1370  0.5664
  136MOL0     C17822   5.086   7.581   3.677 -0.2007 -0.3145  0.6376
  136MOL0     O17823   5.030   7.689   3.614  0.5071  0.2720  0.2060
  136MOL0     C17824   5.105   7.793   3.562 -0.7225  0.0343  0.1548
  136MOL0     C17825   5.225   7.783   3.496 -1.0883 -0.0221  0.2474
  136MOL0     C17826   5.285   7.899   3.444  0.2225  0.0955 -0.2519
  136MOL0     C17827   5.217   8.022   3.437 -0.2238 -0.4393 -0.0642
  136MOL0     O17828   5.290   8.118   3.375 -0.2242 -0.3287 -0.6841
  136MOL0     C17829   5.220   8.237   3.347 -0.1078  0.9141 -0.1213
  136MOL0     C17830   5.322   8.350   3.308  1.2699 -0.3582  1.1331
  136MOL0     C17831   5.416   8.396   3.421  1.1646 -0.0970  0.1093
  136MOL0     C17832   5.502   8.503   3.354 -0.4787 -0.0600 -0.3332
  136MOL0     C17833   5.638   8.534   3.428 -0.5854 -0.3425  0.2304
  136MOL0     C17834   5.725   8.605   3.331  0.1314  1.1875  0.6868
  136MOL0     C17835   5.851   8.659   3.393  0.3191 -0.9891 -0.2316
  136MOL0     C17836   5.937   8.724   3.293 -0.9798 -0.2433  0.3025
  136MOL0     N17837   6.040   8.800   3.369  0.0693 -0.4039  0.4301
  136MOL0     C17838   6.037   8.935   3.389  0.1319  0.2941 -0.5380
  136MOL0     C17839   6.155   8.966   3.456 -0.1594  0.2156  0.3427
  136MOL0     C17840   6.191   9.111   3.490 -0.0199  0.4771 -0.1098
  136MOL0     C17841   6.093   9.203   3.566 -0.0266  0.0157  0.5108
  136MOL0     C17842   6.180   9.316   3.632  0.4334  0.5069  0.7308
  136MOL0     C17843   6.119   9.370   3.764 -0.7786  0.3588 -0.0462
  136MOL0     O17844   5.987   9.417   3.736 -0.4140 -0.1357  0.1944
  136MOL0     C17845   5.922   9.470   3.834  1.2084  0.2062 -0.5478
  136MOL0     C17846   5.981   9.519   3.953  0.9755  0.1203 -0.0988
  136MOL0     C17847   5.894   9.567   4.058  0.0676  0.2408 -0.1641
  136MOL0     C17848   5.750   9.573   4.039 -1.0130  0.2189 -0.0013
  136MOL0     C17849   5.666   9.621   4.152  0.3784  0.0905 -0.5693
  136MOL0     O17850   5.542   9.565   4.168  0.8489 -0.7307  0.2513
  136MOL0     C17851   5.470   9.570   4.277 -0.0329  0.4837  0.2866
  136MOL0     C17852   5.460   9.694   4.347 -0.3513  0.4100 -0.8385
  136MOL0     C17853   5.359   9.728   4.440  0.0570  0.2920 -0.6889
  136MOL0     C17854   5.269   9.627   4.481 -0.7089 -0.1460 -0.0402
  136MOL0     O17855   5.169   9.657   4.573  0.2625  0.4837 -0.3724
  136MOL0     C17856   5.158   9.796   4.619  0.3469  0.4484  0.1612
  136MOL0     C17857   5.061   9.814   4.730  0.6822  0.3688 -0.6868
  136MOL0     C17858   4.921   9.771   4.679  0.1448  0.7530  0.3543
  136MOL0     C17859   4.821   9.749   4.791 -0.0720 -0.6981  0.0678
  136MOL0     C17860   4.687   9.669   4.766  0.3122 -1.6166 -0.3225
  136MOL0     C17861   4.589   9.744   4.681 -0.1734 -0.5772 -0.2182
  136MOL0     C17862   4.489   9.656   4.607 -0.4552  0.6670  0.3583
  136MOL0     C17863   4.388   9.739   4.521 -1.7601 -0.4920  0.0988
  136MOL0    Cl17864   4.299   9.644   4.401  0.3674 -0.1819  0.1696
  136MOL0     C17865   5.279   9.500   4.412  0.4822 -0.7809 -0.4458
  136MOL0     C17866   5.368   9.478   4.312 -0.6875  0.7309 -0.3997
  136MOL0     O17867   5.721   9.702   4.229  0.5092 -0.4659 -0.4072
  136MOL0     C17868   5.692   9.534   3.923  0.0646 -0.3722 -0.0583
  136MOL0     C17869   5.778   9.487   3.824  0.1174 -0.6126  1.0071
  136MOL0     N17870   6.223   8.850   3.498  0.8701  0.2350  0.7124
  136MOL0     N17871   6.149   8.754   3.441 -0.6348 -0.3296 -0.9990
  136MOL0     C17872   5.092   8.021   3.497  0.6196 -0.0802  0.0107
  136MOL0     C17873   5.037   7.912   3.552 -0.0758 -0.1010 -0.0432
  136MOL0     C17874   4.998   7.480   3.748  0.0074 -0.5952 -0.5958
  136MOL0     C17875   4.857   7.493   3.733  0.3126  0.1838 -0.1588
  136MOL0     C17876   4.773   7.409   3.802 -0.1157  0.0589  0.8491
  136MOL0     C17877   4.842   7.308   3.889 -0.5138  0.3403 -0.5254
  136MOL0     O17878   4.758   7.226   3.954  0.4498  0.2172 -0.6027
  136MOL0     C17879   4.791   7.128   4.049  0.1042  0.8759 -0.9181
  136MOL0     C17880   4.672   7.057   4.118 -0.7637  0.0761 -0.3557
  136MOL0     C17881   4.608   7.123   4.243  0.2200 -0.5259  0.0756
  136MOL0     C17882   4.529   7.244   4.184  0.0921 -1.3216 -0.0664
  136MOL0     C17883   4.438   7.300   4.283  0.4556 -0.0773 -0.3982
  136MOL0     C17884   4.362   7.356   4.360  0.1679 -1.1761 -0.6270
  136MOL0     C17885   4.981   7.302   3.909 -0.1647  0.0611  0.8185
  136MOL0     C17886   5.057   7.390   3.837 -0.0137 -0.5615 -1.0163
  136MOL0     H17887   5.270   7.684   3.489 -1.5875 -0.6104  3.5962
  136MOL0     H17888   5.388   7.891   3.408 -0.0646  0.1724 -1.1187
  136MOL0     H17889   5.161   8.277   3.430 -1.6931 -3.1186  0.9352
  136MOL0     H17890   5.147   8.206   3.271  0.1426 -0.2434  0.0924
  136MOL0     H17891   5.254   8.425   3.266 -2.0962 -1.7305  3.7102
  136MOL0     H17892   5.392   8.299   3.240  2.0817 -2.1622  3.2064
  136MOL0     H17893   5.466   8.305   3.456  0.1025 -0.8741 -0.3244
  136MOL0     H17894   5.354   8.432   3.503 -0.0431 -0.0456 -0.8115
  136MOL0     H17895   5.530   8.463   3.256 -1.4669  0.3932 -0.8276
  136MOL0     H17896   5.448   8.597   3.338 -4.3717 -1.7865  1.3998
  136MOL0     H17897   5.690   8.447   3.471  0.9478  0.1431 -0.5781
  136MOL0     H17898   5.606   8.590   3.516 -0.7270 -2.5841  1.6988
  136MOL0     H17899   5.667   8.688   3.289  0.3123  0.7733 -0.3952
  136MOL0     H17900   5.753   8.534   3.253  2.3234 -0.4639  2.7915
  136MOL0     H17901   5.819   8.738   3.461  0.9658  0.2518 -1.3309
  136MOL0     H17902   5.906   8.586   3.452  0.6158 -0.6469 -0.0829
  136MOL0     H17903   5.881   8.784   3.221 -0.4816 -1.1002 -0.8290
  136MOL0     H17904   5.977   8.653   3.221  0.9304  3.2791 -2.4245
  136MOL0     H17905   5.973   9.012   3.348  2.3393  0.8502 -3.2478
  136MOL0     H17906   6.209   9.157   3.393 -0.3581  1.5732  0.3277
  136MOL0     H17907   6.283   9.106   3.549 -0.3044  1.6519  0.4546
  136MOL0     H17908   6.038   9.150   3.645 -1.9418 -2.4954 -2.2787
  136MOL0     H17909   6.019   9.248   3.499  0.5459  1.4480  0.8139
  136MOL0     H17910   6.280   9.282   3.658  0.8637 -0.1423 -1.5905
  136MOL0     H17911   6.183   9.403   3.566  0.1620  0.5236  0.7379
  136MOL0     H17912   6.183   9.455   3.792 -1.4195  1.1213 -0.8379
  136MOL0     H17913   6.135   9.286   3.832  1.8820  0.3884 -0.5333
  136MOL0     H17914   6.088   9.509   3.966  1.0347  0.1967 -0.5129
  136MOL0     H17915   5.934   9.598   4.154 -0.5654 -0.5197  0.3545
  136MOL0     H17916   5.529   9.776   4.331 -1.5944  1.1062 -2.9428
  136MOL0     H17917   5.364   9.825   4.488  1.8141 -0.1627  0.1487
  136MOL0     H17918   5.140   9.867   4.538  1.9536 -1.1052 -1.6665
  136MOL0     H17919   5.258   9.813   4.660 -0.3484  0.6204  1.8775
  136MOL0     H17920   5.052   9.918   4.762 -1.2465 -0.2779  1.1851
  136MOL0     H17921   5.102   9.760   4.816 -0.5412 -0.6269 -0.6944
  136MOL0     H17922   4.931   9.679   4.622  2.3194  0.7445  0.6918
  136MOL0     H17923   4.877   9.833   4.600 -1.1171 -2.1908 -1.4532
  136MOL0     H17924   4.872   9.682   4.862  3.3430  0.7184 -0.8582
  136MOL0     H17925   4.800   9.844   4.841  0.6120 -0.0216 -0.9017
  136MOL0     H17926   4.645   9.630   4.859  2.2042  1.3976  1.9994
  136MOL0     H17927   4.702   9.589   4.694 -3.2942  0.1435 -3.3959
  136MOL0     H17928   4.650   9.804   4.613 -2.2584  1.6699 -0.2617
  136MOL0     H17929   4.542   9.816   4.749  3.1555  0.2657  1.3865
  136MOL0     H17930   4.538   9.583   4.542  2.6520  3.8456 -1.1941
  136MOL0     H17931   4.436   9.599   4.684  2.2144 -1.1405  1.0006
  136MOL0     H17932   4.445   9.809   4.459  0.3516 -0.8396  1.5836
  136MOL0     H17933   4.314   9.781   4.590 -2.8640 -0.6473 -0.9605
  136MOL0     H17934   5.197   9.441   4.451 -0.9216  2.3098  1.7730
  136MOL0     H17935   5.358   9.395   4.243  0.3754 -0.2902  0.6388
  136MOL0     H17936   5.585   9.545   3.904 -0.6548 -0.7771  3.2752
  136MOL0     H17937   5.739   9.470   3.724 -3.1181  2.0235  1.6357
  136MOL0     H17938   5.049   8.120   3.509  0.5228 -0.0216 -0.7767
  136MOL0     H17939   4.943   7.910   3.607  1.7846  0.3031  3.4054
  136MOL0     H17940   4.811   7.572   3.673  2.3093  1.5853  0.0789
  136MOL0     H17941   4.665   7.399   3.802 -0.4585  2.2595  3.7589
  136MOL0     H17942   4.856   7.167   4.128 -0.8759  2.4785 -0.8475
  136MOL0     H17943   4.865   7.063   4.002  0.2191  1.2851 -1.3119
  136MOL0     H17944   4.598   7.029   4.043 -0.4570 -1.2597 -0.1845
  136MOL0     H17945   4.708   6.966   4.166 -1.6189  0.8543  1.9067
  136MOL0     H17946   4.682   7.155   4.317 -0.0254 -2.0453  1.0200
  136MOL0     H17947   4.552   7.037   4.282  0.8865 -0.4717  1.2186
  136MOL0     H17948   4.605   7.321   4.164 -2.2094  1.1686  0.2517
  136MOL0     H17949   4.474   7.220   4.093  1.2314 -1.2826 -0.7939
  136MOL0     H17950   4.284   7.388   4.427  0.7414 -2.6602  0.8220
  136MOL0     H17951   5.023   7.231   3.980  1.2740  0.0509 -0.0020
  136MOL0     H17952   5.160   7.394   3.872 -0.6937  1.7030  0.9836
  137MOL0     O17953   1.575   5.683   4.583  0.0190 -0.3077 -0.1368
  137MOL0     C17954   1.559   5.740   4.691 -0.0066 -0.2735  0.2819
  137MOL0     O17955   1.447   5.779   4.749 -0.0856 -0.4227 -0.5237
  137MOL0     C17956   1.325   5.742   4.688  0.5502 -0.2305 -0.0579
  137MOL0     C17957   1.215   5.823   4.719 -0.6638 -0.3729  0.0183
  137MOL0     C17958   1.091   5.792   4.683  0.2963  0.2820  0.3173
  137MOL0     C17959   1.063   5.666   4.619 -0.0823  0.4995 -0.2869
  137MOL0     O17960   0.942   5.644   4.559  0.0605 -0.3859  0.0130
  137MOL0     C17961   0.897   5.503   4.555  0.2390  0.7921  0.6875
  137MOL0     C17962   0.747   5.484   4.520 -0.1657 -0.0969 -0.4259
  137MOL0     C17963   0.718   5.558   4.399 -0.1231 -0.7245  0.4886
  137MOL0     C17964   0.570   5.540   4.373  0.6695 -0.6452  0.0958
  137MOL0     C17965   0.520   5.623   4.248  0.4124 -0.4426 -0.1416
  137MOL0     C17966   0.373   5.591   4.226  0.7902  0.1466 -0.1486
  137MOL0     C17967   0.310   5.657   4.107 -0.1496  0.2012  0.5317
  137MOL0     C17968   0.268   5.797   4.132 -1.2828 -0.1675  0.0517
  137MOL0     N17969   0.130   5.798   4.189 -0.3130  0.4662 -0.1611
  137MOL0     C17970   0.016   5.786   4.113 -0.6600  0.0386  0.2503
  137MOL0     C17971  -0.080   5.782   4.211  0.2782  0.0367 -1.1732
  137MOL0     C17972  -0.216   5.725   4.169 -0.3667 -0.9147  0.2209
  137MOL0     C17973  -0.292   5.834   4.093 -0.5320 -0.5149  0.5892
  137MOL0     C17974  -0.334   5.950   4.192  0.6612 -0.3367  0.6800
  137MOL0     C17975  -0.440   6.043   4.126 -0.4452  0.7640  0.5484
  137MOL0     O17976  -0.404   6.062   3.985  1.1232 -0.7554 -0.6416
  137MOL0     C17977  -0.492   6.148   3.918  0.2088 -0.1020 -0.6772
  137MOL0     C17978  -0.461   6.193   3.789  0.4326 -0.4487  0.0095
  137MOL0     C17979  -0.542   6.276   3.717  0.2668 -0.8090 -0.4927
  137MOL0     C17980  -0.657   6.331   3.777 -0.3664 -0.3475 -0.1785
  137MOL0     C17981  -0.742   6.419   3.697  0.5248  1.0874  0.0810
  137MOL0     O17982  -0.866   6.436   3.754  0.0853 -0.0740 -0.4793
  137MOL0     C17983  -0.952   6.526   3.682  1.1655  1.0385 -0.5442
  137MOL0     C17984  -0.969   6.656   3.711  0.6011  0.2066  0.3882
  137MOL0     C17985  -1.065   6.739   3.638  0.6005  0.3520  0.0629
  137MOL0     C17986  -1.155   6.685   3.541  0.1657  0.2843 -1.0046
  137MOL0     O17987  -1.249   6.759   3.467  0.9375 -0.0915 -0.5245
  137MOL0     C17988  -1.229   6.902   3.448  0.4272 -0.5534  0.3126
  137MOL0     C17989  -1.335   6.984   3.362  0.6309  0.0354 -0.7214
  137MOL0     C17990  -1.474   6.953   3.425 -0.0597 -0.3291 -0.3111
  137MOL0     C17991  -1.589   7.026   3.345  0.4049 -0.0897  0.2681
  137MOL0     C17992  -1.723   6.999   3.421 -0.1497 -0.2079 -0.7978
  137MOL0     C17993  -1.849   7.021   3.333  0.7420 -0.0928 -0.9088
  137MOL0     C17994  -1.961   7.106   3.411 -1.3203 -0.4892  0.3235
  137MOL0     C17995  -2.088   7.141   3.332 -0.3056  0.0681  0.6940
  137MOL0    Cl17996  -2.177   6.984   3.314 -0.2201 -0.0701  0.4592
  137MOL0     C17997  -1.142   6.546   3.526 -0.1230 -0.3181  0.1191
  137MOL0     C17998  -1.042   6.473   3.592  0.4206 -0.1629  0.1327
  137MOL0     O17999  -0.702   6.471   3.594  0.1735 -0.4749 -0.7969
  137MOL0     C18000  -0.688   6.299   3.910 -0.0263 -0.5159  0.4980
  137MOL0     C18001  -0.604   6.207   3.975  0.7701  0.3703 -0.5330
  137MOL0     N18002  -0.023   5.805   4.338  0.5361 -0.6918  0.1411
  137MOL0     N18003   0.107   5.823   4.319  0.6922 -0.8387  0.6910
  137MOL0     C18004   1.164   5.564   4.606  0.3034  0.4962  0.0020
  137MOL0     C18005   1.300   5.615   4.628 -0.2878  0.0486  0.0988
  137MOL0     C18006   1.683   5.760   4.772  0.5437 -0.2885  0.5189
  137MOL0     C18007   1.703   5.856   4.875  0.2231  0.6505  0.2359
  137MOL0     C18008   1.825   5.869   4.944 -0.2794 -0.4021  0.2901
  137MOL0     C18009   1.941   5.800   4.903 -0.0798  0.9858 -0.1375
  137MOL0     O18010   2.050   5.807   4.983  0.3049  0.1403  0.2175
  137MOL0     C18011   2.149   5.695   4.976 -0.4281  0.1124 -0.3219
  137MOL0     C18012   2.250   5.726   5.085 -0.2801 -0.2231 -0.5465
  137MOL0     C18013   2.355   5.613   5.100 -0.0497 -0.5540 -0.1597
  137MOL0     C18014   2.440   5.645   5.220 -0.1050 -0.1126  0.9988
  137MOL0     C18015   2.567   5.571   5.221  0.4896  0.5604  0.0184
  137MOL0     C18016   2.675   5.523   5.234 -0.2481  0.9274 -0.5769
  137MOL0     C18017   1.915   5.701   4.804  0.1458  0.3391  0.8166
  137MOL0     C18018   1.797   5.688   4.735 -0.5636  0.0005 -0.5113
  137MOL0     H18019   1.230   5.912   4.780 -0.4234 -0.0536 -0.5000
  137MOL0     H18020   1.005   5.858   4.695 -3.0302 -3.4804 -0.5739
  137MOL0     H18021   0.929   5.448   4.644  3.1134  2.7892  1.0383
  137MOL0     H18022   0.960   5.455   4.479 -0.8940 -0.6569  0.6165
  137MOL0     H18023   0.685   5.517   4.604 -0.7164  3.7222 -2.1485
  137MOL0     H18024   0.719   5.380   4.502 -0.2450 -0.6597  2.4424
  137MOL0     H18025   0.781   5.512   4.322 -1.7591 -2.3376  0.0737
  137MOL0     H18026   0.739   5.665   4.408 -0.3612 -0.5235 -1.0886
  137MOL0     H18027   0.546   5.435   4.356 -0.7991 -0.7902  2.5244
  137MOL0     H18028   0.516   5.581   4.459  0.7216 -2.3123  0.9701
  137MOL0     H18029   0.585   5.591   4.166  0.0371 -1.2323 -0.1454
  137MOL0     H18030   0.539   5.728   4.269  0.3652 -0.8652  2.3149
  137MOL0     H18031   0.319   5.614   4.318  2.0271  0.2916  0.5555
  137MOL0     H18032   0.353   5.486   4.207 -0.6069  0.8246 -3.0081
  137MOL0     H18033   0.371   5.657   4.016 -0.7354 -0.1553  0.1281
  137MOL0     H18034   0.222   5.597   4.081 -0.4997 -0.1547  2.4297
  137MOL0     H18035   0.280   5.857   4.041 -1.1456  0.6772  0.6081
  137MOL0     H18036   0.330   5.842   4.210 -1.3367  0.5696 -0.3195
  137MOL0     H18037   0.011   5.769   4.005 -1.3329  0.5685  0.1906
  137MOL0     H18038  -0.268   5.686   4.257  1.5809 -1.1273  1.3241
  137MOL0     H18039  -0.198   5.637   4.107  1.8434  0.2117 -0.8622
  137MOL0     H18040  -0.380   5.785   4.051  1.1538 -1.5811 -1.9162
  137MOL0     H18041  -0.231   5.882   4.016 -0.0518 -1.3671  0.4282
  137MOL0     H18042  -0.373   5.909   4.285  3.2649 -1.4716  1.3636
  137MOL0     H18043  -0.240   6.003   4.209  0.3097  0.2521  0.8050
  137MOL0     H18044  -0.448   6.126   4.196 -1.7714  1.2594 -0.1528
  137MOL0     H18045  -0.536   5.990   4.127  1.1908 -2.5857 -1.4184
  137MOL0     H18046  -0.361   6.174   3.751  1.2455  2.9637  0.1898
  137MOL0     H18047  -0.504   6.310   3.622 -0.5889  2.0111  0.0973
  137MOL0     H18048  -0.903   6.695   3.788 -0.1882  0.1669  1.0875
  137MOL0     H18049  -1.090   6.842   3.657 -1.8577 -0.4466  1.6207
  137MOL0     H18050  -1.130   6.923   3.406 -0.4467  1.2199 -0.9800
  137MOL0     H18051  -1.235   6.948   3.547 -1.1400  0.9126 -0.4111
  137MOL0     H18052  -1.322   6.954   3.258  3.2071  0.2825 -0.5347
  137MOL0     H18053  -1.316   7.091   3.372 -2.6604  0.7792 -1.3927
  137MOL0     H18054  -1.479   6.987   3.528 -3.4566 -0.2457 -0.3826
  137MOL0     H18055  -1.492   6.845   3.419 -1.0836 -0.1479 -0.8200
  137MOL0     H18056  -1.575   7.133   3.356  1.2927 -0.4293  3.3298
  137MOL0     H18057  -1.593   6.982   3.245  0.2453 -0.9748  0.6539
  137MOL0     H18058  -1.724   7.073   3.502  2.2366  0.0195 -0.9255
  137MOL0     H18059  -1.732   6.902   3.470 -2.7371  0.7723  0.9074
  137MOL0     H18060  -1.887   6.921   3.313  1.2409 -0.7672  1.1904
  137MOL0     H18061  -1.820   7.067   3.238  2.4498  2.1253  0.5639
  137MOL0     H18062  -1.998   7.044   3.493 -3.4927 -3.6476 -2.7612
  137MOL0     H18063  -1.925   7.205   3.444 -1.3862  0.1146 -1.3301
  137MOL0     H18064  -2.062   7.187   3.236  0.9251  0.4721  1.2131
  137MOL0     H18065  -2.148   7.204   3.399 -1.2984 -2.4346  2.2959
  137MOL0     H18066  -1.215   6.500   3.460  0.0796  1.7489 -1.6866
  137MOL0     H18067  -1.042   6.368   3.563 -3.1632  0.6313 -3.8455
  137MOL0     H18068  -0.785   6.333   3.943 -0.2909  1.8788 -2.3260
  137MOL0     H18069  -0.629   6.208   4.081 -0.9423 -0.3709 -0.8856
  137MOL0     H18070   1.151   5.462   4.571  0.5021 -0.7278  3.1815
  137MOL0     H18071   1.381   5.542   4.624  0.8850  1.3265 -0.1649
  137MOL0     H18072   1.619   5.922   4.898 -0.4145 -0.0168 -0.1397
  137MOL0     H18073   1.833   5.947   5.020 -0.5976  0.5843 -0.6661
  137MOL0     H18074   2.194   5.681   4.878 -0.0411  0.2561 -0.1639
  137MOL0     H18075   2.102   5.602   5.010  2.3065 -0.6830  1.6334
  137MOL0     H18076   2.293   5.827   5.079  1.9339 -1.1569 -1.5323
  137MOL0     H18077   2.190   5.732   5.176 -0.1358  2.5592 -0.5529
  137MOL0     H18078   2.426   5.595   5.018  2.5655  3.3647  0.9712
  137MOL0     H18079   2.295   5.522   5.112 -0.1676 -0.2849  1.4947
  137MOL0     H18080   2.471   5.749   5.208  1.2152 -0.6492 -0.6408
  137MOL0     H18081   2.394   5.633   5.319  1.4406 -1.6201  1.5988
  137MOL0     H18082   2.776   5.493   5.257 -0.5870  0.4606  0.3661
  137MOL0     H18083   1.987   5.628   4.770 -1.3091 -0.6710 -0.2128
  137MOL0     H18084   1.797   5.621   4.650  0.7287 -2.1280  1.0569
  138MOL0     O18085   1.387   6.023   1.543 -0.3475 -0.1560 -0.2729
  138MOL0     C18086   1.495   5.988   1.498  1.0088  0.0797  0.6862
  138MOL0     O18087   1.550   5.854   1.490 -0.9331  0.2730 -0.3097
  138MOL0     C18088   1.505   5.751   1.571 -0.6094  0.1942  0.3067
  138MOL0     C18089   1.444   5.759   1.698  0.1189  0.4787  0.4018
  138MOL0     C18090   1.409   5.648   1.773  0.1768 -1.3439 -0.6671
  138MOL0     C18091   1.426   5.520   1.724 -0.9996  0.7471 -0.0630
  138MOL0     O18092   1.390   5.421   1.815 -0.1861  0.1793  0.4056
  138MOL0     C18093   1.472   5.414   1.927 -0.1661  0.8081  0.2773
  138MOL0     C18094   1.497   5.265   1.969  0.3431 -0.3792  0.2318
  138MOL0     C18095   1.364   5.204   2.021 -1.2214 -0.3283  0.9051
  138MOL0     C18096   1.355   5.055   1.973 -0.0134 -0.0865  0.2171
  138MOL0     C18097   1.244   4.969   2.026 -0.0070  1.2703  0.9825
  138MOL0     C18098   1.225   4.826   1.975  0.0133  0.5747 -0.3321
  138MOL0     C18099   1.102   4.746   2.029  0.9217  0.0493  0.0718
  138MOL0     C18100   0.969   4.782   1.965  0.2170 -0.0893  0.2001
  138MOL0     N18101   0.869   4.766   2.070  0.4438  0.5531 -0.4773
  138MOL0     C18102   0.860   4.652   2.151  0.8144  0.3544 -0.2905
  138MOL0     C18103   0.754   4.676   2.231  0.1753  0.1581 -0.2408
  138MOL0     C18104   0.721   4.592   2.351  0.0817  0.4524 -0.6459
  138MOL0     C18105   0.777   4.648   2.480  0.0288 -0.6694  0.0849
  138MOL0     C18106   0.742   4.580   2.613 -0.1421  0.6368 -0.5525
  138MOL0     C18107   0.608   4.631   2.670 -0.1165 -0.1224 -0.1237
  138MOL0     O18108   0.486   4.638   2.584 -0.8890 -0.1473 -0.4838
  138MOL0     C18109   0.369   4.686   2.626  0.4331  0.0941 -0.4844
  138MOL0     C18110   0.344   4.744   2.746 -0.0338 -2.3227 -0.1683
  138MOL0     C18111   0.221   4.783   2.795  0.7017 -0.2862  0.8075
  138MOL0     C18112   0.111   4.788   2.706  0.5626  1.5646 -0.3847
  138MOL0     C18113  -0.019   4.854   2.752 -1.1902 -0.7890 -0.0101
  138MOL0     O18114  -0.118   4.856   2.662 -0.2241 -0.0691  0.1591
  138MOL0     C18115  -0.250   4.895   2.688 -0.0792  0.5547  0.3261
  138MOL0     C18116  -0.278   5.014   2.754  0.3102 -1.0517  0.3740
  138MOL0     C18117  -0.412   5.052   2.777  0.5261 -0.1252  0.7619
  138MOL0     C18118  -0.513   4.961   2.739  0.0640 -0.4646  0.0605
  138MOL0     O18119  -0.645   5.008   2.763  0.2936 -0.1173  0.5083
  138MOL0     C18120  -0.747   4.928   2.710 -0.6430 -0.2169  1.1387
  138MOL0     C18121  -0.881   4.987   2.756  0.2456  0.8539  0.5052
  138MOL0     C18122  -1.001   4.907   2.693 -0.4336 -0.6515 -0.5179
  138MOL0     C18123  -1.132   4.968   2.736 -0.7109  0.0179 -0.2813
  138MOL0     C18124  -1.244   4.885   2.674 -0.0682  0.9706  0.1411
  138MOL0     C18125  -1.385   4.945   2.675  0.3515  0.0830 -0.1895
  138MOL0     C18126  -1.397   5.079   2.601  0.7019 -0.7724  0.4587
  138MOL0     C18127  -1.529   5.101   2.529  0.8485  0.4479 -0.3603
  138MOL0    Cl18128  -1.668   5.121   2.645 -0.2499  0.1907 -0.1170
  138MOL0     C18129  -0.477   4.843   2.668 -0.1894  0.0057 -0.4240
  138MOL0     C18130  -0.349   4.809   2.644  0.4499  0.2140 -0.2523
  138MOL0     O18131  -0.027   4.894   2.868 -0.4255 -0.4656  0.1415
  138MOL0     C18132   0.138   4.747   2.576  0.8231 -0.1039  0.4980
  138MOL0     C18133   0.257   4.685   2.537 -0.6058  1.1403  0.6194
  138MOL0     N18134   0.703   4.794   2.194 -0.7400  0.3358 -0.7798
  138MOL0     N18135   0.773   4.854   2.107 -0.3576  0.3342 -0.0496
  138MOL0     C18136   1.490   5.505   1.601  0.4226 -0.1427  0.4917
  138MOL0     C18137   1.530   5.618   1.524 -0.7926 -0.2771  0.7363
  138MOL0     C18138   1.566   6.105   1.439 -0.1362  0.6544 -0.7797
  138MOL0     C18139   1.521   6.239   1.448  0.7803 -0.8450 -0.2525
  138MOL0     C18140   1.593   6.351   1.389  0.1282 -0.4367 -0.0160
  138MOL0     C18141   1.724   6.327   1.338  0.4774  0.8014  0.7611
  138MOL0     O18142   1.801   6.429   1.297 -0.6167 -0.7165  1.2762
  138MOL0     C18143   1.779   6.565   1.332 -0.1986 -0.2107 -0.6870
  138MOL0     C18144   1.903   6.651   1.280 -0.7124  0.4599 -0.2449
  138MOL0     C18145   1.953   6.615   1.135 -0.5938  0.1867  0.1026
  138MOL0     C18146   2.054   6.722   1.102  0.4750  1.2050 -0.5988
  138MOL0     C18147   2.101   6.699   0.970  0.2461 -1.0438  0.2282
  138MOL0     C18148   2.171   6.693   0.870  1.1909  0.6113 -0.7093
  138MOL0     C18149   1.761   6.196   1.326  0.2221  0.4528  0.5768
  138MOL0     C18150   1.697   6.084   1.381  0.3095 -0.1008 -0.4110
  138MOL0     H18151   1.420   5.857   1.738 -0.6216 -0.1038  1.4235
  138MOL0     H18152   1.370   5.660   1.874  3.6459  1.0739  0.5775
  138MOL0     H18153   1.422   5.469   2.008 -3.3974 -1.7386  0.2290
  138MOL0     H18154   1.571   5.457   1.913  1.3419 -1.5074  2.7720
  138MOL0     H18155   1.587   5.251   2.030  1.5722  3.4542 -0.4339
  138MOL0     H18156   1.523   5.205   1.882 -0.8956  0.7581 -0.9562
  138MOL0     H18157   1.278   5.270   2.008  0.5680  1.8790 -0.5102
  138MOL0     H18158   1.380   5.198   2.129  1.3395  0.8152  0.6679
  138MOL0     H18159   1.335   5.059   1.865  0.4863  3.4011  0.1440
  138MOL0     H18160   1.450   5.003   1.984  0.2251  0.0576 -1.0295
  138MOL0     H18161   1.146   5.015   2.010 -1.1827 -1.3729  0.0395
  138MOL0     H18162   1.261   4.958   2.134  1.0064 -0.4060  0.6942
  138MOL0     H18163   1.318   4.777   2.003 -0.0197 -0.0763 -1.3071
  138MOL0     H18164   1.221   4.834   1.866  1.0565 -0.9105 -0.4923
  138MOL0     H18165   1.122   4.639   2.021 -1.5918 -0.3578 -2.1635
  138MOL0     H18166   1.092   4.776   2.133  1.5543  0.2508  0.0808
  138MOL0     H18167   0.956   4.711   1.884  0.9515  0.9777 -0.8853
  138MOL0     H18168   0.967   4.885   1.927 -1.4260 -0.0506  0.3399
  138MOL0     H18169   0.934   4.576   2.173 -1.6269 -2.3625 -0.9024
  138MOL0     H18170   0.744   4.486   2.346  0.0788  0.4662 -0.9404
  138MOL0     H18171   0.613   4.607   2.363 -0.0873 -1.3880  0.4885
  138MOL0     H18172   0.755   4.755   2.488  3.6032  0.1693  0.3982
  138MOL0     H18173   0.885   4.635   2.473  0.5789  0.9178  3.3679
  138MOL0     H18174   0.737   4.473   2.589 -3.4249  0.3648  0.7359
  138MOL0     H18175   0.819   4.600   2.687  1.5723 -2.5079 -1.3229
  138MOL0     H18176   0.633   4.732   2.702  1.8643 -0.7422  0.4204
  138MOL0     H18177   0.577   4.573   2.758 -0.7342  0.2691 -0.0846
  138MOL0     H18178   0.436   4.753   2.803  0.1008 -0.7484 -0.5858
  138MOL0     H18179   0.199   4.825   2.893 -1.7478 -2.0282  1.1003
  138MOL0     H18180  -0.202   5.085   2.783 -0.6545 -0.4661  1.5689
  138MOL0     H18181  -0.430   5.150   2.819 -0.1421  1.4418 -2.8079
  138MOL0     H18182  -0.736   4.826   2.747 -4.0268 -1.0709  0.1632
  138MOL0     H18183  -0.734   4.904   2.604  1.6056 -1.4381  1.6473
  138MOL0     H18184  -0.890   5.092   2.726 -1.3233  0.0132 -2.3009
  138MOL0     H18185  -0.893   4.971   2.863  1.1878  1.6728  0.7531
  138MOL0     H18186  -0.991   4.802   2.722  0.8628 -0.1920  0.8447
  138MOL0     H18187  -0.992   4.908   2.584 -1.1476  0.3235 -0.5756
  138MOL0     H18188  -1.140   4.975   2.845 -1.2031  0.3252 -0.3327
  138MOL0     H18189  -1.134   5.069   2.693 -3.2886  0.0747 -0.1413
  138MOL0     H18190  -1.248   4.783   2.715  1.8267  0.4140 -0.9344
  138MOL0     H18191  -1.214   4.863   2.572  1.1189 -0.5909  0.7813
  138MOL0     H18192  -1.413   4.958   2.780  2.0414  1.1450  0.1678
  138MOL0     H18193  -1.446   4.866   2.632  1.3252 -0.9332  0.2534
  138MOL0     H18194  -1.372   5.160   2.670  2.3558 -0.0939 -0.8809
  138MOL0     H18195  -1.316   5.085   2.529 -0.7080  0.4363 -1.0898
  138MOL0     H18196  -1.565   5.019   2.466 -1.1424  0.4647  0.6712
  138MOL0     H18197  -1.511   5.182   2.458  4.8237  1.4335  1.4730
  138MOL0     H18198  -0.551   4.777   2.624  0.2001  0.0955 -1.2382
  138MOL0     H18199  -0.318   4.715   2.598  2.8851  0.4320  0.7495
  138MOL0     H18200   0.068   4.737   2.494 -0.4019 -1.3710  1.6664
  138MOL0     H18201   0.273   4.642   2.439  0.9751  2.3488  0.3104
  138MOL0     H18202   1.537   5.410   1.576 -1.0707 -0.5549 -0.8868
  138MOL0     H18203   1.591   5.599   1.436  2.9372 -1.5691  3.3229
  138MOL0     H18204   1.426   6.257   1.498  1.1843 -0.3329  0.3436
  138MOL0     H18205   1.554   6.452   1.394  1.0148  0.0353 -1.7226
  138MOL0     H18206   1.775   6.583   1.440  0.8361  0.8038 -0.7947
  138MOL0     H18207   1.685   6.598   1.287 -0.2233  0.4758 -0.1570
  138MOL0     H18208   1.872   6.755   1.279  1.6845  1.2359 -1.8029
  138MOL0     H18209   1.979   6.627   1.355  0.0657 -1.6845 -1.6058
  138MOL0     H18210   1.866   6.630   1.071  0.1975  2.8225 -0.4732
  138MOL0     H18211   1.995   6.514   1.128 -1.7018 -0.4366  1.7445
  138MOL0     H18212   2.016   6.824   1.108  0.6251  1.1857  1.8595
  138MOL0     H18213   2.136   6.721   1.174 -1.3152  2.6951  1.5978
  138MOL0     H18214   2.243   6.690   0.791 -0.1078  2.4541 -2.0540
  138MOL0     H18215   1.851   6.172   1.270 -0.3707  0.9643 -0.6533
  138MOL0     H18216   1.749   5.989   1.376 -0.5085 -0.6041  0.2239
  139MOL0     O18217   4.286   8.542   9.176  0.1226  0.0858  0.0237
  139MOL0     C18218   4.322   8.458   9.094 -0.6677 -0.0307 -0.0824
  139MOL0     O18219   4.238   8.394   9.000 -1.1665  0.1210 -1.0862
  139MOL0     C18220   4.101   8.416   8.991  0.2889 -0.5891  0.1668
  139MOL0     C18221   4.030   8.311   8.933 -0.5088 -1.0036  0.3203
  139MOL0     C18222   3.900   8.332   8.906  1.2023  0.1756 -0.8990
  139MOL0     C18223   3.826   8.444   8.932 -0.5150 -0.7763 -0.2259
  139MOL0     O18224   3.694   8.449   8.908  0.2569  0.0310 -0.1748
  139MOL0     C18225   3.607   8.549   8.970 -0.1732 -0.3685  0.7368
  139MOL0     C18226   3.462   8.549   8.917  0.0918  0.1357 -0.1086
  139MOL0     C18227   3.387   8.662   8.982 -0.3812 -0.9467 -0.0786
  139MOL0     C18228   3.239   8.689   8.940  0.1356  0.7416 -0.5470
  139MOL0     C18229   3.164   8.770   9.049  0.0020 -0.2311  0.6285
  139MOL0     C18230   3.243   8.891   9.106  0.4715 -0.0010 -0.9804
  139MOL0     C18231   3.129   8.996   9.164 -1.0892 -0.0027  0.6473
  139MOL0     C18232   3.080   8.954   9.303  0.1720 -0.5557  1.1455
  139MOL0     N18233   2.962   9.033   9.333 -0.9847  0.0403  0.3001
  139MOL0     C18234   2.957   9.165   9.371 -0.5656 -0.0231  0.1862
  139MOL0     C18235   2.824   9.186   9.390 -0.4011 -0.2326  0.1557
  139MOL0     C18236   2.757   9.315   9.437 -0.0963 -0.5422 -0.0824
  139MOL0     C18237   2.679   9.376   9.315  0.4165 -0.1478  0.5573
  139MOL0     C18238   2.767   9.392   9.183 -0.7288  0.3132 -0.0878
  139MOL0     C18239   2.862   9.516   9.190  0.0363 -0.4628  0.0229
  139MOL0     O18240   2.793   9.637   9.175  1.2802 -0.2585  0.4261
  139MOL0     C18241   2.696   9.646   9.079  0.3325 -0.7585 -0.6348
  139MOL0     C18242   2.726   9.602   8.945  0.2297 -0.2092 -0.1463
  139MOL0     C18243   2.622   9.616   8.847  0.0708  0.3138  0.0272
  139MOL0     C18244   2.497   9.681   8.872  0.6456  0.5847  0.0924
  139MOL0     C18245   2.397   9.715   8.774  0.0685  0.4590 -0.6962
  139MOL0     O18246   2.293   9.788   8.824 -0.3205  0.1535 -0.1962
  139MOL0     C18247   2.174   9.811   8.755 -0.0298 -0.0075 -0.2928
  139MOL0     C18248   2.084   9.718   8.726  0.3445  0.2482  0.3464
  139MOL0     C18249   1.974   9.753   8.651  0.2096  0.8448  0.2392
  139MOL0     C18250   1.953   9.872   8.590 -0.3783  0.1150 -0.0879
  139MOL0     O18251   1.825   9.883   8.533  0.1132 -0.0603  0.6758
  139MOL0     C18252   1.770  10.006   8.478 -1.2120 -0.0349  0.1630
  139MOL0     C18253   1.637  10.004   8.423  0.2187 -0.2698  0.2575
  139MOL0     C18254   1.641   9.911   8.293  0.2156  0.0684  0.6097
  139MOL0     C18255   1.497   9.889   8.237 -0.3203  0.7876  1.0133
  139MOL0     C18256   1.384   9.844   8.337  0.4892 -0.4778  0.3412
  139MOL0     C18257   1.282   9.756   8.265 -0.3232 -0.0867  0.0554
  139MOL0     C18258   1.152   9.739   8.351 -0.0281 -0.7619  0.1566
  139MOL0     C18259   1.063   9.863   8.352 -0.4473  0.0730 -0.9109
  139MOL0    Cl18260   1.026   9.901   8.186  0.6306 -0.2039  0.3799
  139MOL0     C18261   2.044   9.969   8.616  0.6052  0.3552  0.5309
  139MOL0     C18262   2.153   9.941   8.697  0.1126 -0.1511 -0.3533
  139MOL0     O18263   2.408   9.675   8.655 -0.4943 -0.1943  0.5563
  139MOL0     C18264   2.466   9.706   9.007 -0.1229 -0.3579 -0.1705
  139MOL0     C18265   2.567   9.691   9.109 -0.1694  0.2453  0.6580
  139MOL0     N18266   2.750   9.071   9.366  0.7214 -0.5005  0.3389
  139MOL0     N18267   2.834   8.992   9.309 -0.3762  0.0081 -0.3896
  139MOL0     C18268   3.901   8.539   9.006 -0.1919 -0.0824  0.7457
  139MOL0     C18269   4.033   8.530   9.025  0.3126 -0.0622 -0.5354
  139MOL0     C18270   4.467   8.416   9.106 -0.3386  1.1651 -0.5962
  139MOL0     C18271   4.553   8.482   9.202  0.0606  0.4489 -0.4565
  139MOL0     C18272   4.680   8.447   9.213 -0.6242  0.2915  0.2608
  139MOL0     C18273   4.729   8.341   9.137  0.4538  0.5752  0.1511
  139MOL0     O18274   4.863   8.303   9.146 -0.3468  0.8055  0.3375
  139MOL0     C18275   4.948   8.345   9.045  0.1551 -0.3309  0.0491
  139MOL0     C18276   5.006   8.487   9.075 -0.2427 -0.5196 -0.6424
  139MOL0     C18277   5.111   8.534   8.971  0.1837  0.4273  0.7068
  139MOL0     C18278   5.243   8.452   8.989  0.7754  0.6585 -0.2991
  139MOL0     C18279   5.334   8.495   8.883  0.5908  0.3809 -0.2677
  139MOL0     C18280   5.405   8.532   8.799 -0.2894  0.1973  1.1379
  139MOL0     C18281   4.648   8.266   9.053  0.8303  0.5782 -0.0963
  139MOL0     C18282   4.518   8.307   9.029  0.1221 -0.1330 -1.3082
  139MOL0     H18283   4.086   8.224   8.900  1.7701 -1.0268  3.7289
  139MOL0     H18284   3.842   8.250   8.866  0.4247  0.5407 -0.5422
  139MOL0     H18285   3.647   8.648   8.948  0.4346 -0.8969 -0.6511
  139MOL0     H18286   3.602   8.530   9.078  0.1213  0.2464  0.8648
  139MOL0     H18287   3.419   8.450   8.932 -0.7577  0.4705 -0.2934
  139MOL0     H18288   3.455   8.560   8.808 -0.3763 -5.0525 -0.8363
  139MOL0     H18289   3.441   8.754   8.959  0.4134 -1.5251 -0.5787
  139MOL0     H18290   3.391   8.632   9.087  2.0640 -2.2987 -0.4905
  139MOL0     H18291   3.241   8.732   8.840 -1.0817  0.4250 -0.7233
  139MOL0     H18292   3.195   8.590   8.923 -0.9967  1.3188 -1.0286
  139MOL0     H18293   3.140   8.687   9.116  2.3220 -1.7460 -0.2957
  139MOL0     H18294   3.066   8.801   9.011 -0.5771  0.3055  2.4727
  139MOL0     H18295   3.295   8.933   9.019 -0.4071 -3.0386 -3.1431
  139MOL0     H18296   3.318   8.886   9.186  0.0820  3.9266 -0.1530
  139MOL0     H18297   3.177   9.094   9.170  1.6200 -0.9767 -2.2121
  139MOL0     H18298   3.054   9.008   9.086 -0.6994 -1.2320  0.0494
  139MOL0     H18299   3.148   8.972   9.387  1.4272  0.4423 -0.0349
  139MOL0     H18300   3.067   8.846   9.299 -0.1241 -0.4762 -0.4370
  139MOL0     H18301   3.040   9.230   9.399 -1.1814 -0.7398  4.5118
  139MOL0     H18302   2.839   9.379   9.471 -0.0774  1.2540 -3.1756
  139MOL0     H18303   2.696   9.292   9.525 -1.2780  3.9326  0.4955
  139MOL0     H18304   2.653   9.467   9.371 -0.0194  1.1304 -1.6239
  139MOL0     H18305   2.593   9.315   9.285  2.3293 -1.2545 -3.3120
  139MOL0     H18306   2.824   9.300   9.166 -2.2273 -1.0305  1.7437
  139MOL0     H18307   2.697   9.405   9.101 -0.6400  0.1630 -0.1882
  139MOL0     H18308   2.948   9.511   9.123 -0.8044  0.9754 -1.2425
  139MOL0     H18309   2.914   9.516   9.286  1.0870 -2.4942 -0.4833
  139MOL0     H18310   2.818   9.551   8.918 -0.0475  0.3937 -2.4916
  139MOL0     H18311   2.655   9.593   8.746  1.2235  1.4467  0.1171
  139MOL0     H18312   2.103   9.621   8.771 -3.2156 -0.9617 -0.4275
  139MOL0     H18313   1.901   9.672   8.646  0.7599  0.3916 -0.7512
  139MOL0     H18314   1.836  10.041   8.398 -0.9013  0.0841  0.4702
  139MOL0     H18315   1.768  10.085   8.554  0.0889  0.4525 -0.2806
  139MOL0     H18316   1.600  10.106   8.404 -2.0563 -1.3727 -1.8244
  139MOL0     H18317   1.585   9.958   8.508  0.6012  1.7662  1.6718
  139MOL0     H18318   1.669   9.810   8.325  2.2922 -0.0292 -1.2590
  139MOL0     H18319   1.703   9.946   8.210 -1.7305  0.2945 -0.8050
  139MOL0     H18320   1.472   9.975   8.173  1.5301 -0.2337 -1.2280
  139MOL0     H18321   1.520   9.811   8.164  3.5292  1.4017  1.3310
  139MOL0     H18322   1.337   9.939   8.363 -1.7950 -0.5367 -3.0267
  139MOL0     H18323   1.427   9.773   8.408 -0.9291 -1.8887 -0.1555
  139MOL0     H18324   1.335   9.666   8.234 -1.2826 -0.4744 -0.5327
  139MOL0     H18325   1.270   9.808   8.170 -1.7622  0.5170  0.5329
  139MOL0     H18326   1.084   9.664   8.310 -0.8893 -0.1576  0.4421
  139MOL0     H18327   1.193   9.708   8.447  0.2593  0.4588  0.4524
  139MOL0     H18328   1.117   9.940   8.407 -2.9446 -0.7270  3.0618
  139MOL0     H18329   0.969   9.848   8.406  0.1108  0.9211  0.3289
  139MOL0     H18330   2.035  10.070   8.578  2.6658  0.5348  0.4103
  139MOL0     H18331   2.223  10.012   8.739 -0.4597 -0.6149  1.4871
  139MOL0     H18332   2.377   9.763   9.031 -0.5447  1.0601 -4.2565
  139MOL0     H18333   2.526   9.726   9.203 -1.6467  3.9349 -1.1750
  139MOL0     H18334   3.858   8.631   9.044  1.9004  0.7928  1.1331
  139MOL0     H18335   4.090   8.620   9.045 -0.3922  0.4702 -0.9042
  139MOL0     H18336   4.511   8.559   9.266 -0.3327  0.7609 -1.0931
  139MOL0     H18337   4.741   8.509   9.278 -0.5406  1.4693 -0.9000
  139MOL0     H18338   4.887   8.341   8.954  2.6772 -3.4539 -1.7424
  139MOL0     H18339   5.023   8.270   9.017  0.7933 -0.9397  3.0537
  139MOL0     H18340   4.923   8.558   9.067 -0.3222 -0.3883  0.9392
  139MOL0     H18341   5.042   8.489   9.179 -1.8398 -1.5690 -0.0349
  139MOL0     H18342   5.124   8.642   8.981 -1.9031  0.9882 -1.4628
  139MOL0     H18343   5.068   8.511   8.873  0.3192  3.4764 -0.1734
  139MOL0     H18344   5.289   8.490   9.081  0.6219  1.4988 -0.5623
  139MOL0     H18345   5.234   8.343   8.992 -0.2090  0.7259 -0.5628
  139MOL0     H18346   5.479   8.569   8.730 -0.1500 -3.0178 -0.6184
  139MOL0     H18347   4.677   8.168   9.016 -2.7686 -0.6813  0.0316
  139MOL0     H18348   4.461   8.270   8.945 -0.7427 -0.5165 -0.5703
  140MOL0     O18349   9.459   9.144   8.193 -0.2320 -0.1768  0.2562
  140MOL0     C18350   9.422   9.129   8.084 -1.1117 -0.3728 -0.0971
  140MOL0     O18351   9.296   9.098   8.046 -1.4482  0.9225 -0.3337
  140MOL0     C18352   9.175   9.153   8.087  0.5470 -0.3509  1.0945
  140MOL0     C18353   9.154   9.241   8.193 -0.0893 -0.0936 -0.0461
  140MOL0     C18354   9.022   9.284   8.224 -0.4314  0.9532 -0.3622
  140MOL0     C18355   8.908   9.241   8.158 -0.3931 -0.1459 -0.1041
  140MOL0     O18356   8.780   9.285   8.192 -0.4638  0.0953 -0.7807
  140MOL0     C18357   8.663   9.256   8.118 -0.2632  0.2975  1.1562
  140MOL0     C18358   8.541   9.284   8.195  1.0182 -0.2785 -0.4912
  140MOL0     C18359   8.413   9.281   8.116  0.2913 -0.1829 -0.1994
  140MOL0     C18360   8.301   9.341   8.202 -0.4977 -0.6820 -0.6934
  140MOL0     C18361   8.174   9.381   8.119 -1.0956  0.8674 -0.0308
  140MOL0     C18362   8.194   9.503   8.037  0.3575  0.4780 -0.3396
  140MOL0     C18363   8.064   9.549   7.983  0.0315  0.7350  0.5748
  140MOL0     C18364   8.084   9.656   7.872  0.7066 -0.0943  0.4734
  140MOL0     N18365   7.947   9.704   7.823 -1.1530  0.5166  0.2517
  140MOL0     C18366   7.860   9.625   7.755  0.2772  0.2329  0.1373
  140MOL0     C18367   7.742   9.685   7.753 -0.3388 -0.3142  0.4018
  140MOL0     C18368   7.610   9.644   7.692  0.3133 -0.3875 -0.5718
  140MOL0     C18369   7.518   9.587   7.802 -0.0800 -0.3822  0.5118
  140MOL0     C18370   7.565   9.464   7.879 -0.0246 -0.0768 -0.2313
  140MOL0     C18371   7.519   9.328   7.826  0.2610 -0.0767 -0.9829
  140MOL0     O18372   7.554   9.290   7.700  0.6017  0.2780  0.7418
  140MOL0     C18373   7.690   9.280   7.664  0.0856  0.0863  0.0232
  140MOL0     C18374   7.714   9.248   7.530 -0.3021  0.0731 -0.0637
  140MOL0     C18375   7.839   9.237   7.487 -0.2861 -0.1453  0.9651
  140MOL0     C18376   7.951   9.251   7.563 -0.1763  0.8949  0.1468
  140MOL0     C18377   8.089   9.252   7.515 -0.3158  0.2179  0.5330
  140MOL0     O18378   8.175   9.323   7.595  0.1425 -0.2474 -0.1586
  140MOL0     C18379   8.311   9.311   7.603  0.7081 -0.6190 -0.8817
  140MOL0     C18380   8.392   9.298   7.495  0.8139 -0.9690 -0.0677
  140MOL0     C18381   8.537   9.279   7.506 -0.1179  0.2912  0.3930
  140MOL0     C18382   8.600   9.276   7.627  0.2572  0.8063  0.2927
  140MOL0     O18383   8.736   9.261   7.653 -0.6020 -0.4990  0.0536
  140MOL0     C18384   8.822   9.352   7.577  0.2654  0.2654  0.1421
  140MOL0     C18385   8.968   9.331   7.606  0.2510  0.4724 -0.2628
  140MOL0     C18386   9.018   9.191   7.555  0.1160  0.6467 -0.1071
  140MOL0     C18387   9.163   9.164   7.587  0.0159  0.1235 -1.1388
  140MOL0     C18388   9.207   9.032   7.523 -0.2958  0.5817 -0.6420
  140MOL0     C18389   9.275   9.058   7.383  0.2851  0.5859  0.1926
  140MOL0     C18390   9.416   9.128   7.391 -0.2332 -0.6120  0.9733
  140MOL0     C18391   9.521   9.042   7.465 -0.1129  0.1344  0.0103
  140MOL0    Cl18392   9.534   8.896   7.369  0.3637  0.2227  0.3136
  140MOL0     C18393   8.518   9.290   7.742  0.3028  0.4770  0.3953
  140MOL0     C18394   8.378   9.309   7.726 -0.7950  0.5296 -0.0295
  140MOL0     O18395   8.123   9.204   7.405 -0.6289 -0.2902 -0.1134
  140MOL0     C18396   7.930   9.271   7.698 -0.7395 -0.1127  0.0746
  140MOL0     C18397   7.800   9.282   7.750  0.4488  0.0178 -0.7497
  140MOL0     N18398   7.760   9.809   7.821  0.0178  0.5651  0.1323
  140MOL0     N18399   7.884   9.815   7.861 -0.4998  1.1677 -0.2930
  140MOL0     C18400   8.935   9.151   8.052  0.9971 -1.0133  0.6564
  140MOL0     C18401   9.061   9.104   8.022  0.3583 -0.3471  0.6846
  140MOL0     C18402   9.531   9.156   7.984  0.1882  0.8194 -0.0783
  140MOL0     C18403   9.492   9.157   7.850  0.6013 -0.5688 -0.5947
  140MOL0     C18404   9.585   9.211   7.762  0.3070  0.5332 -0.8291
  140MOL0     C18405   9.716   9.249   7.787 -0.1114 -0.4639 -0.7946
  140MOL0     O18406   9.803   9.271   7.684 -0.3951  0.3702 -0.0656
  140MOL0     C18407   9.921   9.351   7.715 -0.5207  0.4831  1.2819
  140MOL0     C18408   9.966   9.426   7.586 -0.5197 -0.3364  0.0336
  140MOL0     C18409  10.074   9.531   7.613  0.0809  0.6463 -0.3745
  140MOL0     C18410  10.124   9.598   7.491  0.1413  0.3654  0.4991
  140MOL0     C18411  10.229   9.692   7.514 -0.3380 -0.8807 -0.2255
  140MOL0     C18412  10.321   9.772   7.509 -0.1399 -0.0030  0.4048
  140MOL0     C18413   9.753   9.237   7.925 -0.1997  1.3851 -0.1942
  140MOL0     C18414   9.657   9.200   8.023 -0.1393  0.3107 -0.0743
  140MOL0     H18415   9.243   9.271   8.247  1.8869 -1.6778 -2.1903
  140MOL0     H18416   9.001   9.353   8.306  1.3738  0.8162  0.2524
  140MOL0     H18417   8.674   9.148   8.101  0.4024  0.8904 -3.1746
  140MOL0     H18418   8.658   9.303   8.020 -4.5364 -0.0805  1.0354
  140MOL0     H18419   8.558   9.385   8.234  1.4512 -0.9244  1.1135
  140MOL0     H18420   8.534   9.212   8.277  0.6288 -1.1785 -1.3086
  140MOL0     H18421   8.387   9.181   8.081  2.7082 -1.0224  0.2175
  140MOL0     H18422   8.409   9.351   8.032 -1.7967  1.6011  1.2623
  140MOL0     H18423   8.276   9.268   8.279  0.2521  0.2316  0.4468
  140MOL0     H18424   8.330   9.436   8.247 -0.2267 -0.3104 -1.6182
  140MOL0     H18425   8.088   9.392   8.186 -1.1387 -0.9696  0.2581
  140MOL0     H18426   8.152   9.303   8.046 -0.8282  3.2551 -2.8403
  140MOL0     H18427   8.263   9.480   7.956  2.7455 -0.0517  1.7159
  140MOL0     H18428   8.240   9.590   8.085  0.9451  0.2572 -0.4911
  140MOL0     H18429   8.011   9.463   7.941 -0.6319  1.4243 -0.0319
  140MOL0     H18430   7.996   9.589   8.059  0.2395  1.3443  0.4534
  140MOL0     H18431   8.139   9.611   7.788  0.3751 -2.3800  1.3899
  140MOL0     H18432   8.137   9.744   7.909  1.7198 -1.1207  1.5624
  140MOL0     H18433   7.886   9.531   7.707  1.0192  0.0722  0.8357
  140MOL0     H18434   7.623   9.565   7.617 -0.9919 -1.6743  0.5044
  140MOL0     H18435   7.572   9.734   7.643  5.4658  2.2661 -0.4681
  140MOL0     H18436   7.427   9.562   7.747 -0.3741 -0.1838  0.9065
  140MOL0     H18437   7.501   9.670   7.871  0.9236  1.2371 -1.0918
  140MOL0     H18438   7.675   9.463   7.874 -0.0484 -2.5303 -2.0605
  140MOL0     H18439   7.540   9.465   7.985  0.5937 -2.7385  0.0264
  140MOL0     H18440   7.410   9.318   7.823  0.0273  2.2160 -1.7009
  140MOL0     H18441   7.556   9.252   7.895 -1.5957 -0.4274 -0.3123
  140MOL0     H18442   7.625   9.236   7.470 -0.1172 -1.8948 -0.0157
  140MOL0     H18443   7.839   9.217   7.381  1.5893 -0.7116  1.0303
  140MOL0     H18444   8.347   9.286   7.397  0.1919 -0.6065  0.1761
  140MOL0     H18445   8.600   9.254   7.421  0.9835 -2.0787  1.8375
  140MOL0     H18446   8.797   9.456   7.597 -3.0030 -0.3987  0.0507
  140MOL0     H18447   8.813   9.319   7.473 -1.2044 -1.9737  0.9060
  140MOL0     H18448   8.976   9.334   7.715 -2.2834 -1.1557  0.0473
  140MOL0     H18449   9.029   9.406   7.556 -0.7553  1.1017 -0.5765
  140MOL0     H18450   9.004   9.186   7.446  0.4991 -1.9790 -0.1058
  140MOL0     H18451   8.957   9.109   7.594  0.1662 -0.4000 -2.0624
  140MOL0     H18452   9.223   9.250   7.555  1.8002 -0.8404 -0.5507
  140MOL0     H18453   9.162   9.155   7.695 -2.6761  0.8737 -1.0207
  140MOL0     H18454   9.125   8.961   7.509  0.6515 -0.0752 -3.5069
  140MOL0     H18455   9.282   8.980   7.583  0.2111  1.7389 -0.2302
  140MOL0     H18456   9.204   9.120   7.327 -0.1365  1.4418  1.6331
  140MOL0     H18457   9.298   8.963   7.333 -2.0574  0.3218 -0.4819
  140MOL0     H18458   9.448   9.139   7.287 -0.1895 -2.0121  0.8172
  140MOL0     H18459   9.414   9.229   7.432 -2.0208  1.0394 -2.7461
  140MOL0     H18460   9.487   9.018   7.566 -2.0484  0.1281 -0.5901
  140MOL0     H18461   9.619   9.089   7.462 -0.0861  0.1564  0.9790
  140MOL0     H18462   8.574   9.289   7.835  0.8476 -0.6144  0.0741
  140MOL0     H18463   8.318   9.335   7.813  0.9156  1.7144  0.8683
  140MOL0     H18464   8.009   9.277   7.772  1.7829 -3.8272 -1.9718
  140MOL0     H18465   7.787   9.292   7.857  1.2396  0.3798 -0.6742
  140MOL0     H18466   8.864   9.113   7.979  3.1527  0.9601 -2.7815
  140MOL0     H18467   9.087   9.037   7.941 -3.0704  0.6787 -1.4843
  140MOL0     H18468   9.392   9.122   7.825 -0.0368  1.0810 -0.4410
  140MOL0     H18469   9.547   9.218   7.660 -1.7683 -2.7564 -0.4351
  140MOL0     H18470  10.009   9.302   7.757 -0.2457  3.0721  4.0174
  140MOL0     H18471   9.891   9.427   7.787  0.5706  0.4592  1.7800
  140MOL0     H18472  10.004   9.356   7.511  0.9225  1.1757 -0.7259
  140MOL0     H18473   9.886   9.486   7.542 -0.7855 -0.0208  0.9379
  140MOL0     H18474  10.150   9.496   7.683 -3.4421 -1.0579  2.9990
  140MOL0     H18475  10.016   9.602   7.673 -0.2791 -0.0553  0.1241
  140MOL0     H18476  10.161   9.523   7.420 -3.1168 -0.9711  0.0338
  140MOL0     H18477  10.045   9.650   7.436  0.7020  2.0748  1.2516
  140MOL0     H18478  10.415   9.825   7.507  0.0730 -0.3907 -0.2985
  140MOL0     H18479   9.851   9.263   7.965 -0.7307  2.6761  0.3302
  140MOL0     H18480   9.682   9.193   8.128 -1.7972 -1.4409  0.2722
  141MOL0     O18481   4.194   3.930   4.780  0.4018 -0.1719 -0.1028
  141MOL0     C18482   4.219   4.036   4.835  0.2821 -0.3118 -0.0335
  141MOL0     O18483   4.148   4.089   4.940 -0.6241 -0.5889 -0.3187
  141MOL0     C18484   4.047   4.023   5.000  0.3381 -0.7389 -0.0769
  141MOL0     C18485   3.935   4.083   5.046 -0.1127  0.1503 -0.2487
  141MOL0     C18486   3.828   4.013   5.095 -0.3247  0.5311  0.1007
  141MOL0     C18487   3.841   3.871   5.122  0.6365 -1.2590  0.0157
  141MOL0     O18488   3.739   3.792   5.176 -0.6260 -0.1625  0.7594
  141MOL0     C18489   3.606   3.826   5.156  0.1332  0.6254  0.1959
  141MOL0     C18490   3.527   3.834   5.288 -0.1774 -0.0930  0.0639
  141MOL0     C18491   3.378   3.817   5.267  0.5304 -0.0219 -0.1245
  141MOL0     C18492   3.327   3.665   5.241  0.0169  0.5601  1.3837
  141MOL0     C18493   3.168   3.654   5.252 -0.4083  0.0215  0.6928
  141MOL0     C18494   3.108   3.696   5.392 -0.6818  0.2448 -0.2181
  141MOL0     C18495   3.164   3.623   5.512  0.9222  0.0914 -0.4487
  141MOL0     C18496   3.077   3.655   5.641  0.5354 -0.3439  0.0460
  141MOL0     N18497   2.938   3.614   5.628  0.8649 -0.9164 -0.2485
  141MOL0     C18498   2.833   3.698   5.665 -0.0871  1.6023  0.7849
  141MOL0     C18499   2.715   3.639   5.632  0.2181  1.1388  0.2084
  141MOL0     C18500   2.577   3.702   5.646  0.0082 -0.4181 -0.3972
  141MOL0     C18501   2.548   3.751   5.790 -0.4493  0.5973  0.3290
  141MOL0     C18502   2.431   3.858   5.799 -0.0909  0.5243 -0.1086
  141MOL0     C18503   2.415   3.917   5.940  0.4011 -0.3357 -0.4898
  141MOL0     O18504   2.301   4.015   5.929 -0.0467 -0.1676 -0.9567
  141MOL0     C18505   2.170   3.990   5.970 -0.6698 -0.3254  0.2171
  141MOL0     C18506   2.114   3.870   6.021  0.0157 -0.1639 -0.6661
  141MOL0     C18507   1.979   3.864   6.046  0.3917 -0.3160  0.0376
  141MOL0     C18508   1.893   3.969   6.014 -0.6919 -0.2386 -0.2743
  141MOL0     C18509   1.753   3.944   6.041  0.7222 -0.6658 -0.3030
  141MOL0     O18510   1.673   4.040   5.983  0.7242  0.3556 -0.0770
  141MOL0     C18511   1.537   4.051   5.999  1.0347 -0.6146 -0.7139
  141MOL0     C18512   1.451   3.944   6.010  0.5617 -0.2208  0.2079
  141MOL0     C18513   1.309   3.956   6.025 -0.2868 -0.6174  0.4044
  141MOL0     C18514   1.253   4.089   6.028  0.2698 -0.5461  0.4787
  141MOL0     O18515   1.112   4.108   6.049 -1.0228 -0.0690 -0.7462
  141MOL0     C18516   1.030   4.012   5.987 -1.0501  0.8809 -0.7579
  141MOL0     C18517   0.983   3.909   6.090  0.2181 -0.6446  0.2241
  141MOL0     C18518   0.872   3.962   6.178  0.3513  0.1434  0.2421
  141MOL0     C18519   0.722   3.966   6.126  0.4358 -0.3944 -0.5574
  141MOL0     C18520   0.628   4.013   6.233 -0.0221 -0.1067  0.5698
  141MOL0     C18521   0.479   4.008   6.195  0.5389 -0.7139 -0.4737
  141MOL0     C18522   0.374   4.018   6.316 -0.3860 -0.9793  0.5164
  141MOL0     C18523   0.250   4.092   6.266 -0.1777  0.6622  1.0718
  141MOL0    Cl18524   0.112   4.095   6.398  0.7516  0.3660 -0.0729
  141MOL0     C18525   1.335   4.195   6.005  0.4982  0.0293 -0.6744
  141MOL0     C18526   1.473   4.176   5.992  0.4857  0.0670 -0.3184
  141MOL0     O18527   1.715   3.857   6.113 -0.5255  0.1755 -0.1874
  141MOL0     C18528   1.942   4.078   5.957 -0.4186  0.2691  0.3383
  141MOL0     C18529   2.080   4.089   5.923  0.2181  0.5638 -0.3903
  141MOL0     N18530   2.753   3.526   5.562 -0.6293 -0.0711  0.0930
  141MOL0     N18531   2.883   3.511   5.565  0.1057  0.1685 -0.2155
  141MOL0     C18532   3.960   3.812   5.096  0.1160  0.0313  0.3709
  141MOL0     C18533   4.061   3.890   5.036 -0.3772 -0.7015  0.2290
  141MOL0     C18534   4.340   4.109   4.788 -1.1611 -0.1154  0.9090
  141MOL0     C18535   4.418   4.065   4.683  1.0692  0.0201 -0.4597
  141MOL0     C18536   4.524   4.144   4.635 -1.0280  0.5997 -0.5175
  141MOL0     C18537   4.552   4.271   4.686 -0.5350  0.1019 -0.0146
  141MOL0     O18538   4.650   4.344   4.633  0.1806 -0.0013 -0.3294
  141MOL0     C18539   4.644   4.487   4.669 -0.4447 -0.3480  0.8021
  141MOL0     C18540   4.752   4.550   4.582 -0.1435 -0.0169 -0.0616
  141MOL0     C18541   4.802   4.685   4.634  0.0387 -0.9335  0.1477
  141MOL0     C18542   4.919   4.736   4.551 -0.8747  0.7267 -0.0261
  141MOL0     C18543   4.959   4.862   4.606  0.6187  0.0033  0.3586
  141MOL0     C18544   5.008   4.966   4.638  0.3311  0.7647 -0.8523
  141MOL0     C18545   4.478   4.310   4.793 -0.2363  0.6298  0.4356
  141MOL0     C18546   4.369   4.237   4.838 -0.4395  0.1078  0.9771
  141MOL0     H18547   3.925   4.190   5.036  1.5353  0.3949  0.2836
  141MOL0     H18548   3.742   4.064   5.137 -0.2016 -0.1869  1.2713
  141MOL0     H18549   3.560   3.744   5.100 -2.4255  0.9437  1.6658
  141MOL0     H18550   3.585   3.921   5.106 -3.3806  0.3415  0.8588
  141MOL0     H18551   3.542   3.932   5.335  0.4282 -0.3195  0.3579
  141MOL0     H18552   3.567   3.760   5.357 -0.0018  1.3270  1.5378
  141MOL0     H18553   3.354   3.885   5.184  1.6305  1.0738  0.4227
  141MOL0     H18554   3.331   3.856   5.358  0.5809 -0.8218  0.2506
  141MOL0     H18555   3.358   3.617   5.148 -0.0957 -0.4808  1.8636
  141MOL0     H18556   3.369   3.604   5.322  0.5202 -1.1987 -0.1430
  141MOL0     H18557   3.134   3.553   5.230  2.5761 -0.5009 -2.4119
  141MOL0     H18558   3.128   3.715   5.171  0.7171 -1.8647 -1.4257
  141MOL0     H18559   3.001   3.683   5.377 -0.3765  0.7894 -3.7085
  141MOL0     H18560   3.120   3.805   5.401 -0.0283  0.3353 -1.8279
  141MOL0     H18561   3.162   3.515   5.494  1.2679  0.3846 -2.4401
  141MOL0     H18562   3.267   3.653   5.537  0.4745  0.4759  1.0125
  141MOL0     H18563   3.096   3.762   5.651  0.4051 -0.1307 -1.6580
  141MOL0     H18564   3.113   3.607   5.732  0.8225 -1.6012 -0.7175
  141MOL0     H18565   2.854   3.788   5.721  3.4990  2.3678 -1.4512
  141MOL0     H18566   2.506   3.625   5.614 -0.3414 -0.1049 -0.3793
  141MOL0     H18567   2.565   3.787   5.578  2.9382 -0.3035 -0.9183
  141MOL0     H18568   2.639   3.777   5.846  0.8514 -1.9398 -0.4190
  141MOL0     H18569   2.530   3.655   5.840  2.3358  0.6764  1.7148
  141MOL0     H18570   2.451   3.938   5.728  0.7646 -0.8806 -1.5043
  141MOL0     H18571   2.335   3.815   5.769 -0.5026 -0.5066  2.3690
  141MOL0     H18572   2.508   3.968   5.966  0.1265  0.2572 -0.6547
  141MOL0     H18573   2.397   3.841   6.017 -2.4980  1.2853  0.5822
  141MOL0     H18574   2.173   3.783   6.047 -2.8291 -1.2411  3.3426
  141MOL0     H18575   1.940   3.773   6.089  0.1833 -0.7547 -1.0496
  141MOL0     H18576   1.484   3.843   5.985 -2.6634 -1.2611 -0.3894
  141MOL0     H18577   1.253   3.865   6.038 -2.1839  0.2015 -1.3902
  141MOL0     H18578   1.078   3.972   5.897  0.7211 -0.0309  0.5159
  141MOL0     H18579   0.948   4.067   5.942 -1.0552  1.9669  0.5046
  141MOL0     H18580   1.069   3.885   6.154 -0.1078  1.0123  1.3569
  141MOL0     H18581   0.948   3.814   6.048  2.8491 -1.6698  0.1306
  141MOL0     H18582   0.906   4.064   6.196  0.4780  0.6841 -2.5519
  141MOL0     H18583   0.880   3.901   6.269 -0.7095  0.8278  0.8100
  141MOL0     H18584   0.713   4.037   6.044 -1.4567 -0.0195 -0.0773
  141MOL0     H18585   0.692   3.866   6.091  3.4480 -1.4101 -0.5392
  141MOL0     H18586   0.648   4.110   6.280  0.5251 -0.4812  1.1276
  141MOL0     H18587   0.647   3.940   6.311 -1.1594  1.2617  2.1964
  141MOL0     H18588   0.451   3.914   6.146  0.3599 -1.1011  0.3485
  141MOL0     H18589   0.461   4.091   6.126  1.0465  1.0369  1.4014
  141MOL0     H18590   0.348   3.917   6.350  0.9136 -0.7956  2.1917
  141MOL0     H18591   0.408   4.086   6.394 -0.2905  0.5702 -0.8270
  141MOL0     H18592   0.211   4.031   6.184  0.0352 -0.9020  2.0844
  141MOL0     H18593   0.264   4.198   6.246 -4.7685  1.8381  2.7851
  141MOL0     H18594   1.290   4.293   6.010  2.0816  0.7162  1.5330
  141MOL0     H18595   1.547   4.253   5.975  1.2051 -0.2661  1.1219
  141MOL0     H18596   1.865   4.150   5.930  0.1575  0.6934 -0.1885
  141MOL0     H18597   2.109   4.178   5.868 -2.0760 -0.1421 -2.9426
  141MOL0     H18598   3.971   3.705   5.113  1.0848  0.1831  0.7828
  141MOL0     H18599   4.156   3.847   5.007  0.6800  0.6840  1.5347
  141MOL0     H18600   4.416   3.965   4.640  2.0276 -0.8852  1.4858
  141MOL0     H18601   4.594   4.119   4.556 -2.1429 -0.3731 -1.2313
  141MOL0     H18602   4.667   4.499   4.775 -0.3350  0.5873  0.6763
  141MOL0     H18603   4.551   4.530   4.631  0.5599  1.3504  0.1946
  141MOL0     H18604   4.839   4.486   4.590  0.7902  1.1269 -0.7506
  141MOL0     H18605   4.715   4.545   4.479 -0.0650  1.8042 -0.2190
  141MOL0     H18606   4.837   4.689   4.737  0.0913  1.1058  0.0830
  141MOL0     H18607   4.723   4.754   4.604  1.1841 -0.1585 -1.2298
  141MOL0     H18608   4.993   4.656   4.560 -1.6230 -0.0877 -0.9533
  141MOL0     H18609   4.891   4.734   4.445 -0.5799  2.6614 -0.1829
  141MOL0     H18610   5.038   5.067   4.656 -2.0390  0.9405  3.3337
  141MOL0     H18611   4.485   4.404   4.846 -3.5863  0.9777  0.4408
  141MOL0     H18612   4.302   4.274   4.915 -0.0570 -1.8711  2.3319
  142MOL0     O18613   8.987   4.284   5.586  0.3165  0.3834 -0.3199
  142MOL0     C18614   8.895   4.365   5.565  0.5987  0.5694  0.2424
  142MOL0     O18615   8.760   4.335   5.564 -0.3932  0.4855  0.4683
  142MOL0     C18616   8.721   4.211   5.541 -0.4617  0.4166  0.2787
  142MOL0     C18617   8.786   4.123   5.454  0.2301  0.1663 -0.7761
  142MOL0     C18618   8.741   3.986   5.456 -0.0171  0.1794 -0.1210
  142MOL0     C18619   8.641   3.944   5.550  0.6533 -0.9545  0.4601
  142MOL0     O18620   8.605   3.810   5.531  0.6558  0.2654 -1.0415
  142MOL0     C18621   8.468   3.781   5.529  1.1200  0.0203  0.5881
  142MOL0     C18622   8.436   3.652   5.452 -0.2238 -0.0986  0.6798
  142MOL0     C18623   8.294   3.612   5.480  0.1455 -0.0431 -0.2887
  142MOL0     C18624   8.280   3.482   5.403  0.7493 -0.3553  0.8477
  142MOL0     C18625   8.145   3.426   5.432 -1.4871 -0.1430  0.6291
  142MOL0     C18626   8.102   3.318   5.337  0.6140 -0.4054  0.4191
  142MOL0     C18627   7.961   3.261   5.374 -0.1517 -0.2705 -0.7356
  142MOL0     C18628   7.836   3.353   5.369 -0.2392 -0.5176  1.0232
  142MOL0     N18629   7.730   3.337   5.262  0.3236 -0.7074  0.6228
  142MOL0     C18630   7.613   3.265   5.280  0.1962 -1.4600  0.0061
  142MOL0     C18631   7.541   3.295   5.166  0.5654  0.1868 -0.3585
  142MOL0     C18632   7.415   3.228   5.124  0.7780  0.5091  0.6586
  142MOL0     C18633   7.295   3.233   5.218 -0.7935 -0.3174 -0.3275
  142MOL0     C18634   7.255   3.375   5.265  0.0212 -0.5037  0.5255
  142MOL0     C18635   7.234   3.483   5.150  0.4089  0.7399 -1.3869
  142MOL0     O18636   7.126   3.429   5.070 -0.5142 -0.0517 -0.4267
  142MOL0     C18637   7.000   3.487   5.071 -0.3028  0.6297 -0.4122
  142MOL0     C18638   6.961   3.607   5.132  0.1099 -0.4850  0.3490
  142MOL0     C18639   6.831   3.643   5.147 -0.4478  1.0990  0.5269
  142MOL0     C18640   6.734   3.560   5.079 -0.5072 -0.1641  0.5738
  142MOL0     C18641   6.594   3.607   5.069 -0.4493 -0.2724 -0.4524
  142MOL0     O18642   6.534   3.672   5.175 -0.5642  0.6799  0.3183
  142MOL0     C18643   6.397   3.690   5.180 -0.5632 -0.9000 -0.1932
  142MOL0     C18644   6.350   3.814   5.225 -0.0610 -0.2312  0.1380
  142MOL0     C18645   6.210   3.842   5.234 -0.3041 -0.3707 -0.5210
  142MOL0     C18646   6.112   3.746   5.191 -1.1186 -0.0297 -0.4853
  142MOL0     O18647   5.982   3.776   5.175  0.1245  0.8707  0.3626
  142MOL0     C18648   5.923   3.762   5.306 -0.0847  0.6976 -0.1615
  142MOL0     C18649   5.771   3.749   5.308  0.7635  0.7638 -0.7969
  142MOL0     C18650   5.709   3.883   5.280  0.8741  0.1914  0.0191
  142MOL0     C18651   5.561   3.874   5.230 -1.2977 -0.1408  0.1296
  142MOL0     C18652   5.455   3.874   5.344 -0.1093  0.0857  0.3701
  142MOL0     C18653   5.311   3.833   5.292 -0.1274  0.2992 -0.8586
  142MOL0     C18654   5.311   3.695   5.247 -0.3663 -0.0616 -0.0675
  142MOL0     C18655   5.173   3.631   5.238  0.7566 -0.5592  0.8219
  142MOL0    Cl18656   5.060   3.698   5.117 -0.2590  0.1297  0.2641
  142MOL0     C18657   6.167   3.622   5.144  1.2444  0.4005 -0.8460
  142MOL0     C18658   6.304   3.592   5.141  0.1176 -0.8482 -0.0139
  142MOL0     O18659   6.531   3.582   4.965 -0.7701 -0.4106  0.5155
  142MOL0     C18660   6.768   3.444   5.009 -0.6054  0.0221 -0.1731
  142MOL0     C18661   6.906   3.411   4.999  0.6694  0.7675  0.6929
  142MOL0     N18662   7.603   3.386   5.082  0.0236  0.3885  0.4036
  142MOL0     N18663   7.715   3.411   5.147  0.2499 -0.1117  0.4609
  142MOL0     C18664   8.571   4.033   5.629 -0.1032 -0.3584  0.6296
  142MOL0     C18665   8.617   4.169   5.619 -0.0251  0.7619  0.3474
  142MOL0     C18666   8.924   4.508   5.561  0.7039  0.9016  0.5506
  142MOL0     C18667   8.831   4.613   5.585 -0.3840 -0.3045  0.7561
  142MOL0     C18668   8.870   4.745   5.576  0.3490 -0.0977 -0.0073
  142MOL0     C18669   9.001   4.775   5.558  0.3146  0.2565 -0.3532
  142MOL0     O18670   9.029   4.913   5.563  0.0625  0.4385 -0.1497
  142MOL0     C18671   9.160   4.965   5.506 -0.8574  0.4118  0.9826
  142MOL0     C18672   9.152   4.968   5.356  1.2705  0.4232 -0.2616
  142MOL0     C18673   9.269   5.017   5.282  0.3216 -0.9033 -0.4561
  142MOL0     C18674   9.305   5.173   5.291  0.4415  0.1688  1.2865
  142MOL0     C18675   9.449   5.190   5.341  1.1876 -0.9618  0.1969
  142MOL0     C18676   9.550   5.231   5.389 -0.4997  0.0192  0.5205
  142MOL0     C18677   9.089   4.680   5.521 -0.3130  0.3298 -0.0627
  142MOL0     C18678   9.053   4.544   5.519  0.1951  0.8523 -0.2632
  142MOL0     H18679   8.874   4.146   5.396  0.1752  0.0077 -0.9249
  142MOL0     H18680   8.794   3.913   5.396  1.1588  0.2146  0.8202
  142MOL0     H18681   8.415   3.863   5.479 -0.3584 -0.6703  0.9702
  142MOL0     H18682   8.435   3.762   5.631 -1.5349 -0.7310 -0.3334
  142MOL0     H18683   8.511   3.577   5.478 -0.4370 -0.0249  1.5353
  142MOL0     H18684   8.435   3.676   5.345 -0.1224 -1.3869  0.3766
  142MOL0     H18685   8.223   3.692   5.452  1.3595  1.4879  0.8254
  142MOL0     H18686   8.288   3.601   5.588 -2.0927  1.1156 -0.2332
  142MOL0     H18687   8.302   3.500   5.297  2.6238 -0.7108  1.1315
  142MOL0     H18688   8.356   3.410   5.434  0.1392 -0.8989  1.0716
  142MOL0     H18689   8.067   3.501   5.446 -0.8121  0.5460  0.7287
  142MOL0     H18690   8.147   3.391   5.536  2.4300 -2.1333  0.0540
  142MOL0     H18691   8.190   3.255   5.331  0.3993 -0.5728 -1.5848
  142MOL0     H18692   8.093   3.364   5.238 -3.5631  0.7939  1.1309
  142MOL0     H18693   7.925   3.181   5.308 -0.2241 -0.9457  0.1155
  142MOL0     H18694   7.962   3.209   5.470  0.7967 -1.1619 -1.2107
  142MOL0     H18695   7.873   3.456   5.359 -0.0489 -0.7528 -1.0320
  142MOL0     H18696   7.782   3.340   5.464 -2.8383 -4.2032 -0.7147
  142MOL0     H18697   7.582   3.202   5.364 -0.5969 -0.3570  0.5659
  142MOL0     H18698   7.446   3.124   5.108  2.1360  1.1986 -1.6852
  142MOL0     H18699   7.387   3.268   5.027 -0.5174 -0.3002  0.6864
  142MOL0     H18700   7.315   3.175   5.309  3.4585 -2.6224 -2.4249
  142MOL0     H18701   7.212   3.184   5.168 -0.3080  0.8795 -2.4492
  142MOL0     H18702   7.157   3.369   5.312 -0.7102 -2.6732 -1.1294
  142MOL0     H18703   7.327   3.420   5.335 -1.4649 -0.3712  2.0308
  142MOL0     H18704   7.320   3.487   5.083 -0.6371 -3.4658 -3.3340
  142MOL0     H18705   7.223   3.580   5.199 -0.6192  0.2972 -0.7061
  142MOL0     H18706   7.036   3.657   5.192 -0.1231  1.1942 -0.7082
  142MOL0     H18707   6.803   3.737   5.195 -0.3284  0.2860  2.2723
  142MOL0     H18708   6.420   3.885   5.268 -2.3463  2.6859 -0.6131
  142MOL0     H18709   6.187   3.943   5.269  2.0453 -0.1089  0.4562
  142MOL0     H18710   5.954   3.839   5.377 -1.4246  0.9314  0.1855
  142MOL0     H18711   5.962   3.668   5.348 -0.7103 -0.8512 -2.8080
  142MOL0     H18712   5.739   3.698   5.400  1.5410  1.1911 -0.2786
  142MOL0     H18713   5.738   3.674   5.236 -1.7306 -2.0108  2.8388
  142MOL0     H18714   5.771   3.930   5.203  0.5161 -1.2842 -1.2230
  142MOL0     H18715   5.707   3.952   5.365 -0.4836  2.2904 -1.6066
  142MOL0     H18716   5.549   3.963   5.168 -0.1893 -1.9716 -2.9480
  142MOL0     H18717   5.542   3.794   5.157  0.6669 -0.4790 -0.0561
  142MOL0     H18718   5.449   3.979   5.376  1.3402  0.7786 -1.4743
  142MOL0     H18719   5.480   3.801   5.422 -3.1758 -1.1895  0.2793
  142MOL0     H18720   5.283   3.900   5.211  1.5631  0.7584 -1.0978
  142MOL0     H18721   5.244   3.858   5.375  1.7246  1.7597  0.3000
  142MOL0     H18722   5.371   3.680   5.157  0.5431  2.8901 -0.0626
  142MOL0     H18723   5.357   3.642   5.331 -2.7032  1.7459  2.5469
  142MOL0     H18724   5.122   3.647   5.333  0.0279  4.3023 -0.1487
  142MOL0     H18725   5.183   3.527   5.206 -0.7154 -0.8578  1.2440
  142MOL0     H18726   6.099   3.539   5.125  1.1606  0.3244 -0.2387
  142MOL0     H18727   6.339   3.492   5.118 -1.2960 -0.8929 -2.3208
  142MOL0     H18728   6.696   3.374   4.969  0.3627  0.4488 -2.8653
  142MOL0     H18729   6.942   3.317   4.958  1.5779  1.1541  0.5861
  142MOL0     H18730   8.487   4.005   5.692  0.6966 -0.2667  1.7731
  142MOL0     H18731   8.563   4.242   5.679  3.5866  2.6437  1.5886
  142MOL0     H18732   8.730   4.589   5.615 -1.1534 -1.4559 -2.3260
  142MOL0     H18733   8.797   4.826   5.578  1.8304  1.3172 -1.1408
  142MOL0     H18734   9.239   4.900   5.545  0.7650  0.9401 -1.2493
  142MOL0     H18735   9.185   5.063   5.547 -1.1671  1.2166 -0.6447
  142MOL0     H18736   9.133   4.865   5.324  2.3481  0.2833 -0.5071
  142MOL0     H18737   9.065   5.031   5.337  2.3652  1.2562 -3.2463
  142MOL0     H18738   9.256   4.983   5.179 -2.6528 -0.2822 -0.3693
  142MOL0     H18739   9.344   4.949   5.324 -0.2302 -1.2865 -0.0840
  142MOL0     H18740   9.295   5.226   5.196  0.4380 -1.2771  0.4497
  142MOL0     H18741   9.247   5.229   5.365  0.6823  1.3336  0.6260
  142MOL0     H18742   9.643   5.269   5.426 -0.4703 -0.0734  0.5409
  142MOL0     H18743   9.192   4.692   5.487 -0.3640 -0.9741 -0.7101
  142MOL0     H18744   9.122   4.464   5.496  0.1388  0.3482  1.2119
  143MOL0     O18745   1.401   2.477   7.973  0.0634 -0.8495 -0.2403
  143MOL0     C18746   1.334   2.373   7.947  1.2274  0.6145  0.0597
  143MOL0     O18747   1.369   2.287   7.859 -0.9786 -0.2077 -0.2713
  143MOL0     C18748   1.485   2.305   7.789 -0.7515  0.0095  1.2050
  143MOL0     C18749   1.499   2.318   7.647 -0.1461  0.0274  0.1954
  143MOL0     C18750   1.624   2.325   7.578 -0.1995  0.6849 -0.0653
  143MOL0     C18751   1.740   2.314   7.655 -0.7631  0.6836 -0.3418
  143MOL0     O18752   1.872   2.347   7.613  0.7142 -0.6278  0.1815
  143MOL0     C18753   1.883   2.374   7.474  0.2438  0.9968 -0.1013
  143MOL0     C18754   2.024   2.433   7.459  0.3167  0.0292 -0.5228
  143MOL0     C18755   2.130   2.331   7.493  0.1593 -0.5720 -0.0348
  143MOL0     C18756   2.264   2.395   7.496  0.5326 -0.4663 -0.3689
  143MOL0     C18757   2.366   2.290   7.474 -0.3523  0.0461 -0.0182
  143MOL0     C18758   2.515   2.336   7.465  0.4593 -0.3707 -0.5528
  143MOL0     C18759   2.546   2.450   7.563  0.1907 -0.7394  1.0302
  143MOL0     C18760   2.695   2.487   7.552 -0.1971  0.4941  0.4589
  143MOL0     N18761   2.723   2.607   7.633 -0.4541 -0.7127  0.2724
  143MOL0     C18762   2.755   2.614   7.763  0.5155  0.2903 -0.3521
  143MOL0     C18763   2.721   2.746   7.805 -0.8110 -0.3300  0.6760
  143MOL0     C18764   2.710   2.805   7.940  0.7506 -0.1097 -0.5655
  143MOL0     C18765   2.561   2.782   7.966  0.9466  0.6645  0.3854
  143MOL0     C18766   2.512   2.850   8.088 -0.5810  0.5296  0.4060
  143MOL0     C18767   2.364   2.856   8.096 -0.8458  0.1513  0.5064
  143MOL0     O18768   2.332   2.837   8.229  0.2296 -0.0367 -0.1034
  143MOL0     C18769   2.199   2.811   8.252  0.0663  0.2796 -0.2198
  143MOL0     C18770   2.163   2.803   8.389 -0.2798  1.0790  0.2199
  143MOL0     C18771   2.028   2.802   8.429 -0.0291  0.2995  0.0204
  143MOL0     C18772   1.926   2.804   8.332 -0.9773  0.1081 -1.1255
  143MOL0     C18773   1.780   2.819   8.375 -0.4003 -0.5279  0.2413
  143MOL0     O18774   1.693   2.886   8.288 -1.0285  0.4297 -0.8435
  143MOL0     C18775   1.563   2.880   8.321  0.3613 -0.2246 -0.0408
  143MOL0     C18776   1.509   2.971   8.405 -0.5639 -0.0596 -0.3658
  143MOL0     C18777   1.375   2.974   8.439 -0.8528  0.2780 -0.6207
  143MOL0     C18778   1.296   2.869   8.394  0.1265  0.6827 -0.1306
  143MOL0     O18779   1.160   2.865   8.414 -1.1524 -0.2101 -0.2136
  143MOL0     C18780   1.083   2.790   8.331 -0.2434 -0.2445  0.2802
  143MOL0     C18781   0.932   2.805   8.355  1.5845  0.5372 -0.2620
  143MOL0     C18782   0.874   2.705   8.445 -0.7892 -0.1333 -0.1328
  143MOL0     C18783   0.732   2.737   8.489 -0.6330  0.3624  0.3688
  143MOL0     C18784   0.674   2.618   8.576  0.0468  0.0612  0.4607
  143MOL0     C18785   0.531   2.639   8.616  0.0661  0.3751  1.0654
  143MOL0     C18786   0.488   2.788   8.637  0.3344  0.2162  0.6718
  143MOL0     C18787   0.354   2.786   8.723 -0.3171  0.4687  0.3148
  143MOL0    Cl18788   0.407   2.840   8.885  0.1057 -0.0674 -0.3613
  143MOL0     C18789   1.360   2.757   8.329 -0.1246  0.5342  0.9491
  143MOL0     C18790   1.489   2.772   8.286  0.3757 -1.3455 -0.3992
  143MOL0     O18791   1.752   2.776   8.486 -0.1035  0.1780  0.7347
  143MOL0     C18792   1.957   2.806   8.194  0.0522  0.3958 -0.5462
  143MOL0     C18793   2.094   2.809   8.159 -0.9637  0.5762 -0.0495
  143MOL0     N18794   2.678   2.810   7.684 -0.2148 -0.3568 -0.1955
  143MOL0     N18795   2.689   2.728   7.588 -0.1887  0.2371  0.7427
  143MOL0     C18796   1.732   2.295   7.795  0.7640 -0.3151  1.4304
  143MOL0     C18797   1.606   2.289   7.858  0.0693 -0.5607 -0.0895
  143MOL0     C18798   1.206   2.353   8.026 -0.5416 -0.6866  0.6394
  143MOL0     C18799   1.156   2.217   8.029  0.7412 -0.1370 -0.1240
  143MOL0     C18800   1.038   2.192   8.092  0.2692 -0.6009  0.4302
  143MOL0     C18801   0.963   2.294   8.158  0.3307  0.6559  1.3596
  143MOL0     O18802   0.843   2.280   8.225 -0.2602  0.0229  0.0968
  143MOL0     C18803   0.740   2.192   8.171 -0.2117 -0.3363 -0.2510
  143MOL0     C18804   0.687   2.243   8.039 -1.1426  0.3907  0.4247
  143MOL0     C18805   0.534   2.222   8.009 -0.8827  0.2254  0.0814
  143MOL0     C18806   0.495   2.075   7.997 -0.6660 -1.1087  0.7131
  143MOL0     C18807   0.372   2.044   8.071 -0.2366 -0.2325  0.0672
  143MOL0     C18808   0.267   2.024   8.134 -0.2640  0.6437 -0.9043
  143MOL0     C18809   1.020   2.425   8.162 -0.6179  0.7908 -0.2666
  143MOL0     C18810   1.142   2.454   8.100 -0.0045 -0.0833  0.2114
  143MOL0     H18811   1.403   2.316   7.597 -0.3548 -1.7257  0.6195
  143MOL0     H18812   1.620   2.321   7.470 -2.8464 -1.1526 -0.0057
  143MOL0     H18813   1.801   2.438   7.439 -1.3830 -0.2673  1.2495
  143MOL0     H18814   1.884   2.284   7.413  3.7863 -0.7809  2.2879
  143MOL0     H18815   2.027   2.525   7.519  0.5100  0.1698 -0.7465
  143MOL0     H18816   2.038   2.452   7.353  1.0732 -1.5718 -0.7410
  143MOL0     H18817   2.128   2.256   7.413 -0.6344 -0.8888  0.2687
  143MOL0     H18818   2.118   2.279   7.588  1.6661 -2.9467 -1.0528
  143MOL0     H18819   2.279   2.475   7.423 -0.1587 -0.9487 -1.0601
  143MOL0     H18820   2.267   2.442   7.594 -0.6147 -1.5770  0.2324
  143MOL0     H18821   2.344   2.234   7.383 -4.5165  0.8682  0.2578
  143MOL0     H18822   2.367   2.224   7.562  2.9486 -0.8326 -0.5908
  143MOL0     H18823   2.536   2.363   7.362  2.5933  1.8455  0.3499
  143MOL0     H18824   2.575   2.250   7.495  2.0115  0.8528  0.0160
  143MOL0     H18825   2.493   2.542   7.537  3.5752  1.5866  1.7858
  143MOL0     H18826   2.505   2.422   7.661  1.3666  0.3936  1.8691
  143MOL0     H18827   2.719   2.513   7.449 -0.5208  1.1519  0.5383
  143MOL0     H18828   2.766   2.415   7.592 -0.9971 -0.6200 -0.0760
  143MOL0     H18829   2.776   2.531   7.830 -1.0208  0.5335  0.4740
  143MOL0     H18830   2.741   2.910   7.949  1.4044 -0.2873 -0.6600
  143MOL0     H18831   2.775   2.757   8.014  1.9011  2.8289  0.5014
  143MOL0     H18832   2.547   2.673   7.969  0.3405  0.7491  2.4319
  143MOL0     H18833   2.512   2.832   7.882  1.0976 -0.2398 -0.2564
  143MOL0     H18834   2.541   2.790   8.175 -1.4552 -0.2132  0.2087
  143MOL0     H18835   2.566   2.942   8.108  1.5622 -0.7402  0.6930
  143MOL0     H18836   2.326   2.767   8.045  0.4539  0.1780 -0.5657
  143MOL0     H18837   2.330   2.948   8.047 -0.1408 -0.5799 -1.4244
  143MOL0     H18838   2.251   2.801   8.453 -0.1223 -5.6193  0.4989
  143MOL0     H18839   2.000   2.807   8.534 -1.5933  0.8929 -0.3905
  143MOL0     H18840   1.573   3.057   8.424  0.0242 -0.7029  0.6797
  143MOL0     H18841   1.325   3.051   8.497  1.0765  1.6151 -0.6415
  143MOL0     H18842   1.103   2.684   8.349  2.3738  0.2142  0.3875
  143MOL0     H18843   1.101   2.813   8.226 -0.6050 -1.8881 -0.1688
  143MOL0     H18844   0.886   2.786   8.258  3.6732 -1.6038 -0.9276
  143MOL0     H18845   0.923   2.905   8.399  3.6235  1.7906 -2.4549
  143MOL0     H18846   0.946   2.717   8.526  2.3439 -0.5147 -2.6848
  143MOL0     H18847   0.883   2.606   8.400  2.1668  0.2724 -0.6189
  143MOL0     H18848   0.728   2.830   8.547 -4.2811 -1.0044  2.6345
  143MOL0     H18849   0.668   2.744   8.401 -0.1552 -3.0505 -0.3620
  143MOL0     H18850   0.734   2.634   8.666  1.3588 -0.7833 -0.2393
  143MOL0     H18851   0.687   2.520   8.530 -2.5999  0.1864 -0.7422
  143MOL0     H18852   0.524   2.590   8.713  3.2173  1.2001  1.8420
  143MOL0     H18853   0.469   2.584   8.545 -0.3437  1.0543  0.8807
  143MOL0     H18854   0.558   2.843   8.700  0.3593 -0.3909  1.1901
  143MOL0     H18855   0.458   2.823   8.538 -0.5243 -2.9548 -0.3215
  143MOL0     H18856   0.303   2.689   8.718 -2.0565  1.4242 -2.7012
  143MOL0     H18857   0.287   2.864   8.687  2.0875  1.5634 -2.1409
  143MOL0     H18858   1.300   2.668   8.309  0.1609  0.2363  1.4072
  143MOL0     H18859   1.534   2.691   8.230  2.0645 -1.1885  0.6650
  143MOL0     H18860   1.881   2.811   8.116 -0.4372  0.7860 -0.0493
  143MOL0     H18861   2.092   2.802   8.051  0.6908  1.9942 -0.2194
  143MOL0     H18862   1.817   2.284   7.861  0.8066  1.2934  1.6805
  143MOL0     H18863   1.603   2.273   7.965 -0.6437  2.3846  0.4018
  143MOL0     H18864   1.196   2.128   7.980  0.8008 -1.8928  2.8902
  143MOL0     H18865   0.998   2.092   8.085 -2.3358  0.2295  2.0562
  143MOL0     H18866   0.659   2.188   8.244  0.2187 -0.7359  0.2151
  143MOL0     H18867   0.770   2.086   8.165  0.0034 -0.4194  1.5963
  143MOL0     H18868   0.708   2.351   8.034  0.7427  0.1471  1.9671
  143MOL0     H18869   0.752   2.201   7.962  0.0957 -0.5467  1.9292
  143MOL0     H18870   0.506   2.277   7.918 -1.2051  1.0623  0.6728
  143MOL0     H18871   0.479   2.269   8.091 -1.5343  1.8876 -1.2315
  143MOL0     H18872   0.480   2.054   7.891 -0.0075 -1.7587  0.7424
  143MOL0     H18873   0.576   2.010   8.033  0.1265 -2.2691 -2.7598
  143MOL0     H18874   0.178   2.028   8.193 -0.5511  1.2569 -1.3667
  143MOL0     H18875   0.960   2.499   8.214 -0.5924 -0.9032  2.3566
  143MOL0     H18876   1.189   2.551   8.110 -1.4515  0.9254 -2.0310
  144MOL0     O18877   5.512   8.734  10.154  0.2085 -0.0360 -1.1813
  144MOL0     C18878   5.472   8.732  10.039 -0.5499 -0.2542 -0.3221
  144MOL0     O18879   5.335   8.718  10.000 -0.0693 -0.0491 -1.1486
  144MOL0     C18880   5.231   8.682  10.083  0.4474 -0.7334 -0.8652
  144MOL0     C18881   5.100   8.690  10.027 -0.2283 -0.3874 -0.8101
  144MOL0     C18882   4.986   8.647  10.099 -0.3641  0.6139  0.3262
  144MOL0     C18883   5.000   8.606  10.236  0.6923  1.3495 -0.6197
  144MOL0     O18884   4.895   8.584  10.318  0.0723  0.2829 -0.6244
  144MOL0     C18885   4.769   8.620  10.278  0.6774 -0.1524 -0.0268
  144MOL0     C18886   4.668   8.603  10.398  0.0403 -0.1876  0.0057
  144MOL0     C18887   4.525   8.624  10.348 -0.7607 -1.1784 -1.0010
  144MOL0     C18888   4.421   8.561  10.451 -0.1342  0.3309 -0.8838
  144MOL0     C18889   4.273   8.579  10.408 -0.1071 -0.2598  0.1949
  144MOL0     C18890   4.178   8.536  10.513  0.1292 -0.4702 -0.0405
  144MOL0     C18891   4.175   8.624  10.642 -0.5476 -0.1964 -0.2004
  144MOL0     C18892   4.084   8.551  10.740 -0.0642 -0.0477 -0.1900
  144MOL0     N18893   4.012   8.649  10.821 -0.2728  0.4216  1.5459
  144MOL0     C18894   4.065   8.759  10.882 -0.6394  0.6757  0.1836
  144MOL0     C18895   3.956   8.822  10.924 -0.3586 -0.5410 -0.0217
  144MOL0     C18896   3.947   8.942  11.019  0.0837 -0.9448 -0.2068
  144MOL0     C18897   3.894   8.891  11.162 -0.0572 -0.5680  0.4685
  144MOL0     C18898   3.813   8.997  11.237  0.6433  0.1294 -0.3152
  144MOL0     C18899   3.735   8.954  11.360 -0.3427 -1.1209  0.4458
  144MOL0     O18900   3.635   8.847  11.340 -0.4300 -0.0416  0.1101
  144MOL0     C18901   3.506   8.895  11.346 -0.3658 -0.2609 -0.1510
  144MOL0     C18902   3.424   8.878  11.236 -0.6293 -0.0486 -0.6426
  144MOL0     C18903   3.284   8.909  11.250 -0.3154  1.2714  0.5747
  144MOL0     C18904   3.227   8.955  11.369 -0.0110  0.0488 -0.6918
  144MOL0     C18905   3.077   8.970  11.381 -0.3840  0.0935  0.2395
  144MOL0     O18906   3.001   8.924  11.278 -0.0606  0.2103 -0.2507
  144MOL0     C18907   2.866   8.949  11.295  0.1891  0.6746 -0.3078
  144MOL0     C18908   2.817   9.067  11.253  0.7583  0.1836  1.0661
  144MOL0     C18909   2.689   9.109  11.279 -0.0367  0.2162  0.4375
  144MOL0     C18910   2.604   9.026  11.343  1.2267 -0.1086 -0.5431
  144MOL0     O18911   2.469   9.062  11.360 -0.0752 -0.6629 -0.9143
  144MOL0     C18912   2.399   9.024  11.481  0.4385 -0.0403  0.2036
  144MOL0     C18913   2.267   9.095  11.514 -0.4992 -0.5892  1.2161
  144MOL0     C18914   2.190   9.080  11.633  0.1403  0.2056  0.0168
  144MOL0     C18915   2.049   9.138  11.622  0.7213 -0.3553 -0.1821
  144MOL0     C18916   1.932   9.040  11.658 -0.1310 -0.9717  0.2078
  144MOL0     C18917   1.925   9.008  11.804 -0.4242 -0.8583  0.2806
  144MOL0     C18918   1.812   8.906  11.829  0.0513  0.1644 -0.0001
  144MOL0     C18919   1.672   8.960  11.856  0.2426 -0.1703  0.3579
  144MOL0    Cl18920   1.665   9.056  12.016 -0.4295  0.6193  0.3828
  144MOL0     C18921   2.655   8.903  11.388 -0.5876  0.5293  0.6180
  144MOL0     C18922   2.786   8.866  11.367  0.4389  0.4037 -0.8120
  144MOL0     O18923   3.038   9.024  11.481  0.2030  0.4135 -0.2348
  144MOL0     C18924   3.310   8.982  11.473  0.4892 -0.0740 -0.4283
  144MOL0     C18925   3.448   8.950  11.467 -1.3005 -0.1456  1.0042
  144MOL0     N18926   3.841   8.753  10.887 -0.3826  0.4217 -0.5379
  144MOL0     N18927   3.878   8.648  10.819  0.0907  0.0736  0.2831
  144MOL0     C18928   5.133   8.592  10.285  0.0662 -0.2845 -0.1669
  144MOL0     C18929   5.244   8.626  10.213  0.1991 -0.2763 -0.5744
  144MOL0     C18930   5.568   8.740   9.936 -0.5041  0.7008 -0.0408
  144MOL0     C18931   5.539   8.811   9.823 -0.6683 -0.0815 -0.7329
  144MOL0     C18932   5.639   8.818   9.721 -0.2929 -1.1846  0.2334
  144MOL0     C18933   5.766   8.779   9.737  0.3636 -1.0088 -0.2393
  144MOL0     O18934   5.850   8.810   9.638 -0.7902 -0.0881  0.6990
  144MOL0     C18935   5.988   8.775   9.630  0.8803  0.6929  0.2911
  144MOL0     C18936   6.014   8.641   9.569 -0.2439  0.7775  0.0840
  144MOL0     C18937   6.159   8.624   9.546  0.3407 -0.5217  0.3127
  144MOL0     C18938   6.187   8.475   9.515 -0.3705 -0.5909  1.1947
  144MOL0     C18939   6.335   8.464   9.513 -0.7485  0.5578 -0.0737
  144MOL0     C18940   6.453   8.474   9.514  0.1644 -0.1662 -1.0364
  144MOL0     C18941   5.792   8.716   9.859  0.2768 -0.6435  0.1335
  144MOL0     C18942   5.683   8.669   9.944  0.1276 -0.3456  0.0381
  144MOL0     H18943   5.091   8.736   9.929  0.7986 -0.7051 -1.0629
  144MOL0     H18944   4.890   8.657  10.051 -0.5238  2.3416  0.9155
  144MOL0     H18945   4.730   8.561  10.194  1.3714  0.2738 -0.6577
  144MOL0     H18946   4.771   8.721  10.236  1.2002 -0.3374 -0.4670
  144MOL0     H18947   4.700   8.668  10.480  0.7321  0.5032 -0.8031
  144MOL0     H18948   4.670   8.498  10.429 -4.7695 -0.6535 -0.4813
  144MOL0     H18949   4.514   8.566  10.256  0.6689 -1.9957 -0.6882
  144MOL0     H18950   4.511   8.732  10.339  0.9467 -0.6265  1.6295
  144MOL0     H18951   4.451   8.457  10.467  0.1702  0.8122  2.3667
  144MOL0     H18952   4.440   8.609  10.548  2.5225 -2.8305  0.3415
  144MOL0     H18953   4.263   8.521  10.316  1.2136  2.1784 -1.6049
  144MOL0     H18954   4.256   8.683  10.380 -5.3919 -0.7859  0.4208
  144MOL0     H18955   4.183   8.429  10.536 -0.1270 -0.1784  1.4578
  144MOL0     H18956   4.077   8.553  10.476  0.6170  2.0168 -0.3898
  144MOL0     H18957   4.280   8.619  10.671 -0.4402 -0.8451 -0.6586
  144MOL0     H18958   4.136   8.724  10.625 -1.2242 -0.4588 -0.2311
  144MOL0     H18959   4.145   8.485  10.802 -3.2757 -4.4183 -1.1907
  144MOL0     H18960   4.011   8.485  10.691 -0.0995  0.9265 -1.5098
  144MOL0     H18961   4.167   8.787  10.903 -0.4965 -0.1854  0.6980
  144MOL0     H18962   3.882   9.021  10.978 -0.2571  0.0683  2.1319
  144MOL0     H18963   4.042   8.995  11.026 -1.1179  1.8486 -2.5502
  144MOL0     H18964   3.987   8.860  11.209  1.1595 -1.3138 -2.1939
  144MOL0     H18965   3.829   8.803  11.150 -1.0391  0.2330 -0.3262
  144MOL0     H18966   3.884   9.076  11.264  0.5968  0.3885 -0.9173
  144MOL0     H18967   3.741   9.045  11.170 -0.6010  0.6418  1.3231
  144MOL0     H18968   3.685   9.043  11.399 -0.8442 -1.3018  0.2213
  144MOL0     H18969   3.801   8.926  11.443 -1.7095 -2.3214  1.1788
  144MOL0     H18970   3.469   8.838  11.145 -0.3677 -1.3465  0.0329
  144MOL0     H18971   3.224   8.882  11.164 -0.7764 -1.0302  1.5240
  144MOL0     H18972   2.874   9.136  11.191  0.5600  1.7799  2.5812
  144MOL0     H18973   2.663   9.209  11.245  0.8067 -0.1757 -1.5013
  144MOL0     H18974   2.467   9.049  11.563 -0.2664  1.5118  0.3461
  144MOL0     H18975   2.396   8.915  11.483  4.0546 -0.3498 -1.7251
  144MOL0     H18976   2.204   9.078  11.426  1.8745 -1.5127 -0.4126
  144MOL0     H18977   2.293   9.201  11.504  0.1325 -0.7903  0.5889
  144MOL0     H18978   2.238   9.093  11.731 -3.1412 -0.3216  1.8412
  144MOL0     H18979   2.170   8.973  11.642  2.9963 -0.7304 -2.9775
  144MOL0     H18980   2.044   9.231  11.680  1.7399 -1.5499  1.9052
  144MOL0     H18981   2.019   9.163  11.519 -2.0034 -1.1494  0.3337
  144MOL0     H18982   1.948   8.948  11.601  0.5790 -0.5812 -0.2332
  144MOL0     H18983   1.837   9.084  11.625  1.8268  1.7023 -2.3387
  144MOL0     H18984   1.888   9.099  11.854 -1.3564 -0.2094 -1.5129
  144MOL0     H18985   2.022   8.966  11.830 -0.3184 -1.0054 -0.3381
  144MOL0     H18986   1.793   8.852  11.736  0.5506  1.4548 -0.8787
  144MOL0     H18987   1.830   8.833  11.909 -0.4832 -1.1071 -1.0036
  144MOL0     H18988   1.597   8.883  11.835 -1.1291  0.9238  1.0253
  144MOL0     H18989   1.653   9.036  11.779  0.7879 -0.3160  0.0748
  144MOL0     H18990   2.599   8.821  11.431 -0.2307  0.0880  0.2505
  144MOL0     H18991   2.825   8.768  11.393 -1.4984  0.1187  1.3802
  144MOL0     H18992   3.271   9.020  11.567  0.4364 -0.7207 -0.1782
  144MOL0     H18993   3.499   8.975  11.559 -4.5201  0.1500  2.8945
  144MOL0     H18994   5.140   8.552  10.385 -1.7301  1.2312  0.6226
  144MOL0     H18995   5.325   8.596  10.278  0.8216 -0.0167 -1.2161
  144MOL0     H18996   5.452   8.874   9.809 -0.2618  0.4545 -0.9050
  144MOL0     H18997   5.614   8.876   9.633 -0.5700 -1.5580  0.0615
  144MOL0     H18998   6.049   8.774   9.721  1.1301 -3.1673  0.2561
  144MOL0     H18999   6.037   8.844   9.561 -0.7945 -0.3066 -1.9992
  144MOL0     H19000   5.990   8.560   9.638 -0.2902  2.6205  2.3743
  144MOL0     H19001   5.950   8.641   9.479  0.3238  3.4521 -0.3962
  144MOL0     H19002   6.213   8.643   9.639 -4.2340  1.5111  2.8809
  144MOL0     H19003   6.198   8.692   9.469  2.7488 -0.4861  1.4859
  144MOL0     H19004   6.142   8.396   9.576 -3.4118 -1.6853 -2.1613
  144MOL0     H19005   6.152   8.464   9.413 -0.1539 -0.1961  1.0743
  144MOL0     H19006   6.559   8.481   9.529 -0.1645 -0.2307  1.8853
  144MOL0     H19007   5.892   8.680   9.878  0.0183 -0.2686  2.5959
  144MOL0     H19008   5.713   8.604  10.026  0.9414 -1.2199 -0.9172
  145MOL0     O19009   0.732   3.196   3.025  0.5039  0.2906  0.4237
  145MOL0     C19010   0.742   3.271   3.112  0.4818 -0.0722  0.7302
  145MOL0     O19011   0.634   3.356   3.154 -0.5254  0.6581 -0.0540
  145MOL0     C19012   0.515   3.352   3.091 -0.4502  0.6824 -0.5527
  145MOL0     C19013   0.419   3.256   3.122 -0.7121  0.0958 -0.1560
  145MOL0     C19014   0.301   3.248   3.061 -0.3686  0.5315  0.2506
  145MOL0     C19015   0.256   3.349   2.976  0.0926 -0.2729  0.6136
  145MOL0     O19016   0.135   3.342   2.925  0.2846 -0.5699 -0.3506
  145MOL0     C19017   0.081   3.455   2.848 -0.1183  0.2211  0.1057
  145MOL0     C19018  -0.062   3.432   2.845  0.6715  0.0253 -0.7432
  145MOL0     C19019  -0.144   3.555   2.803 -0.5515 -0.3876 -0.3288
  145MOL0     C19020  -0.117   3.595   2.660  0.1543  0.3963  0.1852
  145MOL0     C19021  -0.174   3.740   2.617 -0.2249  0.4997 -0.0042
  145MOL0     C19022  -0.067   3.832   2.538  0.4911 -0.6269 -0.2157
  145MOL0     C19023  -0.008   3.759   2.411 -0.7751 -0.5377  1.0548
  145MOL0     C19024   0.139   3.807   2.386  0.2011 -0.2216 -0.0521
  145MOL0     N19025   0.227   3.759   2.499 -0.4416 -0.4014  0.2288
  145MOL0     C19026   0.299   3.650   2.480 -1.1786 -0.1743  0.1830
  145MOL0     C19027   0.381   3.632   2.584  0.1717  0.0619  0.7206
  145MOL0     C19028   0.469   3.509   2.603  0.5245  0.4465  0.8517
  145MOL0     C19029   0.606   3.536   2.669 -0.8283  0.4591  0.2445
  145MOL0     C19030   0.669   3.409   2.735  0.4183 -0.1462  0.0284
  145MOL0     C19031   0.748   3.328   2.634  0.1953 -0.3874 -0.1142
  145MOL0     O19032   0.858   3.400   2.587 -0.1095  0.5368 -0.6278
  145MOL0     C19033   0.980   3.398   2.663 -0.1967 -0.0048  0.6042
  145MOL0     C19034   1.090   3.469   2.610  0.0593  0.1614  0.3346
  145MOL0     C19035   1.229   3.440   2.661  1.0580 -0.2234  0.5704
  145MOL0     C19036   1.245   3.362   2.775  0.7144 -0.4474 -0.2486
  145MOL0     C19037   1.377   3.343   2.841 -0.1404 -0.2129  0.1349
  145MOL0     O19038   1.382   3.257   2.944  0.0859  0.3241  0.0026
  145MOL0     C19039   1.485   3.266   3.032  0.5316  0.2087  0.3923
  145MOL0     C19040   1.536   3.148   3.068  0.2148 -0.1622 -0.0062
  145MOL0     C19041   1.636   3.137   3.157  0.0274 -0.4180 -0.2191
  145MOL0     C19042   1.694   3.250   3.210 -0.3178  0.3636  0.1064
  145MOL0     O19043   1.802   3.220   3.288 -0.2110 -0.0603  0.1124
  145MOL0     C19044   1.885   3.335   3.305 -0.7706 -0.7058 -0.3349
  145MOL0     C19045   2.024   3.308   3.342 -0.3446 -1.1280  0.2617
  145MOL0     C19046   2.049   3.229   3.463  0.3483  0.3537  0.2964
  145MOL0     C19047   2.196   3.223   3.503 -0.8321  0.5043  0.2598
  145MOL0     C19048   2.223   3.106   3.593  0.2292  0.1463 -0.1586
  145MOL0     C19049   2.160   3.101   3.728  0.2312  0.3472 -0.3080
  145MOL0     C19050   2.192   3.232   3.806 -0.3622 -0.6098 -0.0538
  145MOL0     C19051   2.195   3.193   3.953  0.6659 -0.3827 -0.2398
  145MOL0    Cl19052   2.207   3.333   4.071 -0.1721 -0.1584  0.6749
  145MOL0     C19053   1.632   3.371   3.188 -0.0613 -0.0380  0.3227
  145MOL0     C19054   1.533   3.384   3.093 -0.1824 -0.3556  0.0044
  145MOL0     O19055   1.475   3.411   2.798 -0.5044 -0.2761  0.7293
  145MOL0     C19056   1.132   3.292   2.827  0.0191  0.1019 -0.0726
  145MOL0     C19057   1.004   3.311   2.775  0.0718 -0.6334  0.3753
  145MOL0     N19058   0.363   3.752   2.651 -0.2073 -0.1741 -0.4075
  145MOL0     N19059   0.282   3.832   2.602  0.6298  0.4758  0.5549
  145MOL0     C19060   0.348   3.449   2.945 -0.5889 -0.0719 -0.2106
  145MOL0     C19061   0.475   3.453   3.003 -0.1490  0.7404 -0.1152
  145MOL0     C19062   0.877   3.295   3.178 -0.5895  0.6662  0.7418
  145MOL0     C19063   0.902   3.398   3.266  0.3215  0.5559 -0.3784
  145MOL0     C19064   1.024   3.410   3.329  0.5582 -0.3360  0.2879
  145MOL0     C19065   1.134   3.322   3.288  0.4094  0.2841 -0.7927
  145MOL0     O19066   1.263   3.335   3.340 -0.1702 -0.1498 -0.5405
  145MOL0     C19067   1.344   3.225   3.362 -0.5186  0.7596 -0.2357
  145MOL0     C19068   1.289   3.128   3.467  0.5152 -0.3518  0.1458
  145MOL0     C19069   1.377   3.011   3.488 -0.6672  0.7335 -0.5612
  145MOL0     C19070   1.338   2.891   3.393  0.8710 -0.7463 -1.4875
  145MOL0     C19071   1.454   2.826   3.330 -0.0460  0.1473 -0.3395
  145MOL0     C19072   1.545   2.755   3.281  0.0283 -1.0198  0.3367
  145MOL0     C19073   1.107   3.225   3.189  0.5035  0.3720  0.3015
  145MOL0     C19074   0.976   3.207   3.133 -0.3899 -0.6575  0.4070
  145MOL0     H19075   0.445   3.194   3.207  0.9370  0.2473 -0.5142
  145MOL0     H19076   0.216   3.186   3.086 -0.8464  0.3637 -1.5840
  145MOL0     H19077   0.114   3.462   2.744 -1.6538 -3.1532 -0.7506
  145MOL0     H19078   0.089   3.551   2.900 -2.9249  0.0559  0.9934
  145MOL0     H19079  -0.094   3.403   2.945  2.1046  1.0412  0.0490
  145MOL0     H19080  -0.082   3.347   2.779 -3.0776 -0.7993  1.1644
  145MOL0     H19081  -0.125   3.642   2.866 -1.3626 -0.8648  0.5933
  145MOL0     H19082  -0.250   3.527   2.808 -0.3396 -1.0478  0.6993
  145MOL0     H19083  -0.011   3.604   2.632  0.1464 -0.1216 -0.0173
  145MOL0     H19084  -0.167   3.522   2.597  2.8075 -2.0412  0.6803
  145MOL0     H19085  -0.232   3.785   2.698 -1.9085 -1.0783 -0.2729
  145MOL0     H19086  -0.256   3.720   2.548  0.2906 -3.0831  0.1980
  145MOL0     H19087   0.010   3.861   2.609 -0.5975 -1.0739  1.1835
  145MOL0     H19088  -0.119   3.927   2.520  1.3554 -0.3439 -1.3172
  145MOL0     H19089   0.003   3.651   2.425  1.5300 -0.7738 -1.6351
  145MOL0     H19090  -0.068   3.790   2.325  1.3208 -0.4283 -0.4579
  145MOL0     H19091   0.147   3.916   2.378 -2.3130 -0.0147 -0.2758
  145MOL0     H19092   0.171   3.757   2.294  1.6626  2.3225 -1.0414
  145MOL0     H19093   0.298   3.577   2.400  2.8713  0.3869 -0.5718
  145MOL0     H19094   0.498   3.479   2.502 -2.6552  1.8346 -0.6449
  145MOL0     H19095   0.405   3.441   2.659  1.7139 -0.2198  1.4366
  145MOL0     H19096   0.580   3.601   2.753 -4.2445  4.1194 -3.2204
  145MOL0     H19097   0.671   3.592   2.602 -0.3958  1.2617  1.3117
  145MOL0     H19098   0.728   3.433   2.824 -0.2828 -0.5623  0.6133
  145MOL0     H19099   0.585   3.356   2.781 -0.9106  3.0444  1.6363
  145MOL0     H19100   0.688   3.298   2.548  3.5195 -2.4502 -1.9102
  145MOL0     H19101   0.777   3.229   2.669 -2.2137 -1.6313 -1.3565
  145MOL0     H19102   1.084   3.540   2.528 -0.9906 -1.3777 -0.9859
  145MOL0     H19103   1.313   3.486   2.610 -1.5335  2.7748 -1.4135
  145MOL0     H19104   1.501   3.062   3.012  0.4378 -0.1588 -0.1526
  145MOL0     H19105   1.677   3.040   3.185 -0.5907 -0.6782 -0.2001
  145MOL0     H19106   1.843   3.386   3.392 -0.8892 -2.2607  0.5440
  145MOL0     H19107   1.881   3.396   3.214  1.8920 -1.3662 -0.9778
  145MOL0     H19108   2.088   3.397   3.339  2.7587 -3.1903  0.0589
  145MOL0     H19109   2.071   3.241   3.269 -1.0452  1.7611 -3.1447
  145MOL0     H19110   2.013   3.127   3.441  0.5318  0.4973 -0.7438
  145MOL0     H19111   1.985   3.263   3.545 -0.1780 -1.2186  0.5860
  145MOL0     H19112   2.259   3.210   3.414  0.6587  0.3912  1.2852
  145MOL0     H19113   2.223   3.314   3.557 -1.3677 -0.1747  1.7351
  145MOL0     H19114   2.329   3.113   3.618  0.0630 -0.5687  0.8018
  145MOL0     H19115   2.211   3.010   3.541 -0.4902  0.5431 -0.7427
  145MOL0     H19116   2.203   3.018   3.784 -1.4323 -0.7210 -0.5614
  145MOL0     H19117   2.052   3.088   3.719  0.4980 -0.8505 -2.4262
  145MOL0     H19118   2.289   3.272   3.775  0.4743 -2.9781 -0.7466
  145MOL0     H19119   2.107   3.299   3.788 -1.1621 -1.6354 -0.2273
  145MOL0     H19120   2.278   3.124   3.972  1.1514 -0.0968 -1.2567
  145MOL0     H19121   2.103   3.135   3.960  0.2712  0.2380 -0.1739
  145MOL0     H19122   1.666   3.461   3.238 -2.1610 -0.2271  2.2682
  145MOL0     H19123   1.490   3.481   3.069 -2.0466 -0.4934  2.3385
  145MOL0     H19124   1.143   3.229   2.914  1.5354  1.3730  0.7137
  145MOL0     H19125   0.928   3.244   2.813 -1.2670  1.0412  0.7249
  145MOL0     H19126   0.332   3.541   2.890 -2.8809 -0.6091 -0.5562
  145MOL0     H19127   0.541   3.537   2.987  3.4609 -2.0017 -1.0381
  145MOL0     H19128   0.822   3.466   3.294 -1.8053 -0.2877 -3.7891
  145MOL0     H19129   1.038   3.478   3.412  3.1875 -2.1041  1.4072
  145MOL0     H19130   1.442   3.262   3.391  0.0252 -0.6343 -0.2204
  145MOL0     H19131   1.357   3.171   3.268  1.8725  3.0012 -1.3024
  145MOL0     H19132   1.289   3.176   3.565 -0.1135  0.3444 -0.1828
  145MOL0     H19133   1.184   3.110   3.444 -0.6852  3.7028  1.5904
  145MOL0     H19134   1.378   2.981   3.593  1.5903  1.6938 -0.2557
  145MOL0     H19135   1.481   3.037   3.465 -0.4521 -0.5343 -1.1135
  145MOL0     H19136   1.259   2.831   3.439 -0.7717  2.1015 -0.3750
  145MOL0     H19137   1.281   2.929   3.308  0.1817  1.0132 -0.2757
  145MOL0     H19138   1.611   2.698   3.219  0.8193 -2.5204  2.4411
  145MOL0     H19139   1.193   3.171   3.151 -0.8965 -0.8554 -1.3183
  145MOL0     H19140   0.958   3.133   3.055  3.6183  1.0999 -2.5551
  146MOL0     O19141   9.045  11.123   5.174  0.0427  0.0504  0.0476
  146MOL0     C19142   9.019  11.242   5.146  0.2424  0.1384  0.2983
  146MOL0     O19143   8.897  11.287   5.094  1.3652 -0.3447  0.1710
  146MOL0     C19144   8.792  11.197   5.070  0.7465 -0.1330  1.0112
  146MOL0     C19145   8.808  11.054   5.038 -0.6273 -1.0518 -0.0363
  146MOL0     C19146   8.704  10.972   4.992 -0.1534 -0.6518  0.1178
  146MOL0     C19147   8.579  11.029   4.967  0.9862  0.6895  0.1619
  146MOL0     O19148   8.476  10.948   4.915  0.1774 -0.0949 -0.3627
  146MOL0     C19149   8.344  11.003   4.894 -0.3205  1.3347  0.0199
  146MOL0     C19150   8.252  10.895   4.831 -0.0267 -0.2975  0.4566
  146MOL0     C19151   8.106  10.938   4.794  0.2193  0.6851 -0.1752
  146MOL0     C19152   8.098  11.091   4.745 -0.0917  0.7470 -0.3595
  146MOL0     C19153   7.957  11.120   4.681 -0.6733 -0.3504  0.5920
  146MOL0     C19154   7.843  11.095   4.778  0.9936 -0.2285 -0.4928
  146MOL0     C19155   7.705  11.124   4.707  0.1952 -0.3076 -0.0789
  146MOL0     C19156   7.611  11.178   4.817  0.0402 -0.0697 -0.7450
  146MOL0     N19157   7.485  11.254   4.775  0.1174  1.7506  0.8812
  146MOL0     C19158   7.410  11.194   4.679 -0.7593  0.1978  0.2106
  146MOL0     C19159   7.293  11.264   4.691  0.2292  0.9489 -0.2315
  146MOL0     C19160   7.182  11.242   4.583  0.4773 -0.2232  0.0570
  146MOL0     C19161   7.085  11.130   4.632 -0.3369 -0.0095  0.2943
  146MOL0     C19162   7.003  11.161   4.761  0.1690 -0.2363  0.0615
  146MOL0     C19163   6.897  11.049   4.789  0.4454  0.1509 -0.8033
  146MOL0     O19164   6.801  11.027   4.681 -0.0920 -0.4327 -0.1132
  146MOL0     C19165   6.727  11.139   4.650  0.2643 -0.4718 -0.1864
  146MOL0     C19166   6.757  11.215   4.532  0.4274  0.6676  0.1525
  146MOL0     C19167   6.687  11.330   4.505  0.1516 -0.4658  0.9304
  146MOL0     C19168   6.583  11.370   4.596 -0.8393  0.0244 -0.8923
  146MOL0     C19169   6.491  11.481   4.561  0.0526 -0.3107 -0.8799
  146MOL0     O19170   6.459  11.484   4.430 -0.4210 -0.6115  0.0717
  146MOL0     C19171   6.367  11.583   4.387  0.1577 -0.3503  0.1062
  146MOL0     C19172   6.353  11.715   4.437 -0.3137  0.2896  0.3862
  146MOL0     C19173   6.258  11.810   4.385 -0.2507  0.3448 -0.6927
  146MOL0     C19174   6.180  11.760   4.277 -0.5183 -0.3775 -0.2650
  146MOL0     O19175   6.071  11.837   4.233 -0.5280  0.0526 -0.0400
  146MOL0     C19176   5.985  11.802   4.122 -0.3704 -0.0474  0.0354
  146MOL0     C19177   5.883  11.917   4.093  0.3407  0.0785  0.1216
  146MOL0     C19178   5.811  11.898   3.955 -0.5004 -0.7129  0.5767
  146MOL0     C19179   5.743  11.770   3.936 -0.0183  0.5607  0.7604
  146MOL0     C19180   5.687  11.775   3.789 -0.5452  0.8602 -0.2859
  146MOL0     C19181   5.605  11.648   3.774  0.1145  0.1912 -0.7586
  146MOL0     C19182   5.562  11.635   3.626  0.5456  0.5640  0.3543
  146MOL0     C19183   5.452  11.728   3.570  1.3111  0.0159  0.0227
  146MOL0    Cl19184   5.317  11.728   3.680  0.0060  0.1490 -0.0524
  146MOL0     C19185   6.189  11.631   4.225 -0.8353  0.1826  0.0351
  146MOL0     C19186   6.281  11.546   4.284  0.5178 -0.2653 -0.4458
  146MOL0     O19187   6.430  11.547   4.647 -0.4365  0.1986 -0.1834
  146MOL0     C19188   6.554  11.300   4.714  0.3835  0.0173 -0.0734
  146MOL0     C19189   6.623  11.180   4.735  0.9429 -0.8689 -0.6773
  146MOL0     N19190   7.306  11.357   4.787 -0.0855 -0.2630  0.8953
  146MOL0     N19191   7.425  11.360   4.826 -0.5391 -0.5244  0.9697
  146MOL0     C19192   8.562  11.167   5.001  0.5311  0.1744  0.2981
  146MOL0     C19193   8.661  11.243   5.057 -0.3239  0.4523 -0.1170
  146MOL0     C19194   9.122  11.341   5.163 -0.3316  0.3806  0.8973
  146MOL0     C19195   9.250  11.303   5.216 -0.2004 -0.5479  0.0582
  146MOL0     C19196   9.355  11.388   5.222  0.1595 -0.4280 -0.1116
  146MOL0     C19197   9.343  11.530   5.188 -0.3473  0.1788  0.4666
  146MOL0     O19198   9.439  11.623   5.201 -0.3281 -0.1039  0.1104
  146MOL0     C19199   9.561  11.586   5.270  0.0849 -0.5453 -0.3273
  146MOL0     C19200   9.664  11.509   5.185  0.2934 -0.0047  0.6472
  146MOL0     C19201   9.808  11.517   5.235  0.1663 -0.2903  0.0523
  146MOL0     C19202   9.893  11.425   5.148  0.0772 -0.0282  0.7356
  146MOL0     C19203  10.033  11.425   5.191  0.4476 -0.3105 -0.7400
  146MOL0     C19204  10.143  11.421   5.229 -0.1817  0.1132 -0.4974
  146MOL0     C19205   9.219  11.574   5.138  0.9289 -0.0125  1.3118
  146MOL0     C19206   9.107  11.478   5.131 -0.5919 -0.4881  0.1852
  146MOL0     H19207   8.894  10.992   5.062 -0.0748  0.3066  1.7256
  146MOL0     H19208   8.723  10.866   4.981 -3.5210 -1.3244 -0.3945
  146MOL0     H19209   8.348  11.088   4.825  0.5735  1.2833 -0.0095
  146MOL0     H19210   8.298  11.034   4.988 -1.0368  0.4972 -0.0393
  146MOL0     H19211   8.256  10.805   4.894  0.9528  0.1551  1.0579
  146MOL0     H19212   8.301  10.867   4.737  0.9835  0.1422  0.8365
  146MOL0     H19213   8.040  10.926   4.880  1.1701 -0.6547  0.3961
  146MOL0     H19214   8.055  10.876   4.719  2.7692 -2.2257  0.3183
  146MOL0     H19215   8.123  11.167   4.819  3.9163  0.0386 -0.7611
  146MOL0     H19216   8.177  11.115   4.673  0.2780  0.9313  0.1048
  146MOL0     H19217   7.930  11.064   4.591 -0.8585  0.4800  0.1285
  146MOL0     H19218   7.961  11.222   4.643  0.8328 -1.1468 -1.5348
  146MOL0     H19219   7.878  11.155   4.862 -0.5905 -1.0878  0.8310
  146MOL0     H19220   7.836  10.991   4.809 -2.0564 -0.0402 -0.3034
  146MOL0     H19221   7.714  11.193   4.623 -1.5762 -0.0921 -0.1214
  146MOL0     H19222   7.669  11.031   4.663 -0.9477  0.2402 -0.3406
  146MOL0     H19223   7.662  11.249   4.882 -1.3298  2.2025 -2.0117
  146MOL0     H19224   7.567  11.099   4.878 -0.3860 -0.8129 -1.9708
  146MOL0     H19225   7.435  11.103   4.625  2.2733  0.7016  0.5851
  146MOL0     H19226   7.235  11.214   4.491  1.1748 -0.1583  0.4328
  146MOL0     H19227   7.120  11.331   4.571  0.1793 -0.4529 -0.1114
  146MOL0     H19228   7.139  11.040   4.663 -0.7637  0.5134  2.8159
  146MOL0     H19229   7.025  11.099   4.546 -1.3265 -0.0980  0.9929
  146MOL0     H19230   7.075  11.165   4.843 -2.0482  0.2324  2.1212
  146MOL0     H19231   6.951  11.257   4.758  1.4306  0.4463 -0.3873
  146MOL0     H19232   6.848  11.076   4.883  3.7074  1.3177  0.6853
  146MOL0     H19233   6.950  10.955   4.800  0.1267  0.1674  1.0848
  146MOL0     H19234   6.823  11.166   4.461 -0.1948  1.5251 -1.0688
  146MOL0     H19235   6.712  11.382   4.413 -1.7499 -0.6286  0.2802
  146MOL0     H19236   6.422  11.752   4.512 -0.6241  1.9277 -0.0904
  146MOL0     H19237   6.248  11.914   4.414 -0.4017 -0.1820  1.2882
  146MOL0     H19238   5.929  11.711   4.147 -0.8092  0.7028  2.0070
  146MOL0     H19239   6.055  11.787   4.040  1.6522  1.7694  1.3306
  146MOL0     H19240   5.947  12.003   4.076 -0.2055  0.4226 -0.2282
  146MOL0     H19241   5.805  11.918   4.170  0.6464 -0.2267  0.4404
  146MOL0     H19242   5.889  11.919   3.881 -0.3169  1.6345  1.3453
  146MOL0     H19243   5.738  11.978   3.943 -1.9962 -2.1829 -0.4506
  146MOL0     H19244   5.813  11.686   3.937  3.4471  3.2195  0.9659
  146MOL0     H19245   5.661  11.752   4.007  0.0264  0.9592  0.9166
  146MOL0     H19246   5.768  11.777   3.715 -0.6313 -1.6481 -0.5420
  146MOL0     H19247   5.613  11.853   3.771 -2.2228 -0.9787 -1.7482
  146MOL0     H19248   5.514  11.635   3.834  0.4750 -1.6648 -0.5458
  146MOL0     H19249   5.670  11.561   3.781  2.3828  1.8032 -0.8293
  146MOL0     H19250   5.649  11.645   3.561 -1.2515  0.9981 -2.0874
  146MOL0     H19251   5.523  11.536   3.602 -1.1972  0.6813  2.3783
  146MOL0     H19252   5.409  11.694   3.475  0.0024 -1.9901  1.2487
  146MOL0     H19253   5.491  11.830   3.572  1.2680  0.0374  2.7104
  146MOL0     H19254   6.115  11.595   4.155 -0.0029 -0.3991 -0.5794
  146MOL0     H19255   6.286  11.443   4.250  0.1891 -0.0185 -1.2468
  146MOL0     H19256   6.470  11.338   4.771  0.2769  2.6146 -1.7959
  146MOL0     H19257   6.596  11.125   4.825 -0.3981  2.2056  0.9651
  146MOL0     H19258   8.475  11.225   4.972  1.3990 -0.3242 -3.8866
  146MOL0     H19259   8.654  11.350   5.070 -1.4211  0.2576  1.1672
  146MOL0     H19260   9.267  11.203   5.257 -0.4990 -0.0590  1.4435
  146MOL0     H19261   9.440  11.352   5.279  1.8734  1.1696 -1.4865
  146MOL0     H19262   9.529  11.532   5.360 -0.9851  2.1704  1.0407
  146MOL0     H19263   9.614  11.670   5.316 -1.1110 -1.4757  3.0591
  146MOL0     H19264   9.635  11.404   5.182 -0.0898  0.1141 -1.3489
  146MOL0     H19265   9.666  11.547   5.082  0.5880  1.9222  1.3309
  146MOL0     H19266   9.802  11.485   5.339 -2.3331 -1.0939 -0.2771
  146MOL0     H19267   9.855  11.616   5.232  1.1300 -0.6626  1.7676
  146MOL0     H19268   9.864  11.320   5.150  2.1863 -0.6411  1.5793
  146MOL0     H19269   9.884  11.467   5.047  1.5451  0.8297  0.9329
  146MOL0     H19270  10.247  11.422   5.258 -0.0508  1.8551 -0.8996
  146MOL0     H19271   9.210  11.676   5.103 -1.7410 -1.3723 -2.6988
  146MOL0     H19272   9.012  11.514   5.096  0.2843  3.9805  1.7329
  147MOL0     O19273   4.489   0.423   1.515  0.2336  0.3971 -0.3452
  147MOL0     C19274   4.551   0.339   1.450  0.5082 -0.6186  0.4427
  147MOL0     O19275   4.521   0.205   1.447 -0.5089  0.5757  0.4274
  147MOL0     C19276   4.403   0.164   1.493 -0.7093 -0.2038  0.2784
  147MOL0     C19277   4.286   0.216   1.441 -0.2010  0.5358  0.0382
  147MOL0     C19278   4.165   0.167   1.496  0.1346  0.1698 -0.4488
  147MOL0     C19279   4.159   0.051   1.577  1.1928  0.0775  1.1785
  147MOL0     O19280   4.033   0.015   1.630  0.0677  0.3822  0.6149
  147MOL0     C19281   3.913   0.044   1.560 -0.6777 -0.2189 -0.4559
  147MOL0     C19282   3.792  -0.022   1.628 -0.2365  0.5204 -1.4691
  147MOL0     C19283   3.684  -0.012   1.531  0.3606 -0.2924  0.0649
  147MOL0     C19284   3.552  -0.050   1.576  0.0606 -0.3816 -0.2364
  147MOL0     C19285   3.447  -0.058   1.455  0.8709 -0.4930 -0.1822
  147MOL0     C19286   3.485  -0.154   1.343  0.1600 -0.1721  0.0209
  147MOL0     C19287   3.358  -0.180   1.261 -0.0311 -0.2091  0.1585
  147MOL0     C19288   3.386  -0.275   1.138 -0.0109 -0.2055 -0.5959
  147MOL0     N19289   3.257  -0.328   1.089 -0.4095 -0.0750  0.0753
  147MOL0     C19290   3.156  -0.246   1.043  0.2524  0.1706 -0.4138
  147MOL0     C19291   3.062  -0.324   0.981 -0.5020 -0.3817  0.2679
  147MOL0     C19292   2.932  -0.291   0.915  0.3004  1.4639 -0.0989
  147MOL0     C19293   2.811  -0.364   0.973 -0.7159 -0.7155  0.2039
  147MOL0     C19294   2.692  -0.350   0.873 -0.6783 -0.0941  0.9770
  147MOL0     C19295   2.564  -0.421   0.924 -0.3336  0.8580 -0.0726
  147MOL0     O19296   2.492  -0.336   1.016  0.5812  0.5448  0.4477
  147MOL0     C19297   2.362  -0.381   1.024  0.7697  0.3040  0.2787
  147MOL0     C19298   2.311  -0.512   1.045 -0.5297 -0.4425 -0.7767
  147MOL0     C19299   2.167  -0.538   1.045 -0.5845 -0.2233  0.4920
  147MOL0     C19300   2.081  -0.427   1.053  0.2828 -0.6659  0.3548
  147MOL0     C19301   1.937  -0.451   1.083  0.0190  0.7661  0.4644
  147MOL0     O19302   1.876  -0.349   1.151  0.1095 -0.9714  0.8007
  147MOL0     C19303   1.747  -0.363   1.188 -0.0910 -0.4305  0.1059
  147MOL0     C19304   1.643  -0.425   1.120 -0.0469 -0.9211  0.0364
  147MOL0     C19305   1.521  -0.456   1.174  0.0682  0.1073  0.0411
  147MOL0     C19306   1.495  -0.414   1.313 -0.0361 -0.3681 -0.9929
  147MOL0     O19307   1.373  -0.443   1.373 -0.0581  0.5723  0.4084
  147MOL0     C19308   1.366  -0.460   1.513  0.7013  0.7562 -0.1487
  147MOL0     C19309   1.303  -0.598   1.564  0.4489  0.2134  1.0679
  147MOL0     C19310   1.193  -0.658   1.470 -0.0908  0.0422 -0.3928
  147MOL0     C19311   1.174  -0.804   1.509 -0.6141 -0.3134 -0.6795
  147MOL0     C19312   1.072  -0.888   1.428  0.0832  0.0188 -0.5819
  147MOL0     C19313   0.927  -0.844   1.443 -0.2468 -0.4161 -0.3767
  147MOL0     C19314   0.864  -0.852   1.580 -0.6042 -1.0202 -0.4950
  147MOL0     C19315   0.887  -0.981   1.658  0.2413  0.3093  0.4000
  147MOL0    Cl19316   0.831  -1.121   1.560  0.5300 -0.0996 -0.0957
  147MOL0     C19317   1.594  -0.339   1.376 -0.3600 -0.3833  0.8528
  147MOL0     C19318   1.717  -0.321   1.319 -1.2495  0.1893  0.6436
  147MOL0     O19319   1.880  -0.559   1.046 -0.1974 -0.1568  0.1974
  147MOL0     C19320   2.135  -0.299   1.044  0.0425 -0.5630  0.0099
  147MOL0     C19321   2.269  -0.277   1.023  0.1492 -0.0217  0.2497
  147MOL0     N19322   3.109  -0.458   0.986  0.6805 -0.1619 -0.4136
  147MOL0     N19323   3.226  -0.455   1.050 -0.2953 -0.5164  1.1345
  147MOL0     C19324   4.283   0.005   1.632  0.2508  0.9082  0.1534
  147MOL0     C19325   4.407   0.053   1.580  0.8152 -0.2821 -0.1170
  147MOL0     C19326   4.687   0.380   1.415 -0.0236  0.7479  0.2092
  147MOL0     C19327   4.789   0.282   1.411 -0.6085 -1.1800 -0.3115
  147MOL0     C19328   4.924   0.320   1.367 -0.2063 -0.2353  0.0519
  147MOL0     C19329   4.944   0.450   1.343  1.7966  0.0714  0.3797
  147MOL0     O19330   5.060   0.507   1.319 -0.2165 -0.4807  0.4981
  147MOL0     C19331   5.163   0.430   1.278  0.1504  0.1148  0.3630
  147MOL0     C19332   5.283   0.519   1.235  0.7042  0.1678  0.1417
  147MOL0     C19333   5.244   0.606   1.112 -0.1014 -0.1376  0.6622
  147MOL0     C19334   5.171   0.736   1.147  0.5468 -1.1072 -0.5740
  147MOL0     C19335   5.037   0.732   1.089  0.8688 -0.5193  0.2077
  147MOL0     C19336   4.922   0.733   1.046 -0.5136 -0.7275  0.2389
  147MOL0     C19337   4.846   0.544   1.348 -0.5037  0.3012  0.0108
  147MOL0     C19338   4.717   0.505   1.384  0.1449 -0.0394  0.5570
  147MOL0     H19339   4.288   0.303   1.376  2.3315  1.1708  0.8574
  147MOL0     H19340   4.082   0.222   1.455 -0.7343 -1.4834 -0.9725
  147MOL0     H19341   3.927   0.011   1.456  4.0946 -0.6259  0.1028
  147MOL0     H19342   3.904   0.153   1.562 -1.4260 -0.2772 -0.3637
  147MOL0     H19343   3.775   0.025   1.725 -0.4235 -3.3793  0.5749
  147MOL0     H19344   3.823  -0.125   1.651  0.1840  0.8980 -0.2703
  147MOL0     H19345   3.705  -0.076   1.445 -1.8389 -1.8275  0.5663
  147MOL0     H19346   3.673   0.091   1.495 -2.3423 -0.3286  0.5225
  147MOL0     H19347   3.554  -0.150   1.619  1.7164 -1.4743 -2.6421
  147MOL0     H19348   3.515   0.029   1.642  1.4200 -0.2876  0.4423
  147MOL0     H19349   3.425   0.042   1.415 -2.9432 -1.1412 -0.1111
  147MOL0     H19350   3.359  -0.097   1.508  1.9192  1.4500  3.3787
  147MOL0     H19351   3.524  -0.253   1.369 -0.6292 -1.0172 -1.7669
  147MOL0     H19352   3.565  -0.109   1.284  1.2701  1.9120  2.9150
  147MOL0     H19353   3.270  -0.214   1.316  1.6668 -2.1564  1.8554
  147MOL0     H19354   3.325  -0.084   1.221  0.3477  0.5396  1.5929
  147MOL0     H19355   3.449  -0.360   1.165 -0.0685 -0.2492 -0.5968
  147MOL0     H19356   3.448  -0.227   1.062  0.8204 -0.5679 -0.1593
  147MOL0     H19357   3.147  -0.139   1.063  0.6145 -0.2746  2.5858
  147MOL0     H19358   2.941  -0.301   0.806 -0.5450 -1.0395 -0.0025
  147MOL0     H19359   2.901  -0.188   0.934 -0.1998  1.5953 -1.4988
  147MOL0     H19360   2.783  -0.318   1.068 -1.6396 -1.5388  0.3439
  147MOL0     H19361   2.831  -0.471   0.988 -1.1132 -0.4240  3.7461
  147MOL0     H19362   2.671  -0.246   0.847 -3.3705 -0.2723  2.0424
  147MOL0     H19363   2.729  -0.397   0.782 -0.0793 -0.5456  1.4431
  147MOL0     H19364   2.592  -0.511   0.981  0.7411 -1.3445 -3.7389
  147MOL0     H19365   2.508  -0.459   0.838  0.8995 -1.7733  0.1575
  147MOL0     H19366   2.370  -0.602   1.059 -0.5046 -0.2063  0.7417
  147MOL0     H19367   2.124  -0.638   1.048 -2.1812  0.3848 -0.7577
  147MOL0     H19368   1.671  -0.464   1.022 -1.9535  1.3324 -1.4960
  147MOL0     H19369   1.453  -0.520   1.119  0.9236 -0.7233 -0.0731
  147MOL0     H19370   1.302  -0.376   1.542  1.9545  1.8137 -0.3638
  147MOL0     H19371   1.465  -0.449   1.557  2.6978 -2.2387 -3.3769
  147MOL0     H19372   1.262  -0.584   1.664 -0.3326  0.9794  0.6579
  147MOL0     H19373   1.386  -0.668   1.574  0.2137 -0.4519 -1.1212
  147MOL0     H19374   1.219  -0.655   1.364  0.7870 -0.9033 -0.2226
  147MOL0     H19375   1.104  -0.597   1.485 -0.4115  0.0689 -2.1985
  147MOL0     H19376   1.267  -0.859   1.492  0.0917  1.6342 -4.0241
  147MOL0     H19377   1.137  -0.806   1.612  0.2478  0.9053 -0.3190
  147MOL0     H19378   1.064  -0.995   1.450 -2.6539 -0.5527 -3.5534
  147MOL0     H19379   1.094  -0.887   1.321  1.6113  1.6931 -0.3047
  147MOL0     H19380   0.872  -0.907   1.373 -3.4563 -0.8046  2.2520
  147MOL0     H19381   0.911  -0.741   1.411  3.1094 -0.1957 -1.7786
  147MOL0     H19382   0.918  -0.770   1.627 -0.6165 -0.9783 -0.5548
  147MOL0     H19383   0.760  -0.819   1.577 -0.6774 -0.6672  2.3983
  147MOL0     H19384   0.856  -0.956   1.760  2.8611  2.7409  0.6918
  147MOL0     H19385   0.992  -0.993   1.685 -0.3292 -1.3063  2.2008
  147MOL0     H19386   1.586  -0.291   1.473 -0.7414  3.1615 -0.7806
  147MOL0     H19387   1.802  -0.292   1.380 -0.8003  1.9616 -0.7315
  147MOL0     H19388   2.066  -0.215   1.051 -0.1728 -0.6923 -0.4907
  147MOL0     H19389   2.305  -0.176   1.008  1.2524 -0.6375 -1.5431
  147MOL0     H19390   4.284  -0.078   1.701  3.6304  0.1187 -0.6354
  147MOL0     H19391   4.505   0.017   1.608 -0.2338 -2.9911  0.3890
  147MOL0     H19392   4.769   0.178   1.434 -0.0684 -0.8614  1.8692
  147MOL0     H19393   5.010   0.254   1.366  0.1073  0.1614  0.7297
  147MOL0     H19394   5.138   0.366   1.193 -1.0766  0.9285  0.0840
  147MOL0     H19395   5.196   0.376   1.368  2.1390  4.5501  2.6040
  147MOL0     H19396   5.307   0.576   1.326 -0.2969 -3.8805  3.2364
  147MOL0     H19397   5.364   0.449   1.213  0.0606 -0.4575 -0.2762
  147MOL0     H19398   5.183   0.547   1.044  1.1315 -0.5514 -0.1001
  147MOL0     H19399   5.335   0.646   1.066  0.1693 -0.4770  0.9035
  147MOL0     H19400   5.160   0.752   1.255 -1.8092 -2.6074 -0.5172
  147MOL0     H19401   5.223   0.826   1.113 -0.0483  0.1548  1.6547
  147MOL0     H19402   4.824   0.750   1.007  0.1663  0.2002 -1.1625
  147MOL0     H19403   4.882   0.644   1.325  0.8235  0.0219  0.8244
  147MOL0     H19404   4.652   0.591   1.372  2.0142  1.2550 -0.7717
  148MOL0     O19405   8.582   8.635   0.460 -0.3570  0.0811  0.0174
  148MOL0     C19406   8.559   8.518   0.428 -0.5581 -0.0493  0.3621
  148MOL0     O19407   8.619   8.454   0.320  0.5743 -0.0760 -0.4643
  148MOL0     C19408   8.678   8.528   0.222  1.0649 -0.0187  0.5368
  148MOL0     C19409   8.598   8.636   0.166 -0.0256  0.7025  0.6869
  148MOL0     C19410   8.648   8.700   0.050 -1.2921  0.4537  0.0299
  148MOL0     C19411   8.776   8.675   0.004 -1.0166 -0.3938 -0.4208
  148MOL0     O19412   8.811   8.742  -0.106 -0.1530 -0.6260  0.3626
  148MOL0     C19413   8.929   8.694  -0.172 -0.2189 -0.4032  0.5942
  148MOL0     C19414   8.949   8.761  -0.307 -0.9195  0.2740  0.1652
  148MOL0     C19415   8.863   8.695  -0.416 -0.1188 -0.6874  0.4190
  148MOL0     C19416   8.923   8.576  -0.483  0.1809  0.4926 -0.3934
  148MOL0     C19417   8.875   8.566  -0.628 -0.0783 -0.1567  0.4489
  148MOL0     C19418   8.918   8.439  -0.715  0.5708  0.8501  0.2082
  148MOL0     C19419   9.069   8.405  -0.711  0.0403 -0.4183 -0.4363
  148MOL0     C19420   9.107   8.286  -0.809  0.2661 -0.2500  0.4455
  148MOL0     N19421   9.257   8.243  -0.817 -0.9485 -0.9244 -1.0467
  148MOL0     C19422   9.355   8.250  -0.914 -0.0419 -0.0224  0.2415
  148MOL0     C19423   9.464   8.178  -0.859  0.0224 -0.3868  1.2102
  148MOL0     C19424   9.596   8.141  -0.924  0.0272  0.2976  0.0468
  148MOL0     C19425   9.689   8.033  -0.851 -0.4929  0.1153 -0.4034
  148MOL0     C19426   9.833   8.021  -0.904  1.4362 -0.1722  0.4817
  148MOL0     C19427   9.908   7.904  -0.833 -1.2615 -0.5282 -0.6645
  148MOL0     O19428  10.024   7.868  -0.918  0.3920 -0.1175 -0.1784
  148MOL0     C19429  10.143   7.824  -0.861  0.0619  0.1291  0.5865
  148MOL0     C19430  10.164   7.686  -0.868  0.6005  0.5303 -0.2184
  148MOL0     C19431  10.287   7.631  -0.817  0.3217 -0.2565  0.3945
  148MOL0     C19432  10.360   7.706  -0.729 -0.4427 -0.8426 -0.6506
  148MOL0     C19433  10.486   7.659  -0.672  0.6896 -0.1219  0.2169
  148MOL0     O19434  10.535   7.728  -0.559  0.0612  0.0284  0.5174
  148MOL0     C19435  10.641   7.678  -0.478 -0.7846  0.1208  0.3542
  148MOL0     C19436  10.713   7.779  -0.405  0.1449  0.3413  0.1063
  148MOL0     C19437  10.815   7.734  -0.310  0.4793 -0.7009  0.0129
  148MOL0     C19438  10.853   7.595  -0.315 -0.1194 -0.8431  0.1953
  148MOL0     O19439  10.961   7.542  -0.247  0.0373  0.3123  0.1189
  148MOL0     C19440  11.076   7.635  -0.227 -0.4434  1.0478  0.1658
  148MOL0     C19441  11.183   7.561  -0.136 -0.6536  0.3115  0.2021
  148MOL0     C19442  11.126   7.507  -0.001  0.4140  0.6656 -0.8482
  148MOL0     C19443  11.085   7.620   0.091 -0.3530  0.1088  0.4487
  148MOL0     C19444  10.997   7.563   0.204  0.2568  0.1181  0.6390
  148MOL0     C19445  11.076   7.454   0.275 -0.3306 -0.7373 -0.2992
  148MOL0     C19446  11.034   7.444   0.422 -0.3677 -0.5296  0.6467
  148MOL0     C19447  11.087   7.548   0.522  0.7908 -0.2732  0.2011
  148MOL0    Cl19448  11.031   7.488   0.688 -0.4649  0.0574  0.3600
  148MOL0     C19449  10.786   7.502  -0.395 -0.0049 -0.4866 -0.4390
  148MOL0     C19450  10.683   7.542  -0.475  0.1270 -0.7601 -0.7262
  148MOL0     O19451  10.538   7.558  -0.721 -0.5608 -0.0958  1.0434
  148MOL0     C19452  10.342   7.842  -0.717  0.4795 -0.0971  0.0158
  148MOL0     C19453  10.233   7.903  -0.786  0.1911 -0.4980 -0.5253
  148MOL0     N19454   9.419   8.129  -0.742  0.2556  0.6205 -0.1853
  148MOL0     N19455   9.302   8.160  -0.722  0.1504  0.0313 -0.2807
  148MOL0     C19456   8.860   8.587   0.078  0.3178 -0.2782  0.0120
  148MOL0     C19457   8.808   8.505   0.181  0.6149 -0.3067 -0.3184
  148MOL0     C19458   8.464   8.441   0.507 -0.3001  0.3057  0.2426
  148MOL0     C19459   8.421   8.320   0.458 -0.0708 -0.4333 -0.6283
  148MOL0     C19460   8.345   8.239   0.539  0.2005 -0.0594  0.2320
  148MOL0     C19461   8.303   8.282   0.670 -0.4726 -0.4536 -0.3525
  148MOL0     O19462   8.230   8.200   0.744  0.6057 -0.1555 -0.0227
  148MOL0     C19463   8.169   8.235   0.871 -0.1898  0.8452  0.2092
  148MOL0     C19464   8.074   8.358   0.846  0.0443  0.3450  0.2244
  148MOL0     C19465   7.950   8.367   0.950  0.7523  0.6589  0.0580
  148MOL0     C19466   7.831   8.296   0.898 -0.3810 -0.3506  0.0448
  148MOL0     C19467   7.717   8.304   0.992 -0.1422 -1.4406  0.6009
  148MOL0     C19468   7.615   8.327   1.054  0.9519  0.2997  0.4761
  148MOL0     C19469   8.361   8.399   0.721  0.2906 -0.8031 -0.1606
  148MOL0     C19470   8.438   8.481   0.640  0.4905  0.0371  0.0928
  148MOL0     H19471   8.502   8.666   0.207 -1.4627 -1.7859 -0.6093
  148MOL0     H19472   8.586   8.781   0.012  0.3063  1.1240 -1.2861
  148MOL0     H19473   8.934   8.586  -0.187 -0.4288 -0.9090  3.5516
  148MOL0     H19474   9.020   8.723  -0.119  0.5507 -0.6174 -0.5810
  148MOL0     H19475   9.055   8.745  -0.329 -0.3671 -1.8135  3.5786
  148MOL0     H19476   8.928   8.868  -0.291  1.6599  0.7006  1.1880
  148MOL0     H19477   8.844   8.770  -0.493 -2.0775 -1.6944 -0.1097
  148MOL0     H19478   8.763   8.676  -0.375 -0.4955 -2.1904 -1.1041
  148MOL0     H19479   9.032   8.583  -0.488  0.0685  1.5195 -2.2802
  148MOL0     H19480   8.903   8.490  -0.418 -1.1272  0.5968 -0.6315
  148MOL0     H19481   8.920   8.651  -0.680  5.8002 -2.8900  0.3175
  148MOL0     H19482   8.766   8.573  -0.633 -0.1269  1.3440  2.3925
  148MOL0     H19483   8.892   8.455  -0.820 -2.1621 -2.3974  0.2208
  148MOL0     H19484   8.854   8.354  -0.690  0.0603  1.1068 -0.2032
  148MOL0     H19485   9.131   8.493  -0.730 -0.9995  0.1889 -1.0558
  148MOL0     H19486   9.077   8.371  -0.607 -0.9488  0.0652 -0.1862
  148MOL0     H19487   9.067   8.317  -0.906 -1.0525 -1.9276  0.4012
  148MOL0     H19488   9.055   8.200  -0.765  1.1663 -1.1352 -0.1822
  148MOL0     H19489   9.349   8.288  -1.016 -0.5005 -1.5121 -0.3114
  148MOL0     H19490   9.645   8.238  -0.914  0.8594 -0.0770 -0.3004
  148MOL0     H19491   9.575   8.133  -1.031 -1.3744 -1.5871  0.4185
  148MOL0     H19492   9.649   7.931  -0.856 -1.2625  0.3059  1.1173
  148MOL0     H19493   9.686   8.076  -0.750  0.1232 -0.4217 -0.1506
  148MOL0     H19494   9.830   8.008  -1.012 -0.2422  0.7227  0.4005
  148MOL0     H19495   9.882   8.117  -0.885  3.3377 -0.4924 -2.2199
  148MOL0     H19496   9.838   7.820  -0.828  0.2122 -1.7415  1.0287
  148MOL0     H19497   9.942   7.954  -0.741 -2.0086  0.9680 -1.1658
  148MOL0     H19498  10.101   7.627  -0.934  3.4964 -2.6392 -0.4053
  148MOL0     H19499  10.309   7.530  -0.851  2.6263  0.7654 -1.3953
  148MOL0     H19500  10.688   7.885  -0.412  2.2389  0.9069  0.5552
  148MOL0     H19501  10.866   7.807  -0.248  0.0985  2.3053 -2.8963
  148MOL0     H19502  11.046   7.725  -0.173 -0.9553  0.5480  0.7301
  148MOL0     H19503  11.120   7.672  -0.320  1.0942 -0.3758  0.2846
  148MOL0     H19504  11.259   7.637  -0.116  0.7087 -0.2338 -2.4958
  148MOL0     H19505  11.223   7.480  -0.198  0.0285  1.2048 -0.5505
  148MOL0     H19506  11.202   7.438   0.037  0.4369 -1.2124 -3.9473
  148MOL0     H19507  11.038   7.446  -0.025  1.4916 -0.1456 -2.9636
  148MOL0     H19508  11.179   7.666   0.121 -0.4648  2.3140 -2.1018
  148MOL0     H19509  11.027   7.692   0.032 -1.5972 -2.5084 -1.7720
  148MOL0     H19510  10.897   7.528   0.177  0.0802 -0.0621  1.4974
  148MOL0     H19511  10.982   7.649   0.270 -1.3647  2.1938 -2.2299
  148MOL0     H19512  11.183   7.472   0.262 -0.5164 -0.3640 -1.4699
  148MOL0     H19513  11.063   7.354   0.232  0.9485 -0.6807 -0.8562
  148MOL0     H19514  10.926   7.465   0.417 -0.0451  1.3073  0.6198
  148MOL0     H19515  11.045   7.340   0.453 -1.6503 -1.1299 -0.7849
  148MOL0     H19516  11.054   7.647   0.489  0.9166 -0.1437  0.4603
  148MOL0     H19517  11.196   7.553   0.531  0.5892  0.5426  3.3378
  148MOL0     H19518  10.819   7.400  -0.412  1.5140 -0.2418  0.7682
  148MOL0     H19519  10.626   7.462  -0.522  0.5473 -1.0970 -0.6644
  148MOL0     H19520  10.412   7.896  -0.655  1.9404 -1.3578 -0.4784
  148MOL0     H19521  10.208   8.003  -0.752  2.6157 -0.2027  0.5552
  148MOL0     H19522   8.964   8.579   0.049  0.9134  3.4735  0.6804
  148MOL0     H19523   8.864   8.421   0.221 -0.3862  0.2133  2.3633
  148MOL0     H19524   8.440   8.281   0.358 -3.0580 -0.9403 -1.1117
  148MOL0     H19525   8.330   8.138   0.503 -2.0115  0.5896 -0.7912
  148MOL0     H19526   8.255   8.269   0.929 -1.2234  3.3900  0.4108
  148MOL0     H19527   8.115   8.152   0.918 -1.8388  2.7967  2.0064
  148MOL0     H19528   8.121   8.457   0.849 -0.3253  0.5393  3.6877
  148MOL0     H19529   8.026   8.341   0.749 -1.6053 -0.4279  1.1374
  148MOL0     H19530   7.907   8.467   0.956 -0.5267  0.2135 -1.0651
  148MOL0     H19531   7.981   8.330   1.048 -2.7070 -0.2331  0.9683
  148MOL0     H19532   7.813   8.324   0.794 -2.8505  1.2123  0.7873
  148MOL0     H19533   7.864   8.193   0.882  1.3207  0.5058 -2.5619
  148MOL0     H19534   7.531   8.368   1.107  2.0041 -1.6943  4.0401
  148MOL0     H19535   8.342   8.429   0.824 -0.4848 -4.1879  0.7968
  148MOL0     H19536   8.488   8.566   0.686  0.2215 -0.1313  0.7201
  149MOL0     O19537   8.196   8.520   1.306  1.3274  0.1254  0.4875
  149MOL0     C19538   8.150   8.420   1.366 -0.4956 -0.1208 -0.2874
  149MOL0     O19539   8.219   8.312   1.404 -0.0270  0.3594 -0.6657
  149MOL0     C19540   8.333   8.266   1.344 -0.5332 -0.4242 -0.0377
  149MOL0     C19541   8.394   8.322   1.236  0.2277 -0.2766  0.2173
  149MOL0     C19542   8.488   8.252   1.162 -0.2955  0.1845 -0.5342
  149MOL0     C19543   8.550   8.137   1.205  0.1330 -0.4018 -0.1917
  149MOL0     O19544   8.656   8.068   1.148  0.3395 -0.5559 -0.6824
  149MOL0     C19545   8.729   8.128   1.034  1.1600  0.8516 -0.1479
  149MOL0     C19546   8.669   8.102   0.897  0.3271 -0.0013  0.5448
  149MOL0     C19547   8.660   7.954   0.866 -0.3619  0.0592  0.3467
  149MOL0     C19548   8.554   7.927   0.758 -0.6102 -0.4535 -0.2351
  149MOL0     C19549   8.618   7.964   0.622  0.1272  0.6091 -0.0397
  149MOL0     C19550   8.542   7.903   0.506  0.3992  0.5970 -0.1556
  149MOL0     C19551   8.588   7.969   0.371 -0.9060 -0.0581  0.1823
  149MOL0     C19552   8.532   7.896   0.250  0.4055 -0.1339 -0.1876
  149MOL0     N19553   8.399   7.941   0.219  1.0089  0.1637  0.8991
  149MOL0     C19554   8.357   8.031   0.117 -0.0839 -0.6847  0.2660
  149MOL0     C19555   8.229   8.059   0.136 -0.2489  0.0010  0.2507
  149MOL0     C19556   8.162   8.167   0.048  0.4572  1.3469 -0.5680
  149MOL0     C19557   8.072   8.107  -0.070  0.1306 -0.7744 -0.3542
  149MOL0     C19558   7.970   8.001  -0.011  0.2556  0.5176 -0.3819
  149MOL0     C19559   7.878   8.047   0.106 -0.2322 -0.3160  0.9358
  149MOL0     O19560   7.764   7.960   0.106  1.2085 -0.2065 -0.8732
  149MOL0     C19561   7.778   7.833   0.129  0.6906 -0.5090 -0.0608
  149MOL0     C19562   7.857   7.786   0.234  0.5239  0.1871 -0.2242
  149MOL0     C19563   7.886   7.644   0.239 -0.6379 -0.3698 -0.3368
  149MOL0     C19564   7.837   7.552   0.155  0.3257  0.3841  0.6906
  149MOL0     C19565   7.863   7.400   0.144 -0.6952 -0.8745  0.3043
  149MOL0     O19566   7.929   7.346   0.249 -0.2320  0.1616 -0.2870
  149MOL0     C19567   7.939   7.209   0.248 -0.2122 -0.7046  0.6180
  149MOL0     C19568   8.026   7.150   0.153  0.2232  0.5847 -0.2272
  149MOL0     C19569   8.049   7.010   0.160 -0.8067 -0.4549 -0.0305
  149MOL0     C19570   7.982   6.928   0.244 -0.3661  0.7870 -0.8088
  149MOL0     O19571   8.002   6.791   0.230  0.4868 -0.4546  0.2004
  149MOL0     C19572   7.992   6.709   0.359  0.0653 -0.2481  0.6674
  149MOL0     C19573   8.067   6.744   0.492  0.0417  0.9111  0.7927
  149MOL0     C19574   8.218   6.751   0.466  0.6095 -0.3134 -0.1939
  149MOL0     C19575   8.276   6.625   0.405  0.2718 -0.6869  0.7783
  149MOL0     C19576   8.436   6.644   0.414  0.8547 -0.4666  0.1685
  149MOL0     C19577   8.517   6.536   0.344 -0.0838 -0.1462 -0.2758
  149MOL0     C19578   8.485   6.394   0.385  0.7021 -0.1979  0.3366
  149MOL0     C19579   8.563   6.300   0.294 -0.1505 -0.4112  0.0356
  149MOL0    Cl19580   8.736   6.305   0.355  0.2900 -0.1080  0.4558
  149MOL0     C19581   7.886   6.986   0.329 -0.7474 -0.4654  0.0918
  149MOL0     C19582   7.862   7.125   0.334  0.4560 -0.7225 -0.5048
  149MOL0     O19583   7.845   7.350   0.032 -0.6001 -0.4712  0.2581
  149MOL0     C19584   7.740   7.610   0.065  0.4504 -0.5684  0.3872
  149MOL0     C19585   7.707   7.745   0.057 -0.1207 -0.7148  0.7917
  149MOL0     N19586   8.196   7.994   0.248  0.1520  0.0415 -0.3269
  149MOL0     N19587   8.288   7.919   0.285  0.5079 -0.6956 -1.4875
  149MOL0     C19588   8.504   8.086   1.328  0.1905  0.2603  0.3288
  149MOL0     C19589   8.393   8.145   1.388  0.3772  0.9335  0.0023
  149MOL0     C19590   8.006   8.439   1.423 -0.4284 -0.3477  0.1283
  149MOL0     C19591   7.957   8.359   1.520  0.0389 -0.9365  0.3716
  149MOL0     C19592   7.846   8.391   1.580 -0.0625  0.1888  1.3659
  149MOL0     C19593   7.769   8.501   1.557 -0.1232 -0.1922  0.3920
  149MOL0     O19594   7.656   8.511   1.633 -0.4367 -0.5701  0.7466
  149MOL0     C19595   7.597   8.640   1.648 -0.0060  0.4231  0.6889
  149MOL0     C19596   7.512   8.644   1.774 -0.2330  0.1978  0.0527
  149MOL0     C19597   7.384   8.555   1.760 -0.0506 -0.7784  0.5477
  149MOL0     C19598   7.294   8.594   1.878 -0.6532 -0.5044 -0.3403
  149MOL0     C19599   7.161   8.536   1.876 -0.3173 -0.6529 -0.1788
  149MOL0     C19600   7.049   8.504   1.878  0.0467 -0.3002 -0.0239
  149MOL0     C19601   7.818   8.599   1.464 -0.0420  0.3523  0.8473
  149MOL0     C19602   7.935   8.559   1.393  0.1140 -0.0482  0.1764
  149MOL0     H19603   8.365   8.418   1.192 -2.1705  0.0248  2.2446
  149MOL0     H19604   8.524   8.302   1.073  0.0808 -0.2240 -0.6145
  149MOL0     H19605   8.831   8.089   1.022 -0.1066 -2.0745 -2.7684
  149MOL0     H19606   8.741   8.234   1.061  0.5012  0.3064  2.5407
  149MOL0     H19607   8.722   8.153   0.815  0.5524 -0.7913  0.1879
  149MOL0     H19608   8.565   8.136   0.897  0.2781 -0.1280 -0.3269
  149MOL0     H19609   8.613   7.910   0.954 -3.0426  1.7287 -0.1177
  149MOL0     H19610   8.756   7.909   0.841  0.5147  0.9992  1.9056
  149MOL0     H19611   8.536   7.820   0.768 -0.4445 -0.5014 -0.4396
  149MOL0     H19612   8.461   7.983   0.773  0.8298  3.3552 -3.6317
  149MOL0     H19613   8.722   7.936   0.603 -0.5959 -1.3520 -1.5381
  149MOL0     H19614   8.617   8.073   0.620 -0.1315  0.6327 -2.3429
  149MOL0     H19615   8.436   7.924   0.521 -0.1785 -2.0903 -0.0712
  149MOL0     H19616   8.542   7.795   0.492  2.3406  0.7568 -2.0168
  149MOL0     H19617   8.553   8.072   0.377  0.8055  0.4848  1.7802
  149MOL0     H19618   8.698   7.961   0.373 -0.8749  0.4629  1.3113
  149MOL0     H19619   8.542   7.791   0.278  1.9770  0.3714  1.3227
  149MOL0     H19620   8.589   7.926   0.161 -1.2793  0.0731 -1.2371
  149MOL0     H19621   8.407   8.078   0.033 -2.2552  0.0727 -0.6586
  149MOL0     H19622   8.234   8.221  -0.014  1.4431 -1.4979 -2.0688
  149MOL0     H19623   8.099   8.229   0.113  0.1106  1.7034 -1.2372
  149MOL0     H19624   8.134   8.052  -0.141 -1.9261 -0.4374 -2.5627
  149MOL0     H19625   8.015   8.177  -0.132  1.5892 -0.5125 -1.4429
  149MOL0     H19626   7.911   7.955  -0.090 -0.6917  1.7116 -0.3973
  149MOL0     H19627   8.027   7.913   0.021 -0.9152 -1.3601 -3.0833
  149MOL0     H19628   7.824   8.134   0.066 -1.3718 -1.4590 -0.1405
  149MOL0     H19629   7.932   8.066   0.199 -0.0170 -1.7186  1.1105
  149MOL0     H19630   7.906   7.857   0.300 -1.0576  1.8686 -0.7616
  149MOL0     H19631   7.961   7.624   0.315 -0.4957  2.6998  0.4791
  149MOL0     H19632   8.080   7.213   0.084  2.3365  1.3165  1.9565
  149MOL0     H19633   8.130   6.976   0.097  0.2304 -0.4659  1.2716
  149MOL0     H19634   8.004   6.604   0.333 -1.3793  0.1888 -2.2333
  149MOL0     H19635   7.885   6.710   0.380 -0.1789  0.1744 -0.4978
  149MOL0     H19636   8.046   6.673   0.572 -0.1998 -0.8953 -0.8097
  149MOL0     H19637   8.038   6.844   0.526 -0.6024  0.0067  3.0839
  149MOL0     H19638   8.271   6.764   0.561  0.3786 -0.0023 -0.1057
  149MOL0     H19639   8.236   6.832   0.394 -0.3164 -2.0073 -2.4624
  149MOL0     H19640   8.242   6.533   0.452  0.7192 -0.5850  1.3050
  149MOL0     H19641   8.253   6.622   0.298  0.1095 -0.8595  0.8186
  149MOL0     H19642   8.473   6.646   0.517  2.8723 -0.0534 -0.5374
  149MOL0     H19643   8.468   6.741   0.376 -0.4782 -0.2425 -0.4458
  149MOL0     H19644   8.623   6.555   0.362 -0.3901 -0.8500  2.8777
  149MOL0     H19645   8.485   6.538   0.239  0.8135  0.7709 -0.5524
  149MOL0     H19646   8.518   6.373   0.487 -1.2662  1.2140  1.3261
  149MOL0     H19647   8.383   6.363   0.361  0.4377  0.6434  0.3182
  149MOL0     H19648   8.558   6.328   0.189  1.1883 -2.1566 -0.5317
  149MOL0     H19649   8.525   6.199   0.314 -1.9820  0.8764  4.3895
  149MOL0     H19650   7.812   6.921   0.374  1.6336 -4.8694 -1.7440
  149MOL0     H19651   7.781   7.172   0.389  1.0207 -1.1151  0.6762
  149MOL0     H19652   7.695   7.544  -0.008 -1.0507  2.2076 -1.3439
  149MOL0     H19653   7.630   7.774  -0.014 -0.8249 -1.8376  1.0640
  149MOL0     H19654   8.561   8.006   1.373  0.2380 -0.3100 -0.7141
  149MOL0     H19655   8.349   8.086   1.467 -0.2325  0.7087 -0.5009
  149MOL0     H19656   8.020   8.277   1.555  1.5725 -0.4760 -1.2087
  149MOL0     H19657   7.810   8.338   1.667 -0.3500 -1.6066  0.2043
  149MOL0     H19658   7.536   8.662   1.559 -0.1669  3.3055  1.4016
  149MOL0     H19659   7.675   8.717   1.651 -0.4194  0.9089 -0.2468
  149MOL0     H19660   7.581   8.629   1.858  0.0021 -1.5458 -0.4057
  149MOL0     H19661   7.478   8.746   1.792  0.3397  0.1617  1.4639
  149MOL0     H19662   7.410   8.449   1.767  2.3104 -0.2292  1.4009
  149MOL0     H19663   7.323   8.574   1.672  0.5216 -1.2567  0.0334
  149MOL0     H19664   7.336   8.564   1.975  0.0992 -1.2498 -0.8783
  149MOL0     H19665   7.281   8.702   1.888  0.2304  0.0954 -4.1164
  149MOL0     H19666   6.944   8.482   1.887 -0.4499 -0.0357 -3.7250
  149MOL0     H19667   7.777   8.699   1.448 -0.9285  0.1854  1.9807
  149MOL0     H19668   7.988   8.634   1.336 -1.9451  1.0191 -0.4538
  150MOL0     O19669   1.217  10.724   7.822  0.3055 -0.6771 -0.3181
  150MOL0     C19670   1.183  10.833   7.769  0.2895  0.0793  0.2607
  150MOL0     O19671   1.062  10.881   7.756 -0.2719  0.8324 -0.0106
  150MOL0     C19672   0.953  10.805   7.789 -0.5545 -0.7523  0.2238
  150MOL0     C19673   0.847  10.882   7.830  0.0495 -0.3167 -0.1832
  150MOL0     C19674   0.728  10.822   7.882 -0.5536  0.9344  0.4641
  150MOL0     C19675   0.724  10.678   7.901  0.5207 -0.2115 -0.0838
  150MOL0     O19676   0.603  10.621   7.950  0.4021  0.0584  0.4967
  150MOL0     C19677   0.573  10.486   7.902 -0.4514  0.4333 -0.0181
  150MOL0     C19678   0.442  10.440   7.963 -0.7964 -0.3046 -0.1792
  150MOL0     C19679   0.378  10.341   7.869  0.2522 -0.2474  0.5919
  150MOL0     C19680   0.267  10.270   7.947 -0.8903 -0.0546  0.2841
  150MOL0     C19681   0.195  10.181   7.850 -1.2108  0.6382  0.8479
  150MOL0     C19682   0.058  10.155   7.907  0.0524  0.6938 -0.5748
  150MOL0     C19683  -0.043  10.270   7.881  0.1114  0.0912  0.2392
  150MOL0     C19684  -0.064  10.312   7.728  0.2030 -0.1392 -0.9510
  150MOL0     N19685  -0.210  10.336   7.683  0.3328 -0.5022 -0.5413
  150MOL0     C19686  -0.272  10.234   7.612 -0.0675  0.0933  0.1178
  150MOL0     C19687  -0.388  10.293   7.573 -0.4044 -0.6610 -0.2996
  150MOL0     C19688  -0.499  10.228   7.504  0.2800  0.6891  0.3264
  150MOL0     C19689  -0.626  10.208   7.602  0.1746  0.0230 -0.1139
  150MOL0     C19690  -0.754  10.193   7.530 -0.4239  0.5105 -0.9191
  150MOL0     C19691  -0.869  10.161   7.627  0.0811  0.1582 -0.8795
  150MOL0     O19692  -0.972  10.100   7.556 -0.2408  0.5814  0.1220
  150MOL0     C19693  -1.078  10.060   7.629  0.2469  0.1545  0.5024
  150MOL0     C19694  -1.185  10.032   7.548  0.1579  0.1796  0.3764
  150MOL0     C19695  -1.307   9.975   7.596  0.2724 -0.0019  0.3822
  150MOL0     C19696  -1.327   9.961   7.735  0.3738  0.4342  0.2283
  150MOL0     C19697  -1.453   9.916   7.788 -0.9425 -0.0713  0.8423
  150MOL0     O19698  -1.532   9.850   7.694 -0.2357  0.0281  0.5842
  150MOL0     C19699  -1.632   9.769   7.745 -0.2644  0.4237 -0.6602
  150MOL0     C19700  -1.620   9.676   7.848  0.1982 -0.1878  0.1816
  150MOL0     C19701  -1.721   9.590   7.877  1.4611 -0.2414  0.2298
  150MOL0     C19702  -1.847   9.597   7.803 -0.4309 -0.0696  0.0924
  150MOL0     O19703  -1.962   9.528   7.832 -0.6278  0.2908  0.1413
  150MOL0     C19704  -2.002   9.506   7.968  0.5019  0.2192  0.0010
  150MOL0     C19705  -2.063   9.633   8.033 -0.1280  0.2226 -0.2592
  150MOL0     C19706  -2.209   9.658   7.984  0.2187 -0.7922  0.1660
  150MOL0     C19707  -2.287   9.770   8.061 -0.1662 -0.6162 -0.4961
  150MOL0     C19708  -2.426   9.769   7.987  0.1097 -0.6493 -0.2846
  150MOL0     C19709  -2.527   9.665   8.049 -0.6084  0.2706 -0.2850
  150MOL0     C19710  -2.672   9.689   8.021  0.6116 -0.0455  1.1232
  150MOL0     C19711  -2.706   9.654   7.872 -0.2131 -0.2604 -0.2604
  150MOL0    Cl19712  -2.864   9.703   7.826  0.0875 -0.3771  0.4358
  150MOL0     C19713  -1.854   9.689   7.696  0.5192 -1.1720 -0.5552
  150MOL0     C19714  -1.744   9.778   7.678 -0.1665  0.3081 -0.7421
  150MOL0     O19715  -1.472   9.928   7.906  1.0315  0.1486 -0.9591
  150MOL0     C19716  -1.217   9.997   7.814 -0.8682 -0.2073  0.6098
  150MOL0     C19717  -1.094  10.048   7.768 -0.8992 -0.7827 -0.6124
  150MOL0     N19718  -0.399  10.423   7.626 -0.4718  0.2805  0.7421
  150MOL0     N19719  -0.292  10.446   7.691 -0.4217 -0.2857 -0.1553
  150MOL0     C19720   0.835  10.605   7.852 -0.0577  0.5019 -0.4964
  150MOL0     C19721   0.944  10.667   7.793 -0.3720  0.5914  0.3880
  150MOL0     C19722   1.281  10.939   7.743 -0.2176  0.4929  0.8148
  150MOL0     C19723   1.412  10.905   7.698 -0.0714  0.3241 -0.5345
  150MOL0     C19724   1.506  11.000   7.665 -0.4908  0.0980 -0.7194
  150MOL0     C19725   1.485  11.131   7.692  0.1786 -0.3860  0.0539
  150MOL0     O19726   1.588  11.215   7.663  0.2902 -0.2106  0.5376
  150MOL0     C19727   1.609  11.349   7.733  0.3513  0.1131  0.2114
  150MOL0     C19728   1.750  11.371   7.717 -0.2080  0.1798 -0.1709
  150MOL0     C19729   1.788  11.482   7.815 -0.0847 -0.0793  0.4301
  150MOL0     C19730   1.926  11.459   7.890 -0.1180 -0.2140  0.7170
  150MOL0     C19731   2.037  11.482   7.802 -1.6469  0.9917 -0.0237
  150MOL0     C19732   2.140  11.485   7.739 -0.7646  0.8524 -0.6300
  150MOL0     C19733   1.356  11.170   7.733  0.5174  0.0161 -0.1512
  150MOL0     C19734   1.257  11.071   7.773 -1.3336 -0.3590  0.0203
  150MOL0     H19735   0.833  10.989   7.821 -0.5366 -0.2110  1.5244
  150MOL0     H19736   0.643  10.882   7.914 -2.7541 -2.1310  0.8178
  150MOL0     H19737   0.650  10.415   7.933 -1.0573 -2.0565 -3.6892
  150MOL0     H19738   0.576  10.471   7.794  0.2079 -0.2566  0.0862
  150MOL0     H19739   0.379  10.528   7.973 -1.6260 -0.8606 -0.4630
  150MOL0     H19740   0.465  10.390   8.058 -0.3096 -1.9372 -1.1052
  150MOL0     H19741   0.448  10.265   7.833 -1.8374 -2.1054  0.1843
  150MOL0     H19742   0.335  10.391   7.782  0.0801  3.3798  2.5825
  150MOL0     H19743   0.304  10.214   8.034  1.0046  1.3144  0.4216
  150MOL0     H19744   0.198  10.345   7.987 -1.7661 -1.1205  0.8347
  150MOL0     H19745   0.253  10.088   7.843  1.1295  2.0441  0.3591
  150MOL0     H19746   0.201  10.216   7.746 -2.3867 -2.4596 -0.3778
  150MOL0     H19747   0.054  10.118   8.011 -4.1640  1.1862 -0.3992
  150MOL0     H19748   0.017  10.074   7.846  1.1137 -0.3127 -0.0082
  150MOL0     H19749  -0.138  10.238   7.925 -0.7200 -0.1912 -1.6564
  150MOL0     H19750  -0.015  10.363   7.932 -0.3791  0.2019  0.3079
  150MOL0     H19751  -0.028  10.239   7.654  0.1816  0.3859 -1.4842
  150MOL0     H19752  -0.001  10.401   7.720  3.2634 -2.3039 -3.5713
  150MOL0     H19753  -0.234  10.135   7.590 -3.6985 -1.3659 -0.1338
  150MOL0     H19754  -0.460  10.132   7.470  1.3613  0.1012  2.9690
  150MOL0     H19755  -0.526  10.298   7.425 -1.5993  1.9264  1.9619
  150MOL0     H19756  -0.619  10.299   7.662  5.9558 -0.2212  0.0716
  150MOL0     H19757  -0.615  10.119   7.665  1.0878 -1.2202 -1.9547
  150MOL0     H19758  -0.773  10.295   7.494 -2.3091  0.5121 -0.0063
  150MOL0     H19759  -0.750  10.121   7.448 -0.1751 -0.0996 -0.3770
  150MOL0     H19760  -0.900  10.255   7.673 -1.9769 -1.0991  0.4767
  150MOL0     H19761  -0.836  10.096   7.709 -1.7239  1.0056  0.6163
  150MOL0     H19762  -1.189  10.052   7.441 -0.2221 -1.8014 -0.0280
  150MOL0     H19763  -1.383   9.943   7.525  0.3896 -0.3153  0.3976
  150MOL0     H19764  -1.523   9.671   7.897 -0.0342 -0.5709  0.5987
  150MOL0     H19765  -1.728   9.528   7.965  0.3115  0.3730  0.6014
  150MOL0     H19766  -1.925   9.481   8.042 -0.8606 -1.3391  0.9823
  150MOL0     H19767  -2.071   9.421   7.957  0.5789 -0.1828  2.0527
  150MOL0     H19768  -2.000   9.721   8.014 -0.7431  0.6914 -0.1678
  150MOL0     H19769  -2.070   9.620   8.141 -0.6779  0.2137 -0.2933
  150MOL0     H19770  -2.268   9.567   7.974  1.5376 -1.7618  0.9460
  150MOL0     H19771  -2.195   9.688   7.880 -0.3761 -3.4493 -0.7621
  150MOL0     H19772  -2.298   9.731   8.163 -0.1741  2.7005  0.9123
  150MOL0     H19773  -2.229   9.863   8.063  2.5493 -2.2104  1.5868
  150MOL0     H19774  -2.405   9.756   7.881 -0.2828  0.1020 -0.4614
  150MOL0     H19775  -2.468   9.870   8.000  1.6609 -0.1896  1.9623
  150MOL0     H19776  -2.517   9.667   8.158 -0.6152  1.7355 -0.2924
  150MOL0     H19777  -2.499   9.565   8.016  1.1853  0.4021  0.6726
  150MOL0     H19778  -2.730   9.630   8.093  0.3996  0.8816  1.7377
  150MOL0     H19779  -2.696   9.795   8.022 -0.1619 -0.1262 -1.6599
  150MOL0     H19780  -2.694   9.546   7.855  0.4927 -0.5519  1.8351
  150MOL0     H19781  -2.631   9.705   7.812  0.8645 -0.5923  0.7666
  150MOL0     H19782  -1.942   9.707   7.635  0.8913  2.4161 -0.2884
  150MOL0     H19783  -1.761   9.848   7.597 -2.2057  1.2727  0.4175
  150MOL0     H19784  -1.230   9.985   7.921 -0.7292 -0.6761  0.5764
  150MOL0     H19785  -1.007  10.047   7.833 -0.6024  0.3047 -0.9676
  150MOL0     H19786   0.817  10.499   7.840 -0.6570  0.8932 -4.1652
  150MOL0     H19787   1.020  10.604   7.749 -1.0433 -0.4487  0.6716
  150MOL0     H19788   1.431  10.800   7.678 -0.3982  0.3738 -1.1326
  150MOL0     H19789   1.609  10.979   7.636  0.2346 -0.5256  2.0025
  150MOL0     H19790   1.580  11.335   7.838  0.0855  2.0411  0.4371
  150MOL0     H19791   1.538  11.425   7.699 -0.6582 -1.6514 -1.8476
  150MOL0     H19792   1.799  11.274   7.720 -1.4382 -0.5588 -2.1287
  150MOL0     H19793   1.778  11.411   7.619  1.5933  2.5847  1.2161
  150MOL0     H19794   1.714  11.510   7.891  3.1272  1.5156  3.2620
  150MOL0     H19795   1.791  11.570   7.749 -3.2431 -1.7941 -2.2910
  150MOL0     H19796   1.935  11.514   7.984 -1.6422  2.0083 -0.3600
  150MOL0     H19797   1.935  11.352   7.909 -0.9275 -0.3580  0.3327
  150MOL0     H19798   2.237  11.489   7.694 -0.7440 -0.2397 -0.7310
  150MOL0     H19799   1.347  11.272   7.771 -1.2104 -0.0229 -0.3850
  150MOL0     H19800   1.166  11.087   7.831  0.2285  0.4200  2.3941
  151MOL0     O19801   4.279   8.195  10.244 -0.5030 -0.6664 -0.3156
  151MOL0     C19802   4.320   8.299  10.183 -0.3419  1.3178  0.1381
  151MOL0     O19803   4.251   8.403  10.118 -0.4688 -0.8025 -0.3661
  151MOL0     C19804   4.128   8.358  10.085  0.0141 -0.0154  0.0897
  151MOL0     C19805   4.104   8.269   9.977 -0.7195 -0.4674  0.5275
  151MOL0     C19806   3.977   8.224   9.952  0.6002  0.5715 -0.4897
  151MOL0     C19807   3.862   8.269  10.029 -0.0491  0.1962  0.1607
  151MOL0     O19808   3.727   8.230  10.005 -0.4325 -0.0155 -0.4073
  151MOL0     C19809   3.692   8.146   9.897 -0.5483  0.8512 -0.0631
  151MOL0     C19810   3.542   8.113   9.898 -0.7532  1.1708 -0.1057
  151MOL0     C19811   3.511   8.002   9.792 -0.8367 -0.2588 -0.7752
  151MOL0     C19812   3.366   7.960   9.793 -0.6586 -0.7647 -0.0714
  151MOL0     C19813   3.336   7.866   9.680  0.2519  1.0030 -1.7440
  151MOL0     C19814   3.190   7.832   9.669 -0.7542 -0.3271  0.3250
  151MOL0     C19815   3.146   7.756   9.544 -0.5121  0.3792 -0.2711
  151MOL0     C19816   3.137   7.844   9.418  0.7390 -0.1676  0.5716
  151MOL0     N19817   3.036   7.952   9.437  0.7536  0.2200 -0.8155
  151MOL0     C19818   2.900   7.920   9.452  0.1409 -0.7470 -0.3557
  151MOL0     C19819   2.852   8.039   9.505  1.3623 -0.2157 -0.4175
  151MOL0     C19820   2.715   8.072   9.562 -0.8609  0.5551  0.4781
  151MOL0     C19821   2.602   7.973   9.548 -0.4624  0.8124  0.4907
  151MOL0     C19822   2.491   7.989   9.652 -0.0861 -0.3404  0.1470
  151MOL0     C19823   2.357   7.991   9.580 -0.0448 -0.5929 -0.7881
  151MOL0     O19824   2.250   7.951   9.659 -0.0065 -0.5601  0.3834
  151MOL0     C19825   2.130   7.931   9.601  0.5040 -1.0580 -0.6276
  151MOL0     C19826   2.098   7.958   9.467  0.5589 -1.1298  0.1853
  151MOL0     C19827   1.962   7.961   9.429  0.5412 -0.0961  0.1285
  151MOL0     C19828   1.851   7.967   9.522 -0.3705 -0.0291 -0.3757
  151MOL0     C19829   1.708   7.980   9.483 -0.8050 -1.3944 -0.2530
  151MOL0     O19830   1.617   7.983   9.588  0.4664 -0.5172 -0.8070
  151MOL0     C19831   1.484   8.000   9.559  0.8673 -0.1776 -0.3948
  151MOL0     C19832   1.411   7.898   9.506  0.0424  0.4178  0.2464
  151MOL0     C19833   1.270   7.915   9.495  0.4976  0.3448 -0.2685
  151MOL0     C19834   1.213   8.034   9.533 -0.4799 -0.4619  0.2213
  151MOL0     O19835   1.079   8.060   9.520 -0.1636  0.0140  0.0872
  151MOL0     C19836   0.997   7.939   9.537 -0.2418  0.2687 -0.4793
  151MOL0     C19837   0.855   7.974   9.563 -1.1399 -0.0095 -0.6630
  151MOL0     C19838   0.808   8.048   9.431  0.1936 -0.1483 -0.9030
  151MOL0     C19839   0.653   8.093   9.437 -0.1357  0.1001  0.8279
  151MOL0     C19840   0.617   8.192   9.322 -0.8847  0.1239 -0.1162
  151MOL0     C19841   0.465   8.231   9.326  0.0363 -0.2145  0.7806
  151MOL0     C19842   0.430   8.338   9.435 -0.1718 -0.2576 -0.2485
  151MOL0     C19843   0.286   8.371   9.428  1.1278 -0.7612  0.2687
  151MOL0    Cl19844   0.215   8.408   9.590 -0.0097  0.0388  0.1043
  151MOL0     C19845   1.297   8.135   9.585 -0.2906 -0.5407 -0.1856
  151MOL0     C19846   1.434   8.123   9.599  0.2539  0.0336 -0.2960
  151MOL0     O19847   1.691   8.003   9.367  0.4050  0.0076  0.4105
  151MOL0     C19848   1.889   7.959   9.653 -0.0537 -0.1042 -0.0977
  151MOL0     C19849   2.023   7.934   9.686 -0.0323  0.2769 -0.8545
  151MOL0     N19850   2.956   8.135   9.507 -0.4427  0.4450 -1.3465
  151MOL0     N19851   3.065   8.076   9.471 -0.4133  0.2434 -0.5740
  151MOL0     C19852   3.879   8.367  10.124  0.3162  0.8371 -0.0596
  151MOL0     C19853   4.013   8.405  10.155 -0.4098  0.2293 -1.1694
  151MOL0     C19854   4.467   8.299  10.161 -0.1599 -1.0322  0.2070
  151MOL0     C19855   4.529   8.351  10.039  0.6345 -1.0060 -0.1300
  151MOL0     C19856   4.667   8.342  10.021 -0.1660 -0.0403 -0.2233
  151MOL0     C19857   4.747   8.288  10.118 -0.0533 -0.2154  0.3797
  151MOL0     O19858   4.878   8.290  10.088 -0.3174 -0.3603  0.1798
  151MOL0     C19859   4.965   8.252  10.196  0.6071  0.0116 -0.1913
  151MOL0     C19860   5.112   8.253  10.168 -0.7496  0.1766 -1.1134
  151MOL0     C19861   5.159   8.289  10.031 -0.2175 -0.0337  1.1200
  151MOL0     C19862   5.298   8.239   9.994  1.1859 -0.4816 -0.3364
  151MOL0     C19863   5.412   8.322  10.048  0.1252 -0.2920 -0.2748
  151MOL0     C19864   5.500   8.385  10.093  0.0953  0.9829 -0.5123
  151MOL0     C19865   4.690   8.249  10.236 -1.1400 -0.0606 -0.0823
  151MOL0     C19866   4.553   8.249  10.258 -0.2800 -0.2162  0.1878
  151MOL0     H19867   4.187   8.239   9.914  0.5825  0.4384  1.7474
  151MOL0     H19868   3.958   8.147   9.878  1.0455 -1.6249  1.5693
  151MOL0     H19869   3.751   8.055   9.910 -0.7375  0.4550 -1.7449
  151MOL0     H19870   3.725   8.193   9.803  2.1949  1.2865  1.0311
  151MOL0     H19871   3.481   8.198   9.868 -3.6784 -0.0663  1.8425
  151MOL0     H19872   3.522   8.081  10.000 -1.7201 -0.2891 -0.7138
  151MOL0     H19873   3.574   7.913   9.799 -0.8438 -0.4052 -2.2123
  151MOL0     H19874   3.530   8.049   9.695  0.1921 -1.3203 -1.1064
  151MOL0     H19875   3.325   7.922   9.887  3.4903 -1.1722  1.8357
  151MOL0     H19876   3.312   8.052   9.768  1.6290  1.3178  2.0376
  151MOL0     H19877   3.391   7.772   9.695 -2.6829 -1.0627 -2.9414
  151MOL0     H19878   3.376   7.898   9.584  3.8051 -2.0031 -1.4798
  151MOL0     H19879   3.131   7.922   9.685  1.9250  1.8947 -1.3166
  151MOL0     H19880   3.172   7.766   9.754  1.1210  0.4070  1.3605
  151MOL0     H19881   3.226   7.688   9.514 -0.6489  0.1690 -0.1601
  151MOL0     H19882   3.060   7.690   9.560  0.3304 -0.7771 -0.3942
  151MOL0     H19883   3.101   7.789   9.330 -0.7438  0.1087  0.9739
  151MOL0     H19884   3.225   7.907   9.406  0.0283  0.8409  0.5719
  151MOL0     H19885   2.849   7.827   9.431 -1.8620  0.6076 -1.9294
  151MOL0     H19886   2.691   8.154   9.494 -2.1595 -1.5378 -1.7376
  151MOL0     H19887   2.730   8.095   9.668  1.8008  0.3604  0.1999
  151MOL0     H19888   2.643   7.872   9.546 -0.3343  0.8494 -2.2748
  151MOL0     H19889   2.561   7.993   9.448  2.1738  0.9809 -0.6297
  151MOL0     H19890   2.495   7.902   9.717 -3.9224 -2.0854 -1.6390
  151MOL0     H19891   2.508   8.080   9.711  2.4253  1.7624 -3.4258
  151MOL0     H19892   2.369   7.924   9.495 -0.3358 -2.5748  0.6628
  151MOL0     H19893   2.329   8.091   9.547  3.1090  1.0720  1.1027
  151MOL0     H19894   2.167   7.968   9.383 -1.3202 -2.0048 -1.5611
  151MOL0     H19895   1.935   7.960   9.324 -0.3029 -0.9996  0.3311
  151MOL0     H19896   1.461   7.805   9.485  1.4185  1.5184 -1.6366
  151MOL0     H19897   1.209   7.836   9.452  1.4203 -0.3319 -0.3748
  151MOL0     H19898   1.038   7.885   9.623  0.7471  0.6626 -0.6886
  151MOL0     H19899   1.010   7.871   9.452  2.5028 -1.0081  0.8493
  151MOL0     H19900   0.858   8.040   9.651 -0.5145 -1.3763  0.3952
  151MOL0     H19901   0.792   7.887   9.583 -2.4961  1.0063 -0.4337
  151MOL0     H19902   0.815   7.984   9.342 -0.3953  1.1294 -1.9028
  151MOL0     H19903   0.869   8.138   9.417  0.9447 -0.1480  1.8960
  151MOL0     H19904   0.587   8.007   9.423 -0.5289  0.5272 -0.0409
  151MOL0     H19905   0.628   8.122   9.539 -0.2821 -0.4259  0.9451
  151MOL0     H19906   0.639   8.139   9.230  0.0604 -1.7622  1.1507
  151MOL0     H19907   0.683   8.279   9.326 -1.7651  0.8847 -1.3188
  151MOL0     H19908   0.410   8.141   9.353  0.0724 -0.7453 -0.8328
  151MOL0     H19909   0.438   8.253   9.223 -0.6458 -1.5655  0.6466
  151MOL0     H19910   0.451   8.288   9.531 -2.3934 -0.1677  0.3281
  151MOL0     H19911   0.493   8.427   9.442  1.1228 -1.2521  3.1727
  151MOL0     H19912   0.224   8.291   9.387  1.1179 -0.3146 -0.6170
  151MOL0     H19913   0.272   8.461   9.367  1.3423 -1.6690 -1.1758
  151MOL0     H19914   1.250   8.226   9.619  0.6941 -0.1734  0.2401
  151MOL0     H19915   1.498   8.199   9.643 -0.0621  1.4065 -2.0646
  151MOL0     H19916   1.826   7.993   9.735 -0.9072  1.9213 -1.5334
  151MOL0     H19917   2.049   7.936   9.792 -3.2791  1.1847  0.0501
  151MOL0     H19918   3.798   8.414  10.180  0.4242 -0.1204  0.9353
  151MOL0     H19919   4.017   8.472  10.240 -1.5856  2.6428 -2.8893
  151MOL0     H19920   4.453   8.389   9.971 -3.8341 -2.7671  3.3787
  151MOL0     H19921   4.701   8.381   9.925 -1.2548  0.9354 -0.2281
  151MOL0     H19922   4.946   8.150  10.231  0.7917  0.6808  1.9483
  151MOL0     H19923   4.944   8.322  10.276 -1.2660  1.2408 -1.6599
  151MOL0     H19924   5.163   8.326  10.230  0.5192 -1.8008  0.3052
  151MOL0     H19925   5.148   8.151  10.188 -1.3770  0.0240 -0.7308
  151MOL0     H19926   5.150   8.396  10.010 -1.0916 -0.8031 -3.5443
  151MOL0     H19927   5.083   8.253   9.961 -0.6308  1.0757  0.9740
  151MOL0     H19928   5.305   8.133  10.020  1.5019 -0.3274  0.2185
  151MOL0     H19929   5.307   8.248   9.885 -2.0332  0.3979 -0.6254
  151MOL0     H19930   5.577   8.440  10.143 -0.7134  0.5772  1.2777
  151MOL0     H19931   4.749   8.215  10.321  0.9107  2.6790 -0.2459
  151MOL0     H19932   4.506   8.214  10.349  0.7395  0.0032  0.8128
  152MOL0     O19933   0.334  10.689   2.963  0.2739 -0.1808 -0.6477
  152MOL0     C19934   0.420  10.642   3.033  0.1162 -1.0261 -0.5191
  152MOL0     O19935   0.434  10.662   3.163 -0.6698  0.1546 -0.2862
  152MOL0     C19936   0.331  10.728   3.230 -0.5092  0.1735 -0.4913
  152MOL0     C19937   0.336  10.867   3.251  0.8509  0.6518  0.5011
  152MOL0     C19938   0.239  10.929   3.334  0.6723 -1.4212  0.1889
  152MOL0     C19939   0.143  10.854   3.397  0.1528 -0.5812 -0.2723
  152MOL0     O19940   0.073  10.919   3.493 -0.3845 -0.2461 -0.0284
  152MOL0     C19941  -0.070  10.926   3.503 -0.1141 -0.7474  0.5188
  152MOL0     C19942  -0.128  10.829   3.607 -0.2748 -0.2979  0.3255
  152MOL0     C19943  -0.282  10.833   3.608 -0.0450 -0.5095 -0.9760
  152MOL0     C19944  -0.346  10.755   3.728  0.3935  0.0703 -0.3393
  152MOL0     C19945  -0.492  10.734   3.701 -0.6368  0.2091  0.1641
  152MOL0     C19946  -0.572  10.675   3.820  0.3342  0.2216 -0.1611
  152MOL0     C19947  -0.723  10.708   3.812  0.8690 -0.4843 -0.8474
  152MOL0     C19948  -0.792  10.612   3.910  0.8103 -0.6834  0.4686
  152MOL0     N19949  -0.938  10.645   3.914 -0.8177  0.1170 -0.2437
  152MOL0     C19950  -1.037  10.591   3.832 -0.0553 -0.6640 -0.3783
  152MOL0     C19951  -1.157  10.621   3.894  0.3303 -0.0566 -0.1289
  152MOL0     C19952  -1.293  10.578   3.846 -0.4822 -0.6725 -0.1168
  152MOL0     C19953  -1.368  10.702   3.786  0.0438  0.7134  0.0060
  152MOL0     C19954  -1.502  10.658   3.715 -0.3965 -0.6863  0.1078
  152MOL0     C19955  -1.616  10.660   3.814  0.4264 -0.2260  0.8496
  152MOL0     O19956  -1.730  10.665   3.727 -0.2756 -0.3632 -0.1934
  152MOL0     C19957  -1.857  10.672   3.787  0.0188  0.1848  0.1679
  152MOL0     C19958  -1.882  10.722   3.914  0.5861 -0.8446 -0.2865
  152MOL0     C19959  -2.016  10.734   3.954 -0.2997  0.0688 -0.3326
  152MOL0     C19960  -2.122  10.692   3.874 -0.6397  0.4505 -0.1636
  152MOL0     C19961  -2.259  10.709   3.916  0.4061  0.0774  0.5338
  152MOL0     O19962  -2.295  10.687   4.047  0.5254  0.4219 -0.7384
  152MOL0     C19963  -2.432  10.667   4.075 -0.0763 -0.6240 -0.0204
  152MOL0     C19964  -2.499  10.770   4.144 -0.5610  0.1349  0.0330
  152MOL0     C19965  -2.632  10.758   4.172 -0.0813  1.2975  0.2571
  152MOL0     C19966  -2.706  10.631   4.138  0.3233 -0.4182  0.0034
  152MOL0     O19967  -2.835  10.629   4.176  0.2548 -0.0389  0.5321
  152MOL0     C19968  -2.887  10.495   4.184 -0.1009  0.5443 -0.2292
  152MOL0     C19969  -3.007  10.509   4.273  0.7590 -0.2589 -0.2069
  152MOL0     C19970  -3.081  10.374   4.285 -0.1034 -0.0420 -0.2463
  152MOL0     C19971  -3.209  10.390   4.367  0.1117 -0.0452  0.2748
  152MOL0     C19972  -3.282  10.261   4.393 -0.0284 -0.1624 -0.2683
  152MOL0     C19973  -3.394  10.275   4.491  0.7497 -0.9253 -0.8288
  152MOL0     C19974  -3.439  10.137   4.524 -0.0729  0.0425  0.4297
  152MOL0     C19975  -3.585  10.167   4.582  0.6281 -0.7204  0.0821
  152MOL0    Cl19976  -3.672  10.013   4.595 -0.1239 -0.0517 -0.4642
  152MOL0     C19977  -2.623  10.535   4.071  0.4072 -0.5588 -0.8758
  152MOL0     C19978  -2.491  10.548   4.051 -0.3442  0.5069  0.0512
  152MOL0     O19979  -2.344  10.714   3.821 -0.1656  0.3473 -0.0688
  152MOL0     C19980  -2.092  10.631   3.753  1.2540  0.4764 -0.0663
  152MOL0     C19981  -1.963  10.620   3.709  0.4835  0.5593 -0.9063
  152MOL0     N19982  -1.136  10.691   4.010 -0.3270  0.5556 -0.3833
  152MOL0     N19983  -1.010  10.704   4.019 -0.2044 -0.1348 -0.5957
  152MOL0     C19984   0.139  10.715   3.384 -0.3478  0.3559  0.6354
  152MOL0     C19985   0.229  10.652   3.297 -0.8134  0.6341  0.8456
  152MOL0     C19986   0.528  10.561   2.976 -0.3199  0.4650  0.1346
  152MOL0     C19987   0.550  10.558   2.841 -0.7859 -0.6535  0.1080
  152MOL0     C19988   0.655  10.481   2.780  0.6649  0.4477 -0.0555
  152MOL0     C19989   0.734  10.403   2.863  0.0981  0.6648  0.1103
  152MOL0     O19990   0.840  10.342   2.793 -0.6159 -0.3207 -0.3389
  152MOL0     C19991   0.927  10.260   2.870  0.5896  0.7701 -0.3648
  152MOL0     C19992   1.036  10.198   2.789  0.3353 -0.2665  0.2265
  152MOL0     C19993   1.144  10.124   2.868  0.1820 -0.0668  0.0209
  152MOL0     C19994   1.262  10.090   2.778 -0.2425  0.1971  0.0522
  152MOL0     C19995   1.360  10.192   2.755 -0.7179 -0.5170 -0.2649
  152MOL0     C19996   1.419  10.283   2.716  0.3788 -0.2187  0.8134
  152MOL0     C19997   0.710  10.405   3.000 -0.5456  0.6123 -0.3576
  152MOL0     C19998   0.608  10.479   3.058 -0.2311  0.0762  0.2126
  152MOL0     H19999   0.413  10.921   3.198  2.1349 -1.8948 -0.3834
  152MOL0     H20000   0.248  11.036   3.354 -1.8650 -1.1914  0.5190
  152MOL0     H20001  -0.095  10.923   3.397 -1.6290  1.9534  0.6942
  152MOL0     H20002  -0.085  11.028   3.541 -1.7770 -0.9810  0.5813
  152MOL0     H20003  -0.083  10.867   3.699  0.3362  0.1010 -0.1325
  152MOL0     H20004  -0.089  10.727   3.599  1.6172  0.2071  2.1718
  152MOL0     H20005  -0.325  10.785   3.520 -2.2841 -0.4733  0.0220
  152MOL0     H20006  -0.307  10.939   3.621  1.2979 -0.4552  1.9575
  152MOL0     H20007  -0.289  10.662   3.741  0.7857  0.1954 -1.1151
  152MOL0     H20008  -0.342  10.812   3.821 -2.1365  1.7677 -1.1713
  152MOL0     H20009  -0.505  10.677   3.608  1.8650  0.9646 -0.7500
  152MOL0     H20010  -0.527  10.835   3.682 -1.9404  0.0604  1.6266
  152MOL0     H20011  -0.517  10.703   3.910  1.2389  2.0957 -1.2439
  152MOL0     H20012  -0.552  10.568   3.805 -0.0450  0.1122  0.0749
  152MOL0     H20013  -0.746  10.802   3.861  1.0479 -1.3978  1.0937
  152MOL0     H20014  -0.761  10.708   3.710  0.4943 -0.1903 -0.7062
  152MOL0     H20015  -0.750  10.619   4.010  0.9138  1.5565  0.3175
  152MOL0     H20016  -0.787  10.511   3.869 -1.1816 -1.2527  1.5015
  152MOL0     H20017  -1.037  10.543   3.735 -2.5140  1.6600 -1.6573
  152MOL0     H20018  -1.338  10.546   3.940  1.4096 -0.6102  0.8481
  152MOL0     H20019  -1.287  10.498   3.771 -2.1511 -1.9479  1.0344
  152MOL0     H20020  -1.296  10.741   3.713  1.7013 -1.7515  0.1875
  152MOL0     H20021  -1.373  10.780   3.863 -1.1658  1.2066 -0.5473
  152MOL0     H20022  -1.517  10.719   3.626 -1.0385 -0.1746  0.5517
  152MOL0     H20023  -1.485  10.554   3.689  4.6155 -0.2688  0.7306
  152MOL0     H20024  -1.602  10.754   3.870 -0.7896  1.2091 -1.1097
  152MOL0     H20025  -1.620  10.572   3.879  0.2174 -1.6255 -0.9892
  152MOL0     H20026  -1.801  10.769   3.969 -0.4484  1.3863 -0.5445
  152MOL0     H20027  -2.045  10.778   4.049  2.6948  0.6779  0.4051
  152MOL0     H20028  -2.438  10.857   4.166 -0.0607 -0.9749  3.5773
  152MOL0     H20029  -2.683  10.832   4.233 -0.9467  0.8597  0.0808
  152MOL0     H20030  -2.826  10.423   4.239 -1.0307 -0.0241  0.0942
  152MOL0     H20031  -2.895  10.453   4.084  1.3482  1.0936 -0.6007
  152MOL0     H20032  -3.079  10.586   4.242 -0.1190 -1.0300 -0.1249
  152MOL0     H20033  -2.960  10.546   4.365  3.2901  0.3085 -1.6527
  152MOL0     H20034  -3.008  10.314   4.338 -0.5420  0.3482  0.8171
  152MOL0     H20035  -3.104  10.321   4.192 -1.7924  0.2614 -0.0316
  152MOL0     H20036  -3.177  10.438   4.460  1.2915 -2.5838  1.2864
  152MOL0     H20037  -3.278  10.456   4.315  1.6538  1.8217  0.4901
  152MOL0     H20038  -3.214  10.181   4.423  1.1795  0.7625 -0.4604
  152MOL0     H20039  -3.329  10.223   4.301  0.5809  0.9635 -1.0762
  152MOL0     H20040  -3.467  10.346   4.451  2.3328  0.4451 -1.4206
  152MOL0     H20041  -3.360  10.312   4.588 -0.6521 -0.0973 -0.6197
  152MOL0     H20042  -3.450  10.075   4.435  0.5330  1.7657 -0.8853
  152MOL0     H20043  -3.373  10.079   4.589 -0.2509 -0.3937  0.2275
  152MOL0     H20044  -3.637  10.230   4.510 -0.2486 -0.6670  0.7497
  152MOL0     H20045  -3.575  10.218   4.678 -1.6557 -0.4424  0.2032
  152MOL0     H20046  -2.667  10.444   4.032  4.3117 -3.5075  0.8985
  152MOL0     H20047  -2.432  10.472   4.001 -0.2055  0.2606  0.5828
  152MOL0     H20048  -2.171  10.587   3.693 -2.7308  1.4924  3.8959
  152MOL0     H20049  -1.941  10.566   3.617 -1.4107 -1.3538 -0.3408
  152MOL0     H20050   0.069  10.652   3.436 -1.7005  0.7492 -0.6436
  152MOL0     H20051   0.226  10.545   3.281 -1.6710  0.3860  2.4151
  152MOL0     H20052   0.484  10.617   2.778 -0.9848  1.4611  2.1504
  152MOL0     H20053   0.674  10.494   2.674  2.5901  5.2589  0.6146
  152MOL0     H20054   0.879  10.175   2.919 -0.5130 -0.2138 -2.9669
  152MOL0     H20055   0.975  10.330   2.938 -1.0089  1.5493  0.0240
  152MOL0     H20056   0.988  10.124   2.725 -1.5809  0.3311  0.8843
  152MOL0     H20057   1.088  10.266   2.720  0.2261  2.2932  2.4921
  152MOL0     H20058   1.110  10.033   2.918  0.4547 -0.9877 -1.4108
  152MOL0     H20059   1.187  10.183   2.949 -1.3971  0.6295  0.3986
  152MOL0     H20060   1.321  10.013   2.829 -0.2054  1.1570  1.4976
  152MOL0     H20061   1.224  10.055   2.681  0.6767  0.8025 -0.5361
  152MOL0     H20062   1.465  10.363   2.662 -0.5721  0.3957  0.8911
  152MOL0     H20063   0.774  10.354   3.072 -2.2482 -0.3946  0.4987
  152MOL0     H20064   0.583  10.480   3.163 -1.0111  0.3489  0.0286
  153MOL0     O20065   6.524   7.740   9.219 -0.5794  0.2544  0.5900
  153MOL0     C20066   6.534   7.855   9.263  0.7835 -0.4436 -0.0011
  153MOL0     O20067   6.641   7.940   9.266  0.0200 -0.0204 -0.5195
  153MOL0     C20068   6.742   7.905   9.184 -1.0674  0.7154  0.4959
  153MOL0     C20069   6.725   7.872   9.050 -0.9838  0.1948  0.3355
  153MOL0     C20070   6.838   7.840   8.975 -0.0514 -0.0198  0.0412
  153MOL0     C20071   6.969   7.847   9.026  0.0430  0.2891  0.0647
  153MOL0     O20072   7.075   7.807   8.947  0.1078 -0.1601 -0.2699
  153MOL0     C20073   7.184   7.907   8.929 -0.6714 -0.4312  0.1691
  153MOL0     C20074   7.295   7.871   9.016  0.0264 -0.3227  0.1040
  153MOL0     C20075   7.425   7.915   8.954 -0.3757  0.1134  0.3241
  153MOL0     C20076   7.432   8.064   8.914 -1.2264 -0.0979 -0.4979
  153MOL0     C20077   7.577   8.120   8.889 -0.1842  0.0106 -0.5693
  153MOL0     C20078   7.662   8.022   8.803  0.8043  0.0269  0.1013
  153MOL0     C20079   7.798   8.075   8.781 -0.2345  0.6892  0.5696
  153MOL0     C20080   7.866   8.028   8.644  0.7320  0.5649 -0.2530
  153MOL0     N20081   8.002   8.068   8.645 -0.4518  0.4032  0.0453
  153MOL0     C20082   8.104   8.010   8.715  0.9747  0.1677  0.7952
  153MOL0     C20083   8.204   8.089   8.702 -0.3512  0.0868 -0.0820
  153MOL0     C20084   8.347   8.069   8.769  0.9276 -0.0501 -0.4642
  153MOL0     C20085   8.414   7.940   8.711 -0.7794  0.1294 -0.2066
  153MOL0     C20086   8.553   7.919   8.767 -0.0429 -0.0419 -1.2025
  153MOL0     C20087   8.556   7.912   8.915  0.5717 -0.2279 -0.1097
  153MOL0     O20088   8.493   7.790   8.962  0.1225 -0.3119 -0.3038
  153MOL0     C20089   8.421   7.788   9.082  0.2804  0.2597  0.0025
  153MOL0     C20090   8.418   7.888   9.182 -0.5214 -1.4294  0.1126
  153MOL0     C20091   8.331   7.894   9.292  1.1045 -0.1057 -0.1883
  153MOL0     C20092   8.232   7.786   9.296 -0.7371  1.1941  0.7897
  153MOL0     C20093   8.128   7.775   9.394  0.6049 -0.4781  0.2528
  153MOL0     O20094   8.022   7.696   9.366  0.5818 -0.6125 -0.6218
  153MOL0     C20095   7.904   7.714   9.437  0.6723  0.4481  0.3420
  153MOL0     C20096   7.833   7.829   9.447  0.3182  0.8526 -0.2987
  153MOL0     C20097   7.711   7.830   9.506  1.1414  0.8496  1.2980
  153MOL0     C20098   7.652   7.706   9.554 -0.3905  0.2144 -0.1936
  153MOL0     O20099   7.525   7.703   9.607 -0.2867  0.2388 -1.1596
  153MOL0     C20100   7.468   7.827   9.666  0.2152 -0.0001 -0.4219
  153MOL0     C20101   7.360   7.789   9.756  0.0198  0.2073 -0.4476
  153MOL0     C20102   7.231   7.767   9.676 -0.4496 -0.7755  0.6094
  153MOL0     C20103   7.110   7.752   9.749 -0.0663 -0.5682 -1.0551
  153MOL0     C20104   7.107   7.612   9.814  0.5905 -0.7680 -0.2393
  153MOL0     C20105   6.978   7.605   9.895  0.3362  0.3016  0.0232
  153MOL0     C20106   6.989   7.502  10.014 -0.3608  1.2073  0.6169
  153MOL0     C20107   6.849   7.453  10.069 -0.6788  0.9664  0.8692
  153MOL0    Cl20108   6.749   7.599  10.096 -0.2308 -0.3092 -0.5166
  153MOL0     C20109   7.726   7.588   9.543  0.0072 -0.0979 -0.0322
  153MOL0     C20110   7.855   7.588   9.486 -0.3302 -0.4190  0.6478
  153MOL0     O20111   8.134   7.850   9.494  0.0664 -0.4016  0.9451
  153MOL0     C20112   8.235   7.692   9.189  0.1367  0.2382 -0.6605
  153MOL0     C20113   8.327   7.688   9.092 -0.3517  0.2126  0.2469
  153MOL0     N20114   8.167   8.207   8.630  0.0343  0.2784  0.1817
  153MOL0     N20115   8.048   8.187   8.601 -0.1354  0.4751 -0.7495
  153MOL0     C20116   6.980   7.884   9.154  0.0234 -0.0679  0.1694
  153MOL0     C20117   6.868   7.915   9.239  0.5643  0.2872  0.3985
  153MOL0     C20118   6.413   7.913   9.334  0.4250  0.8929  0.7536
  153MOL0     C20119   6.391   8.047   9.321  0.5640 -0.0065 -0.0451
  153MOL0     C20120   6.280   8.113   9.374 -0.0965 -0.1550  0.3792
  153MOL0     C20121   6.197   8.046   9.460 -0.1087 -0.5715 -0.6174
  153MOL0     O20122   6.099   8.111   9.532 -0.7532  0.3090 -0.5149
  153MOL0     C20123   6.044   8.044   9.649 -0.2834  0.0194  0.2276
  153MOL0     C20124   5.954   8.146   9.721  0.5722 -0.1294  0.6656
  153MOL0     C20125   5.828   8.177   9.642  0.2232 -0.1873 -0.0919
  153MOL0     C20126   5.717   8.233   9.737 -0.1752 -1.2603  0.6628
  153MOL0     C20127   5.665   8.138   9.830 -0.3044  0.2327  0.5500
  153MOL0     C20128   5.641   8.038   9.898 -0.2072  0.5781  0.4735
  153MOL0     C20129   6.220   7.907   9.475  0.7870  0.6518  0.0721
  153MOL0     C20130   6.325   7.838   9.411  0.4726  0.6392 -0.8006
  153MOL0     H20131   6.631   7.866   8.995 -0.0851 -0.2346 -1.2188
  153MOL0     H20132   6.823   7.810   8.871  0.7603  0.6477 -0.2797
  153MOL0     H20133   7.145   8.008   8.944 -0.3432 -0.3284  0.3283
  153MOL0     H20134   7.222   7.910   8.826  0.5013  0.3064  0.5967
  153MOL0     H20135   7.306   7.764   9.036  0.1770  0.1389  2.8899
  153MOL0     H20136   7.275   7.907   9.117 -2.3241 -1.5449  0.1481
  153MOL0     H20137   7.458   7.856   8.868  1.8110  1.0831  0.4498
  153MOL0     H20138   7.501   7.893   9.029 -0.8281 -0.9187  0.5080
  153MOL0     H20139   7.375   8.085   8.823 -0.4565 -2.9153 -1.7286
  153MOL0     H20140   7.386   8.114   9.001  1.8558  1.6080  0.3016
  153MOL0     H20141   7.630   8.136   8.983 -1.4312 -1.9862  0.5669
  153MOL0     H20142   7.579   8.219   8.842  3.4303  0.1852 -0.3392
  153MOL0     H20143   7.611   7.997   8.709  1.6602 -2.0136  0.1187
  153MOL0     H20144   7.676   7.927   8.855 -0.3591  0.6375  1.5994
  153MOL0     H20145   7.789   8.184   8.781 -0.0494  0.7087  0.1569
  153MOL0     H20146   7.859   8.038   8.863  2.9138  1.1796 -1.3949
  153MOL0     H20147   7.812   8.060   8.555 -1.7311 -0.8664  0.6303
  153MOL0     H20148   7.865   7.918   8.645  1.9907  0.4712  2.5134
  153MOL0     H20149   8.105   7.916   8.769 -1.0157 -1.4465 -1.7239
  153MOL0     H20150   8.327   8.058   8.876 -0.6082  0.7308 -0.6371
  153MOL0     H20151   8.390   8.166   8.744 -3.3586  2.5530  1.0838
  153MOL0     H20152   8.415   7.935   8.602 -0.4565 -4.9388 -0.1961
  153MOL0     H20153   8.353   7.858   8.749 -0.7963 -0.6799 -1.8921
  153MOL0     H20154   8.599   7.834   8.715 -1.3629 -1.7094  0.2316
  153MOL0     H20155   8.626   7.995   8.740  0.7306 -0.7375 -1.1272
  153MOL0     H20156   8.508   8.001   8.957 -1.2181  0.0444 -2.4967
  153MOL0     H20157   8.658   7.913   8.955  0.5524  0.3199 -0.0657
  153MOL0     H20158   8.479   7.978   9.169 -1.2662 -1.0248 -0.7160
  153MOL0     H20159   8.330   7.978   9.359  2.2810  1.0471 -1.5421
  153MOL0     H20160   7.862   7.921   9.397  2.9954 -0.5650 -1.5478
  153MOL0     H20161   7.645   7.914   9.494 -0.3938 -0.3056  1.3153
  153MOL0     H20162   7.439   7.875   9.573  1.0452  0.4891 -0.4336
  153MOL0     H20163   7.543   7.892   9.713 -0.9162  0.6006  0.6020
  153MOL0     H20164   7.355   7.870   9.829  5.0126 -1.2055  1.9092
  153MOL0     H20165   7.374   7.690   9.800 -3.7737 -0.4459 -0.3842
  153MOL0     H20166   7.242   7.673   9.621  0.6855 -0.4949  0.3252
  153MOL0     H20167   7.226   7.855   9.611  1.1790 -1.9507 -1.2482
  153MOL0     H20168   7.092   7.828   9.825  1.4108  1.9948 -3.1078
  153MOL0     H20169   7.020   7.753   9.686 -1.3882  2.6320  0.6563
  153MOL0     H20170   7.194   7.584   9.875  0.7617 -3.8329 -1.6657
  153MOL0     H20171   7.099   7.545   9.728  2.1107  0.1048 -1.0830
  153MOL0     H20172   6.897   7.562   9.836  0.9945 -0.5456 -0.2863
  153MOL0     H20173   6.938   7.702   9.927 -1.8107 -0.2415 -0.8409
  153MOL0     H20174   7.053   7.415   9.995  1.1524  2.0670  1.6223
  153MOL0     H20175   7.056   7.550  10.085  4.9005 -2.9647 -0.8903
  153MOL0     H20176   6.856   7.412  10.170  2.7511  3.0917  1.6365
  153MOL0     H20177   6.791   7.380  10.011  0.6552  1.5382 -1.3236
  153MOL0     H20178   7.677   7.495   9.571  0.2535  0.1494  1.2745
  153MOL0     H20179   7.916   7.501   9.464 -0.5208 -0.6976  1.2122
  153MOL0     H20180   8.176   7.601   9.192  0.0657  0.2911  2.2397
  153MOL0     H20181   8.315   7.602   9.027  1.9922 -2.4897  3.1030
  153MOL0     H20182   7.078   7.908   9.196  0.4057 -1.6366  0.2334
  153MOL0     H20183   6.870   7.958   9.338 -1.1216  1.1594  0.0871
  153MOL0     H20184   6.463   8.109   9.269 -0.4495 -0.7809 -2.4960
  153MOL0     H20185   6.270   8.216   9.341 -1.1126 -0.8942 -1.8548
  153MOL0     H20186   6.131   8.020   9.712 -0.0314  4.4773  1.9132
  153MOL0     H20187   5.993   7.953   9.615 -1.6657  1.2162 -0.9976
  153MOL0     H20188   5.933   8.104   9.819  1.5301  0.8169  1.2952
  153MOL0     H20189   6.008   8.239   9.743  0.4255 -0.3875  2.2116
  153MOL0     H20190   5.782   8.099   9.582 -0.5570  0.4009 -0.2779
  153MOL0     H20191   5.851   8.260   9.575  2.4177 -1.5383 -1.1223
  153MOL0     H20192   5.753   8.326   9.780  1.5692 -1.2448 -0.7250
  153MOL0     H20193   5.634   8.251   9.667  1.5773  2.1228 -0.7685
  153MOL0     H20194   5.645   7.944   9.950 -0.1133 -0.4251 -1.2705
  153MOL0     H20195   6.153   7.844   9.532 -0.1756  3.2440  1.9956
  153MOL0     H20196   6.355   7.733   9.411  0.1712  0.5518 -0.3042
  154MOL0     O20197   8.129   2.295   6.553 -0.0576  0.2552 -0.7054
  154MOL0     C20198   8.142   2.182   6.503  0.0681  0.0246  0.4861
  154MOL0     O20199   8.044   2.083   6.516 -0.1445 -0.2402 -0.0438
  154MOL0     C20200   7.922   2.092   6.575 -0.1673  0.0240  0.1759
  154MOL0     C20201   7.842   1.983   6.558  1.2064  0.2167  0.7466
  154MOL0     C20202   7.707   1.985   6.588  0.1473 -0.0574  0.2035
  154MOL0     C20203   7.655   2.081   6.665 -0.3442 -0.1940 -0.1423
  154MOL0     O20204   7.523   2.055   6.692 -0.3294 -0.2030 -0.0756
  154MOL0     C20205   7.451   2.137   6.784 -0.6201 -0.3727  0.7900
  154MOL0     C20206   7.294   2.118   6.763 -0.9737  0.5003 -0.0370
  154MOL0     C20207   7.228   2.177   6.889  0.7120 -1.2110  0.2660
  154MOL0     C20208   7.074   2.192   6.861  1.0674 -0.1217 -0.1220
  154MOL0     C20209   6.989   2.255   6.979  0.4120 -0.4936 -1.5366
  154MOL0     C20210   6.841   2.287   6.955  0.5010  0.1951  0.4444
  154MOL0     C20211   6.770   2.154   6.953 -0.1443  0.3574  1.0577
  154MOL0     C20212   6.726   2.126   7.100 -1.2290 -0.6914  0.2229
  154MOL0     N20213   6.577   2.104   7.103 -0.0112  0.3898 -0.6621
  154MOL0     C20214   6.513   1.987   7.094  0.3852  0.4111 -0.1879
  154MOL0     C20215   6.382   2.014   7.117  0.1622 -0.2395 -0.9696
  154MOL0     C20216   6.269   1.907   7.117  0.3071 -0.1311  0.1419
  154MOL0     C20217   6.145   1.939   7.022 -0.5202  0.6672  0.0871
  154MOL0     C20218   6.201   1.903   6.878 -0.0483 -0.2949  0.7984
  154MOL0     C20219   6.149   1.987   6.766  0.2135  0.3920  0.7923
  154MOL0     O20220   6.183   1.943   6.632  0.1220 -0.3749  0.5919
  154MOL0     C20221   6.112   2.000   6.530 -0.5590  0.3934  0.5670
  154MOL0     C20222   6.045   2.123   6.530 -0.1767  0.2439 -0.4217
  154MOL0     C20223   5.959   2.151   6.427 -0.5460  0.5582 -0.8992
  154MOL0     C20224   5.928   2.061   6.327 -0.0018  0.9319 -1.0003
  154MOL0     C20225   5.809   2.090   6.239 -0.5437 -0.4466 -0.4204
  154MOL0     O20226   5.780   1.997   6.154  0.7311  0.1245 -0.1541
  154MOL0     C20227   5.702   2.014   6.043  0.3381  0.9687  0.4430
  154MOL0     C20228   5.765   2.067   5.931 -0.7365 -0.2286  0.3924
  154MOL0     C20229   5.694   2.096   5.818  0.1043 -0.1583 -0.5311
  154MOL0     C20230   5.559   2.045   5.804 -0.1228 -0.2105  0.6244
  154MOL0     O20231   5.508   2.055   5.678 -0.2112  0.0331 -0.6312
  154MOL0     C20232   5.369   2.014   5.669  0.6182  0.4742 -0.8425
  154MOL0     C20233   5.330   2.053   5.532 -0.0630  0.5551 -0.0180
  154MOL0     C20234   5.187   2.004   5.486 -0.2459  0.5945 -0.2537
  154MOL0     C20235   5.077   2.062   5.578 -0.5767 -1.1557 -1.2154
  154MOL0     C20236   4.938   2.060   5.517 -0.7199 -0.3998  0.0493
  154MOL0     C20237   4.888   1.926   5.504  0.9922 -0.9193 -0.2031
  154MOL0     C20238   4.740   1.926   5.473 -0.2833 -0.3732  0.0914
  154MOL0     C20239   4.680   1.793   5.482 -0.6699 -0.4076  0.3442
  154MOL0    Cl20240   4.508   1.791   5.463 -0.1211 -0.1336 -0.3109
  154MOL0     C20241   5.491   1.996   5.917 -0.8287 -0.2199 -0.5487
  154MOL0     C20242   5.564   1.978   6.036  0.4292 -1.2889  0.9153
  154MOL0     O20243   5.758   2.205   6.238  0.0527  0.3658 -0.4121
  154MOL0     C20244   6.009   1.946   6.309 -0.3481 -0.7496  0.2138
  154MOL0     C20245   6.107   1.927   6.407 -0.1974 -0.1006 -1.2450
  154MOL0     N20246   6.373   2.149   7.135 -0.2312  0.4282  0.0584
  154MOL0     N20247   6.488   2.198   7.130 -0.2208  0.4524  0.3876
  154MOL0     C20248   7.737   2.197   6.698 -0.4115  0.2423  0.4049
  154MOL0     C20249   7.869   2.195   6.653 -0.0994 -0.3181 -0.7528
  154MOL0     C20250   8.266   2.148   6.443 -0.1444 -0.2085 -0.5052
  154MOL0     C20251   8.296   2.017   6.406  0.6105  0.2031  0.2640
  154MOL0     C20252   8.402   1.980   6.324  0.7245  0.5699 -0.3362
  154MOL0     C20253   8.502   2.072   6.311 -0.1541  0.2301 -0.7018
  154MOL0     O20254   8.624   2.023   6.259  0.4698  0.0262  0.7371
  154MOL0     C20255   8.750   2.103   6.272 -0.5763  0.5140  0.9225
  154MOL0     C20256   8.790   2.104   6.414  0.0042  0.0627 -0.6606
  154MOL0     C20257   8.932   2.145   6.432 -0.5932  0.0753  0.5671
  154MOL0     C20258   8.999   2.095   6.570  0.3562 -0.0666 -0.0176
  154MOL0     C20259   8.914   2.164   6.675 -0.4059 -0.7123 -0.0444
  154MOL0     C20260   8.842   2.218   6.761 -0.4519 -0.6775  0.0297
  154MOL0     C20261   8.490   2.207   6.357 -0.7915  0.3086  0.0048
  154MOL0     C20262   8.370   2.243   6.427 -0.0334 -0.8684 -0.2125
  154MOL0     H20263   7.889   1.896   6.515  2.2331  0.6835  0.8843
  154MOL0     H20264   7.641   1.903   6.562  2.0052 -1.5364 -0.0616
  154MOL0     H20265   7.470   2.243   6.769 -2.1449  0.7419  5.0874
  154MOL0     H20266   7.480   2.110   6.886 -0.6248  1.5195  1.3239
  154MOL0     H20267   7.275   2.010   6.758  0.5025  0.1202  1.4330
  154MOL0     H20268   7.269   2.172   6.671  0.5684  0.6732 -0.3855
  154MOL0     H20269   7.267   2.275   6.920  0.2941 -1.4498  1.6145
  154MOL0     H20270   7.249   2.101   6.965  1.0240  0.2594  1.7235
  154MOL0     H20271   7.060   2.249   6.769 -0.7782 -1.0020 -0.4372
  154MOL0     H20272   7.026   2.095   6.843 -0.5561  0.5454  0.4378
  154MOL0     H20273   7.030   2.352   7.010 -0.3083 -0.1998 -1.4789
  154MOL0     H20274   7.004   2.185   7.063  3.2889 -0.6845 -2.0988
  154MOL0     H20275   6.822   2.340   6.861 -0.3376 -0.4234  0.2594
  154MOL0     H20276   6.799   2.354   7.030  1.0849  0.5204  0.4883
  154MOL0     H20277   6.685   2.177   6.887  0.3301  2.2963  1.0712
  154MOL0     H20278   6.824   2.067   6.915 -1.7641  0.5037 -1.9327
  154MOL0     H20279   6.750   2.211   7.164 -2.9941  2.2606 -2.7176
  154MOL0     H20280   6.783   2.044   7.144  0.0361 -0.9203 -1.7315
  154MOL0     H20281   6.561   1.894   7.067  1.4919  0.6766  0.7712
  154MOL0     H20282   6.232   1.910   7.220  2.3398 -0.8619  0.9360
  154MOL0     H20283   6.310   1.807   7.099  0.4768 -0.1929  0.8711
  154MOL0     H20284   6.100   2.036   7.043 -1.3749 -0.0344  1.6376
  154MOL0     H20285   6.066   1.864   7.038  1.1942 -0.7432  2.5947
  154MOL0     H20286   6.310   1.904   6.867  0.0805 -3.9180  0.4291
  154MOL0     H20287   6.175   1.798   6.858 -0.4116  0.5366 -4.7120
  154MOL0     H20288   6.188   2.088   6.774  1.5497  0.3807 -3.3242
  154MOL0     H20289   6.039   1.985   6.770 -0.1853  5.5627 -0.5776
  154MOL0     H20290   6.057   2.179   6.622 -0.8218 -1.8317  0.9895
  154MOL0     H20291   5.903   2.241   6.452 -1.4664 -1.1710  4.7117
  154MOL0     H20292   5.869   2.098   5.928 -0.4966 -0.9326 -2.7425
  154MOL0     H20293   5.738   2.136   5.727 -1.1818 -0.7605 -1.4606
  154MOL0     H20294   5.306   2.065   5.741  0.2137  0.0648 -0.9008
  154MOL0     H20295   5.375   1.904   5.667  4.8442  0.5294 -2.0926
  154MOL0     H20296   5.408   2.032   5.458  0.4243  1.0699  0.3337
  154MOL0     H20297   5.323   2.162   5.539 -1.0441  0.5522 -0.8895
  154MOL0     H20298   5.179   1.895   5.481  2.1320  0.1712  2.5286
  154MOL0     H20299   5.176   2.045   5.385 -2.4862 -2.9657 -1.6628
  154MOL0     H20300   5.069   2.003   5.670  2.3819  0.3017  0.1243
  154MOL0     H20301   5.108   2.163   5.606 -1.4727 -0.5277 -2.4447
  154MOL0     H20302   4.927   2.115   5.423 -0.0990 -2.4617 -1.3040
  154MOL0     H20303   4.877   2.123   5.581  0.7981  0.6967  0.4851
  154MOL0     H20304   4.903   1.870   5.597 -2.7756  0.3630  1.3484
  154MOL0     H20305   4.932   1.861   5.427  3.4998 -0.4349  0.7064
  154MOL0     H20306   4.684   1.995   5.537  0.6399 -0.2703  0.8111
  154MOL0     H20307   4.738   1.960   5.369  3.2538 -4.0248 -1.4183
  154MOL0     H20308   4.701   1.760   5.584  2.5625 -2.5156 -0.8394
  154MOL0     H20309   4.729   1.717   5.420 -2.0598 -0.5576 -0.6073
  154MOL0     H20310   5.385   1.978   5.932 -0.8567  0.3207 -0.0826
  154MOL0     H20311   5.519   1.946   6.129  0.5154 -4.2579  0.0408
  154MOL0     H20312   5.993   1.880   6.224  1.4644 -1.4329  0.3765
  154MOL0     H20313   6.177   1.844   6.405  0.8634  0.7791 -2.0870
  154MOL0     H20314   7.696   2.275   6.761 -0.4310  2.4218 -2.1564
  154MOL0     H20315   7.925   2.284   6.680  0.0201 -0.2732 -1.1401
  154MOL0     H20316   8.215   1.945   6.415 -0.1365  1.2788  3.5569
  154MOL0     H20317   8.414   1.876   6.295 -0.2157  0.5930 -0.8571
  154MOL0     H20318   8.745   2.204   6.231 -1.3080  1.3410  2.9121
  154MOL0     H20319   8.829   2.044   6.224  0.6770 -1.5893  5.0789
  154MOL0     H20320   8.736   2.172   6.481  1.6405 -0.4302  1.2691
  154MOL0     H20321   8.790   2.006   6.464  1.9988 -0.2162 -1.1384
  154MOL0     H20322   8.943   2.253   6.422 -0.6306 -0.0254 -0.6866
  154MOL0     H20323   8.995   2.101   6.355 -0.5387 -3.2828  2.3272
  154MOL0     H20324   9.001   1.986   6.577  0.3326  0.0017  1.2755
  154MOL0     H20325   9.099   2.138   6.572  1.1752 -1.9097  0.3640
  154MOL0     H20326   8.784   2.264   6.839 -1.0292  4.1600 -2.8457
  154MOL0     H20327   8.571   2.274   6.329  0.5146 -1.4796 -0.6950
  154MOL0     H20328   8.355   2.348   6.448 -0.4245 -0.8286 -0.6721
  155MOL0     O20329  11.091   3.615   8.486 -0.2715 -1.0140 -0.1844
  155MOL0     C20330  11.094   3.594   8.363 -0.4091 -0.1249  0.0385
  155MOL0     O20331  10.976   3.606   8.282  0.4253 -0.0860  0.0828
  155MOL0     C20332  10.856   3.630   8.346 -0.2615  0.1931  0.1922
  155MOL0     C20333  10.836   3.741   8.423 -1.1612  0.0539 -1.2900
  155MOL0     C20334  10.710   3.775   8.467  0.0576  0.3348 -0.2599
  155MOL0     C20335  10.604   3.689   8.447  1.2669  0.0513 -0.8219
  155MOL0     O20336  10.485   3.726   8.499  0.5216  0.6807 -0.3554
  155MOL0     C20337  10.367   3.653   8.464 -0.0440 -0.2354 -0.3102
  155MOL0     C20338  10.258   3.719   8.538  0.6543 -0.6900 -0.1500
  155MOL0     C20339  10.240   3.864   8.475 -0.3589  0.1143 -0.7286
  155MOL0     C20340  10.108   3.928   8.534 -0.4392  0.0358 -0.2712
  155MOL0     C20341  10.113   3.944   8.689  0.5152  0.2059  0.4074
  155MOL0     C20342   9.986   4.005   8.747  0.2474 -0.2877 -0.1383
  155MOL0     C20343   9.991   4.014   8.901 -0.1330  0.0451  0.0052
  155MOL0     C20344   9.871   4.075   8.964  0.0015 -0.5262  0.4769
  155MOL0     N20345   9.741   4.017   8.932  0.5951  0.4521  0.3229
  155MOL0     C20346   9.646   4.071   8.856  0.2846 -0.6727 -0.1710
  155MOL0     C20347   9.543   3.987   8.878  0.0184  0.2824 -0.3543
  155MOL0     C20348   9.403   3.996   8.832  0.6008  0.0241  0.1497
  155MOL0     C20349   9.341   4.117   8.886  1.2967 -0.4240  0.0407
  155MOL0     C20350   9.333   4.117   9.043  0.0194  0.9882 -0.6343
  155MOL0     C20351   9.306   4.266   9.092  0.2162  0.2458  0.5439
  155MOL0     O20352   9.417   4.357   9.066  0.2631 -0.4804  0.9637
  155MOL0     C20353   9.546   4.318   9.119  0.2444  0.4403  0.3393
  155MOL0     C20354   9.577   4.219   9.209 -0.3478  0.1592 -0.1189
  155MOL0     C20355   9.713   4.197   9.252 -0.4267  0.0041 -0.6390
  155MOL0     C20356   9.815   4.285   9.217 -0.2089 -0.4169 -0.0194
  155MOL0     C20357   9.952   4.271   9.256 -0.9284  0.7586 -0.1008
  155MOL0     O20358  10.048   4.357   9.208  0.3402 -0.3481 -0.6992
  155MOL0     C20359  10.178   4.348   9.269  0.0480 -0.6151  1.0111
  155MOL0     C20360  10.199   4.402   9.394  0.2232 -0.8617 -0.9198
  155MOL0     C20361  10.317   4.384   9.464  0.0965 -0.5123  0.9149
  155MOL0     C20362  10.422   4.314   9.399 -0.7034  0.3638  0.2479
  155MOL0     O20363  10.560   4.307   9.441  0.4462  0.0074 -1.1395
  155MOL0     C20364  10.597   4.423   9.516  1.1375 -0.6902 -0.6811
  155MOL0     C20365  10.742   4.431   9.504 -1.4925 -0.0168  0.1013
  155MOL0     C20366  10.794   4.577   9.515  0.7151  0.2511  0.2366
  155MOL0     C20367  10.945   4.585   9.505 -0.0747  1.0154  0.0330
  155MOL0     C20368  10.996   4.723   9.553  0.0499  0.0591  0.4263
  155MOL0     C20369  11.143   4.741   9.513  0.1584 -0.2342  0.3471
  155MOL0     C20370  11.249   4.742   9.623 -0.5204 -0.1972  0.4232
  155MOL0     C20371  11.386   4.756   9.551 -0.0368 -0.6189  0.6460
  155MOL0    Cl20372  11.510   4.727   9.668  0.2517  0.3617  0.3578
  155MOL0     C20373  10.404   4.267   9.270  0.5213  0.9581 -0.4284
  155MOL0     C20374  10.280   4.279   9.217 -0.2205  0.2530 -0.1071
  155MOL0     O20375   9.976   4.181   9.338 -0.6786  0.6901 -0.5393
  155MOL0     C20376   9.775   4.376   9.115 -0.4006  0.2182 -1.1593
  155MOL0     C20377   9.649   4.392   9.070 -0.1290  0.4018  1.1007
  155MOL0     N20378   9.591   3.873   8.942  0.2500  0.5855  0.5279
  155MOL0     N20379   9.710   3.890   8.975  0.4128 -1.0965  0.1335
  155MOL0     C20380  10.626   3.567   8.371 -0.1768 -0.0581 -0.0580
  155MOL0     C20381  10.746   3.557   8.306  0.8122  0.4118 -0.8741
  155MOL0     C20382  11.220   3.550   8.302  0.3455 -0.6157 -0.4315
  155MOL0     C20383  11.336   3.532   8.382 -1.2790  0.7395  1.1321
  155MOL0     C20384  11.453   3.479   8.321  0.1605 -0.0669 -0.7116
  155MOL0     C20385  11.457   3.467   8.177  0.5421 -0.1246 -0.6939
  155MOL0     O20386  11.578   3.436   8.113 -0.8684 -0.2106 -0.3878
  155MOL0     C20387  11.692   3.386   8.180  0.4550  0.2978 -0.3360
  155MOL0     C20388  11.780   3.492   8.254  0.4856 -0.6743 -0.0131
  155MOL0     C20389  11.773   3.628   8.183 -0.5463 -0.5437 -0.5457
  155MOL0     C20390  11.847   3.639   8.043  0.6527 -0.2404  0.9528
  155MOL0     C20391  11.983   3.608   8.045  0.3988 -0.6793 -0.3377
  155MOL0     C20392  12.104   3.576   8.051 -0.0681 -1.0278  1.1609
  155MOL0     C20393  11.339   3.471   8.105  0.3730 -0.0629 -0.1953
  155MOL0     C20394  11.228   3.515   8.171 -0.4055 -0.8788 -0.4301
  155MOL0     H20395  10.909   3.820   8.436 -2.0789  0.6383  0.9418
  155MOL0     H20396  10.692   3.848   8.545  1.4961 -3.0114  3.5615
  155MOL0     H20397  10.368   3.552   8.505  1.4316 -0.1450 -0.0490
  155MOL0     H20398  10.358   3.656   8.355  0.6269  1.4053 -0.3469
  155MOL0     H20399  10.291   3.726   8.641  0.6667  3.3585 -0.2681
  155MOL0     H20400  10.159   3.673   8.534  0.1776  0.3752 -2.3533
  155MOL0     H20401  10.218   3.852   8.369  0.8631 -2.4235 -0.7699
  155MOL0     H20402  10.323   3.935   8.487  1.2848 -1.2312 -3.2047
  155MOL0     H20403  10.077   4.019   8.482 -0.3163 -0.1403 -0.6574
  155MOL0     H20404  10.036   3.847   8.518  1.8907 -1.7238 -2.6551
  155MOL0     H20405  10.192   4.018   8.704 -1.2412  1.7523  2.6248
  155MOL0     H20406  10.134   3.846   8.733  1.1630  0.3016  0.3323
  155MOL0     H20407   9.907   3.943   8.702 -1.8720  2.4626 -0.4840
  155MOL0     H20408   9.977   4.102   8.698 -0.4512 -1.2507 -2.0299
  155MOL0     H20409  10.002   3.914   8.943  1.6537  1.0053  2.0054
  155MOL0     H20410  10.078   4.075   8.925  1.6489 -1.3203 -2.5432
  155MOL0     H20411   9.869   4.177   8.923 -0.3414 -1.9064 -3.3131
  155MOL0     H20412   9.873   4.087   9.073 -2.6067 -0.9920  0.6197
  155MOL0     H20413   9.653   4.162   8.797  0.6058  1.3347  2.8025
  155MOL0     H20414   9.336   3.913   8.858 -1.0271  1.5323  0.9597
  155MOL0     H20415   9.408   4.004   8.723  2.9627  0.7665  0.2584
  155MOL0     H20416   9.241   4.120   8.840  0.6375 -2.8872  1.1774
  155MOL0     H20417   9.398   4.204   8.851 -0.0158 -0.1495 -1.5597
  155MOL0     H20418   9.247   4.055   9.068  0.8716  0.4064  0.9879
  155MOL0     H20419   9.427   4.070   9.073  0.2376 -0.3073 -3.0797
  155MOL0     H20420   9.279   4.282   9.197 -2.8912  0.5939 -0.2129
  155MOL0     H20421   9.217   4.293   9.034 -0.1476 -1.1273  0.4338
  155MOL0     H20422   9.498   4.163   9.256 -0.1589 -2.3719 -2.5519
  155MOL0     H20423   9.729   4.116   9.323 -0.4301  0.1635 -0.4533
  155MOL0     H20424  10.107   4.448   9.429  0.7028 -1.3793  1.1625
  155MOL0     H20425  10.324   4.439   9.557  0.8519  0.0692  0.5210
  155MOL0     H20426  10.561   4.423   9.619  0.6849 -1.2048 -0.8313
  155MOL0     H20427  10.557   4.516   9.474 -0.2463  1.2392  4.1519
  155MOL0     H20428  10.776   4.394   9.407 -2.0921 -0.9072  0.2253
  155MOL0     H20429  10.788   4.367   9.580  0.4953  0.9290 -0.2202
  155MOL0     H20430  10.766   4.628   9.608 -0.7802  1.1511 -0.6450
  155MOL0     H20431  10.749   4.634   9.433 -1.5656  2.1105  2.6097
  155MOL0     H20432  10.998   4.507   9.561 -2.2139  0.0683  0.8502
  155MOL0     H20433  10.955   4.584   9.396 -1.2212 -0.2546 -0.0981
  155MOL0     H20434  10.994   4.717   9.662 -1.3620  0.7887  0.4573
  155MOL0     H20435  10.933   4.793   9.497  1.1598  1.3735  0.7768
  155MOL0     H20436  11.135   4.841   9.470 -2.9011  0.4125  2.0878
  155MOL0     H20437  11.157   4.664   9.437  2.8679  0.3340  0.1716
  155MOL0     H20438  11.230   4.819   9.698 -0.6255 -1.8001  2.1287
  155MOL0     H20439  11.249   4.650   9.682 -1.3922  1.8341  3.8963
  155MOL0     H20440  11.408   4.858   9.521 -0.0356 -1.2396 -1.6079
  155MOL0     H20441  11.386   4.694   9.461 -0.8185 -0.8898  0.8215
  155MOL0     H20442  10.489   4.223   9.217  0.8526  0.4939  0.4732
  155MOL0     H20443  10.264   4.246   9.115  1.7246 -0.5143 -0.2059
  155MOL0     H20444   9.849   4.437   9.063 -0.6435  0.7199 -0.9296
  155MOL0     H20445   9.623   4.457   8.987 -0.4575  0.5251  1.2971
  155MOL0     H20446  10.546   3.493   8.359 -1.9277  1.9409 -1.4490
  155MOL0     H20447  10.767   3.468   8.247  0.1882  0.3004 -0.9273
  155MOL0     H20448  11.330   3.545   8.490 -4.3096  1.1386  1.0000
  155MOL0     H20449  11.544   3.464   8.377 -1.1730 -2.8081  0.9900
  155MOL0     H20450  11.752   3.331   8.107  0.0909  0.0767 -0.4678
  155MOL0     H20451  11.671   3.311   8.256  0.8514  1.2659  0.7613
  155MOL0     H20452  11.733   3.505   8.352  2.8621  3.2716  0.8081
  155MOL0     H20453  11.880   3.450   8.268  0.8632 -0.5432 -1.9454
  155MOL0     H20454  11.816   3.695   8.258  1.0487 -2.9468  0.8237
  155MOL0     H20455  11.666   3.651   8.186 -0.2587  0.9279  2.6321
  155MOL0     H20456  11.796   3.566   7.980 -1.2470  0.8949  1.0839
  155MOL0     H20457  11.826   3.739   8.004 -0.7495 -0.4947  1.0088
  155MOL0     H20458  12.210   3.558   8.051  0.3842  1.1780 -0.4424
  155MOL0     H20459  11.330   3.442   8.001 -0.9259 -0.4211 -0.0004
  155MOL0     H20460  11.140   3.536   8.110 -0.0186  0.1534 -0.6568
  156MOL0     O20461   9.354   1.630   4.765 -0.3924 -0.0902  0.0611
  156MOL0     C20462   9.393   1.648   4.652 -0.9561 -0.5849  0.1481
  156MOL0     O20463   9.318   1.654   4.537 -0.0930  0.1624  0.2495
  156MOL0     C20464   9.194   1.598   4.540  0.4313 -1.4087  0.0917
  156MOL0     C20465   9.083   1.679   4.595 -1.2469  0.5949  0.5542
  156MOL0     C20466   8.958   1.612   4.595  0.3734  0.3288  1.0248
  156MOL0     C20467   8.944   1.486   4.529 -0.2849 -0.3672 -0.6981
  156MOL0     O20468   8.820   1.440   4.503 -0.2886 -0.5904  0.2552
  156MOL0     C20469   8.785   1.333   4.582  0.1312 -0.2356 -0.3851
  156MOL0     C20470   8.636   1.286   4.566  0.5456  0.7622  0.0612
  156MOL0     C20471   8.532   1.373   4.623 -0.8141 -0.6949  0.2483
  156MOL0     C20472   8.388   1.343   4.577 -1.2433 -0.1261 -0.4455
  156MOL0     C20473   8.283   1.435   4.644 -0.1887 -0.6661 -0.1587
  156MOL0     C20474   8.323   1.585   4.634  0.0871  0.9991 -0.2306
  156MOL0     C20475   8.220   1.686   4.678 -0.9161  0.9100  0.9057
  156MOL0     C20476   8.116   1.709   4.579 -0.0002  1.2485  0.2061
  156MOL0     N20477   7.997   1.631   4.607 -0.1455  0.3636  0.1342
  156MOL0     C20478   7.897   1.663   4.698 -0.3270 -0.5471  0.5348
  156MOL0     C20479   7.799   1.577   4.665  0.1075  0.1518 -0.2369
  156MOL0     C20480   7.658   1.567   4.726 -0.2113  0.0903  0.6204
  156MOL0     C20481   7.535   1.535   4.627 -0.4416 -0.5342  0.2230
  156MOL0     C20482   7.474   1.397   4.668 -0.8883 -1.0032 -0.1186
  156MOL0     C20483   7.347   1.372   4.584 -0.2992  0.3583 -1.2174
  156MOL0     O20484   7.307   1.240   4.610  0.1276 -0.0801  0.3735
  156MOL0     C20485   7.182   1.252   4.664 -0.2985 -0.1993  0.1830
  156MOL0     C20486   7.077   1.301   4.585 -0.3568  0.2065 -1.1225
  156MOL0     C20487   6.956   1.298   4.636  0.3455  0.4666  0.9272
  156MOL0     C20488   6.923   1.267   4.771 -0.1700  0.6774 -0.0672
  156MOL0     C20489   6.784   1.274   4.828  0.7169 -0.4438  0.3815
  156MOL0     O20490   6.755   1.215   4.952 -0.3970 -0.0918  0.0492
  156MOL0     C20491   6.638   1.222   5.016  0.6008  0.0005  0.1622
  156MOL0     C20492   6.553   1.339   5.014  0.7298  0.8322 -0.5318
  156MOL0     C20493   6.426   1.336   5.073  0.3356  0.5170  1.0312
  156MOL0     C20494   6.374   1.224   5.135  0.1545 -0.6147 -0.2179
  156MOL0     O20495   6.247   1.229   5.187 -0.5479  0.1458 -0.1529
  156MOL0     C20496   6.193   1.132   5.280  0.1276  0.4435 -0.3038
  156MOL0     C20497   6.240   1.173   5.414 -0.1457  1.0111  0.8041
  156MOL0     C20498   6.164   1.111   5.534 -0.1760  0.0363  0.3777
  156MOL0     C20499   6.185   1.202   5.658  0.3670  0.1834 -0.0416
  156MOL0     C20500   6.106   1.159   5.776 -0.0182 -0.1172 -1.3521
  156MOL0     C20501   5.958   1.210   5.776 -0.0014 -0.0046  1.0125
  156MOL0     C20502   5.860   1.107   5.728  0.9283  1.2004  0.0153
  156MOL0     C20503   5.712   1.147   5.744 -1.6203 -0.8315  0.9161
  156MOL0    Cl20504   5.690   1.156   5.922  0.0499 -0.5402 -0.0457
  156MOL0     C20505   6.456   1.116   5.152 -0.5986  0.7222 -0.1892
  156MOL0     C20506   6.581   1.109   5.085  0.2368 -0.2619  0.0928
  156MOL0     O20507   6.705   1.358   4.779 -0.7064 -0.0533  0.0572
  156MOL0     C20508   7.037   1.218   4.856  0.5296  0.3685 -0.2630
  156MOL0     C20509   7.163   1.199   4.789  1.0188 -0.5537 -0.2278
  156MOL0     N20510   7.836   1.506   4.555 -0.4698  0.2906  0.1722
  156MOL0     N20511   7.960   1.527   4.530  0.2932 -0.0378 -0.6268
  156MOL0     C20512   9.055   1.415   4.475  1.1600  0.4067 -0.2318
  156MOL0     C20513   9.181   1.470   4.485  0.4778 -0.1828 -0.6394
  156MOL0     C20514   9.541   1.690   4.633  0.0935 -0.5601  0.2039
  156MOL0     C20515   9.628   1.714   4.746 -0.1242 -1.0082  0.6628
  156MOL0     C20516   9.769   1.735   4.728 -0.4221  0.0182 -0.4829
  156MOL0     C20517   9.819   1.750   4.601  0.0051  0.3852 -1.3628
  156MOL0     O20518   9.948   1.777   4.586 -0.4329  0.9015 -0.3618
  156MOL0     C20519   9.981   1.907   4.533 -0.9294  0.7223  0.0421
  156MOL0     C20520  10.134   1.931   4.515  0.3846  0.0443  0.2336
  156MOL0     C20521  10.208   1.827   4.433 -1.0293 -0.5123  0.6937
  156MOL0     C20522  10.354   1.863   4.432 -0.2545  0.1746 -0.5112
  156MOL0     C20523  10.366   1.986   4.359  0.1555 -0.3777  0.7887
  156MOL0     C20524  10.392   2.095   4.316 -1.0344  0.8437 -0.2616
  156MOL0     C20525   9.736   1.744   4.486 -0.1213 -0.3279  0.1643
  156MOL0     C20526   9.595   1.702   4.501 -0.1837 -0.8143  0.3808
  156MOL0     H20527   9.100   1.768   4.655  1.6828  0.6182 -0.1551
  156MOL0     H20528   8.874   1.658   4.647 -0.7920  0.2695 -0.7321
  156MOL0     H20529   8.812   1.347   4.687  0.1051 -0.8686 -0.2917
  156MOL0     H20530   8.846   1.249   4.546 -0.1984 -0.1636 -1.1220
  156MOL0     H20531   8.614   1.181   4.592  0.8776  0.4881 -0.7423
  156MOL0     H20532   8.622   1.301   4.459  3.4192 -3.0668 -1.0992
  156MOL0     H20533   8.562   1.468   4.576 -0.4582 -1.8154 -1.9164
  156MOL0     H20534   8.519   1.391   4.730 -0.7227  1.9595 -0.1037
  156MOL0     H20535   8.385   1.360   4.469 -0.3348 -0.0378 -0.4664
  156MOL0     H20536   8.374   1.237   4.604  1.3272  0.3550  3.7032
  156MOL0     H20537   8.303   1.410   4.749 -0.2914 -0.0103  0.0227
  156MOL0     H20538   8.178   1.417   4.622 -0.1079 -1.0126 -0.2644
  156MOL0     H20539   8.348   1.604   4.529  0.4869 -0.3161 -0.3918
  156MOL0     H20540   8.410   1.588   4.700 -2.6735  2.2846  3.7375
  156MOL0     H20541   8.172   1.651   4.770 -4.9653  1.5469 -0.7202
  156MOL0     H20542   8.276   1.778   4.693  2.2229 -1.1726  3.3045
  156MOL0     H20543   8.148   1.682   4.478 -1.7224  4.5469 -1.3739
  156MOL0     H20544   8.095   1.816   4.576 -0.5402  1.1988  1.5954
  156MOL0     H20545   7.903   1.737   4.777 -0.3571 -1.2675  1.2171
  156MOL0     H20546   7.635   1.661   4.776  1.0980  1.3305 -0.9803
  156MOL0     H20547   7.667   1.488   4.801 -1.2083  2.2787  3.1842
  156MOL0     H20548   7.561   1.530   4.521  1.4701 -1.7771  0.6892
  156MOL0     H20549   7.461   1.614   4.637 -1.4127 -1.1789 -1.4310
  156MOL0     H20550   7.541   1.312   4.653  3.2630  2.0692 -0.8041
  156MOL0     H20551   7.451   1.405   4.775 -0.3316  0.9437 -0.1090
  156MOL0     H20552   7.375   1.387   4.480  2.3357  1.5884 -0.4045
  156MOL0     H20553   7.279   1.448   4.624  1.1756  0.9010  0.3643
  156MOL0     H20554   7.083   1.346   4.486 -1.5463 -2.2798 -2.4134
  156MOL0     H20555   6.867   1.312   4.576 -1.0460 -2.7695  1.9894
  156MOL0     H20556   6.586   1.430   4.965 -0.6475  1.0820 -1.0380
  156MOL0     H20557   6.362   1.424   5.076 -0.3542  0.3039 -2.6347
  156MOL0     H20558   6.231   1.031   5.263  0.8798  0.2650  2.1044
  156MOL0     H20559   6.083   1.134   5.284  0.1521  2.6881  1.0494
  156MOL0     H20560   6.224   1.281   5.417  0.4682  1.1278  0.0620
  156MOL0     H20561   6.345   1.146   5.425 -0.3001  0.4414  0.9072
  156MOL0     H20562   6.213   1.018   5.564 -0.4862 -0.4752 -0.6616
  156MOL0     H20563   6.061   1.080   5.513 -1.3601  2.2211  2.4945
  156MOL0     H20564   6.292   1.204   5.678  0.5986  0.6065 -1.2279
  156MOL0     H20565   6.154   1.303   5.631 -1.1368  0.1064  1.2563
  156MOL0     H20566   6.169   1.184   5.862  0.1234  1.8727 -1.9914
  156MOL0     H20567   6.101   1.049   5.775 -0.4066 -0.1131 -0.7594
  156MOL0     H20568   5.949   1.304   5.721  1.1904  0.1108  0.9746
  156MOL0     H20569   5.935   1.243   5.878 -1.8381  0.7650  0.3812
  156MOL0     H20570   5.871   1.091   5.620  0.9338 -3.2112  0.5107
  156MOL0     H20571   5.876   1.012   5.778  0.6953 -0.2144 -2.4439
  156MOL0     H20572   5.646   1.071   5.701  2.3048 -3.8577 -0.2851
  156MOL0     H20573   5.703   1.237   5.683  0.7512 -0.1418  1.4900
  156MOL0     H20574   6.429   1.026   5.206 -0.9283 -0.1052 -1.7001
  156MOL0     H20575   6.629   1.013   5.099  0.6919 -0.1645 -0.7503
  156MOL0     H20576   7.024   1.182   4.958 -0.7196 -3.0824 -1.4906
  156MOL0     H20577   7.238   1.147   4.848 -0.5971 -1.0824  1.4755
  156MOL0     H20578   9.041   1.320   4.424 -0.0809  1.5962 -2.1849
  156MOL0     H20579   9.267   1.409   4.462 -0.7225 -1.4039 -2.1317
  156MOL0     H20580   9.578   1.710   4.842  0.6950  1.8191  1.3283
  156MOL0     H20581   9.829   1.731   4.819  0.8848  3.0430 -1.0859
  156MOL0     H20582   9.933   1.978   4.601 -4.1207 -3.1358  2.2996
  156MOL0     H20583   9.929   1.924   4.438  0.3997 -0.3841 -0.9316
  156MOL0     H20584  10.151   2.034   4.483 -2.2261  0.2207 -0.8070
  156MOL0     H20585  10.178   1.929   4.616  3.4961 -1.3204 -1.0084
  156MOL0     H20586  10.169   1.817   4.332 -0.9730  0.0339  0.6182
  156MOL0     H20587  10.184   1.734   4.486 -1.5413  0.1124  1.5889
  156MOL0     H20588  10.390   1.878   4.535  1.5727 -0.0213 -1.0772
  156MOL0     H20589  10.423   1.798   4.377  1.6275  2.7154 -1.3560
  156MOL0     H20590  10.429   2.191   4.287  0.0948  0.2529 -0.8143
  156MOL0     H20591   9.756   1.780   4.386  2.3111  1.2026  1.0820
  156MOL0     H20592   9.523   1.692   4.421 -1.3934  0.1205  1.2929
  157MOL0     O20593   1.122   1.441  10.629  0.2562  0.6226  0.2593
  157MOL0     C20594   1.063   1.540  10.583  0.1391  0.7728  0.4206
  157MOL0     O20595   1.103   1.669  10.602  0.1349 -0.5227  0.0416
  157MOL0     C20596   1.233   1.691  10.627 -0.2125 -0.7232  0.6469
  157MOL0     C20597   1.317   1.676  10.514 -0.3769 -0.3155 -0.5758
  157MOL0     C20598   1.455   1.696  10.533 -0.8201 -0.4862  0.6916
  157MOL0     C20599   1.511   1.741  10.652  0.6160 -0.5676  0.5711
  157MOL0     O20600   1.644   1.782  10.667  0.4599 -0.2455 -0.6234
  157MOL0     C20601   1.713   1.824  10.556 -0.4334  0.1002  0.1792
  157MOL0     C20602   1.828   1.920  10.593  0.0802 -1.2335  0.1874
  157MOL0     C20603   1.774   2.047  10.663  1.0521 -0.5060  0.5994
  157MOL0     C20604   1.880   2.153  10.650 -0.0517  0.1474 -0.8527
  157MOL0     C20605   1.953   2.182  10.786 -0.4048  0.0012 -0.8850
  157MOL0     C20606   1.944   2.330  10.828  0.2222  0.4752 -0.2117
  157MOL0     C20607   1.809   2.362  10.908  0.1680 -0.6621 -0.2735
  157MOL0     C20608   1.676   2.321  10.831  0.1936 -0.4684  0.1791
  157MOL0     N20609   1.557   2.358  10.912 -0.2486 -0.3357  0.0807
  157MOL0     C20610   1.503   2.488  10.925  0.5306 -0.6355  0.3049
  157MOL0     C20611   1.377   2.456  10.978  1.3245 -0.5139  0.4630
  157MOL0     C20612   1.270   2.556  11.003  0.3838 -0.6419  0.2675
  157MOL0     C20613   1.131   2.493  11.021  0.1248  0.0559  0.6681
  157MOL0     C20614   1.034   2.606  11.072 -0.1525 -0.6206  0.2356
  157MOL0     C20615   0.894   2.563  11.099 -0.6638  1.1717  0.7366
  157MOL0     O20616   0.814   2.657  11.166 -0.6869 -0.4160 -0.3745
  157MOL0     C20617   0.695   2.620  11.230  0.6841 -0.2597 -0.1828
  157MOL0     C20618   0.641   2.498  11.263 -0.1327 -0.4019  0.5846
  157MOL0     C20619   0.516   2.487  11.327 -0.2627 -0.0529 -0.1332
  157MOL0     C20620   0.441   2.594  11.368  0.7479 -0.5362 -0.5625
  157MOL0     C20621   0.308   2.581  11.446 -0.7368  0.4101  1.0837
  157MOL0     O20622   0.274   2.679  11.524 -0.2181  0.0108 -0.9041
  157MOL0     C20623   0.156   2.666  11.592 -0.2507 -0.9033 -0.9046
  157MOL0     C20624   0.036   2.665  11.516 -0.1630 -0.1220  0.1003
  157MOL0     C20625  -0.086   2.632  11.584  0.2796 -0.7905 -0.0508
  157MOL0     C20626  -0.103   2.620  11.721  0.8144 -0.6991 -0.5275
  157MOL0     O20627  -0.229   2.570  11.764 -0.3916 -0.5885 -0.1122
  157MOL0     C20628  -0.228   2.543  11.905 -0.5160  0.1919  0.7246
  157MOL0     C20629  -0.357   2.484  11.959  0.5983  0.1620 -0.3491
  157MOL0     C20630  -0.322   2.388  12.078 -1.1672 -0.2890 -0.1709
  157MOL0     C20631  -0.436   2.325  12.162 -0.8846 -0.1482  0.0887
  157MOL0     C20632  -0.514   2.412  12.247  1.0130  0.0259  1.0989
  157MOL0     C20633  -0.617   2.338  12.333  0.4547 -0.3759 -0.4277
  157MOL0     C20634  -0.722   2.422  12.397 -0.0129  0.1448 -0.7044
  157MOL0     C20635  -0.803   2.345  12.501  0.9475  1.0477  0.1419
  157MOL0    Cl20636  -0.694   2.255  12.622 -0.0311 -0.1806 -0.0153
  157MOL0     C20637   0.019   2.636  11.796 -0.3803 -0.6222 -0.5383
  157MOL0     C20638   0.140   2.668  11.733  1.2472  1.0215 -0.3475
  157MOL0     O20639   0.247   2.471  11.432  0.1202  0.2928 -1.0271
  157MOL0     C20640   0.501   2.716  11.345  0.9066 -0.3989  0.4239
  157MOL0     C20641   0.616   2.733  11.258 -0.1510 -1.0296 -0.6372
  157MOL0     N20642   1.380   2.321  11.015  0.4145  0.2895  0.9465
  157MOL0     N20643   1.489   2.265  10.988  0.2089  0.2521  0.2558
  157MOL0     C20644   1.424   1.759  10.762  0.4442 -0.9101 -0.8650
  157MOL0     C20645   1.287   1.730  10.752  0.1723 -0.1897  0.3086
  157MOL0     C20646   0.931   1.522  10.518  0.4920  0.3407  0.1167
  157MOL0     C20647   0.849   1.631  10.474 -0.6037 -0.4328 -0.3946
  157MOL0     C20648   0.725   1.609  10.426  0.2518 -0.7805 -0.0770
  157MOL0     C20649   0.671   1.486  10.430  0.0392 -0.5274  0.3875
  157MOL0     O20650   0.545   1.461  10.373 -0.3062 -1.3943  0.8659
  157MOL0     C20651   0.449   1.391  10.447 -0.4927 -0.2734  0.4098
  157MOL0     C20652   0.313   1.429  10.392  0.2851 -0.4700  0.3958
  157MOL0     C20653   0.205   1.372  10.483 -0.3319 -0.2918  0.3006
  157MOL0     C20654   0.058   1.375  10.426 -0.8752 -0.2778 -0.9801
  157MOL0     C20655   0.000   1.510  10.411 -0.0209  0.2558  0.8015
  157MOL0     C20656  -0.061   1.615  10.392  0.9732  0.4117 -0.1742
  157MOL0     C20657   0.744   1.377  10.480 -0.1781 -0.8757 -0.6117
  157MOL0     C20658   0.876   1.391  10.518 -0.1950  0.2896  0.1543
  157MOL0     H20659   1.272   1.667  10.416 -3.4859  1.2067  0.5470
  157MOL0     H20660   1.512   1.679  10.442  0.0622  0.0873  1.1218
  157MOL0     H20661   1.641   1.878  10.496  1.8633  5.4505  1.6764
  157MOL0     H20662   1.749   1.742  10.492 -0.2799  0.6488 -0.4473
  157MOL0     H20663   1.882   1.957  10.506 -1.0205 -0.0559 -0.0306
  157MOL0     H20664   1.898   1.877  10.666 -2.1822 -2.8669  1.5688
  157MOL0     H20665   1.744   2.024  10.765  0.8314  0.0957  0.6772
  157MOL0     H20666   1.692   2.087  10.602 -0.8097 -3.1653  1.1666
  157MOL0     H20667   1.967   2.137  10.586  1.0494  0.3873  0.5292
  157MOL0     H20668   1.833   2.246  10.619 -1.0539  0.4154  1.2628
  157MOL0     H20669   2.059   2.160  10.769 -0.1995  0.8791 -0.7785
  157MOL0     H20670   1.917   2.129  10.875  0.2081  1.2371  0.1166
  157MOL0     H20671   1.965   2.393  10.740 -0.2058  0.7400 -0.1270
  157MOL0     H20672   2.025   2.346  10.899 -0.0538 -1.3065  0.5430
  157MOL0     H20673   1.808   2.313  11.006 -0.4216  0.5762  0.3653
  157MOL0     H20674   1.808   2.466  10.941 -4.0449  0.3055 -2.6856
  157MOL0     H20675   1.668   2.212  10.826  0.7809 -0.6321  2.1405
  157MOL0     H20676   1.677   2.357  10.728  0.2995 -1.4579 -0.1841
  157MOL0     H20677   1.550   2.581  10.895  2.3016 -1.4702  0.3049
  157MOL0     H20678   1.259   2.625  10.919 -1.1514 -0.0725  0.9096
  157MOL0     H20679   1.303   2.625  11.081 -1.9507 -0.7508  1.4447
  157MOL0     H20680   1.128   2.417  11.099 -0.3314 -0.7961 -0.1517
  157MOL0     H20681   1.096   2.456  10.924  0.5528 -0.6268  0.7677
  157MOL0     H20682   1.069   2.650  11.166  0.6123  1.8466 -1.1156
  157MOL0     H20683   1.015   2.683  10.998  3.0678 -2.3130 -2.6672
  157MOL0     H20684   0.885   2.467  11.150  1.8810  0.8737  0.7764
  157MOL0     H20685   0.849   2.546  11.001  2.4017  1.9679 -0.9356
  157MOL0     H20686   0.693   2.408  11.233 -1.1804 -0.7511 -0.2540
  157MOL0     H20687   0.476   2.386  11.335  1.6369 -0.7977  0.8131
  157MOL0     H20688   0.036   2.667  11.407 -2.8659  0.2847  0.0364
  157MOL0     H20689  -0.172   2.607  11.523 -2.6924  2.0653  2.5940
  157MOL0     H20690  -0.214   2.634  11.965  0.3808  1.3093 -1.0800
  157MOL0     H20691  -0.152   2.467  11.924 -0.2686 -0.2337 -1.7339
  157MOL0     H20692  -0.407   2.434  11.876  0.5246 -0.2952 -0.0331
  157MOL0     H20693  -0.429   2.558  11.996 -0.4488 -1.0668  0.1560
  157MOL0     H20694  -0.248   2.431  12.146 -0.0345 -0.4458 -1.2556
  157MOL0     H20695  -0.282   2.299  12.028 -1.3037 -0.6296  0.3231
  157MOL0     H20696  -0.503   2.255  12.110 -0.3359  0.4360 -1.4815
  157MOL0     H20697  -0.381   2.267  12.236 -3.0504 -0.1775  1.7832
  157MOL0     H20698  -0.575   2.480  12.186 -0.3284 -0.2569  2.0749
  157MOL0     H20699  -0.446   2.461  12.318 -0.1715  1.8691  1.0446
  157MOL0     H20700  -0.551   2.287  12.404  0.8192  0.8112  0.1194
  157MOL0     H20701  -0.667   2.262  12.271 -3.2701 -1.4740  3.4757
  157MOL0     H20702  -0.676   2.513  12.436 -0.7623  0.3420 -0.2644
  157MOL0     H20703  -0.789   2.450  12.315  0.1305 -0.9578 -1.2228
  157MOL0     H20704  -0.865   2.269  12.453  0.6074  2.0328 -1.0496
  157MOL0     H20705  -0.871   2.410  12.557  1.6181  5.0016 -3.1649
  157MOL0     H20706   0.026   2.637  11.905  0.4574 -0.4370 -0.5861
  157MOL0     H20707   0.222   2.688  11.802  1.1792 -0.0914  0.0806
  157MOL0     H20708   0.454   2.810  11.373  1.1725  0.0015 -0.4300
  157MOL0     H20709   0.658   2.830  11.235 -1.6718 -0.6427 -2.0258
  157MOL0     H20710   1.472   1.784  10.856  0.9599  3.5665 -2.1115
  157MOL0     H20711   1.223   1.747  10.838 -2.9362  0.4166 -1.9166
  157MOL0     H20712   0.888   1.731  10.492  0.7744 -1.1485  0.7713
  157MOL0     H20713   0.656   1.689  10.400  1.7043  0.3969 -0.5062
  157MOL0     H20714   0.457   1.422  10.552  0.0514  3.3047 -0.5235
  157MOL0     H20715   0.470   1.284  10.444 -0.5976 -0.2905  0.2793
  157MOL0     H20716   0.317   1.538  10.395  0.5065 -0.4712  0.1376
  157MOL0     H20717   0.300   1.393  10.290 -0.1503 -0.2188  0.3613
  157MOL0     H20718   0.197   1.433  10.573  1.2611 -1.8606  1.5891
  157MOL0     H20719   0.235   1.274  10.521  2.0157  0.9094  1.7643
  157MOL0     H20720   0.052   1.330  10.327  0.5647  3.9262 -3.2216
  157MOL0     H20721   0.004   1.323  10.506 -2.4541 -0.5866 -2.2093
  157MOL0     H20722  -0.111   1.710  10.386  2.4613  1.1550 -3.9357
  157MOL0     H20723   0.698   1.279  10.472 -0.7629 -0.6738  0.1206
  157MOL0     H20724   0.923   1.314  10.579  1.5408  1.9076  0.9453
  158MOL0     O20725  10.652   7.362   8.242  0.2971 -0.4771  0.1815
  158MOL0     C20726  10.625   7.240   8.230  0.5728  0.4170  0.9675
  158MOL0     O20727  10.713   7.138   8.199  0.3893 -0.6293 -0.6179
  158MOL0     C20728  10.850   7.152   8.171  0.5433 -1.2003 -0.1568
  158MOL0     C20729  10.921   7.031   8.180 -0.2672  0.0685  0.2862
  158MOL0     C20730  11.062   7.026   8.152 -0.1555  0.1703 -0.1438
  158MOL0     C20731  11.126   7.143   8.135 -0.4191 -0.4698  0.4325
  158MOL0     O20732  11.264   7.166   8.114 -0.4632  0.1888 -0.0786
  158MOL0     C20733  11.343   7.071   8.185 -0.1447 -0.0046  0.3951
  158MOL0     C20734  11.478   7.137   8.224  0.7636  0.7078  0.1072
  158MOL0     C20735  11.588   7.040   8.262  0.0337 -1.0220  0.0892
  158MOL0     C20736  11.734   7.101   8.261 -0.6512  0.2365 -0.2334
  158MOL0     C20737  11.716   7.235   8.341  0.1155 -0.7876 -0.2714
  158MOL0     C20738  11.848   7.279   8.417  0.1923  0.3582 -0.1772
  158MOL0     C20739  11.962   7.289   8.321  0.0324 -0.3143  0.2993
  158MOL0     C20740  12.070   7.385   8.366  0.5412 -0.9351  1.4077
  158MOL0     N20741  12.106   7.369   8.501 -0.5943  0.6005 -0.0824
  158MOL0     C20742  12.062   7.445   8.606  0.3201  0.0516  0.0864
  158MOL0     C20743  12.138   7.410   8.712  0.9600  0.7371  0.7039
  158MOL0     C20744  12.120   7.463   8.848 -0.3614 -0.3940 -0.0567
  158MOL0     C20745  12.040   7.372   8.944  0.5311  0.8814 -0.0165
  158MOL0     C20746  12.087   7.230   8.976 -0.1148  0.0522 -0.2545
  158MOL0     C20747  12.236   7.236   9.017 -0.3240  0.4926 -0.0082
  158MOL0     O20748  12.272   7.103   9.058 -0.8077  0.0743  0.4542
  158MOL0     C20749  12.361   7.027   8.988  0.0275  0.4777 -0.8702
  158MOL0     C20750  12.460   6.956   9.056  0.0269  0.8880 -0.2421
  158MOL0     C20751  12.547   6.866   8.986  0.7099 -0.2484  0.4996
  158MOL0     C20752  12.543   6.866   8.846  0.1915 -0.2361 -0.9308
  158MOL0     C20753  12.637   6.778   8.777 -0.2994  0.1646 -0.1465
  158MOL0     O20754  12.748   6.727   8.845  0.3201 -0.9900  0.2107
  158MOL0     C20755  12.835   6.643   8.782  0.0332  0.1494  0.9812
  158MOL0     C20756  12.798   6.549   8.681 -0.1545  0.2508 -0.2289
  158MOL0     C20757  12.890   6.446   8.644 -0.8435 -0.9573  0.0900
  158MOL0     C20758  13.024   6.451   8.681 -0.4384  0.1729 -0.4373
  158MOL0     O20759  13.109   6.360   8.636  0.3623 -0.6836 -0.3905
  158MOL0     C20760  13.065   6.247   8.558 -0.3461 -0.5363 -0.6490
  158MOL0     C20761  13.170   6.157   8.506  0.1027 -0.6872 -0.2917
  158MOL0     C20762  13.293   6.233   8.453 -0.3629  0.4212 -0.1261
  158MOL0     C20763  13.398   6.143   8.386  0.2264 -0.2340  0.4233
  158MOL0     C20764  13.455   6.032   8.475 -0.0749  0.8439 -0.4160
  158MOL0     C20765  13.571   5.958   8.404  0.9210  1.6701  0.4005
  158MOL0     C20766  13.624   5.848   8.488  0.0634 -0.8852 -0.4365
  158MOL0     C20767  13.755   5.793   8.430  0.0562  0.0392 -1.1538
  158MOL0    Cl20768  13.741   5.705   8.279  0.1475  0.0890 -0.2097
  158MOL0     C20769  13.065   6.554   8.773 -0.0121  0.0132  0.3971
  158MOL0     C20770  12.966   6.641   8.823  0.5789 -0.6217  0.5459
  158MOL0     O20771  12.601   6.755   8.661  0.4076 -0.0448  0.4437
  158MOL0     C20772  12.444   6.946   8.778 -0.1044 -0.0471  0.2469
  158MOL0     C20773  12.360   7.026   8.848  0.5045  0.7832 -0.8018
  158MOL0     N20774  12.227   7.310   8.672  0.0053  0.7408  0.3272
  158MOL0     N20775  12.191   7.276   8.550 -1.1000  0.1844  0.6539
  158MOL0     C20776  11.058   7.268   8.123 -0.8490  0.3210  0.5344
  158MOL0     C20777  10.917   7.269   8.130  0.1364 -0.0214 -0.7237
  158MOL0     C20778  10.478   7.202   8.217 -0.6901  0.7647  0.1391
  158MOL0     C20779  10.414   7.073   8.231 -0.2062 -0.5071  0.6231
  158MOL0     C20780  10.281   7.049   8.202 -0.2410 -0.0130 -1.2134
  158MOL0     C20781  10.199   7.147   8.162 -0.0081 -0.5289  0.7204
  158MOL0     O20782  10.067   7.157   8.127 -0.6020 -0.3498  0.0351
  158MOL0     C20783  10.001   7.031   8.140 -0.6891  1.2162 -0.0113
  158MOL0     C20784   9.861   7.045   8.085 -0.0599 -0.8134  0.1422
  158MOL0     C20785   9.788   7.176   8.131  0.4449 -0.5462  0.3344
  158MOL0     C20786   9.677   7.219   8.032 -0.4056 -0.0857  0.1106
  158MOL0     C20787   9.558   7.130   8.029  0.7557  0.9339 -0.0012
  158MOL0     C20788   9.474   7.037   8.039 -0.5589 -0.9243 -0.6688
  158MOL0     C20789  10.252   7.274   8.155 -0.0227 -0.5588  0.1059
  158MOL0     C20790  10.389   7.306   8.176 -0.4702 -0.2638 -0.2925
  158MOL0     H20791  10.863   6.940   8.194  1.0431 -1.2130 -2.0079
  158MOL0     H20792  11.109   6.929   8.161 -2.2327 -0.8070  0.7916
  158MOL0     H20793  11.365   6.988   8.117  2.3794  1.0765 -0.2195
  158MOL0     H20794  11.289   7.041   8.275 -2.3902  1.3416 -0.4136
  158MOL0     H20795  11.461   7.213   8.300 -3.6117 -1.1184  1.2311
  158MOL0     H20796  11.510   7.191   8.134  0.2283  0.8822  0.0217
  158MOL0     H20797  11.594   6.959   8.188  0.4374 -0.8838 -0.0354
  158MOL0     H20798  11.562   7.003   8.361 -0.1680  0.5645  0.6444
  158MOL0     H20799  11.789   7.021   8.313 -1.2658 -1.9853 -2.7468
  158MOL0     H20800  11.777   7.106   8.161 -1.8722 -0.4885 -0.8294
  158MOL0     H20801  11.639   7.221   8.418 -0.1848  0.7493 -0.2682
  158MOL0     H20802  11.689   7.317   8.274  1.1444  1.8332  2.3039
  158MOL0     H20803  11.873   7.206   8.493 -0.7419 -1.1366 -1.2559
  158MOL0     H20804  11.821   7.374   8.465 -0.6535 -0.7406  1.5954
  158MOL0     H20805  12.011   7.191   8.312  0.0863 -0.2804  0.2233
  158MOL0     H20806  11.930   7.324   8.222  0.5558 -0.1715  0.1791
  158MOL0     H20807  12.025   7.484   8.360  2.0227 -0.2930  0.4283
  158MOL0     H20808  12.150   7.378   8.292 -0.4449  1.9630 -0.0645
  158MOL0     H20809  12.004   7.537   8.601 -0.0874 -0.2208 -0.2087
  158MOL0     H20810  12.069   7.560   8.838 -0.0114 -0.1628  0.3503
  158MOL0     H20811  12.206   7.509   8.898  0.4094  2.9142 -3.8754
  158MOL0     H20812  11.945   7.348   8.895  0.4193  0.4542  0.4029
  158MOL0     H20813  12.025   7.423   9.040  3.4402  0.9907  0.4562
  158MOL0     H20814  12.032   7.186   9.059  0.9213  0.5004  0.7030
  158MOL0     H20815  12.059   7.172   8.887  0.1403 -1.3152  0.5336
  158MOL0     H20816  12.244   7.309   9.097 -2.8488  1.1986 -0.3045
  158MOL0     H20817  12.291   7.272   8.929  0.1255 -2.4936 -1.0746
  158MOL0     H20818  12.476   6.964   9.163  0.6047 -1.2263 -0.1137
  158MOL0     H20819  12.609   6.804   9.050 -2.3672 -1.7509  2.2543
  158MOL0     H20820  12.698   6.535   8.640 -0.5828  3.5038 -0.5632
  158MOL0     H20821  12.854   6.369   8.577 -1.5791  0.5551 -1.3606
  158MOL0     H20822  13.007   6.286   8.474 -2.3049 -0.9334  0.4544
  158MOL0     H20823  12.999   6.180   8.614 -0.7612 -0.3984 -0.9699
  158MOL0     H20824  13.125   6.088   8.433  1.1420 -0.7392 -0.9055
  158MOL0     H20825  13.210   6.103   8.592 -0.2708 -0.6132 -0.0723
  158MOL0     H20826  13.339   6.288   8.536 -1.3046 -0.0956  0.7652
  158MOL0     H20827  13.258   6.301   8.375 -0.4136 -1.5562 -1.9197
  158MOL0     H20828  13.367   6.089   8.296  2.0788 -0.2382 -0.2551
  158MOL0     H20829  13.482   6.211   8.369 -0.7808  1.2902  1.3763
  158MOL0     H20830  13.376   5.959   8.495  0.9740 -0.3721 -0.6196
  158MOL0     H20831  13.487   6.078   8.569  0.1675 -0.5918  0.2382
  158MOL0     H20832  13.647   6.031   8.375  3.8944 -1.3335  0.0647
  158MOL0     H20833  13.538   5.916   8.309  1.0225  1.2018  0.5695
  158MOL0     H20834  13.643   5.886   8.589  1.6674 -0.3088 -0.9231
  158MOL0     H20835  13.543   5.776   8.499 -1.8301  0.7048 -2.9742
  158MOL0     H20836  13.793   5.720   8.502  0.8317  2.0119  0.5365
  158MOL0     H20837  13.833   5.867   8.414  0.1297  0.1503 -0.3512
  158MOL0     H20838  13.170   6.538   8.795  0.4086 -2.4480 -2.5970
  158MOL0     H20839  12.989   6.714   8.900 -0.2270  1.1851 -0.8496
  158MOL0     H20840  12.428   6.923   8.673 -0.8795 -2.1750  0.7808
  158MOL0     H20841  12.285   7.077   8.789  0.3873  0.7992 -0.6408
  158MOL0     H20842  11.100   7.368   8.112  2.4966 -1.1539 -1.7359
  158MOL0     H20843  10.863   7.363   8.123  1.8155  1.2820  2.0679
  158MOL0     H20844  10.466   6.980   8.251 -1.3544 -2.0609 -2.8669
  158MOL0     H20845  10.231   6.953   8.215 -1.9691  1.0043  0.1738
  158MOL0     H20846   9.985   6.993   8.241  2.2201 -1.7828 -0.5222
  158MOL0     H20847  10.055   6.955   8.083 -0.2275  0.2135  1.6931
  158MOL0     H20848   9.883   7.062   7.980  1.0892 -1.4010  0.2799
  158MOL0     H20849   9.793   6.960   8.093  3.4643 -3.8164  0.7009
  158MOL0     H20850   9.862   7.257   8.136 -2.3574  2.2265 -0.1009
  158MOL0     H20851   9.741   7.152   8.227  0.0019 -2.3693 -0.2876
  158MOL0     H20852   9.651   7.323   8.053 -1.3959  0.0787 -1.6683
  158MOL0     H20853   9.723   7.237   7.934  2.0430 -0.1758  1.1875
  158MOL0     H20854   9.394   6.966   8.045 -0.5765 -0.8734 -0.2692
  158MOL0     H20855  10.186   7.358   8.135  0.9482  0.5013  1.1641
  158MOL0     H20856  10.428   7.407   8.178  0.5355 -0.5948  2.9788
  159MOL0     O20857   0.581   3.048  10.933 -0.8883 -0.4928 -0.2909
  159MOL0     C20858   0.677   3.091  10.872 -0.3774 -0.2911 -0.8864
  159MOL0     O20859   0.714   3.220  10.870  0.0733  1.1889  0.4306
  159MOL0     C20860   0.623   3.318  10.910 -0.3069 -0.0990 -0.6553
  159MOL0     C20861   0.657   3.422  10.994 -0.5650 -1.3094 -0.4543
  159MOL0     C20862   0.564   3.524  11.023 -0.5377 -0.3974 -0.6623
  159MOL0     C20863   0.442   3.538  10.957 -0.0667  0.0353  0.3220
  159MOL0     O20864   0.342   3.637  10.976 -0.3473  0.0484 -0.3481
  159MOL0     C20865   0.379   3.752  11.059 -0.3921 -0.1006 -0.2805
  159MOL0     C20866   0.308   3.874  11.012  0.8608  0.0675 -0.3716
  159MOL0     C20867   0.151   3.855  11.003 -0.4704  0.3533 -0.2440
  159MOL0     C20868   0.086   3.991  10.985  0.1710 -0.0253 -0.0103
  159MOL0     C20869  -0.065   3.988  11.006 -0.8160  0.3574  0.0969
  159MOL0     C20870  -0.116   4.030  11.146 -0.0791 -0.5905  0.4409
  159MOL0     C20871  -0.265   4.009  11.171  0.0931  0.3550 -0.3483
  159MOL0     C20872  -0.295   3.850  11.182  0.0867  0.1151 -0.4910
  159MOL0     N20873  -0.437   3.809  11.167 -0.3237  0.0893  0.0634
  159MOL0     C20874  -0.511   3.807  11.042 -0.0716  0.1549  0.2457
  159MOL0     C20875  -0.641   3.796  11.086  0.1644 -0.3086  0.2412
  159MOL0     C20876  -0.765   3.800  11.007  0.8933 -0.7571  0.1681
  159MOL0     C20877  -0.860   3.923  11.026  0.3024 -0.1524  0.4593
  159MOL0     C20878  -0.796   4.061  11.044 -0.0607 -0.8858  0.3333
  159MOL0     C20879  -0.914   4.157  11.017  0.6266 -0.6823  0.2281
  159MOL0     O20880  -1.022   4.147  11.102  0.5520  0.2637 -0.3524
  159MOL0     C20881  -1.155   4.178  11.067 -0.2964  0.4880  0.0206
  159MOL0     C20882  -1.202   4.242  10.951  0.1912  0.0809  0.3686
  159MOL0     C20883  -1.334   4.293  10.945  0.0021  0.1773 -0.3562
  159MOL0     C20884  -1.421   4.285  11.051  0.4744 -0.6523  0.0038
  159MOL0     C20885  -1.552   4.351  11.050  0.4840  0.6492 -0.2007
  159MOL0     O20886  -1.586   4.427  10.940 -0.5051  0.0660  0.4590
  159MOL0     C20887  -1.704   4.502  10.943 -0.6835 -0.8168 -0.4910
  159MOL0     C20888  -1.834   4.447  10.954 -0.1296  0.8020  0.7710
  159MOL0     C20889  -1.943   4.531  10.954 -0.7488 -0.1767 -0.4481
  159MOL0     C20890  -1.939   4.670  10.948 -0.2745  0.6535 -0.5521
  159MOL0     O20891  -2.055   4.736  10.930  0.1319 -0.1059  0.2065
  159MOL0     C20892  -2.048   4.882  10.929 -0.3386 -0.6087 -0.0873
  159MOL0     C20893  -2.189   4.939  10.956  0.2987 -0.2154  0.1282
  159MOL0     C20894  -2.295   4.907  10.852  0.2843 -0.6497  0.3108
  159MOL0     C20895  -2.420   5.003  10.859 -0.7602  0.2425 -0.1459
  159MOL0     C20896  -2.487   5.012  10.714 -0.6844  0.5265 -0.1264
  159MOL0     C20897  -2.413   5.106  10.614  0.9976  0.4160 -0.5927
  159MOL0     C20898  -2.467   5.094  10.462 -0.2708 -0.0760  0.8312
  159MOL0     C20899  -2.602   5.176  10.461 -0.1128  0.4050  0.3203
  159MOL0    Cl20900  -2.736   5.082  10.517 -0.3514  0.2936 -0.0115
  159MOL0     C20901  -1.807   4.717  10.938  0.4965 -1.2523  0.3447
  159MOL0     C20902  -1.691   4.634  10.928 -0.1801 -0.3054 -0.0880
  159MOL0     O20903  -1.632   4.326  11.141 -0.7078 -0.6590  0.1526
  159MOL0     C20904  -1.378   4.223  11.166 -0.0677  0.4445  0.1533
  159MOL0     C20905  -1.240   4.168  11.178 -0.2898  0.0816  0.9643
  159MOL0     N20906  -0.639   3.786  11.221  1.0826 -0.1562  0.3874
  159MOL0     N20907  -0.522   3.795  11.262  0.1057 -0.7004 -0.5239
  159MOL0     C20908   0.409   3.442  10.861  0.6789  0.6715 -1.1132
  159MOL0     C20909   0.500   3.338  10.837  0.1855  0.2729  0.6425
  159MOL0     C20910   0.760   2.998  10.788  0.1278  0.4550  0.1773
  159MOL0     C20911   0.869   3.046  10.719  0.0719  0.5938  0.4206
  159MOL0     C20912   0.955   2.945  10.653 -0.5939 -0.1920 -0.6198
  159MOL0     C20913   0.924   2.810  10.650 -0.9305 -0.3500 -0.0762
  159MOL0     O20914   1.014   2.722  10.586  0.4197  0.1015  0.0233
  159MOL0     C20915   1.006   2.579  10.622  0.5804  0.2497 -0.3630
  159MOL0     C20916   1.124   2.495  10.575 -0.7153 -0.4775 -0.1671
  159MOL0     C20917   1.151   2.498  10.423  0.2352 -1.3943 -0.2182
  159MOL0     C20918   1.052   2.422  10.336  0.3360 -0.7380  0.1257
  159MOL0     C20919   1.114   2.388  10.209  0.4927 -0.7304  0.3194
  159MOL0     C20920   1.169   2.389  10.098 -0.4114  0.5584 -0.4879
  159MOL0     C20921   0.811   2.770  10.719  0.5514  0.5568 -0.4726
  159MOL0     C20922   0.736   2.862  10.796 -0.3768  0.2407 -0.0969
  159MOL0     H20923   0.743   3.422  11.060  0.8241 -3.1722 -2.1183
  159MOL0     H20924   0.581   3.584  11.112  4.7182 -0.3002 -1.4048
  159MOL0     H20925   0.486   3.774  11.046 -0.5520 -0.1316 -1.7807
  159MOL0     H20926   0.351   3.747  11.164 -2.7510  0.5349 -0.8241
  159MOL0     H20927   0.336   3.891  10.907  1.0281 -0.2574 -0.3792
  159MOL0     H20928   0.326   3.960  11.077 -4.3125  1.8728 -0.8391
  159MOL0     H20929   0.115   3.798  11.089 -0.0907  0.2591 -0.1446
  159MOL0     H20930   0.124   3.783  10.924 -0.8938  0.7810 -0.4939
  159MOL0     H20931   0.134   4.061  11.055  2.2064 -1.4319  0.1124
  159MOL0     H20932   0.103   4.031  10.885 -1.8782 -2.6467 -1.5462
  159MOL0     H20933  -0.102   3.887  10.987 -0.8770 -0.7831  4.9794
  159MOL0     H20934  -0.118   4.055  10.938 -0.6271  2.1322  1.6080
  159MOL0     H20935  -0.093   4.136  11.161 -0.3699 -0.5999  0.9853
  159MOL0     H20936  -0.067   3.973  11.225  3.9798 -0.2019 -1.5646
  159MOL0     H20937  -0.296   4.073  11.255 -1.8736  3.0642 -2.9380
  159MOL0     H20938  -0.318   4.051  11.085 -1.8107 -3.1304 -1.0728
  159MOL0     H20939  -0.260   3.818  11.281 -1.6733 -2.1331 -0.5166
  159MOL0     H20940  -0.241   3.798  11.103  1.0626 -1.3004  1.0345
  159MOL0     H20941  -0.477   3.822  10.940  0.7136 -0.6874  0.3654
  159MOL0     H20942  -0.836   3.716  11.006 -2.0874  1.5677  1.1713
  159MOL0     H20943  -0.732   3.805  10.902  2.7906  0.6694  0.7950
  159MOL0     H20944  -0.901   3.900  11.124  0.4530  2.0796  1.1005
  159MOL0     H20945  -0.933   3.911  10.944  1.8509 -0.5675 -0.9136
  159MOL0     H20946  -0.756   4.083  11.144 -1.4448 -2.2459  1.2366
  159MOL0     H20947  -0.714   4.065  10.972  1.3037 -0.4853  1.8470
  159MOL0     H20948  -0.939   4.134  10.913  1.4141 -2.7484  0.4527
  159MOL0     H20949  -0.871   4.257  11.035  2.9067 -0.9837 -2.7995
  159MOL0     H20950  -1.128   4.255  10.873  1.0584  0.9522  1.3211
  159MOL0     H20951  -1.362   4.348  10.856  1.3547 -2.3390 -2.4551
  159MOL0     H20952  -1.850   4.340  10.956 -0.7228  0.8901  2.0197
  159MOL0     H20953  -2.038   4.480  10.968  0.9211 -3.1338  1.1512
  159MOL0     H20954  -1.999   4.920  10.839  0.7253 -0.0047  0.7239
  159MOL0     H20955  -1.987   4.919  11.011 -0.0056  1.7560 -1.3307
  159MOL0     H20956  -2.184   5.047  10.971 -1.3959 -0.4356  2.9222
  159MOL0     H20957  -2.232   4.909  11.052  0.5888 -0.3386  0.2219
  159MOL0     H20958  -2.325   4.802  10.859 -0.5196 -0.4425  0.1758
  159MOL0     H20959  -2.239   4.934  10.762  1.7412  1.3651  1.7423
  159MOL0     H20960  -2.494   4.968  10.932 -0.5385 -0.6249 -0.3143
  159MOL0     H20961  -2.388   5.104  10.886  3.4916 -0.7781 -0.6412
  159MOL0     H20962  -2.587   5.050  10.736 -0.5234  1.1820 -0.5342
  159MOL0     H20963  -2.500   4.910  10.677 -1.7632  0.0964  1.3435
  159MOL0     H20964  -2.311   5.068  10.607  0.3505 -1.1663 -2.0210
  159MOL0     H20965  -2.419   5.211  10.645 -0.9620  0.7714 -1.9732
  159MOL0     H20966  -2.390   5.139  10.399 -2.0329 -2.3018 -3.2630
  159MOL0     H20967  -2.489   4.996  10.420  1.7612  0.2633 -1.2029
  159MOL0     H20968  -2.622   5.207  10.358 -0.5549  1.1931  0.6338
  159MOL0     H20969  -2.610   5.264  10.526  1.2438  0.2575  0.7207
  159MOL0     H20970  -1.788   4.822  10.920  1.8480 -1.5066  0.2147
  159MOL0     H20971  -1.593   4.676  10.910  0.5676 -1.4394  1.1527
  159MOL0     H20972  -1.440   4.223  11.255  2.1333  0.3865  1.7453
  159MOL0     H20973  -1.192   4.139  11.271  1.7121 -1.5497 -0.4828
  159MOL0     H20974   0.317   3.446  10.804  1.4060 -2.6249 -2.7260
  159MOL0     H20975   0.479   3.263  10.761  2.4545  0.5449 -0.3394
  159MOL0     H20976   0.896   3.151  10.713  2.3612  0.0579  0.2891
  159MOL0     H20977   1.048   2.985  10.615 -0.0529 -0.3791  0.4751
  159MOL0     H20978   0.914   2.532  10.584  1.0475 -0.8765 -0.1236
  159MOL0     H20979   1.011   2.572  10.731 -1.0907  0.4844 -0.2381
  159MOL0     H20980   1.218   2.516  10.627  0.9723 -0.4934 -3.0197
  159MOL0     H20981   1.098   2.391  10.596 -0.5187 -0.4437  0.2640
  159MOL0     H20982   1.251   2.461  10.400  0.4556 -0.2716 -1.1743
  159MOL0     H20983   1.153   2.599  10.382  1.3581 -1.3453 -0.0549
  159MOL0     H20984   1.014   2.330  10.382 -0.9857 -0.0733  0.4127
  159MOL0     H20985   0.960   2.469  10.303 -0.3417 -2.1903 -0.1448
  159MOL0     H20986   1.225   2.379  10.007 -0.6118 -0.4884 -0.5089
  159MOL0     H20987   0.778   2.667  10.719  0.7733  0.4824  0.2558
  159MOL0     H20988   0.663   2.819  10.864 -2.5553  0.7534 -2.0044
  160MOL0     O20989   9.586   4.339   0.949  0.2905 -0.8465 -0.4362
  160MOL0     C20990   9.587   4.372   1.068 -0.3264 -0.6151  0.7975
  160MOL0     O20991   9.481   4.370   1.155  0.1396 -0.3699  0.8437
  160MOL0     C20992   9.355   4.326   1.122  0.0573 -0.6533  0.1724
  160MOL0     C20993   9.302   4.329   0.992 -0.7031 -0.2851  0.0309
  160MOL0     C20994   9.171   4.285   0.963 -0.2524  0.6373  0.4242
  160MOL0     C20995   9.089   4.231   1.066  0.1157  0.7620 -0.0662
  160MOL0     O20996   8.954   4.191   1.062 -0.4642 -0.2346 -0.3456
  160MOL0     C20997   8.880   4.209   0.939  0.4978 -0.0689 -0.4869
  160MOL0     C20998   8.761   4.110   0.942  0.5789  0.5683 -0.2373
  160MOL0     C20999   8.639   4.155   1.039 -0.0787  0.1213  0.4897
  160MOL0     C21000   8.506   4.078   1.016  0.7270 -0.3898  0.8869
  160MOL0     C21001   8.394   4.122   1.112 -0.5837  0.1809  0.1700
  160MOL0     C21002   8.271   4.016   1.101 -0.7193 -0.0358  0.0116
  160MOL0     C21003   8.162   4.038   1.211 -0.7684  0.8386 -0.5922
  160MOL0     C21004   8.068   4.143   1.160 -0.3574  0.0634  0.6639
  160MOL0     N21005   7.950   4.151   1.247  0.1432 -0.0271  0.3796
  160MOL0     C21006   7.927   4.222   1.363  0.1784 -0.7714 -0.4926
  160MOL0     C21007   7.816   4.172   1.417 -0.0785 -0.8263  0.1969
  160MOL0     C21008   7.750   4.243   1.537 -0.1022  0.2368 -0.1011
  160MOL0     C21009   7.636   4.336   1.487 -0.0482  0.3091  1.1498
  160MOL0     C21010   7.553   4.390   1.605  0.4528 -0.5416  0.2621
  160MOL0     C21011   7.604   4.519   1.677  0.2754  0.1008 -0.3440
  160MOL0     O21012   7.497   4.572   1.752  0.2757  0.8355  0.4397
  160MOL0     C21013   7.399   4.643   1.688 -0.6787 -0.1280  0.0922
  160MOL0     C21014   7.276   4.658   1.748  0.0051  0.5926 -0.5420
  160MOL0     C21015   7.157   4.708   1.685 -1.0022 -0.4871  0.4233
  160MOL0     C21016   7.177   4.741   1.543 -0.8266  0.3032 -0.4207
  160MOL0     C21017   7.067   4.812   1.476 -0.0606 -0.4598 -1.2834
  160MOL0     O21018   6.951   4.844   1.545 -0.2216 -0.0643  0.0294
  160MOL0     C21019   6.834   4.887   1.484  0.9111 -0.2327  0.4437
  160MOL0     C21020   6.743   4.951   1.577 -0.3326 -0.4166  0.1449
  160MOL0     C21021   6.617   4.985   1.544  0.1714  0.2206  0.6756
  160MOL0     C21022   6.565   4.951   1.420 -0.6557 -0.6173  0.4266
  160MOL0     O21023   6.430   4.983   1.410 -0.2418 -0.5597 -0.1660
  160MOL0     C21024   6.360   4.906   1.313  0.3807 -0.5789  0.2663
  160MOL0     C21025   6.216   4.934   1.339  0.9013  0.2063  0.2152
  160MOL0     C21026   6.169   4.885   1.478 -0.2203 -0.0562  0.9106
  160MOL0     C21027   6.024   4.925   1.516  0.1492 -0.0990 -0.1789
  160MOL0     C21028   5.913   4.870   1.426  0.6900 -0.4574  0.0932
  160MOL0     C21029   5.775   4.889   1.498 -0.5321 -0.4735  0.1632
  160MOL0     C21030   5.669   4.842   1.402  0.7035 -0.0217 -0.2053
  160MOL0     C21031   5.533   4.870   1.460  0.0097  0.3992 -0.3509
  160MOL0    Cl21032   5.498   4.741   1.581 -0.3286 -0.1512  0.4345
  160MOL0     C21033   6.649   4.891   1.325  0.2990  0.3861  0.7497
  160MOL0     C21034   6.784   4.851   1.360  0.1093 -0.2855 -0.6041
  160MOL0     O21035   7.099   4.858   1.370  0.3197  0.4546  0.8471
  160MOL0     C21036   7.299   4.716   1.478  0.7492  0.1662  0.9749
  160MOL0     C21037   7.407   4.670   1.547 -0.3769 -0.7789  0.1111
  160MOL0     N21038   7.776   4.062   1.346 -1.0398 -0.5446  0.1135
  160MOL0     N21039   7.860   4.054   1.244  0.0226 -0.7658 -0.0683
  160MOL0     C21040   9.152   4.226   1.196 -0.5746  0.4667  0.8153
  160MOL0     C21041   9.279   4.278   1.219  0.4337  0.9452  1.3468
  160MOL0     C21042   9.714   4.409   1.120 -0.2584 -0.2918 -0.6356
  160MOL0     C21043   9.802   4.484   1.044  0.3759 -0.5566  0.4184
  160MOL0     C21044   9.926   4.522   1.096 -0.0302 -0.5874  0.7932
  160MOL0     C21045   9.965   4.474   1.227  0.8626  0.3725 -0.1232
  160MOL0     O21046  10.076   4.528   1.292 -0.7564  0.7298  0.2852
  160MOL0     C21047  10.168   4.611   1.219  0.7631 -0.6239 -0.2042
  160MOL0     C21048  10.256   4.531   1.128  0.9684  0.2826  0.3980
  160MOL0     C21049  10.320   4.409   1.193 -0.4237  0.6528  0.4680
  160MOL0     C21050  10.474   4.395   1.161 -0.6476  0.5524  0.5150
  160MOL0     C21051  10.555   4.498   1.224 -0.2447  0.1854  0.5116
  160MOL0     C21052  10.625   4.582   1.272  1.1404  0.2670 -0.8641
  160MOL0     C21053   9.876   4.393   1.296  0.4415  0.6154 -0.2775
  160MOL0     C21054   9.748   4.361   1.247  0.0552  0.0550 -0.0931
  160MOL0     H21055   9.356   4.360   0.903  2.4823 -1.2753  1.4664
  160MOL0     H21056   9.124   4.307   0.867 -0.4732 -4.7654 -0.9864
  160MOL0     H21057   8.948   4.184   0.857  3.5480 -0.3445  1.9032
  160MOL0     H21058   8.847   4.314   0.937  1.2393  0.3445  2.8465
  160MOL0     H21059   8.803   4.014   0.975 -0.2292  0.4222  0.4061
  160MOL0     H21060   8.724   4.099   0.840  1.9221  2.1093 -0.9380
  160MOL0     H21061   8.632   4.262   1.023 -0.6070  0.2877  1.6946
  160MOL0     H21062   8.669   4.141   1.144 -1.8886  0.5191  1.1023
  160MOL0     H21063   8.464   4.094   0.916  0.0752 -3.5901  0.5337
  160MOL0     H21064   8.534   3.973   1.026  2.1405 -0.0003  1.1604
  160MOL0     H21065   8.355   4.222   1.092  0.6257  0.8856  1.1377
  160MOL0     H21066   8.435   4.133   1.213 -2.5474  2.1549  0.8284
  160MOL0     H21067   8.315   3.915   1.103 -0.0227  0.1324 -2.5877
  160MOL0     H21068   8.225   4.015   1.001  0.7663  2.2507 -0.7629
  160MOL0     H21069   8.108   3.945   1.231 -1.3287  0.8848 -1.7472
  160MOL0     H21070   8.206   4.080   1.301  0.2275  2.9271 -1.9551
  160MOL0     H21071   8.046   4.119   1.056  2.5472  3.6097 -0.9890
  160MOL0     H21072   8.113   4.242   1.150  2.9947 -1.4559 -0.9273
  160MOL0     H21073   7.983   4.310   1.393 -0.1231 -0.4099 -0.9677
  160MOL0     H21074   7.827   4.294   1.596  1.7204 -1.7005 -0.6583
  160MOL0     H21075   7.710   4.163   1.600  2.4474  0.1318  1.5172
  160MOL0     H21076   7.585   4.275   1.412 -3.3881  3.5007  0.5735
  160MOL0     H21077   7.689   4.417   1.436 -0.6992 -0.0453 -0.1216
  160MOL0     H21078   7.459   4.415   1.556  0.5631 -0.4717  0.0855
  160MOL0     H21079   7.539   4.318   1.686  1.5997 -2.2423 -0.9778
  160MOL0     H21080   7.645   4.596   1.611  2.3816  1.0381  1.9032
  160MOL0     H21081   7.692   4.483   1.731 -1.4537 -1.9157  1.3332
  160MOL0     H21082   7.260   4.645   1.855  0.0979 -0.8637 -0.6750
  160MOL0     H21083   7.061   4.725   1.731 -0.6923  0.5757  0.7036
  160MOL0     H21084   6.787   4.970   1.675  0.4718 -0.5732 -0.1777
  160MOL0     H21085   6.555   5.028   1.622 -0.7534  0.3620 -0.1084
  160MOL0     H21086   6.389   4.801   1.329 -1.6931 -1.1116  0.7906
  160MOL0     H21087   6.380   4.944   1.213 -1.3814  4.3202  1.5299
  160MOL0     H21088   6.147   4.884   1.270 -1.9266  0.5411  2.6125
  160MOL0     H21089   6.211   5.043   1.340 -4.9712  0.3047 -2.0330
  160MOL0     H21090   6.233   4.918   1.560 -0.1479 -0.6504  1.0919
  160MOL0     H21091   6.181   4.777   1.472  0.4456  0.0708 -0.2184
  160MOL0     H21092   5.998   4.895   1.618  2.5625  2.7292  1.4142
  160MOL0     H21093   6.035   5.033   1.503  2.8342 -0.5924 -3.2730
  160MOL0     H21094   5.920   4.768   1.387  0.1969 -0.9923  1.3633
  160MOL0     H21095   5.904   4.938   1.341 -1.3311  0.7105  1.1829
  160MOL0     H21096   5.760   4.994   1.523  0.5858 -0.5319  1.1698
  160MOL0     H21097   5.771   4.837   1.594 -1.2159  1.8028  1.4391
  160MOL0     H21098   5.668   4.899   1.309  0.9135 -1.1365 -0.9173
  160MOL0     H21099   5.682   4.735   1.381  2.2348  0.2030 -0.5114
  160MOL0     H21100   5.446   4.864   1.394  0.4908 -2.2335 -0.8372
  160MOL0     H21101   5.529   4.969   1.507  0.4600 -0.3778  1.4111
  160MOL0     H21102   6.621   4.864   1.224 -0.2445 -0.4895  1.1168
  160MOL0     H21103   6.852   4.782   1.311  0.9120 -1.6221  2.1290
  160MOL0     H21104   7.311   4.725   1.371 -1.4591 -2.2007  0.4124
  160MOL0     H21105   7.494   4.654   1.483  0.2262 -0.9054  0.9478
  160MOL0     H21106   9.097   4.186   1.280 -0.8850  1.1885  0.9673
  160MOL0     H21107   9.317   4.271   1.320  1.4442 -0.5611  0.8950
  160MOL0     H21108   9.774   4.525   0.947 -0.5618 -2.7213 -0.3028
  160MOL0     H21109   9.982   4.591   1.034 -0.4300  1.0931  2.2347
  160MOL0     H21110  10.220   4.661   1.301  1.2179 -0.7554 -0.4082
  160MOL0     H21111  10.123   4.689   1.157 -0.3479 -0.7146  0.4555
  160MOL0     H21112  10.187   4.493   1.052 -0.2328  0.1040  1.5441
  160MOL0     H21113  10.331   4.591   1.075 -0.9395  2.4715  0.0176
  160MOL0     H21114  10.276   4.317   1.154  0.7130  0.7572 -1.1839
  160MOL0     H21115  10.311   4.403   1.301  1.7334  0.8493  0.7059
  160MOL0     H21116  10.514   4.297   1.189 -1.0174  1.3763  4.5302
  160MOL0     H21117  10.483   4.406   1.052 -0.4024 -1.9267  0.2288
  160MOL0     H21118  10.688   4.659   1.312  2.1105 -0.3352 -1.2058
  160MOL0     H21119   9.901   4.344   1.390 -2.2119 -0.2777  0.0500
  160MOL0     H21120   9.684   4.295   1.304  1.5040 -1.0971  0.2674
  161MOL0     O21121   4.257   4.932   0.326  0.0333  0.3905 -0.2896
  161MOL0     C21122   4.324   4.859   0.404  0.0170 -0.8163 -0.0577
  161MOL0     O21123   4.274   4.771   0.493 -0.0976 -0.8255  0.5758
  161MOL0     C21124   4.140   4.786   0.519  0.3607 -0.0657  0.2936
  161MOL0     C21125   4.042   4.749   0.418  0.7039  0.1710  0.4972
  161MOL0     C21126   3.907   4.775   0.442 -0.0558 -0.4017 -0.5929
  161MOL0     C21127   3.874   4.838   0.561  0.4830 -0.3882 -0.2344
  161MOL0     O21128   3.743   4.865   0.600 -0.4804  0.3377  0.0218
  161MOL0     C21129   3.646   4.752   0.603 -0.6578 -0.3571  0.5333
  161MOL0     C21130   3.507   4.816   0.592 -0.0082  0.3527 -0.4985
  161MOL0     C21131   3.395   4.717   0.612  1.3334  0.1309  0.5774
  161MOL0     C21132   3.265   4.784   0.574  0.3299 -1.3957 -0.8062
  161MOL0     C21133   3.152   4.708   0.637  0.6634  0.4227 -0.5131
  161MOL0     C21134   3.018   4.778   0.607 -0.2591 -0.3576 -0.0721
  161MOL0     C21135   2.903   4.695   0.663 -0.6262  1.0284  0.8220
  161MOL0     C21136   2.782   4.787   0.692 -0.2632  0.8177  0.6974
  161MOL0     N21137   2.666   4.683   0.719 -0.7243  0.2543  0.0135
  161MOL0     C21138   2.561   4.653   0.640  0.0785  0.5323 -0.1371
  161MOL0     C21139   2.503   4.545   0.697  0.0527 -0.1808  0.2503
  161MOL0     C21140   2.387   4.470   0.644  0.0766  0.7989  0.4699
  161MOL0     C21141   2.419   4.388   0.519  0.0454  0.1409  0.7505
  161MOL0     C21142   2.514   4.269   0.549 -0.2311  0.3694 -0.0445
  161MOL0     C21143   2.542   4.175   0.428  0.2359 -0.3051 -0.3491
  161MOL0     O21144   2.580   4.248   0.309 -0.0033  0.3611  0.5522
  161MOL0     C21145   2.713   4.249   0.275  0.6000 -0.7254 -0.5200
  161MOL0     C21146   2.816   4.273   0.366  0.2834  0.2214  0.2430
  161MOL0     C21147   2.950   4.240   0.336 -0.0677 -0.7282 -0.4689
  161MOL0     C21148   2.981   4.189   0.210 -0.1128  0.3190  0.2567
  161MOL0     C21149   3.116   4.134   0.171  0.3963  0.6665  0.3412
  161MOL0     O21150   3.143   4.144   0.034  0.1551  0.2984 -0.3589
  161MOL0     C21151   3.273   4.133  -0.018  0.7070  0.0043  0.7652
  161MOL0     C21152   3.285   4.060  -0.131  0.1280 -0.3694  0.3107
  161MOL0     C21153   3.411   4.055  -0.189  0.2172 -0.0120 -0.1687
  161MOL0     C21154   3.526   4.093  -0.118 -0.8013 -0.3905  0.1202
  161MOL0     O21155   3.653   4.072  -0.162  0.1128 -0.0069 -0.0710
  161MOL0     C21156   3.670   3.993  -0.290  0.4029 -0.1209 -0.0773
  161MOL0     C21157   3.819   3.948  -0.308  0.8051 -0.2941 -0.0538
  161MOL0     C21158   3.850   3.865  -0.431 -0.0454  0.0570 -0.1665
  161MOL0     C21159   3.774   3.727  -0.427 -0.0550  0.1485  0.1132
  161MOL0     C21160   3.836   3.638  -0.536 -0.5562  0.1840  0.4000
  161MOL0     C21161   3.740   3.542  -0.590 -0.2142  0.0917 -0.3438
  161MOL0     C21162   3.784   3.443  -0.695  0.4669 -0.3928 -1.0127
  161MOL0     C21163   3.674   3.352  -0.752 -0.7042 -0.7837 -0.6887
  161MOL0    Cl21164   3.539   3.465  -0.813 -0.1931  0.4455 -0.0135
  161MOL0     C21165   3.507   4.168   0.003 -0.2100 -0.3897 -0.2862
  161MOL0     C21166   3.383   4.191   0.044  0.8569 -0.1737  1.0300
  161MOL0     O21167   3.188   4.106   0.263 -0.3988 -0.1076 -0.0898
  161MOL0     C21168   2.874   4.158   0.127  0.7436 -0.0169 -0.6508
  161MOL0     C21169   2.741   4.195   0.158  0.1563 -0.6076 -0.2774
  161MOL0     N21170   2.582   4.508   0.811 -1.1010  0.6868  0.1247
  161MOL0     N21171   2.680   4.588   0.821 -0.1974 -0.0267 -0.3151
  161MOL0     C21172   3.974   4.885   0.651  0.0180  0.1607 -0.2062
  161MOL0     C21173   4.104   4.856   0.630 -0.4755 -0.0515  1.2940
  161MOL0     C21174   4.464   4.864   0.390 -0.6189 -0.1798 -0.0743
  161MOL0     C21175   4.535   4.913   0.280  1.2258 -0.1819  0.5065
  161MOL0     C21176   4.669   4.899   0.267  0.3660  0.1977 -0.8964
  161MOL0     C21177   4.751   4.848   0.372  0.4017  0.4012  0.0803
  161MOL0     O21178   4.885   4.830   0.375 -0.0090 -0.3307 -0.6292
  161MOL0     C21179   4.959   4.864   0.259 -0.3675 -0.0382  0.5419
  161MOL0     C21180   5.109   4.907   0.304 -1.4310 -0.1997  0.2723
  161MOL0     C21181   5.207   4.789   0.304 -0.3977  0.0269 -0.3921
  161MOL0     C21182   5.163   4.678   0.408  0.4703 -1.1108  0.4130
  161MOL0     C21183   5.277   4.591   0.439  0.3723  1.3144 -0.1671
  161MOL0     C21184   5.379   4.525   0.455 -0.0886 -0.6402 -0.1792
  161MOL0     C21185   4.688   4.800   0.489  0.0258  0.3239 -0.1355
  161MOL0     C21186   4.548   4.805   0.490  0.3280 -0.5955  0.2423
  161MOL0     H21187   4.073   4.710   0.321  0.6227  0.3028  0.4185
  161MOL0     H21188   3.823   4.758   0.375 -1.1085  1.0390  0.2910
  161MOL0     H21189   3.658   4.699   0.697 -0.4116 -2.2440 -0.5120
  161MOL0     H21190   3.665   4.682   0.521  0.2249  0.4576  0.0255
  161MOL0     H21191   3.504   4.869   0.496 -1.5365  0.0744 -0.6417
  161MOL0     H21192   3.510   4.882   0.679  0.5922  1.1576 -1.1160
  161MOL0     H21193   3.394   4.675   0.713 -1.9714  2.4981  1.6876
  161MOL0     H21194   3.392   4.628   0.548  0.8730 -0.0277  0.8173
  161MOL0     H21195   3.258   4.882   0.622  0.7993 -1.5353 -0.4435
  161MOL0     H21196   3.262   4.802   0.466 -1.5168 -1.6737 -0.8319
  161MOL0     H21197   3.152   4.708   0.747 -1.9215  3.0514 -0.3808
  161MOL0     H21198   3.148   4.605   0.601 -1.7217  0.1584  0.3418
  161MOL0     H21199   3.016   4.793   0.498 -0.7998  0.6257  0.0639
  161MOL0     H21200   3.005   4.872   0.662  1.3616 -0.6706  0.8833
  161MOL0     H21201   2.879   4.627   0.580  1.0542  1.8855 -0.4479
  161MOL0     H21202   2.925   4.642   0.756  0.7797  1.4788  0.7731
  161MOL0     H21203   2.762   4.836   0.596  3.9439 -0.5846 -1.1134
  161MOL0     H21204   2.807   4.859   0.770  1.6205 -0.9089  1.7837
  161MOL0     H21205   2.523   4.690   0.546 -0.0428  2.3233  0.5762
  161MOL0     H21206   2.316   4.548   0.616 -1.6439 -0.7281  0.3495
  161MOL0     H21207   2.334   4.413   0.721  1.6203  0.1552  1.0987
  161MOL0     H21208   2.464   4.447   0.439 -1.9657 -2.7907 -2.8752
  161MOL0     H21209   2.328   4.352   0.469 -0.0627 -0.6522  1.5069
  161MOL0     H21210   2.603   4.311   0.599  2.0536 -0.0360 -3.4254
  161MOL0     H21211   2.463   4.213   0.628 -2.6347  1.5670 -0.6560
  161MOL0     H21212   2.443   4.132   0.408  1.5505 -3.3578 -0.7566
  161MOL0     H21213   2.614   4.096   0.450 -1.7379 -2.1319 -0.0807
  161MOL0     H21214   2.803   4.316   0.465 -1.7039 -1.4180  0.7610
  161MOL0     H21215   3.028   4.253   0.411 -2.0921  0.1156  1.6066
  161MOL0     H21216   3.186   4.031  -0.165  0.1673 -1.4602  1.0892
  161MOL0     H21217   3.430   4.021  -0.291  0.1762 -2.0921  0.4658
  161MOL0     H21218   3.640   4.052  -0.377 -3.2810  1.4584  1.9936
  161MOL0     H21219   3.607   3.906  -0.273  2.3923 -1.5629  0.1951
  161MOL0     H21220   3.856   3.899  -0.218  0.6785 -0.1239  0.0927
  161MOL0     H21221   3.879   4.039  -0.314 -0.3501  0.5354  0.5287
  161MOL0     H21222   3.955   3.837  -0.433 -0.5375 -1.8900 -0.5826
  161MOL0     H21223   3.833   3.917  -0.526  1.3396 -4.3021 -3.1133
  161MOL0     H21224   3.802   3.671  -0.338 -0.7620 -0.3738  0.0155
  161MOL0     H21225   3.667   3.744  -0.437  0.0508 -0.3161 -3.2766
  161MOL0     H21226   3.927   3.591  -0.498 -0.1513  1.5455  1.1575
  161MOL0     H21227   3.875   3.703  -0.615  0.6025 -0.5106  0.3748
  161MOL0     H21228   3.656   3.599  -0.631 -1.7140 -1.1379  0.9018
  161MOL0     H21229   3.695   3.484  -0.509  0.1120  0.3367  0.0175
  161MOL0     H21230   3.820   3.511  -0.773  0.7739 -0.5368 -0.9979
  161MOL0     H21231   3.871   3.387  -0.660  0.3571  1.2930  2.4198
  161MOL0     H21232   3.634   3.279  -0.680  0.4700 -0.1097  0.7047
  161MOL0     H21233   3.714   3.294  -0.836 -1.1643 -1.3949 -0.4973
  161MOL0     H21234   3.586   4.212   0.063 -1.2759 -1.1990  1.7967
  161MOL0     H21235   3.377   4.255   0.132 -2.9953  0.3064  0.5695
  161MOL0     H21236   2.890   4.099   0.037 -1.8260 -2.1684  0.1281
  161MOL0     H21237   2.662   4.173   0.087 -0.5854 -0.8869  0.6043
  161MOL0     H21238   3.938   4.946   0.733  0.8594 -1.2672  1.2791
  161MOL0     H21239   4.183   4.875   0.702 -1.0950 -0.5569  2.1222
  161MOL0     H21240   4.482   4.966   0.202  2.1838 -0.3918 -0.2947
  161MOL0     H21241   4.712   4.930   0.172  0.1368 -4.2454 -2.7100
  161MOL0     H21242   4.912   4.952   0.212  1.6742 -1.1501 -4.1040
  161MOL0     H21243   4.958   4.785   0.184  0.3674  0.0584  0.4286
  161MOL0     H21244   5.153   4.978   0.234 -1.6261 -0.1408  0.2090
  161MOL0     H21245   5.114   4.949   0.405  0.5750  2.2842 -0.7428
  161MOL0     H21246   5.306   4.826   0.334 -0.3778  1.3361 -1.9440
  161MOL0     H21247   5.210   4.736   0.208  0.0453 -1.5110  0.4304
  161MOL0     H21248   5.122   4.710   0.504 -0.8812  0.9171 -0.7693
  161MOL0     H21249   5.082   4.628   0.354 -1.8239  0.4407  2.2254
  161MOL0     H21250   5.460   4.456   0.454  0.3518 -0.1280 -0.2639
  161MOL0     H21251   4.753   4.759   0.566  1.9385  1.6642 -0.9426
  161MOL0     H21252   4.501   4.763   0.579 -2.4768 -0.2419 -0.9575
  162MOL0     O21253   6.883   2.394   6.221 -0.5091 -0.3858  0.3213
  162MOL0     C21254   6.933   2.463   6.312  1.2908 -0.1385 -0.1876
  162MOL0     O21255   6.899   2.454   6.445 -0.3903 -0.4102  0.1208
  162MOL0     C21256   6.834   2.336   6.484  0.8160  0.0310 -0.5172
  162MOL0     C21257   6.706   2.342   6.539  0.6195  0.9104 -0.0655
  162MOL0     C21258   6.646   2.228   6.586 -0.3520  0.4013  1.1943
  162MOL0     C21259   6.700   2.101   6.559  0.5637 -0.2469 -0.4741
  162MOL0     O21260   6.617   1.991   6.592  1.2942  0.6747  0.6764
  162MOL0     C21261   6.625   1.886   6.486 -0.7246 -0.9974 -0.8630
  162MOL0     C21262   6.488   1.821   6.489  0.4425  0.1538 -0.7047
  162MOL0     C21263   6.481   1.667   6.442  0.5869 -0.0594  0.4223
  162MOL0     C21264   6.335   1.614   6.417 -0.2356 -0.0470  0.1439
  162MOL0     C21265   6.262   1.601   6.551  0.2345 -0.9254  0.0757
  162MOL0     C21266   6.122   1.561   6.533 -0.1754  0.6606  0.4441
  162MOL0     C21267   6.041   1.602   6.658  0.6700 -0.1208 -0.3889
  162MOL0     C21268   5.895   1.564   6.644  1.0091  0.6764  0.6382
  162MOL0     N21269   5.820   1.627   6.759 -0.3473  0.8924 -0.1511
  162MOL0     C21270   5.764   1.747   6.751  0.4462  0.3841 -0.6135
  162MOL0     C21271   5.665   1.739   6.845  0.8607 -0.1016 -0.4189
  162MOL0     C21272   5.593   1.867   6.902 -0.7028  0.5710  0.2531
  162MOL0     C21273   5.574   1.846   7.058 -0.2637  0.5754 -0.0868
  162MOL0     C21274   5.703   1.850   7.135 -0.0053 -0.0564  0.7465
  162MOL0     C21275   5.678   1.857   7.280 -0.0346 -0.3493 -0.5356
  162MOL0     O21276   5.610   1.739   7.329  0.7425  0.0065 -0.5831
  162MOL0     C21277   5.607   1.709   7.464  0.6177 -0.7201 -0.0640
  162MOL0     C21278   5.639   1.809   7.554  0.0198 -0.0675  0.6065
  162MOL0     C21279   5.638   1.777   7.692  1.5256  0.0198  0.4575
  162MOL0     C21280   5.616   1.646   7.740  0.2449 -0.0479  0.0311
  162MOL0     C21281   5.620   1.625   7.887  0.4887  0.9109 -0.7947
  162MOL0     O21282   5.614   1.726   7.967  0.3621 -0.2352  0.6537
  162MOL0     C21283   5.610   1.703   8.103 -0.5072 -1.0984 -0.0857
  162MOL0     C21284   5.528   1.605   8.167 -0.4596 -0.1948 -0.6733
  162MOL0     C21285   5.538   1.586   8.301  0.1110  0.5224 -0.3184
  162MOL0     C21286   5.645   1.648   8.376  0.0777 -1.0413  0.0813
  162MOL0     O21287   5.683   1.632   8.507 -0.3433  0.1551 -0.5516
  162MOL0     C21288   5.636   1.506   8.563 -0.6214  0.8302 -0.1199
  162MOL0     C21289   5.690   1.380   8.492 -0.5677  0.2258 -0.0089
  162MOL0     C21290   5.846   1.376   8.479 -0.6642  0.3297 -0.5307
  162MOL0     C21291   5.886   1.263   8.380 -0.1998  0.2249  0.2523
  162MOL0     C21292   5.896   1.289   8.229 -0.3152 -0.5055  0.3381
  162MOL0     C21293   5.986   1.405   8.195 -0.8281 -0.4559  0.9734
  162MOL0     C21294   6.015   1.422   8.047 -0.4013  0.2549 -1.1515
  162MOL0     C21295   6.107   1.538   8.020  1.5622 -0.2897 -0.0395
  162MOL0    Cl21296   6.006   1.699   8.025 -0.2529 -0.5650 -0.0509
  162MOL0     C21297   5.721   1.748   8.314  0.5813 -1.2254  0.4264
  162MOL0     C21298   5.710   1.768   8.182 -0.1463  0.0063  0.7629
  162MOL0     O21299   5.633   1.512   7.921 -0.1992  0.1677  0.0117
  162MOL0     C21300   5.586   1.554   7.640 -0.9337  0.7667 -0.9146
  162MOL0     C21301   5.585   1.585   7.502  0.2783 -0.3173  0.6849
  162MOL0     N21302   5.657   1.614   6.908  0.2379  0.6381 -0.1389
  162MOL0     N21303   5.761   1.548   6.858  0.0555 -0.2089 -0.2723
  162MOL0     C21304   6.833   2.097   6.505  0.0436 -0.6587 -0.1322
  162MOL0     C21305   6.904   2.215   6.470  0.6774  0.3509  0.0331
  162MOL0     C21306   7.011   2.584   6.274  0.2561  0.9107 -0.6634
  162MOL0     C21307   7.108   2.579   6.170 -0.2037  0.0969  0.5577
  162MOL0     C21308   7.174   2.694   6.133  1.0370  0.0465 -0.0439
  162MOL0     C21309   7.157   2.817   6.201  0.7162  0.8031 -0.1754
  162MOL0     O21310   7.194   2.936   6.157 -0.2299 -0.3527 -0.5697
  162MOL0     C21311   7.267   2.946   6.030 -0.3971  0.2697  0.2947
  162MOL0     C21312   7.279   3.086   5.992  0.4105 -0.5324 -0.1712
  162MOL0     C21313   7.329   3.196   6.091  0.9461  0.2127  0.1456
  162MOL0     C21314   7.347   3.327   6.017  0.3538  0.0150  0.3614
  162MOL0     C21315   7.440   3.395   6.110  1.3092  0.0016  0.6676
  162MOL0     C21316   7.523   3.440   6.192 -0.3239  0.1748 -0.1951
  162MOL0     C21317   7.066   2.815   6.302 -0.5700 -0.8157 -0.4413
  162MOL0     C21318   6.994   2.708   6.345  0.2235  0.8163 -0.0306
  162MOL0     H21319   6.644   2.431   6.536  0.0653  0.5086 -1.5138
  162MOL0     H21320   6.543   2.226   6.623 -1.4030 -1.3143 -1.5260
  162MOL0     H21321   6.705   1.813   6.503  0.5835  0.5809  0.1021
  162MOL0     H21322   6.649   1.927   6.387 -3.4389  0.6524 -0.9518
  162MOL0     H21323   6.426   1.891   6.432 -0.2184  1.1609  1.1628
  162MOL0     H21324   6.442   1.824   6.588  2.0413  1.1135  0.0616
  162MOL0     H21325   6.531   1.604   6.516  1.1970  0.3905  0.4095
  162MOL0     H21326   6.541   1.671   6.351  1.2710  3.1772  0.8979
  162MOL0     H21327   6.285   1.665   6.334  2.6442  1.9045 -0.5526
  162MOL0     H21328   6.355   1.516   6.374 -0.6261  0.6589 -1.7264
  162MOL0     H21329   6.258   1.701   6.595  1.2847 -0.7240 -0.2661
  162MOL0     H21330   6.314   1.534   6.620  0.8336  0.3947  0.9469
  162MOL0     H21331   6.128   1.453   6.523 -0.1039  0.6593  0.4996
  162MOL0     H21332   6.077   1.602   6.442  0.2931  1.8931  0.7459
  162MOL0     H21333   6.079   1.549   6.745  1.6474 -0.7239 -1.1590
  162MOL0     H21334   6.051   1.709   6.673 -0.5495 -0.3514  2.9339
  162MOL0     H21335   5.883   1.456   6.643 -0.3522  0.8034  1.3588
  162MOL0     H21336   5.863   1.612   6.551 -0.3456 -0.8156  0.3026
  162MOL0     H21337   5.811   1.823   6.690  1.5187  0.3079  0.1019
  162MOL0     H21338   5.493   1.878   6.858 -0.7050  1.6915  0.5052
  162MOL0     H21339   5.647   1.961   6.888  1.0246  0.1326  3.2259
  162MOL0     H21340   5.530   1.749   7.084  0.5061  0.8414  2.4848
  162MOL0     H21341   5.515   1.932   7.089 -1.4028  0.4207 -1.6663
  162MOL0     H21342   5.764   1.763   7.111 -2.8094 -2.1725  0.7930
  162MOL0     H21343   5.755   1.940   7.099  0.4436 -0.4918  0.2955
  162MOL0     H21344   5.619   1.947   7.301  0.6018 -0.3776  1.6331
  162MOL0     H21345   5.774   1.852   7.332 -0.0323 -0.3126 -0.5365
  162MOL0     H21346   5.651   1.915   7.532 -1.6617 -0.3638 -2.2513
  162MOL0     H21347   5.637   1.862   7.759 -1.4827  1.4300 -1.1866
  162MOL0     H21348   5.445   1.561   8.111  0.8274 -0.9678 -2.0317
  162MOL0     H21349   5.476   1.516   8.356  0.1167 -0.1453 -1.1334
  162MOL0     H21350   5.528   1.508   8.577 -0.6719  3.9099 -0.3147
  162MOL0     H21351   5.670   1.509   8.667 -1.5171 -1.8118  0.3174
  162MOL0     H21352   5.653   1.364   8.390  2.4273 -2.4659 -0.8556
  162MOL0     H21353   5.659   1.291   8.548 -1.4228 -0.6070 -1.7284
  162MOL0     H21354   5.889   1.363   8.579 -1.7100  2.4720  0.2698
  162MOL0     H21355   5.893   1.470   8.449 -0.3064 -0.4069 -2.3804
  162MOL0     H21356   5.985   1.233   8.415 -1.4853 -1.9204  2.3534
  162MOL0     H21357   5.829   1.170   8.387  1.4774 -0.7104  3.3364
  162MOL0     H21358   5.796   1.314   8.194  0.2081  1.3364  0.0675
  162MOL0     H21359   5.935   1.197   8.186  1.5426  1.1773 -1.8164
  162MOL0     H21360   6.084   1.402   8.243  0.1313  1.5745 -0.7195
  162MOL0     H21361   5.936   1.498   8.223  1.8625  2.0322 -1.7967
  162MOL0     H21362   6.065   1.329   8.018 -0.2653 -0.8795  2.2125
  162MOL0     H21363   5.928   1.433   7.981 -1.6403 -0.9944  0.1870
  162MOL0     H21364   6.148   1.535   7.919  1.5442  1.2541 -0.1240
  162MOL0     H21365   6.193   1.534   8.088  2.1988 -1.8640 -0.8972
  162MOL0     H21366   5.796   1.805   8.368  0.6935 -3.2875  2.6225
  162MOL0     H21367   5.774   1.842   8.135  0.5268 -0.4262  0.9934
  162MOL0     H21368   5.554   1.453   7.663 -1.6328  1.2382  0.2931
  162MOL0     H21369   5.565   1.510   7.426 -0.8548  1.2686 -0.6560
  162MOL0     H21370   6.884   2.001   6.505 -4.3125 -3.2546  1.7763
  162MOL0     H21371   7.009   2.215   6.445  0.0170  0.8097 -3.1651
  162MOL0     H21372   7.126   2.490   6.110 -0.6106  1.3594 -1.5011
  162MOL0     H21373   7.238   2.687   6.046  0.4980 -0.8773 -0.3777
  162MOL0     H21374   7.220   2.891   5.948  0.1211  0.8112 -0.3833
  162MOL0     H21375   7.372   2.921   6.045  0.3709  3.8588  1.8048
  162MOL0     H21376   7.352   3.087   5.910  0.3455  1.0733 -0.2407
  162MOL0     H21377   7.190   3.133   5.948  1.2197  4.1178  2.4882
  162MOL0     H21378   7.422   3.151   6.128  1.6249  1.5104  0.0670
  162MOL0     H21379   7.259   3.205   6.174  0.6648 -2.2251  0.2420
  162MOL0     H21380   7.395   3.322   5.919 -0.1481 -4.0703  0.1873
  162MOL0     H21381   7.249   3.374   6.006 -0.0814 -1.2314 -1.5145
  162MOL0     H21382   7.594   3.476   6.263 -0.7242 -0.8925  0.7641
  162MOL0     H21383   7.051   2.910   6.353 -0.4302  0.8895 -3.3653
  162MOL0     H21384   6.906   2.714   6.409 -0.4182  1.6064 -0.9460
  163MOL0     O21385   6.980   0.569  10.587 -0.7982  0.1249  0.0989
  163MOL0     C21386   6.969   0.674  10.516 -0.1074  0.2029  0.5914
  163MOL0     O21387   6.846   0.733  10.480 -0.4684 -0.1375 -0.8111
  163MOL0     C21388   6.720   0.687  10.509 -0.3604 -0.1859  0.1985
  163MOL0     C21389   6.620   0.758  10.453  0.4052 -0.4690  0.8077
  163MOL0     C21390   6.488   0.734  10.487  0.3867 -0.6063  0.3364
  163MOL0     C21391   6.447   0.622  10.566  0.0567 -0.4728  0.7123
  163MOL0     O21392   6.325   0.582  10.600  0.3627  0.1254 -0.2365
  163MOL0     C21393   6.225   0.658  10.528  0.1666  0.7887 -0.2035
  163MOL0     C21394   6.085   0.599  10.537 -0.4876 -0.2982 -0.6756
  163MOL0     C21395   5.999   0.645  10.659  0.1220  0.7255  0.2307
  163MOL0     C21396   5.948   0.781  10.624  0.5804  0.5554  0.3937
  163MOL0     C21397   5.831   0.817  10.718  0.6662  0.0768 -0.5097
  163MOL0     C21398   5.722   0.917  10.667 -0.4341  0.5313  0.6262
  163MOL0     C21399   5.712   0.934  10.513 -0.1918 -0.2028  0.2639
  163MOL0     C21400   5.574   1.003  10.471  0.2724  0.0627 -0.1309
  163MOL0     N21401   5.563   1.142  10.520 -0.1783 -0.4255 -0.3528
  163MOL0     C21402   5.658   1.239  10.519 -0.1022 -0.4382  0.7156
  163MOL0     C21403   5.600   1.352  10.556  0.3274 -0.2504 -1.1308
  163MOL0     C21404   5.660   1.491  10.545  0.5154 -0.1473  0.3378
  163MOL0     C21405   5.760   1.520  10.655  0.2691 -0.0671  0.9122
  163MOL0     C21406   5.813   1.670  10.653 -0.5324  0.7171  0.6779
  163MOL0     C21407   5.931   1.672  10.562  0.6028 -0.9061  0.3549
  163MOL0     O21408   6.042   1.601  10.613 -0.4654  0.2596  0.2596
  163MOL0     C21409   6.171   1.599  10.553  0.3147  0.3708  0.4072
  163MOL0     C21410   6.198   1.677  10.437 -0.2646  0.0345 -0.0962
  163MOL0     C21411   6.333   1.671  10.387 -0.5293 -0.9227 -0.0086
  163MOL0     C21412   6.437   1.595  10.458  0.1151  0.0028  0.5244
  163MOL0     C21413   6.573   1.609  10.416  0.2570 -0.6374  0.2111
  163MOL0     O21414   6.586   1.703  10.313 -0.4783  0.7909  0.4923
  163MOL0     C21415   6.715   1.732  10.276  0.5462 -0.5653 -0.7226
  163MOL0     C21416   6.807   1.644  10.221  0.0650 -0.6130 -0.3727
  163MOL0     C21417   6.942   1.677  10.200 -0.4291 -0.2512 -0.2954
  163MOL0     C21418   6.982   1.812  10.195  0.0512 -0.9312 -0.0913
  163MOL0     O21419   7.113   1.838  10.157 -0.2359 -0.9041 -0.4457
  163MOL0     C21420   7.151   1.974  10.132  0.2127  0.1189  0.0695
  163MOL0     C21421   7.276   1.971  10.049  0.3417 -0.4594 -0.1963
  163MOL0     C21422   7.400   1.951  10.130 -0.5274  0.6141  0.2969
  163MOL0     C21423   7.529   1.931  10.046 -0.2598  0.4866  0.7676
  163MOL0     C21424   7.657   1.928  10.131  0.6312 -0.5354 -0.2267
  163MOL0     C21425   7.791   1.943  10.072 -0.1254 -0.0704 -0.0225
  163MOL0     C21426   7.809   1.881   9.933 -0.2579  0.7546 -0.0423
  163MOL0     C21427   7.959   1.885   9.900 -0.7529  0.6639 -0.1711
  163MOL0    Cl21428   8.055   2.039   9.877  0.2421 -0.5820  0.0307
  163MOL0     C21429   6.878   1.901  10.230 -0.3802  0.4164  0.6166
  163MOL0     C21430   6.752   1.862  10.276  0.3695 -0.0157  0.4553
  163MOL0     O21431   6.669   1.554  10.469  0.5143 -0.0979 -0.9180
  163MOL0     C21432   6.402   1.511  10.570 -0.6867 -0.1430  1.0759
  163MOL0     C21433   6.266   1.506  10.606 -0.2916  0.2247  0.9515
  163MOL0     N21434   5.469   1.319  10.582 -0.2088 -1.1543 -0.0474
  163MOL0     N21435   5.445   1.195  10.550 -0.5058  0.0529 -0.4116
  163MOL0     C21436   6.550   0.546  10.617  0.0134 -0.2127 -0.1237
  163MOL0     C21437   6.685   0.575  10.586 -0.1603  0.4621  0.3785
  163MOL0     C21438   7.101   0.743  10.486  0.0715 -0.3721  0.0421
  163MOL0     C21439   7.093   0.884  10.471  0.1277  0.1554  0.4831
  163MOL0     C21440   7.207   0.954  10.420  0.6933  0.0057 -0.4120
  163MOL0     C21441   7.329   0.880  10.409 -0.9070 -0.0281  1.3165
  163MOL0     O21442   7.438   0.948  10.367 -0.7565  0.3305 -0.0245
  163MOL0     C21443   7.571   0.895  10.376 -0.0884 -0.0245 -0.0999
  163MOL0     C21444   7.669   0.990  10.321 -0.6761 -0.9250 -0.3414
  163MOL0     C21445   7.812   0.934  10.299  0.1839  1.2674  0.4069
  163MOL0     C21446   7.904   1.027  10.226 -0.4646  0.3951  0.1345
  163MOL0     C21447   8.035   0.975  10.214 -0.2609 -0.4724  0.3239
  163MOL0     C21448   8.155   0.932  10.213 -0.9675 -0.0578 -0.3336
  163MOL0     C21449   7.341   0.744  10.442  0.4112 -0.1482 -0.6132
  163MOL0     C21450   7.221   0.677  10.482 -0.6254  0.0804 -0.0942
  163MOL0     H21451   6.646   0.841  10.387 -0.2459 -1.7011 -1.0757
  163MOL0     H21452   6.422   0.808  10.445  2.2435  2.6875  2.7714
  163MOL0     H21453   6.254   0.652  10.423  1.0315  1.3106 -0.0008
  163MOL0     H21454   6.213   0.765  10.549  0.9539  1.2175 -1.7812
  163MOL0     H21455   6.087   0.491  10.556 -1.3402 -0.3703 -0.9693
  163MOL0     H21456   6.042   0.626  10.441  0.2375  0.1810 -0.8778
  163MOL0     H21457   6.063   0.638  10.747 -0.4478  0.2606  0.6080
  163MOL0     H21458   5.917   0.573  10.664  0.1227  0.6481 -0.6915
  163MOL0     H21459   6.028   0.856  10.624 -1.1286  2.5902 -2.5370
  163MOL0     H21460   5.910   0.774  10.522  1.5945 -1.1512  0.0961
  163MOL0     H21461   5.867   0.856  10.813 -0.0840  0.7464 -0.4933
  163MOL0     H21462   5.783   0.721  10.739  0.8563  0.6614  3.3702
  163MOL0     H21463   5.742   1.019  10.703  1.3186  0.6821 -0.6678
  163MOL0     H21464   5.628   0.889  10.717  0.8376 -2.8153  1.4141
  163MOL0     H21465   5.793   0.989  10.463  2.6597 -2.9217  1.6058
  163MOL0     H21466   5.716   0.835  10.467  3.4461 -0.2005  0.2739
  163MOL0     H21467   5.488   0.947  10.510  0.5728  0.7278  1.5501
  163MOL0     H21468   5.563   1.004  10.362 -2.6218  1.9420  0.0860
  163MOL0     H21469   5.757   1.215  10.481  0.1532 -2.3366  2.3912
  163MOL0     H21470   5.582   1.567  10.562  1.6428  0.9951  0.5341
  163MOL0     H21471   5.704   1.506  10.447  1.4960 -1.6426  0.5201
  163MOL0     H21472   5.838   1.444  10.646  3.0720  2.6757  0.2676
  163MOL0     H21473   5.696   1.499  10.741  0.2921 -3.8810  0.1593
  163MOL0     H21474   5.730   1.733  10.622 -0.7408 -1.1488 -3.1089
  163MOL0     H21475   5.849   1.707  10.750  1.9543  3.1704 -1.0095
  163MOL0     H21476   5.954   1.777  10.542 -0.7339 -0.1654  2.4932
  163MOL0     H21477   5.899   1.622  10.469 -1.9181 -0.2831  0.8153
  163MOL0     H21478   6.122   1.738  10.390 -0.3018  0.6735  0.7609
  163MOL0     H21479   6.362   1.722  10.295 -0.8218  1.3358  1.0799
  163MOL0     H21480   6.775   1.540  10.216 -1.4641 -0.2269  0.7661
  163MOL0     H21481   7.010   1.599  10.165  0.2229  0.4699 -0.6788
  163MOL0     H21482   7.176   2.037  10.218  1.6571  0.6320 -0.7028
  163MOL0     H21483   7.073   2.037  10.087 -0.0329  1.1287  1.7986
  163MOL0     H21484   7.289   2.058   9.985  1.5100 -1.3099 -1.1682
  163MOL0     H21485   7.269   1.884   9.983 -1.4820  0.4448 -1.2602
  163MOL0     H21486   7.389   1.858  10.186 -2.2246  1.0643  0.7578
  163MOL0     H21487   7.425   2.032  10.198  2.1842  0.3321 -0.2380
  163MOL0     H21488   7.531   1.834   9.994 -4.0028 -0.9852  2.9600
  163MOL0     H21489   7.527   2.014   9.975  1.7956 -0.5458 -0.5960
  163MOL0     H21490   7.655   1.828  10.175  1.2443 -0.2540  0.4604
  163MOL0     H21491   7.636   2.000  10.211 -2.4466 -0.9994 -0.4952
  163MOL0     H21492   7.857   1.894  10.145 -0.2536 -1.8645 -1.0453
  163MOL0     H21493   7.815   2.049  10.065  0.5109 -0.1082  1.3517
  163MOL0     H21494   7.782   1.775   9.928  1.7210 -0.0383  3.0556
  163MOL0     H21495   7.758   1.947   9.862 -0.7795  1.2356  0.7629
  163MOL0     H21496   7.976   1.819   9.815 -4.4638 -3.3384  1.7628
  163MOL0     H21497   8.009   1.828   9.979  1.5188  3.9897  0.9691
  163MOL0     H21498   6.917   2.001  10.243 -1.5981  0.8570  1.0046
  163MOL0     H21499   6.694   1.945  10.314  1.8074  0.8972  0.7424
  163MOL0     H21500   6.485   1.451  10.605 -1.1467 -0.2079  2.0829
  163MOL0     H21501   6.221   1.444  10.683  0.5114  0.6750  1.7996
  163MOL0     H21502   6.533   0.456  10.676  2.7577 -0.3678  0.5702
  163MOL0     H21503   6.756   0.509  10.634 -1.0231  1.0510  2.6114
  163MOL0     H21504   6.992   0.922  10.482  0.1322 -0.0689  1.3430
  163MOL0     H21505   7.197   1.059  10.397 -2.7722  0.5375  2.5170
  163MOL0     H21506   7.574   0.811  10.305  1.1641  0.8553 -1.1465
  163MOL0     H21507   7.596   0.855  10.475 -2.3502 -0.7607  0.2279
  163MOL0     H21508   7.634   1.034  10.227 -1.6719 -1.6178 -0.3088
  163MOL0     H21509   7.661   1.080  10.383 -3.0004  0.8074 -2.8591
  163MOL0     H21510   7.818   0.836  10.250 -0.7817 -0.1003  2.8624
  163MOL0     H21511   7.848   0.911  10.399  2.2482  1.9899 -0.1197
  163MOL0     H21512   7.869   1.047  10.124  2.2691  0.5518 -0.8622
  163MOL0     H21513   7.903   1.123  10.279  0.6662  0.8509 -0.6185
  163MOL0     H21514   8.257   0.900  10.214 -0.2509  2.0142 -1.5628
  163MOL0     H21515   7.434   0.689  10.449  0.7702  0.6238  2.2163
  163MOL0     H21516   7.221   0.572  10.509 -0.5477 -0.7100 -2.8534
  164MOL0     O21517   5.728   7.885  10.297  0.0579 -0.2712  0.2472
  164MOL0     C21518   5.721   7.999  10.250  0.5418 -0.1319 -1.0711
  164MOL0     O21519   5.607   8.076  10.253 -0.2437  0.7773 -0.2305
  164MOL0     C21520   5.491   8.028  10.315 -1.3782 -0.7566 -0.3610
  164MOL0     C21521   5.475   8.051  10.448  0.7153  0.3518 -0.3593
  164MOL0     C21522   5.352   8.009  10.509 -0.1826  0.4612 -0.2547
  164MOL0     C21523   5.249   7.943  10.430 -0.6592 -0.3901  0.1614
  164MOL0     O21524   5.133   7.904  10.484 -0.0218 -0.0964 -0.2751
  164MOL0     C21525   5.084   7.775  10.435  0.0588 -1.2722 -0.0530
  164MOL0     C21526   4.991   7.725  10.543 -0.6831 -0.1119 -0.1416
  164MOL0     C21527   4.862   7.664  10.486  0.6652 -0.6791  0.0105
  164MOL0     C21528   4.751   7.636  10.595  0.5718  0.3217 -0.8120
  164MOL0     C21529   4.616   7.585  10.541  0.0548 -0.0365  0.2505
  164MOL0     C21530   4.523   7.566  10.664  0.1217  0.2304  0.4321
  164MOL0     C21531   4.383   7.503  10.637 -0.3387  1.2648  0.4819
  164MOL0     C21532   4.301   7.584  10.542  0.2452 -0.7935  0.4790
  164MOL0     N21533   4.159   7.547  10.560 -0.3900 -0.2154  0.0220
  164MOL0     C21534   4.061   7.625  10.612 -1.0102 -1.3684  0.3568
  164MOL0     C21535   3.949   7.559  10.591  0.8218 -0.2900 -0.7058
  164MOL0     C21536   3.807   7.609  10.611  0.0611 -0.2536 -0.8980
  164MOL0     C21537   3.767   7.733  10.516  0.3646  0.7076 -0.4081
  164MOL0     C21538   3.641   7.803  10.566 -0.2659  0.5974 -0.0116
  164MOL0     C21539   3.521   7.707  10.592  0.1794  0.6343  0.1163
  164MOL0     O21540   3.436   7.698  10.468 -0.1571  0.2365  0.4645
  164MOL0     C21541   3.301   7.704  10.478 -1.0580  0.2390  0.0292
  164MOL0     C21542   3.226   7.739  10.363 -0.2392  0.0873 -0.3268
  164MOL0     C21543   3.097   7.767  10.360  0.1684  0.5941  0.2396
  164MOL0     C21544   3.023   7.751  10.485  0.1212  0.4000 -0.8650
  164MOL0     C21545   2.878   7.780  10.493  0.8509  1.4798  0.2013
  164MOL0     O21546   2.801   7.794  10.379 -0.0003 -0.5699 -0.4821
  164MOL0     C21547   2.663   7.786  10.385 -1.0432 -0.1187  0.5402
  164MOL0     C21548   2.594   7.712  10.483  0.5457 -0.0227 -0.8678
  164MOL0     C21549   2.453   7.724  10.491 -0.4794 -0.0469 -0.3662
  164MOL0     C21550   2.377   7.802  10.404 -0.8712 -0.6813 -0.2353
  164MOL0     O21551   2.252   7.826  10.413  0.0429 -0.1706  0.1875
  164MOL0     C21552   2.168   7.713  10.397 -0.2298 -0.5800  1.9816
  164MOL0     C21553   2.032   7.739  10.469 -0.2098 -0.0252 -0.7916
  164MOL0     C21554   2.030   7.714  10.614 -0.6228  0.5510 -0.6474
  164MOL0     C21555   1.892   7.713  10.669  0.5751 -0.1693  0.5271
  164MOL0     C21556   1.896   7.740  10.816  0.5115  0.1427 -0.4535
  164MOL0     C21557   1.762   7.701  10.887 -0.0096 -0.1892  0.2319
  164MOL0     C21558   1.796   7.657  11.031  0.8602  0.4536  1.3823
  164MOL0     C21559   1.676   7.605  11.109  0.0797 -0.9635 -0.2403
  164MOL0    Cl21560   1.533   7.722  11.132 -0.3899 -0.1550 -0.4155
  164MOL0     C21561   2.451   7.878  10.312  0.4762  0.0234  0.4942
  164MOL0     C21562   2.590   7.870  10.309  0.8168 -0.0408  0.2582
  164MOL0     O21563   2.833   7.790  10.609 -1.0534 -0.1672  0.5104
  164MOL0     C21564   3.090   7.699  10.599  0.3605  0.1648 -0.8771
  164MOL0     C21565   3.226   7.683  10.599 -0.3659 -1.0407  1.0869
  164MOL0     N21566   3.969   7.446  10.523  0.1234  0.5111  0.1380
  164MOL0     N21567   4.094   7.450  10.495  0.1932 -0.0541 -0.6451
  164MOL0     C21568   5.281   7.915  10.295  0.3063  1.1891  0.8458
  164MOL0     C21569   5.401   7.959  10.240  0.9408 -0.0709 -0.6083
  164MOL0     C21570   5.831   8.041  10.176  0.0771 -0.0360 -0.2545
  164MOL0     C21571   5.940   7.959  10.137  0.1142  0.5886 -1.0532
  164MOL0     C21572   6.055   8.007  10.080 -0.0715 -0.1065  0.1462
  164MOL0     C21573   6.072   8.146  10.053  0.5473  0.4972  0.5353
  164MOL0     O21574   6.192   8.183   9.979  1.3494  0.1622  0.3293
  164MOL0     C21575   6.212   8.323   9.938 -0.1618 -0.3193 -0.4711
  164MOL0     C21576   6.317   8.313   9.834 -0.4624  0.8591 -0.1630
  164MOL0     C21577   6.459   8.283   9.901 -0.0873  0.8262  0.6388
  164MOL0     C21578   6.576   8.312   9.814 -1.2582 -0.3720 -0.4913
  164MOL0     C21579   6.584   8.205   9.715  0.2241  0.4655  0.9380
  164MOL0     C21580   6.578   8.128   9.619 -0.2983 -0.0367 -0.1475
  164MOL0     C21581   5.972   8.237  10.088 -0.4415  0.8257 -0.1361
  164MOL0     C21582   5.850   8.181  10.144 -0.7957  0.1407  0.0088
  164MOL0     H21583   5.558   8.086  10.507  2.0592  1.6433 -2.8447
  164MOL0     H21584   5.346   8.021  10.616 -2.6878 -1.9068 -0.0133
  164MOL0     H21585   5.168   7.713  10.400  3.4557  1.6318  2.2199
  164MOL0     H21586   5.028   7.783  10.341 -1.0938  1.3784  0.7730
  164MOL0     H21587   4.961   7.798  10.619  0.3015  2.1739 -1.8470
  164MOL0     H21588   5.050   7.650  10.598 -0.5127  0.2352  0.1539
  164MOL0     H21589   4.879   7.567  10.440 -2.9207 -2.7180  2.5067
  164MOL0     H21590   4.816   7.732  10.413 -1.2560 -2.5847 -0.6273
  164MOL0     H21591   4.787   7.558  10.663 -2.9036 -0.8790 -0.1285
  164MOL0     H21592   4.716   7.725  10.647 -1.6575 -0.8283 -0.2351
  164MOL0     H21593   4.631   7.487  10.496 -0.8646 -0.3263  0.5567
  164MOL0     H21594   4.573   7.647  10.462 -0.7131 -1.5298 -0.5346
  164MOL0     H21595   4.494   7.663  10.705  4.6794  2.6789 -1.3936
  164MOL0     H21596   4.567   7.510  10.747 -1.9587  0.9437  2.1076
  164MOL0     H21597   4.390   7.401  10.598 -0.7856  1.5015 -0.2349
  164MOL0     H21598   4.330   7.503  10.733 -0.6653 -0.9514  0.3718
  164MOL0     H21599   4.325   7.561  10.438 -2.5387 -1.3946 -0.1192
  164MOL0     H21600   4.317   7.691  10.562  1.4783 -0.5567 -1.5383
  164MOL0     H21601   4.069   7.725  10.655  3.5147 -1.0653 -0.7617
  164MOL0     H21602   3.790   7.645  10.712  0.7833  4.2447 -2.1418
  164MOL0     H21603   3.748   7.519  10.591  1.0890 -0.7116 -2.0569
  164MOL0     H21604   3.756   7.702  10.412 -0.6250 -0.1362 -0.0682
  164MOL0     H21605   3.846   7.806  10.536  1.9568 -1.4841  2.0136
  164MOL0     H21606   3.670   7.855  10.657  1.1032  1.4742 -0.9188
  164MOL0     H21607   3.609   7.880  10.495 -3.1360  2.7848  3.3084
  164MOL0     H21608   3.466   7.754  10.674 -2.5296 -0.1857 -1.0955
  164MOL0     H21609   3.551   7.609  10.631 -1.7683  0.1546  0.5538
  164MOL0     H21610   3.280   7.733  10.269 -0.4840  2.4121 -0.6810
  164MOL0     H21611   3.049   7.783  10.264 -1.2049  0.6834  0.9100
  164MOL0     H21612   2.651   7.661  10.560  0.0382  1.6290  0.6900
  164MOL0     H21613   2.405   7.671  10.573  0.2776  0.9146  0.7332
  164MOL0     H21614   2.215   7.619  10.428  0.6443 -1.1195 -0.6536
  164MOL0     H21615   2.148   7.704  10.290 -1.4147  3.5881  1.6655
  164MOL0     H21616   1.962   7.672  10.417  1.1551 -1.8983 -0.2962
  164MOL0     H21617   1.997   7.842  10.457  0.8674  0.2388 -1.8305
  164MOL0     H21618   2.098   7.784  10.663  2.1259  0.3193 -3.7590
  164MOL0     H21619   2.079   7.619  10.638 -1.2860  0.7106  1.6411
  164MOL0     H21620   1.845   7.795  10.613  4.0059  0.7546 -1.3331
  164MOL0     H21621   1.848   7.618  10.638 -0.9948  0.2159  1.5080
  164MOL0     H21622   1.908   7.848  10.825  0.2389  0.3151 -1.9089
  164MOL0     H21623   1.982   7.692  10.863 -0.4151 -1.4479 -0.3296
  164MOL0     H21624   1.717   7.614  10.838  0.2568 -2.4135  3.5609
  164MOL0     H21625   1.693   7.785  10.891  0.6399  0.3768 -0.1464
  164MOL0     H21626   1.868   7.574  11.031  1.0623  0.6122  2.5240
  164MOL0     H21627   1.836   7.746  11.080 -1.3961  3.3495 -1.6263
  164MOL0     H21628   1.707   7.587  11.213 -1.7306  0.1544  0.5465
  164MOL0     H21629   1.653   7.509  11.061 -0.2535 -0.3804 -1.2722
  164MOL0     H21630   2.400   7.952  10.251  0.7186 -1.4498 -1.6013
  164MOL0     H21631   2.635   7.934  10.234 -2.2692  0.8551 -0.9519
  164MOL0     H21632   3.033   7.683  10.690  0.8143  3.3037  0.0617
  164MOL0     H21633   3.261   7.669  10.701  1.0074  2.0390  1.1248
  164MOL0     H21634   5.210   7.866  10.229  0.3424 -1.7467  2.8144
  164MOL0     H21635   5.422   7.947  10.135  1.0409  0.5010 -0.6579
  164MOL0     H21636   5.937   7.851  10.128  1.9339  0.4926 -0.8431
  164MOL0     H21637   6.131   7.939  10.042  0.7866  0.1150  1.4039
  164MOL0     H21638   6.256   8.383  10.018  0.0954  0.2135 -1.0082
  164MOL0     H21639   6.125   8.374   9.896 -0.7090 -2.5912 -2.3063
  164MOL0     H21640   6.296   8.230   9.766  2.8189  0.3204 -0.6646
  164MOL0     H21641   6.314   8.409   9.781 -2.2161  1.4194  0.8519
  164MOL0     H21642   6.468   8.179   9.931  1.8834  1.0862  1.0611
  164MOL0     H21643   6.464   8.342   9.993  0.8027  0.2325  0.9762
  164MOL0     H21644   6.568   8.416   9.779 -1.7225  1.5970  4.6145
  164MOL0     H21645   6.669   8.313   9.872  1.4352 -0.4015 -4.4099
  164MOL0     H21646   6.576   8.068   9.531  1.2876  3.7552 -3.0724
  164MOL0     H21647   5.973   8.341  10.060 -1.1769  0.2617 -2.4637
  164MOL0     H21648   5.782   8.264  10.161 -1.3875 -0.2448 -0.4380
  165MOL0     O21649   8.696   6.517   0.050 -0.6298 -0.7997  0.0332
  165MOL0     C21650   8.751   6.633   0.073 -0.8510 -0.6606  0.7589
  165MOL0     O21651   8.885   6.657   0.074 -0.4741  0.5667  0.2353
  165MOL0     C21652   8.983   6.564   0.052 -0.3339  0.0690 -0.1436
  165MOL0     C21653   9.101   6.609  -0.006 -0.0156 -0.2487  1.2554
  165MOL0     C21654   9.205   6.512  -0.008  0.1971 -0.7842 -0.3329
  165MOL0     C21655   9.194   6.383   0.043  0.5240 -0.0426 -0.2573
  165MOL0     O21656   9.302   6.304   0.050  0.0965 -1.0611  0.0493
  165MOL0     C21657   9.329   6.235  -0.071 -0.1655 -0.0011  1.0845
  165MOL0     C21658   9.470   6.163  -0.065  0.3976  0.2120 -0.7980
  165MOL0     C21659   9.591   6.254  -0.051 -0.1571  0.4660  1.0908
  165MOL0     C21660   9.718   6.176  -0.045 -0.0990  0.0472 -0.3107
  165MOL0     C21661   9.824   6.247  -0.105 -0.2227 -0.2767 -0.1858
  165MOL0     C21662   9.956   6.179  -0.076 -0.1174  0.0535  0.3625
  165MOL0     C21663   9.972   6.034  -0.130  0.2223  0.6789  0.2015
  165MOL0     C21664  10.108   6.012  -0.197 -0.9071  0.7319 -0.2178
  165MOL0     N21665  10.214   6.038  -0.103 -0.2104  0.2202 -0.3121
  165MOL0     C21666  10.289   5.951  -0.031 -0.0900  0.0173  0.4006
  165MOL0     C21667  10.401   6.017   0.021 -0.3884 -0.8570  0.4476
  165MOL0     C21668  10.510   5.961   0.108  0.0255  0.0162  0.3436
  165MOL0     C21669  10.606   5.881   0.028 -0.0769 -1.1308 -0.3503
  165MOL0     C21670  10.700   5.969  -0.060  0.1485  1.0693  0.0231
  165MOL0     C21671  10.804   6.037   0.027 -0.5734 -0.5262 -0.7296
  165MOL0     O21672  10.861   6.141  -0.055 -0.4444 -0.3887 -0.2337
  165MOL0     C21673  10.801   6.263  -0.067  1.1378 -0.6540 -0.1466
  165MOL0     C21674  10.678   6.310  -0.015 -0.6470  0.3419  0.6936
  165MOL0     C21675  10.627   6.436  -0.065 -0.3587 -0.4700 -0.6152
  165MOL0     C21676  10.708   6.529  -0.143  0.6988 -0.7396 -0.3437
  165MOL0     C21677  10.662   6.667  -0.177 -0.6064  1.3361 -0.1703
  165MOL0     O21678  10.524   6.695  -0.166  1.3651 -0.1935  0.4410
  165MOL0     C21679  10.480   6.825  -0.183  0.4429 -0.9403  0.8770
  165MOL0     C21680  10.361   6.867  -0.117  0.4620 -0.4134 -0.2169
  165MOL0     C21681  10.309   7.000  -0.121  0.2332  1.1755 -0.5840
  165MOL0     C21682  10.380   7.095  -0.199  0.1984  0.1242 -0.4588
  165MOL0     O21683  10.323   7.218  -0.211  0.5860  0.2531 -0.3141
  165MOL0     C21684  10.357   7.305  -0.320  1.1962  0.3066  0.7425
  165MOL0     C21685  10.284   7.439  -0.323  0.7662  0.4329 -0.7500
  165MOL0     C21686  10.163   7.440  -0.421 -0.2090  0.0599  0.0674
  165MOL0     C21687  10.101   7.579  -0.456 -0.1711  0.4877  0.2902
  165MOL0     C21688   9.951   7.563  -0.463  0.1147  0.3585 -0.0568
  165MOL0     C21689   9.863   7.665  -0.540 -0.0823 -0.0359  0.3833
  165MOL0     C21690   9.711   7.624  -0.537  0.2471  0.3546  0.7236
  165MOL0     C21691   9.624   7.701  -0.627  0.6144  0.4315  0.1286
  165MOL0    Cl21692   9.642   7.864  -0.578 -0.4349  0.1097  0.1818
  165MOL0     C21693  10.485   7.056  -0.283  0.2617 -0.4212  0.8181
  165MOL0     C21694  10.544   6.925  -0.266  0.1494 -0.4025 -0.3422
  165MOL0     O21695  10.752   6.735  -0.222  0.5332 -0.3096  0.6087
  165MOL0     C21696  10.835   6.488  -0.180 -0.1270  0.3621  0.1900
  165MOL0     C21697  10.874   6.353  -0.150 -0.2030  0.5559 -0.2713
  165MOL0     N21698  10.380   6.153  -0.015  0.3852 -0.1808  0.4301
  165MOL0     N21699  10.270   6.161  -0.086  0.1482  0.3783 -0.1921
  165MOL0     C21700   9.075   6.348   0.103  0.4153 -0.2024  0.2076
  165MOL0     C21701   8.969   6.440   0.106 -0.8068  1.0022  0.1779
  165MOL0     C21702   8.657   6.749   0.109  0.1351 -0.3103 -0.8411
  165MOL0     C21703   8.521   6.739   0.082  1.1551  0.5209 -0.5959
  165MOL0     C21704   8.425   6.826   0.128 -0.3209 -0.3869 -0.7494
  165MOL0     C21705   8.474   6.934   0.221  0.6748  0.3381  0.0780
  165MOL0     O21706   8.375   7.017   0.259 -0.2016  0.2810  1.0998
  165MOL0     C21707   8.394   7.101   0.370  0.4409 -0.3116 -0.2108
  165MOL0     C21708   8.273   7.172   0.413  0.2168  0.8453 -0.0890
  165MOL0     C21709   8.290   7.220   0.557  0.3831  0.5623 -0.6102
  165MOL0     C21710   8.396   7.331   0.593  0.6368 -0.1485  0.4691
  165MOL0     C21711   8.369   7.466   0.543  0.1264 -0.8673 -0.5072
  165MOL0     C21712   8.351   7.579   0.490 -0.1589 -0.2385 -0.2685
  165MOL0     C21713   8.605   6.944   0.239 -0.2049  0.3204  0.1576
  165MOL0     C21714   8.702   6.848   0.194 -0.2847  0.0073  0.1475
  165MOL0     H21715   9.103   6.708  -0.050 -2.0078 -0.0340  1.5601
  165MOL0     H21716   9.304   6.543  -0.042  1.7629 -2.1612  2.5716
  165MOL0     H21717   9.331   6.301  -0.159 -1.2044 -0.0208  1.0315
  165MOL0     H21718   9.247   6.165  -0.085 -1.8460  1.6020  2.4855
  165MOL0     H21719   9.478   6.104  -0.157  2.3791  0.1241 -0.6095
  165MOL0     H21720   9.467   6.094   0.020 -0.5065  0.9686 -0.2008
  165MOL0     H21721   9.572   6.316   0.037 -0.0425  1.5895  0.3569
  165MOL0     H21722   9.605   6.331  -0.128  2.0452  0.2909  1.2536
  165MOL0     H21723   9.734   6.157   0.061  1.3369  0.7218 -0.3844
  165MOL0     H21724   9.706   6.073  -0.081 -1.1603  0.1179 -0.1897
  165MOL0     H21725   9.829   6.352  -0.074 -2.7375 -0.5096  1.2218
  165MOL0     H21726   9.815   6.252  -0.214 -2.6298 -3.3625 -0.2811
  165MOL0     H21727   9.983   6.191   0.030  0.8747 -0.8651  0.2332
  165MOL0     H21728  10.032   6.239  -0.128  2.2827 -0.8205  2.6112
  165MOL0     H21729   9.954   5.965  -0.047 -0.3430  0.0422 -0.4485
  165MOL0     H21730   9.896   6.019  -0.207 -0.5907 -2.8689  1.4955
  165MOL0     H21731  10.119   6.073  -0.288 -2.0628  0.8967 -0.2719
  165MOL0     H21732  10.118   5.908  -0.226  2.1329  0.6202  0.8784
  165MOL0     H21733  10.270   5.845  -0.019  2.3925 -0.3374  1.9645
  165MOL0     H21734  10.464   5.894   0.181  0.5940  2.3336  3.0035
  165MOL0     H21735  10.560   6.039   0.167  1.2562  0.9899 -1.8411
  165MOL0     H21736  10.538   5.817  -0.030  0.4156  1.4028 -4.0625
  165MOL0     H21737  10.668   5.826   0.100 -1.3440 -0.2038  1.5191
  165MOL0     H21738  10.742   5.901  -0.134 -1.3854  0.3028 -0.1803
  165MOL0     H21739  10.640   6.037  -0.121 -0.0966 -1.5006 -2.8363
  165MOL0     H21740  10.884   5.966   0.050 -0.2287  0.3324  0.8479
  165MOL0     H21741  10.758   6.068   0.121 -3.8435  2.2663 -3.0155
  165MOL0     H21742  10.617   6.248   0.049 -0.4064  0.9304  1.5075
  165MOL0     H21743  10.533   6.464  -0.018  0.0384 -0.8846  0.4611
  165MOL0     H21744  10.302   6.796  -0.060  0.6463 -0.2421  0.1904
  165MOL0     H21745  10.213   7.003  -0.070 -0.2324 -3.1315 -0.7941
  165MOL0     H21746  10.346   7.258  -0.418  3.5580 -2.3250  1.6213
  165MOL0     H21747  10.465   7.308  -0.304  1.3439 -2.6039  0.7454
  165MOL0     H21748  10.359   7.507  -0.363  3.3980 -1.3861  0.7392
  165MOL0     H21749  10.257   7.480  -0.225  0.5471 -0.7969 -0.2707
  165MOL0     H21750  10.089   7.380  -0.367 -0.5065  1.4644  1.2860
  165MOL0     H21751  10.182   7.377  -0.509  1.4282  0.7468 -0.0980
  165MOL0     H21752  10.124   7.667  -0.394 -2.8207 -0.8950  3.4783
  165MOL0     H21753  10.128   7.598  -0.561  3.2130 -0.9784  0.7736
  165MOL0     H21754   9.905   7.539  -0.367 -0.7455 -2.2142 -1.0067
  165MOL0     H21755   9.938   7.466  -0.513 -0.5096  1.4391 -2.1031
  165MOL0     H21756   9.899   7.685  -0.641  1.4695  0.2424  0.9719
  165MOL0     H21757   9.888   7.760  -0.492 -1.0663 -0.8256  2.6043
  165MOL0     H21758   9.694   7.518  -0.557 -0.6988  0.6457 -0.0965
  165MOL0     H21759   9.669   7.642  -0.437  0.3975 -2.0578  1.2936
  165MOL0     H21760   9.520   7.669  -0.618  0.5706 -1.0522 -3.7586
  165MOL0     H21761   9.637   7.678  -0.733 -2.9135 -2.9840  0.2294
  165MOL0     H21762  10.527   7.121  -0.359 -1.4084 -2.5465 -2.1359
  165MOL0     H21763  10.617   6.901  -0.343 -1.0457 -0.8873 -1.3586
  165MOL0     H21764  10.914   6.545  -0.227 -0.0407 -0.5831 -0.8449
  165MOL0     H21765  10.968   6.323  -0.196  0.3471 -0.3994  1.3734
  165MOL0     H21766   9.068   6.249   0.148  1.4331  0.1812  1.2715
  165MOL0     H21767   8.873   6.411   0.149 -1.5338  0.1271 -1.8898
  165MOL0     H21768   8.484   6.663   0.015  0.6725  0.5799 -0.3966
  165MOL0     H21769   8.318   6.818   0.112 -0.3482 -1.1452 -0.2311
  165MOL0     H21770   8.468   7.179   0.353 -1.4703  1.2651 -1.8353
  165MOL0     H21771   8.431   7.034   0.449  0.0263  0.5945  0.7767
  165MOL0     H21772   8.231   7.249   0.347  0.3428 -0.8757 -2.2693
  165MOL0     H21773   8.194   7.096   0.414  1.4092 -0.4887  2.5956
  165MOL0     H21774   8.311   7.130   0.616  1.4633  1.7875  0.9627
  165MOL0     H21775   8.193   7.255   0.596  1.4193  2.2341  0.6127
  165MOL0     H21776   8.404   7.346   0.701 -0.4887  3.0972  0.2074
  165MOL0     H21777   8.492   7.291   0.560  1.9303  0.9442  2.7016
  165MOL0     H21778   8.327   7.672   0.444 -1.9353 -0.3439  0.3875
  165MOL0     H21779   8.635   7.023   0.308  0.7753 -0.2874  0.4487
  165MOL0     H21780   8.805   6.853   0.227  0.7330 -1.0518 -2.5595
  166MOL0     O21781   9.948   5.022  11.207  0.2643 -0.6539  0.4608
  166MOL0     C21782   9.958   4.923  11.141 -0.1189 -0.4159 -0.3685
  166MOL0     O21783   9.876   4.894  11.034  0.3704 -0.2602 -0.4457
  166MOL0     C21784   9.787   4.984  10.995 -0.8175  0.8233  0.7968
  166MOL0     C21785   9.783   5.024  10.865 -0.5733 -0.0115 -0.6698
  166MOL0     C21786   9.693   5.109  10.823  0.1771  0.2457  0.2930
  166MOL0     C21787   9.590   5.163  10.909  0.0407 -0.9524  0.1991
  166MOL0     O21788   9.503   5.258  10.864 -0.4353  0.0765  0.4841
  166MOL0     C21789   9.363   5.245  10.911  0.0715 -0.8377 -0.4961
  166MOL0     C21790   9.269   5.285  10.793  0.0746  0.4470 -0.0067
  166MOL0     C21791   9.285   5.435  10.762  0.2827  0.7336 -0.5535
  166MOL0     C21792   9.185   5.497  10.658 -0.1315 -0.2500  0.0191
  166MOL0     C21793   9.198   5.643  10.651  0.0666  0.1848 -0.6960
  166MOL0     C21794   9.080   5.706  10.572 -0.1861  1.3523  0.8105
  166MOL0     C21795   9.080   5.862  10.576 -0.7590 -0.3361 -0.0262
  166MOL0     C21796   8.955   5.924  10.522 -0.5889 -0.1622  0.6912
  166MOL0     N21797   8.832   5.906  10.601 -0.3154  0.0795  0.5818
  166MOL0     C21798   8.778   6.003  10.674  0.9833  1.0996 -0.2220
  166MOL0     C21799   8.654   5.955  10.691 -0.4770  0.3270  0.0989
  166MOL0     C21800   8.531   6.006  10.762 -1.1913  0.5464  0.5758
  166MOL0     C21801   8.526   5.961  10.905 -0.4248  0.2185 -1.4437
  166MOL0     C21802   8.486   5.812  10.908 -0.4112  0.3465  0.0468
  166MOL0     C21803   8.343   5.779  10.868  0.2639 -0.2962  0.3589
  166MOL0     O21804   8.319   5.644  10.918  0.4126 -0.8647  0.2083
  166MOL0     C21805   8.188   5.601  10.916  0.5121  0.8861  0.3696
  166MOL0     C21806   8.159   5.467  10.953  0.6535  0.6931 -1.6922
  166MOL0     C21807   8.024   5.424  10.960  0.2056 -0.6262 -0.1197
  166MOL0     C21808   7.918   5.499  10.898 -0.2425 -0.4475  0.9884
  166MOL0     C21809   7.778   5.448  10.871 -0.1382 -0.0072  0.0251
  166MOL0     O21810   7.696   5.520  10.789  0.8362  0.3577 -0.0991
  166MOL0     C21811   7.564   5.489  10.774  1.0270 -0.4118 -0.1671
  166MOL0     C21812   7.477   5.597  10.740 -1.0525  0.7887 -0.3594
  166MOL0     C21813   7.353   5.580  10.692 -0.2849  0.1538  0.0381
  166MOL0     C21814   7.291   5.458  10.694 -0.2816 -0.2559 -0.2450
  166MOL0     O21815   7.158   5.452  10.664 -0.2165 -0.2099  0.0382
  166MOL0     C21816   7.082   5.338  10.701  0.6212  0.1675  0.2667
  166MOL0     C21817   6.936   5.389  10.729 -1.0123 -0.0226 -0.6435
  166MOL0     C21818   6.839   5.269  10.761 -0.2628  0.5896 -1.0971
  166MOL0     C21819   6.703   5.330  10.796  0.0287 -0.1528 -0.2141
  166MOL0     C21820   6.604   5.219  10.814  0.4376  0.9342 -0.1459
  166MOL0     C21821   6.459   5.253  10.782  1.1748  0.5482 -0.4870
  166MOL0     C21822   6.368   5.126  10.780 -0.3572  1.0184 -0.3628
  166MOL0     C21823   6.219   5.161  10.764 -0.7615  0.1281  0.0059
  166MOL0    Cl21824   6.143   5.232  10.907  0.2238  0.6751 -0.1689
  166MOL0     C21825   7.370   5.339  10.719  0.4226  0.4154  0.3306
  166MOL0     C21826   7.509   5.354  10.766  0.2709  0.1900 -0.4878
  166MOL0     O21827   7.755   5.336  10.921 -0.0630  0.4134 -0.6766
  166MOL0     C21828   7.948   5.627  10.856  0.0761 -0.7593 -0.7484
  166MOL0     C21829   8.081   5.679  10.868 -0.0761  0.7600 -0.3956
  166MOL0     N21830   8.636   5.845  10.612 -0.4294 -0.5049  0.7524
  166MOL0     N21831   8.747   5.811  10.566 -0.6082  0.2271 -0.4157
  166MOL0     C21832   9.586   5.116  11.046  0.2056 -0.2265 -0.8768
  166MOL0     C21833   9.696   5.029  11.091  0.4876 -0.2236  0.1608
  166MOL0     C21834  10.064   4.827  11.186 -0.1267 -0.6163 -0.5046
  166MOL0     C21835  10.056   4.696  11.154 -0.2007  0.6222  0.3277
  166MOL0     C21836  10.169   4.620  11.187  0.5030  0.4635  1.0368
  166MOL0     C21837  10.276   4.668  11.248 -0.4496 -0.1922 -0.6628
  166MOL0     O21838  10.379   4.586  11.301  0.3643 -0.1295  0.9692
  166MOL0     C21839  10.381   4.444  11.272 -1.2603  0.3725  0.7147
  166MOL0     C21840  10.530   4.397  11.299 -0.4907  0.9355  0.1861
  166MOL0     C21841  10.633   4.478  11.217  0.3554 -0.8838  0.6297
  166MOL0     C21842  10.781   4.427  11.232  0.5584 -0.4590  0.0580
  166MOL0     C21843  10.811   4.304  11.152 -0.3725 -0.7958  0.8319
  166MOL0     C21844  10.825   4.215  11.076 -0.2399  0.4726 -0.2011
  166MOL0     C21845  10.289   4.804  11.277  0.4560  1.2750 -0.5842
  166MOL0     C21846  10.181   4.878  11.248 -0.0961 -0.8182 -0.1802
  166MOL0     H21847   9.867   4.990  10.805  1.3664 -0.3148  2.0161
  166MOL0     H21848   9.694   5.148  10.722 -0.6078 -1.9508 -0.6080
  166MOL0     H21849   9.347   5.314  10.994  0.2471 -0.2984 -0.9006
  166MOL0     H21850   9.338   5.143  10.943  0.4121 -0.7651  0.0088
  166MOL0     H21851   9.166   5.265  10.824  0.4603  0.0932  1.0866
  166MOL0     H21852   9.301   5.232  10.703  4.1448  1.3869  0.6904
  166MOL0     H21853   9.388   5.450  10.729  1.5562 -1.9926  1.6891
  166MOL0     H21854   9.281   5.495  10.854 -0.8616 -0.2143  0.0448
  166MOL0     H21855   9.203   5.445  10.564  1.0129 -0.2545  0.2242
  166MOL0     H21856   9.084   5.463  10.682  1.0969 -5.0408 -0.5704
  166MOL0     H21857   9.300   5.664  10.619  0.5532  1.6987  1.5498
  166MOL0     H21858   9.195   5.691  10.750 -0.6475  0.4111 -0.8182
  166MOL0     H21859   8.985   5.664  10.607  0.6568 -1.2881  0.0999
  166MOL0     H21860   9.086   5.674  10.468 -4.0204 -1.9274  1.3413
  166MOL0     H21861   9.081   5.904  10.677  0.9260 -2.1886  0.7922
  166MOL0     H21862   9.181   5.884  10.538  0.5230 -3.2822  1.3614
  166MOL0     H21863   8.937   5.891  10.419 -0.5381 -0.7874  0.8781
  166MOL0     H21864   8.980   6.030  10.512 -1.4940 -0.1293 -2.3469
  166MOL0     H21865   8.821   6.090  10.723  0.9858  0.4559  0.9515
  166MOL0     H21866   8.439   5.970  10.717 -1.2931 -0.2448  1.4054
  166MOL0     H21867   8.532   6.114  10.743 -0.9887  0.4470 -0.0175
  166MOL0     H21868   8.441   6.021  10.939 -1.7251 -1.0553 -2.3324
  166MOL0     H21869   8.612   5.989  10.966 -1.8117  1.5427  0.0109
  166MOL0     H21870   8.550   5.756  10.839 -1.3363  0.9813 -1.3669
  166MOL0     H21871   8.505   5.777  11.010 -1.0577 -0.3591 -0.0715
  166MOL0     H21872   8.320   5.778  10.761 -2.8648 -3.4124  0.8993
  166MOL0     H21873   8.275   5.850  10.916 -1.1732 -0.9176 -0.7029
  166MOL0     H21874   8.242   5.410  10.993 -0.7663 -1.7798 -2.1161
  166MOL0     H21875   8.011   5.326  11.005 -1.1835  0.9471  3.2909
  166MOL0     H21876   7.521   5.696  10.744  0.3160  0.1621  1.2379
  166MOL0     H21877   7.298   5.671  10.666  2.3774  1.7178 -0.4847
  166MOL0     H21878   7.117   5.285  10.790 -3.6310  1.8585  3.2754
  166MOL0     H21879   7.081   5.274  10.613 -0.9007  0.8446 -0.2361
  166MOL0     H21880   6.898   5.454  10.650  2.6696  1.5961 -1.3318
  166MOL0     H21881   6.948   5.461  10.811 -1.4937  1.8791 -2.1643
  166MOL0     H21882   6.876   5.206  10.842  3.2396  1.5463 -1.7912
  166MOL0     H21883   6.847   5.219  10.664  0.5917  0.4420 -0.9560
  166MOL0     H21884   6.711   5.381  10.892  0.1729 -2.2863  0.9571
  166MOL0     H21885   6.681   5.404  10.718 -0.1745  0.3750  0.3390
  166MOL0     H21886   6.606   5.179  10.916 -0.6802 -1.0433 -0.8428
  166MOL0     H21887   6.622   5.130  10.752 -1.5562 -0.6410  1.3666
  166MOL0     H21888   6.440   5.300  10.685  2.2610 -0.3973 -1.1846
  166MOL0     H21889   6.437   5.326  10.860  1.9581  0.8568 -0.5376
  166MOL0     H21890   6.393   5.056  10.700 -1.0850 -1.7045  1.6498
  166MOL0     H21891   6.396   5.069  10.869  4.3210 -2.2204 -3.4708
  166MOL0     H21892   6.162   5.076  10.725 -2.4415  0.6751  1.1616
  166MOL0     H21893   6.222   5.234  10.683  7.8069  0.9978  0.2314
  166MOL0     H21894   7.341   5.235  10.708  1.9763 -0.2621  2.0233
  166MOL0     H21895   7.569   5.265  10.781  1.7288  1.3207  0.6807
  166MOL0     H21896   7.869   5.692  10.821  0.1328 -0.4132 -0.2430
  166MOL0     H21897   8.104   5.781  10.837 -0.6358  1.5533  1.6607
  166MOL0     H21898   9.529   5.156  11.130  1.0794  2.6003 -1.5077
  166MOL0     H21899   9.697   4.985  11.190 -1.6607 -0.2707  0.2093
  166MOL0     H21900   9.970   4.655  11.102  1.9013 -2.3217 -1.0755
  166MOL0     H21901  10.146   4.515  11.172 -3.1947  1.3560 -0.7050
  166MOL0     H21902  10.354   4.431  11.167 -0.2204 -2.4175  0.7324
  166MOL0     H21903  10.304   4.398  11.333 -3.1383  2.0650 -0.2493
  166MOL0     H21904  10.551   4.414  11.405  3.8265  3.4653 -0.8607
  166MOL0     H21905  10.559   4.295  11.273  0.4523  1.7212 -2.1419
  166MOL0     H21906  10.632   4.583  11.250 -0.6134 -0.2367 -1.3206
  166MOL0     H21907  10.612   4.463  11.111 -2.1021  0.6215  0.8287
  166MOL0     H21908  10.834   4.516  11.197 -1.9801  1.4394  0.7517
  166MOL0     H21909  10.800   4.401  11.337  0.7834  0.2223  0.1935
  166MOL0     H21910  10.849   4.152  10.992  1.7908  1.0549 -0.1142
  166MOL0     H21911  10.377   4.836  11.332 -0.3287 -0.4377  1.8413
  166MOL0     H21912  10.210   4.980  11.269  3.8581 -1.8251  0.0675
  167MOL0     O21913   3.447   1.783   8.827  0.0937  0.0590 -1.0470
  167MOL0     C21914   3.513   1.680   8.818  0.8852 -0.0944  0.6529
  167MOL0     O21915   3.453   1.560   8.804 -0.7497 -0.0029  0.2770
  167MOL0     C21916   3.319   1.550   8.773  0.1314 -0.2828  0.2805
  167MOL0     C21917   3.247   1.474   8.857 -0.3683  0.8430 -0.3629
  167MOL0     C21918   3.111   1.456   8.848 -0.1902 -0.0103  0.6725
  167MOL0     C21919   3.042   1.514   8.743  0.5545 -0.0331  0.1371
  167MOL0     O21920   2.920   1.472   8.714  0.2139 -0.3139  0.5372
  167MOL0     C21921   2.917   1.409   8.586 -0.3055 -0.3647 -0.0621
  167MOL0     C21922   2.783   1.320   8.578 -0.3588 -0.1182  0.3024
  167MOL0     C21923   2.653   1.396   8.580 -0.8283  0.2492 -0.9488
  167MOL0     C21924   2.529   1.311   8.560  0.6557  0.0027 -0.8423
  167MOL0     C21925   2.403   1.399   8.557 -0.9218 -0.1347 -0.1255
  167MOL0     C21926   2.290   1.309   8.504  0.8420 -0.1588  0.0014
  167MOL0     C21927   2.165   1.398   8.488  0.0386  0.5995 -0.1299
  167MOL0     C21928   2.034   1.317   8.459 -0.5891  0.3008 -0.1492
  167MOL0     N21929   1.924   1.417   8.452 -0.6872  0.2838  0.3340
  167MOL0     C21930   1.882   1.466   8.332  0.0763  1.3074  0.6443
  167MOL0     C21931   1.762   1.523   8.354  0.6228  0.9898 -0.6069
  167MOL0     C21932   1.671   1.596   8.255 -0.4909  0.9303  0.9251
  167MOL0     C21933   1.522   1.563   8.276 -0.0178  0.1009  0.4376
  167MOL0     C21934   1.495   1.417   8.242  0.1012  0.2834  1.5939
  167MOL0     C21935   1.345   1.392   8.235 -0.2358 -0.5303 -0.0709
  167MOL0     O21936   1.318   1.251   8.209 -0.7882 -0.7013  0.1590
  167MOL0     C21937   1.195   1.211   8.172 -0.8652 -0.1921 -0.7728
  167MOL0     C21938   1.186   1.088   8.114  0.0749 -0.4426  0.0887
  167MOL0     C21939   1.060   1.022   8.087  0.0509 -0.9550  0.1071
  167MOL0     C21940   0.941   1.091   8.117  0.9834 -1.4031  0.2056
  167MOL0     C21941   0.806   1.050   8.073 -0.2574  0.2515 -0.4984
  167MOL0     O21942   0.781   0.922   8.033 -0.1475 -0.3248  0.9304
  167MOL0     C21943   0.659   0.876   7.983  0.0107 -0.4115  0.5424
  167MOL0     C21944   0.580   0.949   7.894 -0.9278  0.2828  0.0642
  167MOL0     C21945   0.460   0.905   7.854 -0.2727  1.2397 -0.2110
  167MOL0     C21946   0.412   0.773   7.893  0.3406 -0.3613  0.2988
  167MOL0     O21947   0.289   0.714   7.860 -0.2884 -0.0233 -0.8584
  167MOL0     C21948   0.232   0.757   7.738  0.3312 -0.4439  0.3798
  167MOL0     C21949   0.114   0.672   7.690  0.5275 -0.5178 -0.0875
  167MOL0     C21950   0.055   0.694   7.553  0.1319  0.6195 -1.1119
  167MOL0     C21951  -0.031   0.826   7.546  1.1404  0.4941  0.5963
  167MOL0     C21952  -0.118   0.815   7.422  0.2993 -0.0318  0.3388
  167MOL0     C21953  -0.199   0.943   7.405  0.0411  0.0633 -0.4303
  167MOL0     C21954  -0.305   0.963   7.516 -0.3290  0.4840 -0.6796
  167MOL0     C21955  -0.394   1.078   7.479 -0.2280  0.5850  0.7392
  167MOL0    Cl21956  -0.535   1.109   7.591 -0.0463 -0.0009 -0.1134
  167MOL0     C21957   0.484   0.718   7.994 -0.3134  0.1500 -0.0348
  167MOL0     C21958   0.609   0.762   8.041  0.1476 -0.6636 -0.0353
  167MOL0     O21959   0.724   1.142   8.078  0.4135  0.6884  0.2240
  167MOL0     C21960   0.955   1.214   8.182 -0.0494 -0.5031  0.1943
  167MOL0     C21961   1.079   1.268   8.207  0.0066  0.2427  0.1651
  167MOL0     N21962   1.748   1.528   8.498 -0.4913 -0.1918 -0.3375
  167MOL0     N21963   1.830   1.448   8.547  0.0375 -0.1449  0.1912
  167MOL0     C21964   3.115   1.589   8.651  0.5536 -0.9374 -1.0770
  167MOL0     C21965   3.250   1.618   8.671  0.8927 -0.7575  0.3810
  167MOL0     C21966   3.660   1.695   8.839  0.0679  0.1260 -0.9057
  167MOL0     C21967   3.749   1.585   8.826  0.0717  0.2332  0.1418
  167MOL0     C21968   3.889   1.606   8.851 -0.3743 -0.6088 -0.2630
  167MOL0     C21969   3.945   1.728   8.898  0.5924  0.0411  0.5379
  167MOL0     O21970   4.084   1.734   8.926  0.6601  0.2697  0.1112
  167MOL0     C21971   4.145   1.864   8.946 -0.2897  0.0136 -0.4073
  167MOL0     C21972   4.290   1.846   8.967  0.4266  0.0743 -0.6558
  167MOL0     C21973   4.356   1.981   8.964 -0.0371  0.0916 -0.4012
  167MOL0     C21974   4.510   1.983   8.962  0.1662 -0.0863  0.1736
  167MOL0     C21975   4.562   1.862   8.914 -0.6852 -0.6454 -0.4160
  167MOL0     C21976   4.609   1.757   8.861 -0.6850  0.3263 -0.5348
  167MOL0     C21977   3.853   1.842   8.907 -0.7053 -1.0461  0.4114
  167MOL0     C21978   3.710   1.821   8.884  0.0149 -0.4532  0.3911
  167MOL0     H21979   3.308   1.423   8.931  0.6621  0.5900 -1.3546
  167MOL0     H21980   3.070   1.393   8.926  0.6284 -0.4775  0.7302
  167MOL0     H21981   3.002   1.341   8.578 -1.0453 -1.3509  0.2661
  167MOL0     H21982   2.911   1.482   8.505  1.5569 -0.6273 -0.4786
  167MOL0     H21983   2.782   1.253   8.665  0.3115  0.6166  0.8964
  167MOL0     H21984   2.781   1.249   8.495  0.2994 -0.2339  0.3845
  167MOL0     H21985   2.657   1.458   8.490  1.1039  0.7768 -0.5428
  167MOL0     H21986   2.647   1.457   8.671 -0.8026 -1.0541 -0.0440
  167MOL0     H21987   2.543   1.256   8.466  2.7582 -0.7897 -0.1366
  167MOL0     H21988   2.514   1.240   8.641  2.9286  1.8324  1.3546
  167MOL0     H21989   2.418   1.485   8.493  0.4243  0.1274  0.5192
  167MOL0     H21990   2.382   1.439   8.657  1.0608  0.2765  0.1514
  167MOL0     H21991   2.264   1.235   8.580 -0.8452  2.2985  2.0367
  167MOL0     H21992   2.321   1.256   8.414  2.5611  3.9519 -2.1134
  167MOL0     H21993   2.155   1.456   8.581  0.0899 -0.2813  0.4322
  167MOL0     H21994   2.177   1.462   8.400  0.3194 -1.2529 -1.4896
  167MOL0     H21995   2.021   1.232   8.527  1.2908 -1.0204 -1.3370
  167MOL0     H21996   2.056   1.272   8.361 -2.7382 -2.3112  0.4413
  167MOL0     H21997   1.920   1.462   8.230 -0.0244  1.5657  0.5933
  167MOL0     H21998   1.706   1.574   8.154 -0.6425  1.6817  0.7000
  167MOL0     H21999   1.700   1.701   8.266  2.0533  0.4202 -0.2156
  167MOL0     H22000   1.470   1.632   8.209  0.6490 -1.8204 -2.2375
  167MOL0     H22001   1.501   1.589   8.380  2.7925 -0.2715  1.1770
  167MOL0     H22002   1.536   1.392   8.143 -3.8701  2.1677 -0.7704
  167MOL0     H22003   1.541   1.358   8.321 -2.1960 -1.4742  1.7312
  167MOL0     H22004   1.291   1.443   8.154 -2.3722 -1.7039  0.5185
  167MOL0     H22005   1.301   1.423   8.330  1.2410  2.8701 -0.3594
  167MOL0     H22006   1.282   1.055   8.075  0.3340 -0.6509  0.8980
  167MOL0     H22007   1.065   0.920   8.051  2.3090 -1.6369  2.0819
  167MOL0     H22008   0.614   1.047   7.861  0.9727  0.6591  2.7814
  167MOL0     H22009   0.393   0.969   7.797 -0.0534  1.8869  0.2544
  167MOL0     H22010   0.310   0.743   7.662  0.5416  2.0350  0.0535
  167MOL0     H22011   0.204   0.862   7.744  1.4608 -0.1982  2.4177
  167MOL0     H22012   0.040   0.696   7.766  2.4158  1.5134  1.2295
  167MOL0     H22013   0.142   0.567   7.681  2.1081 -0.1581  0.2613
  167MOL0     H22014  -0.022   0.617   7.539  1.0994 -0.9776  1.5615
  167MOL0     H22015   0.122   0.690   7.466 -3.2376 -3.0261 -3.9061
  167MOL0     H22016  -0.086   0.835   7.640  0.2658 -0.6188  0.2259
  167MOL0     H22017   0.029   0.917   7.535  1.8769 -0.0821 -0.3633
  167MOL0     H22018  -0.180   0.724   7.420  2.4388 -1.5951 -2.2209
  167MOL0     H22019  -0.054   0.821   7.333 -0.4605 -0.1226 -0.2215
  167MOL0     H22020  -0.256   0.941   7.311 -1.1231  0.4361  0.2432
  167MOL0     H22021  -0.126   1.024   7.403  1.3525 -0.9094  2.6341
  167MOL0     H22022  -0.365   0.874   7.537  2.1021 -0.8696  1.0033
  167MOL0     H22023  -0.264   0.999   7.611 -2.4262  1.8146 -0.2031
  167MOL0     H22024  -0.436   1.063   7.379  3.0994  1.3403 -0.9017
  167MOL0     H22025  -0.329   1.165   7.468  2.1700 -1.2384 -0.4108
  167MOL0     H22026   0.443   0.627   8.035  1.1095 -0.6219 -0.2484
  167MOL0     H22027   0.669   0.708   8.113 -0.4503 -0.8134  0.3483
  167MOL0     H22028   0.868   1.278   8.196  0.7092  0.3601  1.1077
  167MOL0     H22029   1.074   1.360   8.264  2.4858  0.0014  0.9088
  167MOL0     H22030   3.055   1.621   8.566 -1.2992 -2.8876 -0.5855
  167MOL0     H22031   3.299   1.681   8.597 -0.9269  1.1768  0.7269
  167MOL0     H22032   3.707   1.490   8.793 -0.9075  1.0109 -0.9288
  167MOL0     H22033   3.954   1.521   8.830 -1.6572 -1.2260 -2.0080
  167MOL0     H22034   4.099   1.918   9.030  1.8548  0.4844  0.5298
  167MOL0     H22035   4.123   1.928   8.859  2.6636  3.1263  0.8805
  167MOL0     H22036   4.294   1.793   9.063 -1.2366 -0.2830 -0.7689
  167MOL0     H22037   4.323   1.781   8.886  0.8612 -0.3982 -0.1153
  167MOL0     H22038   4.322   2.035   9.053 -1.6571  0.4107 -1.1779
  167MOL0     H22039   4.330   2.041   8.876  0.6308  1.6606  0.4351
  167MOL0     H22040   4.549   2.066   8.901 -2.2570 -0.4528 -2.0247
  167MOL0     H22041   4.558   2.004   9.058  3.7476  1.7831 -1.8100
  167MOL0     H22042   4.644   1.669   8.811 -2.3446  0.0640 -1.3136
  167MOL0     H22043   3.885   1.940   8.940  0.4287 -1.1596 -0.2759
  167MOL0     H22044   3.644   1.903   8.914  1.8637  0.3649  2.5417
  168MOL0     O22045   3.070  10.097   0.850  0.5626 -0.0563 -0.8934
  168MOL0     C22046   3.098  10.040   0.955 -0.4090  0.3433 -0.5320
  168MOL0     O22047   3.002   9.994   1.043 -0.5499 -0.4218 -1.5813
  168MOL0     C22048   2.879  10.046   1.031  0.9213 -0.7383  0.1373
  168MOL0     C22049   2.797  10.001   0.919  0.3514 -0.0163 -0.0851
  168MOL0     C22050   2.664  10.032   0.904 -0.4755 -0.2682 -0.2662
  168MOL0     C22051   2.600  10.107   1.004  0.1913 -0.9710  0.4653
  168MOL0     O22052   2.468  10.153   1.002 -0.8650 -0.5621  0.0358
  168MOL0     C22053   2.393  10.169   0.881 -0.1143  0.9855  0.4767
  168MOL0     C22054   2.320  10.296   0.903 -0.3630 -0.4590  0.2886
  168MOL0     C22055   2.210  10.266   1.005 -0.3620  0.1411  0.6649
  168MOL0     C22056   2.142  10.401   1.058 -0.1890  0.9834 -0.2053
  168MOL0     C22057   2.002  10.369   1.116 -0.4102 -0.3165  0.1613
  168MOL0     C22058   2.002  10.269   1.232 -0.2810 -0.5448  1.3965
  168MOL0     C22059   1.872  10.211   1.265 -0.0367 -0.4839  0.3225
  168MOL0     C22060   1.852  10.174   1.409 -0.2298 -0.4550 -0.1897
  168MOL0     N22061   1.711  10.137   1.430  0.3594  0.8321 -0.0897
  168MOL0     C22062   1.636  10.064   1.343  0.1089 -0.2799  0.2178
  168MOL0     C22063   1.508  10.057   1.398  0.5103  0.5533  0.6846
  168MOL0     C22064   1.399   9.987   1.337 -0.5659  0.1443 -0.5106
  168MOL0     C22065   1.345  10.034   1.204  0.3377 -0.5804  0.0838
  168MOL0     C22066   1.230   9.949   1.146 -0.9680 -0.9749  0.5110
  168MOL0     C22067   1.095   9.983   1.217 -0.4999  0.3948 -0.5553
  168MOL0     O22068   0.999   9.903   1.167  0.0577 -0.2108  0.0204
  168MOL0     C22069   0.867   9.912   1.202 -0.0676 -0.6220 -0.1473
  168MOL0     C22070   0.821  10.012   1.289 -0.5983  0.3145  0.4075
  168MOL0     C22071   0.699   9.992   1.351  0.4182 -0.5401  0.2374
  168MOL0     C22072   0.606   9.905   1.315 -0.5566 -0.2713 -0.8746
  168MOL0     C22073   0.468   9.911   1.360 -0.3625 -0.7827  0.0587
  168MOL0     O22074   0.377   9.845   1.285 -0.5508 -0.2800 -0.1148
  168MOL0     C22075   0.241   9.883   1.305  0.4421 -0.6395 -0.6585
  168MOL0     C22076   0.186  10.011   1.348 -0.2930  0.8614  0.8758
  168MOL0     C22077   0.054  10.027   1.365 -1.1194  0.3604 -1.0953
  168MOL0     C22078  -0.036   9.913   1.358  0.2094 -0.3060  0.1986
  168MOL0     O22079  -0.171   9.908   1.385 -0.0404  0.2519 -0.4202
  168MOL0     C22080  -0.233  10.039   1.410 -0.7389  0.4440  0.0347
  168MOL0     C22081  -0.375  10.012   1.442 -0.0993 -0.0859 -0.1873
  168MOL0     C22082  -0.454  10.127   1.505  0.2001  0.1281 -0.7407
  168MOL0     C22083  -0.586  10.086   1.574 -0.6967 -0.1807 -0.1243
  168MOL0     C22084  -0.667  10.212   1.614  0.0971 -0.1515  0.9920
  168MOL0     C22085  -0.775  10.179   1.718  0.0304 -0.5948 -0.9371
  168MOL0     C22086  -0.802  10.302   1.807  1.0573  0.0809 -0.3091
  168MOL0     C22087  -0.928  10.316   1.891  0.1321  0.5882  0.6551
  168MOL0    Cl22088  -1.056  10.352   1.769  0.0986 -0.4221 -0.0926
  168MOL0     C22089   0.016   9.794   1.309  0.3804  0.1495 -0.3522
  168MOL0     C22090   0.146   9.784   1.273  0.2557 -0.9357 -1.2463
  168MOL0     O22091   0.447   9.971   1.468  0.2676  0.3061  0.0778
  168MOL0     C22092   0.642   9.808   1.223 -0.6186 -0.0630  1.1393
  168MOL0     C22093   0.776   9.812   1.165  0.3333  1.2335 -0.9444
  168MOL0     N22094   1.511  10.133   1.516  0.5714  0.0216  0.3216
  168MOL0     N22095   1.631  10.183   1.531  0.2850 -0.5079  0.7892
  168MOL0     C22096   2.670  10.146   1.119 -0.0154  0.4192  0.5061
  168MOL0     C22097   2.809  10.122   1.127 -0.2264  0.1003 -0.6456
  168MOL0     C22098   3.238  10.021   0.993 -0.6757  0.2351  0.9534
  168MOL0     C22099   3.274   9.964   1.108  0.7510  0.3461  0.0592
  168MOL0     C22100   3.411   9.955   1.143  0.3087  0.2115  1.1885
  168MOL0     C22101   3.512  10.011   1.060  0.0578 -1.4012  0.8550
  168MOL0     O22102   3.650  10.004   1.090  0.2208  0.0280  0.2384
  168MOL0     C22103   3.704   9.875   1.120 -0.2874 -0.0340 -1.1211
  168MOL0     C22104   3.857   9.891   1.124 -1.3329  0.0459 -1.1726
  168MOL0     C22105   3.898   9.940   1.263 -0.9508 -0.3083 -0.3058
  168MOL0     C22106   4.057   9.920   1.289 -0.2597 -0.3784  0.1605
  168MOL0     C22107   4.109   9.999   1.401  0.1487  0.2493 -0.0342
  168MOL0     C22108   4.151  10.061   1.498 -1.1606  0.5641 -0.8371
  168MOL0     C22109   3.478  10.070   0.937  0.9474 -0.4400 -0.2760
  168MOL0     C22110   3.337  10.082   0.907 -0.0765  0.4710  0.0170
  168MOL0     H22111   2.841   9.945   0.837  3.6444  1.7191  0.3274
  168MOL0     H22112   2.604   9.999   0.820 -1.1118 -0.1965  0.1512
  168MOL0     H22113   2.339  10.078   0.854  2.3521 -0.1887 -0.8552
  168MOL0     H22114   2.458  10.176   0.793  0.4470  4.5699  1.0282
  168MOL0     H22115   2.278  10.333   0.809 -3.0406 -1.0474  1.1671
  168MOL0     H22116   2.387  10.373   0.942  1.2096 -0.9764 -1.2812
  168MOL0     H22117   2.247  10.209   1.092 -0.2987  0.5541  0.9084
  168MOL0     H22118   2.141  10.199   0.953  1.4298 -1.2276 -0.0751
  168MOL0     H22119   2.216  10.433   1.132 -0.9255  1.0618  0.5028
  168MOL0     H22120   2.140  10.471   0.974 -0.4777 -0.3831 -1.3738
  168MOL0     H22121   1.954  10.318   1.032  1.2056  0.9762 -1.6342
  168MOL0     H22122   1.951  10.460   1.149 -1.3148 -0.7391 -0.0513
  168MOL0     H22123   2.038  10.324   1.319  0.4859 -0.9977  1.3690
  168MOL0     H22124   2.074  10.188   1.224  0.8718  0.3269  2.6275
  168MOL0     H22125   1.795  10.285   1.241  0.0258 -0.7023 -0.5716
  168MOL0     H22126   1.848  10.125   1.201 -1.9153  2.0571 -2.6514
  168MOL0     H22127   1.887  10.251   1.478 -2.0786  0.4949 -0.2729
  168MOL0     H22128   1.918  10.088   1.426 -2.0367 -3.0179 -4.4593
  168MOL0     H22129   1.670  10.005   1.259 -1.0317  1.3658 -1.4695
  168MOL0     H22130   1.323   9.982   1.416  0.1316 -0.2306  0.1545
  168MOL0     H22131   1.427   9.887   1.305 -0.5592  1.4661 -5.3982
  168MOL0     H22132   1.424  10.022   1.130  1.5216 -1.1339  1.3777
  168MOL0     H22133   1.314  10.138   1.216  3.8083  0.5070  0.9615
  168MOL0     H22134   1.212   9.980   1.043 -0.5759 -4.4454 -0.7295
  168MOL0     H22135   1.246   9.841   1.153 -2.1908 -1.4088 -2.2143
  168MOL0     H22136   1.074  10.090   1.209 -1.7279  0.1041 -1.4797
  168MOL0     H22137   1.122   9.953   1.319  0.8079 -2.4208 -1.6186
  168MOL0     H22138   0.873  10.099   1.326 -0.7334  0.6224 -0.1066
  168MOL0     H22139   0.677  10.069   1.424  1.2856 -1.0971  1.1057
  168MOL0     H22140   0.259  10.088   1.372 -0.4413  1.2382  0.1659
  168MOL0     H22141   0.031  10.126   1.404 -0.3671  1.0166 -2.2561
  168MOL0     H22142  -0.225  10.116   1.333 -0.5769  1.8113  1.3683
  168MOL0     H22143  -0.181  10.074   1.500 -2.9474  1.6980  0.9173
  168MOL0     H22144  -0.390   9.923   1.503 -2.5744 -1.6537 -2.8003
  168MOL0     H22145  -0.421   9.991   1.345  1.7760  0.9700 -1.3745
  168MOL0     H22146  -0.485  10.200   1.430  0.4726  1.0343  0.0065
  168MOL0     H22147  -0.379  10.179   1.566  0.9222 -1.2346 -0.4021
  168MOL0     H22148  -0.638  10.021   1.503 -0.1248  0.8981 -1.5885
  168MOL0     H22149  -0.560  10.033   1.666  4.8745 -0.6571 -1.5771
  168MOL0     H22150  -0.708  10.223   1.513  2.1316  1.8783  0.2845
  168MOL0     H22151  -0.595  10.290   1.642  1.5202 -0.8999 -0.3971
  168MOL0     H22152  -0.749  10.100   1.789 -0.8975 -1.5216 -1.6015
  168MOL0     H22153  -0.869  10.146   1.671 -1.2027 -1.7147  2.0454
  168MOL0     H22154  -0.721  10.299   1.880 -0.2741  2.5504  1.4009
  168MOL0     H22155  -0.798  10.388   1.739 -2.7413 -0.1853 -1.0795
  168MOL0     H22156  -0.917  10.402   1.956 -3.1101  3.0029 -1.6790
  168MOL0     H22157  -0.956  10.219   1.934  1.1811  0.3102  0.7407
  168MOL0     H22158  -0.046   9.708   1.289  3.6796 -2.5298 -0.0761
  168MOL0     H22159   0.181   9.685   1.243  4.0168 -0.5982  1.2809
  168MOL0     H22160   0.575   9.739   1.172  1.8557  0.1366 -2.8486
  168MOL0     H22161   0.800   9.729   1.100 -0.6331  1.3749 -1.4944
  168MOL0     H22162   2.633  10.209   1.199  1.3081  0.6865  0.9359
  168MOL0     H22163   2.870  10.153   1.212  1.7366  1.3343 -2.3934
  168MOL0     H22164   3.200   9.927   1.178  0.3464  0.7043 -0.1765
  168MOL0     H22165   3.435   9.911   1.239 -3.7275  5.1007  5.0051
  168MOL0     H22166   3.680   9.805   1.039  0.9341  0.4635 -1.9478
  168MOL0     H22167   3.667   9.839   1.217 -3.1992  0.5003 -1.9402
  168MOL0     H22168   3.893   9.789   1.111 -2.3081 -0.5936  0.7649
  168MOL0     H22169   3.897   9.952   1.042  3.3359  0.2408  0.9471
  168MOL0     H22170   3.835   9.878   1.327 -1.8011  0.4465 -0.3738
  168MOL0     H22171   3.865  10.044   1.273  1.4706  0.8918 -3.2685
  168MOL0     H22172   4.088   9.816   1.299  1.8350  0.0549 -1.2324
  168MOL0     H22173   4.110   9.953   1.200  1.3845 -1.4538  0.7033
  168MOL0     H22174   4.183  10.106   1.589  0.1471  2.0015 -1.9575
  168MOL0     H22175   3.552  10.123   0.878 -1.5495  1.4343 -1.9200
  168MOL0     H22176   3.313  10.134   0.814 -0.3280 -0.7923 -0.6432
  169MOL0     O22177   5.205   7.509  10.244 -0.2152 -0.3493 -0.2192
  169MOL0     C22178   5.267   7.404  10.215 -0.7569 -1.1740  0.6399
  169MOL0     O22179   5.215   7.280  10.214  0.4766 -0.7158 -0.5341
  169MOL0     C22180   5.085   7.255  10.242  1.0042 -0.0455 -0.6599
  169MOL0     C22181   4.972   7.329  10.198  0.2318  0.1172 -0.2446
  169MOL0     C22182   4.839   7.291  10.228  0.1280  0.0293 -0.1726
  169MOL0     C22183   4.814   7.165  10.292  0.5774 -0.3983  0.0093
  169MOL0     O22184   4.685   7.129  10.316  0.2289 -0.4911 -0.4660
  169MOL0     C22185   4.632   7.064  10.204  0.0697 -0.6555  0.1533
  169MOL0     C22186   4.492   7.118  10.179  0.9450  0.7237  0.0447
  169MOL0     C22187   4.430   7.027  10.073 -0.8130  0.2919 -0.6590
  169MOL0     C22188   4.283   7.065  10.046 -0.3417  0.5499 -0.0117
  169MOL0     C22189   4.241   7.008   9.911  0.2588 -0.4727 -0.2421
  169MOL0     C22190   4.091   6.974   9.899  0.1587  0.1723  0.6363
  169MOL0     C22191   4.013   7.096   9.875  0.8608 -0.9112 -0.2866
  169MOL0     C22192   3.876   7.046   9.808 -0.0280 -0.9887  0.0104
  169MOL0     N22193   3.765   7.148   9.832  0.8769  0.0262 -0.5071
  169MOL0     C22194   3.714   7.227   9.746  0.1057  0.4909  0.4680
  169MOL0     C22195   3.618   7.303   9.807  0.2016 -0.5689  0.6610
  169MOL0     C22196   3.543   7.408   9.743 -0.1180 -0.0668  0.9404
  169MOL0     C22197   3.391   7.406   9.734 -0.0505  0.4276 -0.8064
  169MOL0     C22198   3.350   7.289   9.634 -0.1207 -0.0793 -0.5395
  169MOL0     C22199   3.225   7.214   9.675  0.2378 -0.1650 -0.1209
  169MOL0     O22200   3.114   7.303   9.680 -0.5538  0.1150  0.6366
  169MOL0     C22201   2.990   7.234   9.693 -0.9780 -0.9218 -0.3809
  169MOL0     C22202   2.889   7.326   9.697  0.9394  0.3550  0.1070
  169MOL0     C22203   2.755   7.278   9.717  0.2614 -0.3861  1.4728
  169MOL0     C22204   2.725   7.148   9.719 -0.4754  0.5045 -0.3230
  169MOL0     C22205   2.582   7.112   9.750  0.2095 -0.0328 -0.2198
  169MOL0     O22206   2.551   7.003   9.833 -0.3264 -0.1323 -0.2237
  169MOL0     C22207   2.421   6.975   9.865 -0.3425  0.0159  0.0903
  169MOL0     C22208   2.380   6.841   9.871 -0.0481 -0.0872  0.1605
  169MOL0     C22209   2.248   6.813   9.908 -0.3706 -0.1839 -0.2730
  169MOL0     C22210   2.161   6.902   9.954  0.0387 -0.2962 -0.5476
  169MOL0     O22211   2.027   6.871   9.986  1.1840 -0.5105 -0.3162
  169MOL0     C22212   2.013   6.874  10.134  0.1158 -0.6551  0.2168
  169MOL0     C22213   1.948   6.742  10.179 -0.9392 -0.8265  0.1813
  169MOL0     C22214   1.797   6.740  10.156 -0.0951  0.0132  0.6935
  169MOL0     C22215   1.715   6.848  10.217  0.0067 -0.0238 -0.2072
  169MOL0     C22216   1.566   6.836  10.236  0.1637 -1.0691 -0.6164
  169MOL0     C22217   1.519   6.943  10.335 -0.2370 -0.2580  0.0967
  169MOL0     C22218   1.379   6.916  10.405 -0.2108  0.2028  0.2135
  169MOL0     C22219   1.268   6.965  10.322  0.8169 -0.1188  0.2728
  169MOL0    Cl22220   1.115   6.967  10.416 -0.1501 -0.0616  0.0232
  169MOL0     C22221   2.207   7.036   9.962  0.5059  0.5171  0.0325
  169MOL0     C22222   2.332   7.073   9.911  0.6932 -0.0495  0.2199
  169MOL0     O22223   2.498   7.182   9.692 -0.3406 -0.9673  0.0317
  169MOL0     C22224   2.833   7.058   9.733  0.4002  0.3790  0.3030
  169MOL0     C22225   2.966   7.100   9.714  0.3143  1.2986  0.9051
  169MOL0     N22226   3.621   7.265   9.934  0.6068 -0.8527 -0.2240
  169MOL0     N22227   3.709   7.172   9.955  1.2996 -0.1065  0.2946
  169MOL0     C22228   4.930   7.087  10.331  0.7139 -0.0820  0.3829
  169MOL0     C22229   5.058   7.127  10.305 -0.7793 -0.5496  0.2483
  169MOL0     C22230   5.410   7.433  10.173  0.1684  0.2634 -1.1911
  169MOL0     C22231   5.500   7.333  10.132  0.1324  0.2636  0.3187
  169MOL0     C22232   5.625   7.378  10.093 -0.9780 -0.3956 -1.1102
  169MOL0     C22233   5.673   7.508  10.103 -0.8041 -0.1908  0.1446
  169MOL0     O22234   5.805   7.532  10.063  0.0179  0.9110 -0.4707
  169MOL0     C22235   5.905   7.431  10.045 -0.3361  0.0465 -0.5391
  169MOL0     C22236   6.042   7.491  10.000 -0.4575  0.5838 -1.0875
  169MOL0     C22237   6.149   7.377  10.026 -1.2350 -0.0001 -1.0194
  169MOL0     C22238   6.279   7.411   9.939 -0.5183  0.1054 -0.4796
  169MOL0     C22239   6.403   7.334   9.954  0.4067  0.0936 -1.4922
  169MOL0     C22240   6.513   7.280   9.962  0.2598 -0.2994  0.9243
  169MOL0     C22241   5.587   7.604  10.155  0.5766  0.3673  0.1645
  169MOL0     C22242   5.459   7.558  10.197  0.1086 -0.1715 -1.2283
  169MOL0     H22243   4.983   7.429  10.157 -1.7558  1.6067  2.4588
  169MOL0     H22244   4.748   7.345  10.200 -0.6291 -0.4201  1.2992
  169MOL0     H22245   4.636   6.955  10.210 -1.0302 -0.6862  0.6206
  169MOL0     H22246   4.687   7.070  10.110 -0.9054 -2.5468 -0.5898
  169MOL0     H22247   4.485   7.222  10.145  1.7799  0.7451 -0.0772
  169MOL0     H22248   4.430   7.110  10.269  0.1774  3.7785 -0.1049
  169MOL0     H22249   4.433   6.923  10.105 -4.2852  0.4951  0.8493
  169MOL0     H22250   4.492   7.036   9.984  0.9689  2.4114  0.7120
  169MOL0     H22251   4.213   7.026  10.120  1.4423  0.8226  1.8945
  169MOL0     H22252   4.272   7.172  10.067  0.8513  0.6109  0.4105
  169MOL0     H22253   4.299   6.918   9.889  0.0979 -0.8588  0.8447
  169MOL0     H22254   4.274   7.081   9.837 -0.9746  0.2551 -0.1043
  169MOL0     H22255   4.051   6.920   9.985 -2.1568  1.3250  0.3518
  169MOL0     H22256   4.078   6.916   9.807  0.7218 -0.5849  1.0226
  169MOL0     H22257   4.001   7.143   9.973  2.0979 -1.8387  0.3391
  169MOL0     H22258   4.062   7.166   9.807 -0.4632 -1.6820 -2.1044
  169MOL0     H22259   3.834   6.949   9.836  1.6704 -1.7614 -0.0258
  169MOL0     H22260   3.909   7.032   9.705  1.9932  0.2031  0.4528
  169MOL0     H22261   3.750   7.222   9.644 -0.5117 -2.9423  0.2969
  169MOL0     H22262   3.574   7.419   9.639  0.8977  0.4661  1.2790
  169MOL0     H22263   3.576   7.496   9.800 -0.5722  0.7473 -0.0121
  169MOL0     H22264   3.360   7.505   9.700 -0.0258 -0.2709 -2.9931
  169MOL0     H22265   3.358   7.393   9.838 -1.9490  1.1656 -1.2827
  169MOL0     H22266   3.330   7.339   9.538  3.4028  2.1439 -0.3252
  169MOL0     H22267   3.431   7.217   9.623  0.0946  0.2223 -1.0009
  169MOL0     H22268   3.252   7.172   9.772 -0.0564 -3.1686 -1.2466
  169MOL0     H22269   3.215   7.136   9.600  0.3793  1.5365 -2.0128
  169MOL0     H22270   2.915   7.431   9.697 -0.7187  0.7948  0.5507
  169MOL0     H22271   2.682   7.358   9.723 -1.2648 -1.1880 -3.0183
  169MOL0     H22272   2.444   6.759   9.839 -1.2007 -0.1265 -2.1953
  169MOL0     H22273   2.221   6.708   9.909 -1.5753  0.0690 -1.7077
  169MOL0     H22274   1.965   6.966  10.167  1.7974  0.6374 -0.7457
  169MOL0     H22275   2.104   6.874  10.195 -1.6019  1.6701  3.0341
  169MOL0     H22276   1.968   6.726  10.285 -0.2167 -0.5758  0.0882
  169MOL0     H22277   1.997   6.662  10.123  1.7472  1.1993 -0.5866
  169MOL0     H22278   1.761   6.644  10.194  0.3836 -0.4546  0.0051
  169MOL0     H22279   1.771   6.742  10.049 -0.3736 -0.9540  0.7386
  169MOL0     H22280   1.767   6.879  10.308  1.8373 -0.5639 -1.0345
  169MOL0     H22281   1.725   6.938  10.155  2.4252  0.3214  0.5629
  169MOL0     H22282   1.552   6.735  10.274 -1.8560 -0.8467 -0.6801
  169MOL0     H22283   1.514   6.844  10.140 -1.6121 -1.7502  0.2435
  169MOL0     H22284   1.531   7.035  10.276  0.7655 -0.9685 -0.8608
  169MOL0     H22285   1.586   6.942  10.421 -0.9209 -0.9736  0.6365
  169MOL0     H22286   1.372   6.809  10.425  0.5561  0.4547  2.0187
  169MOL0     H22287   1.380   6.974  10.498 -1.8072  1.8187 -0.6968
  169MOL0     H22288   1.263   6.914  10.225  3.0274  0.3933 -0.1551
  169MOL0     H22289   1.295   7.070  10.309 -5.2743  1.8863  0.5164
  169MOL0     H22290   2.142   7.111  10.006 -0.8887 -0.1981 -0.7098
  169MOL0     H22291   2.363   7.177   9.919 -1.2837  0.7904 -1.8875
  169MOL0     H22292   2.819   6.952   9.748 -1.1610  0.7193  1.6278
  169MOL0     H22293   3.050   7.032   9.719 -0.7451 -0.5353 -2.6425
  169MOL0     H22294   4.916   6.987  10.372  1.6088 -0.3707  0.0197
  169MOL0     H22295   5.145   7.067  10.332  0.4295  0.0908 -1.9705
  169MOL0     H22296   5.463   7.234  10.110  1.6286 -0.2735  0.0793
  169MOL0     H22297   5.694   7.302  10.057 -3.4393 -2.8427 -1.0055
  169MOL0     H22298   5.874   7.354   9.973 -1.2634 -0.2461  0.1447
  169MOL0     H22299   5.916   7.375  10.138 -0.2084  1.2472  0.1888
  169MOL0     H22300   6.030   7.541   9.904  0.0785  1.4785 -0.7019
  169MOL0     H22301   6.079   7.577  10.057  1.5643 -0.2985 -0.9988
  169MOL0     H22302   6.113   7.276  10.009  1.8575 -1.3918  0.0439
  169MOL0     H22303   6.176   7.370  10.132 -0.2899  3.8404 -0.8321
  169MOL0     H22304   6.244   7.408   9.835 -0.2256 -3.0001 -0.5741
  169MOL0     H22305   6.299   7.514   9.970 -2.0807  0.8092 -1.6249
  169MOL0     H22306   6.606   7.233   9.989  0.1137 -0.4356  1.1961
  169MOL0     H22307   5.619   7.704  10.182  1.3943  0.1595 -0.0337
  169MOL0     H22308   5.401   7.630  10.254  0.0789 -1.3282  0.2462
  170MOL0     O22309   4.048   1.243   5.800  0.6949  0.5479  0.4235
  170MOL0     C22310   3.987   1.141   5.760  0.6197  0.3311 -0.1753
  170MOL0     O22311   4.045   1.030   5.720  0.1555 -0.3535  0.3386
  170MOL0     C22312   4.179   0.999   5.706  0.1631  0.0498 -0.1445
  170MOL0     C22313   4.232   0.913   5.609  1.2532  0.5974 -0.7227
  170MOL0     C22314   4.364   0.895   5.583  0.8728  0.1647  0.5059
  170MOL0     C22315   4.459   0.944   5.673  0.3344 -0.5037 -0.3070
  170MOL0     O22316   4.596   0.929   5.686  0.2930  0.1597 -0.0172
  170MOL0     C22317   4.651   0.818   5.612  0.5118 -0.2495 -0.1692
  170MOL0     C22318   4.794   0.811   5.631  0.3457 -1.0613  1.2150
  170MOL0     C22319   4.831   0.743   5.761  0.2453  0.6135 -0.2368
  170MOL0     C22320   4.982   0.743   5.796  0.6618 -0.2202  0.5691
  170MOL0     C22321   5.011   0.676   5.927  0.0324 -0.0030 -0.4788
  170MOL0     C22322   5.168   0.664   5.934  0.8083 -0.4653 -0.1757
  170MOL0     C22323   5.212   0.572   6.052 -0.0871  0.4418  0.3182
  170MOL0     C22324   5.358   0.595   6.081  0.0545  0.9984  0.7925
  170MOL0     N22325   5.406   0.508   6.191  0.3056 -0.0873 -0.7621
  170MOL0     C22326   5.370   0.518   6.321 -0.0012 -0.2726  0.6590
  170MOL0     C22327   5.457   0.436   6.381  0.3077 -0.2378  0.3893
  170MOL0     C22328   5.460   0.384   6.529 -0.5287 -0.0593  0.5411
  170MOL0     C22329   5.472   0.490   6.635  0.8383 -0.3667  0.7244
  170MOL0     C22330   5.496   0.429   6.773 -0.3165  0.2249  0.8271
  170MOL0     C22331   5.401   0.489   6.876 -0.2591  0.4045  0.1845
  170MOL0     O22332   5.262   0.469   6.836 -0.4644 -0.1494  0.0293
  170MOL0     C22333   5.165   0.544   6.897  0.4312  0.4322 -0.0729
  170MOL0     C22334   5.037   0.512   6.861 -0.9854 -0.6913  0.3293
  170MOL0     C22335   4.925   0.578   6.920 -0.0379 -0.6197  0.4407
  170MOL0     C22336   4.942   0.663   7.039  0.3778  0.3865 -0.4274
  170MOL0     C22337   4.829   0.722   7.108  0.1924  0.2217 -0.0869
  170MOL0     O22338   4.709   0.694   7.044  0.3366  0.1066  0.1800
  170MOL0     C22339   4.590   0.721   7.111 -0.3111 -0.2597  0.1002
  170MOL0     C22340   4.511   0.831   7.061  0.3629  0.3558  0.4565
  170MOL0     C22341   4.392   0.856   7.118 -0.3803 -0.5517 -1.1220
  170MOL0     C22342   4.338   0.783   7.229 -0.4663 -0.0348 -1.0084
  170MOL0     O22343   4.213   0.807   7.278 -0.6826 -0.5650 -0.4000
  170MOL0     C22344   4.108   0.723   7.243 -0.5919  0.5879 -0.3152
  170MOL0     C22345   3.998   0.768   7.332 -0.4741 -0.6245 -0.4209
  170MOL0     C22346   3.883   0.662   7.331  0.9755 -0.4553  0.3913
  170MOL0     C22347   3.749   0.720   7.381  0.9862  0.0894  0.2727
  170MOL0     C22348   3.650   0.607   7.403 -0.2191  0.1128 -0.2052
  170MOL0     C22349   3.607   0.537   7.273  0.3311  0.0870 -0.4204
  170MOL0     C22350   3.484   0.443   7.301 -0.4852  0.4872 -0.8909
  170MOL0     C22351   3.421   0.400   7.168 -0.9567 -0.1149 -0.3788
  170MOL0    Cl22352   3.340   0.549   7.094  0.3203  0.2793 -0.1216
  170MOL0     C22353   4.418   0.674   7.280 -0.6215  0.0256 -0.5853
  170MOL0     C22354   4.536   0.642   7.211  0.7816  0.1281 -0.6017
  170MOL0     O22355   4.850   0.774   7.219  0.4932 -0.0882  0.2930
  170MOL0     C22356   5.077   0.684   7.075 -0.1785  0.0126  0.1209
  170MOL0     C22357   5.184   0.621   7.011  0.5699  0.8046  0.1562
  170MOL0     N22358   5.530   0.374   6.283  0.3199 -1.0113 -0.6304
  170MOL0     N22359   5.493   0.413   6.171 -0.1729  0.4036  0.2066
  170MOL0     C22360   4.408   1.019   5.783 -0.2188 -0.6094  0.5768
  170MOL0     C22361   4.266   1.048   5.794 -1.2315 -0.6710  0.1482
  170MOL0     C22362   3.841   1.149   5.765 -0.1276  0.4702 -0.4450
  170MOL0     C22363   3.765   1.036   5.719  0.1214 -0.4179 -0.3939
  170MOL0     C22364   3.623   1.035   5.739 -0.2927  0.0970  0.3648
  170MOL0     C22365   3.557   1.149   5.800  0.0482 -0.3608  1.1112
  170MOL0     O22366   3.420   1.161   5.813 -0.8824 -0.2118  0.1496
  170MOL0     C22367   3.345   1.090   5.722 -0.2941  0.5174 -0.3460
  170MOL0     C22368   3.200   1.140   5.727 -0.3758  0.1435  0.7874
  170MOL0     C22369   3.108   1.039   5.785 -0.9304  0.2876 -0.7498
  170MOL0     C22370   3.077   0.917   5.696  0.3536  0.0232 -0.9124
  170MOL0     C22371   2.973   0.834   5.755  0.4872  1.0261  0.1265
  170MOL0     C22372   2.877   0.773   5.801 -1.1032  0.8129 -0.3926
  170MOL0     C22373   3.634   1.254   5.849 -0.1087 -0.0575 -0.5030
  170MOL0     C22374   3.777   1.249   5.839 -0.5144 -0.2012  0.1362
  170MOL0     H22375   4.157   0.856   5.554  1.0832 -1.7926  1.7711
  170MOL0     H22376   4.395   0.823   5.509  0.0134  0.1871  0.1067
  170MOL0     H22377   4.624   0.833   5.507  0.0022  0.2576  0.0269
  170MOL0     H22378   4.603   0.728   5.649 -0.4125  1.2338  2.5557
  170MOL0     H22379   4.847   0.907   5.630  1.5567 -1.6783  2.4566
  170MOL0     H22380   4.846   0.752   5.555  0.4164  0.4654  0.0253
  170MOL0     H22381   4.799   0.639   5.756  2.6398 -0.2005 -0.0972
  170MOL0     H22382   4.774   0.786   5.844 -0.2288 -1.5246  0.6094
  170MOL0     H22383   5.040   0.699   5.714  0.2544  0.6054 -0.1795
  170MOL0     H22384   5.021   0.845   5.806 -2.1332  1.1427 -1.1256
  170MOL0     H22385   4.970   0.575   5.911 -2.6694  1.3451 -3.0740
  170MOL0     H22386   4.962   0.712   6.017  2.6966  1.3670  0.5330
  170MOL0     H22387   5.215   0.762   5.951  2.1890 -1.5925  3.4819
  170MOL0     H22388   5.210   0.628   5.840 -1.2999 -1.9057 -0.6399
  170MOL0     H22389   5.146   0.587   6.137 -3.3804  2.5486 -2.3108
  170MOL0     H22390   5.202   0.468   6.021 -0.2952  0.6604 -0.3763
  170MOL0     H22391   5.369   0.699   6.111 -2.6722  1.1312  1.6044
  170MOL0     H22392   5.410   0.571   5.988  0.1051  2.7443  0.3430
  170MOL0     H22393   5.289   0.579   6.359 -0.4883  0.2670 -1.1594
  170MOL0     H22394   5.549   0.319   6.528  0.1938  0.9094  0.2254
  170MOL0     H22395   5.372   0.324   6.552 -1.0038  0.7789  0.9242
  170MOL0     H22396   5.386   0.556   6.624  2.5398  1.8377 -0.0205
  170MOL0     H22397   5.562   0.545   6.608  0.8013  0.1033  1.5179
  170MOL0     H22398   5.478   0.321   6.769 -1.3775  0.4083  0.4725
  170MOL0     H22399   5.601   0.440   6.802 -0.7255  2.6429  1.6204
  170MOL0     H22400   5.412   0.597   6.873 -0.0728  0.4057  0.8477
  170MOL0     H22401   5.419   0.450   6.976  0.8736 -2.8707 -1.1221
  170MOL0     H22402   5.029   0.446   6.775  2.4732  0.7566 -1.2718
  170MOL0     H22403   4.826   0.556   6.881 -0.3056 -0.1827  0.8682
  170MOL0     H22404   4.528   0.890   6.972  3.6037 -1.0394  0.0142
  170MOL0     H22405   4.326   0.930   7.074  1.3471  1.7939  0.0064
  170MOL0     H22406   4.146   0.621   7.240  0.9375  1.1281 -0.1161
  170MOL0     H22407   4.083   0.750   7.140 -0.3181 -2.5273 -1.2794
  170MOL0     H22408   3.974   0.873   7.313 -1.7760 -0.8157  0.0374
  170MOL0     H22409   4.031   0.772   7.436  0.0774 -0.0438 -0.6187
  170MOL0     H22410   3.916   0.577   7.392 -0.0975  0.7880  2.8309
  170MOL0     H22411   3.868   0.632   7.228  3.9356  0.9131 -0.5710
  170MOL0     H22412   3.771   0.774   7.473 -1.8787 -2.1583  2.4801
  170MOL0     H22413   3.712   0.787   7.303  0.7330  1.3061  1.4110
  170MOL0     H22414   3.559   0.653   7.442  0.1954  0.3216  0.5204
  170MOL0     H22415   3.677   0.528   7.473 -1.3222 -0.2068 -0.1167
  170MOL0     H22416   3.688   0.483   7.224 -2.6281 -3.5040 -1.8739
  170MOL0     H22417   3.577   0.625   7.215  3.2317 -0.3193 -2.7286
  170MOL0     H22418   3.518   0.355   7.357 -0.5792  0.1830 -1.3019
  170MOL0     H22419   3.408   0.483   7.368  1.9744  1.7338  1.3011
  170MOL0     H22420   3.355   0.315   7.188  0.9321 -0.9550  2.9037
  170MOL0     H22421   3.500   0.374   7.097 -1.5305 -2.5083 -0.2240
  170MOL0     H22422   4.391   0.611   7.364  2.9749 -1.9724 -0.7353
  170MOL0     H22423   4.605   0.567   7.247  3.4003  2.8962  0.6007
  170MOL0     H22424   5.106   0.754   7.153 -0.2003  2.3010 -1.7851
  170MOL0     H22425   5.289   0.638   7.034  0.5756 -0.9119  1.6257
  170MOL0     H22426   4.469   1.068   5.858  1.9656  0.1429 -1.5589
  170MOL0     H22427   4.244   1.106   5.882 -0.1290 -0.1577  0.0980
  170MOL0     H22428   3.812   0.948   5.676  3.1675  1.4820 -1.2770
  170MOL0     H22429   3.564   0.948   5.710  1.0244 -0.7971  0.3036
  170MOL0     H22430   3.345   0.983   5.745 -1.0531  0.8508  1.3255
  170MOL0     H22431   3.387   1.110   5.623  0.4846  0.9749  0.0709
  170MOL0     H22432   3.195   1.232   5.786  0.5671  0.1143  0.9243
  170MOL0     H22433   3.163   1.150   5.624  0.4934 -0.9712  0.3468
  170MOL0     H22434   3.018   1.098   5.805  0.5586  1.7934  2.1582
  170MOL0     H22435   3.150   1.007   5.881 -0.8969  2.8135  0.1541
  170MOL0     H22436   3.047   0.949   5.596  0.4806 -0.0722 -0.9806
  170MOL0     H22437   3.169   0.861   5.684  0.2354 -0.9149  1.8144
  170MOL0     H22438   2.802   0.707   5.839  0.0832 -0.1343  0.4044
  170MOL0     H22439   3.584   1.330   5.909  0.1568  1.3705 -2.0259
  170MOL0     H22440   3.832   1.326   5.892  0.5158 -0.3685 -0.6630
  171MOL0     O22441   8.548   0.457   2.829  0.3701 -0.6804  0.3386
  171MOL0     C22442   8.459   0.472   2.915  0.7585  0.1120  0.2355
  171MOL0     O22443   8.479   0.479   3.050 -0.0815 -0.5221  0.6311
  171MOL0     C22444   8.614   0.494   3.099 -0.1858  0.5134  0.3546
  171MOL0     C22445   8.704   0.378   3.122 -0.6034 -0.6931 -0.5122
  171MOL0     C22446   8.844   0.395   3.150 -0.1938  0.8719  0.2359
  171MOL0     C22447   8.899   0.523   3.135  0.4254 -0.3939 -0.2693
  171MOL0     O22448   9.033   0.529   3.153  0.8487  0.1384  0.2708
  171MOL0     C22449   9.097   0.656   3.167 -0.2612  0.7611 -0.3353
  171MOL0     C22450   9.246   0.627   3.156 -0.1146 -0.1245 -0.3105
  171MOL0     C22451   9.330   0.750   3.183 -0.2576 -0.5208 -0.0849
  171MOL0     C22452   9.477   0.712   3.212 -0.8437 -0.7250 -0.4360
  171MOL0     C22453   9.556   0.829   3.270 -0.0076  0.6294 -0.5540
  171MOL0     C22454   9.694   0.795   3.306 -0.5391  0.6885 -0.1403
  171MOL0     C22455   9.765   0.913   3.382  0.7074 -0.7996 -0.1508
  171MOL0     C22456   9.825   1.020   3.290 -0.9598  0.9627 -0.6600
  171MOL0     N22457   9.902   1.117   3.367 -0.0876  0.9733  0.5366
  171MOL0     C22458   9.858   1.227   3.436  0.3880 -0.9881 -0.3000
  171MOL0     C22459   9.967   1.292   3.471 -0.7614  0.2700 -0.5606
  171MOL0     C22460   9.971   1.417   3.553  0.4979 -0.5556 -0.8568
  171MOL0     C22461  10.083   1.517   3.522 -0.4647  0.1315 -0.0833
  171MOL0     C22462  10.205   1.493   3.617 -1.1802 -0.2096 -0.6910
  171MOL0     C22463  10.342   1.533   3.554 -0.0618 -0.1819 -0.4311
  171MOL0     O22464  10.354   1.672   3.528  1.0818 -0.3459  0.2018
  171MOL0     C22465  10.472   1.717   3.503 -0.0924 -0.2062  0.1233
  171MOL0     C22466  10.481   1.855   3.480  0.0459 -0.0280  0.1476
  171MOL0     C22467  10.610   1.906   3.453  0.0486 -1.0003  0.3376
  171MOL0     C22468  10.721   1.833   3.440 -0.7489  0.0398  0.7829
  171MOL0     C22469  10.861   1.892   3.415  0.2898 -1.1663 -0.3268
  171MOL0     O22470  10.969   1.806   3.385 -0.1134 -0.7453 -0.8207
  171MOL0     C22471  11.096   1.855   3.395  0.0023 -0.0805  0.4182
  171MOL0     C22472  11.176   1.873   3.279 -0.2061 -0.2427  0.2381
  171MOL0     C22473  11.294   1.951   3.289 -0.7960  0.0149 -0.9680
  171MOL0     C22474  11.336   1.991   3.421 -0.4150  0.3122 -0.2830
  171MOL0     O22475  11.447   2.065   3.445  0.1417 -0.4353 -0.1861
  171MOL0     C22476  11.512   2.120   3.332  0.9695  0.2845  0.5734
  171MOL0     C22477  11.622   2.219   3.376 -0.2315  0.6724  0.1362
  171MOL0     C22478  11.745   2.165   3.445 -0.2490  0.5112  0.5069
  171MOL0     C22479  11.810   2.277   3.536  0.6988  0.0796 -0.5102
  171MOL0     C22480  11.728   2.306   3.669 -0.3811  0.5482 -0.9833
  171MOL0     C22481  11.814   2.340   3.791  0.6648  1.0415  0.3607
  171MOL0     C22482  11.910   2.458   3.767  0.9873 -0.0072  0.3974
  171MOL0     C22483  11.971   2.486   3.910 -0.7525  0.4332 -0.1931
  171MOL0    Cl22484  12.090   2.359   3.932  0.2892 -0.4823  0.3535
  171MOL0     C22485  11.265   1.953   3.538  0.6398 -0.3663  0.5649
  171MOL0     C22486  11.143   1.886   3.525  0.7234  0.3559  0.2444
  171MOL0     O22487  10.876   2.012   3.417 -0.2787 -0.0866  0.2662
  171MOL0     C22488  10.708   1.694   3.454  0.0002  0.3585 -0.5155
  171MOL0     C22489  10.588   1.637   3.474  0.2854 -0.2137 -0.3079
  171MOL0     N22490  10.081   1.229   3.420 -0.7842 -0.0572  0.2394
  171MOL0     N22491  10.040   1.120   3.364 -0.3707  0.2569 -0.1547
  171MOL0     C22492   8.810   0.640   3.121 -0.5579  0.7313  0.3399
  171MOL0     C22493   8.670   0.625   3.102 -0.0445  0.0335 -0.0304
  171MOL0     C22494   8.313   0.480   2.876 -0.2536  0.1433 -0.3376
  171MOL0     C22495   8.211   0.492   2.970 -0.1736  0.1424  0.4273
  171MOL0     C22496   8.078   0.506   2.936 -0.2746  0.0869  0.7217
  171MOL0     C22497   8.043   0.488   2.801  0.2725  0.1569  0.0945
  171MOL0     O22498   7.912   0.473   2.771 -0.1582 -0.4823 -0.4290
  171MOL0     C22499   7.866   0.394   2.661 -0.0777 -0.3182 -0.1113
  171MOL0     C22500   7.724   0.337   2.672  0.2580 -0.3534 -0.3955
  171MOL0     C22501   7.612   0.450   2.678  0.8994  0.1522 -0.5781
  171MOL0     C22502   7.471   0.385   2.715 -0.0139 -1.0732  0.1523
  171MOL0     C22503   7.429   0.299   2.612  0.1593 -0.1291 -1.2212
  171MOL0     C22504   7.395   0.218   2.533 -0.7986 -0.3992  0.3775
  171MOL0     C22505   8.148   0.460   2.705  0.7225 -0.4992  0.3962
  171MOL0     C22506   8.280   0.463   2.742  0.6037  0.9588  0.6537
  171MOL0     H22507   8.675   0.274   3.121 -4.0589 -0.0776  3.9774
  171MOL0     H22508   8.896   0.301   3.169 -1.2664  0.0284 -0.8405
  171MOL0     H22509   9.073   0.710   3.259 -1.5603  1.6676 -1.1715
  171MOL0     H22510   9.079   0.717   3.078  0.4056  2.6935  0.7804
  171MOL0     H22511   9.275   0.581   3.061  1.4909 -2.9157  1.4056
  171MOL0     H22512   9.262   0.551   3.232  0.1024 -0.7253 -0.9478
  171MOL0     H22513   9.290   0.809   3.267 -2.0305 -0.0597 -1.1883
  171MOL0     H22514   9.330   0.816   3.096  1.9632 -0.0103  0.2524
  171MOL0     H22515   9.476   0.634   3.289  0.9019  0.5384  0.9562
  171MOL0     H22516   9.521   0.675   3.118 -1.4845 -0.4149 -0.8696
  171MOL0     H22517   9.507   0.852   3.365 -1.3774 -2.5864 -0.3713
  171MOL0     H22518   9.556   0.907   3.193 -1.1625  1.0719 -0.1271
  171MOL0     H22519   9.752   0.768   3.217  0.1473  0.1055  0.4653
  171MOL0     H22520   9.710   0.711   3.374  0.7204  1.2023  0.2303
  171MOL0     H22521   9.690   0.964   3.443 -0.5188  0.4441 -2.5347
  171MOL0     H22522   9.843   0.874   3.448  3.0466  1.7388 -1.2127
  171MOL0     H22523   9.753   1.087   3.243 -2.4259  1.4366  2.0542
  171MOL0     H22524   9.887   0.970   3.215  0.1076  0.8566  0.2542
  171MOL0     H22525   9.758   1.266   3.449  0.5772 -0.7588  0.5413
  171MOL0     H22526   9.980   1.383   3.657  1.2049 -2.3847 -1.4731
  171MOL0     H22527   9.879   1.474   3.547  0.8359  0.0533 -0.3547
  171MOL0     H22528  10.040   1.617   3.538 -1.0010  0.2493 -2.0280
  171MOL0     H22529  10.110   1.503   3.417  2.1067  1.2715  0.3742
  171MOL0     H22530  10.192   1.559   3.703 -1.1083 -0.9973 -0.0635
  171MOL0     H22531  10.202   1.386   3.643 -0.6567 -0.4143 -1.4179
  171MOL0     H22532  10.360   1.472   3.464 -0.9996 -1.4661  0.2157
  171MOL0     H22533  10.414   1.507   3.632  0.1879 -1.5391 -1.0820
  171MOL0     H22534  10.394   1.919   3.489 -0.1355 -0.2103 -0.3180
  171MOL0     H22535  10.619   2.013   3.435 -1.1890 -0.7541  1.1305
  171MOL0     H22536  11.139   1.832   3.186  2.7612 -0.7031 -0.8444
  171MOL0     H22537  11.347   1.978   3.198 -3.0566  3.8518 -1.3554
  171MOL0     H22538  11.432   2.169   3.276  3.4349  4.8070  0.4846
  171MOL0     H22539  11.561   2.038   3.280  0.4901  0.3850 -0.0373
  171MOL0     H22540  11.576   2.296   3.438  0.4017  0.1406  1.3003
  171MOL0     H22541  11.663   2.261   3.283  1.1131 -2.5878 -0.8970
  171MOL0     H22542  11.814   2.143   3.364 -0.6623  4.3569 -1.0958
  171MOL0     H22543  11.729   2.075   3.505  0.3667  0.4745  0.6154
  171MOL0     H22544  11.905   2.244   3.579 -0.1140  2.0670  3.2246
  171MOL0     H22545  11.816   2.363   3.470 -0.8582  0.2973 -0.3947
  171MOL0     H22546  11.678   2.212   3.695 -0.5173  1.4851  2.6897
  171MOL0     H22547  11.652   2.381   3.646 -1.8987  0.2392  2.3712
  171MOL0     H22548  11.867   2.249   3.821 -1.7376 -0.4597  0.3251
  171MOL0     H22549  11.753   2.383   3.870  0.5550  2.1427 -0.2975
  171MOL0     H22550  11.991   2.440   3.696 -0.4383 -0.9634 -1.0517
  171MOL0     H22551  11.847   2.536   3.723  0.5928 -1.4435 -1.6981
  171MOL0     H22552  11.893   2.474   3.985 -0.5729 -2.9544 -0.3698
  171MOL0     H22553  12.014   2.585   3.926 -2.4057  0.8132  2.4443
  171MOL0     H22554  11.305   1.968   3.638  2.4322  0.8906 -0.2852
  171MOL0     H22555  11.076   1.857   3.605  0.1401  0.7449 -0.0933
  171MOL0     H22556  10.796   1.630   3.454  0.8870  1.5072 -1.8728
  171MOL0     H22557  10.575   1.531   3.493  0.6125  0.2450  3.2032
  171MOL0     H22558   8.846   0.742   3.120 -1.6015  1.2044  2.8496
  171MOL0     H22559   8.611   0.712   3.076  5.2441  3.4254 -2.2060
  171MOL0     H22560   8.231   0.491   3.077 -0.5443 -1.3606  0.5062
  171MOL0     H22561   7.994   0.510   3.004 -0.6550 -3.3439  0.6196
  171MOL0     H22562   7.930   0.307   2.642  0.4919  0.4378 -1.8047
  171MOL0     H22563   7.873   0.450   2.567 -1.0186 -1.7341 -1.0619
  171MOL0     H22564   7.722   0.277   2.581  0.5150  2.7817 -2.6260
  171MOL0     H22565   7.725   0.286   2.769 -0.2414 -2.1180 -1.2858
  171MOL0     H22566   7.608   0.494   2.578  0.2486  0.1313 -0.5650
  171MOL0     H22567   7.629   0.522   2.758 -2.2092  0.7785 -0.3647
  171MOL0     H22568   7.481   0.348   2.817  1.0105  1.8747  1.2276
  171MOL0     H22569   7.395   0.463   2.727 -0.4723 -1.3692 -0.7274
  171MOL0     H22570   7.370   0.150   2.454 -1.0351 -0.7905  0.7853
  171MOL0     H22571   8.131   0.444   2.599  1.3209 -2.3631  0.5386
  171MOL0     H22572   8.355   0.454   2.665  0.5352  1.9793  0.4511
  172MOL0     O22573   8.766   0.314   3.935  0.0316  0.5970  0.6412
  172MOL0     C22574   8.836   0.336   4.033 -0.4557  0.3145  0.1142
  172MOL0     O22575   8.797   0.415   4.149 -0.0567  0.2959 -0.3436
  172MOL0     C22576   8.665   0.444   4.165  0.1190 -0.6389  0.4393
  172MOL0     C22577   8.598   0.362   4.251 -0.3213  0.3139 -0.3309
  172MOL0     C22578   8.465   0.397   4.278 -0.0417  0.3990 -0.2629
  172MOL0     C22579   8.400   0.500   4.202 -1.2915  0.5836  0.2914
  172MOL0     O22580   8.274   0.538   4.229 -0.1591 -0.8101 -0.0675
  172MOL0     C22581   8.199   0.470   4.326 -0.2718  0.1416  0.4946
  172MOL0     C22582   8.055   0.516   4.315 -0.4049  0.3973 -0.2278
  172MOL0     C22583   7.997   0.495   4.174 -1.0803  0.5229  0.3497
  172MOL0     C22584   7.858   0.555   4.136  0.0243 -0.9285 -0.6210
  172MOL0     C22585   7.757   0.532   4.249  0.8681 -0.3060 -0.4945
  172MOL0     C22586   7.634   0.628   4.244 -1.1091 -1.4569 -0.2329
  172MOL0     C22587   7.533   0.589   4.145 -0.1984  0.4117  0.2564
  172MOL0     C22588   7.400   0.665   4.172  0.3890 -0.4236 -0.1352
  172MOL0     N22589   7.323   0.662   4.051 -0.1709 -0.6107  0.6301
  172MOL0     C22590   7.259   0.772   4.000 -0.4194 -0.1023  0.3484
  172MOL0     C22591   7.141   0.729   3.951  0.1363  0.4496  0.7464
  172MOL0     C22592   7.027   0.819   3.900  0.0597  0.2641 -0.4130
  172MOL0     C22593   6.927   0.836   4.009 -0.3952  0.0281  0.5937
  172MOL0     C22594   6.831   0.952   3.994 -0.8125  0.2324  0.1053
  172MOL0     C22595   6.787   0.989   3.855  0.0050 -0.7236  0.3808
  172MOL0     O22596   6.711   1.115   3.861 -0.7073  0.1859  0.3563
  172MOL0     C22597   6.596   1.110   3.783 -0.5437  0.0675  1.0810
  172MOL0     C22598   6.477   1.100   3.846  0.0929 -0.3501 -0.7012
  172MOL0     C22599   6.360   1.095   3.771  0.4722 -0.4817  0.7776
  172MOL0     C22600   6.359   1.104   3.629  0.3797 -0.1883 -0.6163
  172MOL0     C22601   6.233   1.113   3.560  0.1573 -0.4622  0.9203
  172MOL0     O22602   6.111   1.118   3.636 -0.3424  0.3510  0.1231
  172MOL0     C22603   5.989   1.138   3.568  0.7007  0.7751  0.5948
  172MOL0     C22604   5.950   1.055   3.468 -0.2176 -0.2284 -0.0162
  172MOL0     C22605   5.842   1.084   3.387 -0.6365 -0.6466  0.1127
  172MOL0     C22606   5.758   1.189   3.421  0.0486  0.2553 -0.4865
  172MOL0     O22607   5.652   1.207   3.338 -0.4289 -0.0670 -0.4589
  172MOL0     C22608   5.586   1.337   3.337  1.2708  0.3316  0.1401
  172MOL0     C22609   5.460   1.326   3.235 -0.1814 -0.0176  0.3464
  172MOL0     C22610   5.336   1.254   3.294  0.1589 -0.8813  0.0593
  172MOL0     C22611   5.289   1.334   3.419 -0.1260  0.1163  0.2044
  172MOL0     C22612   5.143   1.363   3.435  0.3799 -0.0984 -0.1154
  172MOL0     C22613   5.064   1.232   3.443  0.3862 -0.2427 -0.2804
  172MOL0     C22614   4.915   1.274   3.462  0.5479 -0.8957  0.5893
  172MOL0     C22615   4.830   1.153   3.492 -0.0585  0.2195 -0.4589
  172MOL0    Cl22616   4.852   1.085   3.659 -0.1674 -0.5393 -0.3368
  172MOL0     C22617   5.784   1.257   3.536 -0.5520  0.0593 -0.0564
  172MOL0     C22618   5.899   1.228   3.610 -0.3928 -0.7956  1.0170
  172MOL0     O22619   6.241   1.102   3.440 -0.0236  0.5937  1.0168
  172MOL0     C22620   6.486   1.129   3.568 -0.0035  0.5623 -0.0107
  172MOL0     C22621   6.600   1.124   3.644  0.4916 -0.2694 -0.2497
  172MOL0     N22622   7.139   0.588   3.970  0.5498 -0.9448 -0.0615
  172MOL0     N22623   7.248   0.553   4.030  0.6906 -0.0563  0.7369
  172MOL0     C22624   8.468   0.565   4.101  0.3399  0.0012 -0.2944
  172MOL0     C22625   8.606   0.539   4.090 -0.7280 -0.0728  0.3985
  172MOL0     C22626   8.979   0.292   4.031  0.2931  0.1481 -0.2638
  172MOL0     C22627   9.025   0.222   3.920  0.2025  0.2878  0.0396
  172MOL0     C22628   9.159   0.189   3.919  0.0608  0.7707 -0.5702
  172MOL0     C22629   9.241   0.211   4.032 -0.2515  0.5976  1.2449
  172MOL0     O22630   9.375   0.174   4.048 -0.7552 -0.3703 -0.3383
  172MOL0     C22631   9.446   0.109   3.935 -0.1383 -0.2415  0.3638
  172MOL0     C22632   9.576   0.029   3.990 -0.3334 -0.0324  0.2476
  172MOL0     C22633   9.549  -0.118   4.037  0.4545 -0.2003 -0.9821
  172MOL0     C22634   9.525  -0.223   3.926 -0.1543 -0.3418  0.4348
  172MOL0     C22635   9.638  -0.234   3.835 -0.2086 -0.5512  0.2229
  172MOL0     C22636   9.740  -0.251   3.770 -0.2919  0.0198 -0.3605
  172MOL0     C22637   9.184   0.271   4.145  0.3261  0.2934 -0.4897
  172MOL0     C22638   9.061   0.316   4.145 -0.3812  0.5800  0.3854
  172MOL0     H22639   8.654   0.285   4.304 -0.3282  0.1883 -0.5082
  172MOL0     H22640   8.412   0.331   4.346 -0.9767  0.8605 -0.5271
  172MOL0     H22641   8.242   0.481   4.426 -3.5655  4.6726  1.7812
  172MOL0     H22642   8.196   0.365   4.296 -0.6822  0.4349 -0.5203
  172MOL0     H22643   8.050   0.622   4.345 -0.3122  0.6323 -1.0200
  172MOL0     H22644   8.002   0.454   4.388 -0.1190  0.3228 -0.0823
  172MOL0     H22645   7.994   0.387   4.157 -1.7952  0.6091 -0.1258
  172MOL0     H22646   8.069   0.530   4.099 -0.7587  0.4945  0.6449
  172MOL0     H22647   7.867   0.663   4.123  0.3916 -0.9724 -0.7271
  172MOL0     H22648   7.821   0.520   4.039  0.4712 -0.6676 -0.8850
  172MOL0     H22649   7.803   0.541   4.348  3.9162 -2.4291 -1.5841
  172MOL0     H22650   7.718   0.430   4.239  1.3276 -0.2913 -2.8983
  172MOL0     H22651   7.651   0.735   4.228 -1.1874 -0.8496  3.1416
  172MOL0     H22652   7.584   0.623   4.341 -1.7562 -0.7215 -0.5141
  172MOL0     H22653   7.572   0.603   4.043  0.2357 -0.8258  0.2335
  172MOL0     H22654   7.530   0.481   4.161  2.2088  0.7383  3.8668
  172MOL0     H22655   7.421   0.767   4.206 -0.7261 -0.3958  0.4995
  172MOL0     H22656   7.339   0.604   4.239  0.9651  1.1232  1.8894
  172MOL0     H22657   7.300   0.872   3.999 -1.0054  0.2460 -3.3838
  172MOL0     H22658   6.978   0.775   3.812  2.8991  0.6381 -2.3318
  172MOL0     H22659   7.079   0.912   3.876  3.0723 -1.7634 -2.5079
  172MOL0     H22660   6.967   0.854   4.109  0.2536  3.2069 -0.1315
  172MOL0     H22661   6.872   0.742   4.023 -1.6565  0.4973 -0.9102
  172MOL0     H22662   6.754   0.928   4.067  0.1034 -2.6554  0.2455
  172MOL0     H22663   6.877   1.043   4.035  0.7819 -0.5657  0.1438
  172MOL0     H22664   6.715   0.912   3.825 -2.2810  1.2488  0.4483
  172MOL0     H22665   6.868   0.994   3.782  0.9064  1.9905  1.4170
  172MOL0     H22666   6.463   1.082   3.952  0.5009  1.1252 -0.3658
  172MOL0     H22667   6.272   1.083   3.834 -0.0074 -0.1594  0.1802
  172MOL0     H22668   6.001   0.964   3.440 -2.3814 -1.8495  1.0776
  172MOL0     H22669   5.828   1.021   3.300  2.0170 -0.6321 -0.4119
  172MOL0     H22670   5.646   1.421   3.301 -1.3677  0.8623 -3.5859
  172MOL0     H22671   5.555   1.358   3.440 -0.1760  0.7692 -0.3528
  172MOL0     H22672   5.499   1.272   3.148  0.9743  0.8716  0.2869
  172MOL0     H22673   5.427   1.421   3.193  1.0798  0.2849 -0.0057
  172MOL0     H22674   5.357   1.149   3.317  0.8200 -0.6332  0.6317
  172MOL0     H22675   5.256   1.258   3.219  1.8935 -1.0156 -1.8772
  172MOL0     H22676   5.314   1.282   3.512 -0.9038 -0.6280  0.0162
  172MOL0     H22677   5.350   1.425   3.423 -2.0385  1.4035  1.7635
  172MOL0     H22678   5.112   1.425   3.351  0.0989 -1.3429 -0.9507
  172MOL0     H22679   5.112   1.416   3.526 -2.3197 -1.7407  0.0339
  172MOL0     H22680   5.107   1.175   3.526 -0.8179  1.8292  1.8927
  172MOL0     H22681   5.085   1.172   3.354  1.2867 -0.1785 -0.1259
  172MOL0     H22682   4.894   1.352   3.535  0.2914 -0.8898  0.5105
  172MOL0     H22683   4.875   1.321   3.372 -0.1028 -1.0690  0.7827
  172MOL0     H22684   4.861   1.081   3.416 -2.2063  2.7961 -4.0887
  172MOL0     H22685   4.727   1.171   3.460 -0.8063 -2.7460  0.0183
  172MOL0     H22686   5.708   1.326   3.572  1.3342  0.7368  2.9876
  172MOL0     H22687   5.904   1.288   3.700  2.0319  0.9426 -0.1595
  172MOL0     H22688   6.489   1.148   3.461  0.1632  3.7651  0.4703
  172MOL0     H22689   6.694   1.151   3.597 -0.1228  1.4032 -0.6101
  172MOL0     H22690   8.420   0.646   4.046  0.4712  0.2445 -0.0514
  172MOL0     H22691   8.651   0.616   4.029  0.5854  0.0971  1.5255
  172MOL0     H22692   8.965   0.187   3.836 -0.3664  2.4327 -0.5075
  172MOL0     H22693   9.205   0.147   3.830 -2.2775 -0.7184 -1.1580
  172MOL0     H22694   9.475   0.198   3.877  0.8297 -0.8196 -0.0593
  172MOL0     H22695   9.392   0.044   3.865  1.1117  1.3076 -2.2232
  172MOL0     H22696   9.655   0.032   3.914  0.3853  2.5293  1.0081
  172MOL0     H22697   9.619   0.079   4.077 -2.1992  1.5153  0.3526
  172MOL0     H22698   9.462  -0.136   4.101  2.0180 -1.5416  0.8933
  172MOL0     H22699   9.644  -0.151   4.080  1.6584  0.2091 -3.2154
  172MOL0     H22700   9.523  -0.321   3.974  0.3463  0.9705  3.4211
  172MOL0     H22701   9.436  -0.199   3.868 -1.4574 -1.8224  1.7197
  172MOL0     H22702   9.823  -0.255   3.702  1.1870 -1.3521  1.4264
  172MOL0     H22703   9.254   0.289   4.227 -1.0095 -0.2789  0.8167
  172MOL0     H22704   9.029   0.376   4.230 -0.7157  1.4342 -0.3248
  173MOL0     O22705   2.188   3.565   2.179  0.0017  0.6464 -0.8969
  173MOL0     C22706   2.221   3.466   2.121 -0.4656  0.3120  0.1665
  173MOL0     O22707   2.342   3.439   2.073  0.4280 -0.1161 -0.8362
  173MOL0     C22708   2.457   3.517   2.067  0.2874 -0.4916 -0.0700
  173MOL0     C22709   2.553   3.475   1.976  0.4033 -0.0325 -0.3814
  173MOL0     C22710   2.679   3.538   1.967  0.7638 -0.9383 -0.2072
  173MOL0     C22711   2.706   3.647   2.044  0.6905 -0.6634  0.9784
  173MOL0     O22712   2.827   3.706   2.019 -0.0459 -0.0680 -0.1171
  173MOL0     C22713   2.860   3.819   2.105 -0.1716  0.1719  0.8546
  173MOL0     C22714   2.959   3.901   2.015  0.6761  0.2393 -0.9236
  173MOL0     C22715   3.024   4.025   2.092  0.7873  0.4774  0.0643
  173MOL0     C22716   3.164   3.993   2.142 -1.0409 -0.1783 -1.0379
  173MOL0     C22717   3.211   4.077   2.260 -0.3231  0.4943 -0.2201
  173MOL0     C22718   3.343   4.035   2.312  0.4647  0.6769  1.2551
  173MOL0     C22719   3.374   4.079   2.451  0.3205 -0.9114 -0.1604
  173MOL0     C22720   3.520   4.020   2.481 -1.6685 -0.4712 -0.0843
  173MOL0     N22721   3.562   4.064   2.610 -0.9701 -0.0378  0.1078
  173MOL0     C22722   3.627   4.186   2.633 -0.3231  0.0379  0.0513
  173MOL0     C22723   3.576   4.227   2.751 -1.0676  1.0172  0.1482
  173MOL0     C22724   3.585   4.364   2.821  0.1276 -0.4981 -0.2556
  173MOL0     C22725   3.439   4.413   2.857  0.0388  0.1550 -0.1065
  173MOL0     C22726   3.349   4.450   2.742  0.6227 -0.5717  0.3276
  173MOL0     C22727   3.218   4.374   2.747  0.3289  0.2525  0.2066
  173MOL0     O22728   3.155   4.373   2.627 -0.0032  0.5464 -0.3542
  173MOL0     C22729   3.064   4.271   2.603  0.2182 -0.2236  0.3352
  173MOL0     C22730   3.008   4.173   2.693 -0.3081  0.1773  0.2890
  173MOL0     C22731   2.912   4.090   2.644  0.1542  0.0328  0.0253
  173MOL0     C22732   2.863   4.097   2.510  0.4790  0.0853 -0.8840
  173MOL0     C22733   2.751   4.000   2.473  0.1599 -2.0450 -0.2206
  173MOL0     O22734   2.692   3.940   2.574  0.1843 -0.4107 -0.4729
  173MOL0     C22735   2.586   3.858   2.552  0.2135  0.2828 -0.0113
  173MOL0     C22736   2.461   3.897   2.558  0.5154  0.0021  0.4128
  173MOL0     C22737   2.354   3.807   2.549 -0.5230  0.1220  0.7343
  173MOL0     C22738   2.371   3.665   2.532 -0.5654 -0.2903 -1.1812
  173MOL0     O22739   2.277   3.572   2.506  0.3953 -0.1498 -0.2453
  173MOL0     C22740   2.144   3.612   2.486  0.4740 -0.7382 -0.0169
  173MOL0     C22741   2.049   3.501   2.453 -0.5457 -0.7085 -0.4955
  173MOL0     C22742   1.906   3.560   2.440  0.2036 -1.1012 -0.0427
  173MOL0     C22743   1.810   3.450   2.386  0.4637 -1.1702  0.1391
  173MOL0     C22744   1.689   3.501   2.320 -0.7010  0.3715 -0.0015
  173MOL0     C22745   1.585   3.379   2.306 -0.4244  0.6249 -0.2144
  173MOL0     C22746   1.446   3.437   2.288  0.8045 -0.0050 -0.3050
  173MOL0     C22747   1.339   3.329   2.274 -0.1652 -0.4836  0.1353
  173MOL0    Cl22748   1.184   3.429   2.298 -0.1936 -0.1196 -0.5243
  173MOL0     C22749   2.501   3.620   2.533 -0.5830  0.2618 -0.1454
  173MOL0     C22750   2.611   3.713   2.541 -0.1373 -0.0867  0.8165
  173MOL0     O22751   2.727   3.994   2.353  0.1354  0.3443 -1.2997
  173MOL0     C22752   2.904   4.204   2.428  0.4896  0.8775 -0.1346
  173MOL0     C22753   3.001   4.288   2.476 -0.1457  0.0511 -0.0321
  173MOL0     N22754   3.525   4.118   2.806 -0.3152 -0.6644  0.2161
  173MOL0     N22755   3.508   4.023   2.722 -0.5464 -0.6656 -0.0541
  173MOL0     C22756   2.616   3.683   2.143  0.7635 -0.7311 -0.4276
  173MOL0     C22757   2.493   3.618   2.151 -0.2751 -0.1264 -0.4677
  173MOL0     C22758   2.127   3.356   2.108 -0.4727 -0.5499 -1.7368
  173MOL0     C22759   1.987   3.371   2.077  0.1251 -0.1540  0.9763
  173MOL0     C22760   1.901   3.265   2.060 -0.0094  0.2563  0.8888
  173MOL0     C22761   1.961   3.134   2.054 -0.1923  0.0511 -0.2317
  173MOL0     O22762   1.902   3.030   1.990 -0.4770  0.1878  0.6154
  173MOL0     C22763   1.773   3.035   1.938 -0.1090 -0.1229 -0.1063
  173MOL0     C22764   1.665   3.032   2.057 -0.4953  0.1796  0.4938
  173MOL0     C22765   1.522   3.068   2.004  0.0600  0.2553  0.1256
  173MOL0     C22766   1.464   2.938   1.924  0.3852 -0.5253  0.3993
  173MOL0     C22767   1.331   2.968   1.871  0.5851  0.3374  0.4775
  173MOL0     C22768   1.218   2.985   1.831 -0.9725 -0.1083 -0.3479
  173MOL0     C22769   2.098   3.113   2.098  0.6227 -0.1802  0.4501
  173MOL0     C22770   2.180   3.225   2.121 -0.1536 -0.0638 -0.0571
  173MOL0     H22771   2.530   3.384   1.922  0.3992 -0.2481 -0.0200
  173MOL0     H22772   2.762   3.500   1.908  2.6697  1.8499  0.4622
  173MOL0     H22773   2.907   3.783   2.197  0.0047  1.5850  1.3418
  173MOL0     H22774   2.771   3.873   2.137 -0.8827 -1.2562  1.3397
  173MOL0     H22775   2.897   3.933   1.931  1.7992  0.2343 -1.7750
  173MOL0     H22776   3.037   3.846   1.962 -0.7840 -1.4558 -1.3924
  173MOL0     H22777   2.955   4.034   2.176  1.4425  2.9572  0.4212
  173MOL0     H22778   3.004   4.123   2.048 -0.9191  0.0634 -0.1186
  173MOL0     H22779   3.174   3.888   2.169  0.7036  0.1560 -0.2478
  173MOL0     H22780   3.220   4.005   2.049 -1.1215 -2.2117 -1.3972
  173MOL0     H22781   3.136   4.064   2.339  0.6902 -1.4556  0.4850
  173MOL0     H22782   3.220   4.181   2.228  0.7354  1.5232  3.0675
  173MOL0     H22783   3.415   4.061   2.234 -2.7385  0.5363 -2.0282
  173MOL0     H22784   3.331   3.927   2.319 -0.4204  0.7750  1.3970
  173MOL0     H22785   3.376   4.188   2.458 -0.9541 -0.9310  0.8631
  173MOL0     H22786   3.295   4.047   2.520 -2.0900 -0.1371 -2.3965
  173MOL0     H22787   3.595   4.051   2.408 -0.5913 -3.6351 -0.4910
  173MOL0     H22788   3.520   3.910   2.481  1.1091 -0.5868 -1.9771
  173MOL0     H22789   3.669   4.245   2.552 -1.8252 -0.5745 -1.2379
  173MOL0     H22790   3.640   4.441   2.767  0.5206  0.2597  1.1861
  173MOL0     H22791   3.628   4.359   2.921  0.2021  1.9007 -0.1082
  173MOL0     H22792   3.451   4.499   2.924  1.8931  0.6289 -0.9676
  173MOL0     H22793   3.396   4.336   2.922 -0.2368  2.9947  3.4090
  173MOL0     H22794   3.317   4.552   2.764 -0.1306 -1.2450  2.6844
  173MOL0     H22795   3.402   4.445   2.647  0.2906 -1.8284  0.1932
  173MOL0     H22796   3.144   4.423   2.811 -1.0241 -2.3742  0.7885
  173MOL0     H22797   3.229   4.267   2.767  0.3572 -0.1603 -1.8434
  173MOL0     H22798   3.047   4.153   2.793 -0.5249 -3.1160 -0.1709
  173MOL0     H22799   2.882   4.008   2.708  0.3300 -0.1119 -0.0786
  173MOL0     H22800   2.450   4.005   2.565 -0.5062 -0.0730  0.0830
  173MOL0     H22801   2.252   3.842   2.563 -0.2899  0.8952  0.4991
  173MOL0     H22802   2.154   3.691   2.411  1.9221  1.3040  2.1701
  173MOL0     H22803   2.106   3.666   2.574  1.0731  1.3915 -0.9857
  173MOL0     H22804   2.060   3.423   2.529  0.7447  1.6376  1.9071
  173MOL0     H22805   2.078   3.457   2.357 -0.5639  0.5670 -1.1133
  173MOL0     H22806   1.904   3.635   2.361 -1.4924 -0.9081  0.1482
  173MOL0     H22807   1.868   3.603   2.533  1.6036  0.8039 -0.2928
  173MOL0     H22808   1.866   3.387   2.317  3.0683  0.9079  0.2103
  173MOL0     H22809   1.792   3.377   2.465  2.2424 -1.8611 -0.0454
  173MOL0     H22810   1.715   3.532   2.219  0.7004  2.2177  0.8660
  173MOL0     H22811   1.637   3.584   2.368 -1.2622  2.5989 -4.0539
  173MOL0     H22812   1.595   3.312   2.392  3.5210 -3.8813 -3.6459
  173MOL0     H22813   1.616   3.319   2.220  2.4100 -2.8244  2.8922
  173MOL0     H22814   1.420   3.486   2.382  2.8729  0.8834 -0.1356
  173MOL0     H22815   1.455   3.501   2.200  0.5825  2.2765  1.2372
  173MOL0     H22816   1.343   3.252   2.352 -1.7869 -2.3621 -1.5067
  173MOL0     H22817   1.342   3.287   2.173 -0.4422  2.7356 -1.3432
  173MOL0     H22818   2.518   3.513   2.531 -0.3719  0.2210  1.7377
  173MOL0     H22819   2.712   3.673   2.541 -0.3378 -0.6444  1.9634
  173MOL0     H22820   2.847   4.211   2.335  0.6245  0.1036 -0.2824
  173MOL0     H22821   3.020   4.363   2.400 -0.2554 -1.0417 -1.1774
  173MOL0     H22822   2.638   3.749   2.226  0.0468 -0.6185 -0.3143
  173MOL0     H22823   2.425   3.654   2.228 -0.7043  0.7722 -1.2402
  173MOL0     H22824   1.949   3.471   2.063 -0.9375 -0.9209 -3.2191
  173MOL0     H22825   1.803   3.273   2.014  0.1810 -0.8280  0.2483
  173MOL0     H22826   1.760   2.954   1.866 -0.3998 -1.2599  1.1872
  173MOL0     H22827   1.759   3.122   1.874 -0.0987  0.1092  0.2050
  173MOL0     H22828   1.661   2.935   2.107 -0.0921  0.9498  2.0980
  173MOL0     H22829   1.686   3.111   2.130 -3.8119  2.5898 -0.8911
  173MOL0     H22830   1.513   3.162   1.949 -1.5469  1.0980  1.7205
  173MOL0     H22831   1.458   3.084   2.092 -1.1998  0.3915 -0.7964
  173MOL0     H22832   1.525   2.909   1.838 -1.0306 -0.7814 -0.5564
  173MOL0     H22833   1.446   2.858   1.996 -0.4454 -1.9059 -1.2608
  173MOL0     H22834   1.118   2.998   1.795 -0.7627 -1.0949 -1.3383
  173MOL0     H22835   2.141   3.015   2.080  1.6786  0.2048  0.7588
  173MOL0     H22836   2.287   3.210   2.133 -0.5070 -2.7943  0.4192
  174MOL0     O22837   0.092   1.471   7.565 -0.0775 -0.6961 -0.2350
  174MOL0     C22838   0.148   1.502   7.462  1.0608 -0.3358 -0.2060
  174MOL0     O22839   0.120   1.454   7.332 -0.2473  0.6515 -0.5484
  174MOL0     C22840   0.007   1.380   7.301 -1.6293  0.4000  0.2617
  174MOL0     C22841  -0.119   1.413   7.344  0.8601 -0.3132  0.3010
  174MOL0     C22842  -0.225   1.341   7.304 -0.6949  0.3671  0.1986
  174MOL0     C22843  -0.219   1.241   7.214  0.2373 -1.0459  0.7613
  174MOL0     O22844  -0.330   1.176   7.177  0.5196  0.2590 -0.1096
  174MOL0     C22845  -0.388   1.215   7.052 -0.2166  0.5622 -0.1686
  174MOL0     C22846  -0.534   1.169   7.043 -1.2574 -0.1997 -0.0036
  174MOL0     C22847  -0.571   1.139   6.896 -0.9556  0.0121  0.1420
  174MOL0     C22848  -0.519   1.005   6.838  1.4152 -0.4283 -0.0107
  174MOL0     C22849  -0.533   1.000   6.680  0.1561 -0.7194  0.3501
  174MOL0     C22850  -0.674   0.960   6.637 -0.1405 -0.3983  0.8854
  174MOL0     C22851  -0.675   0.939   6.490 -0.3474 -0.4913  0.1041
  174MOL0     C22852  -0.815   0.930   6.430  0.1206  0.7452 -0.1380
  174MOL0     N22853  -0.917   1.028   6.466 -0.5133  0.1896 -0.1677
  174MOL0     C22854  -0.974   1.116   6.381 -0.5902  0.5019  0.0001
  174MOL0     C22855  -1.087   1.156   6.437 -0.2543 -0.5912 -0.6976
  174MOL0     C22856  -1.172   1.263   6.383  0.3410  0.1640 -0.2328
  174MOL0     C22857  -1.256   1.349   6.475  0.9179 -0.0480 -0.4665
  174MOL0     C22858  -1.224   1.499   6.459 -0.2086  0.5758  0.1263
  174MOL0     C22859  -1.089   1.556   6.504 -0.5274 -0.2140  0.1790
  174MOL0     O22860  -0.985   1.539   6.406 -0.3231  0.0920 -0.2320
  174MOL0     C22861  -0.854   1.527   6.444  0.7918  0.4636 -0.0668
  174MOL0     C22862  -0.805   1.414   6.511 -0.2769 -0.1069  0.2964
  174MOL0     C22863  -0.666   1.407   6.538 -0.0951 -0.0756 -0.1976
  174MOL0     C22864  -0.572   1.507   6.494 -0.0019  0.6663 -0.1817
  174MOL0     C22865  -0.425   1.487   6.537 -0.0337  0.1619  0.1882
  174MOL0     O22866  -0.399   1.374   6.607  0.1998  0.0194  0.9968
  174MOL0     C22867  -0.274   1.334   6.610 -0.1764  0.3511  0.0971
  174MOL0     C22868  -0.243   1.226   6.523  0.3376 -0.2575  0.8759
  174MOL0     C22869  -0.112   1.181   6.514 -0.3808 -0.8531 -0.7196
  174MOL0     C22870  -0.010   1.245   6.586  0.2242  0.5569  0.1378
  174MOL0     O22871   0.125   1.218   6.566 -0.2827 -0.2282 -0.0357
  174MOL0     C22872   0.166   1.168   6.440  0.7422  0.7077 -1.2533
  174MOL0     C22873   0.314   1.155   6.442  0.0883  0.2597  0.1701
  174MOL0     C22874   0.375   1.293   6.467  0.2039  0.4901  0.5276
  174MOL0     C22875   0.522   1.282   6.492 -1.0363 -0.3684  0.5420
  174MOL0     C22876   0.589   1.402   6.567 -0.2419 -0.3905 -0.5411
  174MOL0     C22877   0.542   1.543   6.531 -0.2136 -0.7493  0.1451
  174MOL0     C22878   0.651   1.643   6.578  0.0044  0.1288 -0.4845
  174MOL0     C22879   0.614   1.790   6.551  0.5595 -0.2458  0.3420
  174MOL0    Cl22880   0.760   1.899   6.515 -0.0973 -0.0576 -0.1511
  174MOL0     C22881  -0.038   1.352   6.676  0.4784 -0.1107 -0.2969
  174MOL0     C22882  -0.175   1.399   6.681  0.3303 -0.1053 -0.4132
  174MOL0     O22883  -0.343   1.566   6.491 -0.2813  0.2808  1.3424
  174MOL0     C22884  -0.635   1.608   6.411  0.0176 -0.5839 -0.2895
  174MOL0     C22885  -0.775   1.621   6.400 -0.1774  0.2621 -0.3726
  174MOL0     N22886  -1.094   1.095   6.564 -0.7601  0.5531 -0.0597
  174MOL0     N22887  -1.002   1.011   6.576  0.4262 -0.2567  0.2094
  174MOL0     C22888  -0.092   1.199   7.163 -0.7227 -0.5512 -0.9685
  174MOL0     C22889   0.021   1.267   7.212  0.7444 -0.9233 -0.8481
  174MOL0     C22890   0.256   1.595   7.478 -0.5055  0.5219  0.4181
  174MOL0     C22891   0.330   1.639   7.362  1.0491  0.6966  0.5212
  174MOL0     C22892   0.441   1.722   7.386  0.5127  0.3009  0.3342
  174MOL0     C22893   0.500   1.746   7.505 -0.1494 -0.6743 -0.1513
  174MOL0     O22894   0.634   1.779   7.510  0.0904  0.1791 -0.4785
  174MOL0     C22895   0.701   1.764   7.638 -0.1705 -0.1478  0.2689
  174MOL0     C22896   0.851   1.811   7.628 -0.3463  1.0693  0.2752
  174MOL0     C22897   0.867   1.963   7.638 -0.5666  0.2035 -0.3532
  174MOL0     C22898   0.999   2.003   7.586  0.4775  1.0738  1.1759
  174MOL0     C22899   1.010   2.148   7.570 -0.6201  0.3804 -0.5420
  174MOL0     C22900   1.000   2.268   7.566 -0.3447 -0.1190 -0.2251
  174MOL0     C22901   0.428   1.699   7.613 -0.2799  0.4540 -0.1245
  174MOL0     C22902   0.311   1.620   7.602 -0.2909  0.2092  1.3082
  174MOL0     H22903  -0.127   1.482   7.427  0.8746  1.1353 -0.8437
  174MOL0     H22904  -0.317   1.378   7.348 -0.7773  1.4695 -0.8499
  174MOL0     H22905  -0.327   1.174   6.971  0.6432  2.4713 -0.5636
  174MOL0     H22906  -0.378   1.324   7.053 -1.9121  0.7536  1.7117
  174MOL0     H22907  -0.614   1.235   7.078 -1.0721 -0.1662  0.3623
  174MOL0     H22908  -0.546   1.079   7.104  2.3366  0.5695  2.0940
  174MOL0     H22909  -0.537   1.223   6.835 -0.5432  0.8808  1.5280
  174MOL0     H22910  -0.680   1.144   6.892 -1.0217 -0.3504  1.1325
  174MOL0     H22911  -0.416   1.013   6.874  0.8166  0.2487  1.6562
  174MOL0     H22912  -0.570   0.921   6.887  0.7670 -0.3168 -0.4866
  174MOL0     H22913  -0.462   0.924   6.645 -0.3510 -1.9499  1.8995
  174MOL0     H22914  -0.498   1.095   6.637  1.1330 -0.7259  1.1049
  174MOL0     H22915  -0.728   1.052   6.663 -0.3877  0.7463 -3.0715
  174MOL0     H22916  -0.721   0.881   6.697 -0.4593 -0.5228  0.4755
  174MOL0     H22917  -0.615   1.017   6.442 -0.8737  1.1549  2.0099
  174MOL0     H22918  -0.613   0.852   6.467  0.4144 -0.2527  1.1596
  174MOL0     H22919  -0.840   0.827   6.456 -1.0496  1.5724  2.3002
  174MOL0     H22920  -0.795   0.943   6.323 -0.9353  2.0668 -0.1951
  174MOL0     H22921  -0.938   1.149   6.283  0.9404 -0.8842  0.0496
  174MOL0     H22922  -1.233   1.216   6.305  0.7094  2.6845 -2.1672
  174MOL0     H22923  -1.107   1.329   6.326  0.4769 -1.3790 -1.9802
  174MOL0     H22924  -1.250   1.308   6.576 -2.3255 -0.8012 -0.4889
  174MOL0     H22925  -1.362   1.346   6.448  0.3273 -4.2734  1.5252
  174MOL0     H22926  -1.238   1.535   6.357  0.9662  0.0180 -0.2463
  174MOL0     H22927  -1.305   1.551   6.511 -0.0379 -0.1521  1.1586
  174MOL0     H22928  -1.054   1.510   6.597  1.2773 -0.6760 -0.6752
  174MOL0     H22929  -1.082   1.663   6.524 -0.5024 -0.2844  0.5493
  174MOL0     H22930  -0.870   1.338   6.552 -1.0716  0.2984 -0.1841
  174MOL0     H22931  -0.636   1.321   6.597 -2.8724 -0.3896  0.9144
  174MOL0     H22932  -0.315   1.167   6.467  2.5924 -1.0565 -1.3422
  174MOL0     H22933  -0.094   1.098   6.447  1.2976 -0.5499 -0.6829
  174MOL0     H22934   0.137   1.232   6.356 -1.6082  0.0827 -0.9740
  174MOL0     H22935   0.134   1.065   6.425  3.3453 -0.4173  0.2052
  174MOL0     H22936   0.352   1.101   6.354  2.1694  1.9732 -0.0551
  174MOL0     H22937   0.352   1.095   6.526  0.2507  0.6583  0.3799
  174MOL0     H22938   0.332   1.338   6.557  0.6427  2.1083 -0.0428
  174MOL0     H22939   0.346   1.363   6.388  1.1412 -0.1608 -0.4227
  174MOL0     H22940   0.544   1.187   6.541 -1.6126  0.4274  2.4235
  174MOL0     H22941   0.580   1.285   6.399  3.2039  3.8973  2.8788
  174MOL0     H22942   0.693   1.392   6.534 -1.3646 -0.7353 -4.5775
  174MOL0     H22943   0.570   1.393   6.674 -1.8135 -2.7792 -0.9374
  174MOL0     H22944   0.444   1.567   6.573  0.2486  2.2737 -0.2243
  174MOL0     H22945   0.533   1.556   6.423 -1.3865 -2.8449 -0.0565
  174MOL0     H22946   0.683   1.632   6.682 -0.4647 -0.0614 -0.3570
  174MOL0     H22947   0.737   1.626   6.512 -0.2756 -1.4645 -0.4729
  174MOL0     H22948   0.558   1.833   6.634  0.8847 -2.5090  1.8266
  174MOL0     H22949   0.548   1.793   6.464 -1.7286  0.4009  2.0140
  174MOL0     H22950   0.045   1.397   6.729  1.7897 -2.8476  0.1319
  174MOL0     H22951  -0.201   1.477   6.752 -0.8186  0.0187 -0.9564
  174MOL0     H22952  -0.570   1.682   6.365 -0.2571 -1.3627 -2.0152
  174MOL0     H22953  -0.810   1.707   6.342  0.3169  2.1811  1.9936
  174MOL0     H22954  -0.076   1.121   7.089  5.7720 -0.7598  0.0460
  174MOL0     H22955   0.117   1.238   7.173  2.3095  0.8394  1.3983
  174MOL0     H22956   0.291   1.621   7.262  0.3192  0.8327  0.7789
  174MOL0     H22957   0.498   1.756   7.300 -0.2803  0.5520 -0.1044
  174MOL0     H22958   0.704   1.660   7.671  0.6180 -1.0046 -2.2556
  174MOL0     H22959   0.656   1.826   7.716 -1.5366  0.1796 -0.7451
  174MOL0     H22960   0.900   1.761   7.711  1.2137  1.6742 -0.2548
  174MOL0     H22961   0.888   1.770   7.534  0.3781  1.3306  0.4412
  174MOL0     H22962   0.856   1.979   7.746 -0.8012  0.7322 -0.4531
  174MOL0     H22963   0.788   2.010   7.579  0.3510  1.3475 -0.6922
  174MOL0     H22964   1.075   1.973   7.658  0.2644 -1.6508  0.3688
  174MOL0     H22965   1.017   1.955   7.490  1.0444 -0.9959  2.2611
  174MOL0     H22966   0.982   2.373   7.572 -0.4556 -0.1647  0.2825
  174MOL0     H22967   0.467   1.714   7.713  3.7014  2.8119 -1.7683
  174MOL0     H22968   0.276   1.572   7.693  1.6932 -0.3301  1.8513
  175MOL0     O22969  10.556   0.920  10.696 -0.2382 -0.2698 -0.3588
  175MOL0     C22970  10.636   0.920  10.791 -0.3910  0.7450  0.6282
  175MOL0     O22971  10.610   0.943  10.924 -0.9313 -0.2216 -0.3300
  175MOL0     C22972  10.488   0.991  10.968  0.1763 -0.7900  0.3100
  175MOL0     C22973  10.368   1.019  10.897  0.8009 -0.0156  0.0380
  175MOL0     C22974  10.257   1.085  10.953  0.2100  1.2738 -0.4415
  175MOL0     C22975  10.251   1.110  11.094  0.4762 -0.1704 -0.1343
  175MOL0     O22976  10.136   1.170  11.154 -0.2443  0.1501  0.3908
  175MOL0     C22977  10.032   1.217  11.067  0.9561 -0.2721 -0.5623
  175MOL0     C22978   9.917   1.275  11.166 -0.5342 -0.2982  0.9050
  175MOL0     C22979   9.800   1.329  11.076 -0.4526  0.1403 -0.2960
  175MOL0     C22980   9.686   1.384  11.163  1.1281  0.3935  0.0554
  175MOL0     C22981   9.548   1.384  11.106  0.3963  0.0335 -0.0460
  175MOL0     C22982   9.488   1.524  11.109 -0.7019  0.6964  0.2184
  175MOL0     C22983   9.340   1.539  11.081  0.1287  0.5095  0.5706
  175MOL0     C22984   9.246   1.479  11.192 -0.4788  0.6158  1.0234
  175MOL0     N22985   9.116   1.532  11.168 -0.5325 -0.1131  0.2512
  175MOL0     C22986   9.027   1.557  11.269  0.0346 -0.8885 -0.3501
  175MOL0     C22987   8.919   1.582  11.200  0.3942 -0.3422  0.2981
  175MOL0     C22988   8.778   1.583  11.276 -0.0611 -0.0638 -0.0527
  175MOL0     C22989   8.687   1.712  11.267  0.6739  0.4711 -0.8500
  175MOL0     C22990   8.561   1.718  11.365 -0.0429 -0.5663  0.3953
  175MOL0     C22991   8.482   1.592  11.336 -0.1566  0.4757  0.1406
  175MOL0     O22992   8.369   1.592  11.413  0.0676 -0.5015 -0.2239
  175MOL0     C22993   8.279   1.500  11.383 -0.1476  0.6434 -0.7890
  175MOL0     C22994   8.306   1.356  11.377 -0.2256  0.0590  1.0062
  175MOL0     C22995   8.198   1.268  11.362  0.2534  0.2286 -0.2666
  175MOL0     C22996   8.066   1.317  11.365 -0.6290 -0.1313  0.6830
  175MOL0     C22997   7.952   1.217  11.361  0.2770 -0.5299 -0.0610
  175MOL0     O22998   7.824   1.270  11.362 -0.5708  0.2541  0.6645
  175MOL0     C22999   7.722   1.180  11.318  0.8685  0.1892 -0.9644
  175MOL0     C23000   7.727   1.092  11.205  0.1416  0.2732 -0.7837
  175MOL0     C23001   7.626   1.008  11.165 -0.3183 -0.0811  0.1170
  175MOL0     C23002   7.515   1.005  11.248 -0.3724  0.2080  0.0210
  175MOL0     O23003   7.414   0.909  11.224 -0.7686  0.5458  0.5744
  175MOL0     C23004   7.293   0.916  11.295  0.2483  0.3426 -0.0839
  175MOL0     C23005   7.196   0.806  11.243  0.7641  0.4322  0.6443
  175MOL0     C23006   7.060   0.820  11.324  0.1644  0.5896  0.8426
  175MOL0     C23007   6.977   0.946  11.283  1.5021  0.2242  0.3776
  175MOL0     C23008   6.866   0.997  11.378 -0.3773 -0.5029 -0.2029
  175MOL0     C23009   6.743   0.902  11.409 -0.0758 -0.1502 -0.3426
  175MOL0     C23010   6.663   0.860  11.284 -1.6104 -0.5988  0.1937
  175MOL0     C23011   6.529   0.815  11.321  0.7161  0.5401  0.1225
  175MOL0    Cl23012   6.538   0.653  11.376  0.2088  0.0569  0.2478
  175MOL0     C23013   7.503   1.092  11.357 -0.2680  0.6723 -0.9810
  175MOL0     C23014   7.609   1.181  11.392  0.1451  0.8164 -1.0185
  175MOL0     O23015   7.980   1.102  11.390  0.5865  0.7844  0.8398
  175MOL0     C23016   8.042   1.452  11.376  0.7243  0.2893  1.1144
  175MOL0     C23017   8.145   1.542  11.384  0.1920 -0.5258 -0.3313
  175MOL0     N23018   8.937   1.584  11.064  0.0120 -0.6034  0.5097
  175MOL0     N23019   9.062   1.548  11.041  0.4338  0.4372 -0.2717
  175MOL0     C23020  10.363   1.076  11.170 -0.1629 -0.2238 -0.1642
  175MOL0     C23021  10.484   1.023  11.108 -0.2322  0.8339  0.6650
  175MOL0     C23022  10.776   0.884  10.767  0.2784  0.7876  0.6337
  175MOL0     C23023  10.822   0.821  10.649 -1.3191 -0.4076 -0.3762
  175MOL0     C23024  10.958   0.782  10.638 -0.0264 -0.6900  0.5700
  175MOL0     C23025  11.050   0.795  10.740  0.1461 -0.4291 -0.2933
  175MOL0     O23026  11.181   0.739  10.722  0.5634  0.2541 -0.0152
  175MOL0     C23027  11.210   0.634  10.809 -0.1901  0.2017  0.1886
  175MOL0     C23028  11.325   0.564  10.763 -0.5421  0.4103  0.4256
  175MOL0     C23029  11.452   0.645  10.787 -0.0182  0.2612  0.8686
  175MOL0     C23030  11.561   0.573  10.704 -0.6311 -0.5039  1.1877
  175MOL0     C23031  11.535   0.585  10.558 -0.0356 -0.1192 -0.2326
  175MOL0     C23032  11.509   0.618  10.443  0.5601 -0.5266 -0.1593
  175MOL0     C23033  11.004   0.847  10.865  0.1357 -0.2456  0.4434
  175MOL0     C23034  10.869   0.897  10.873 -0.0528 -0.0101  0.5215
  175MOL0     H23035  10.352   1.006  10.790  0.6914 -1.6299  0.2270
  175MOL0     H23036  10.176   1.090  10.881  1.1920  1.7439 -1.5549
  175MOL0     H23037   9.989   1.138  11.005  2.2874 -1.3965 -0.1085
  175MOL0     H23038  10.065   1.296  11.000 -1.5170  3.0802  1.8338
  175MOL0     H23039   9.964   1.355  11.223 -1.3567  1.4626 -0.7841
  175MOL0     H23040   9.870   1.199  11.228  0.1589 -1.9361 -0.4858
  175MOL0     H23041   9.757   1.244  11.022 -1.7785  0.2850  0.4814
  175MOL0     H23042   9.840   1.409  11.013 -1.2081 -0.7218 -1.9237
  175MOL0     H23043   9.667   1.320  11.249 -0.4465  0.9744  0.1648
  175MOL0     H23044   9.723   1.478  11.206  3.0749  0.0416 -0.7262
  175MOL0     H23045   9.483   1.310  11.154 -0.6056  0.8718 -0.0614
  175MOL0     H23046   9.560   1.356  11.001  0.5978  0.1176 -0.0444
  175MOL0     H23047   9.548   1.583  11.039 -0.1631 -2.5398 -2.3211
  175MOL0     H23048   9.502   1.573  11.206  1.1326 -0.0185  0.3589
  175MOL0     H23049   9.314   1.645  11.079 -1.0682  0.3519  3.4596
  175MOL0     H23050   9.325   1.501  10.980 -1.7100 -1.0689  1.3713
  175MOL0     H23051   9.280   1.514  11.289  2.0815  2.6117 -0.4532
  175MOL0     H23052   9.247   1.370  11.188 -1.2457  0.5683  1.8693
  175MOL0     H23053   9.009   1.532  11.372 -6.1807 -3.0030 -1.5464
  175MOL0     H23054   8.803   1.574  11.382  1.7384 -1.7130 -0.5674
  175MOL0     H23055   8.732   1.489  11.248  5.1464 -2.9587 -0.1708
  175MOL0     H23056   8.651   1.732  11.165 -2.8085  0.3356  0.2100
  175MOL0     H23057   8.753   1.793  11.298 -0.2724  0.8746  0.1866
  175MOL0     H23058   8.590   1.725  11.470 -1.1659 -0.7801  0.7394
  175MOL0     H23059   8.502   1.810  11.354  1.5313  0.6958  1.9568
  175MOL0     H23060   8.546   1.508  11.364  2.8553  2.6121  0.0872
  175MOL0     H23061   8.461   1.585  11.228  1.4126 -2.5504 -0.0727
  175MOL0     H23062   8.410   1.327  11.365  0.5990  2.2956  2.0285
  175MOL0     H23063   8.205   1.163  11.335  0.4846  0.1617  0.0458
  175MOL0     H23064   7.820   1.084  11.150 -0.0136  0.5414 -1.0927
  175MOL0     H23065   7.642   0.938  11.084  1.1186 -1.1378  1.2506
  175MOL0     H23066   7.243   1.013  11.294  1.3476  0.9819  1.9417
  175MOL0     H23067   7.315   0.890  11.398  0.8012 -1.9464 -0.7246
  175MOL0     H23068   7.242   0.710  11.266 -0.3402 -0.0644  0.8497
  175MOL0     H23069   7.174   0.820  11.137 -1.5797 -0.4591  0.9493
  175MOL0     H23070   7.071   0.808  11.432  3.2791  3.9157  1.0990
  175MOL0     H23071   7.001   0.732  11.297  2.8304 -0.8005 -0.8847
  175MOL0     H23072   7.043   1.032  11.268  0.7243  0.8109  0.2777
  175MOL0     H23073   6.921   0.918  11.193 -2.5879 -3.4604  3.6011
  175MOL0     H23074   6.824   1.090  11.338  1.5964  0.4362 -0.2260
  175MOL0     H23075   6.914   1.023  11.472 -1.6905  0.0205  0.3408
  175MOL0     H23076   6.680   0.969  11.468 -0.1876  0.5736 -1.2667
  175MOL0     H23077   6.772   0.820  11.476  1.0274 -0.8662 -1.6646
  175MOL0     H23078   6.649   0.946  11.216  3.3730 -0.3142 -0.8357
  175MOL0     H23079   6.700   0.782  11.217 -4.8546 -0.3372 -2.1764
  175MOL0     H23080   6.461   0.829  11.237  1.8462  2.8110 -0.4903
  175MOL0     H23081   6.503   0.871  11.411 -0.6813 -0.0506  0.1171
  175MOL0     H23082   7.415   1.094  11.419 -0.1027  0.4809 -0.7392
  175MOL0     H23083   7.596   1.255  11.470  1.6405  0.8676 -0.7927
  175MOL0     H23084   7.937   1.480  11.382  0.6014 -0.3385  2.2533
  175MOL0     H23085   8.118   1.647  11.389  3.3540  0.4946 -1.9394
  175MOL0     H23086  10.362   1.101  11.275 -3.9833 -1.6145  0.2948
  175MOL0     H23087  10.579   1.014  11.160  0.8529 -1.4538 -1.4972
  175MOL0     H23088  10.754   0.815  10.564  0.9412 -0.7180 -2.2634
  175MOL0     H23089  10.998   0.740  10.547 -0.4394  0.6943 -0.2826
  175MOL0     H23090  11.125   0.565  10.820 -0.4728  0.5582  0.2461
  175MOL0     H23091  11.234   0.661  10.913  2.0001 -0.6235 -0.0485
  175MOL0     H23092  11.336   0.469  10.817  1.2354 -0.8066 -1.9094
  175MOL0     H23093  11.310   0.541  10.657 -0.6080  1.8852  0.0912
  175MOL0     H23094  11.476   0.656  10.893 -2.7902  0.1136  1.5946
  175MOL0     H23095  11.443   0.747  10.750 -3.5450  0.3282  1.5867
  175MOL0     H23096  11.663   0.608  10.723 -0.1724 -1.9453  1.5446
  175MOL0     H23097  11.562   0.469  10.739  0.0242 -1.4581 -1.4121
  175MOL0     H23098  11.508   0.666  10.348 -1.6181 -0.0137  0.0666
  175MOL0     H23099  11.069   0.848  10.952  0.2708  3.0482  0.4351
  175MOL0     H23100  10.847   0.944  10.968  1.3367 -1.5493  1.6530
  176MOL0     O23101   1.021   2.163   1.625 -0.8084 -0.1413 -0.4120
  176MOL0     C23102   1.093   2.258   1.638  0.6997  0.3831 -0.0520
  176MOL0     O23103   1.052   2.387   1.638  0.0964 -0.5965 -0.6751
  176MOL0     C23104   0.917   2.424   1.626  1.1686  0.3528 -0.1657
  176MOL0     C23105   0.798   2.374   1.689  0.7390 -0.5799 -0.5312
  176MOL0     C23106   0.664   2.413   1.659  0.4158 -0.2300  0.1673
  176MOL0     C23107   0.651   2.515   1.559 -0.4116  0.2124  0.3350
  176MOL0     O23108   0.535   2.567   1.505  0.5173  0.2898  0.3427
  176MOL0     C23109   0.412   2.506   1.547  0.2321  0.3977  0.0553
  176MOL0     C23110   0.343   2.557   1.666 -0.0199 -1.2318  0.5438
  176MOL0     C23111   0.213   2.478   1.688  0.0502  0.0019 -0.3110
  176MOL0     C23112   0.131   2.528   1.806 -0.8801  0.3188 -0.6357
  176MOL0     C23113   0.008   2.449   1.854 -0.1414  0.1099  1.2382
  176MOL0     C23114   0.027   2.299   1.891  0.7852  0.3973  0.1214
  176MOL0     C23115  -0.108   2.230   1.907 -0.1475 -0.3796  0.3025
  176MOL0     C23116  -0.110   2.092   1.850 -0.1650 -0.4936 -0.3470
  176MOL0     N23117  -0.150   2.085   1.709  0.0599 -0.3237 -0.5563
  176MOL0     C23118  -0.272   2.110   1.651  0.2046  0.8992  0.2778
  176MOL0     C23119  -0.252   2.093   1.522  0.1839  0.0155 -0.8451
  176MOL0     C23120  -0.358   2.099   1.411 -0.7344 -1.0325 -0.3819
  176MOL0     C23121  -0.327   2.210   1.315  0.1119  0.8036  1.1057
  176MOL0     C23122  -0.247   2.164   1.190 -0.3391  0.1024 -0.1767
  176MOL0     C23123  -0.184   2.275   1.112  0.0916  0.3829 -0.2955
  176MOL0     O23124  -0.111   2.217   0.999  0.7643 -0.7220 -0.3530
  176MOL0     C23125  -0.016   2.295   0.936  0.8547  0.4889 -0.2077
  176MOL0     C23126   0.005   2.433   0.970 -0.8263  0.2676  0.1174
  176MOL0     C23127   0.110   2.501   0.900 -0.0888 -0.9778 -0.4420
  176MOL0     C23128   0.176   2.447   0.788 -1.0475 -0.4015  0.1857
  176MOL0     C23129   0.285   2.520   0.718  0.5856 -0.4121  0.6007
  176MOL0     O23130   0.342   2.466   0.604  0.9070  0.1119 -0.0440
  176MOL0     C23131   0.460   2.534   0.566  0.6142  0.1233  0.0177
  176MOL0     C23132   0.572   2.564   0.647  0.0346  0.4355  0.3801
  176MOL0     C23133   0.681   2.631   0.593 -1.1171  0.5758 -0.0886
  176MOL0     C23134   0.677   2.669   0.457 -0.9017  0.1660 -0.1836
  176MOL0     O23135   0.788   2.742   0.406  0.0146  0.0959 -0.6136
  176MOL0     C23136   0.753   2.854   0.320  0.9317 -0.1026  0.0651
  176MOL0     C23137   0.844   2.861   0.198  0.5093 -0.9247  0.2950
  176MOL0     C23138   0.836   2.999   0.130  0.2989 -0.7590  0.7921
  176MOL0     C23139   0.925   2.993   0.008 -0.1512  1.0618  0.7423
  176MOL0     C23140   0.891   3.108  -0.081  0.1428  0.3059 -0.5065
  176MOL0     C23141   1.007   3.138  -0.175  0.9049  0.6264  0.1075
  176MOL0     C23142   0.984   3.048  -0.296  0.7703  0.1577  0.5410
  176MOL0     C23143   1.105   2.965  -0.347 -0.5183 -0.8596 -0.1988
  176MOL0    Cl23144   1.229   3.050  -0.446  0.0416  0.1896  0.0614
  176MOL0     C23145   0.574   2.620   0.370 -0.4414  0.0739  0.0182
  176MOL0     C23146   0.467   2.557   0.432  0.3357 -0.0900 -0.3216
  176MOL0     O23147   0.322   2.628   0.773 -0.0814  0.7780 -0.3819
  176MOL0     C23148   0.136   2.312   0.750  0.4705  0.6621 -0.5939
  176MOL0     C23149   0.045   2.241   0.822  0.5235  0.5554  0.0548
  176MOL0     N23150  -0.124   2.052   1.495 -0.0642  0.4209  0.0639
  176MOL0     N23151  -0.064   2.051   1.609 -0.2014  0.0005 -0.3371
  176MOL0     C23152   0.766   2.574   1.503 -0.0560  0.6473 -0.8664
  176MOL0     C23153   0.892   2.518   1.524  0.1101  0.6220  0.1047
  176MOL0     C23154   1.245   2.240   1.616  0.2775  0.5432 -0.5837
  176MOL0     C23155   1.333   2.351   1.604  0.8283  0.4228  0.0988
  176MOL0     C23156   1.474   2.337   1.601  0.6376  0.5378 -0.3029
  176MOL0     C23157   1.528   2.205   1.609 -0.1231  0.0871  0.5886
  176MOL0     O23158   1.662   2.170   1.607 -0.4848 -0.7628 -0.0834
  176MOL0     C23159   1.759   2.270   1.562  0.0895  0.3705  0.4692
  176MOL0     C23160   1.900   2.218   1.579  0.7402  0.6896 -0.1651
  176MOL0     C23161   2.018   2.307   1.539  0.2674 -0.6714  0.1281
  176MOL0     C23162   2.028   2.421   1.642 -0.4744 -0.0878  0.6073
  176MOL0     C23163   2.144   2.492   1.623  0.8500 -1.1901 -0.5871
  176MOL0     C23164   2.244   2.554   1.607  0.1079 -0.7575 -0.2012
  176MOL0     C23165   1.446   2.092   1.617 -0.2414  0.1462  0.1985
  176MOL0     C23166   1.304   2.114   1.621 -0.0854 -0.3075 -0.6836
  176MOL0     H23167   0.799   2.296   1.764  0.4623 -0.0713  0.0128
  176MOL0     H23168   0.584   2.385   1.727  0.7697  0.8552  1.0652
  176MOL0     H23169   0.420   2.397   1.550  1.4623  0.4408 -0.7068
  176MOL0     H23170   0.350   2.520   1.457  0.8366  2.3781 -0.1078
  176MOL0     H23171   0.339   2.666   1.656  1.9884 -1.1352  0.3856
  176MOL0     H23172   0.408   2.548   1.754  0.9739 -2.5514 -0.2888
  176MOL0     H23173   0.248   2.375   1.700 -0.1449  0.1604  2.1070
  176MOL0     H23174   0.154   2.483   1.596 -2.8350  1.7092  1.5033
  176MOL0     H23175   0.203   2.531   1.888 -1.4472  0.9438 -0.1474
  176MOL0     H23176   0.095   2.630   1.791  0.2712  1.2547  2.2573
  176MOL0     H23177  -0.063   2.455   1.771 -0.9277 -1.8085  1.7271
  176MOL0     H23178  -0.030   2.510   1.937  1.2061 -0.1460  2.0833
  176MOL0     H23179   0.081   2.291   1.986 -0.4025 -4.2777  0.6762
  176MOL0     H23180   0.083   2.248   1.811  0.8914  0.5296  0.1114
  176MOL0     H23181  -0.133   2.229   2.013 -2.0918 -1.5398 -0.1216
  176MOL0     H23182  -0.197   2.273   1.860 -0.7953 -1.9035  0.0901
  176MOL0     H23183  -0.183   2.027   1.898 -1.0777 -0.2754 -1.3983
  176MOL0     H23184  -0.010   2.049   1.852  0.5253  1.0486  1.0111
  176MOL0     H23185  -0.365   2.123   1.706  0.6197  1.3858  0.8837
  176MOL0     H23186  -0.457   2.125   1.451 -0.9875 -2.1412 -0.2638
  176MOL0     H23187  -0.367   2.004   1.358 -1.9206  0.0405 -2.2426
  176MOL0     H23188  -0.262   2.285   1.362  3.5245 -0.9002 -0.5389
  176MOL0     H23189  -0.420   2.251   1.275 -0.1051  0.0872  0.8690
  176MOL0     H23190  -0.158   2.112   1.228 -0.9877  0.3053  1.7216
  176MOL0     H23191  -0.297   2.084   1.134 -1.1394 -2.0281  3.2713
  176MOL0     H23192  -0.116   2.328   1.178 -0.2465  0.5553 -0.0815
  176MOL0     H23193  -0.257   2.342   1.065  4.1852  4.8377 -1.0299
  176MOL0     H23194  -0.044   2.480   1.055 -1.3516  1.7740 -0.9944
  176MOL0     H23195   0.138   2.600   0.932 -0.1301 -0.3800 -2.1637
  176MOL0     H23196   0.568   2.515   0.743  0.0653 -2.0627 -0.7985
  176MOL0     H23197   0.760   2.674   0.653 -1.4196  3.3839 -1.5683
  176MOL0     H23198   0.772   2.947   0.375  0.0041  1.2118 -1.7282
  176MOL0     H23199   0.655   2.859   0.272  1.0724  1.7642 -0.1217
  176MOL0     H23200   0.822   2.782   0.126 -3.3872  1.6204 -1.7087
  176MOL0     H23201   0.946   2.849   0.233 -0.0298 -2.8930  1.3093
  176MOL0     H23202   0.855   3.081   0.199 -0.3617  0.0769  0.0026
  176MOL0     H23203   0.735   3.021   0.092  0.8473 -0.8509 -0.8121
  176MOL0     H23204   1.025   2.988   0.053 -1.3876  0.5498  3.6938
  176MOL0     H23205   0.911   2.906  -0.057  3.0097  0.5029  0.6659
  176MOL0     H23206   0.880   3.194  -0.014  0.6913  1.2213 -1.5664
  176MOL0     H23207   0.791   3.092  -0.124 -0.8133 -0.3392  1.7958
  176MOL0     H23208   1.110   3.125  -0.141  2.9402  1.8519 -4.7701
  176MOL0     H23209   0.999   3.244  -0.199 -1.0623  0.4847 -0.0427
  176MOL0     H23210   0.914   2.968  -0.271  2.8100 -1.9073  0.0338
  176MOL0     H23211   0.947   3.103  -0.383 -0.3481 -2.0073 -0.4262
  176MOL0     H23212   1.056   2.898  -0.418 -1.4900 -0.5203  0.1268
  176MOL0     H23213   1.149   2.908  -0.265 -0.0164  0.1983  0.2872
  176MOL0     H23214   0.590   2.627   0.263 -1.5621 -1.7583 -0.3174
  176MOL0     H23215   0.398   2.528   0.354  0.7355  2.5537 -1.7988
  176MOL0     H23216   0.178   2.252   0.670  2.2204 -1.4158  1.7201
  176MOL0     H23217   0.004   2.145   0.795  0.2919  0.7310 -0.2215
  176MOL0     H23218   0.751   2.662   1.441  1.9794 -0.2081 -2.7284
  176MOL0     H23219   0.977   2.564   1.475  0.5547  1.5136  1.6540
  176MOL0     H23220   1.287   2.449   1.599 -1.8456 -0.7950 -1.0648
  176MOL0     H23221   1.527   2.429   1.583 -0.0910  0.6189 -2.3002
  176MOL0     H23222   1.747   2.360   1.622  1.6272  2.0204 -1.5702
  176MOL0     H23223   1.746   2.321   1.466  1.1374 -0.4903 -0.1557
  176MOL0     H23224   1.907   2.185   1.683  0.7013  0.7926 -0.1300
  176MOL0     H23225   1.913   2.121   1.529 -0.8998  0.0174  0.6399
  176MOL0     H23226   1.987   2.342   1.440 -3.6974  0.5477  1.6004
  176MOL0     H23227   2.111   2.250   1.527  2.1577  1.8264  1.9172
  176MOL0     H23228   1.953   2.498   1.620  1.7412  0.9910 -4.7047
  176MOL0     H23229   2.020   2.380   1.743 -2.3992  0.4485  0.7155
  176MOL0     H23230   2.333   2.613   1.605 -0.0050 -0.3312  2.7441
  176MOL0     H23231   1.489   1.993   1.622  0.2059  0.1738 -1.8694
  176MOL0     H23232   1.231   2.036   1.635  0.1905 -0.3277  0.9303
  177MOL0     O23233   2.504   6.516   1.327  0.0379  0.0524  0.0008
  177MOL0     C23234   2.424   6.500   1.240  0.7683  0.3211 -0.3994
  177MOL0     O23235   2.290   6.472   1.259 -0.0810  0.0815  0.2287
  177MOL0     C23236   2.243   6.432   1.381  0.2387 -0.3473 -0.1340
  177MOL0     C23237   2.266   6.514   1.502  1.0725  0.2599 -0.3596
  177MOL0     C23238   2.203   6.462   1.615 -0.3391  0.2466 -0.8204
  177MOL0     C23239   2.115   6.349   1.610 -0.0713  0.3771  1.0944
  177MOL0     O23240   2.064   6.311   1.731  0.5162  0.3843  0.0096
  177MOL0     C23241   2.020   6.179   1.747  0.4386 -0.1538  0.0316
  177MOL0     C23242   1.869   6.151   1.742 -0.7637  0.0830 -0.7213
  177MOL0     C23243   1.800   6.214   1.869  0.0371  0.5429  0.6894
  177MOL0     C23244   1.654   6.243   1.836 -0.5288 -0.2204  0.5766
  177MOL0     C23245   1.580   6.271   1.966 -0.0570  1.1866 -1.1555
  177MOL0     C23246   1.430   6.282   1.941  0.3842  1.0275  0.3337
  177MOL0     C23247   1.365   6.138   1.927 -0.1042 -0.4879  0.6226
  177MOL0     C23248   1.212   6.146   1.888 -1.0306  0.2934  0.3862
  177MOL0     N23249   1.157   6.008   1.877 -0.3109 -0.5632 -0.2428
  177MOL0     C23250   1.056   5.968   1.795 -0.2383  0.4486  0.8683
  177MOL0     C23251   1.022   5.839   1.828  0.1990  0.2194  0.0384
  177MOL0     C23252   0.913   5.754   1.770  1.0657  0.1338  0.8399
  177MOL0     C23253   0.948   5.606   1.771  0.7830  0.1363  0.1160
  177MOL0     C23254   0.834   5.514   1.746  0.5648 -0.5376  0.8595
  177MOL0     C23255   0.791   5.507   1.595 -0.2558 -0.3669  0.3902
  177MOL0     O23256   0.686   5.415   1.600  0.6739 -0.0268 -0.7104
  177MOL0     C23257   0.629   5.354   1.493 -0.1825  0.2131 -0.3762
  177MOL0     C23258   0.501   5.292   1.501  0.3825 -0.2022  0.0333
  177MOL0     C23259   0.437   5.248   1.380  0.9492 -0.4024  0.9599
  177MOL0     C23260   0.510   5.251   1.258 -0.3268 -0.3193  0.5334
  177MOL0     C23261   0.461   5.177   1.136  0.2455  0.2843  0.9721
  177MOL0     O23262   0.551   5.172   1.031 -0.2792  0.0708  0.3747
  177MOL0     C23263   0.539   5.070   0.936  0.6242  0.7260 -0.5362
  177MOL0     C23264   0.461   5.087   0.824  0.1999  0.4154  0.0250
  177MOL0     C23265   0.439   4.982   0.738 -0.1643  0.4487 -0.0907
  177MOL0     C23266   0.503   4.857   0.764  0.1321 -0.0673 -0.3619
  177MOL0     O23267   0.465   4.745   0.698 -0.5210  0.1243 -0.6151
  177MOL0     C23268   0.405   4.738   0.570 -0.2411 -0.2357  0.7600
  177MOL0     C23269   0.392   4.591   0.514 -0.1157  0.2674 -0.8032
  177MOL0     C23270   0.340   4.594   0.375 -0.3058 -0.2438 -0.7426
  177MOL0     C23271   0.349   4.450   0.311 -0.2147  0.2159  0.4976
  177MOL0     C23272   0.483   4.443   0.224  0.0528 -0.0520 -0.2105
  177MOL0     C23273   0.488   4.303   0.163  0.3900 -0.6791 -0.5094
  177MOL0     C23274   0.613   4.273   0.093  0.4938 -0.1177  0.8236
  177MOL0     C23275   0.664   4.127   0.104 -0.4921 -0.2559 -0.3645
  177MOL0    Cl23276   0.531   4.024   0.064 -0.2112 -0.3839  0.2804
  177MOL0     C23277   0.580   4.845   0.876 -0.3678 -0.2447  0.7246
  177MOL0     C23278   0.601   4.950   0.961  0.2283 -1.4459 -0.2019
  177MOL0     O23279   0.350   5.121   1.138 -0.0280 -0.1384  0.3897
  177MOL0     C23280   0.635   5.314   1.250  0.3588  0.9993  0.5707
  177MOL0     C23281   0.690   5.369   1.367  0.6547 -0.8444  1.2602
  177MOL0     N23282   1.100   5.814   1.942 -0.0528 -0.2558  1.2280
  177MOL0     N23283   1.174   5.912   1.969  0.5910 -0.6189  0.0939
  177MOL0     C23284   2.080   6.293   1.488  0.6514  0.0459  0.4283
  177MOL0     C23285   2.153   6.323   1.374  0.7983 -0.1616 -0.0935
  177MOL0     C23286   2.472   6.490   1.108 -0.1257 -0.1812 -0.3503
  177MOL0     C23287   2.393   6.429   1.009 -0.1739  0.7992  0.6579
  177MOL0     C23288   2.438   6.424   0.879 -0.2200  0.5221 -0.0249
  177MOL0     C23289   2.564   6.467   0.851 -0.6599  0.2952 -0.0893
  177MOL0     O23290   2.610   6.471   0.727  0.3265  0.1483 -0.3713
  177MOL0     C23291   2.584   6.383   0.624  0.8545  0.3859 -0.5699
  177MOL0     C23292   2.717   6.368   0.541  0.0810  0.7307  0.6268
  177MOL0     C23293   2.800   6.501   0.540 -0.1212  0.8685  0.4728
  177MOL0     C23294   2.910   6.513   0.422 -0.1526  0.2621 -0.4631
  177MOL0     C23295   2.858   6.495   0.289 -0.8794  0.1094 -1.0574
  177MOL0     C23296   2.803   6.479   0.182  0.1164 -0.6270 -1.0878
  177MOL0     C23297   2.642   6.535   0.946  0.1614 -0.4439  0.0053
  177MOL0     C23298   2.599   6.542   1.078  0.9674 -0.4237  0.0213
  177MOL0     H23299   2.330   6.601   1.512 -0.1681  1.1694 -0.0093
  177MOL0     H23300   2.207   6.506   1.714 -2.9659  0.1508 -0.5868
  177MOL0     H23301   2.061   6.155   1.846  2.5224  3.6239  0.2971
  177MOL0     H23302   2.073   6.115   1.676 -0.5687 -0.5593 -0.3641
  177MOL0     H23303   1.854   6.043   1.739 -1.3876  0.1829 -1.5694
  177MOL0     H23304   1.825   6.196   1.652 -3.6394 -0.5917  0.2342
  177MOL0     H23305   1.846   6.305   1.909 -1.1294  0.6656  1.7955
  177MOL0     H23306   1.812   6.144   1.952  3.6057 -0.1987 -0.2845
  177MOL0     H23307   1.649   6.332   1.771  0.3980  0.5945  1.5775
  177MOL0     H23308   1.609   6.164   1.775  0.8353 -0.3895 -0.2638
  177MOL0     H23309   1.610   6.366   2.011 -2.4235  0.3621  2.6027
  177MOL0     H23310   1.605   6.195   2.041 -2.2718 -1.0094 -2.4726
  177MOL0     H23311   1.418   6.326   1.841  1.4055 -0.3852 -0.4400
  177MOL0     H23312   1.385   6.335   2.026 -4.4257 -0.1739 -1.1326
  177MOL0     H23313   1.424   6.076   1.859  1.9973  1.7592  0.2437
  177MOL0     H23314   1.374   6.088   2.023 -1.2273  2.1379  2.2166
  177MOL0     H23315   1.188   6.197   1.794 -1.2338  1.9687  1.3005
  177MOL0     H23316   1.155   6.199   1.965 -1.6528  0.3021 -0.0701
  177MOL0     H23317   0.992   6.020   1.725 -0.5939 -0.4003  0.5478
  177MOL0     H23318   0.900   5.780   1.665 -0.1635 -0.9244  0.6922
  177MOL0     H23319   0.817   5.765   1.822 -0.2963  4.5845 -2.0722
  177MOL0     H23320   0.978   5.585   1.874  0.1244 -1.3415  0.0266
  177MOL0     H23321   1.037   5.589   1.710 -0.7762 -1.0419 -1.9636
  177MOL0     H23322   0.858   5.419   1.794 -1.4835 -0.2217  2.6565
  177MOL0     H23323   0.750   5.542   1.810 -0.1883 -1.2727  0.2236
  177MOL0     H23324   0.874   5.466   1.537  1.4322  0.6813  1.9533
  177MOL0     H23325   0.753   5.596   1.544  1.8016 -0.4797 -1.4762
  177MOL0     H23326   0.451   5.295   1.598  0.0482  2.9495 -0.1301
  177MOL0     H23327   0.341   5.198   1.380 -0.4576  2.0208 -1.2830
  177MOL0     H23328   0.421   5.180   0.785  0.4626 -0.6872 -3.2355
  177MOL0     H23329   0.374   5.015   0.658 -1.2803  0.1947  0.6967
  177MOL0     H23330   0.464   4.806   0.508 -1.8615 -0.1600 -0.7823
  177MOL0     H23331   0.303   4.770   0.592  0.6575  1.9554  2.1575
  177MOL0     H23332   0.317   4.550   0.583 -0.0139  0.2256 -0.7168
  177MOL0     H23333   0.483   4.532   0.501  0.3112  0.8316 -0.3710
  177MOL0     H23334   0.386   4.673   0.315  0.5748 -0.8290 -0.8580
  177MOL0     H23335   0.235   4.624   0.377  0.1983  1.6217  0.7353
  177MOL0     H23336   0.339   4.381   0.395  1.3803  0.7911  1.2042
  177MOL0     H23337   0.264   4.437   0.243 -0.5912  1.9104  0.5939
  177MOL0     H23338   0.567   4.459   0.292  0.2462  2.8429 -0.9698
  177MOL0     H23339   0.481   4.515   0.141 -4.8340 -0.3783 -0.6629
  177MOL0     H23340   0.403   4.298   0.094  0.6562  1.2367 -1.0386
  177MOL0     H23341   0.476   4.240   0.252  1.4321  0.5536  0.5425
  177MOL0     H23342   0.601   4.287  -0.015  3.0783 -0.9148  0.3777
  177MOL0     H23343   0.683   4.349   0.128 -1.5078  1.7195  1.0470
  177MOL0     H23344   0.706   4.120   0.205  0.2295  1.3166 -0.5364
  177MOL0     H23345   0.749   4.112   0.037 -0.1666  1.2057 -0.3008
  177MOL0     H23346   0.616   4.745   0.899 -0.1094  0.0313  1.5431
  177MOL0     H23347   0.652   4.947   1.057  0.6611  2.9576 -0.0848
  177MOL0     H23348   0.695   5.311   1.160 -1.5642  0.0952 -0.7391
  177MOL0     H23349   0.789   5.411   1.361  1.7244 -3.3251 -0.5347
  177MOL0     H23350   2.008   6.211   1.486 -0.8852  1.2832  2.0773
  177MOL0     H23351   2.126   6.281   1.278 -2.4930 -1.8634  1.4362
  177MOL0     H23352   2.305   6.368   1.025  2.7708 -3.2394  3.6176
  177MOL0     H23353   2.376   6.379   0.801  0.5376  0.3131 -0.5253
  177MOL0     H23354   2.502   6.423   0.564 -0.0032  0.1744  0.4263
  177MOL0     H23355   2.557   6.285   0.664 -0.5370  0.2806 -1.6707
  177MOL0     H23356   2.781   6.290   0.584  2.4441  0.8737 -2.3009
  177MOL0     H23357   2.678   6.339   0.443 -0.1605 -1.7618  1.3743
  177MOL0     H23358   2.848   6.507   0.638  2.7893 -1.6786 -0.6322
  177MOL0     H23359   2.728   6.583   0.530 -2.9223 -1.4389  0.7198
  177MOL0     H23360   2.960   6.609   0.425 -0.7182  0.5780  2.4865
  177MOL0     H23361   2.989   6.440   0.442  0.1242  0.7435  0.2398
  177MOL0     H23362   2.752   6.472   0.087 -1.3570  1.7983 -0.5583
  177MOL0     H23363   2.737   6.575   0.912 -0.4667  0.1712 -1.0588
  177MOL0     H23364   2.665   6.584   1.154  0.4304  0.7865 -0.1527
  178MOL0     O23365  10.952   5.804   9.700  0.3821 -0.3113 -0.1040
  178MOL0     C23366  11.027   5.804   9.602  0.4157  0.5625 -0.8644
  178MOL0     O23367  10.982   5.806   9.472  0.0224 -0.5262  0.6737
  178MOL0     C23368  10.847   5.849   9.452 -0.5725 -0.1474 -0.5175
  178MOL0     C23369  10.824   5.953   9.358 -0.1618 -0.6668 -0.4408
  178MOL0     C23370  10.693   5.984   9.321  0.3923  0.0474  0.2040
  178MOL0     C23371  10.584   5.918   9.371  1.5558 -0.3779  0.4369
  178MOL0     O23372  10.459   5.955   9.315  0.1229 -0.4857  0.7151
  178MOL0     C23373  10.340   5.912   9.386  0.3750 -0.9789 -0.6552
  178MOL0     C23374  10.205   5.919   9.305  0.6367  0.0178  0.2015
  178MOL0     C23375  10.152   6.064   9.307 -0.0508  0.3887  0.4577
  178MOL0     C23376  10.022   6.088   9.219  1.5162  0.7792 -0.2158
  178MOL0     C23377   9.924   5.974   9.209 -0.1395  0.6855 -0.2796
  178MOL0     C23378   9.803   5.992   9.125  0.0144  0.0825 -0.1122
  178MOL0     C23379   9.716   5.872   9.109  0.5407  0.7830  0.6268
  178MOL0     C23380   9.594   5.900   9.026 -1.3068  0.0685  0.1974
  178MOL0     N23381   9.493   5.978   9.098 -0.5333 -0.4798 -0.7294
  178MOL0     C23382   9.367   6.025   9.048  0.1476 -0.0052 -0.3357
  178MOL0     C23383   9.334   6.120   9.141 -0.1768 -0.4538  0.0931
  178MOL0     C23384   9.195   6.188   9.124 -0.2946 -0.3217 -0.8120
  178MOL0     C23385   9.186   6.290   9.006 -0.9822  0.2940  1.3087
  178MOL0     C23386   9.054   6.294   8.928 -0.3505 -0.3023 -0.4587
  178MOL0     C23387   8.932   6.322   9.018 -0.3380 -0.4014 -1.2476
  178MOL0     O23388   8.958   6.439   9.091 -0.2767  0.5209  0.4730
  178MOL0     C23389   8.847   6.508   9.141 -0.3933  1.0692  0.3180
  178MOL0     C23390   8.866   6.643   9.160 -0.0357 -0.5437 -0.7708
  178MOL0     C23391   8.766   6.726   9.215 -0.4938  0.1991  0.9271
  178MOL0     C23392   8.641   6.657   9.245 -0.1125  1.2117 -0.1277
  178MOL0     C23393   8.528   6.736   9.277  0.3759 -1.1235 -1.1976
  178MOL0     O23394   8.407   6.666   9.310 -0.6259 -0.1461  0.0964
  178MOL0     C23395   8.285   6.722   9.309 -0.5791  0.5527  0.5168
  178MOL0     C23396   8.241   6.853   9.291 -0.8217 -0.3621 -0.4500
  178MOL0     C23397   8.099   6.880   9.279  0.1244 -0.0148 -0.5197
  178MOL0     C23398   8.013   6.770   9.282  1.0214 -0.3872  1.3421
  178MOL0     O23399   7.880   6.784   9.261  0.5799 -0.3346 -0.0819
  178MOL0     C23400   7.799   6.828   9.367 -0.5814 -0.1896  0.0868
  178MOL0     C23401   7.677   6.744   9.380  0.2792  0.1832  0.3038
  178MOL0     C23402   7.711   6.592   9.401 -1.3804  0.3589  0.3816
  178MOL0     C23403   7.701   6.511   9.266  0.6973 -1.1247 -0.2316
  178MOL0     C23404   7.558   6.459   9.245 -0.9458  0.2327 -0.4880
  178MOL0     C23405   7.560   6.304   9.202  0.6871  0.0889 -0.4899
  178MOL0     C23406   7.418   6.242   9.191  1.2933  0.1416 -0.1256
  178MOL0     C23407   7.390   6.108   9.121 -0.3904  0.1269 -0.0822
  178MOL0    Cl23408   7.513   6.091   8.988 -0.1444 -0.2342  0.2186
  178MOL0     C23409   8.058   6.641   9.284 -0.4810  0.3618 -0.3333
  178MOL0     C23410   8.190   6.620   9.312 -0.0869  0.4139  0.2752
  178MOL0     O23411   8.533   6.853   9.242 -0.7533 -0.3094 -0.6182
  178MOL0     C23412   8.622   6.518   9.223  0.9110  0.2537  0.2195
  178MOL0     C23413   8.723   6.448   9.168 -0.5736  0.0300 -0.9344
  178MOL0     N23414   9.416   6.123   9.252  0.1547  0.0629 -0.2858
  178MOL0     N23415   9.511   6.031   9.224  0.0745  0.3305 -0.2589
  178MOL0     C23416  10.609   5.815   9.465  1.6592 -0.1466  0.2733
  178MOL0     C23417  10.738   5.775   9.495  0.2720 -0.5559  0.3593
  178MOL0     C23418  11.163   5.755   9.620  0.1050  0.3089  0.4662
  178MOL0     C23419  11.240   5.712   9.520 -0.6861  0.0047  0.2516
  178MOL0     C23420  11.370   5.672   9.543 -0.6607  0.9885 -0.1078
  178MOL0     C23421  11.432   5.687   9.669  0.2627 -0.8958 -0.3807
  178MOL0     O23422  11.557   5.640   9.685  0.1605 -0.1753  0.0004
  178MOL0     C23423  11.617   5.619   9.815  0.1567  0.3942 -0.1295
  178MOL0     C23424  11.676   5.475   9.825  0.3669  0.0239 -0.1380
  178MOL0     C23425  11.789   5.432   9.721  0.2458 -0.3909 -0.2426
  178MOL0     C23426  11.905   5.531   9.713 -0.2089  0.3985  0.4614
  178MOL0     C23427  11.980   5.526   9.841 -0.2539 -0.3625 -1.0030
  178MOL0     C23428  12.036   5.514   9.950 -0.1559 -0.7928  0.6268
  178MOL0     C23429  11.339   5.738   9.772 -0.4816  0.1130  0.1325
  178MOL0     C23430  11.212   5.756   9.749  0.4014 -0.9741  0.1988
  178MOL0     H23431  10.913   6.009   9.333 -0.6667  0.5690  0.4357
  178MOL0     H23432  10.673   6.072   9.260  0.3526  0.4589  0.8026
  178MOL0     H23433  10.331   5.974   9.475 -1.0702 -0.7947 -0.9062
  178MOL0     H23434  10.352   5.809   9.419 -2.8611 -1.3002 -0.2353
  178MOL0     H23435  10.131   5.855   9.355  0.8284 -0.3024  0.0763
  178MOL0     H23436  10.227   5.878   9.206 -0.6383  0.0574 -0.1119
  178MOL0     H23437  10.233   6.126   9.267 -1.0153  0.9334 -0.7038
  178MOL0     H23438  10.132   6.103   9.407  0.3121 -1.8923  1.4888
  178MOL0     H23439   9.952   6.164   9.254 -3.4985 -0.5137 -5.8167
  178MOL0     H23440  10.054   6.126   9.122  3.3923  0.4166  0.2174
  178MOL0     H23441   9.878   5.948   9.305 -2.2443  1.0635 -1.1393
  178MOL0     H23442   9.977   5.882   9.182  2.4798  2.4300 -1.4737
  178MOL0     H23443   9.829   6.030   9.026 -2.7452 -0.6993 -1.2660
  178MOL0     H23444   9.737   6.069   9.167 -1.7570 -1.7519  0.6652
  178MOL0     H23445   9.773   5.795   9.057 -1.1882  0.5431 -1.0403
  178MOL0     H23446   9.683   5.832   9.205  0.6271 -0.5536  0.1220
  178MOL0     H23447   9.543   5.811   8.988  0.9351 -0.7073 -1.2323
  178MOL0     H23448   9.631   5.962   8.943 -1.3019  0.9201  0.8266
  178MOL0     H23449   9.308   5.996   8.961  1.5475 -1.8073 -0.7640
  178MOL0     H23450   9.169   6.236   9.219  2.1326 -3.6783  1.8012
  178MOL0     H23451   9.121   6.108   9.110 -0.7847  0.2403 -1.4817
  178MOL0     H23452   9.260   6.255   8.933 -1.7265 -1.0731  1.1608
  178MOL0     H23453   9.222   6.386   9.042  0.3994  0.3757 -0.1966
  178MOL0     H23454   9.053   6.379   8.860  0.7496 -0.6863 -0.9771
  178MOL0     H23455   9.021   6.209   8.869  0.4236  0.5933 -2.2361
  178MOL0     H23456   8.929   6.232   9.081  1.3413  0.8575  0.7600
  178MOL0     H23457   8.843   6.321   8.954 -0.0994 -2.7669 -1.6134
  178MOL0     H23458   8.960   6.694   9.143 -0.5112  0.0042 -1.8246
  178MOL0     H23459   8.775   6.834   9.229  2.9302 -0.0683  1.7127
  178MOL0     H23460   8.311   6.936   9.289  0.5191 -1.3255  2.1174
  178MOL0     H23461   8.090   6.987   9.263  2.7761  0.3250 -0.2082
  178MOL0     H23462   7.759   6.929   9.353  2.1555  0.6724 -2.5993
  178MOL0     H23463   7.851   6.838   9.462 -1.9566  0.7053  0.7663
  178MOL0     H23464   7.622   6.755   9.286 -0.6147  0.5273  0.8590
  178MOL0     H23465   7.618   6.764   9.470  1.9402 -1.9826  1.9550
  178MOL0     H23466   7.652   6.537   9.475  1.3932 -0.8811  1.7941
  178MOL0     H23467   7.813   6.579   9.437 -1.5640 -0.2441  0.7064
  178MOL0     H23468   7.735   6.578   9.186 -2.4356  0.9496  0.0293
  178MOL0     H23469   7.781   6.436   9.263  1.3293 -0.4581 -0.6671
  178MOL0     H23470   7.500   6.518   9.173 -0.8613  1.4619  0.4147
  178MOL0     H23471   7.506   6.458   9.341  1.2599 -2.8961  0.8454
  178MOL0     H23472   7.618   6.231   9.259 -1.1220 -1.1443 -0.1654
  178MOL0     H23473   7.618   6.306   9.109  1.7405  0.2643  0.1496
  178MOL0     H23474   7.365   6.241   9.287  1.0068 -1.6604 -0.2829
  178MOL0     H23475   7.356   6.302   9.124 -0.4623 -2.2413 -0.7449
  178MOL0     H23476   7.288   6.105   9.084 -0.6299  0.5563  0.5267
  178MOL0     H23477   7.407   6.016   9.177  2.5114 -1.4138 -3.0873
  178MOL0     H23478   7.996   6.552   9.280 -0.1667  0.1102  0.3170
  178MOL0     H23479   8.221   6.518   9.331 -1.9842 -0.0409  1.1435
  178MOL0     H23480   8.528   6.468   9.245  1.5595 -0.8237  0.6030
  178MOL0     H23481   8.711   6.341   9.149  3.8465 -1.1034  1.2737
  178MOL0     H23482  10.533   5.758   9.518  3.5105 -3.1736 -0.0811
  178MOL0     H23483  10.748   5.689   9.560 -0.8641 -1.4511 -0.6325
  178MOL0     H23484  11.197   5.697   9.422  1.2971  0.3578 -0.7420
  178MOL0     H23485  11.434   5.635   9.464  0.0649  2.1555 -0.0919
  178MOL0     H23486  11.533   5.619   9.886 -1.3083  0.9600 -1.7875
  178MOL0     H23487  11.696   5.694   9.825  1.7631 -1.4654  2.4589
  178MOL0     H23488  11.711   5.480   9.928 -2.0047 -0.7308  0.7885
  178MOL0     H23489  11.602   5.394   9.827 -1.0315  1.1514 -2.0981
  178MOL0     H23490  11.740   5.426   9.623  0.5093  3.6691 -0.7860
  178MOL0     H23491  11.824   5.333   9.748  0.2619 -0.9821 -2.2254
  178MOL0     H23492  11.975   5.493   9.638  1.8246 -0.4186  2.6290
  178MOL0     H23493  11.875   5.631   9.681 -0.3304  0.1055 -0.3631
  178MOL0     H23494  12.104   5.517  10.032  1.0729 -0.4589 -0.3684
  178MOL0     H23495  11.389   5.770   9.862 -0.1945  0.0026  0.0121
  178MOL0     H23496  11.148   5.797   9.827 -1.4153  3.1827 -3.0268
  179MOL0     O23497   6.412   8.434   0.252  0.1927 -0.3689  1.0097
  179MOL0     C23498   6.469   8.537   0.286  0.5141  0.8191 -0.1122
  179MOL0     O23499   6.432   8.612   0.390 -0.2825 -0.7403  0.1888
  179MOL0     C23500   6.321   8.580   0.467 -0.0657 -0.6160  0.4178
  179MOL0     C23501   6.191   8.559   0.410 -0.2518 -0.0115  0.2814
  179MOL0     C23502   6.087   8.529   0.497 -0.3525 -0.4954 -0.4668
  179MOL0     C23503   6.104   8.524   0.636 -0.3518  0.3286  0.5691
  179MOL0     O23504   5.998   8.503   0.717 -0.6938  0.0778 -0.3367
  179MOL0     C23505   6.021   8.401   0.822 -0.5254 -0.1231  0.0919
  179MOL0     C23506   5.907   8.309   0.820  0.9024 -1.0068 -0.6054
  179MOL0     C23507   5.785   8.393   0.857 -0.1637  1.1229 -0.7607
  179MOL0     C23508   5.650   8.317   0.853  0.8690  0.0876  0.1914
  179MOL0     C23509   5.544   8.350   0.951  0.1153  0.1418  0.7661
  179MOL0     C23510   5.510   8.500   0.952 -0.0229 -0.2666  0.4925
  179MOL0     C23511   5.385   8.528   1.032  0.6140  0.6440  0.5601
  179MOL0     C23512   5.356   8.672   1.055  0.1759  0.3873 -1.1388
  179MOL0     N23513   5.221   8.689   1.114  0.3601  1.2117 -0.3039
  179MOL0     C23514   5.099   8.700   1.049 -0.3949  0.6353 -0.6232
  179MOL0     C23515   4.998   8.693   1.144 -0.2181 -0.7702 -0.0047
  179MOL0     C23516   4.847   8.730   1.128 -0.5210  0.6462  0.3040
  179MOL0     C23517   4.768   8.604   1.164 -0.1306  0.1143  0.6636
  179MOL0     C23518   4.622   8.631   1.177 -0.8590 -0.0911  0.0916
  179MOL0     C23519   4.533   8.518   1.212 -0.2698 -0.2322  0.2131
  179MOL0     O23520   4.443   8.559   1.313  0.5457  0.4649 -0.2874
  179MOL0     C23521   4.357   8.468   1.357 -0.2501 -0.3371  0.6834
  179MOL0     C23522   4.296   8.488   1.484 -0.3295 -1.0177  0.7895
  179MOL0     C23523   4.191   8.412   1.533  0.7706 -0.2906  0.6565
  179MOL0     C23524   4.158   8.293   1.468  1.1375  0.5392 -0.6430
  179MOL0     C23525   4.055   8.200   1.522 -0.0255  0.1333 -0.7232
  179MOL0     O23526   4.038   8.087   1.456  0.1072  1.1529 -0.0492
  179MOL0     C23527   3.946   7.989   1.499  0.2964  0.3066  0.4339
  179MOL0     C23528   3.824   7.963   1.437  0.6763 -0.1274  0.0826
  179MOL0     C23529   3.744   7.858   1.492  0.8301 -0.2439 -0.1322
  179MOL0     C23530   3.788   7.772   1.596 -0.3716 -1.1836  0.2847
  179MOL0     O23531   3.730   7.661   1.638  0.0631  0.3283 -0.4725
  179MOL0     C23532   3.588   7.663   1.639  0.2604  0.4056 -0.0283
  179MOL0     C23533   3.552   7.588   1.517  0.3766 -0.6680 -0.3696
  179MOL0     C23534   3.395   7.584   1.502  0.6333 -0.3068  0.3162
  179MOL0     C23535   3.337   7.542   1.365  0.5512 -0.7381 -0.2583
  179MOL0     C23536   3.190   7.586   1.355  0.4441 -0.5596  0.3494
  179MOL0     C23537   3.111   7.504   1.258  0.0043  0.2388  0.0265
  179MOL0     C23538   3.165   7.514   1.111  1.0873  0.3150 -0.5592
  179MOL0     C23539   3.107   7.392   1.033  0.1244 -0.0742 -0.7546
  179MOL0    Cl23540   3.137   7.418   0.856 -0.2045  0.6095 -0.0785
  179MOL0     C23541   3.914   7.797   1.651 -0.5495  0.0618 -0.7850
  179MOL0     C23542   3.992   7.908   1.606  0.2364 -0.1253 -0.5368
  179MOL0     O23543   3.986   8.233   1.619 -0.3286  0.3453  0.1419
  179MOL0     C23544   4.229   8.263   1.354  0.1083  0.3193  0.0321
  179MOL0     C23545   4.321   8.353   1.291 -0.4995 -0.1059 -0.9366
  179MOL0     N23546   5.064   8.680   1.269 -0.7674 -0.3337  0.5078
  179MOL0     N23547   5.196   8.682   1.248 -0.2609  0.3427  0.6453
  179MOL0     C23548   6.228   8.551   0.686 -0.6898 -0.0787 -0.0200
  179MOL0     C23549   6.335   8.590   0.607  0.0304  0.2123  0.2763
  179MOL0     C23550   6.604   8.568   0.226  0.1023  0.3441 -0.4902
  179MOL0     C23551   6.656   8.486   0.131  0.5161  0.1234 -0.2672
  179MOL0     C23552   6.775   8.518   0.068 -0.5486  0.4378 -1.1778
  179MOL0     C23553   6.843   8.641   0.100  0.4105  0.6465 -0.5487
  179MOL0     O23554   6.944   8.702   0.022 -0.3681  0.3171 -0.1336
  179MOL0     C23555   7.036   8.614  -0.052  0.1493 -0.7712  0.0129
  179MOL0     C23556   7.167   8.681  -0.087 -0.7175  1.0037  0.1710
  179MOL0     C23557   7.264   8.582  -0.153  0.1310 -0.0661  0.6626
  179MOL0     C23558   7.407   8.614  -0.139 -0.5930  0.0629 -0.6243
  179MOL0     C23559   7.428   8.756  -0.141  0.5854 -0.0971  0.3941
  179MOL0     C23560   7.464   8.876  -0.149 -0.5869  0.0612  0.0215
  179MOL0     C23561   6.794   8.719   0.205  0.4137 -0.1914 -1.1643
  179MOL0     C23562   6.679   8.685   0.263  0.3918  0.7315 -0.0429
  179MOL0     H23563   6.189   8.565   0.302  0.9486 -0.9592  0.1788
  179MOL0     H23564   5.991   8.515   0.449  0.6846 -0.3895 -2.6950
  179MOL0     H23565   6.038   8.442   0.922 -2.1230  3.6147 -0.9624
  179MOL0     H23566   6.110   8.342   0.798  0.0965  0.7999  0.0544
  179MOL0     H23567   5.906   8.226   0.892 -1.6563  0.5207  1.3147
  179MOL0     H23568   5.892   8.267   0.721 -1.9389 -0.5076 -0.4771
  179MOL0     H23569   5.787   8.482   0.793  3.7131  0.3503 -2.0047
  179MOL0     H23570   5.792   8.441   0.955 -2.2458  0.5130 -0.2689
  179MOL0     H23571   5.611   8.335   0.752  3.4695  2.1381 -0.5467
  179MOL0     H23572   5.664   8.210   0.873  0.5692  0.1180  0.5818
  179MOL0     H23573   5.593   8.333   1.048  1.3392  0.2035  0.1714
  179MOL0     H23574   5.454   8.289   0.943  1.5749 -2.3898  2.2740
  179MOL0     H23575   5.482   8.540   0.854 -2.7490  0.7727  1.6124
  179MOL0     H23576   5.599   8.557   0.979  1.0943 -1.1421 -1.1618
  179MOL0     H23577   5.308   8.466   0.985  0.9950  0.5068  0.1149
  179MOL0     H23578   5.387   8.479   1.130  0.9798 -0.1398  0.1679
  179MOL0     H23579   5.362   8.737   0.967  3.6598  2.8212  0.6803
  179MOL0     H23580   5.425   8.714   1.127 -3.3003  1.8772  1.6243
  179MOL0     H23581   5.090   8.719   0.942 -1.3218 -1.9430 -1.0833
  179MOL0     H23582   4.837   8.756   1.022 -1.3131  2.0532  0.6953
  179MOL0     H23583   4.820   8.810   1.198  1.0730 -0.9690  2.9409
  179MOL0     H23584   4.795   8.562   1.261 -2.2277 -1.5247  0.6379
  179MOL0     H23585   4.777   8.529   1.084 -1.0116 -0.4510  1.0734
  179MOL0     H23586   4.621   8.709   1.253  5.2255  1.7359 -1.1937
  179MOL0     H23587   4.588   8.682   1.087  1.4468 -0.8926 -1.3250
  179MOL0     H23588   4.590   8.434   1.255 -0.2772  0.7619  2.3051
  179MOL0     H23589   4.486   8.476   1.123  0.9445  1.2303 -1.1618
  179MOL0     H23590   4.334   8.572   1.542  0.0553  0.1701 -1.0852
  179MOL0     H23591   4.145   8.442   1.627 -0.2930  1.1300 -0.2728
  179MOL0     H23592   3.778   8.022   1.359  1.5318  0.6785  0.1625
  179MOL0     H23593   3.653   7.830   1.438 -0.6404 -0.9802  2.5612
  179MOL0     H23594   3.550   7.765   1.630  1.6325  0.8539 -1.0289
  179MOL0     H23595   3.536   7.614   1.721 -1.9884 -1.1419 -2.2002
  179MOL0     H23596   3.596   7.489   1.526 -0.2498 -0.9538 -0.3773
  179MOL0     H23597   3.600   7.633   1.430  1.5820  0.9948  1.0992
  179MOL0     H23598   3.355   7.681   1.533 -0.0069 -1.3586  3.0431
  179MOL0     H23599   3.351   7.515   1.574  2.2961  1.5255  3.2848
  179MOL0     H23600   3.386   7.606   1.291 -1.4138  0.8806 -0.2470
  179MOL0     H23601   3.349   7.437   1.335 -1.9629 -0.3538 -3.1006
  179MOL0     H23602   3.187   7.695   1.345  1.7065 -0.3547  1.9709
  179MOL0     H23603   3.143   7.576   1.453 -0.3640 -2.2236 -0.1533
  179MOL0     H23604   3.006   7.537   1.252  0.1814  0.5834 -2.4740
  179MOL0     H23605   3.108   7.402   1.298 -3.8626  0.0717 -0.2604
  179MOL0     H23606   3.142   7.610   1.064  3.4800 -0.3701 -3.4743
  179MOL0     H23607   3.274   7.526   1.103  1.5736 -1.3446  2.2364
  179MOL0     H23608   2.998   7.388   1.041  0.2243 -0.6418  0.5889
  179MOL0     H23609   3.148   7.294   1.059  1.2640  0.7905  0.8580
  179MOL0     H23610   3.961   7.732   1.724  3.7566  0.5293 -2.8230
  179MOL0     H23611   4.089   7.921   1.653 -0.3789  1.1412  0.4577
  179MOL0     H23612   4.207   8.169   1.305 -0.5204 -0.4798  1.7706
  179MOL0     H23613   4.356   8.322   1.193  3.4041 -1.8187  0.7759
  179MOL0     H23614   6.237   8.559   0.794 -0.2931  1.8559 -0.1531
  179MOL0     H23615   6.431   8.615   0.651  0.6025 -0.0574 -0.7675
  179MOL0     H23616   6.598   8.403   0.091 -1.8121  0.9030  1.3223
  179MOL0     H23617   6.811   8.450  -0.008  0.2702 -2.2643  1.4332
  179MOL0     H23618   6.981   8.579  -0.139  2.7780  0.1998 -2.2072
  179MOL0     H23619   7.058   8.526   0.009 -1.6343 -1.0366  0.3164
  179MOL0     H23620   7.138   8.772  -0.141  0.3414  0.8156 -0.7528
  179MOL0     H23621   7.214   8.709   0.007  1.5525 -3.0992  0.4803
  179MOL0     H23622   7.238   8.582  -0.259 -1.4884  5.6112  0.7377
  179MOL0     H23623   7.252   8.480  -0.116  0.8332 -0.8827 -1.2135
  179MOL0     H23624   7.426   8.580  -0.037 -0.6604  0.9841 -0.2970
  179MOL0     H23625   7.477   8.556  -0.200  1.0170 -0.2154  1.3465
  179MOL0     H23626   7.486   8.980  -0.163 -1.6150  0.4628  1.1537
  179MOL0     H23627   6.837   8.811   0.245 -1.1814 -0.8988  2.6262
  179MOL0     H23628   6.643   8.752   0.341  0.1694 -0.2500  0.7122
  180MOL0     O23629  10.834   0.077   4.405 -0.3664  0.4339  0.1230
  180MOL0     C23630  10.838   0.179   4.472  0.0582 -0.6730  0.2290
  180MOL0     O23631  10.724   0.247   4.518  0.3411  0.1858  0.0503
  180MOL0     C23632  10.599   0.220   4.465 -0.1732 -0.3656 -0.6435
  180MOL0     C23633  10.523   0.332   4.464  1.8326  0.0537 -0.0640
  180MOL0     C23634  10.391   0.313   4.434  0.2842 -0.3421  0.5432
  180MOL0     C23635  10.331   0.190   4.390  0.2213 -0.5914  0.4311
  180MOL0     O23636  10.197   0.180   4.360  0.0843 -0.3971 -0.8435
  180MOL0     C23637  10.132   0.292   4.299 -0.4172 -0.2149  0.1976
  180MOL0     C23638   9.981   0.244   4.262 -0.4499  0.3056 -0.2301
  180MOL0     C23639   9.891   0.263   4.382 -0.2293 -0.0317 -1.2353
  180MOL0     C23640   9.752   0.185   4.381  0.4901 -0.6422 -0.5288
  180MOL0     C23641   9.758   0.026   4.393  0.9179  0.7052 -0.3222
  180MOL0     C23642   9.610  -0.018   4.417  0.1071 -0.0208  0.1197
  180MOL0     C23643   9.612  -0.173   4.444  0.5424 -0.2181  0.1701
  180MOL0     C23644   9.482  -0.217   4.516  1.1490  0.6186  0.4803
  180MOL0     N23645   9.380  -0.245   4.406 -0.2432 -0.5021 -0.0656
  180MOL0     C23646   9.259  -0.181   4.393 -0.6807 -0.0398  0.6398
  180MOL0     C23647   9.199  -0.236   4.285  0.1182 -0.1673 -0.3646
  180MOL0     C23648   9.076  -0.185   4.217  0.2089 -0.0913 -0.4874
  180MOL0     C23649   8.949  -0.170   4.300  0.0739 -0.2258 -0.4428
  180MOL0     C23650   8.839  -0.088   4.232  0.0209 -0.6947 -0.2835
  180MOL0     C23651   8.761  -0.012   4.337 -0.2041 -0.4274 -0.0096
  180MOL0     O23652   8.708  -0.095   4.433  0.2549 -0.7574  0.1634
  180MOL0     C23653   8.585  -0.155   4.398 -1.5937  0.3315  0.4155
  180MOL0     C23654   8.530  -0.245   4.492 -0.4790 -0.0951  1.1175
  180MOL0     C23655   8.407  -0.309   4.470  1.0957  0.4472 -0.0221
  180MOL0     C23656   8.350  -0.300   4.348  0.1203  0.3761  0.4211
  180MOL0     C23657   8.227  -0.377   4.322 -0.5355  0.1613 -0.4821
  180MOL0     O23658   8.169  -0.423   4.433 -0.1130  0.3974  0.6303
  180MOL0     C23659   8.057  -0.508   4.421 -0.0774 -1.2258 -0.0071
  180MOL0     C23660   7.951  -0.484   4.326  0.5764 -0.2551 -0.5565
  180MOL0     C23661   7.838  -0.564   4.313 -0.4337 -1.1206  0.0082
  180MOL0     C23662   7.827  -0.670   4.405 -0.0014 -0.4231 -0.8611
  180MOL0     O23663   7.717  -0.748   4.419 -0.4037  0.7722 -0.9061
  180MOL0     C23664   7.618  -0.766   4.321  0.0440  0.5042  0.6006
  180MOL0     C23665   7.588  -0.909   4.337  0.0764 -0.1182 -0.6464
  180MOL0     C23666   7.503  -0.946   4.219  0.3203  0.3438  0.7603
  180MOL0     C23667   7.472  -1.098   4.230  0.9532 -0.0937  0.3473
  180MOL0     C23668   7.590  -1.198   4.205 -0.8889 -0.7842 -1.5397
  180MOL0     C23669   7.546  -1.335   4.173  0.5364  0.6271 -0.8625
  180MOL0     C23670   7.664  -1.427   4.145  0.3981  0.1342 -0.3970
  180MOL0     C23671   7.712  -1.416   3.998  0.2578 -0.0510 -0.7585
  180MOL0    Cl23672   7.592  -1.478   3.883  0.5283  0.0857  0.2654
  180MOL0     C23673   7.920  -0.700   4.504 -0.6010 -0.5073  0.8447
  180MOL0     C23674   8.040  -0.618   4.504 -0.2247  0.0716  0.0084
  180MOL0     O23675   8.198  -0.404   4.208 -0.3212 -0.4578 -0.1363
  180MOL0     C23676   8.402  -0.219   4.245 -0.4785 -0.1624 -0.0309
  180MOL0     C23677   8.516  -0.141   4.271  0.1146 -0.4002 -0.1171
  180MOL0     N23678   9.277  -0.336   4.241 -0.5816  0.3342 -0.3831
  180MOL0     N23679   9.380  -0.349   4.311  0.4762  0.0364 -1.3169
  180MOL0     C23680  10.422   0.085   4.368 -0.1309  0.1037 -0.0438
  180MOL0     C23681  10.550   0.101   4.410  0.1905  0.2217  0.5409
  180MOL0     C23682  10.967   0.230   4.510  1.2072 -1.1981  0.4194
  180MOL0     C23683  11.090   0.173   4.485 -0.4610  0.6174 -0.8503
  180MOL0     C23684  11.207   0.218   4.552  0.3617  0.2455  0.1589
  180MOL0     C23685  11.197   0.332   4.641  0.8758  0.1489 -0.5221
  180MOL0     O23686  11.297   0.388   4.714 -1.0760  0.8026 -0.5403
  180MOL0     C23687  11.413   0.301   4.744 -0.3397 -0.0915 -0.8684
  180MOL0     C23688  11.481   0.350   4.875  0.9349 -0.2365 -0.2756
  180MOL0     C23689  11.433   0.298   5.008 -0.1741  0.3262  0.1029
  180MOL0     C23690  11.527   0.334   5.133 -1.2177  0.0634  0.2412
  180MOL0     C23691  11.491   0.291   5.270 -0.1480  0.1062 -0.0497
  180MOL0     C23692  11.486   0.265   5.389  0.9984  0.6317  1.0162
  180MOL0     C23693  11.080   0.395   4.651  0.5895 -0.1850 -0.1451
  180MOL0     C23694  10.967   0.348   4.581  0.3295  0.7906 -0.9286
  180MOL0     H23695  10.553   0.430   4.497 -0.5331  1.2156 -1.1034
  180MOL0     H23696  10.336   0.407   4.428  1.2582  0.2343  0.4639
  180MOL0     H23697  10.194   0.320   4.213 -0.9880  1.4672  0.2827
  180MOL0     H23698  10.129   0.372   4.374  0.4738  2.2798 -2.2201
  180MOL0     H23699   9.983   0.140   4.227  2.3636  0.6488 -1.3402
  180MOL0     H23700   9.954   0.308   4.178  2.1285  0.0973 -1.2947
  180MOL0     H23701   9.861   0.368   4.389  0.1483  0.1537 -2.1845
  180MOL0     H23702   9.955   0.229   4.464  0.2170 -0.4503 -1.7479
  180MOL0     H23703   9.695   0.231   4.463  3.1922  1.5655  0.2743
  180MOL0     H23704   9.698   0.208   4.289 -0.7390  2.1364  0.7588
  180MOL0     H23705   9.815  -0.006   4.481  1.2402  1.0303 -0.4092
  180MOL0     H23706   9.797  -0.018   4.301  1.7675 -0.3373  0.5148
  180MOL0     H23707   9.545   0.007   4.333 -1.3856  1.7499  1.7090
  180MOL0     H23708   9.576   0.041   4.503 -0.9982  2.0576 -1.6529
  180MOL0     H23709   9.635  -0.220   4.349  0.5428  1.3938 -0.6689
  180MOL0     H23710   9.690  -0.200   4.515 -0.6869  1.2032  2.1855
  180MOL0     H23711   9.438  -0.145   4.585  0.2475 -0.6445  1.2637
  180MOL0     H23712   9.501  -0.310   4.571  1.7050  1.7846  2.3328
  180MOL0     H23713   9.229  -0.089   4.442 -1.4534 -1.0764  2.1932
  180MOL0     H23714   9.059  -0.257   4.136 -1.6863  0.3025 -0.4700
  180MOL0     H23715   9.108  -0.090   4.172 -0.3452 -0.2088 -1.1478
  180MOL0     H23716   8.980  -0.129   4.397 -1.8803  0.0333  0.1106
  180MOL0     H23717   8.911  -0.273   4.300 -0.8657  0.0673 -2.5918
  180MOL0     H23718   8.872  -0.002   4.174 -0.5570  1.3940  2.2785
  180MOL0     H23719   8.783  -0.152   4.163  1.9790 -4.0563  0.9784
  180MOL0     H23720   8.696   0.059   4.286 -0.1021 -0.7860 -0.6467
  180MOL0     H23721   8.836   0.051   4.387 -2.2868  1.9926  0.2664
  180MOL0     H23722   8.577  -0.256   4.588  0.7389  0.2925  0.5797
  180MOL0     H23723   8.365  -0.370   4.549  0.2803  0.6886 -0.2614
  180MOL0     H23724   7.958  -0.394   4.264  1.8944  0.5398  0.6680
  180MOL0     H23725   7.769  -0.546   4.232 -0.5993 -0.0989  0.3598
  180MOL0     H23726   7.660  -0.753   4.221 -1.0407 -0.6672 -0.0439
  180MOL0     H23727   7.533  -0.699   4.338  1.0698  1.9203  0.3783
  180MOL0     H23728   7.535  -0.930   4.430  1.4220  1.5031  0.5528
  180MOL0     H23729   7.681  -0.966   4.343  0.2447  0.3074  1.5620
  180MOL0     H23730   7.569  -0.942   4.132 -0.4378 -3.1274 -0.1573
  180MOL0     H23731   7.412  -0.890   4.198  0.1515 -0.4265 -0.6902
  180MOL0     H23732   7.423  -1.119   4.325 -1.6755 -0.7030 -1.0665
  180MOL0     H23733   7.396  -1.124   4.156  2.0074  1.4166 -1.3455
  180MOL0     H23734   7.654  -1.190   4.294 -2.7486  6.3123 -0.1495
  180MOL0     H23735   7.659  -1.157   4.131  1.1660 -2.4175 -0.6431
  180MOL0     H23736   7.475  -1.339   4.090  0.8254  0.7279 -1.1186
  180MOL0     H23737   7.499  -1.385   4.258  2.7116 -3.3124 -1.6851
  180MOL0     H23738   7.746  -1.404   4.214 -0.1432 -0.6950  0.5467
  180MOL0     H23739   7.633  -1.530   4.158  2.5592 -0.3713  1.4237
  180MOL0     H23740   7.803  -1.478   3.993  0.7504  0.7474 -2.2962
  180MOL0     H23741   7.730  -1.309   3.991  0.5682  0.1064  1.5932
  180MOL0     H23742   7.905  -0.774   4.582  2.4742  0.9533  3.0471
  180MOL0     H23743   8.123  -0.631   4.573  1.3089  0.7416 -1.6163
  180MOL0     H23744   8.369  -0.218   4.142 -2.8781  3.4796  0.5569
  180MOL0     H23745   8.548  -0.081   4.186 -0.3402  1.1630  0.8003
  180MOL0     H23746  10.388  -0.013   4.337  1.6761  0.7488 -4.8156
  180MOL0     H23747  10.618   0.017   4.417  0.0840 -0.3378 -3.2316
  180MOL0     H23748  11.084   0.085   4.421 -0.6098  2.3076 -3.3226
  180MOL0     H23749  11.297   0.158   4.549 -0.5886 -1.2643  0.4811
  180MOL0     H23750  11.488   0.315   4.665 -0.1634  1.3970 -0.4631
  180MOL0     H23751  11.387   0.195   4.737 -2.2855  0.4054 -1.9017
  180MOL0     H23752  11.589   0.337   4.860  0.8850 -0.2712 -0.6290
  180MOL0     H23753  11.454   0.456   4.882 -0.4896 -0.6728  1.4441
  180MOL0     H23754  11.426   0.189   5.001  0.1897  0.3034  0.1171
  180MOL0     H23755  11.333   0.337   5.030  0.2908  1.3829  0.4280
  180MOL0     H23756  11.627   0.302   5.104 -2.8340 -2.6076 -3.0427
  180MOL0     H23757  11.531   0.444   5.137  1.0086  0.0035  1.0683
  180MOL0     H23758  11.484   0.226   5.489 -0.4921 -1.3922  0.2713
  180MOL0     H23759  11.072   0.485   4.711 -2.4666  1.1937 -2.3545
  180MOL0     H23760  10.879   0.409   4.597  1.3411  2.2048 -0.5277
  181MOL0     O23761  10.200  10.585   8.875 -0.1247  0.0928  0.3848
  181MOL0     C23762  10.215  10.684   8.804  0.4140 -0.0968 -0.3747
  181MOL0     O23763  10.108  10.765   8.758  0.5178 -0.2830  0.2263
  181MOL0     C23764   9.975  10.748   8.793 -0.4643 -0.4933  0.5359
  181MOL0     C23765   9.900  10.864   8.790 -0.3706  0.8290  0.1824
  181MOL0     C23766   9.767  10.867   8.802  0.3323 -0.2185 -0.6582
  181MOL0     C23767   9.693  10.749   8.811  0.0827  0.0432 -0.1460
  181MOL0     O23768   9.557  10.755   8.823 -0.6078  0.3423 -0.3680
  181MOL0     C23769   9.514  10.809   8.696  0.3802 -0.4499 -0.6813
  181MOL0     C23770   9.362  10.785   8.694 -0.8013  0.1686 -0.1451
  181MOL0     C23771   9.295  10.832   8.819  0.6833  0.3057  0.2760
  181MOL0     C23772   9.148  10.811   8.788  0.1010  0.5197  0.1233
  181MOL0     C23773   9.072  10.841   8.911  0.7495  0.3699 -0.1801
  181MOL0     C23774   8.931  10.883   8.883 -0.4486 -0.0562 -0.3497
  181MOL0     C23775   8.841  10.935   9.000  0.3445  0.1508  0.1965
  181MOL0     C23776   8.891  11.052   9.085 -0.0262  0.2227  0.2009
  181MOL0     N23777   8.773  11.135   9.117 -0.5043 -0.0181 -0.3124
  181MOL0     C23778   8.724  11.163   9.240 -0.2038  0.6450 -0.2263
  181MOL0     C23779   8.625  11.246   9.222 -0.1963 -0.2360  0.6643
  181MOL0     C23780   8.545  11.308   9.326 -0.3795  0.3259  0.0939
  181MOL0     C23781   8.433  11.397   9.281 -0.6153 -0.4051 -0.2772
  181MOL0     C23782   8.374  11.450   9.417  0.8707  0.4232 -0.3934
  181MOL0     C23783   8.249  11.546   9.409  0.0540  0.2205  0.5988
  181MOL0     O23784   8.217  11.565   9.544  0.4210 -0.3630 -0.0904
  181MOL0     C23785   8.086  11.626   9.545 -1.0643  0.7405 -0.1229
  181MOL0     C23786   8.016  11.608   9.659  0.4102 -0.3410 -0.9623
  181MOL0     C23787   7.900  11.682   9.689  0.4380 -0.3945 -0.1531
  181MOL0     C23788   7.841  11.757   9.591  0.0720  0.0229 -0.4478
  181MOL0     C23789   7.713  11.820   9.618  0.6549 -0.1590  0.4226
  181MOL0     O23790   7.635  11.774   9.723  0.0086 -0.1829  0.1355
  181MOL0     C23791   7.502  11.825   9.721 -0.4158 -0.6622  0.0380
  181MOL0     C23792   7.393  11.737   9.722 -0.1311  0.5349  0.0362
  181MOL0     C23793   7.255  11.777   9.732 -0.1414  0.0174 -0.5146
  181MOL0     C23794   7.220  11.913   9.742 -0.0409 -0.1781  0.1626
  181MOL0     O23795   7.091  11.963   9.761  0.2223  0.2957  0.0329
  181MOL0     C23796   7.003  11.905   9.857  0.4731  0.2074  0.6556
  181MOL0     C23797   6.857  11.958   9.846 -0.2128  0.8252  1.0353
  181MOL0     C23798   6.757  11.870   9.928  0.4286 -0.1563  0.1989
  181MOL0     C23799   6.630  11.955   9.913 -0.0034  0.3049 -0.1268
  181MOL0     C23800   6.536  11.918  10.034  0.2000  0.7317 -0.4778
  181MOL0     C23801   6.404  11.996  10.045  0.2406  0.7573  0.9369
  181MOL0     C23802   6.302  11.907  10.108 -0.0443  0.3831 -0.0487
  181MOL0     C23803   6.161  11.967  10.095  0.3629 -0.1702  0.4600
  181MOL0    Cl23804   6.100  11.957   9.930  0.0478  0.2096 -0.0253
  181MOL0     C23805   7.331  11.998   9.763  0.4829  0.1255 -0.5327
  181MOL0     C23806   7.463  11.962   9.735  0.0926 -0.9924 -0.9802
  181MOL0     O23807   7.674  11.904   9.539  0.8072  0.1446 -1.1661
  181MOL0     C23808   7.904  11.767   9.469  0.3991 -0.7471  0.4209
  181MOL0     C23809   8.034  11.714   9.451  0.2786 -0.0179  0.0012
  181MOL0     N23810   8.611  11.274   9.090 -0.0044 -0.2266  0.0958
  181MOL0     N23811   8.708  11.205   9.026  0.4590  0.1064  0.0423
  181MOL0     C23812   9.770  10.625   8.817 -0.1096 -0.2767  0.5168
  181MOL0     C23813   9.909  10.632   8.810 -0.2682 -0.3345  0.2713
  181MOL0     C23814  10.348  10.740   8.775  0.2652  0.5823  0.3429
  181MOL0     C23815  10.373  10.846   8.687  0.1975  0.7130  0.0872
  181MOL0     C23816  10.499  10.892   8.662  0.7639 -0.3192  0.1459
  181MOL0     C23817  10.611  10.856   8.745  0.8030  0.2961  0.2656
  181MOL0     O23818  10.746  10.901   8.734  0.3675 -1.1651 -0.3231
  181MOL0     C23819  10.785  11.024   8.673 -1.0640 -0.2404 -0.0888
  181MOL0     C23820  10.864  11.002   8.548 -1.1293 -0.0722  0.6217
  181MOL0     C23821  10.913  11.137   8.481 -0.5648  0.1898 -0.9401
  181MOL0     C23822  10.806  11.204   8.388  0.1053 -0.4468  0.7138
  181MOL0     C23823  10.805  11.179   8.241  0.6156  0.3554  0.2440
  181MOL0     C23824  10.806  11.162   8.118  0.0744  0.4835  0.0666
  181MOL0     C23825  10.577  10.760   8.845 -0.2985  0.1344  0.3090
  181MOL0     C23826  10.450  10.708   8.863 -0.5002  0.1528 -0.0200
  181MOL0     H23827   9.958  10.952   8.766  2.9383 -1.3084 -0.3348
  181MOL0     H23828   9.719  10.965   8.802 -0.6391 -0.6777  0.2889
  181MOL0     H23829   9.548  10.751   8.610 -0.9253 -2.1028 -0.1330
  181MOL0     H23830   9.543  10.915   8.692  1.3478 -0.6693 -0.0820
  181MOL0     H23831   9.352  10.676   8.692  1.4883 -0.0953  0.2587
  181MOL0     H23832   9.320  10.820   8.599 -0.4643 -1.7300 -1.0336
  181MOL0     H23833   9.314  10.936   8.845 -3.0308  1.1940  0.0335
  181MOL0     H23834   9.315  10.776   8.911 -0.5774 -1.2048 -0.3185
  181MOL0     H23835   9.119  10.865   8.698 -0.2630  1.4516  0.7872
  181MOL0     H23836   9.137  10.703   8.773  1.3632  0.4061 -0.1317
  181MOL0     H23837   9.118  10.929   8.956 -1.8097  2.7587 -1.8743
  181MOL0     H23838   9.066  10.753   8.975 -0.3556  0.3366 -0.3063
  181MOL0     H23839   8.878  10.795   8.845 -0.6066 -1.5910  3.0033
  181MOL0     H23840   8.932  10.960   8.806  1.2140  1.5003  1.1237
  181MOL0     H23841   8.739  10.956   8.967 -0.1991  0.0376  1.7198
  181MOL0     H23842   8.821  10.849   9.065  1.2245 -2.0894 -2.3115
  181MOL0     H23843   8.959  11.121   9.034  0.8614  0.5059  1.6989
  181MOL0     H23844   8.926  11.010   9.180 -2.1464 -0.2995  0.8006
  181MOL0     H23845   8.765  11.126   9.334  2.1063 -0.6862 -1.6368
  181MOL0     H23846   8.609  11.376   9.383  1.3644 -0.4318 -0.8827
  181MOL0     H23847   8.496  11.228   9.382 -1.8668 -1.1554 -3.0394
  181MOL0     H23848   8.356  11.347   9.221 -1.3599 -0.5766  0.7953
  181MOL0     H23849   8.456  11.484   9.219 -0.7972  1.0411  1.5959
  181MOL0     H23850   8.337  11.366   9.476 -1.9010  1.2995 -0.7194
  181MOL0     H23851   8.458  11.489   9.474  3.4483 -2.9865 -1.4920
  181MOL0     H23852   8.167  11.507   9.348  1.6917 -1.2338 -0.7945
  181MOL0     H23853   8.290  11.637   9.365  1.5344 -0.4542  0.5138
  181MOL0     H23854   8.044  11.546   9.744  0.4180  2.2493  1.0559
  181MOL0     H23855   7.835  11.673   9.776  0.1474  0.4673 -0.2672
  181MOL0     H23856   7.400  11.629   9.719  3.0878  0.6191 -3.3054
  181MOL0     H23857   7.173  11.706   9.727  1.5563 -2.0201 -0.8695
  181MOL0     H23858   7.052  11.929   9.951 -0.0087  3.1193  0.2350
  181MOL0     H23859   7.004  11.796   9.847  2.8473  0.0348  2.0004
  181MOL0     H23860   6.821  11.965   9.743 -0.6818 -0.0878  1.1283
  181MOL0     H23861   6.859  12.059   9.887  1.3580  0.8352  0.9783
  181MOL0     H23862   6.779  11.857  10.034  0.1558 -3.3976 -0.0356
  181MOL0     H23863   6.748  11.774   9.875 -2.3549  0.6958 -1.0796
  181MOL0     H23864   6.640  12.063   9.899  1.0761  0.5040  1.8344
  181MOL0     H23865   6.596  11.919   9.816  0.0761  2.7526 -1.1443
  181MOL0     H23866   6.597  11.924  10.125  1.4617  0.8348 -1.3112
  181MOL0     H23867   6.521  11.810  10.025  1.6545  0.6514 -2.7201
  181MOL0     H23868   6.378  12.016   9.941  0.4333  1.2353  0.9759
  181MOL0     H23869   6.426  12.093  10.091  0.2118  0.8445  0.7676
  181MOL0     H23870   6.311  11.808  10.062  2.3054  0.9060 -0.9048
  181MOL0     H23871   6.326  11.906  10.214 -0.2307  0.9953  0.0019
  181MOL0     H23872   6.143  12.068  10.130 -0.7623  1.3375 -3.8254
  181MOL0     H23873   6.102  11.893  10.151  1.2824  0.2506  2.0438
  181MOL0     H23874   7.322  12.103   9.792 -4.2158  0.1974 -1.3659
  181MOL0     H23875   7.546  12.032   9.732 -0.4588 -0.3572 -1.8311
  181MOL0     H23876   7.852  11.806   9.382  1.1459  2.8764  1.4346
  181MOL0     H23877   8.095  11.760   9.374 -0.6703  3.0656  0.9527
  181MOL0     H23878   9.735  10.524   8.830  1.7972 -0.8506  1.5868
  181MOL0     H23879   9.971  10.543   8.805  2.8756  1.7784 -2.6960
  181MOL0     H23880  10.299  10.882   8.616 -0.3917 -1.1633 -0.3160
  181MOL0     H23881  10.513  10.967   8.586  1.5035  1.4339  1.9309
  181MOL0     H23882  10.851  11.082   8.738  0.1737  0.6045 -2.0069
  181MOL0     H23883  10.701  11.094   8.659  0.6767  1.8668 -0.5645
  181MOL0     H23884  10.957  10.948   8.567 -1.4447 -0.7867  0.1838
  181MOL0     H23885  10.796  10.939   8.491  1.1436 -1.8765 -0.2795
  181MOL0     H23886  11.005  11.117   8.424  1.3958  0.7739  1.8219
  181MOL0     H23887  10.947  11.202   8.562  0.6391 -1.9351  0.3465
  181MOL0     H23888  10.711  11.170   8.431 -0.0827  0.2252  0.8334
  181MOL0     H23889  10.808  11.312   8.400  3.4100 -0.0788 -1.7461
  181MOL0     H23890  10.808  11.164   8.011 -1.4569 -0.0782  0.0020
  181MOL0     H23891  10.647  10.718   8.917 -0.0743 -0.1371 -0.0611
  181MOL0     H23892  10.437  10.633   8.940  2.3619  0.6293  1.0333
  182MOL0     O23893   8.387   7.125   8.627 -0.0028 -0.5336  0.0582
  182MOL0     C23894   8.421   7.105   8.741 -0.2453 -0.7919 -0.3071
  182MOL0     O23895   8.335   7.117   8.854 -0.6058  0.0401 -0.6985
  182MOL0     C23896   8.203   7.115   8.849  0.3992 -0.7067 -0.5146
  182MOL0     C23897   8.139   7.044   8.945  0.6164  0.1163 -0.3335
  182MOL0     C23898   8.003   7.039   8.956 -0.2699  0.5343  0.6558
  182MOL0     C23899   7.929   7.120   8.861  0.3717 -0.1238 -0.0978
  182MOL0     O23900   7.795   7.126   8.846 -0.0583 -0.0766 -0.0688
  182MOL0     C23901   7.714   7.031   8.923 -0.1649 -0.0838  0.1284
  182MOL0     C23902   7.575   7.024   8.870  0.1149  0.7797  0.3419
  182MOL0     C23903   7.480   6.982   8.977  0.5358  0.7684 -0.1908
  182MOL0     C23904   7.336   6.975   8.929 -0.0478  0.0499 -0.2266
  182MOL0     C23905   7.253   6.918   9.050  0.4091  0.0106 -0.1401
  182MOL0     C23906   7.106   6.940   9.006 -0.3570  0.4060  0.1129
  182MOL0     C23907   7.026   6.914   9.137 -0.3563 -0.0225  0.1610
  182MOL0     C23908   7.009   6.762   9.181 -0.0057 -1.0093 -0.1922
  182MOL0     N23909   6.924   6.693   9.087  0.1846  0.1865  0.4750
  182MOL0     C23910   6.784   6.682   9.095 -0.5416 -0.2741 -0.0028
  182MOL0     C23911   6.742   6.605   8.984 -0.1363 -0.5786  0.9050
  182MOL0     C23912   6.595   6.561   8.956 -0.0667  0.5618 -0.1614
  182MOL0     C23913   6.522   6.642   8.848  0.1190  0.4970  0.1150
  182MOL0     C23914   6.369   6.633   8.849  0.5737 -0.4030 -0.1341
  182MOL0     C23915   6.313   6.493   8.874 -0.3153  0.0176  0.4435
  182MOL0     O23916   6.198   6.449   8.791  0.2721 -0.3110 -0.2162
  182MOL0     C23917   6.084   6.525   8.791 -0.5278  0.3917  1.3021
  182MOL0     C23918   6.039   6.601   8.900 -0.7969 -0.3614 -0.0099
  182MOL0     C23919   5.919   6.674   8.892  0.6000 -0.7132  0.2408
  182MOL0     C23920   5.846   6.664   8.772  0.0843 -0.1576  0.0382
  182MOL0     C23921   5.729   6.742   8.748  0.8024 -0.3676  0.7258
  182MOL0     O23922   5.694   6.767   8.621  0.2921 -0.1790  0.4336
  182MOL0     C23923   5.570   6.736   8.578  0.0563  0.1900 -0.2922
  182MOL0     C23924   5.532   6.778   8.454  0.0320 -0.2106  0.9304
  182MOL0     C23925   5.401   6.770   8.408  0.1257 -0.0076  0.4316
  182MOL0     C23926   5.306   6.698   8.480 -0.3364 -0.8348 -0.6983
  182MOL0     O23927   5.179   6.699   8.436 -0.5159 -0.4717  0.0596
  182MOL0     C23928   5.054   6.658   8.508 -0.8483 -0.0513  1.1978
  182MOL0     C23929   4.949   6.771   8.525 -0.3719  0.0447  0.6792
  182MOL0     C23930   4.848   6.714   8.622 -0.8650 -0.0080 -0.1556
  182MOL0     C23931   4.776   6.588   8.569 -0.0914 -0.4258  0.0826
  182MOL0     C23932   4.632   6.555   8.617 -0.5440 -0.4462  0.6129
  182MOL0     C23933   4.605   6.413   8.597 -0.5657  0.8077 -0.3259
  182MOL0     C23934   4.464   6.382   8.630  0.5016  0.2839 -1.0873
  182MOL0     C23935   4.423   6.252   8.554 -0.0740  0.0491 -0.3670
  182MOL0    Cl23936   4.254   6.214   8.586 -0.2326  0.1798 -0.0594
  182MOL0     C23937   5.353   6.635   8.594 -0.6658  0.2347  0.0063
  182MOL0     C23938   5.477   6.652   8.641 -0.4478  0.5272 -0.2418
  182MOL0     O23939   5.662   6.771   8.846  0.0821 -0.4193 -0.6867
  182MOL0     C23940   5.894   6.582   8.667  1.1335 -0.8056  0.4179
  182MOL0     C23941   6.009   6.512   8.673 -0.7485 -1.4027 -0.4694
  182MOL0     N23942   6.859   6.584   8.904  0.5580  0.6825 -0.2940
  182MOL0     N23943   6.959   6.633   8.970 -0.3406  0.4088  0.4487
  182MOL0     C23944   7.996   7.203   8.773  0.6567  0.3023 -1.0077
  182MOL0     C23945   8.131   7.198   8.763  0.4751 -0.0163  0.4843
  182MOL0     C23946   8.563   7.088   8.778  0.1639 -0.5553  0.0595
  182MOL0     C23947   8.607   7.028   8.894  0.0020 -0.2097  0.0779
  182MOL0     C23948   8.741   7.004   8.922  0.3754  0.2458 -0.3462
  182MOL0     C23949   8.838   7.038   8.829  0.9455 -0.6186 -0.0711
  182MOL0     O23950   8.973   7.010   8.843 -0.2561  0.2040  0.2815
  182MOL0     C23951   9.004   6.916   8.951  0.3294 -0.5370  0.1012
  182MOL0     C23952   9.132   6.842   8.913 -0.0040 -0.9149  0.0984
  182MOL0     C23953   9.254   6.923   8.953  0.3276  0.1306  0.5978
  182MOL0     C23954   9.373   6.867   8.887  0.6657  0.0433 -0.2957
  182MOL0     C23955   9.498   6.919   8.945  0.2007 -0.4153  0.6021
  182MOL0     C23956   9.606   6.926   9.006  0.1527  0.2226  0.7181
  182MOL0     C23957   8.794   7.083   8.703  0.1710  0.4305 -0.8473
  182MOL0     C23958   8.660   7.111   8.681 -0.3364  0.7573  0.0142
  182MOL0     H23959   8.194   6.984   9.017 -0.0548 -0.4302 -0.2620
  182MOL0     H23960   7.956   6.976   9.032 -3.1980 -0.4097 -1.7207
  182MOL0     H23961   7.704   7.073   9.023 -2.0687  1.6458 -0.6998
  182MOL0     H23962   7.765   6.934   8.920 -2.4062 -1.4363  2.1407
  182MOL0     H23963   7.585   6.946   8.794  0.1950 -0.4721  1.6045
  182MOL0     H23964   7.547   7.119   8.823  0.2412  0.2186 -0.9076
  182MOL0     H23965   7.486   7.051   9.061 -0.0859  2.7347 -1.6813
  182MOL0     H23966   7.499   6.876   8.999 -3.6559 -0.1967 -0.2534
  182MOL0     H23967   7.312   7.080   8.912 -0.7051 -0.0032  0.3274
  182MOL0     H23968   7.326   6.921   8.834 -1.4968 -0.8631  0.4045
  182MOL0     H23969   7.259   6.980   9.140 -2.9916  0.4301 -0.0772
  182MOL0     H23970   7.277   6.815   9.079 -4.0026 -0.7163  1.8104
  182MOL0     H23971   7.085   6.874   8.920  0.3974 -0.6009  0.6742
  182MOL0     H23972   7.096   7.043   8.972 -0.3148 -0.3266 -2.3527
  182MOL0     H23973   7.069   6.975   9.217  2.8060  1.0988 -2.1477
  182MOL0     H23974   6.927   6.952   9.110 -0.1252  1.7255  1.6170
  182MOL0     H23975   6.949   6.771   9.272  1.3903  2.9440  0.5110
  182MOL0     H23976   7.102   6.706   9.192  1.1995  1.2440  2.2684
  182MOL0     H23977   6.721   6.712   9.177 -1.4613 -0.5517 -0.5901
  182MOL0     H23978   6.536   6.548   9.047 -1.5574  0.8078 -1.0612
  182MOL0     H23979   6.604   6.458   8.921 -1.3912  1.6178 -4.2127
  182MOL0     H23980   6.551   6.615   8.746  0.8823  2.1753 -0.1551
  182MOL0     H23981   6.560   6.743   8.867  2.9089  0.3401 -3.5875
  182MOL0     H23982   6.332   6.703   8.924  2.4553 -0.8641  1.3042
  182MOL0     H23983   6.334   6.659   8.749 -1.0644 -0.5627  0.3749
  182MOL0     H23984   6.285   6.473   8.978  0.4167 -1.3740  0.3977
  182MOL0     H23985   6.388   6.417   8.850  0.3661  0.2520  1.7118
  182MOL0     H23986   6.108   6.608   8.983  1.1767 -1.4855 -1.4578
  182MOL0     H23987   5.882   6.741   8.969  0.8298 -2.0054  1.5175
  182MOL0     H23988   5.602   6.849   8.411  1.7620 -1.2948  1.8440
  182MOL0     H23989   5.370   6.830   8.323 -0.6724  0.9363  1.3454
  182MOL0     H23990   5.086   6.619   8.605  0.0268  1.2901  1.4700
  182MOL0     H23991   5.007   6.574   8.456 -1.9529  2.0611 -1.4399
  182MOL0     H23992   4.902   6.793   8.429  0.0121  1.5772  0.8192
  182MOL0     H23993   4.998   6.863   8.558  0.3144 -0.6910  1.7695
  182MOL0     H23994   4.772   6.793   8.627 -0.7346  0.1955 -1.1356
  182MOL0     H23995   4.893   6.698   8.720  0.7487  3.7680 -0.0990
  182MOL0     H23996   4.767   6.609   8.462  1.2193  0.9334  0.2205
  182MOL0     H23997   4.845   6.507   8.594  0.0487 -0.0578  0.9294
  182MOL0     H23998   4.568   6.619   8.556 -0.1171 -0.5026  0.0976
  182MOL0     H23999   4.606   6.576   8.721 -2.1197  1.0658 -0.0423
  182MOL0     H24000   4.672   6.364   8.669 -2.7402  0.9853  1.9889
  182MOL0     H24001   4.617   6.380   8.494 -0.1847 -2.2465  0.5892
  182MOL0     H24002   4.466   6.347   8.733  0.2907 -1.0772 -1.5264
  182MOL0     H24003   4.396   6.467   8.619 -1.2627 -0.3542  3.1590
  182MOL0     H24004   4.487   6.166   8.577  3.5193  2.2773 -1.1658
  182MOL0     H24005   4.444   6.270   8.449  0.7648 -1.8125 -0.5632
  182MOL0     H24006   5.292   6.572   8.658 -0.3207  0.1612  0.2695
  182MOL0     H24007   5.509   6.582   8.717  1.1147 -1.2879 -2.4275
  182MOL0     H24008   5.838   6.560   8.577 -1.3010 -1.6663  2.0335
  182MOL0     H24009   6.052   6.462   8.586  1.4495  0.6679 -0.6604
  182MOL0     H24010   7.939   7.262   8.703 -0.9768  1.3805  1.1171
  182MOL0     H24011   8.189   7.256   8.692  2.3752 -2.9615 -0.5644
  182MOL0     H24012   8.524   6.993   8.954 -2.1822 -2.0830 -3.7037
  182MOL0     H24013   8.781   6.971   9.017  1.0413 -0.9816 -1.0147
  182MOL0     H24014   8.930   6.836   8.957  0.5956 -0.7689  0.3289
  182MOL0     H24015   9.021   6.959   9.051  2.0255 -1.9591  0.4812
  182MOL0     H24016   9.136   6.745   8.963  2.6629 -0.7767  0.2580
  182MOL0     H24017   9.128   6.834   8.804  0.0399 -0.1952  0.0416
  182MOL0     H24018   9.265   6.909   9.061  1.6525 -0.5759  0.3889
  182MOL0     H24019   9.245   7.029   8.929  2.2578  1.0438  3.3897
  182MOL0     H24020   9.367   6.758   8.899  2.6454  0.0072  0.6859
  182MOL0     H24021   9.363   6.885   8.779 -1.7341 -1.6346 -0.4440
  182MOL0     H24022   9.709   6.919   9.034  1.5527  3.1813 -2.8087
  182MOL0     H24023   8.867   7.080   8.623 -1.8101 -1.2540 -2.7350
  182MOL0     H24024   8.622   7.161   8.592 -1.2290  1.3285  0.6935
  183MOL0     O24025   7.394   6.890   3.806 -0.5020  0.3764 -0.5016
  183MOL0     C24026   7.388   6.861   3.927 -0.5558 -0.1902 -0.1919
  183MOL0     O24027   7.475   6.776   3.991 -0.3420 -0.0774 -0.4318
  183MOL0     C24028   7.592   6.722   3.937  0.8346  0.6067 -0.8120
  183MOL0     C24029   7.653   6.603   3.989 -0.0146 -0.0168  0.1627
  183MOL0     C24030   7.769   6.548   3.932 -0.7649 -1.2590 -0.2577
  183MOL0     C24031   7.851   6.623   3.849  0.2419 -0.1421  0.1336
  183MOL0     O24032   7.983   6.585   3.827  0.0405  0.4740 -0.2139
  183MOL0     C24033   8.043   6.608   3.697  0.4993  0.5349  0.5079
  183MOL0     C24034   8.142   6.494   3.655  0.9556 -0.3452  0.0274
  183MOL0     C24035   8.270   6.499   3.740  0.1291  0.5504  0.2161
  183MOL0     C24036   8.347   6.368   3.738 -0.4554  0.0636 -0.2798
  183MOL0     C24037   8.465   6.367   3.828  0.4163  0.0526 -0.8377
  183MOL0     C24038   8.532   6.226   3.823 -0.0957 -0.1086  0.7391
  183MOL0     C24039   8.633   6.212   3.946 -0.8430 -0.8297  0.5498
  183MOL0     C24040   8.728   6.100   3.937 -0.3371  0.1526 -0.2218
  183MOL0     N24041   8.756   6.020   4.058  0.7222 -0.2917  0.2662
  183MOL0     C24042   8.829   6.060   4.162  0.1732 -0.5296  0.5194
  183MOL0     C24043   8.831   5.961   4.256  0.6307  0.2144  0.4990
  183MOL0     C24044   8.907   5.959   4.391 -0.4216 -0.5038  0.1529
  183MOL0     C24045   9.007   5.838   4.410 -0.1642  0.5383 -0.7246
  183MOL0     C24046   8.966   5.691   4.416  0.6405 -0.4588  0.8154
  183MOL0     C24047   8.872   5.672   4.537 -1.3093 -0.2461  0.1489
  183MOL0     O24048   8.829   5.544   4.514  0.0170  0.4861  0.2256
  183MOL0     C24049   8.694   5.535   4.506 -0.0591 -0.0257  0.5201
  183MOL0     C24050   8.605   5.604   4.588 -0.1328  0.1869 -0.1999
  183MOL0     C24051   8.468   5.584   4.583 -0.4952 -0.3061  0.4658
  183MOL0     C24052   8.412   5.500   4.486  0.0591 -0.0683  0.5185
  183MOL0     C24053   8.262   5.479   4.470 -0.9568 -0.5684 -0.2198
  183MOL0     O24054   8.218   5.370   4.396 -0.3771 -0.1959 -0.5544
  183MOL0     C24055   8.083   5.359   4.376  0.4658  0.2868  0.1761
  183MOL0     C24056   7.988   5.372   4.482  0.4214  0.7940  0.1724
  183MOL0     C24057   7.849   5.367   4.452 -0.5272 -0.3071  0.4070
  183MOL0     C24058   7.814   5.354   4.318 -1.2173  0.2272  0.5232
  183MOL0     O24059   7.680   5.362   4.307 -0.3490  0.6529  0.5225
  183MOL0     C24060   7.613   5.255   4.238 -0.0455 -0.6730  0.0489
  183MOL0     C24061   7.463   5.270   4.232  0.4231  0.0097  0.6287
  183MOL0     C24062   7.407   5.133   4.180  0.1912  0.2936 -0.3956
  183MOL0     C24063   7.249   5.127   4.194 -0.2913 -0.4720  0.9488
  183MOL0     C24064   7.184   4.990   4.157  0.1708 -0.3458  0.2792
  183MOL0     C24065   7.034   4.993   4.164  0.1990  0.4760 -0.5639
  183MOL0     C24066   6.969   4.994   4.301 -0.4486 -0.5822  0.5450
  183MOL0     C24067   6.827   4.961   4.302 -0.1842 -0.5694 -0.0247
  183MOL0    Cl24068   6.741   5.069   4.183 -0.0851 -0.3060  0.1164
  183MOL0     C24069   7.908   5.340   4.207  0.2521  0.7268  0.0452
  183MOL0     C24070   8.044   5.337   4.244 -0.1422  1.0538  0.0533
  183MOL0     O24071   8.191   5.559   4.532 -0.0073 -0.7397  0.7099
  183MOL0     C24072   8.501   5.435   4.393  0.5429 -0.0402  0.0049
  183MOL0     C24073   8.640   5.453   4.405 -0.5653 -1.0682  0.6200
  183MOL0     N24074   8.749   5.856   4.204  0.1060  0.2130  0.0284
  183MOL0     N24075   8.702   5.890   4.089  0.1386  0.5596  0.7238
  183MOL0     C24076   7.787   6.726   3.784 -1.3222 -1.8330  0.1352
  183MOL0     C24077   7.664   6.774   3.830 -1.1633 -0.3266 -0.7708
  183MOL0     C24078   7.281   6.915   4.009  0.0193 -0.6874  0.0573
  183MOL0     C24079   7.182   6.995   3.954  0.7185  0.4368 -0.8191
  183MOL0     C24080   7.080   7.048   4.034  0.6356  0.3231 -0.6961
  183MOL0     C24081   7.070   7.010   4.166  0.8599  0.1927  0.3620
  183MOL0     O24082   6.961   7.071   4.237  0.1246  0.0337  0.0750
  183MOL0     C24083   6.952   7.067   4.375  0.4268  0.4228 -0.1341
  183MOL0     C24084   6.858   6.952   4.403 -0.8819  0.5557  0.3732
  183MOL0     C24085   6.716   6.976   4.345 -0.1831  0.5648  0.4129
  183MOL0     C24086   6.623   6.886   4.415  0.2395 -0.1959  0.5588
  183MOL0     C24087   6.485   6.929   4.373 -0.7308 -0.3602  0.4644
  183MOL0     C24088   6.380   6.975   4.344  0.7254  0.3942 -0.4515
  183MOL0     C24089   7.170   6.931   4.226 -0.0481 -0.0540  0.1529
  183MOL0     C24090   7.278   6.887   4.145  0.0949 -0.1195 -0.7279
  183MOL0     H24091   7.594   6.541   4.055 -1.6996  2.4506  1.1232
  183MOL0     H24092   7.809   6.450   3.955  0.8685 -0.9545 -1.6560
  183MOL0     H24093   8.091   6.706   3.686  0.3762  0.3413 -2.4045
  183MOL0     H24094   7.960   6.618   3.625  1.4161  1.5445 -0.4463
  183MOL0     H24095   8.172   6.514   3.551  1.8690  0.9963  0.5203
  183MOL0     H24096   8.104   6.392   3.661  3.1066 -1.1926  0.0335
  183MOL0     H24097   8.241   6.520   3.844  0.2162 -0.6625  0.4917
  183MOL0     H24098   8.335   6.583   3.715 -2.9682  2.7920 -1.0469
  183MOL0     H24099   8.284   6.291   3.783  2.5088 -1.6361  1.3129
  183MOL0     H24100   8.377   6.338   3.637  1.0625 -0.3722  0.2694
  183MOL0     H24101   8.446   6.391   3.933  2.2659 -0.2058 -0.4178
  183MOL0     H24102   8.539   6.442   3.797  2.0806  0.5069  3.5375
  183MOL0     H24103   8.585   6.193   3.733 -0.7277 -0.8981  0.6466
  183MOL0     H24104   8.455   6.152   3.846 -2.3295  1.5909 -0.8424
  183MOL0     H24105   8.690   6.304   3.960 -0.0939 -1.1229 -0.4009
  183MOL0     H24106   8.579   6.198   4.040 -2.2291 -2.3328 -0.4092
  183MOL0     H24107   8.822   6.145   3.904 -0.3149 -0.6357 -1.3122
  183MOL0     H24108   8.690   6.035   3.857  2.0562 -0.0540 -1.2697
  183MOL0     H24109   8.875   6.157   4.180 -3.0075  0.7949  2.3273
  183MOL0     H24110   8.833   5.965   4.471  0.2705 -3.6281  1.1747
  183MOL0     H24111   8.957   6.055   4.401  0.9869 -1.2426  0.3958
  183MOL0     H24112   9.064   5.860   4.501 -0.9909 -1.1325  0.2471
  183MOL0     H24113   9.081   5.844   4.330 -2.1994 -0.8124 -2.8374
  183MOL0     H24114   8.911   5.675   4.322 -0.9577 -0.9326  1.7944
  183MOL0     H24115   9.060   5.636   4.428  0.7512  0.1628  3.3196
  183MOL0     H24116   8.803   5.757   4.537 -1.5180 -0.2613  3.6791
  183MOL0     H24117   8.931   5.685   4.629 -2.4051 -1.6627  1.0802
  183MOL0     H24118   8.636   5.661   4.675  2.0169 -0.8574 -0.2291
  183MOL0     H24119   8.394   5.638   4.642  1.2744  2.2882  0.4852
  183MOL0     H24120   8.017   5.387   4.586  0.7036  0.0612  0.2043
  183MOL0     H24121   7.773   5.378   4.529  0.9048  0.4233  1.7623
  183MOL0     H24122   7.642   5.163   4.291  3.7469  0.8578  0.9936
  183MOL0     H24123   7.648   5.250   4.135  3.6452  2.6430  0.8867
  183MOL0     H24124   7.440   5.354   4.165 -0.2089 -1.1829 -0.7157
  183MOL0     H24125   7.425   5.299   4.330  3.8777  0.9133  1.8659
  183MOL0     H24126   7.447   5.051   4.239  2.7483  0.8970 -1.1605
  183MOL0     H24127   7.439   5.118   4.077  2.0998  2.4453 -0.1925
  183MOL0     H24128   7.231   5.135   4.302 -1.6133 -0.1595  0.7242
  183MOL0     H24129   7.206   5.207   4.133  1.2547 -1.2454 -1.2588
  183MOL0     H24130   7.218   4.912   4.225 -2.3655 -2.6974 -0.9429
  183MOL0     H24131   7.218   4.963   4.057 -0.3338 -1.0875  0.3025
  183MOL0     H24132   7.006   4.898   4.119 -0.4668 -0.6872  2.1085
  183MOL0     H24133   6.998   5.077   4.103 -0.2307  1.4441  0.9507
  183MOL0     H24134   7.013   4.917   4.365  1.5060 -0.6734 -0.8135
  183MOL0     H24135   6.979   5.089   4.355  2.7704  0.5326 -1.6862
  183MOL0     H24136   6.786   4.963   4.403 -1.9318 -2.4506 -0.6295
  183MOL0     H24137   6.826   4.856   4.272  3.6140 -0.4337 -1.1934
  183MOL0     H24138   7.888   5.323   4.102  2.5674 -1.5488 -0.1313
  183MOL0     H24139   8.122   5.339   4.168 -3.9868  2.6549 -4.2674
  183MOL0     H24140   8.459   5.377   4.312  1.1764 -1.0767  0.4001
  183MOL0     H24141   8.717   5.412   4.340  0.1799 -0.6348  1.2084
  183MOL0     H24142   7.839   6.791   3.714 -1.9928 -0.0249  1.2476
  183MOL0     H24143   7.623   6.868   3.792  2.5999  2.0063  0.3889
  183MOL0     H24144   7.181   7.020   3.848 -0.2337 -0.3578 -1.0092
  183MOL0     H24145   6.994   7.104   3.997  1.0501  1.6291  0.2518
  183MOL0     H24146   6.921   7.169   4.398 -0.7284  0.4104 -1.4623
  183MOL0     H24147   7.048   7.049   4.424  0.5797 -3.2548 -1.4374
  183MOL0     H24148   6.915   6.867   4.365 -0.0704  3.0686 -4.8165
  183MOL0     H24149   6.855   6.941   4.512  2.7218  0.3696  0.5626
  183MOL0     H24150   6.708   6.966   4.236 -0.3121  2.9186  0.1623
  183MOL0     H24151   6.684   7.074   4.380 -0.2634 -0.4525  3.4634
  183MOL0     H24152   6.637   6.778   4.400  0.5778 -0.3402  1.7895
  183MOL0     H24153   6.626   6.912   4.522  0.0216  2.1222  0.0456
  183MOL0     H24154   6.277   7.002   4.333  1.1750  1.1295 -4.2174
  183MOL0     H24155   7.172   6.906   4.331  1.5395  0.9919  0.4206
  183MOL0     H24156   7.356   6.827   4.191  1.5623  1.9160 -0.4338
  184MOL0     O24157   0.729   0.724   1.402  0.1191  0.0897  0.4364
  184MOL0     C24158   0.808   0.758   1.497  0.2492 -0.0141 -0.0569
  184MOL0     O24159   0.771   0.816   1.609 -0.3191 -0.5382 -0.3579
  184MOL0     C24160   0.662   0.893   1.617 -0.1475  0.5288  0.1901
  184MOL0     C24161   0.683   1.021   1.654  0.5566 -0.0982 -1.1766
  184MOL0     C24162   0.582   1.114   1.642  1.2021  0.5348 -0.2917
  184MOL0     C24163   0.453   1.072   1.599  0.4294 -0.8049 -0.3979
  184MOL0     O24164   0.358   1.161   1.559  0.1127  0.3007 -0.1474
  184MOL0     C24165   0.321   1.269   1.650 -0.0440  0.3324 -1.5413
  184MOL0     C24166   0.219   1.212   1.757  0.3040  0.6884  0.4527
  184MOL0     C24167   0.131   1.315   1.828  0.3530  0.1628 -0.0615
  184MOL0     C24168   0.013   1.255   1.896  0.6214  0.2958 -0.4124
  184MOL0     C24169  -0.095   1.358   1.928 -1.4779  0.5208 -0.8309
  184MOL0     C24170  -0.155   1.347   2.069  0.3180 -0.2532  0.6941
  184MOL0     C24171  -0.063   1.379   2.187 -0.1780 -0.1871 -0.4304
  184MOL0     C24172  -0.123   1.359   2.334  1.0113  0.6148 -0.5864
  184MOL0     N24173  -0.138   1.219   2.362  0.6986  0.6165 -0.5354
  184MOL0     C24174  -0.254   1.151   2.338 -0.2899 -0.4869 -0.4216
  184MOL0     C24175  -0.227   1.028   2.359  0.3354  0.6063  0.0247
  184MOL0     C24176  -0.313   0.909   2.317  0.6533  0.4395  0.0862
  184MOL0     C24177  -0.460   0.950   2.283  0.3709  0.7038  0.1373
  184MOL0     C24178  -0.554   0.831   2.280  0.7444  0.1160  0.5721
  184MOL0     C24179  -0.678   0.863   2.195  0.6119  0.4365 -0.2684
  184MOL0     O24180  -0.777   0.759   2.224 -0.1229  0.6624 -0.3256
  184MOL0     C24181  -0.906   0.790   2.223  0.1193 -0.7584 -0.0934
  184MOL0     C24182  -0.973   0.764   2.342  0.5745  1.1631  0.1883
  184MOL0     C24183  -1.112   0.798   2.361 -0.1019 -0.8115  1.1659
  184MOL0     C24184  -1.180   0.858   2.254  0.2602  0.4364  0.4126
  184MOL0     C24185  -1.334   0.889   2.267 -1.2752 -0.3646 -0.6983
  184MOL0     O24186  -1.397   0.933   2.165  0.0216  0.1927  0.5769
  184MOL0     C24187  -1.532   0.959   2.152 -0.3816 -1.3854 -0.4930
  184MOL0     C24188  -1.573   1.083   2.093  0.0098  0.5235 -0.0798
  184MOL0     C24189  -1.705   1.111   2.064 -0.6583 -1.2924 -0.3692
  184MOL0     C24190  -1.803   1.024   2.105 -0.1999 -0.7712 -0.5230
  184MOL0     O24191  -1.937   1.040   2.084 -1.0321 -0.5613 -0.3130
  184MOL0     C24192  -1.979   1.148   2.001 -0.1402 -0.4865 -0.8016
  184MOL0     C24193  -2.128   1.149   2.020  0.0733 -0.2734 -0.0554
  184MOL0     C24194  -2.179   1.147   2.167  0.3381 -0.3520  0.3967
  184MOL0     C24195  -2.330   1.154   2.169 -0.1341  0.8334 -0.2519
  184MOL0     C24196  -2.390   1.284   2.119 -0.0363 -0.6591  0.9213
  184MOL0     C24197  -2.333   1.404   2.198 -0.2641 -0.4532 -0.4341
  184MOL0     C24198  -2.395   1.538   2.166  0.5189 -0.0243 -0.1798
  184MOL0     C24199  -2.543   1.554   2.215 -0.2588  0.2561  1.1289
  184MOL0    Cl24200  -2.538   1.581   2.393  0.3659  0.2416  0.3475
  184MOL0     C24201  -1.770   0.898   2.169 -0.0568 -0.9599  0.1663
  184MOL0     C24202  -1.634   0.869   2.185  0.8650  0.8225 -0.6984
  184MOL0     O24203  -1.383   0.879   2.374  0.6805  0.4248 -0.0222
  184MOL0     C24204  -1.109   0.896   2.135 -0.1531  0.2285 -0.5368
  184MOL0     C24205  -0.975   0.854   2.120 -0.0563  0.6976 -0.2886
  184MOL0     N24206  -0.100   1.015   2.394  0.6984 -0.2934  0.3641
  184MOL0     N24207  -0.041   1.130   2.400 -0.1014 -0.5857 -0.4216
  184MOL0     C24208   0.430   0.938   1.583  0.6247  0.1600  0.2889
  184MOL0     C24209   0.537   0.849   1.591 -0.3944 -0.3288  0.2383
  184MOL0     C24210   0.951   0.729   1.468  0.5591  0.5329 -0.7014
  184MOL0     C24211   1.041   0.753   1.579  0.4024  0.4037  0.7807
  184MOL0     C24212   1.176   0.724   1.565  0.3068  0.4454  0.6061
  184MOL0     C24213   1.228   0.673   1.446  0.2644  1.1160 -0.6262
  184MOL0     O24214   1.361   0.631   1.435 -0.3035 -0.3329 -0.0146
  184MOL0     C24215   1.443   0.604   1.550 -0.1843  0.2839 -0.4095
  184MOL0     C24216   1.569   0.543   1.496 -0.0534 -0.0430  0.3457
  184MOL0     C24217   1.659   0.637   1.413 -0.3674  0.1511 -0.0359
  184MOL0     C24218   1.767   0.568   1.324  0.6413  0.0833  0.1672
  184MOL0     C24219   1.868   0.662   1.265  0.1933 -0.8610 -1.0492
  184MOL0     C24220   1.927   0.744   1.196 -0.6495  0.0974 -0.8416
  184MOL0     C24221   1.138   0.652   1.339 -0.8413 -1.1184  0.1626
  184MOL0     C24222   1.003   0.680   1.344  0.0489  0.4080  0.6046
  184MOL0     H24223   0.780   1.061   1.681 -0.6965  0.8803  2.4353
  184MOL0     H24224   0.600   1.218   1.667 -2.8678  1.8358 -1.8698
  184MOL0     H24225   0.273   1.354   1.599 -1.3459 -0.8896 -2.4357
  184MOL0     H24226   0.402   1.313   1.709 -1.6839  1.0094  0.3384
  184MOL0     H24227   0.286   1.172   1.834  0.0127 -0.4776  0.1249
  184MOL0     H24228   0.166   1.124   1.719  0.7914  0.5852  0.0015
  184MOL0     H24229   0.089   1.387   1.757  0.2343  1.1070  0.9623
  184MOL0     H24230   0.186   1.376   1.900 -1.6903 -0.8766  2.5430
  184MOL0     H24231  -0.043   1.175   1.847 -1.6513  2.3741 -1.4465
  184MOL0     H24232   0.057   1.202   1.981  3.4706 -0.5804 -2.3046
  184MOL0     H24233  -0.176   1.338   1.857 -0.1610 -0.2797 -2.1801
  184MOL0     H24234  -0.050   1.457   1.915  1.1348 -0.5808 -0.7954
  184MOL0     H24235  -0.198   1.247   2.085 -0.9214  0.3880  1.5009
  184MOL0     H24236  -0.244   1.410   2.065  1.4096  1.5553  3.0726
  184MOL0     H24237   0.025   1.317   2.167  0.8606  1.1898 -0.2769
  184MOL0     H24238  -0.030   1.483   2.175  1.7607 -0.8786 -1.5763
  184MOL0     H24239  -0.214   1.412   2.362 -0.4891 -2.8280  1.6155
  184MOL0     H24240  -0.041   1.398   2.396  2.8617  0.6068 -2.8869
  184MOL0     H24241  -0.337   1.196   2.284  0.3444  0.9916 -0.2317
  184MOL0     H24242  -0.310   0.846   2.406 -1.6071  0.6525  0.3752
  184MOL0     H24243  -0.272   0.851   2.233 -1.2553  1.0457 -1.3513
  184MOL0     H24244  -0.467   0.992   2.182 -1.5698  0.3219  0.0699
  184MOL0     H24245  -0.493   1.025   2.356  3.1904  1.5351  0.6773
  184MOL0     H24246  -0.507   0.734   2.262 -0.1947  0.0197 -1.6059
  184MOL0     H24247  -0.598   0.815   2.379  1.0082  1.0615  0.8579
  184MOL0     H24248  -0.654   0.862   2.088  1.3373  3.4498 -0.2179
  184MOL0     H24249  -0.725   0.952   2.238  0.2675 -0.4568  1.2822
  184MOL0     H24250  -0.900   0.722   2.410  0.5381 -1.4103 -1.2274
  184MOL0     H24251  -1.163   0.770   2.452 -1.6637  0.7640  0.8348
  184MOL0     H24252  -1.495   1.154   2.066  0.2004  0.8153  1.2051
  184MOL0     H24253  -1.742   1.207   2.028  1.1583 -1.1865 -2.1383
  184MOL0     H24254  -1.943   1.138   1.898  4.3070 -4.0041  0.7582
  184MOL0     H24255  -1.944   1.243   2.042 -4.8600  0.8231  0.8219
  184MOL0     H24256  -2.182   1.065   1.973 -1.0645 -0.3653  1.3658
  184MOL0     H24257  -2.162   1.244   1.980  0.6428  0.4522  1.1355
  184MOL0     H24258  -2.141   1.239   2.212 -0.0403 -0.6733  1.4213
  184MOL0     H24259  -2.150   1.058   2.225 -3.9503 -2.5182 -0.3971
  184MOL0     H24260  -2.364   1.068   2.111 -1.1256  1.0501 -0.0119
  184MOL0     H24261  -2.357   1.126   2.271  0.0854  2.6317  0.3294
  184MOL0     H24262  -2.499   1.289   2.113  0.0640  0.7486 -0.3700
  184MOL0     H24263  -2.356   1.300   2.016  2.8942  1.8904  2.1078
  184MOL0     H24264  -2.224   1.419   2.191 -0.1677 -0.4040  0.9138
  184MOL0     H24265  -2.358   1.382   2.302 -1.7759 -0.8231 -0.8568
  184MOL0     H24266  -2.338   1.614   2.219  0.4915  0.9264 -1.4779
  184MOL0     H24267  -2.400   1.573   2.063  1.5462  1.3039  0.1990
  184MOL0     H24268  -2.594   1.460   2.191  1.4281 -0.5031  0.3821
  184MOL0     H24269  -2.600   1.624   2.154  0.4025  0.9998  1.3525
  184MOL0     H24270  -1.849   0.837   2.211 -0.4254 -0.5463  0.0849
  184MOL0     H24271  -1.621   0.770   2.228  1.2785  0.4759 -1.5853
  184MOL0     H24272  -1.162   0.952   2.059 -1.2565 -1.4644 -1.0714
  184MOL0     H24273  -0.922   0.880   2.029 -1.0728  0.6090 -0.9239
  184MOL0     H24274   0.328   0.911   1.556  0.7262 -0.8156  0.8145
  184MOL0     H24275   0.535   0.744   1.567  3.4110 -0.5325  0.1796
  184MOL0     H24276   0.995   0.796   1.667 -0.9042 -1.6836  1.1785
  184MOL0     H24277   1.237   0.745   1.652  1.9489  0.4302 -0.4901
  184MOL0     H24278   1.394   0.531   1.615  2.7024  1.3668  3.2876
  184MOL0     H24279   1.457   0.684   1.623 -3.4328  0.5300  0.1034
  184MOL0     H24280   1.619   0.496   1.582 -1.7549 -1.1434  0.7921
  184MOL0     H24281   1.540   0.470   1.420  2.7006  0.9250 -1.8197
  184MOL0     H24282   1.718   0.687   1.491  1.5807 -0.7528 -0.8502
  184MOL0     H24283   1.612   0.713   1.350 -2.7463 -1.0701  0.1592
  184MOL0     H24284   1.821   0.488   1.376 -0.3260 -1.6674 -1.4133
  184MOL0     H24285   1.720   0.521   1.237 -0.2103  0.6817  0.2935
  184MOL0     H24286   1.975   0.811   1.129 -1.2937 -1.8641 -3.4159
  184MOL0     H24287   1.190   0.639   1.245  1.9426  1.9129  1.1002
  184MOL0     H24288   0.941   0.657   1.257  0.4404 -2.3286  0.9659
  185MOL0     O24289   4.188   2.721   9.482  0.0760  0.0033 -0.2905
  185MOL0     C24290   4.221   2.669   9.382  0.3785  0.6720  0.3728
  185MOL0     O24291   4.138   2.629   9.278 -0.6048 -0.3100  0.4560
  185MOL0     C24292   4.007   2.658   9.277  0.6853 -0.1136  1.2185
  185MOL0     C24293   3.920   2.575   9.201 -0.2261 -0.5540  0.2496
  185MOL0     C24294   3.784   2.587   9.201  0.5235 -1.1067 -0.2653
  185MOL0     C24295   3.723   2.689   9.282 -0.6159  0.0513 -0.0337
  185MOL0     O24296   3.588   2.704   9.276 -0.2437  0.1004 -0.3088
  185MOL0     C24297   3.516   2.825   9.307  0.5256  0.4160 -0.0175
  185MOL0     C24298   3.367   2.796   9.328  0.6904 -0.9698  0.1480
  185MOL0     C24299   3.293   2.912   9.395  0.9285  0.2101 -0.5371
  185MOL0     C24300   3.150   2.904   9.339 -0.2992  0.6643 -0.3249
  185MOL0     C24301   3.055   2.992   9.407 -0.3295 -0.0407 -0.3861
  185MOL0     C24302   2.943   3.037   9.313 -0.0338  0.8356 -0.0185
  185MOL0     C24303   2.829   3.101   9.399  0.0395  0.4411  1.3597
  185MOL0     C24304   2.740   3.156   9.290  0.5096  0.5664  0.1929
  185MOL0     N24305   2.620   3.206   9.364 -1.6952 -0.2337  0.0165
  185MOL0     C24306   2.621   3.318   9.450 -0.1558  1.1434 -0.1552
  185MOL0     C24307   2.496   3.333   9.498  0.3491  1.0548 -0.5148
  185MOL0     C24308   2.442   3.404   9.623  0.2928 -0.1883  0.8381
  185MOL0     C24309   2.450   3.556   9.610  0.0350 -0.3775  0.6881
  185MOL0     C24310   2.352   3.613   9.514  0.8720 -0.0966  0.1896
  185MOL0     C24311   2.203   3.602   9.559 -1.1007 -0.2376  0.1859
  185MOL0     O24312   2.122   3.674   9.472  0.2176 -0.4290 -0.1869
  185MOL0     C24313   1.983   3.680   9.487 -0.6474  0.1895 -0.5579
  185MOL0     C24314   1.915   3.783   9.417 -0.4533 -0.4378 -0.6301
  185MOL0     C24315   1.780   3.798   9.429  0.2796 -0.5357  0.3242
  185MOL0     C24316   1.698   3.715   9.507 -0.5705 -0.4012 -0.6445
  185MOL0     C24317   1.542   3.704   9.490  0.1858  0.2278  0.2424
  185MOL0     O24318   1.484   3.585   9.530  0.2847 -0.0419 -0.1226
  185MOL0     C24319   1.364   3.555   9.484 -0.1032 -0.1674 -0.1152
  185MOL0     C24320   1.247   3.569   9.556 -0.3771  0.2638 -0.4239
  185MOL0     C24321   1.124   3.548   9.492  0.4985  0.5148  0.0611
  185MOL0     C24322   1.111   3.528   9.353 -0.2195 -0.1334  0.6288
  185MOL0     O24323   0.989   3.510   9.289 -0.1262 -0.0787  0.8781
  185MOL0     C24324   0.954   3.619   9.199  0.3543 -0.2435  0.1164
  185MOL0     C24325   0.805   3.643   9.230  0.5505  0.1910  0.4001
  185MOL0     C24326   0.709   3.579   9.131 -0.1293  0.0675 -0.1166
  185MOL0     C24327   0.564   3.604   9.164  0.0660 -0.6182 -0.2913
  185MOL0     C24328   0.463   3.504   9.104 -0.1710  0.5688 -0.4721
  185MOL0     C24329   0.328   3.563   9.140  0.9867  0.7290  0.2138
  185MOL0     C24330   0.214   3.454   9.122  0.4552 -0.6715 -0.4979
  185MOL0     C24331   0.083   3.523   9.155 -0.1213  0.0288  0.7092
  185MOL0    Cl24332  -0.063   3.422   9.113 -0.1407  0.0388  0.5083
  185MOL0     C24333   1.229   3.528   9.280 -0.1027 -0.8196  0.4322
  185MOL0     C24334   1.352   3.537   9.347  0.7211 -0.5319  0.6220
  185MOL0     O24335   1.491   3.802   9.435 -0.3576 -0.0569  0.1744
  185MOL0     C24336   1.767   3.621   9.581  0.4272  0.6801  0.3413
  185MOL0     C24337   1.909   3.600   9.572 -0.4943 -1.0710  0.5693
  185MOL0     N24338   2.420   3.229   9.441 -0.3217 -0.4384  0.1865
  185MOL0     N24339   2.492   3.160   9.351 -0.1575 -0.1923 -0.7678
  185MOL0     C24340   3.806   2.779   9.347  0.8341 -0.4419 -0.4136
  185MOL0     C24341   3.944   2.756   9.357  0.2317 -0.2528  0.2907
  185MOL0     C24342   4.366   2.624   9.370  0.5300  0.6944 -0.0895
  185MOL0     C24343   4.407   2.542   9.263 -0.3515 -0.0498 -0.2987
  185MOL0     C24344   4.543   2.498   9.249  0.2179 -0.0897  0.5441
  185MOL0     C24345   4.649   2.555   9.337 -0.0424  0.0153  0.1109
  185MOL0     O24346   4.786   2.542   9.318 -0.7772 -0.0183 -0.4055
  185MOL0     C24347   4.833   2.428   9.247 -0.5108 -0.3306  0.1540
  185MOL0     C24348   4.994   2.421   9.236  1.0495 -0.3149  0.3727
  185MOL0     C24349   5.053   2.406   9.376  0.4682 -0.7771 -0.2783
  185MOL0     C24350   5.206   2.412   9.358  0.0331  0.7398  0.2937
  185MOL0     C24351   5.263   2.308   9.429 -0.4042  0.0700 -0.2513
  185MOL0     C24352   5.305   2.210   9.488 -0.1094  0.6568  0.4869
  185MOL0     C24353   4.602   2.640   9.441 -0.2950  0.1228 -0.1046
  185MOL0     C24354   4.467   2.679   9.450  0.1524  0.2549  0.5129
  185MOL0     H24355   3.955   2.492   9.140  0.3590 -0.2221  0.1221
  185MOL0     H24356   3.719   2.531   9.135 -1.3942  1.8508 -1.0950
  185MOL0     H24357   3.531   2.893   9.223  0.5077  1.2487  0.6340
  185MOL0     H24358   3.565   2.864   9.396 -0.3491  2.9961 -0.5718
  185MOL0     H24359   3.345   2.708   9.388 -1.0255 -0.5034  0.2793
  185MOL0     H24360   3.323   2.783   9.228 -0.7409  3.5826 -0.0648
  185MOL0     H24361   3.337   3.005   9.358 -0.8684 -0.1026 -3.8680
  185MOL0     H24362   3.290   2.906   9.504 -0.1767  1.0903 -0.4999
  185MOL0     H24363   3.148   2.930   9.233 -1.1112  2.4997  0.1057
  185MOL0     H24364   3.111   2.802   9.347  2.9986 -0.7463 -0.2654
  185MOL0     H24365   3.109   3.080   9.444 -0.9716 -0.7566  2.5732
  185MOL0     H24366   3.032   2.934   9.497 -3.5745 -0.6506 -1.4984
  185MOL0     H24367   2.896   2.963   9.247 -0.5423  1.6082 -0.5388
  185MOL0     H24368   2.991   3.106   9.243 -0.9176 -1.6248 -3.3009
  185MOL0     H24369   2.774   3.029   9.460  0.2466 -0.2881  0.7135
  185MOL0     H24370   2.868   3.176   9.467  0.6692  2.4783 -1.0743
  185MOL0     H24371   2.718   3.078   9.217  1.3962  0.3372  0.1578
  185MOL0     H24372   2.796   3.239   9.246 -0.7214  1.9786  1.1904
  185MOL0     H24373   2.709   3.374   9.480  2.5879 -1.6893 -2.2964
  185MOL0     H24374   2.507   3.371   9.705  0.7519  0.8770  0.9172
  185MOL0     H24375   2.345   3.355   9.638 -0.1247  0.5967  0.7610
  185MOL0     H24376   2.553   3.570   9.576 -0.6795  2.0642 -0.6932
  185MOL0     H24377   2.441   3.608   9.706  0.1638 -1.9417  1.5746
  185MOL0     H24378   2.377   3.720   9.515 -0.7322  0.2970  1.4398
  185MOL0     H24379   2.382   3.587   9.412 -0.1301  1.8726 -0.6672
  185MOL0     H24380   2.197   3.630   9.664  1.1920  2.2147 -0.2391
  185MOL0     H24381   2.169   3.498   9.557 -2.2592  0.1406 -1.6475
  185MOL0     H24382   1.966   3.844   9.344 -0.7887  0.7340  0.0855
  185MOL0     H24383   1.726   3.873   9.372  0.6564 -0.0745  0.5745
  185MOL0     H24384   1.259   3.597   9.660 -1.2856 -0.3484 -0.1402
  185MOL0     H24385   1.030   3.558   9.546  0.7730 -0.5272  0.7632
  185MOL0     H24386   0.962   3.586   9.095 -0.4751 -2.9378  0.8191
  185MOL0     H24387   1.016   3.703   9.231 -0.5294  0.0302  1.1777
  185MOL0     H24388   0.782   3.750   9.233 -0.3597 -0.0063  3.3413
  185MOL0     H24389   0.781   3.600   9.327 -0.9376 -1.9227 -0.8128
  185MOL0     H24390   0.713   3.470   9.134  1.7453 -0.0224 -2.6413
  185MOL0     H24391   0.739   3.610   9.031  2.1642 -0.6861  0.2715
  185MOL0     H24392   0.563   3.587   9.272 -0.1548  0.8811 -0.0278
  185MOL0     H24393   0.546   3.711   9.150  0.3274 -0.5382 -0.0138
  185MOL0     H24394   0.478   3.406   9.152  0.3390  0.6029 -0.5554
  185MOL0     H24395   0.466   3.484   8.997 -1.9480  2.4058 -0.9228
  185MOL0     H24396   0.315   3.652   9.078  1.5670 -0.7444 -2.1814
  185MOL0     H24397   0.323   3.590   9.246 -1.2486  2.1317 -0.1682
  185MOL0     H24398   0.215   3.421   9.018  0.5424 -0.3583 -0.5988
  185MOL0     H24399   0.222   3.365   9.184 -1.3958  0.4890  1.5506
  185MOL0     H24400   0.066   3.616   9.100 -0.9288  0.4741  1.6931
  185MOL0     H24401   0.083   3.542   9.262  0.4413 -1.5033  1.0085
  185MOL0     H24402   1.229   3.525   9.171 -1.7399  0.1265  0.3757
  185MOL0     H24403   1.443   3.548   9.289  0.7210 -5.8549 -0.9053
  185MOL0     H24404   1.716   3.551   9.647  1.4577 -1.1422 -0.7014
  185MOL0     H24405   1.945   3.514   9.628  2.7548 -1.1260 -1.3605
  185MOL0     H24406   3.773   2.877   9.379  2.2292 -0.4493  1.2344
  185MOL0     H24407   3.998   2.826   9.420  0.7875 -0.6730  0.2820
  185MOL0     H24408   4.337   2.511   9.186 -0.7953 -0.7563  0.3825
  185MOL0     H24409   4.581   2.433   9.171  0.1074 -1.4958  1.6219
  185MOL0     H24410   4.795   2.436   9.145  0.1784 -0.3825 -0.1113
  185MOL0     H24411   4.790   2.336   9.288 -1.3949 -0.1494 -0.3471
  185MOL0     H24412   5.020   2.336   9.172 -3.9909 -0.0115 -2.5569
  185MOL0     H24413   5.047   2.509   9.198  4.3473 -1.6616  1.4322
  185MOL0     H24414   5.023   2.309   9.416 -2.3782 -1.6003 -3.9297
  185MOL0     H24415   5.026   2.482   9.451  1.3515 -1.2216  0.5237
  185MOL0     H24416   5.232   2.386   9.255  1.2736 -0.5473  0.9077
  185MOL0     H24417   5.245   2.513   9.371  1.3947  0.3459 -0.5722
  185MOL0     H24418   5.346   2.128   9.545  1.9634  0.7361 -0.7928
  185MOL0     H24419   4.680   2.655   9.515 -0.8519  1.8747  0.1778
  185MOL0     H24420   4.438   2.739   9.536  0.6865 -0.7495  1.4140
  186MOL0     O24421  11.199   1.943  11.087 -0.1092  0.0566 -0.2977
  186MOL0     C24422  11.162   1.915  10.976 -0.2952 -0.1199 -0.4839
  186MOL0     O24423  11.031   1.912  10.939 -0.3685  0.1192  0.4039
  186MOL0     C24424  10.926   1.917  11.023 -0.0944 -0.2645 -0.4839
  186MOL0     C24425  10.863   1.801  11.058  0.4144  0.4157 -0.6064
  186MOL0     C24426  10.746   1.807  11.133  0.2773 -0.2543  0.3422
  186MOL0     C24427  10.693   1.934  11.174  0.0922  0.1745 -0.7135
  186MOL0     O24428  10.585   1.922  11.266  0.3629 -1.2568 -0.0539
  186MOL0     C24429  10.551   2.033  11.354 -0.4360  0.2084  0.8226
  186MOL0     C24430  10.429   1.997  11.442 -0.3868 -0.4441  0.4304
  186MOL0     C24431  10.292   2.008  11.363  0.0604  0.2291 -0.5297
  186MOL0     C24432  10.189   1.982  11.471  0.0158 -0.6548 -0.4873
  186MOL0     C24433  10.049   1.977  11.423 -0.2820 -0.3128  1.4201
  186MOL0     C24434  10.001   2.106  11.352 -0.1352 -0.1774 -0.3403
  186MOL0     C24435  10.025   2.243  11.423 -0.0902 -0.0981  1.1043
  186MOL0     C24436   9.943   2.260  11.544  0.2149  0.2321  0.0932
  186MOL0     N24437   9.798   2.225  11.520 -0.0606 -0.3943  0.2831
  186MOL0     C24438   9.715   2.292  11.430 -0.5749 -0.1881 -1.1583
  186MOL0     C24439   9.592   2.251  11.457 -0.5768 -0.5623 -0.0981
  186MOL0     C24440   9.464   2.304  11.401  0.1210  0.2034 -1.0675
  186MOL0     C24441   9.355   2.298  11.501 -0.0314  0.1694  0.1307
  186MOL0     C24442   9.384   2.382  11.624  0.0035 -0.0108  0.6143
  186MOL0     C24443   9.287   2.354  11.736 -0.0897 -0.0691  0.9746
  186MOL0     O24444   9.175   2.442  11.721  0.2651  0.5718 -0.7893
  186MOL0     C24445   9.094   2.460  11.826  1.2405 -0.2880 -0.4629
  186MOL0     C24446   9.009   2.575  11.812 -0.1374  0.6060 -0.7794
  186MOL0     C24447   8.919   2.601  11.917  0.1727 -0.7333 -0.5437
  186MOL0     C24448   8.914   2.520  12.035  0.1587  0.3444  0.9960
  186MOL0     C24449   8.823   2.551  12.147 -0.0484 -0.9331  0.6943
  186MOL0     O24450   8.752   2.666  12.141 -0.2762  0.2828 -0.7510
  186MOL0     C24451   8.654   2.694  12.230 -0.4245  0.2399 -0.4259
  186MOL0     C24452   8.602   2.621  12.342 -0.5879  0.7027  0.4425
  186MOL0     C24453   8.482   2.663  12.403  0.4938 -0.2245 -0.3450
  186MOL0     C24454   8.423   2.784  12.377  0.1124 -0.4997 -0.8132
  186MOL0     O24455   8.320   2.836  12.459  0.2577  0.1511 -0.1647
  186MOL0     C24456   8.227   2.903  12.382 -0.1174  0.0451 -0.4421
  186MOL0     C24457   8.104   2.920  12.480 -0.3877 -0.0974  0.2165
  186MOL0     C24458   8.017   3.028  12.430 -0.0164  0.1558  0.4508
  186MOL0     C24459   7.873   3.037  12.495  0.4305 -1.4995 -0.0212
  186MOL0     C24460   7.791   3.169  12.473  0.6376  0.3687  0.1871
  186MOL0     C24461   7.742   3.165  12.326  0.6204 -0.8341  0.0471
  186MOL0     C24462   7.671   3.306  12.308 -0.4411  0.0155 -0.7296
  186MOL0     C24463   7.587   3.312  12.187 -0.3761 -0.3452  0.0250
  186MOL0    Cl24464   7.690   3.314  12.047 -0.2351 -0.2246  0.2876
  186MOL0     C24465   8.472   2.855  12.270  1.0899  0.2576 -0.4121
  186MOL0     C24466   8.586   2.805  12.191 -0.2125  0.0587 -0.8628
  186MOL0     O24467   8.817   2.464  12.238 -0.7312 -0.9307  0.1719
  186MOL0     C24468   8.989   2.398  12.036  0.1968  0.6530 -0.2462
  186MOL0     C24469   9.074   2.372  11.934 -0.0522  0.5139  0.0095
  186MOL0     N24470   9.599   2.144  11.541  0.2849  0.2876 -0.4612
  186MOL0     N24471   9.722   2.135  11.583 -0.8315  0.2056  0.4607
  186MOL0     C24472  10.754   2.054  11.133 -1.1184  0.3872 -0.6448
  186MOL0     C24473  10.875   2.042  11.066  0.4763 -0.0198 -0.0126
  186MOL0     C24474  11.274   1.891  10.884 -0.2744 -0.2773  0.9681
  186MOL0     C24475  11.407   1.918  10.931 -0.7629 -0.2291  0.7016
  186MOL0     C24476  11.516   1.902  10.847 -0.5289  0.5946 -0.3743
  186MOL0     C24477  11.495   1.862  10.713  0.4189 -0.6012  0.8774
  186MOL0     O24478  11.598   1.856  10.620  0.4412 -0.2011 -1.0619
  186MOL0     C24479  11.728   1.823  10.656  0.6434 -0.4552 -0.7008
  186MOL0     C24480  11.816   1.942  10.684 -0.4765  0.4218 -1.2414
  186MOL0     C24481  11.923   1.908  10.788 -0.6093  0.0517 -0.5210
  186MOL0     C24482  12.035   1.829  10.726 -0.4159 -0.4986  0.0378
  186MOL0     C24483  12.160   1.820  10.799 -0.2583  0.3214  0.6771
  186MOL0     C24484  12.249   1.829  10.880  0.0358  0.0812 -0.4038
  186MOL0     C24485  11.364   1.828  10.673  0.7767  0.3788  0.1741
  186MOL0     C24486  11.253   1.847  10.759  0.4496  0.6148 -0.1536
  186MOL0     H24487  10.906   1.707  11.024  1.5420 -0.1084  1.9968
  186MOL0     H24488  10.693   1.715  11.151  0.5162 -0.7614 -1.4065
  186MOL0     H24489  10.529   2.123  11.296 -0.3588  0.8099  1.7063
  186MOL0     H24490  10.632   2.050  11.426  0.2913 -0.9913  0.3283
  186MOL0     H24491  10.436   2.071  11.522  0.4647 -1.7778  1.6313
  186MOL0     H24492  10.441   1.895  11.479  2.4980 -1.4352 -2.6869
  186MOL0     H24493  10.288   1.919  11.298 -1.0155 -0.3864  0.3435
  186MOL0     H24494  10.296   2.097  11.299  2.1297  2.9766  3.1010
  186MOL0     H24495  10.207   1.887  11.521 -2.4394 -0.3278  1.1740
  186MOL0     H24496  10.199   2.058  11.548  0.0795 -0.5410 -0.6064
  186MOL0     H24497   9.986   1.960  11.510 -2.9206  1.2045 -0.0613
  186MOL0     H24498  10.044   1.888  11.360  5.8332  0.1775 -0.4670
  186MOL0     H24499   9.895   2.098  11.327 -0.0363 -1.4366 -0.4642
  186MOL0     H24500  10.039   2.106  11.250  0.0731  0.6325 -0.2672
  186MOL0     H24501  10.131   2.264  11.441 -0.0298  2.0819 -1.1487
  186MOL0     H24502  10.001   2.312  11.341  0.7803 -2.9491 -1.7601
  186MOL0     H24503   9.946   2.362  11.585 -0.0622  0.6778 -0.9667
  186MOL0     H24504   9.989   2.203  11.625 -0.5471  1.3618  1.3744
  186MOL0     H24505   9.734   2.372  11.359  1.9259 -0.0187 -0.3781
  186MOL0     H24506   9.443   2.230  11.323  0.4983  0.0133 -0.9906
  186MOL0     H24507   9.470   2.401  11.350  0.3241  0.6834 -0.1520
  186MOL0     H24508   9.331   2.192  11.516 -2.7423  0.5209 -1.0072
  186MOL0     H24509   9.265   2.345  11.459  0.3005  0.0315 -0.7600
  186MOL0     H24510   9.487   2.373  11.661 -0.3741 -1.1093  1.4654
  186MOL0     H24511   9.365   2.484  11.591 -2.7232 -1.4838 -3.0402
  186MOL0     H24512   9.343   2.368  11.829 -1.0504 -0.1741  1.5890
  186MOL0     H24513   9.254   2.250  11.734 -0.0486 -0.0866 -1.0558
  186MOL0     H24514   9.014   2.647  11.731  1.1377 -0.2058 -1.4443
  186MOL0     H24515   8.859   2.690  11.905  1.3155  0.1151 -0.1721
  186MOL0     H24516   8.647   2.528  12.374  1.3646  1.4987  0.1894
  186MOL0     H24517   8.440   2.601  12.481  1.1383 -0.3174 -0.0617
  186MOL0     H24518   8.207   2.843  12.293  1.4595 -1.3705  0.1100
  186MOL0     H24519   8.258   3.002  12.346 -3.7744  1.8789  0.8677
  186MOL0     H24520   8.134   2.945  12.582 -2.3652  1.5110  0.4728
  186MOL0     H24521   8.050   2.825  12.477  0.2509 -0.4954  1.0437
  186MOL0     H24522   7.997   3.015  12.323  0.0320  0.7476  0.3673
  186MOL0     H24523   8.075   3.120  12.443 -0.7034  0.5298  0.9081
  186MOL0     H24524   7.815   2.949  12.466  2.1254 -2.9672  0.8564
  186MOL0     H24525   7.890   3.031  12.603  0.6729  2.3443  0.3120
  186MOL0     H24526   7.851   3.258  12.493  0.7712  0.3399 -0.0707
  186MOL0     H24527   7.706   3.164  12.540 -0.2822 -2.0259 -1.0274
  186MOL0     H24528   7.665   3.089  12.312 -2.4224  1.4906  2.7298
  186MOL0     H24529   7.812   3.162  12.242 -0.4857  1.9399 -1.1067
  186MOL0     H24530   7.613   3.336  12.395  0.2979 -0.4301 -0.0648
  186MOL0     H24531   7.748   3.384  12.303  0.0825 -0.4653 -0.3099
  186MOL0     H24532   7.527   3.403  12.199 -0.2815 -0.4350  1.3408
  186MOL0     H24533   7.514   3.230  12.190 -0.3532 -0.3425  1.1768
  186MOL0     H24534   8.420   2.943  12.234  0.1260  0.5379  1.5456
  186MOL0     H24535   8.614   2.849  12.096  2.6401  0.2376 -0.0303
  186MOL0     H24536   8.969   2.324  12.112  0.3007 -0.8957 -1.6711
  186MOL0     H24537   9.124   2.275  11.933 -1.7288 -0.3796 -0.6196
  186MOL0     H24538  10.724   2.156  11.152  1.3755  0.6573  2.6008
  186MOL0     H24539  10.918   2.127  11.013  2.2822 -1.9748 -1.8505
  186MOL0     H24540  11.432   1.940  11.034  2.0586 -2.6930  0.6867
  186MOL0     H24541  11.615   1.927  10.883 -2.0828  3.8237  2.1040
  186MOL0     H24542  11.756   1.767  10.566  0.5858 -2.5108  0.5066
  186MOL0     H24543  11.728   1.756  10.742 -1.4233  0.3994  0.0220
  186MOL0     H24544  11.850   1.988  10.591  0.4918  0.3950 -0.9071
  186MOL0     H24545  11.761   2.022  10.734 -0.1219 -0.1498  0.0938
  186MOL0     H24546  11.881   1.841  10.864  0.4566 -2.2608 -1.8806
  186MOL0     H24547  11.957   2.001  10.834 -0.9832  0.3596 -0.8610
  186MOL0     H24548  11.992   1.730  10.708  1.5549 -1.2637 -0.7851
  186MOL0     H24549  12.065   1.874  10.631 -0.1759 -0.0964  0.2997
  186MOL0     H24550  12.313   1.825  10.966 -1.8756  1.9434  1.2103
  186MOL0     H24551  11.356   1.797  10.569 -2.3371  0.5858  0.2666
  186MOL0     H24552  11.151   1.833  10.726  0.2013  3.5967 -0.8980
  187MOL0     O24553   3.818   3.441   5.454 -1.8227 -0.9404 -0.3049
  187MOL0     C24554   3.837   3.564   5.482  1.1432 -0.3169  0.3502
  187MOL0     O24555   3.746   3.646   5.547 -0.5793  0.3632  0.9161
  187MOL0     C24556   3.648   3.597   5.615  0.5857 -0.0971  0.8181
  187MOL0     C24557   3.553   3.524   5.538 -0.5181 -0.1244 -0.1338
  187MOL0     C24558   3.446   3.464   5.596 -0.3377 -0.0089  0.3833
  187MOL0     C24559   3.425   3.475   5.744  0.1109 -0.2343  1.4748
  187MOL0     O24560   3.312   3.425   5.800  0.1444 -0.7492 -0.4251
  187MOL0     C24561   3.269   3.466   5.928  0.0218 -0.1688  0.5566
  187MOL0     C24562   3.129   3.442   5.976  0.7103  0.4922 -0.5875
  187MOL0     C24563   3.046   3.334   5.918 -0.1639 -0.1488 -0.0565
  187MOL0     C24564   2.905   3.338   5.960  0.3466  0.0416  0.9171
  187MOL0     C24565   2.821   3.224   5.900 -0.4606  0.2743  0.2885
  187MOL0     C24566   2.673   3.216   5.955  0.1262  0.1465  0.2920
  187MOL0     C24567   2.589   3.099   5.896 -0.3142  0.2422  0.4371
  187MOL0     C24568   2.433   3.115   5.877 -0.7551 -0.2148  0.0388
  187MOL0     N24569   2.368   3.057   5.999 -0.1741  0.2506 -0.1174
  187MOL0     C24570   2.265   2.968   5.996 -0.3327  0.4327  0.7318
  187MOL0     C24571   2.223   2.952   6.121  0.2227  0.0283  0.0202
  187MOL0     C24572   2.093   2.885   6.161  0.5669  0.0577 -0.4492
  187MOL0     C24573   1.977   2.997   6.153  0.3122  1.0271 -0.0935
  187MOL0     C24574   1.838   2.963   6.210  0.3874 -0.0643 -0.5209
  187MOL0     C24575   1.742   3.077   6.181 -0.1895 -0.2898 -0.1950
  187MOL0     O24576   1.611   3.048   6.227  0.1081 -0.1359 -0.1932
  187MOL0     C24577   1.512   3.147   6.227  1.0740 -0.2414  0.3738
  187MOL0     C24578   1.387   3.098   6.240 -0.1339  0.2702  0.6836
  187MOL0     C24579   1.268   3.179   6.235  0.4049  0.2588  0.1224
  187MOL0     C24580   1.280   3.318   6.223  0.5320 -0.0586  0.5285
  187MOL0     C24581   1.157   3.405   6.225  0.9747  0.2292  0.4856
  187MOL0     O24582   1.029   3.352   6.191  0.3975  0.0051  0.2825
  187MOL0     C24583   0.917   3.439   6.202  0.0200 -0.0980 -0.4525
  187MOL0     C24584   0.892   3.559   6.263 -0.0428 -0.2477 -0.1384
  187MOL0     C24585   0.768   3.614   6.277  1.1633  0.2138  0.1111
  187MOL0     C24586   0.655   3.550   6.226  0.0782  1.2032  0.4793
  187MOL0     O24587   0.534   3.607   6.257 -0.0194 -0.8794  0.1509
  187MOL0     C24588   0.423   3.550   6.189  0.2919 -0.1793 -0.4098
  187MOL0     C24589   0.288   3.625   6.201 -0.5181  0.0938 -1.0105
  187MOL0     C24590   0.194   3.544   6.110  0.6893  0.3304 -0.3499
  187MOL0     C24591   0.044   3.591   6.117 -0.0920 -0.5310  0.0378
  187MOL0     C24592  -0.046   3.492   6.046  0.4424 -0.1231 -0.9951
  187MOL0     C24593  -0.001   3.487   5.896  0.8491 -0.3186  0.2406
  187MOL0     C24594  -0.112   3.473   5.798  1.1871 -0.4945  0.1003
  187MOL0     C24595  -0.054   3.478   5.655 -0.5365 -0.3461 -1.0755
  187MOL0    Cl24596  -0.164   3.396   5.548  0.3955 -0.2071  0.2146
  187MOL0     C24597   0.671   3.421   6.171  0.7145 -0.0638 -0.1173
  187MOL0     C24598   0.800   3.372   6.154 -0.5905  0.6260  0.4540
  187MOL0     O24599   1.181   3.522   6.238 -0.0730 -0.1079 -0.3392
  187MOL0     C24600   1.409   3.371   6.195 -0.0819 -0.5782 -0.2450
  187MOL0     C24601   1.524   3.290   6.196 -0.7684  0.4101  0.1205
  187MOL0     N24602   2.298   3.028   6.200  0.3047  0.0525  0.5625
  187MOL0     N24603   2.380   3.090   6.129  0.5598 -1.3759 -0.0192
  187MOL0     C24604   3.529   3.541   5.816  0.2020 -0.2459  1.1649
  187MOL0     C24605   3.638   3.600   5.750 -0.0646  0.3750  0.0467
  187MOL0     C24606   3.966   3.638   5.446  0.3284  0.4984 -0.4978
  187MOL0     C24607   4.077   3.559   5.411  0.5941  1.0716 -0.3430
  187MOL0     C24608   4.197   3.619   5.373 -0.2638 -0.5770  0.3938
  187MOL0     C24609   4.214   3.760   5.368  1.1527  0.6992 -0.0393
  187MOL0     O24610   4.343   3.812   5.341  0.6160  0.4534  0.0967
  187MOL0     C24611   4.355   3.947   5.313  0.1192  0.4608  0.1871
  187MOL0     C24612   4.463   3.975   5.206 -0.0594  0.8284 -1.1358
  187MOL0     C24613   4.489   4.125   5.188  0.6929  0.4740 -0.0945
  187MOL0     C24614   4.617   4.151   5.110 -0.3200  0.1111  0.8964
  187MOL0     C24615   4.677   4.281   5.131  0.1771 -0.8889  1.0206
  187MOL0     C24616   4.715   4.389   5.179 -0.3409  0.8956  0.5643
  187MOL0     C24617   4.098   3.833   5.404  0.7729  1.4265 -0.1272
  187MOL0     C24618   3.978   3.774   5.436 -0.1378 -0.1574  0.2706
  187MOL0     H24619   3.569   3.520   5.431 -1.5102  2.9109 -0.4862
  187MOL0     H24620   3.380   3.419   5.524  2.1391 -0.1595 -1.9624
  187MOL0     H24621   3.282   3.574   5.939 -4.0257  0.2114  4.3319
  187MOL0     H24622   3.335   3.415   5.998 -0.6060  1.0058  2.0744
  187MOL0     H24623   3.084   3.540   5.962 -0.4526  0.3106  1.4777
  187MOL0     H24624   3.132   3.429   6.085 -1.9365 -0.9212 -0.6047
  187MOL0     H24625   3.093   3.237   5.940 -1.5935 -0.2623  3.1408
  187MOL0     H24626   3.049   3.358   5.812 -0.1827  0.3128  0.0438
  187MOL0     H24627   2.898   3.336   6.069 -0.1188  1.6462  0.9382
  187MOL0     H24628   2.868   3.428   5.911 -0.0485 -0.4673  0.2559
  187MOL0     H24629   2.872   3.131   5.925 -0.9334  0.0904  0.5960
  187MOL0     H24630   2.816   3.239   5.792  1.0931 -0.7590  0.0400
  187MOL0     H24631   2.622   3.307   5.920 -0.8050 -0.9767 -1.3966
  187MOL0     H24632   2.684   3.192   6.061  0.0556 -1.2165  0.0066
  187MOL0     H24633   2.646   3.080   5.805 -0.6511 -0.8479  0.4395
  187MOL0     H24634   2.601   3.003   5.947 -0.1911 -0.2069 -0.4302
  187MOL0     H24635   2.403   3.073   5.781  0.4066  4.1419 -2.4583
  187MOL0     H24636   2.409   3.222   5.879  0.0609 -0.0200 -0.3899
  187MOL0     H24637   2.220   2.917   5.912 -0.0020  2.3082 -0.6676
  187MOL0     H24638   2.094   2.868   6.269  0.0036  4.5130  0.4525
  187MOL0     H24639   2.073   2.798   6.099  3.2197 -1.0740  0.1444
  187MOL0     H24640   1.958   3.016   6.047  0.0887  0.0810 -0.2279
  187MOL0     H24641   2.017   3.095   6.180  1.0916  0.7214 -0.1267
  187MOL0     H24642   1.796   2.876   6.159 -1.8033 -0.8561  2.4077
  187MOL0     H24643   1.835   2.935   6.315 -3.5280 -0.0235 -0.4994
  187MOL0     H24644   1.740   3.096   6.074 -1.7311  0.6998 -0.0299
  187MOL0     H24645   1.789   3.164   6.229  2.4874 -2.2517  0.9742
  187MOL0     H24646   1.372   2.995   6.270 -0.8968 -2.0126 -5.8678
  187MOL0     H24647   1.167   3.148   6.258 -0.1788  1.5016 -0.6807
  187MOL0     H24648   0.968   3.613   6.319 -1.1187 -1.0994  2.2981
  187MOL0     H24649   0.748   3.694   6.347  0.0563  3.2235 -3.2915
  187MOL0     H24650   0.410   3.446   6.221  3.2100 -0.8937 -1.2755
  187MOL0     H24651   0.447   3.546   6.083 -2.2666 -1.9178 -1.0129
  187MOL0     H24652   0.292   3.729   6.169  2.9710  0.7639  1.1321
  187MOL0     H24653   0.252   3.628   6.304  2.8175  1.4529  0.2633
  187MOL0     H24654   0.189   3.438   6.138 -2.7399  0.2930 -0.6356
  187MOL0     H24655   0.226   3.567   6.008  1.5011  1.4446  0.1369
  187MOL0     H24656   0.010   3.613   6.219 -0.3169  1.1931 -0.3737
  187MOL0     H24657   0.036   3.684   6.061 -0.3368 -1.6073 -1.7908
  187MOL0     H24658  -0.150   3.518   6.067  0.7382  0.4497 -0.2027
  187MOL0     H24659  -0.035   3.393   6.092  0.8883 -0.6531 -2.1914
  187MOL0     H24660   0.060   3.397   5.884 -2.3774 -2.7332  0.7968
  187MOL0     H24661   0.044   3.581   5.860 -2.1320  0.9383 -0.4751
  187MOL0     H24662  -0.150   3.371   5.807 -0.3633 -0.0771 -1.3262
  187MOL0     H24663  -0.185   3.552   5.820  0.1407 -0.9150 -1.6862
  187MOL0     H24664   0.045   3.434   5.665 -0.2105  0.1240 -2.0934
  187MOL0     H24665  -0.036   3.582   5.625  0.4639 -0.5672 -1.2524
  187MOL0     H24666   0.595   3.364   6.118  1.0188  0.1522 -0.8013
  187MOL0     H24667   0.810   3.275   6.106 -1.5425 -0.4919  2.3855
  187MOL0     H24668   1.433   3.475   6.177  2.1915 -1.1257 -0.7778
  187MOL0     H24669   1.623   3.327   6.172 -0.1424 -0.4380  1.2947
  187MOL0     H24670   3.524   3.545   5.925 -1.7250 -1.4136  1.1577
  187MOL0     H24671   3.730   3.628   5.800 -0.4746 -0.1011  1.1097
  187MOL0     H24672   4.079   3.452   5.427 -0.9753  1.2270  1.1870
  187MOL0     H24673   4.285   3.558   5.359  1.3042  1.5802  0.3599
  187MOL0     H24674   4.370   4.007   5.403  1.1032  0.2302  0.1934
  187MOL0     H24675   4.260   3.984   5.273 -0.5579 -2.8068 -1.6019
  187MOL0     H24676   4.552   3.918   5.231 -0.5853  0.4617 -0.0452
  187MOL0     H24677   4.422   3.936   5.112 -2.7124 -2.0584  0.9842
  187MOL0     H24678   4.509   4.167   5.287 -1.4328  0.7058  0.2829
  187MOL0     H24679   4.400   4.166   5.140 -1.5326 -2.2342  1.4280
  187MOL0     H24680   4.696   4.084   5.145 -0.8806 -1.0344  0.0233
  187MOL0     H24681   4.598   4.138   5.003  1.2106  2.0278  0.3290
  187MOL0     H24682   4.740   4.476   5.236  1.9262 -0.0561  1.0987
  187MOL0     H24683   4.084   3.940   5.417 -2.0784  1.0886  0.3534
  187MOL0     H24684   3.888   3.833   5.452 -0.0391  0.6030 -1.6478
  188MOL0     O24685   2.701   3.988   2.938 -0.2381  0.2932 -0.0938
  188MOL0     C24686   2.736   3.872   2.942  0.1229  0.0626  0.0673
  188MOL0     O24687   2.859   3.833   2.999  0.0592  0.8283  0.2103
  188MOL0     C24688   2.945   3.927   3.039  0.5568 -0.6379 -0.3428
  188MOL0     C24689   2.918   4.038   3.120  1.1518 -1.0720  0.7341
  188MOL0     C24690   3.015   4.123   3.154  0.4664 -0.5204 -0.1299
  188MOL0     C24691   3.148   4.101   3.113 -0.6813 -0.5249 -0.1626
  188MOL0     O24692   3.246   4.193   3.164 -0.7220 -0.4652  0.1614
  188MOL0     C24693   3.346   4.140   3.238  0.1278  0.2344  1.4903
  188MOL0     C24694   3.475   4.104   3.154  0.5491  1.1186  0.1705
  188MOL0     C24695   3.602   4.146   3.212 -0.0545 -1.0453  0.8312
  188MOL0     C24696   3.733   4.113   3.134  0.5751  0.4483 -0.0963
  188MOL0     C24697   3.849   4.201   3.190  0.0381  0.5245 -0.2433
  188MOL0     C24698   3.979   4.157   3.112 -0.0725 -0.1652  0.3684
  188MOL0     C24699   4.095   4.249   3.164 -0.0349  0.0315  0.6444
  188MOL0     C24700   4.223   4.188   3.102  0.1560 -0.3714 -0.0228
  188MOL0     N24701   4.348   4.254   3.135  0.8222  0.1268  1.1313
  188MOL0     C24702   4.417   4.230   3.250  0.3976 -0.1168  0.0143
  188MOL0     C24703   4.523   4.324   3.244 -0.0630 -1.1526 -0.2572
  188MOL0     C24704   4.636   4.369   3.332 -0.3868  0.2267 -0.4038
  188MOL0     C24705   4.626   4.321   3.477 -0.1998 -0.3464 -0.1931
  188MOL0     C24706   4.522   4.407   3.562 -0.3170  0.1208 -0.4094
  188MOL0     C24707   4.502   4.352   3.706 -0.2935 -0.0781 -0.1706
  188MOL0     O24708   4.444   4.225   3.694 -0.3598 -0.0839  0.2282
  188MOL0     C24709   4.316   4.209   3.665  0.2709  0.5283  0.5545
  188MOL0     C24710   4.218   4.298   3.714  0.2618  0.1797  0.8372
  188MOL0     C24711   4.082   4.280   3.679  1.3204  0.1706  0.5846
  188MOL0     C24712   4.043   4.175   3.601 -0.2998 -0.0302  0.1610
  188MOL0     C24713   3.903   4.148   3.579  0.1438  0.0628  0.5700
  188MOL0     O24714   3.868   4.021   3.538 -0.3113  0.1905 -0.2794
  188MOL0     C24715   3.730   3.987   3.527  0.6712 -0.5839  0.2141
  188MOL0     C24716   3.708   3.895   3.432  0.4079  0.4762 -0.4360
  188MOL0     C24717   3.586   3.842   3.402  0.0369  1.0492  0.5084
  188MOL0     C24718   3.473   3.877   3.481 -0.0038 -0.1097  0.7150
  188MOL0     O24719   3.357   3.806   3.448  0.2176 -0.4875  0.1816
  188MOL0     C24720   3.230   3.846   3.509 -0.3356  0.7403 -0.0285
  188MOL0     C24721   3.121   3.781   3.425  0.2795 -0.0880  0.6003
  188MOL0     C24722   2.981   3.818   3.472 -0.1658  0.4968  0.3775
  188MOL0     C24723   2.873   3.744   3.396 -0.2976  0.3207 -0.4729
  188MOL0     C24724   2.738   3.755   3.465  0.5124  0.1382  0.9362
  188MOL0     C24725   2.630   3.693   3.369  0.3082 -0.5163  0.5254
  188MOL0     C24726   2.492   3.751   3.391  0.5201  0.4029 -0.5593
  188MOL0     C24727   2.393   3.676   3.299  0.2718  0.7731  0.3328
  188MOL0    Cl24728   2.385   3.507   3.349 -0.2191 -0.1559 -0.0110
  188MOL0     C24729   3.492   3.976   3.578 -0.6124 -0.2292  0.2294
  188MOL0     C24730   3.618   4.033   3.604  0.0945  0.3251 -0.5476
  188MOL0     O24731   3.824   4.245   3.586 -0.1910 -0.7869 -0.3953
  188MOL0     C24732   4.138   4.075   3.554  0.4125  0.8532 -0.6551
  188MOL0     C24733   4.277   4.100   3.574 -0.3070 -1.1704  0.4073
  188MOL0     N24734   4.494   4.407   3.140  0.2136  0.2838  0.4844
  188MOL0     N24735   4.393   4.368   3.078 -0.5905  1.1975 -0.2567
  188MOL0     C24736   3.176   4.002   3.014  0.3027 -0.5398 -0.0444
  188MOL0     C24737   3.071   3.915   2.978  0.0753 -0.4120  0.9205
  188MOL0     C24738   2.637   3.766   2.918 -0.0377 -0.8484 -0.1654
  188MOL0     C24739   2.658   3.632   2.946 -0.3779  1.0980  0.3078
  188MOL0     C24740   2.557   3.532   2.926  0.5967 -0.0419 -0.2761
  188MOL0     C24741   2.433   3.572   2.876  0.4973 -0.5027  0.3874
  188MOL0     O24742   2.327   3.489   2.857 -0.1318  0.2575  0.0890
  188MOL0     C24743   2.343   3.349   2.831  0.2146 -1.1632  0.1970
  188MOL0     C24744   2.231   3.265   2.885 -0.5553 -0.8530 -1.2337
  188MOL0     C24745   2.088   3.304   2.835  0.0429  0.6251 -0.4009
  188MOL0     C24746   1.983   3.255   2.938 -0.2503 -0.5992 -0.9324
  188MOL0     C24747   1.849   3.261   2.884 -0.1134  0.5902  0.1145
  188MOL0     C24748   1.742   3.247   2.827 -0.5984 -0.7766 -0.8341
  188MOL0     C24749   2.412   3.705   2.851 -1.0609  0.1377 -0.6121
  188MOL0     C24750   2.512   3.798   2.867  0.3360  0.7916  0.7277
  188MOL0     H24751   2.819   4.069   3.152  0.5495 -0.1352 -1.7931
  188MOL0     H24752   2.998   4.208   3.220 -2.3635 -2.8616  2.4118
  188MOL0     H24753   3.321   4.049   3.294 -4.1480  0.9312  1.0710
  188MOL0     H24754   3.356   4.213   3.319  1.0074  1.5733  0.2209
  188MOL0     H24755   3.467   4.151   3.056  0.7201  0.7847 -0.0078
  188MOL0     H24756   3.466   3.995   3.147 -2.0798  1.3979 -2.5975
  188MOL0     H24757   3.608   4.098   3.310  0.2568 -2.1555  0.2856
  188MOL0     H24758   3.591   4.254   3.217 -2.1882 -1.2268  1.0850
  188MOL0     H24759   3.750   4.006   3.145  1.0611  0.4759 -0.5117
  188MOL0     H24760   3.727   4.124   3.025  0.5023 -0.4875 -0.1903
  188MOL0     H24761   3.864   4.181   3.296  1.3047  1.2732 -0.2585
  188MOL0     H24762   3.819   4.305   3.183  0.7283  0.6997 -0.6978
  188MOL0     H24763   3.955   4.161   3.005  1.5054  0.7814  0.0178
  188MOL0     H24764   4.001   4.052   3.133  0.1099  0.1705  1.9326
  188MOL0     H24765   4.086   4.356   3.146 -0.5139  0.6550  3.9676
  188MOL0     H24766   4.112   4.238   3.271  4.6164  2.0678  0.3752
  188MOL0     H24767   4.217   4.185   2.993  1.1670  1.4260 -0.1644
  188MOL0     H24768   4.236   4.083   3.132  0.3772 -0.0130  1.1917
  188MOL0     H24769   4.390   4.153   3.322  0.4261  0.7388  0.9596
  188MOL0     H24770   4.648   4.478   3.328  2.5694  0.1852  3.0672
  188MOL0     H24771   4.730   4.333   3.289 -0.3582 -1.8607  1.3092
  188MOL0     H24772   4.718   4.338   3.533 -2.0117 -0.2540  2.9597
  188MOL0     H24773   4.604   4.215   3.488  0.1677 -0.1706  3.2619
  188MOL0     H24774   4.564   4.508   3.562  2.8562 -1.0869 -1.5979
  188MOL0     H24775   4.430   4.408   3.504  0.8830 -2.4025 -2.5844
  188MOL0     H24776   4.435   4.408   3.773 -2.7512 -0.4775 -2.1510
  188MOL0     H24777   4.601   4.357   3.753 -1.0180 -0.3678  1.4771
  188MOL0     H24778   4.234   4.386   3.776 -0.3256  1.0371 -0.1815
  188MOL0     H24779   4.013   4.349   3.726 -3.1682 -2.4756 -1.4766
  188MOL0     H24780   3.786   3.865   3.363 -2.5458 -0.3948 -3.6772
  188MOL0     H24781   3.588   3.766   3.324 -0.9946 -0.3211  1.7626
  188MOL0     H24782   3.216   3.954   3.519 -0.6387  0.6113  1.0096
  188MOL0     H24783   3.219   3.799   3.607  0.5660  0.0427 -0.2433
  188MOL0     H24784   3.137   3.675   3.445  1.1090  0.6248  4.7321
  188MOL0     H24785   3.143   3.807   3.321  0.8327  2.1863  1.2403
  188MOL0     H24786   2.954   3.924   3.470 -0.7172  0.3710  0.8583
  188MOL0     H24787   2.968   3.775   3.572  1.0959  1.0963  0.8202
  188MOL0     H24788   2.865   3.777   3.292 -4.3704  2.7395  0.4113
  188MOL0     H24789   2.904   3.639   3.400  1.0155  0.7048  2.5598
  188MOL0     H24790   2.697   3.854   3.485 -0.4966 -0.3005  1.1292
  188MOL0     H24791   2.738   3.702   3.560  1.4618  2.0302  2.0444
  188MOL0     H24792   2.633   3.584   3.385 -3.5985 -0.6900  1.0200
  188MOL0     H24793   2.667   3.713   3.268  0.5557 -0.1660  0.6837
  188MOL0     H24794   2.471   3.735   3.497  3.1885  3.1235  0.5216
  188MOL0     H24795   2.488   3.857   3.364 -0.4313 -0.2339 -3.2378
  188MOL0     H24796   2.428   3.689   3.196  1.7032  1.3458  0.8575
  188MOL0     H24797   2.289   3.702   3.316  0.2362 -0.9518  3.5524
  188MOL0     H24798   3.399   4.005   3.626 -1.2398  0.5305 -1.3623
  188MOL0     H24799   3.642   4.095   3.691 -2.2312 -2.8431  2.6101
  188MOL0     H24800   4.103   3.985   3.506 -1.2936  0.0008  1.9439
  188MOL0     H24801   4.354   4.026   3.552  0.0365 -0.9450  0.8226
  188MOL0     H24802   3.272   4.010   2.964 -0.1849 -1.0544 -1.0743
  188MOL0     H24803   3.098   3.840   2.905  1.3914  1.9262 -1.1578
  188MOL0     H24804   2.756   3.597   2.977 -0.6748 -0.4262 -0.3654
  188MOL0     H24805   2.566   3.425   2.942 -1.5679 -0.5871 -2.1949
  188MOL0     H24806   2.439   3.314   2.871  0.5625 -2.8328 -1.8602
  188MOL0     H24807   2.354   3.331   2.723  1.3026  1.3022 -0.1751
  188MOL0     H24808   2.257   3.159   2.884 -2.4159 -1.5149  2.4732
  188MOL0     H24809   2.248   3.276   2.992 -0.3788 -3.5337 -0.9310
  188MOL0     H24810   2.080   3.258   2.736 -0.5871 -1.9872  0.7865
  188MOL0     H24811   2.085   3.413   2.832  0.5389  0.6787  0.5810
  188MOL0     H24812   2.019   3.158   2.975 -0.2772  0.3794  1.9074
  188MOL0     H24813   1.989   3.319   3.026 -1.4396 -2.0312  0.2583
  188MOL0     H24814   1.654   3.231   2.768 -1.0123 -3.6780  0.3911
  188MOL0     H24815   2.312   3.734   2.822 -0.8854  1.5138  0.0310
  188MOL0     H24816   2.491   3.903   2.847  1.1297  1.7082  4.1620
  189MOL0     O24817   5.018   9.636   6.865 -0.1347  0.2420  0.7402
  189MOL0     C24818   5.086   9.596   6.767  0.1007  0.1034 -0.2406
  189MOL0     O24819   5.048   9.577   6.640 -0.5980  0.8723 -0.6341
  189MOL0     C24820   4.916   9.602   6.611  0.7683 -0.7188  0.2394
  189MOL0     C24821   4.812   9.514   6.637  0.1655 -0.2815 -0.7001
  189MOL0     C24822   4.676   9.535   6.598 -0.4162 -0.3097 -0.3139
  189MOL0     C24823   4.646   9.648   6.525  0.2662 -0.6368  0.9830
  189MOL0     O24824   4.520   9.671   6.469  0.6900  0.0759 -0.2524
  189MOL0     C24825   4.401   9.651   6.544 -1.1058  1.1109  0.5955
  189MOL0     C24826   4.289   9.730   6.482 -0.0600 -1.1619  0.5278
  189MOL0     C24827   4.147   9.697   6.533  0.7341  0.5524  0.1775
  189MOL0     C24828   4.143   9.721   6.689  0.3116 -0.4858  0.9874
  189MOL0     C24829   3.999   9.759   6.743  0.0222  0.2769 -0.4486
  189MOL0     C24830   3.904   9.645   6.751 -0.0407 -0.7451  0.6835
  189MOL0     C24831   3.767   9.689   6.805 -0.4353 -0.1909  1.0557
  189MOL0     C24832   3.665   9.732   6.697  0.4770 -0.1249 -0.5631
  189MOL0     N24833   3.529   9.723   6.761  0.6994 -1.0019  0.2131
  189MOL0     C24834   3.473   9.606   6.802  0.9986  0.8302  1.0368
  189MOL0     C24835   3.354   9.647   6.847  0.5666  0.3733 -0.4745
  189MOL0     C24836   3.238   9.569   6.907 -0.4557  0.5314  0.1999
  189MOL0     C24837   3.190   9.453   6.815  0.4286 -0.6198 -0.6730
  189MOL0     C24838   3.104   9.486   6.688  0.1167  0.3154  0.2262
  189MOL0     C24839   2.984   9.581   6.726 -0.3253  0.1742 -0.8923
  189MOL0     O24840   2.916   9.593   6.603  0.0448  0.2177  0.0106
  189MOL0     C24841   2.784   9.633   6.610  0.6860 -0.4358 -0.2006
  189MOL0     C24842   2.730   9.703   6.715  0.4443 -1.4510  1.1447
  189MOL0     C24843   2.595   9.750   6.703 -0.1340 -0.2874 -0.2939
  189MOL0     C24844   2.516   9.724   6.584 -0.5223  0.5516  0.0803
  189MOL0     C24845   2.383   9.767   6.567  0.7432  0.5507  0.1030
  189MOL0     O24846   2.339   9.758   6.433  0.2344  0.5471  0.1609
  189MOL0     C24847   2.206   9.748   6.396  1.2827  0.1717  0.5258
  189MOL0     C24848   2.105   9.694   6.480  0.0157  0.8670  0.7339
  189MOL0     C24849   1.980   9.692   6.426 -0.0428  0.4933  0.4059
  189MOL0     C24850   1.950   9.732   6.295  0.2737 -0.2294 -0.6641
  189MOL0     O24851   1.824   9.717   6.254 -0.3210 -0.1489 -0.4449
  189MOL0     C24852   1.791   9.605   6.164 -0.4978 -0.2222 -0.0291
  189MOL0     C24853   1.726   9.656   6.031  0.1428 -0.2114  0.5391
  189MOL0     C24854   1.820   9.738   5.934 -1.2925  0.6806 -0.3920
  189MOL0     C24855   1.932   9.646   5.882  0.1092 -0.1170  0.3564
  189MOL0     C24856   2.019   9.734   5.783 -0.4041  0.4970  0.1240
  189MOL0     C24857   2.124   9.642   5.730 -0.0914 -0.4499 -0.5512
  189MOL0     C24858   2.181   9.721   5.606  0.8310  0.2353 -1.3855
  189MOL0     C24859   2.284   9.650   5.526 -0.8700  0.2689 -1.1569
  189MOL0    Cl24860   2.422   9.617   5.637 -0.6210 -0.2325 -0.1233
  189MOL0     C24861   2.051   9.789   6.213 -0.4790  0.0287 -0.0665
  189MOL0     C24862   2.175   9.798   6.270 -0.0965  0.0540  0.7536
  189MOL0     O24863   2.310   9.803   6.658  0.3793 -0.1688 -0.4034
  189MOL0     C24864   2.570   9.642   6.491 -0.1397  0.0215  0.6536
  189MOL0     C24865   2.700   9.602   6.499 -0.2281 -0.1506 -0.0753
  189MOL0     N24866   3.337   9.774   6.814 -0.1829  0.1458  0.3667
  189MOL0     N24867   3.435   9.823   6.750  0.8197  0.3166  0.1546
  189MOL0     C24868   4.750   9.737   6.499  0.3467  0.0135 -0.0419
  189MOL0     C24869   4.882   9.711   6.533  0.2723 -0.0671 -0.3575
  189MOL0     C24870   5.229   9.563   6.804 -0.4663  0.1992 -0.5371
  189MOL0     C24871   5.320   9.534   6.703  0.3249 -1.0210 -0.4092
  189MOL0     C24872   5.453   9.490   6.733 -0.0342  0.3871 -0.2980
  189MOL0     C24873   5.503   9.504   6.866 -0.6768  0.3529 -0.6089
  189MOL0     O24874   5.637   9.488   6.896 -0.5381 -0.3442 -0.2272
  189MOL0     C24875   5.725   9.591   6.841 -0.0044  0.4816  0.2851
  189MOL0     C24876   5.717   9.724   6.905  0.8817  0.0712 -0.0110
  189MOL0     C24877   5.832   9.818   6.863  0.6190 -0.1206 -0.6928
  189MOL0     C24878   5.963   9.762   6.916  0.1339  0.9411 -0.6424
  189MOL0     C24879   6.062   9.871   6.921  0.4024  0.2904  0.3687
  189MOL0     C24880   6.148   9.952   6.932 -0.0456  1.1099  0.6230
  189MOL0     C24881   5.414   9.545   6.964 -0.0006 -0.2400 -0.3701
  189MOL0     C24882   5.279   9.568   6.930  0.0977 -0.6916 -0.4155
  189MOL0     H24883   4.834   9.417   6.681 -1.7127 -0.4048  0.0596
  189MOL0     H24884   4.612   9.452   6.623 -1.2444  0.7205  1.1618
  189MOL0     H24885   4.424   9.682   6.646  1.9957  0.5155  0.1566
  189MOL0     H24886   4.370   9.546   6.543  0.4499  0.6241  0.2316
  189MOL0     H24887   4.282   9.715   6.374 -0.3425  3.6134 -0.3331
  189MOL0     H24888   4.298   9.839   6.489  0.3243 -1.1218 -0.4459
  189MOL0     H24889   4.131   9.592   6.508 -0.7771  0.2722  2.0507
  189MOL0     H24890   4.071   9.760   6.486  0.6812  0.4828  0.1685
  189MOL0     H24891   4.180   9.629   6.737  1.8408 -0.4262 -0.0138
  189MOL0     H24892   4.212   9.801   6.717  1.2814 -1.2621  0.8745
  189MOL0     H24893   3.960   9.846   6.690  0.1396  0.5014 -0.1668
  189MOL0     H24894   4.024   9.801   6.840 -0.1537 -0.8581  0.1014
  189MOL0     H24895   3.940   9.563   6.814 -4.4071 -1.2024  2.9583
  189MOL0     H24896   3.886   9.617   6.647 -0.1315  0.4480  0.3526
  189MOL0     H24897   3.726   9.608   6.866 -3.9316 -0.1962 -1.0267
  189MOL0     H24898   3.781   9.774   6.873 -2.5684 -0.8697  2.4643
  189MOL0     H24899   3.682   9.671   6.608  5.4814 -0.1292  0.1088
  189MOL0     H24900   3.694   9.835   6.674  4.4705 -0.1997  2.9367
  189MOL0     H24901   3.500   9.502   6.791  0.3711  0.5601  1.9448
  189MOL0     H24902   3.151   9.623   6.943 -0.9273  0.6448 -1.0471
  189MOL0     H24903   3.283   9.528   6.998  2.4288  0.4304 -1.1481
  189MOL0     H24904   3.122   9.396   6.880  0.9805 -0.1217  0.3635
  189MOL0     H24905   3.270   9.382   6.791  0.0611 -1.7759  1.2048
  189MOL0     H24906   3.158   9.526   6.601  0.2699 -0.6147 -0.1184
  189MOL0     H24907   3.058   9.390   6.662  1.3606 -0.3438  0.3678
  189MOL0     H24908   3.015   9.680   6.762 -0.2663 -1.0388  2.7832
  189MOL0     H24909   2.927   9.539   6.808 -0.7110 -1.2067 -1.8326
  189MOL0     H24910   2.804   9.726   6.791  2.5304  0.0849 -1.1705
  189MOL0     H24911   2.553   9.821   6.774  2.3120  1.6437 -0.6615
  189MOL0     H24912   2.132   9.665   6.581 -0.4931  1.6055  1.0934
  189MOL0     H24913   1.902   9.638   6.478 -0.1527 -0.3675 -0.6149
  189MOL0     H24914   1.716   9.547   6.219  0.5784  0.1853  1.9652
  189MOL0     H24915   1.877   9.543   6.138 -0.3241  0.1907 -0.4549
  189MOL0     H24916   1.636   9.714   6.048 -0.9893 -1.6524 -0.3273
  189MOL0     H24917   1.691   9.569   5.976  1.8086  0.6360 -2.0478
  189MOL0     H24918   1.871   9.823   5.980  1.6160 -0.8750 -0.5118
  189MOL0     H24919   1.764   9.775   5.848 -3.5832 -2.9082 -0.6710
  189MOL0     H24920   1.993   9.606   5.964  0.4430  1.5001  0.9276
  189MOL0     H24921   1.882   9.558   5.841 -0.3530 -0.3945  1.4643
  189MOL0     H24922   2.061   9.815   5.843  0.6271  0.5466 -0.6502
  189MOL0     H24923   1.947   9.777   5.714 -4.4171 -0.8560  3.0832
  189MOL0     H24924   2.065   9.555   5.701 -2.8402  1.6148 -1.5842
  189MOL0     H24925   2.195   9.623   5.810 -0.5166  0.3943  0.0462
  189MOL0     H24926   2.096   9.743   5.540 -0.5804 -1.3784 -0.1897
  189MOL0     H24927   2.222   9.814   5.647  0.9480 -0.4587  0.1025
  189MOL0     H24928   2.309   9.720   5.446 -4.7684  1.4038 -1.5749
  189MOL0     H24929   2.247   9.555   5.488  0.8367 -1.0293  0.2289
  189MOL0     H24930   2.040   9.817   6.109  0.5289 -0.7136 -0.3878
  189MOL0     H24931   2.254   9.837   6.207 -1.0326 -2.4429 -2.2436
  189MOL0     H24932   2.515   9.612   6.402 -1.1237 -3.1048  2.1566
  189MOL0     H24933   2.728   9.527   6.426 -3.1403 -1.4279 -0.0478
  189MOL0     H24934   4.734   9.821   6.432  0.3637  1.4183  1.6300
  189MOL0     H24935   4.962   9.778   6.503 -1.0924  0.8741 -2.0804
  189MOL0     H24936   5.276   9.527   6.604  4.2608 -0.3888 -2.4049
  189MOL0     H24937   5.502   9.437   6.652 -1.8406 -3.0594  0.7065
  189MOL0     H24938   5.695   9.607   6.737 -2.7005  0.8773  1.0444
  189MOL0     H24939   5.830   9.563   6.855 -0.6202 -1.9242  0.5236
  189MOL0     H24940   5.619   9.765   6.880  1.1314  0.4754 -0.3423
  189MOL0     H24941   5.724   9.707   7.013  2.3640  2.4653  0.3311
  189MOL0     H24942   5.821   9.915   6.914  0.5588 -1.5058  2.1037
  189MOL0     H24943   5.840   9.827   6.754  3.8083 -1.4974 -0.6971
  189MOL0     H24944   5.954   9.701   7.007  3.7287  0.3597 -0.5436
  189MOL0     H24945   6.005   9.691   6.845 -0.7338  1.4617 -1.7084
  189MOL0     H24946   6.229  10.022   6.935 -0.0969  1.2491 -0.5717
  189MOL0     H24947   5.447   9.551   7.067 -1.3908 -0.1661  0.0998
  189MOL0     H24948   5.203   9.590   7.004  0.9477 -2.0326  0.9224
  190MOL0     O24949   3.266   6.039   6.863 -0.3458  0.0580  0.0189
  190MOL0     C24950   3.358   6.109   6.911  0.5813 -0.4836  0.6366
  190MOL0     O24951   3.338   6.222   6.992 -0.4112  0.0954 -0.2830
  190MOL0     C24952   3.212   6.260   7.034  0.2957  0.3439 -0.7262
  190MOL0     C24953   3.098   6.176   7.055 -0.1275 -0.7342 -0.0034
  190MOL0     C24954   2.976   6.242   7.092  0.4618 -0.5049  0.6174
  190MOL0     C24955   2.970   6.382   7.112 -0.1350 -0.5673  0.3983
  190MOL0     O24956   2.862   6.433   7.173  0.1823  0.0410 -0.0265
  190MOL0     C24957   2.788   6.532   7.106  1.0020 -0.5838 -0.7674
  190MOL0     C24958   2.682   6.601   7.193 -0.3012 -0.0456 -0.0809
  190MOL0     C24959   2.609   6.516   7.297  0.2639  0.7318 -0.2312
  190MOL0     C24960   2.498   6.596   7.373  0.1605  0.0428  0.2059
  190MOL0     C24961   2.381   6.634   7.276 -0.1615  0.0907  1.0218
  190MOL0     C24962   2.248   6.676   7.341  0.1526  0.5022  0.3454
  190MOL0     C24963   2.185   6.572   7.433 -0.2319 -0.0701  1.0638
  190MOL0     C24964   2.030   6.577   7.429  0.9289  0.0391 -0.4501
  190MOL0     N24965   1.990   6.709   7.480  0.4542 -0.4564 -0.1357
  190MOL0     C24966   1.930   6.743   7.602 -0.1058  0.3595 -0.2351
  190MOL0     C24967   1.889   6.866   7.592 -0.4001  0.3291  0.2160
  190MOL0     C24968   1.829   6.951   7.698  0.5536  0.2100 -0.4652
  190MOL0     C24969   1.687   6.910   7.735  0.0081 -0.4419  0.2295
  190MOL0     C24970   1.583   6.885   7.627  0.0440  0.8546 -0.6980
  190MOL0     C24971   1.566   6.993   7.530  0.1602  0.6465 -0.3787
  190MOL0     O24972   1.474   6.956   7.426  0.0913 -0.1882 -0.0308
  190MOL0     C24973   1.499   6.853   7.336  0.1492  0.5793  0.1381
  190MOL0     C24974   1.389   6.811   7.266  0.4297  0.5628 -0.1745
  190MOL0     C24975   1.402   6.699   7.177  0.4949  0.0122 -0.0014
  190MOL0     C24976   1.526   6.640   7.159  0.3067 -0.3030 -0.5114
  190MOL0     C24977   1.536   6.531   7.070  0.6418  0.4169 -0.3903
  190MOL0     O24978   1.640   6.533   6.977 -1.5217  0.3038 -0.0686
  190MOL0     C24979   1.629   6.427   6.885 -0.2129 -0.2597 -0.9189
  190MOL0     C24980   1.665   6.298   6.925 -0.8406  0.0444 -0.4557
  190MOL0     C24981   1.637   6.202   6.831  0.3545  0.2368 -0.1349
  190MOL0     C24982   1.573   6.215   6.710 -1.0703 -0.7997 -0.1606
  190MOL0     O24983   1.544   6.114   6.621 -0.2563 -0.2515  0.4170
  190MOL0     C24984   1.416   6.108   6.565 -0.1254 -0.3511 -0.4721
  190MOL0     C24985   1.313   6.081   6.680 -0.1458  0.6554  0.5321
  190MOL0     C24986   1.184   6.021   6.621  0.0952 -0.0262 -0.5568
  190MOL0     C24987   1.076   6.009   6.735  0.0285  1.4100 -0.4854
  190MOL0     C24988   0.944   5.955   6.681 -0.3275  0.3229 -0.3011
  190MOL0     C24989   0.963   5.811   6.645  0.4038  0.5123  0.0690
  190MOL0     C24990   0.983   5.719   6.768 -0.3110 -0.9745  0.5563
  190MOL0     C24991   0.941   5.573   6.734  0.6685 -0.0264  0.8127
  190MOL0    Cl24992   0.962   5.469   6.879 -0.1096 -0.0484  0.0001
  190MOL0     C24993   1.558   6.346   6.666  0.4273 -0.3204  0.5849
  190MOL0     C24994   1.583   6.451   6.760 -0.4798  0.0423  0.2332
  190MOL0     O24995   1.431   6.460   7.067 -0.4156  0.0630 -0.3054
  190MOL0     C24996   1.627   6.692   7.235 -0.2165  0.2607 -0.0401
  190MOL0     C24997   1.620   6.806   7.315 -0.3672  0.8489  0.4674
  190MOL0     N24998   1.922   6.919   7.468 -0.3340  0.3457 -0.6679
  190MOL0     N24999   1.982   6.824   7.406 -0.0577 -0.9857 -1.1056
  190MOL0     C25000   3.090   6.458   7.087  0.4394  0.4615 -0.8030
  190MOL0     C25001   3.203   6.397   7.046 -0.3284  0.0384 -1.1961
  190MOL0     C25002   3.498   6.068   6.880  0.1515  0.7421 -0.2891
  190MOL0     C25003   3.524   5.957   6.803  1.0894 -0.2018 -0.1357
  190MOL0     C25004   3.650   5.925   6.762 -0.3421  0.5165 -0.4384
  190MOL0     C25005   3.757   6.001   6.810  0.3707  0.7762 -0.4109
  190MOL0     O25006   3.886   5.969   6.771 -0.0892 -0.1338  0.9108
  190MOL0     C25007   4.000   6.024   6.841 -0.2894  0.0302  0.2450
  190MOL0     C25008   4.127   5.959   6.799 -1.0326 -0.5362 -0.0698
  190MOL0     C25009   4.243   6.021   6.887  0.4937  0.0099  0.6116
  190MOL0     C25010   4.357   5.920   6.872  0.3099  0.7600 -0.3477
  190MOL0     C25011   4.402   5.911   6.734 -0.0331  0.0652  0.0958
  190MOL0     C25012   4.447   5.892   6.618 -0.0207  0.1578  0.5254
  190MOL0     C25013   3.734   6.108   6.892  0.9278 -0.0838 -0.1884
  190MOL0     C25014   3.606   6.141   6.927  0.7584  0.6028 -0.1069
  190MOL0     H25015   3.110   6.070   7.039 -0.0431 -0.4878 -1.7355
  190MOL0     H25016   2.888   6.183   7.115  0.7179 -0.9186  0.5421
  190MOL0     H25017   2.731   6.497   7.020 -1.2465 -1.1040  0.8710
  190MOL0     H25018   2.866   6.605   7.079  0.5461 -0.1903 -1.0261
  190MOL0     H25019   2.604   6.647   7.132  0.8281  0.4847 -1.1773
  190MOL0     H25020   2.728   6.684   7.248 -1.0213  0.2699  0.0558
  190MOL0     H25021   2.689   6.487   7.365  1.6041  1.6043 -1.3843
  190MOL0     H25022   2.554   6.436   7.248  0.8525  0.5722 -0.6376
  190MOL0     H25023   2.454   6.534   7.453  1.3455 -2.8735 -1.2376
  190MOL0     H25024   2.533   6.684   7.427  1.1004 -2.3504  3.9555
  190MOL0     H25025   2.359   6.554   7.206  0.2898 -0.1221  1.1216
  190MOL0     H25026   2.430   6.718   7.225  1.0321 -1.5148 -0.5765
  190MOL0     H25027   2.174   6.701   7.263 -1.1754  1.1410  1.7623
  190MOL0     H25028   2.265   6.770   7.394  3.9938  0.5608 -0.7548
  190MOL0     H25029   2.219   6.470   7.414  3.4280  0.7220  2.4855
  190MOL0     H25030   2.217   6.590   7.536  0.7715 -2.3436  1.2084
  190MOL0     H25031   1.990   6.503   7.499  1.7012  2.4159  2.7954
  190MOL0     H25032   1.983   6.559   7.332  0.1096 -0.8354  0.0947
  190MOL0     H25033   1.919   6.690   7.696  3.5337 -1.4711 -0.6465
  190MOL0     H25034   1.831   7.059   7.682 -1.0027  0.6552  1.8491
  190MOL0     H25035   1.881   6.943   7.793 -4.4762  1.2271  2.7624
  190MOL0     H25036   1.646   6.989   7.798  0.2800 -1.2731  1.4835
  190MOL0     H25037   1.701   6.817   7.792  1.4103  0.0258  0.6754
  190MOL0     H25038   1.600   6.789   7.578  0.1241 -0.2839  1.4501
  190MOL0     H25039   1.487   6.879   7.680 -0.0104 -2.7135 -0.9921
  190MOL0     H25040   1.662   7.025   7.488  0.1488 -0.6839 -1.4884
  190MOL0     H25041   1.520   7.073   7.588 -0.6151 -0.4725  0.6065
  190MOL0     H25042   1.292   6.858   7.274  0.1528 -0.1616  0.7437
  190MOL0     H25043   1.311   6.661   7.132  1.5166 -2.7833  0.1284
  190MOL0     H25044   1.708   6.271   7.021  3.4246 -0.2659 -2.2251
  190MOL0     H25045   1.651   6.099   6.863 -0.7523 -1.0891 -3.5196
  190MOL0     H25046   1.412   6.038   6.480 -0.2375  1.7130 -2.2497
  190MOL0     H25047   1.391   6.206   6.524  0.0559  0.8570  2.1163
  190MOL0     H25048   1.293   6.173   6.735 -3.5224 -0.1507  0.8624
  190MOL0     H25049   1.354   6.015   6.757  0.2057  0.3973  0.1303
  190MOL0     H25050   1.199   5.924   6.574 -0.5432  0.4428 -1.8053
  190MOL0     H25051   1.145   6.087   6.542 -3.7423  0.4848  1.5567
  190MOL0     H25052   1.107   5.953   6.824 -2.0368  1.1160  0.0917
  190MOL0     H25053   1.061   6.108   6.778  1.4116  1.4759 -0.1006
  190MOL0     H25054   0.930   6.009   6.587 -1.8136 -0.0541 -0.3206
  190MOL0     H25055   0.862   5.975   6.750 -0.9247 -0.7838 -0.6758
  190MOL0     H25056   1.050   5.801   6.579  0.2747  0.8690 -0.1587
  190MOL0     H25057   0.868   5.792   6.594  0.5296  1.9676 -0.7799
  190MOL0     H25058   1.087   5.733   6.800 -0.3739  0.7666  0.0972
  190MOL0     H25059   0.922   5.753   6.852 -2.7468 -0.3486 -1.3598
  190MOL0     H25060   1.000   5.540   6.648 -1.2903 -2.6298  0.3281
  190MOL0     H25061   0.837   5.561   6.700  1.0964 -2.5201  0.2133
  190MOL0     H25062   1.535   6.381   6.566 -0.8105 -0.1443  0.9214
  190MOL0     H25063   1.582   6.555   6.731 -0.5418 -0.4106 -1.4472
  190MOL0     H25064   1.722   6.641   7.219  1.7168  3.0667  1.4176
  190MOL0     H25065   1.710   6.838   7.366  1.1261 -1.6452 -0.3836
  190MOL0     H25066   3.083   6.566   7.095  0.5592  0.7689 -3.5878
  190MOL0     H25067   3.300   6.446   7.048  1.3633 -3.0770 -0.3812
  190MOL0     H25068   3.441   5.905   6.757  0.8093 -0.3256  0.4868
  190MOL0     H25069   3.676   5.846   6.693  3.1486  2.0853 -1.1787
  190MOL0     H25070   3.995   6.014   6.949 -0.5362  1.0539  0.3438
  190MOL0     H25071   4.006   6.131   6.816 -1.8410 -0.4598 -2.6966
  190MOL0     H25072   4.120   5.855   6.832 -1.6053  0.1314  2.0637
  190MOL0     H25073   4.137   5.949   6.691 -1.5016  2.1430 -0.4264
  190MOL0     H25074   4.215   6.041   6.990  0.9331  1.3783  0.4821
  190MOL0     H25075   4.260   6.124   6.857  3.1758 -0.4013  0.5228
  190MOL0     H25076   4.441   5.954   6.934 -0.6241  0.0455  1.3821
  190MOL0     H25077   4.339   5.818   6.905  1.4547 -1.0732 -4.7098
  190MOL0     H25078   4.484   5.869   6.521  1.2386 -1.3878  1.3180
  190MOL0     H25079   3.816   6.171   6.927  1.5126 -2.2393  2.6625
  190MOL0     H25080   3.601   6.232   6.986  4.7398  1.0648 -0.2280
  191MOL0     O25081   9.701   2.075   4.264  0.0019 -0.8623  0.1133
  191MOL0     C25082   9.724   1.984   4.179 -0.4822 -0.2023 -1.2184
  191MOL0     O25083   9.624   1.906   4.122  0.2477  0.6121 -0.1745
  191MOL0     C25084   9.497   1.936   4.162  0.1679  0.3388 -0.0851
  191MOL0     C25085   9.399   1.922   4.064 -0.8793 -0.3584 -0.2613
  191MOL0     C25086   9.266   1.941   4.088  0.3420  1.1091  0.2151
  191MOL0     C25087   9.219   1.990   4.212  0.2567  0.4556 -0.4533
  191MOL0     O25088   9.086   2.003   4.216 -0.3822 -0.5094  0.6840
  191MOL0     C25089   9.017   2.020   4.343  0.1148  1.1076 -0.4507
  191MOL0     C25090   8.879   2.070   4.313 -0.1454 -0.3583 -0.3673
  191MOL0     C25091   8.817   2.127   4.439  0.6493  0.1801  0.2755
  191MOL0     C25092   8.678   2.207   4.413 -0.2506  0.3128  0.1048
  191MOL0     C25093   8.568   2.119   4.349  0.3114  0.1696 -0.0544
  191MOL0     C25094   8.422   2.182   4.357 -0.8158  0.5579 -0.0136
  191MOL0     C25095   8.317   2.083   4.295  0.9686  0.0417 -0.0547
  191MOL0     C25096   8.178   2.141   4.294 -0.3311 -0.6945  0.6766
  191MOL0     N25097   8.069   2.042   4.311  0.5421  0.1648  0.3701
  191MOL0     C25098   8.055   1.928   4.243  0.1473 -0.1371 -0.5523
  191MOL0     C25099   7.927   1.890   4.277 -0.1015  0.2547 -0.2412
  191MOL0     C25100   7.873   1.753   4.256  0.9459 -1.4072  0.4659
  191MOL0     C25101   7.817   1.736   4.110  0.3721  0.2472  0.2143
  191MOL0     C25102   7.800   1.586   4.070  0.7207 -0.6388  1.0658
  191MOL0     C25103   7.704   1.505   4.170 -0.0342 -0.9252  0.8986
  191MOL0     O25104   7.682   1.373   4.120 -0.4876  0.3570  0.2883
  191MOL0     C25105   7.569   1.295   4.140 -0.0492 -0.0426  0.1805
  191MOL0     C25106   7.447   1.353   4.147  1.3195  0.1678  0.0635
  191MOL0     C25107   7.335   1.280   4.192  0.3776  0.5079 -0.0527
  191MOL0     C25108   7.350   1.148   4.227 -0.3771  0.0160  0.5865
  191MOL0     C25109   7.224   1.081   4.280 -0.2769 -0.1583  0.4691
  191MOL0     O25110   7.105   1.126   4.229  0.1159 -0.3449  0.6522
  191MOL0     C25111   6.984   1.126   4.284  0.2250 -0.4771  0.4246
  191MOL0     C25112   6.894   1.231   4.255  0.0869  0.0096  0.8658
  191MOL0     C25113   6.762   1.223   4.305 -0.2701 -0.0516  0.6393
  191MOL0     C25114   6.721   1.127   4.400 -0.4441 -0.4643 -0.1675
  191MOL0     O25115   6.592   1.127   4.439  0.7597 -0.4072  0.6878
  191MOL0     C25116   6.552   1.071   4.560 -0.0675 -0.1896 -0.1986
  191MOL0     C25117   6.410   1.079   4.570  0.7999  0.2539  0.6824
  191MOL0     C25118   6.339   0.978   4.459 -0.6782 -0.2223  0.3569
  191MOL0     C25119   6.195   0.997   4.475  0.0043  0.4771 -0.4017
  191MOL0     C25120   6.111   0.875   4.421  0.4019  0.7920  0.3745
  191MOL0     C25121   5.968   0.920   4.430  0.0223  0.2859 -0.6395
  191MOL0     C25122   5.885   0.823   4.351 -0.7404  0.4044 -0.5325
  191MOL0     C25123   5.738   0.866   4.349 -0.4642  0.5693  0.4995
  191MOL0    Cl25124   5.674   0.872   4.523  0.3766 -0.0431 -0.1299
  191MOL0     C25125   6.820   1.029   4.440 -0.1672 -0.5790 -0.2961
  191MOL0     C25126   6.940   1.024   4.367 -0.5949 -0.4337 -0.2429
  191MOL0     O25127   7.236   0.985   4.353 -0.1350  0.5846 -0.1869
  191MOL0     C25128   7.477   1.090   4.220 -0.7803 -0.7710  0.8576
  191MOL0     C25129   7.585   1.162   4.168  0.1017 -0.0236  1.1860
  191MOL0     N25130   7.877   1.978   4.372  0.5011  0.0285  0.5760
  191MOL0     N25131   7.954   2.072   4.383  0.0150  0.0479 -0.2727
  191MOL0     C25132   9.313   1.991   4.315  0.5319  0.4681  0.5109
  191MOL0     C25133   9.445   1.961   4.288 -0.0010  0.1187  0.2799
  191MOL0     C25134   9.860   1.961   4.132 -0.4598 -0.1848  0.5407
  191MOL0     C25135   9.893   1.835   4.058  0.0326 -0.0054 -0.0393
  191MOL0     C25136  10.028   1.816   4.010  0.1398 -0.6537  0.4514
  191MOL0     C25137  10.135   1.893   4.040  1.0392  0.6164 -0.1621
  191MOL0     O25138  10.265   1.883   3.999  0.7176 -0.2665  0.0699
  191MOL0     C25139  10.308   1.760   3.931  0.1061 -0.0358 -0.0035
  191MOL0     C25140  10.464   1.765   3.901  1.2773  0.0650 -0.1490
  191MOL0     C25141  10.547   1.722   4.030 -0.1613 -0.9684  1.0643
  191MOL0     C25142  10.692   1.770   4.010  0.4647 -0.8491 -0.0552
  191MOL0     C25143  10.753   1.724   3.881 -0.0321 -0.5424  0.6778
  191MOL0     C25144  10.802   1.675   3.775  0.3845  0.0158 -0.2996
  191MOL0     C25145  10.106   2.002   4.110 -0.8150  0.4077  0.7783
  191MOL0     C25146   9.979   2.042   4.158  0.9019  0.0550  1.0488
  191MOL0     H25147   9.432   1.879   3.970 -1.3232 -1.6046  0.1351
  191MOL0     H25148   9.196   1.924   4.007  1.3701 -0.0352 -0.4675
  191MOL0     H25149   9.074   2.083   4.412  3.2427  0.0773 -1.8708
  191MOL0     H25150   9.013   1.919   4.385  0.3231  1.6869  1.0341
  191MOL0     H25151   8.818   2.001   4.253 -0.2644  0.2616 -0.9689
  191MOL0     H25152   8.900   2.154   4.247  2.9920  0.4398  1.4606
  191MOL0     H25153   8.887   2.198   4.484  0.1918 -0.3687  1.9385
  191MOL0     H25154   8.805   2.060   4.524 -0.4755  1.5376  1.2413
  191MOL0     H25155   8.645   2.244   4.510 -2.0468 -0.0901 -0.3127
  191MOL0     H25156   8.684   2.304   4.362 -0.7187  1.4337  2.0881
  191MOL0     H25157   8.564   2.020   4.395  1.7258  0.2318  0.2361
  191MOL0     H25158   8.586   2.124   4.241  0.2554  0.5499 -0.0486
  191MOL0     H25159   8.435   2.278   4.307 -4.3413  1.3168  0.2660
  191MOL0     H25160   8.401   2.192   4.464 -1.5013  2.1406 -0.2620
  191MOL0     H25161   8.341   2.060   4.191  2.0958  0.8156  0.0181
  191MOL0     H25162   8.321   1.989   4.351  1.9131 -0.0037 -0.1829
  191MOL0     H25163   8.164   2.207   4.208  1.5401 -1.1535 -0.0361
  191MOL0     H25164   8.180   2.207   4.381  3.8918  2.1480 -1.2665
  191MOL0     H25165   8.132   1.880   4.183 -0.6033 -1.5424 -0.4332
  191MOL0     H25166   7.795   1.730   4.329  2.1184 -0.7671  1.9815
  191MOL0     H25167   7.951   1.678   4.275  3.2712  1.1001  1.5371
  191MOL0     H25168   7.891   1.773   4.038 -0.4073 -0.2825 -0.8783
  191MOL0     H25169   7.721   1.787   4.100 -0.9037 -1.7567  1.5022
  191MOL0     H25170   7.747   1.603   3.976  1.5331  1.4821  0.9335
  191MOL0     H25171   7.895   1.532   4.063  0.1794 -1.3379 -3.4878
  191MOL0     H25172   7.610   1.561   4.180  1.1204  1.9324 -2.2108
  191MOL0     H25173   7.756   1.504   4.266 -1.2384  2.3301  1.7197
  191MOL0     H25174   7.435   1.460   4.134 -3.8031 -0.2542 -0.7073
  191MOL0     H25175   7.239   1.328   4.211 -0.9427 -2.2499  0.8353
  191MOL0     H25176   6.917   1.300   4.174 -2.6208 -1.3068 -1.1953
  191MOL0     H25177   6.693   1.300   4.272  1.2849  1.3921  0.6194
  191MOL0     H25178   6.602   1.123   4.642 -0.2001 -1.2397  0.5744
  191MOL0     H25179   6.581   0.968   4.582  2.5395  0.7778  1.4205
  191MOL0     H25180   6.385   1.183   4.551 -0.5345  0.0768  1.3705
  191MOL0     H25181   6.378   1.066   4.674 -0.4268  0.8066  0.3860
  191MOL0     H25182   6.354   0.874   4.490 -1.1037  0.2292  2.1723
  191MOL0     H25183   6.368   0.991   4.354 -2.2881 -2.4481 -0.4485
  191MOL0     H25184   6.177   1.019   4.580  3.9942  0.7337  0.3849
  191MOL0     H25185   6.171   1.091   4.426 -0.1629  1.1152  0.8779
  191MOL0     H25186   6.123   0.791   4.490  0.6448 -0.7766 -1.5067
  191MOL0     H25187   6.146   0.832   4.327  0.6360 -0.0818  0.8424
  191MOL0     H25188   5.952   1.021   4.393 -0.3676 -0.2801 -2.0792
  191MOL0     H25189   5.936   0.909   4.535 -1.5881 -0.0629 -1.1363
  191MOL0     H25190   5.919   0.814   4.247 -1.0922 -2.1107 -0.4950
  191MOL0     H25191   5.889   0.723   4.396 -3.2779  0.1331 -0.7780
  191MOL0     H25192   5.678   0.788   4.302 -2.0218  2.3124 -0.5625
  191MOL0     H25193   5.721   0.960   4.296  2.3330  0.8651 -0.0282
  191MOL0     H25194   6.790   0.960   4.518  4.1798  2.1557  4.3841
  191MOL0     H25195   6.994   0.931   4.384 -2.5650 -1.3701  1.3275
  191MOL0     H25196   7.481   0.984   4.242  0.6708 -0.7824  0.6024
  191MOL0     H25197   7.685   1.119   4.164 -1.0642 -2.8906 -2.3822
  191MOL0     H25198   9.276   2.015   4.414 -1.4238  0.4340 -0.1618
  191MOL0     H25199   9.520   1.963   4.367 -0.6680 -1.2613  0.9856
  191MOL0     H25200   9.815   1.761   4.044 -2.4706  2.2741  1.0359
  191MOL0     H25201  10.043   1.734   3.941  1.6072  0.7062 -0.9062
  191MOL0     H25202  10.252   1.742   3.839 -0.1898 -1.1940  0.3852
  191MOL0     H25203  10.287   1.678   3.999  2.7854 -1.3722 -0.6528
  191MOL0     H25204  10.474   1.701   3.813 -3.2536  2.7240 -2.9809
  191MOL0     H25205  10.492   1.858   3.850  3.5856 -1.3931 -1.7260
  191MOL0     H25206  10.557   1.614   4.041  1.1040 -0.7194  2.6293
  191MOL0     H25207  10.507   1.756   4.126  2.4855 -0.1415  1.9558
  191MOL0     H25208  10.702   1.879   4.020  0.5307 -1.0083  1.9289
  191MOL0     H25209  10.756   1.740   4.093  1.4326  1.0536 -0.0644
  191MOL0     H25210  10.841   1.627   3.687 -1.4061  0.8898 -1.6359
  191MOL0     H25211  10.192   2.065   4.131  0.2399  0.2641 -2.5597
  191MOL0     H25212   9.972   2.138   4.208  2.5678  0.2708  0.9370
  192MOL0     O25213   7.223  11.007   3.467  0.4397  0.1434  0.2820
  192MOL0     C25214   7.233  11.104   3.544  0.0273  0.1726  0.3471
  192MOL0     O25215   7.146  11.136   3.648  0.0558  1.0124  0.0143
  192MOL0     C25216   7.020  11.080   3.682 -1.0731  0.3308  0.2789
  192MOL0     C25217   6.939  10.997   3.599 -0.4522  1.0374 -0.4595
  192MOL0     C25218   6.820  10.944   3.645  0.5422  0.3383  0.1770
  192MOL0     C25219   6.762  10.992   3.759 -0.4793  0.6882 -0.2800
  192MOL0     O25220   6.632  10.957   3.793  0.1926 -0.5303 -0.3254
  192MOL0     C25221   6.542  11.061   3.788  0.6572  0.3031  0.7341
  192MOL0     C25222   6.410  11.027   3.839  0.2705  0.2303  0.0969
  192MOL0     C25223   6.299  11.143   3.835 -0.3988  0.2342 -0.2719
  192MOL0     C25224   6.162  11.110   3.887 -0.4819 -0.2217 -0.2089
  192MOL0     C25225   6.166  11.094   4.037 -0.0904  0.7027  0.1551
  192MOL0     C25226   6.048  11.031   4.090  0.2627  0.4156 -0.2881
  192MOL0     C25227   6.048  10.978   4.235  0.1813  0.3313  0.2377
  192MOL0     C25228   5.927  10.899   4.272 -0.0990  0.0642 -0.2201
  192MOL0     N25229   5.919  10.876   4.420 -0.2613  0.0949 -0.8800
  192MOL0     C25230   5.861  10.949   4.524  0.0570  0.1038  0.7052
  192MOL0     C25231   5.906  10.886   4.639  0.1216 -0.0057  0.3010
  192MOL0     C25232   5.879  10.955   4.773 -0.2239 -0.3133 -0.9690
  192MOL0     C25233   5.742  10.915   4.821  0.3818  0.7953  0.5296
  192MOL0     C25234   5.719  10.965   4.967  0.3291  0.5222 -0.1216
  192MOL0     C25235   5.573  10.954   5.016 -0.7175  0.2408 -0.2944
  192MOL0     O25236   5.534  10.820   5.043 -0.1323  0.6600  0.6443
  192MOL0     C25237   5.427  10.791   5.119 -0.7705  0.5314  0.0067
  192MOL0     C25238   5.348  10.879   5.195 -0.3924  0.0468 -0.6215
  192MOL0     C25239   5.229  10.831   5.244  0.4660  0.5191 -1.2670
  192MOL0     C25240   5.176  10.706   5.207 -0.0304  0.2808  0.1342
  192MOL0     C25241   5.039  10.660   5.247 -0.4699  0.1305  0.3857
  192MOL0     O25242   4.990  10.731   5.351  0.5600 -0.0571  0.5303
  192MOL0     C25243   4.858  10.712   5.387  0.3541  0.5000  0.0818
  192MOL0     C25244   4.839  10.719   5.530  0.2029 -0.6201  0.8910
  192MOL0     C25245   4.714  10.692   5.593 -0.3542 -0.5139 -0.1790
  192MOL0     C25246   4.597  10.675   5.510 -0.4005  0.2343 -0.0119
  192MOL0     O25247   4.470  10.668   5.556  0.1411  0.5948  0.2925
  192MOL0     C25248   4.445  10.762   5.662 -0.1883 -0.1065  0.0033
  192MOL0     C25249   4.292  10.786   5.666 -0.5953 -0.3121 -0.2964
  192MOL0     C25250   4.247  10.875   5.787 -0.2332 -0.2684 -0.2992
  192MOL0     C25251   4.095  10.863   5.789 -0.2567  0.8130 -0.1562
  192MOL0     C25252   4.042  10.953   5.902 -0.2593 -0.6066 -0.4136
  192MOL0     C25253   3.894  10.963   5.922  0.4833 -0.2170  0.6669
  192MOL0     C25254   3.848  11.053   6.042  0.5183 -0.1150  0.2348
  192MOL0     C25255   3.697  11.039   6.042 -0.2986  0.4252  0.5991
  192MOL0    Cl25256   3.611  11.073   5.893 -0.0091 -0.3252  0.3354
  192MOL0     C25257   4.615  10.661   5.372  0.4088  0.2101  0.0708
  192MOL0     C25258   4.739  10.693   5.308  0.2953  0.3091  1.3802
  192MOL0     O25259   4.993  10.553   5.201 -0.6158 -0.7645  0.1021
  192MOL0     C25260   5.258  10.621   5.140  0.2129 -0.7208  0.7451
  192MOL0     C25261   5.386  10.664   5.104 -0.8768 -0.4510  0.1613
  192MOL0     N25262   5.980  10.780   4.603  0.4135  0.1424 -0.4610
  192MOL0     N25263   5.984  10.772   4.477  0.9249 -0.0236  0.2929
  192MOL0     C25264   6.843  11.070   3.843 -1.2241  0.2892  0.2742
  192MOL0     C25265   6.971  11.107   3.804  0.6289  0.2379 -1.1911
  192MOL0     C25266   7.348  11.195   3.525 -0.5285  0.2509  0.2132
  192MOL0     C25267   7.451  11.162   3.435 -0.6931  1.1991  0.7699
  192MOL0     C25268   7.560  11.245   3.403  0.1277  0.9017 -0.6798
  192MOL0     C25269   7.581  11.363   3.478  1.5151  0.0092 -0.4858
  192MOL0     O25270   7.683  11.446   3.449 -0.2368 -0.2178  0.5089
  192MOL0     C25271   7.812  11.399   3.394 -0.3463 -0.1592 -1.0019
  192MOL0     C25272   7.819  11.418   3.243 -0.3233  0.4146 -0.7590
  192MOL0     C25273   7.956  11.370   3.187 -0.3364 -0.2296 -0.2580
  192MOL0     C25274   8.061  11.476   3.175 -0.3391 -0.0164 -0.1157
  192MOL0     C25275   8.200  11.420   3.151  0.1367  1.0208 -0.4838
  192MOL0     C25276   8.307  11.351   3.148 -0.1202 -0.4565 -0.1220
  192MOL0     C25277   7.478  11.404   3.561  0.2331 -1.0785 -0.7396
  192MOL0     C25278   7.362  11.323   3.582  0.2576 -0.3910  1.0172
  192MOL0     H25279   6.977  10.965   3.502 -1.5487 -2.2706  0.0729
  192MOL0     H25280   6.764  10.873   3.585  1.3374  0.5528 -0.8341
  192MOL0     H25281   6.541  11.083   3.681  0.9665  0.5126  0.7719
  192MOL0     H25282   6.563  11.160   3.829 -4.5550  2.4438 -0.9044
  192MOL0     H25283   6.441  11.004   3.942  0.9444  0.5820 -0.0238
  192MOL0     H25284   6.376  10.940   3.782 -0.0193  0.6861 -0.4319
  192MOL0     H25285   6.287  11.146   3.726  1.7167 -3.7225 -0.8121
  192MOL0     H25286   6.335  11.237   3.877 -2.8682  1.5853 -0.9896
  192MOL0     H25287   6.091  11.184   3.849  0.4662  0.4940 -0.6311
  192MOL0     H25288   6.145  11.007   3.852 -1.7101 -0.1667  0.2073
  192MOL0     H25289   6.167  11.198   4.070  2.9564  0.1629  2.1609
  192MOL0     H25290   6.251  11.030   4.065 -1.1361 -3.1294 -4.0947
  192MOL0     H25291   6.030  10.942   4.030  1.8744  0.4864 -0.9509
  192MOL0     H25292   5.968  11.103   4.069  1.9099  2.4180 -0.0503
  192MOL0     H25293   6.134  10.911   4.241  0.2617 -0.0347 -3.0558
  192MOL0     H25294   6.058  11.061   4.305 -1.4269 -0.1091  1.0380
  192MOL0     H25295   5.938  10.811   4.208  0.4416  1.4147 -2.0513
  192MOL0     H25296   5.841  10.960   4.243 -1.2527 -0.8872  1.0523
  192MOL0     H25297   5.796  11.036   4.517  1.0348  0.9130  1.2825
  192MOL0     H25298   5.882  11.064   4.771  1.0069 -0.3070 -0.1257
  192MOL0     H25299   5.957  10.925   4.844  0.4603  1.9238 -0.7204
  192MOL0     H25300   5.734  10.806   4.813  1.5147  0.6638  0.9902
  192MOL0     H25301   5.654  10.960   4.774  0.2744 -0.0126 -0.0728
  192MOL0     H25302   5.777  10.911   5.042  1.2080  0.5283 -0.7822
  192MOL0     H25303   5.745  11.072   4.969 -0.9771  0.9688 -2.6959
  192MOL0     H25304   5.514  10.993   4.933 -0.9209  0.2791 -0.1314
  192MOL0     H25305   5.551  11.010   5.108  0.9290 -1.8849  1.5388
  192MOL0     H25306   5.382  10.980   5.219  0.4956 -0.8239  2.0984
  192MOL0     H25307   5.166  10.894   5.305 -2.0531 -0.9352 -2.2153
  192MOL0     H25308   4.928  10.747   5.585  0.2016  0.6872  0.2737
  192MOL0     H25309   4.699  10.705   5.700 -0.8844  0.7868 -0.4012
  192MOL0     H25310   4.495  10.857   5.645  0.4632 -0.3367  0.5646
  192MOL0     H25311   4.480  10.716   5.756 -2.0231 -0.8125  0.3833
  192MOL0     H25312   4.242  10.689   5.677  0.5048 -0.7936  0.6266
  192MOL0     H25313   4.260  10.820   5.567  0.6545 -2.3498 -1.4486
  192MOL0     H25314   4.287  10.977   5.784  0.7994 -0.6604 -0.3880
  192MOL0     H25315   4.285  10.826   5.877  4.8736 -0.0909 -2.0039
  192MOL0     H25316   4.050  10.878   5.690  1.5918  0.6577 -1.0517
  192MOL0     H25317   4.073  10.760   5.819 -0.8031  1.3156  1.2457
  192MOL0     H25318   4.075  11.057   5.896 -1.6049 -0.1244  0.2031
  192MOL0     H25319   4.075  10.918   6.001  0.9697  0.8121 -0.2926
  192MOL0     H25320   3.856  10.862   5.943  0.1055 -0.4207 -0.8795
  192MOL0     H25321   3.862  10.998   5.823  2.7615 -0.6892 -0.3009
  192MOL0     H25322   3.896  11.026   6.137  3.0032 -0.8741 -1.1487
  192MOL0     H25323   3.869  11.156   6.013  0.6613 -0.1385  0.2591
  192MOL0     H25324   3.667  11.119   6.110 -2.7880  0.8266 -0.8340
  192MOL0     H25325   3.680  10.936   6.074 -0.7095 -0.3382 -1.8466
  192MOL0     H25326   4.522  10.654   5.316  0.0148  2.3392  0.3691
  192MOL0     H25327   4.753  10.694   5.200  1.1513 -0.8121  1.4543
  192MOL0     H25328   5.227  10.517   5.129 -2.0949  0.0029 -0.3635
  192MOL0     H25329   5.448  10.597   5.045  0.6805 -0.6489  1.9349
  192MOL0     H25330   6.800  11.090   3.940 -1.9706  3.5295 -0.6204
  192MOL0     H25331   7.036  11.168   3.867  0.5517 -0.3743 -0.5149
  192MOL0     H25332   7.436  11.076   3.371  0.3224  0.3393  1.6608
  192MOL0     H25333   7.635  11.202   3.338  1.3739 -0.6285  1.6273
  192MOL0     H25334   7.829  11.294   3.418  2.3337  0.7306  1.5162
  192MOL0     H25335   7.885  11.465   3.441 -0.9368 -0.0836 -0.1642
  192MOL0     H25336   7.740  11.368   3.187  0.9166 -1.4212 -0.9872
  192MOL0     H25337   7.819  11.523   3.213 -1.8374  0.7711  0.4183
  192MOL0     H25338   7.937  11.325   3.089  1.4759  1.3183 -1.4058
  192MOL0     H25339   7.982  11.293   3.259 -3.6448  1.0283  2.5218
  192MOL0     H25340   8.038  11.549   3.097 -0.3596  0.8663  0.6995
  192MOL0     H25341   8.064  11.538   3.266  0.4395 -1.1939  0.6937
  192MOL0     H25342   8.395  11.292   3.135 -0.0184 -0.4326  0.4303
  192MOL0     H25343   7.467  11.502   3.607  2.2305 -1.7759  1.4118
  192MOL0     H25344   7.280  11.356   3.644  0.5054 -0.6355  1.4764
  193MOL0     O25345   5.537   3.574   9.267 -0.3818  0.1336 -0.4521
  193MOL0     C25346   5.629   3.615   9.346  0.8906  0.3571 -0.0305
  193MOL0     O25347   5.599   3.685   9.459 -0.0409 -0.3152  0.0366
  193MOL0     C25348   5.476   3.738   9.497  0.6542  0.1408 -0.3856
  193MOL0     C25349   5.358   3.658   9.507  0.5634  0.5765 -0.4219
  193MOL0     C25350   5.232   3.709   9.547 -0.0097  0.5611 -0.9688
  193MOL0     C25351   5.221   3.844   9.580 -0.3377 -0.7692  0.5908
  193MOL0     O25352   5.095   3.894   9.596  0.4564  0.7981 -0.2095
  193MOL0     C25353   5.051   3.991   9.501  0.4111  0.0362 -0.7297
  193MOL0     C25354   4.898   3.986   9.483 -0.5360 -0.2028 -0.2856
  193MOL0     C25355   4.828   4.006   9.618 -0.6870  0.3131 -0.5253
  193MOL0     C25356   4.682   4.018   9.591 -0.4242  0.0194  0.0766
  193MOL0     C25357   4.584   4.039   9.713 -0.4129  0.7655  0.6032
  193MOL0     C25358   4.453   4.112   9.685  0.5065 -0.8994  0.6570
  193MOL0     C25359   4.351   4.095   9.806  0.1667 -0.9322  1.3985
  193MOL0     C25360   4.216   4.146   9.760 -0.4272 -0.4562 -0.0966
  193MOL0     N25361   4.165   4.233   9.854 -0.8729  0.8344 -0.6929
  193MOL0     C25362   4.212   4.356   9.886  0.0852 -0.2393  0.2620
  193MOL0     C25363   4.117   4.424   9.949 -0.1095  0.0446 -0.3884
  193MOL0     C25364   4.134   4.556  10.010  0.4546  0.4215 -0.7658
  193MOL0     C25365   4.001   4.632  10.023 -1.7527 -0.2562  0.4430
  193MOL0     C25366   3.921   4.575  10.140  0.0120  0.2154  0.0407
  193MOL0     C25367   3.803   4.671  10.173 -0.3652 -0.7124 -0.3390
  193MOL0     O25368   3.716   4.678  10.054 -0.0872 -0.5016 -0.4645
  193MOL0     C25369   3.605   4.766  10.054  0.6237  0.2792  0.2726
  193MOL0     C25370   3.541   4.778   9.935 -0.3637 -0.0502 -0.2262
  193MOL0     C25371   3.431   4.853   9.921  0.8158  0.7526  0.1103
  193MOL0     C25372   3.380   4.929  10.033  0.5371  1.4297  0.3946
  193MOL0     C25373   3.261   5.011  10.019 -0.4974 -1.0239 -0.1739
  193MOL0     O25374   3.179   5.024  10.126  0.1597  0.7794 -0.0553
  193MOL0     C25375   3.056   5.076  10.098  0.2729  0.5381  0.1608
  193MOL0     C25376   3.033   5.209  10.078 -0.2317 -0.2442  0.4826
  193MOL0     C25377   2.906   5.261  10.047 -0.0654 -0.0511  0.5933
  193MOL0     C25378   2.802   5.173  10.067  0.3317  0.3466  0.4895
  193MOL0     O25379   2.680   5.217  10.026 -0.7233 -0.7040  0.2307
  193MOL0     C25380   2.614   5.142   9.925 -0.2081 -0.1318  0.4450
  193MOL0     C25381   2.493   5.233   9.899 -0.2913  0.3341 -0.0526
  193MOL0     C25382   2.368   5.155   9.859  0.5272 -0.5353 -0.7894
  193MOL0     C25383   2.236   5.242   9.862 -0.0685 -0.0601 -0.5167
  193MOL0     C25384   2.122   5.147   9.824  0.4617 -0.6887 -0.0737
  193MOL0     C25385   1.981   5.199   9.868  0.3041  0.4271 -0.1685
  193MOL0     C25386   1.872   5.090   9.836 -0.1812  0.4927 -0.6111
  193MOL0     C25387   1.733   5.147   9.866  1.1993  0.4512  0.3352
  193MOL0    Cl25388   1.616   5.011   9.888  0.1825  0.0434  0.1858
  193MOL0     C25389   2.818   5.041  10.093  0.5309  0.7845  0.2348
  193MOL0     C25390   2.950   4.986  10.102 -0.2698 -0.6408  0.2570
  193MOL0     O25391   3.239   5.054   9.905  0.3684  0.2021 -0.3027
  193MOL0     C25392   3.445   4.913  10.163 -0.8569 -0.5557  0.1497
  193MOL0     C25393   3.560   4.833  10.173 -0.4661 -0.9811 -0.5505
  193MOL0     N25394   4.008   4.342   9.963 -0.0135 -0.2315 -0.8022
  193MOL0     N25395   4.034   4.234   9.903 -0.0899 -0.2589  0.0872
  193MOL0     C25396   5.341   3.931   9.579  0.3923  0.2650  0.1281
  193MOL0     C25397   5.462   3.876   9.529 -0.7666  0.0108  0.2222
  193MOL0     C25398   5.770   3.592   9.320 -0.2271 -0.0656  0.4331
  193MOL0     C25399   5.814   3.524   9.210  0.4848  0.4325 -0.2227
  193MOL0     C25400   5.947   3.502   9.190  0.2494  0.1351  0.1679
  193MOL0     C25401   6.049   3.549   9.278 -0.1623 -0.7566  0.4004
  193MOL0     O25402   6.182   3.530   9.243 -0.2181  0.1668  0.1864
  193MOL0     C25403   6.282   3.589   9.331  0.1844  0.3221  0.9129
  193MOL0     C25404   6.298   3.504   9.465  0.2673  0.6080  0.2934
  193MOL0     C25405   6.335   3.358   9.452  0.1712 -0.5241 -0.7009
  193MOL0     C25406   6.306   3.272   9.574  1.0833 -0.0829 -0.1363
  193MOL0     C25407   6.370   3.143   9.551 -0.4940 -0.4692  0.2184
  193MOL0     C25408   6.414   3.033   9.552 -1.3458  0.3358  0.5325
  193MOL0     C25409   6.000   3.617   9.391 -0.1604  0.0061 -0.1536
  193MOL0     C25410   5.860   3.637   9.413  0.2882 -0.6076  0.9040
  193MOL0     H25411   5.343   3.555   9.476 -1.1326  1.4612 -2.8071
  193MOL0     H25412   5.149   3.641   9.557 -0.7064  1.3837 -1.0796
  193MOL0     H25413   5.103   3.967   9.408 -1.2403 -1.2400 -1.3695
  193MOL0     H25414   5.080   4.093   9.528 -0.1851 -0.1392  0.6733
  193MOL0     H25415   4.869   3.890   9.440  0.1692 -1.2036  1.3490
  193MOL0     H25416   4.872   4.067   9.415  0.8801  0.6722  0.1776
  193MOL0     H25417   4.864   4.099   9.663 -0.9243  1.0325 -1.7578
  193MOL0     H25418   4.846   3.921   9.684  0.2058  1.9738  1.4723
  193MOL0     H25419   4.661   4.094   9.514  0.5440 -0.6311 -0.8568
  193MOL0     H25420   4.650   3.921   9.552 -1.2189 -0.8106  2.6087
  193MOL0     H25421   4.638   4.096   9.789  0.0147  0.9988  0.1305
  193MOL0     H25422   4.564   3.941   9.758  0.7163  1.0437  1.7358
  193MOL0     H25423   4.403   4.066   9.599 -0.4224 -0.9629  1.2120
  193MOL0     H25424   4.463   4.220   9.672 -0.3219 -0.5525  2.5041
  193MOL0     H25425   4.341   3.994   9.846 -0.4685 -1.0927  0.8358
  193MOL0     H25426   4.388   4.156   9.889 -0.9163  0.4539  0.9158
  193MOL0     H25427   4.146   4.062   9.753 -2.1070  0.8770  0.3879
  193MOL0     H25428   4.217   4.191   9.661 -2.5639 -0.4221 -0.1435
  193MOL0     H25429   4.310   4.400   9.873 -0.4832  2.0375  2.6642
  193MOL0     H25430   4.193   4.622   9.946 -1.2035  1.3515 -1.3666
  193MOL0     H25431   4.186   4.534  10.104  1.2273  0.1966 -1.2358
  193MOL0     H25432   3.947   4.618   9.930 -1.4751 -0.7157  0.3473
  193MOL0     H25433   4.029   4.736  10.041 -0.7700  0.3830 -3.7199
  193MOL0     H25434   3.882   4.478  10.109 -2.5905  1.9421 -2.6496
  193MOL0     H25435   3.986   4.565  10.227  0.7661  1.6112 -0.3264
  193MOL0     H25436   3.842   4.770  10.194  0.9262 -1.7234  2.4115
  193MOL0     H25437   3.748   4.627  10.257 -0.1829  1.8709  1.2472
  193MOL0     H25438   3.583   4.725   9.849 -0.7912 -0.0461 -0.4400
  193MOL0     H25439   3.386   4.860   9.822 -2.7993  0.8695  1.5992
  193MOL0     H25440   3.102   5.290  10.099 -0.8116  0.2745  0.4319
  193MOL0     H25441   2.890   5.363  10.014 -1.7832 -0.0563  1.2933
  193MOL0     H25442   2.585   5.045   9.967 -0.0040  0.9134  3.2085
  193MOL0     H25443   2.665   5.137   9.829 -0.4427  0.1423  0.3043
  193MOL0     H25444   2.518   5.300   9.816  0.8229  0.2006  0.1549
  193MOL0     H25445   2.475   5.289   9.991 -2.7788 -3.8678  2.3439
  193MOL0     H25446   2.346   5.072   9.927 -3.3942  0.4978 -0.5776
  193MOL0     H25447   2.381   5.120   9.756  1.2078 -1.8427 -0.2817
  193MOL0     H25448   2.232   5.282   9.964 -0.6412  0.2206 -0.6444
  193MOL0     H25449   2.223   5.331   9.800  0.8347 -1.9034 -3.6074
  193MOL0     H25450   2.140   5.057   9.883  0.3381 -0.6272  0.0584
  193MOL0     H25451   2.130   5.122   9.718 -1.5874  0.7248 -0.6216
  193MOL0     H25452   1.956   5.287   9.808  1.1875  0.7994 -0.0012
  193MOL0     H25453   1.970   5.224   9.974 -1.0790 -0.6154 -0.0378
  193MOL0     H25454   1.885   5.071   9.729 -1.3969  2.8051 -1.2224
  193MOL0     H25455   1.882   5.008   9.908 -1.4623  0.3003 -0.6358
  193MOL0     H25456   1.706   5.210   9.781  0.2691 -0.0065  0.2878
  193MOL0     H25457   1.736   5.209   9.956 -2.9105  0.2429  0.7669
  193MOL0     H25458   2.729   4.981  10.076 -2.2542  4.3022  1.2322
  193MOL0     H25459   2.966   4.878  10.107 -0.7581 -0.6992  0.7473
  193MOL0     H25460   3.398   4.973  10.241  0.8628  1.4810 -0.2778
  193MOL0     H25461   3.620   4.833  10.263  4.8255 -0.7167 -3.6924
  193MOL0     H25462   5.331   4.031   9.620  1.9680  1.8603 -3.0774
  193MOL0     H25463   5.545   3.946   9.516  1.2556 -2.2052  0.4605
  193MOL0     H25464   5.743   3.467   9.151  0.7005 -1.9324  1.6643
  193MOL0     H25465   5.990   3.450   9.104  0.9788  0.0785  0.5573
  193MOL0     H25466   6.243   3.690   9.350 -1.8171 -0.4762  1.3226
  193MOL0     H25467   6.378   3.583   9.279 -0.5979  0.8404 -0.6763
  193MOL0     H25468   6.377   3.555   9.521 -0.9941  1.3445  1.4689
  193MOL0     H25469   6.208   3.508   9.527 -0.9152  0.7880 -1.3819
  193MOL0     H25470   6.443   3.360   9.433  0.0714 -0.9503 -1.3591
  193MOL0     H25471   6.293   3.312   9.362 -0.6292 -1.5409  0.1713
  193MOL0     H25472   6.335   3.320   9.668  1.2424 -4.0759  2.1071
  193MOL0     H25473   6.203   3.238   9.587  1.8895 -2.6347  0.0915
  193MOL0     H25474   6.469   2.942   9.564 -0.5150  0.6860 -0.4879
  193MOL0     H25475   6.066   3.657   9.467 -0.5315 -0.7047  0.5645
  193MOL0     H25476   5.825   3.674   9.509  0.9884  0.0203  0.9296
  194MOL0     O25477   0.732   6.426   4.697 -0.5557  0.4248 -0.3077
  194MOL0     C25478   0.792   6.383   4.599 -0.7181  0.5186 -0.7008
  194MOL0     O25479   0.742   6.369   4.483  0.3690  0.3883 -0.3145
  194MOL0     C25480   0.624   6.436   4.456  0.2340  0.1946  0.4141
  194MOL0     C25481   0.491   6.410   4.501  0.5662  0.9465  0.6078
  194MOL0     C25482   0.373   6.480   4.464 -0.0826 -0.0449 -0.5579
  194MOL0     C25483   0.393   6.595   4.384  0.8699 -0.5093  0.3355
  194MOL0     O25484   0.281   6.671   4.351 -0.0015  0.0684  0.3015
  194MOL0     C25485   0.249   6.669   4.212  0.3451  0.7678  0.2434
  194MOL0     C25486   0.219   6.814   4.163  0.6491 -0.2137 -0.4168
  194MOL0     C25487   0.121   6.871   4.264  0.1867  0.7039 -0.8162
  194MOL0     C25488  -0.017   6.794   4.286 -0.7258  0.0270  0.4723
  194MOL0     C25489  -0.136   6.880   4.333 -0.2380 -0.6794 -0.0230
  194MOL0     C25490  -0.165   7.000   4.236 -0.3495 -0.0352  0.1416
  194MOL0     C25491  -0.183   6.969   4.086  0.6749 -0.1019  0.3918
  194MOL0     C25492  -0.203   7.096   4.003  0.4934  0.0340  0.0385
  194MOL0     N25493  -0.326   7.176   4.036 -0.3331  0.4346 -0.3062
  194MOL0     C25494  -0.440   7.134   4.100 -0.5283  0.6426  0.1662
  194MOL0     C25495  -0.520   7.245   4.109  0.3216  0.0371  0.0353
  194MOL0     C25496  -0.651   7.268   4.184 -0.0051 -0.0170 -0.5669
  194MOL0     C25497  -0.768   7.266   4.080  0.6667 -0.9386 -0.1498
  194MOL0     C25498  -0.769   7.398   3.994 -0.5050 -0.5363  0.6670
  194MOL0     C25499  -0.892   7.433   3.929  0.3233 -0.9979 -0.0567
  194MOL0     O25500  -0.974   7.520   4.016 -0.4596  0.1615  0.1983
  194MOL0     C25501  -1.095   7.552   3.965 -0.1477  0.2652  0.0940
  194MOL0     C25502  -1.176   7.484   3.865  0.5559  0.0540 -0.1564
  194MOL0     C25503  -1.316   7.520   3.848 -0.6315  0.3295  0.3202
  194MOL0     C25504  -1.374   7.614   3.932 -0.3920 -0.6851 -0.6516
  194MOL0     C25505  -1.527   7.643   3.925 -0.1554  0.2010 -0.5029
  194MOL0     O25506  -1.612   7.549   3.889 -0.4234  0.4151  0.2851
  194MOL0     C25507  -1.753   7.581   3.894  0.1873 -0.1551 -0.0961
  194MOL0     C25508  -1.819   7.572   3.769 -0.9254 -0.2499 -0.3315
  194MOL0     C25509  -1.954   7.609   3.763 -0.1379  0.2272 -1.1410
  194MOL0     C25510  -2.019   7.647   3.886 -0.1655 -0.5792 -0.3030
  194MOL0     O25511  -2.141   7.707   3.870  0.1819 -0.0189 -0.1776
  194MOL0     C25512  -2.251   7.656   3.949  1.2661  0.4773 -0.6366
  194MOL0     C25513  -2.376   7.723   3.885  0.0057 -0.5295 -0.7717
  194MOL0     C25514  -2.408   7.648   3.757 -0.3679 -0.8425 -0.7204
  194MOL0     C25515  -2.536   7.709   3.689  0.2903  0.0648 -0.7722
  194MOL0     C25516  -2.549   7.641   3.560  0.2664 -0.8317  1.6813
  194MOL0     C25517  -2.565   7.488   3.553 -0.7696  0.0902  0.0583
  194MOL0     C25518  -2.538   7.435   3.406  0.2167 -0.7140  0.5862
  194MOL0     C25519  -2.585   7.286   3.383 -0.7375  0.8632  0.3448
  194MOL0    Cl25520  -2.475   7.186   3.478 -0.3954 -0.0033 -0.1672
  194MOL0     C25521  -1.962   7.624   4.014 -0.7428 -0.6892  0.8260
  194MOL0     C25522  -1.826   7.595   4.016 -0.0520  0.2715  0.0801
  194MOL0     O25523  -1.551   7.751   3.976 -0.2951  0.2055  0.1691
  194MOL0     C25524  -1.292   7.693   4.012  0.7512  0.9126 -1.2694
  194MOL0     C25525  -1.153   7.657   4.031  0.9127  0.0769 -0.4387
  194MOL0     N25526  -0.452   7.352   4.064 -0.3514 -0.1988 -0.5894
  194MOL0     N25527  -0.336   7.305   4.016 -0.1339 -0.6710  0.3857
  194MOL0     C25528   0.522   6.627   4.333  0.2604  0.9889  0.6582
  194MOL0     C25529   0.636   6.552   4.374 -0.6500  1.0541 -0.7365
  194MOL0     C25530   0.930   6.351   4.617  0.1834  0.4579  0.3035
  194MOL0     C25531   0.992   6.394   4.738  0.1067  0.7180  0.3394
  194MOL0     C25532   1.134   6.371   4.756  0.3412  0.2510  1.0588
  194MOL0     C25533   1.210   6.303   4.664 -0.1506  0.7841  0.1299
  194MOL0     O25534   1.340   6.287   4.698  1.4920 -0.6700  0.7996
  194MOL0     C25535   1.405   6.177   4.640 -0.6352  0.5743  0.1953
  194MOL0     C25536   1.522   6.136   4.733  0.1251 -0.7693  0.2443
  194MOL0     C25537   1.630   6.250   4.722 -0.1504  0.8228 -0.3839
  194MOL0     C25538   1.625   6.345   4.841  1.1564 -0.5240  0.3685
  194MOL0     C25539   1.642   6.267   4.959 -0.6263 -0.4730  0.3375
  194MOL0     C25540   1.656   6.216   5.067 -0.8113 -0.6203 -0.1014
  194MOL0     C25541   1.154   6.263   4.531 -0.1309  0.5037 -1.0105
  194MOL0     C25542   1.014   6.293   4.514  0.2909  0.6925  0.4123
  194MOL0     H25543   0.479   6.321   4.562  2.7878 -0.2783 -0.6159
  194MOL0     H25544   0.269   6.469   4.493  0.0376  0.4166  0.0793
  194MOL0     H25545   0.157   6.614   4.192  0.7145  0.3375 -0.3013
  194MOL0     H25546   0.331   6.619   4.160 -0.2569  0.3940 -0.3636
  194MOL0     H25547   0.195   6.816   4.057  2.5183 -0.5614 -0.8907
  194MOL0     H25548   0.312   6.872   4.172  0.4274 -0.1746  2.8450
  194MOL0     H25549   0.094   6.976   4.249 -0.0904  0.7384 -0.0994
  194MOL0     H25550   0.161   6.875   4.366 -2.4458  1.5645  0.2665
  194MOL0     H25551  -0.048   6.734   4.200 -0.6282 -2.0952  1.8329
  194MOL0     H25552  -0.007   6.716   4.362  1.9147 -0.1725  0.0172
  194MOL0     H25553  -0.102   6.912   4.432  0.0590  1.9641 -0.8938
  194MOL0     H25554  -0.225   6.817   4.336  1.1598 -2.8695 -1.0138
  194MOL0     H25555  -0.096   7.083   4.254  1.8716 -1.7003 -0.2830
  194MOL0     H25556  -0.265   7.039   4.259 -0.1275  1.0596 -0.6561
  194MOL0     H25557  -0.096   6.924   4.037  0.1511  1.4139 -2.1360
  194MOL0     H25558  -0.268   6.901   4.075  0.2758  0.4494  0.0415
  194MOL0     H25559  -0.216   7.061   3.900  0.0982 -2.5433  0.8982
  194MOL0     H25560  -0.111   7.154   4.002 -0.6161  1.8843 -0.5745
  194MOL0     H25561  -0.472   7.031   4.115  0.8998 -0.1065 -1.5225
  194MOL0     H25562  -0.658   7.355   4.249 -3.5939 -2.4973  2.8462
  194MOL0     H25563  -0.669   7.195   4.264 -1.9146 -0.0308 -0.9613
  194MOL0     H25564  -0.867   7.273   4.126  0.0852 -0.2350 -1.4502
  194MOL0     H25565  -0.769   7.176   4.017 -0.2547  0.3181 -2.0430
  194MOL0     H25566  -0.742   7.489   4.047  0.2907  0.4617 -1.3229
  194MOL0     H25567  -0.694   7.382   3.915 -1.4993  0.2654 -0.4759
  194MOL0     H25568  -0.952   7.351   3.888  0.9839 -0.6734 -1.7401
  194MOL0     H25569  -0.875   7.493   3.839 -0.6757 -1.0350 -0.2893
  194MOL0     H25570  -1.152   7.390   3.816 -2.0882 -1.9006  1.9572
  194MOL0     H25571  -1.389   7.475   3.781  1.4674 -0.8776 -1.3011
  194MOL0     H25572  -1.763   7.544   3.680 -0.8949  0.0160 -0.3971
  194MOL0     H25573  -1.999   7.635   3.668 -2.5796  1.0257  0.1505
  194MOL0     H25574  -2.242   7.677   4.057  3.0687 -1.0977 -0.4227
  194MOL0     H25575  -2.253   7.546   3.950  2.0678  0.4299  1.4018
  194MOL0     H25576  -2.356   7.827   3.859 -0.8315  1.0457  3.9408
  194MOL0     H25577  -2.460   7.713   3.954  1.0875 -3.6389  0.2890
  194MOL0     H25578  -2.430   7.543   3.782 -2.5623  0.0290  1.4425
  194MOL0     H25579  -2.319   7.657   3.695  1.4919  1.7312  2.0489
  194MOL0     H25580  -2.622   7.695   3.755 -0.1147 -1.0900 -1.5232
  194MOL0     H25581  -2.528   7.818   3.674  2.2902 -0.1231 -1.4081
  194MOL0     H25582  -2.473   7.672   3.487 -1.7017 -1.8042 -0.9539
  194MOL0     H25583  -2.643   7.676   3.515  0.7684 -0.3040  1.0095
  194MOL0     H25584  -2.660   7.453   3.592 -1.3766 -0.6364 -1.9465
  194MOL0     H25585  -2.488   7.440   3.614  0.7928  0.7282 -1.3343
  194MOL0     H25586  -2.586   7.501   3.334  4.1936  1.7695 -0.0755
  194MOL0     H25587  -2.430   7.448   3.391 -0.0583  1.5422  0.2547
  194MOL0     H25588  -2.565   7.261   3.279  2.9875 -0.4751  1.2298
  194MOL0     H25589  -2.688   7.278   3.419  0.1271 -0.4249  2.7159
  194MOL0     H25590  -2.014   7.622   4.109  1.9402 -0.2414  2.4086
  194MOL0     H25591  -1.772   7.582   4.110  2.9941  0.4237 -1.5381
  194MOL0     H25592  -1.328   7.782   4.063 -1.0665  1.0707 -2.7136
  194MOL0     H25593  -1.104   7.719   4.105 -1.8944  0.9394  0.8480
  194MOL0     H25594   0.533   6.703   4.257  0.3529 -2.6213 -3.3431
  194MOL0     H25595   0.734   6.586   4.343 -1.0231  4.1313  1.0778
  194MOL0     H25596   0.949   6.449   4.820 -0.2662 -0.0657  0.6868
  194MOL0     H25597   1.182   6.418   4.842  2.6625  0.0095 -0.0459
  194MOL0     H25598   1.450   6.204   4.544 -1.9954 -0.5970 -0.8282
  194MOL0     H25599   1.351   6.084   4.619  2.6429 -1.6542  0.8263
  194MOL0     H25600   1.479   6.119   4.832  1.2184 -0.1575  0.8386
  194MOL0     H25601   1.571   6.047   4.693 -0.9894 -1.7498  0.9861
  194MOL0     H25602   1.625   6.308   4.630  1.0190  2.8211  0.7438
  194MOL0     H25603   1.718   6.186   4.720 -0.8769 -0.1971 -2.5867
  194MOL0     H25604   1.698   6.425   4.829  1.8228 -1.4699 -2.8467
  194MOL0     H25605   1.525   6.391   4.844  1.0486 -0.4601 -1.8852
  194MOL0     H25606   1.687   6.167   5.156 -0.0024 -0.4815 -0.2998
  194MOL0     H25607   1.214   6.214   4.454  0.5612 -1.6609  0.8124
  194MOL0     H25608   0.968   6.288   4.416  1.0153 -0.0776  0.1015
  195MOL0     O25609   8.306   6.284   6.693  0.6414  0.1866  0.1766
  195MOL0     C25610   8.428   6.306   6.723  0.0552  0.8911 -0.3921
  195MOL0     O25611   8.508   6.216   6.796  0.3116 -0.3901  0.1894
  195MOL0     C25612   8.463   6.086   6.796 -0.3934 -0.1762 -0.1829
  195MOL0     C25613   8.331   6.046   6.826 -0.3388 -0.5093  0.3593
  195MOL0     C25614   8.299   5.912   6.858  0.5791  0.9273  0.4336
  195MOL0     C25615   8.396   5.811   6.840  0.8969 -1.1244 -0.5453
  195MOL0     O25616   8.368   5.677   6.841  0.1125  0.1363 -0.2182
  195MOL0     C25617   8.271   5.636   6.947 -0.1426 -0.0827 -0.0627
  195MOL0     C25618   8.142   5.608   6.874  0.1400  0.2645 -0.7702
  195MOL0     C25619   8.042   5.579   6.987 -0.5281  0.3082 -0.3609
  195MOL0     C25620   7.990   5.707   7.063 -0.2570  0.5635  0.4395
  195MOL0     C25621   7.937   5.669   7.194  0.6032 -0.6194  0.1257
  195MOL0     C25622   8.055   5.663   7.294  0.7135  0.0960  0.4269
  195MOL0     C25623   8.006   5.651   7.438  0.0900  0.0821 -0.5357
  195MOL0     C25624   8.116   5.630   7.542  1.1574  0.0304  1.0137
  195MOL0     N25625   8.055   5.610   7.676 -0.6716 -0.6163  0.0086
  195MOL0     C25626   7.982   5.708   7.751  0.3577 -0.6652 -0.2279
  195MOL0     C25627   7.966   5.654   7.876 -0.2688  0.4183 -0.0709
  195MOL0     C25628   7.871   5.710   7.987  0.3319  0.1589  0.4361
  195MOL0     C25629   7.737   5.638   7.988 -0.0398 -0.0162 -0.2067
  195MOL0     C25630   7.624   5.702   8.063 -0.1970  0.3446  0.3552
  195MOL0     C25631   7.520   5.599   8.070  0.6647  0.5078 -1.1195
  195MOL0     O25632   7.394   5.656   8.114 -0.5118 -0.3819 -0.1060
  195MOL0     C25633   7.301   5.566   8.155  0.6090 -0.1692 -0.6516
  195MOL0     C25634   7.294   5.428   8.136 -0.3954  0.1445  0.5613
  195MOL0     C25635   7.176   5.356   8.174  0.3403 -0.0739  0.3166
  195MOL0     C25636   7.067   5.432   8.223 -0.0014  0.1278 -0.5118
  195MOL0     C25637   6.943   5.365   8.273 -0.0055  0.1935  0.2032
  195MOL0     O25638   6.845   5.443   8.325 -0.2737 -0.2297  0.0643
  195MOL0     C25639   6.735   5.383   8.380 -0.4070 -0.4446  0.1025
  195MOL0     C25640   6.660   5.287   8.302  0.7778 -0.6061 -0.4065
  195MOL0     C25641   6.558   5.213   8.362 -0.7156  0.9507 -0.0334
  195MOL0     C25642   6.519   5.234   8.488 -0.4985  0.3385 -0.3544
  195MOL0     O25643   6.428   5.149   8.544 -0.7446  0.7181  0.5662
  195MOL0     C25644   6.440   5.133   8.685  0.4885 -0.4247  0.0996
  195MOL0     C25645   6.371   4.996   8.723  0.3477  0.9668 -0.0671
  195MOL0     C25646   6.223   5.019   8.729  0.0093 -0.1568  0.2103
  195MOL0     C25647   6.148   4.894   8.740 -0.1619 -0.3527 -1.0193
  195MOL0     C25648   5.993   4.915   8.726 -0.5938  0.8266 -0.9236
  195MOL0     C25649   5.915   4.783   8.720  0.1135  0.0461 -0.5451
  195MOL0     C25650   5.923   4.671   8.826  0.1580 -0.0044 -0.0348
  195MOL0     C25651   5.875   4.698   8.965  0.0747  0.1320  0.6797
  195MOL0    Cl25652   5.961   4.834   9.048  0.3760 -0.0715  0.1955
  195MOL0     C25653   6.589   5.331   8.564  0.2797  0.4605 -1.1735
  195MOL0     C25654   6.694   5.402   8.514 -0.1287 -0.6228  1.1288
  195MOL0     O25655   6.938   5.242   8.265 -0.2897  1.1773  0.0414
  195MOL0     C25656   7.081   5.575   8.240 -0.1995 -0.0233  0.8510
  195MOL0     C25657   7.194   5.644   8.207  0.5989  0.1852  0.2303
  195MOL0     N25658   8.031   5.531   7.882 -0.6597 -0.1390  0.0131
  195MOL0     N25659   8.073   5.503   7.759  0.3153  0.0513  0.0465
  195MOL0     C25660   8.514   5.852   6.785 -0.0194  0.4798  0.0631
  195MOL0     C25661   8.553   5.982   6.768 -0.1453 -0.6339 -0.0324
  195MOL0     C25662   8.470   6.443   6.706  0.2688 -0.0213  0.4228
  195MOL0     C25663   8.602   6.472   6.748  0.0952 -1.2137  0.2934
  195MOL0     C25664   8.644   6.610   6.715  0.5000  0.0955  0.1596
  195MOL0     C25665   8.562   6.706   6.663  0.6145  0.0545  0.7836
  195MOL0     O25666   8.605   6.832   6.622 -0.2063 -0.1598  0.2474
  195MOL0     C25667   8.518   6.916   6.551  0.1446  0.6232  0.3339
  195MOL0     C25668   8.592   7.032   6.488 -0.7568 -0.3514 -0.8641
  195MOL0     C25669   8.630   7.139   6.591  0.0713 -0.0365  0.9388
  195MOL0     C25670   8.751   7.121   6.680  1.0211  0.5383 -0.1484
  195MOL0     C25671   8.783   7.230   6.777 -0.3499  1.0761  0.1548
  195MOL0     C25672   8.815   7.314   6.860  0.1522 -0.1650 -0.3239
  195MOL0     C25673   8.418   6.674   6.632  0.2981  0.1547  0.1021
  195MOL0     C25674   8.383   6.544   6.650 -0.0276 -0.3768  0.8329
  195MOL0     H25675   8.247   6.113   6.841  1.7819  3.2264 -2.6886
  195MOL0     H25676   8.203   5.888   6.904  0.6960 -2.4647 -0.7989
  195MOL0     H25677   8.264   5.716   7.022  1.9463  1.0830 -1.0209
  195MOL0     H25678   8.313   5.543   6.985 -0.2769 -1.5205 -3.1563
  195MOL0     H25679   8.172   5.516   6.824  0.5042 -0.2737  0.4143
  195MOL0     H25680   8.116   5.690   6.806  0.3987  0.3880 -0.7244
  195MOL0     H25681   8.075   5.509   7.064 -0.7807  0.9017  0.3034
  195MOL0     H25682   7.949   5.543   6.941 -0.4439  1.9850 -2.0010
  195MOL0     H25683   8.069   5.784   7.067 -1.1208  1.7993 -2.8309
  195MOL0     H25684   7.917   5.760   7.001  0.6079  3.0610  1.4291
  195MOL0     H25685   7.882   5.575   7.182 -1.1501  0.1704  1.4303
  195MOL0     H25686   7.860   5.733   7.240  0.5826 -1.8705  1.9509
  195MOL0     H25687   8.108   5.759   7.287  0.7441  0.3016  2.6738
  195MOL0     H25688   8.112   5.572   7.272  1.9903  0.7625  0.8872
  195MOL0     H25689   7.957   5.744   7.469 -1.0625 -0.1951 -1.4574
  195MOL0     H25690   7.938   5.566   7.449  1.4606 -0.6889  4.0766
  195MOL0     H25691   8.192   5.708   7.548 -1.1134  2.6044 -0.8865
  195MOL0     H25692   8.167   5.539   7.509  1.3771  1.5495 -3.6884
  195MOL0     H25693   7.950   5.810   7.737  1.8672  0.1078  1.4894
  195MOL0     H25694   7.850   5.816   7.968  1.6572 -0.0946 -3.2838
  195MOL0     H25695   7.931   5.705   8.078  1.5811 -0.3700 -0.3851
  195MOL0     H25696   7.753   5.537   8.027  0.3612  0.0230 -0.2669
  195MOL0     H25697   7.703   5.644   7.884 -1.3465 -0.8645  0.1392
  195MOL0     H25698   7.651   5.738   8.162  0.8144 -0.4149  0.3725
  195MOL0     H25699   7.587   5.784   8.001  1.0640 -0.6931 -1.9340
  195MOL0     H25700   7.556   5.513   8.129 -1.7931 -0.6612 -1.2101
  195MOL0     H25701   7.487   5.567   7.971 -0.0988 -0.7999 -0.4693
  195MOL0     H25702   7.370   5.363   8.096  1.1106  0.0785  3.2924
  195MOL0     H25703   7.176   5.247   8.171 -0.8680 -0.3125  4.0431
  195MOL0     H25704   6.693   5.272   8.200  2.0660 -0.6445 -0.0005
  195MOL0     H25705   6.504   5.143   8.299 -4.2843  0.9349  2.7300
  195MOL0     H25706   6.386   5.213   8.735 -1.7902 -0.4301 -2.1403
  195MOL0     H25707   6.544   5.136   8.717  0.2932 -3.2188  1.2800
  195MOL0     H25708   6.407   4.967   8.822  1.0322 -0.7080 -0.7701
  195MOL0     H25709   6.394   4.918   8.650  0.9138  0.5570  0.5379
  195MOL0     H25710   6.202   5.065   8.632  0.7673 -0.2941 -0.0173
  195MOL0     H25711   6.189   5.101   8.793 -0.7085 -1.0060  0.9513
  195MOL0     H25712   6.181   4.826   8.660 -0.5100 -1.8137  0.0327
  195MOL0     H25713   6.156   4.851   8.840 -2.2044  1.0292 -0.1879
  195MOL0     H25714   5.981   4.975   8.635  2.1203  0.8933 -1.3230
  195MOL0     H25715   5.960   4.981   8.806  0.6796  0.6830 -0.2450
  195MOL0     H25716   5.944   4.724   8.633 -1.8203 -1.2141 -0.3912
  195MOL0     H25717   5.810   4.810   8.706 -0.6697 -1.6195  1.6105
  195MOL0     H25718   5.869   4.584   8.788  1.7328 -0.2868 -1.7728
  195MOL0     H25719   6.027   4.640   8.839 -0.2809 -1.1353  0.9175
  195MOL0     H25720   5.889   4.609   9.027  1.3211 -0.8201 -0.8958
  195MOL0     H25721   5.770   4.728   8.957  0.1900 -0.0172 -2.7412
  195MOL0     H25722   6.548   5.333   8.665 -0.6729  0.1149 -1.5466
  195MOL0     H25723   6.748   5.470   8.579 -1.2298  0.5848  0.8172
  195MOL0     H25724   7.007   5.632   8.295  1.4209  0.1140  2.9990
  195MOL0     H25725   7.213   5.751   8.220 -2.9815  0.8399  1.0841
  195MOL0     H25726   8.585   5.772   6.764 -0.8905 -1.1615  2.8262
  195MOL0     H25727   8.656   6.005   6.741  0.6613  0.5933  3.5805
  195MOL0     H25728   8.675   6.402   6.788  0.9686 -0.8805 -0.6499
  195MOL0     H25729   8.739   6.656   6.740  0.3956  0.3602  0.0687
  195MOL0     H25730   8.436   6.966   6.603 -2.0137 -0.7484 -1.5315
  195MOL0     H25731   8.474   6.860   6.468  0.8648 -0.2944  0.5490
  195MOL0     H25732   8.675   6.990   6.430  0.8030 -1.9683  2.2804
  195MOL0     H25733   8.528   7.083   6.415  1.2445  2.5713 -0.7869
  195MOL0     H25734   8.544   7.155   6.657  0.6588  0.8231  1.5289
  195MOL0     H25735   8.639   7.238   6.545 -2.2793  1.4013  3.2773
  195MOL0     H25736   8.733   7.038   6.750 -3.8893  2.0152  0.7956
  195MOL0     H25737   8.833   7.086   6.618  1.6375 -1.5645  1.7251
  195MOL0     H25738   8.825   7.390   6.936  1.8783 -0.3082 -0.3690
  195MOL0     H25739   8.341   6.738   6.590  0.1025  0.6579  1.1989
  195MOL0     H25740   8.281   6.521   6.622 -1.1620  3.6474  1.0655
  196MOL0     O25741   4.136   3.261   8.403  0.3389  0.8538  0.1823
  196MOL0     C25742   4.170   3.376   8.436 -0.0971 -0.4526 -0.0940
  196MOL0     O25743   4.087   3.483   8.441 -0.3377 -0.1433  0.2864
  196MOL0     C25744   3.958   3.477   8.404  0.0785 -0.0047  0.8245
  196MOL0     C25745   3.871   3.370   8.449  0.4594 -0.8464  0.2360
  196MOL0     C25746   3.731   3.378   8.421  0.6216 -0.1368  0.4108
  196MOL0     C25747   3.678   3.500   8.361  0.1838 -0.0432  0.6931
  196MOL0     O25748   3.540   3.515   8.343 -0.1232  0.5010  0.0181
  196MOL0     C25749   3.454   3.441   8.424 -0.5173  0.9494 -0.1533
  196MOL0     C25750   3.315   3.501   8.414  0.1078 -0.4870  0.3318
  196MOL0     C25751   3.220   3.411   8.495  0.5212 -0.5699  0.1246
  196MOL0     C25752   3.084   3.490   8.493 -0.7648 -0.1997  0.2486
  196MOL0     C25753   2.971   3.408   8.565  0.0918 -0.7027 -0.2166
  196MOL0     C25754   2.974   3.438   8.710 -0.1054  0.0253  0.4098
  196MOL0     C25755   2.847   3.401   8.788 -0.9112  0.5118 -0.3728
  196MOL0     C25756   2.798   3.254   8.779  0.5297 -0.3465 -0.0007
  196MOL0     N25757   2.888   3.151   8.837  0.0627  0.4280 -0.1467
  196MOL0     C25758   3.003   3.098   8.780  0.4038 -0.4294 -0.0942
  196MOL0     C25759   3.063   3.008   8.857 -0.3073 -0.2833 -0.2750
  196MOL0     C25760   3.187   2.939   8.831  0.9280  0.2828  0.8234
  196MOL0     C25761   3.314   3.025   8.791  0.5919  1.2332  0.3161
  196MOL0     C25762   3.408   3.064   8.906 -0.9829  0.8870 -0.8828
  196MOL0     C25763   3.487   3.194   8.886  0.1362 -0.2642  0.5628
  196MOL0     O25764   3.579   3.171   8.774 -0.3159  0.4125 -0.5636
  196MOL0     C25765   3.708   3.132   8.786  0.3253  0.3580  0.8841
  196MOL0     C25766   3.768   3.100   8.897  0.4623 -0.0556 -0.0464
  196MOL0     C25767   3.895   3.053   8.905 -0.0653  1.0027 -0.1585
  196MOL0     C25768   3.975   3.052   8.787  0.1073  1.1748 -0.4576
  196MOL0     C25769   4.122   3.013   8.792  0.5562 -0.7432  0.2533
  196MOL0     O25770   4.165   2.974   8.921 -0.1370  0.3085  0.4482
  196MOL0     C25771   4.289   2.934   8.950  0.7311 -0.1401  0.8566
  196MOL0     C25772   4.327   2.811   9.010 -0.5531 -0.4136 -0.1759
  196MOL0     C25773   4.457   2.789   9.052  0.3699  1.5369 -0.1519
  196MOL0     C25774   4.559   2.880   9.010 -0.3444 -0.5633  0.9637
  196MOL0     O25775   4.692   2.857   9.010  0.7647 -0.4336 -0.4392
  196MOL0     C25776   4.734   2.718   9.027  0.6646 -0.6934 -0.2968
  196MOL0     C25777   4.883   2.686   8.997  0.4553  1.2358  0.7759
  196MOL0     C25778   4.986   2.769   9.073  0.1737 -0.1369  0.9596
  196MOL0     C25779   5.123   2.730   9.012  0.3970  0.6755  0.6983
  196MOL0     C25780   5.229   2.794   9.089 -0.4643  0.0172 -0.5475
  196MOL0     C25781   5.363   2.764   9.016 -0.2965 -1.1639 -0.3124
  196MOL0     C25782   5.497   2.789   9.089 -0.2719  0.1149 -0.0575
  196MOL0     C25783   5.593   2.868   9.001 -0.7296 -0.1950 -0.0085
  196MOL0    Cl25784   5.671   2.758   8.884 -0.1125 -0.2222 -0.0472
  196MOL0     C25785   4.520   3.004   8.956 -0.1301  0.3520  0.1770
  196MOL0     C25786   4.386   3.034   8.930 -0.8724 -0.7950 -0.7414
  196MOL0     O25787   4.183   3.011   8.683 -0.4791 -0.4219 -0.1939
  196MOL0     C25788   3.918   3.084   8.669  0.5378  0.3956  0.7103
  196MOL0     C25789   3.786   3.121   8.669  1.1022  0.6692  0.1326
  196MOL0     N25790   2.975   2.994   8.966  0.8563  0.9607  0.0694
  196MOL0     N25791   2.880   3.086   8.961 -0.4349 -0.0143  0.0235
  196MOL0     C25792   3.758   3.594   8.320 -0.8253 -0.4342  0.2113
  196MOL0     C25793   3.900   3.588   8.343  0.2640  0.1569 -0.6601
  196MOL0     C25794   4.319   3.407   8.456  0.0801 -0.1328 -0.1441
  196MOL0     C25795   4.357   3.514   8.551 -0.1188 -0.1491 -0.2454
  196MOL0     C25796   4.491   3.521   8.585 -0.4131 -0.1548  0.9319
  196MOL0     C25797   4.586   3.431   8.541  0.2896  0.7485  0.2817
  196MOL0     O25798   4.713   3.429   8.585 -0.0677  0.3465 -0.0585
  196MOL0     C25799   4.772   3.558   8.600  0.0954 -0.0256  0.0354
  196MOL0     C25800   4.930   3.548   8.596  0.0011  0.6978 -0.5631
  196MOL0     C25801   4.992   3.683   8.598 -0.4136 -0.1775 -0.0021
  196MOL0     C25802   5.140   3.677   8.610  0.0163  0.2663 -0.8570
  196MOL0     C25803   5.201   3.803   8.647 -0.4788 -1.0061  0.3335
  196MOL0     C25804   5.251   3.911   8.676  0.8096  0.6396  0.1176
  196MOL0     C25805   4.547   3.338   8.443  0.5706  0.0262 -0.0746
  196MOL0     C25806   4.422   3.321   8.407  0.7161 -0.6529 -0.4237
  196MOL0     H25807   3.912   3.288   8.507 -1.7509 -2.1207  0.1178
  196MOL0     H25808   3.667   3.292   8.440  0.0987 -0.6949 -3.2765
  196MOL0     H25809   3.484   3.434   8.529 -1.2884 -5.3810  0.0409
  196MOL0     H25810   3.452   3.339   8.386 -1.6385  0.5025  1.0513
  196MOL0     H25811   3.280   3.509   8.311 -3.5913  2.0900  1.5716
  196MOL0     H25812   3.312   3.595   8.471 -2.9510 -1.0071  1.1920
  196MOL0     H25813   3.247   3.399   8.601  1.4888  0.5786  0.0291
  196MOL0     H25814   3.198   3.314   8.450 -1.8807 -1.6197  3.1804
  196MOL0     H25815   3.088   3.591   8.535  0.5762  0.9956 -2.4846
  196MOL0     H25816   3.052   3.489   8.388 -0.2242 -3.0738  0.0186
  196MOL0     H25817   2.985   3.300   8.554  1.7241 -0.4015 -1.3557
  196MOL0     H25818   2.874   3.437   8.525  0.1400 -1.0346 -0.5818
  196MOL0     H25819   2.996   3.544   8.731  2.7936 -0.3524 -0.2782
  196MOL0     H25820   3.059   3.388   8.758 -0.1685  1.3217  2.0044
  196MOL0     H25821   2.880   3.424   8.890  1.1673  0.5679 -1.0189
  196MOL0     H25822   2.767   3.474   8.769 -1.7564 -0.0802  0.7553
  196MOL0     H25823   2.780   3.234   8.674 -2.2010 -0.7337  0.4734
  196MOL0     H25824   2.704   3.256   8.836  1.8797  3.0179  2.4864
  196MOL0     H25825   3.038   3.143   8.688 -5.9106  2.2436 -1.7557
  196MOL0     H25826   3.169   2.865   8.751  1.4571  0.8408  0.1729
  196MOL0     H25827   3.215   2.881   8.919  1.8897 -0.2804  0.1705
  196MOL0     H25828   3.275   3.116   8.744  0.0459  1.1187  0.5309
  196MOL0     H25829   3.373   2.963   8.722  0.1185  4.9731 -3.8710
  196MOL0     H25830   3.349   3.083   8.996 -2.2017  0.5321 -1.5762
  196MOL0     H25831   3.481   2.987   8.931 -0.5723  2.0433  1.7035
  196MOL0     H25832   3.529   3.223   8.983 -1.0635 -1.7128  1.5597
  196MOL0     H25833   3.411   3.265   8.852 -1.4749 -1.6274  1.1991
  196MOL0     H25834   3.712   3.112   8.989  1.0873  1.5884  0.1485
  196MOL0     H25835   3.931   3.031   9.005  0.2223 -1.7016 -0.7823
  196MOL0     H25836   4.246   2.742   9.030 -0.5388 -0.4733 -0.3230
  196MOL0     H25837   4.470   2.692   9.099  0.3051  1.2868 -0.6391
  196MOL0     H25838   4.682   2.654   8.955 -2.4991  0.7482  0.5140
  196MOL0     H25839   4.709   2.682   9.127  0.5504 -2.4588 -0.9217
  196MOL0     H25840   4.897   2.705   8.891 -2.3821  2.4064  0.5411
  196MOL0     H25841   4.903   2.580   9.019  0.5162  0.7176 -1.5645
  196MOL0     H25842   4.983   2.754   9.182  0.6216 -0.1146  0.9754
  196MOL0     H25843   4.979   2.878   9.071  0.2095 -0.1400  0.5888
  196MOL0     H25844   5.135   2.622   9.022 -0.1708  0.5274 -0.1131
  196MOL0     H25845   5.124   2.753   8.905 -1.1850 -1.5106  0.1310
  196MOL0     H25846   5.239   2.746   9.187 -1.2841  4.5312  2.0144
  196MOL0     H25847   5.218   2.903   9.097  1.2967  0.1291  1.4331
  196MOL0     H25848   5.361   2.824   8.924 -3.0598 -2.0152 -0.9004
  196MOL0     H25849   5.366   2.657   8.995  0.1790 -2.4812  5.1316
  196MOL0     H25850   5.480   2.860   9.171 -1.7764  0.9889 -1.0901
  196MOL0     H25851   5.537   2.694   9.126  2.2909  2.1968  3.0807
  196MOL0     H25852   5.676   2.904   9.062 -0.5667 -0.0074 -0.3390
  196MOL0     H25853   5.546   2.954   8.952 -0.8791  1.1227  2.3175
  196MOL0     H25854   4.597   3.076   8.932  0.4802 -0.1318  0.6539
  196MOL0     H25855   4.355   3.133   8.901  0.5690 -0.3151 -0.7436
  196MOL0     H25856   3.961   3.079   8.569  1.8471  1.2820  1.2072
  196MOL0     H25857   3.736   3.152   8.578 -1.9431 -0.0163  1.4242
  196MOL0     H25858   3.713   3.678   8.268  0.6612 -0.3385 -1.0237
  196MOL0     H25859   3.959   3.671   8.308 -0.9889  0.8878 -1.1225
  196MOL0     H25860   4.281   3.579   8.593  1.7460  1.6622  0.5126
  196MOL0     H25861   4.532   3.598   8.649  1.2044 -1.6467  1.7949
  196MOL0     H25862   4.739   3.602   8.694 -3.7862  0.8022 -1.5116
  196MOL0     H25863   4.732   3.614   8.515  0.5785  0.3082  0.0244
  196MOL0     H25864   4.966   3.489   8.681 -0.5750  2.4808  1.0027
  196MOL0     H25865   4.966   3.499   8.505  3.3645 -1.4214  1.6380
  196MOL0     H25866   4.952   3.736   8.685  0.4396  0.9554 -0.2625
  196MOL0     H25867   4.958   3.731   8.506  2.6020  0.9085 -0.6846
  196MOL0     H25868   5.154   3.599   8.686 -1.7983 -1.3939 -2.1345
  196MOL0     H25869   5.183   3.645   8.515 -1.0799 -1.4856 -0.8028
  196MOL0     H25870   5.289   4.009   8.695  0.7248  0.8937 -0.9636
  196MOL0     H25871   4.624   3.265   8.418  0.6849 -0.3678  1.3635
  196MOL0     H25872   4.399   3.240   8.338  1.7803 -1.5503  0.2434
  197MOL0     O25873   2.219   8.396   4.588  0.2463 -0.4873  0.5405
  197MOL0     C25874   2.186   8.405   4.709 -0.5595 -0.2235  0.1495
  197MOL0     O25875   2.062   8.376   4.769 -0.1725  0.0222 -0.0808
  197MOL0     C25876   1.941   8.353   4.704  0.6969  0.0036  0.1636
  197MOL0     C25877   1.917   8.339   4.564  0.3533  0.1558  0.9868
  197MOL0     C25878   1.795   8.308   4.498 -0.5083  0.5312  0.1558
  197MOL0     C25879   1.690   8.282   4.582  0.4468 -0.3120  0.0428
  197MOL0     O25880   1.580   8.227   4.521 -0.1835  0.3846 -0.1586
  197MOL0     C25881   1.451   8.262   4.576  0.9125 -0.0219  0.0924
  197MOL0     C25882   1.349   8.165   4.515  0.3906  0.3182 -1.1616
  197MOL0     C25883   1.385   8.021   4.539  1.3214  0.9990 -0.3351
  197MOL0     C25884   1.273   7.930   4.509  0.7399  0.1227  0.5427
  197MOL0     C25885   1.219   7.966   4.369 -0.0467  0.4793 -0.0783
  197MOL0     C25886   1.113   7.865   4.310 -0.5643  0.2149 -0.1807
  197MOL0     C25887   1.037   7.930   4.186 -0.3024 -0.5355  0.0147
  197MOL0     C25888   1.141   7.961   4.074  0.5058 -0.3176  0.4688
  197MOL0     N25889   1.191   7.836   4.011  0.6213  0.2390 -1.1108
  197MOL0     C25890   1.300   7.761   4.051  0.5257 -0.3090 -0.4647
  197MOL0     C25891   1.334   7.673   3.947  0.3726 -1.0141 -0.1425
  197MOL0     C25892   1.455   7.588   3.941 -0.6982 -1.0302  0.5487
  197MOL0     C25893   1.476   7.478   4.052 -0.9462 -0.5284  0.0364
  197MOL0     C25894   1.623   7.426   4.045  0.1663 -0.0379 -0.1612
  197MOL0     C25895   1.649   7.345   3.916  0.5234  0.1977  0.3665
  197MOL0     O25896   1.736   7.244   3.958 -0.3163  0.2337  0.1991
  197MOL0     C25897   1.870   7.264   3.978 -0.4872 -0.6372 -0.6073
  197MOL0     C25898   1.943   7.383   3.952 -0.5382 -0.1975 -0.0791
  197MOL0     C25899   2.081   7.382   3.978  0.3323  0.1651 -0.0480
  197MOL0     C25900   2.146   7.265   4.037  0.0731  0.0104 -0.0934
  197MOL0     C25901   2.281   7.251   4.092  0.0770 -0.4903  0.3020
  197MOL0     O25902   2.346   7.371   4.087 -0.5572  0.2835 -0.8799
  197MOL0     C25903   2.482   7.398   4.121  0.3025  0.7842  0.0347
  197MOL0     C25904   2.535   7.349   4.232 -0.5345 -0.1279  0.0148
  197MOL0     C25905   2.663   7.378   4.279 -0.3624 -0.1012 -0.2699
  197MOL0     C25906   2.745   7.447   4.190 -0.6299  0.0015  0.2570
  197MOL0     O25907   2.879   7.476   4.211 -0.6984  0.4011  0.1489
  197MOL0     C25908   2.955   7.364   4.260 -0.1304  0.2194 -0.6233
  197MOL0     C25909   3.103   7.376   4.220 -0.1430 -0.3359 -0.7218
  197MOL0     C25910   3.174   7.481   4.294 -0.7027 -0.4508  1.4263
  197MOL0     C25911   3.324   7.477   4.247  0.6674 -0.0677  0.4528
  197MOL0     C25912   3.411   7.563   4.331 -0.1735 -0.4288  0.0254
  197MOL0     C25913   3.386   7.716   4.326 -0.0982  0.9238  0.6591
  197MOL0     C25914   3.386   7.798   4.205  0.9830 -1.0549  0.5869
  197MOL0     C25915   3.526   7.829   4.155 -0.1574 -0.1862  1.2642
  197MOL0    Cl25916   3.571   7.702   4.047 -0.1647  0.5151 -0.0502
  197MOL0     C25917   2.688   7.508   4.077  0.0867  0.7852 -0.8436
  197MOL0     C25918   2.551   7.483   4.037 -0.8051  0.1975 -0.0766
  197MOL0     O25919   2.324   7.147   4.128 -0.1265 -0.1493 -0.3952
  197MOL0     C25920   2.063   7.155   4.067 -0.2290  0.3554 -0.4814
  197MOL0     C25921   1.934   7.151   4.029 -0.6652  0.4790  0.1350
  197MOL0     N25922   1.245   7.694   3.846  0.1346 -0.2329 -0.2684
  197MOL0     N25923   1.157   7.790   3.883 -0.1736 -0.3424  0.0264
  197MOL0     C25924   1.706   8.292   4.723 -0.0692 -0.2810  0.0893
  197MOL0     C25925   1.827   8.324   4.782  0.5433  0.0009  0.9610
  197MOL0     C25926   2.304   8.441   4.795  0.3921 -0.2754  0.4527
  197MOL0     C25927   2.435   8.421   4.757  0.3626 -1.0151  0.5278
  197MOL0     C25928   2.534   8.438   4.853  0.3068  0.2612 -0.8864
  197MOL0     C25929   2.508   8.466   4.981 -0.4004  0.3670 -0.6711
  197MOL0     O25930   2.593   8.488   5.082  0.1412  0.8010  0.2093
  197MOL0     C25931   2.729   8.520   5.060 -0.4700 -0.5358  0.4080
  197MOL0     C25932   2.745   8.674   5.055 -0.2967  0.7335  0.4829
  197MOL0     C25933   2.842   8.706   5.163 -0.0456  1.0948  0.6237
  197MOL0     C25934   2.983   8.663   5.146 -0.0727 -0.4438  0.9404
  197MOL0     C25935   3.005   8.535   5.219 -0.5108 -0.6759  0.0915
  197MOL0     C25936   3.024   8.424   5.260  0.0835  0.3734  0.0713
  197MOL0     C25937   2.380   8.471   5.025  0.2827  0.7305  0.2516
  197MOL0     C25938   2.274   8.461   4.934  0.4266 -0.4103 -0.7077
  197MOL0     H25939   1.997   8.346   4.490 -1.0399 -0.2585 -0.6203
  197MOL0     H25940   1.787   8.314   4.390 -1.5981 -0.8049  0.1281
  197MOL0     H25941   1.433   8.359   4.529 -0.9652 -0.7139 -0.6871
  197MOL0     H25942   1.434   8.262   4.684  1.2749  1.3868  0.1676
  197MOL0     H25943   1.355   8.187   4.408  0.1841 -0.9257 -1.4464
  197MOL0     H25944   1.252   8.181   4.564  1.0039 -2.0599  1.0394
  197MOL0     H25945   1.413   8.014   4.644  1.9923  2.6926 -0.3760
  197MOL0     H25946   1.476   7.985   4.489 -0.1289 -1.7626 -1.2347
  197MOL0     H25947   1.299   7.825   4.502  0.2748  0.0967 -2.4326
  197MOL0     H25948   1.193   7.942   4.583  1.8538  2.6773  1.4690
  197MOL0     H25949   1.308   7.982   4.307 -0.3211  0.7517 -0.4131
  197MOL0     H25950   1.167   8.062   4.367 -1.2801 -0.1491  0.7236
  197MOL0     H25951   1.037   7.845   4.386 -0.7344  0.3813 -0.3042
  197MOL0     H25952   1.150   7.767   4.281 -0.0879  0.1471  0.6154
  197MOL0     H25953   0.962   7.856   4.156  0.8562 -1.3818 -0.9185
  197MOL0     H25954   0.982   8.014   4.227 -1.0464 -0.7724 -0.4819
  197MOL0     H25955   1.217   8.027   4.116 -1.6056  2.5336  0.1002
  197MOL0     H25956   1.086   8.020   4.000 -0.8389 -1.2111  0.7072
  197MOL0     H25957   1.360   7.776   4.140 -0.1137  0.6440 -0.1777
  197MOL0     H25958   1.545   7.649   3.947 -0.3033 -1.6512  1.1415
  197MOL0     H25959   1.447   7.538   3.844  0.0804  2.2699 -1.3533
  197MOL0     H25960   1.406   7.395   4.051  0.3880 -1.6908 -0.8381
  197MOL0     H25961   1.464   7.534   4.146 -1.8433  0.7144 -0.7833
  197MOL0     H25962   1.693   7.510   4.042  1.5084 -1.1270 -0.6497
  197MOL0     H25963   1.637   7.360   4.132  3.8337 -0.6274 -1.0401
  197MOL0     H25964   1.690   7.398   3.829  0.6037 -0.4280  0.0178
  197MOL0     H25965   1.555   7.302   3.881 -0.7010  1.2667  2.1977
  197MOL0     H25966   1.897   7.477   3.921  2.5302  2.2450  2.0654
  197MOL0     H25967   2.129   7.479   3.968  0.1691  0.5973  2.6626
  197MOL0     H25968   2.483   7.285   4.304 -0.0353  1.3453  1.7708
  197MOL0     H25969   2.701   7.339   4.373  0.2640 -2.2833 -1.3694
  197MOL0     H25970   2.916   7.276   4.208 -3.4984  1.9863 -1.3801
  197MOL0     H25971   2.945   7.341   4.366 -0.5367  3.1139  0.0400
  197MOL0     H25972   3.113   7.389   4.112 -0.6596  0.1927 -0.7109
  197MOL0     H25973   3.143   7.275   4.233  2.7374  0.4527 -2.5873
  197MOL0     H25974   3.175   7.456   4.401  2.5168 -3.9001  0.7979
  197MOL0     H25975   3.140   7.581   4.267  2.7182  1.1627  2.5487
  197MOL0     H25976   3.352   7.372   4.259  0.1351 -0.1902  0.6682
  197MOL0     H25977   3.334   7.513   4.144  0.4217  2.4740  1.2554
  197MOL0     H25978   3.514   7.552   4.296  0.1443  1.0187  0.4453
  197MOL0     H25979   3.402   7.519   4.430 -0.6329 -3.5639 -1.2953
  197MOL0     H25980   3.466   7.751   4.392 -0.3984 -2.3156  2.9584
  197MOL0     H25981   3.292   7.741   4.374  1.3654  3.2345  2.5435
  197MOL0     H25982   3.323   7.756   4.126 -1.3870  4.7911 -1.1684
  197MOL0     H25983   3.334   7.893   4.212 -2.3612 -2.2239 -3.6506
  197MOL0     H25984   3.597   7.831   4.237  2.6788  3.7826 -0.9533
  197MOL0     H25985   3.535   7.918   4.092  1.0397 -1.7667 -0.9786
  197MOL0     H25986   2.731   7.594   4.026  2.4366  0.8389  1.0419
  197MOL0     H25987   2.503   7.536   3.956  0.1432  0.5643 -0.4180
  197MOL0     H25988   2.107   7.068   4.115 -0.5591  0.6879  0.4496
  197MOL0     H25989   1.874   7.061   4.039 -0.1747  0.2157  0.7940
  197MOL0     H25990   1.622   8.275   4.789 -1.8239  0.3058 -1.8508
  197MOL0     H25991   1.836   8.323   4.890  1.9627  0.6244  0.8750
  197MOL0     H25992   2.461   8.397   4.654 -0.9349 -3.3947  0.6664
  197MOL0     H25993   2.633   8.422   4.811 -0.5465 -2.2737 -2.1234
  197MOL0     H25994   2.757   8.482   4.962 -2.7271  1.3548 -1.0864
  197MOL0     H25995   2.784   8.479   5.146 -0.3830  2.7613  2.0610
  197MOL0     H25996   2.799   8.692   4.962 -1.0564  0.0541 -0.1094
  197MOL0     H25997   2.648   8.725   5.055 -0.0076  1.2906  1.0147
  197MOL0     H25998   2.795   8.673   5.256 -0.5986 -1.6833 -0.5434
  197MOL0     H25999   2.851   8.815   5.167 -1.3858  1.1915  1.6099
  197MOL0     H26000   3.014   8.665   5.041  0.7519  2.5391  1.1444
  197MOL0     H26001   3.043   8.742   5.193 -0.7914 -0.0697  1.2483
  197MOL0     H26002   3.052   8.325   5.287 -1.2972 -0.5189 -1.6296
  197MOL0     H26003   2.370   8.503   5.129 -1.3619  1.4134 -0.0740
  197MOL0     H26004   2.170   8.485   4.952  1.0041  1.8725 -0.2138
  198MOL0     O26005   4.725   3.760   9.909 -0.7932  0.3365  0.0018
  198MOL0     C26006   4.695   3.638   9.901  0.3853  0.8092 -1.3602
  198MOL0     O26007   4.778   3.531   9.877 -0.9424  0.7482 -0.1543
  198MOL0     C26008   4.913   3.555   9.899 -0.5458  0.1116 -0.1533
  198MOL0     C26009   4.991   3.664   9.842  1.1595  0.2886 -0.1565
  198MOL0     C26010   5.131   3.677   9.861 -0.3342 -0.5053  0.3072
  198MOL0     C26011   5.201   3.577   9.939  0.6412  0.3941 -0.0821
  198MOL0     O26012   5.338   3.579   9.965  0.2878 -0.0828  0.2805
  198MOL0     C26013   5.405   3.682   9.900 -0.2031  0.3316 -0.0272
  198MOL0     C26014   5.536   3.677   9.981  0.3820  0.2953 -0.1911
  198MOL0     C26015   5.619   3.812   9.951  0.3826  0.2478  0.2713
  198MOL0     C26016   5.698   3.791   9.820  0.5490 -0.0485 -0.4179
  198MOL0     C26017   5.740   3.921   9.764  0.0784  0.4192 -0.3333
  198MOL0     C26018   5.840   4.017   9.839  0.6285  0.4775  0.1505
  198MOL0     C26019   5.895   4.125   9.746  0.0123 -0.0387 -0.5234
  198MOL0     C26020   5.973   4.081   9.622 -0.6761 -0.0351 -0.9356
  198MOL0     N26021   6.085   4.001   9.655  0.0276  1.2073  0.0829
  198MOL0     C26022   6.218   4.046   9.671 -0.6756  0.3072 -0.0792
  198MOL0     C26023   6.291   3.931   9.690 -0.3889  0.5658  0.7322
  198MOL0     C26024   6.445   3.930   9.709  0.3055  0.8645 -0.3605
  198MOL0     C26025   6.525   3.986   9.589  0.5868 -0.3012 -0.1300
  198MOL0     C26026   6.545   3.877   9.483  0.3424 -1.1008 -0.4112
  198MOL0     C26027   6.609   3.938   9.353 -0.2298  0.1689 -0.4932
  198MOL0     O26028   6.528   4.041   9.309 -0.1938 -0.7736 -0.0523
  198MOL0     C26029   6.405   4.008   9.253 -0.1520 -0.7411  0.0406
  198MOL0     C26030   6.366   3.895   9.177  0.1549 -0.3917  0.0639
  198MOL0     C26031   6.232   3.877   9.141 -0.4942  0.4206  0.1170
  198MOL0     C26032   6.130   3.961   9.177 -0.6189 -0.3655 -0.0583
  198MOL0     C26033   5.991   3.914   9.132 -0.1622  0.2028  0.8805
  198MOL0     O26034   5.895   3.978   9.198  0.1049  0.3845 -0.7929
  198MOL0     C26035   5.764   3.957   9.167  0.2838 -0.0447 -0.2098
  198MOL0     C26036   5.700   3.858   9.086 -0.1366  0.6740  0.6609
  198MOL0     C26037   5.562   3.848   9.071  0.0079  0.1159  0.2444
  198MOL0     C26038   5.475   3.935   9.133 -0.2329  0.8469  0.1552
  198MOL0     O26039   5.338   3.930   9.113  0.4535 -0.2819  0.4368
  198MOL0     C26040   5.265   3.809   9.136  0.3110  0.7427 -0.6900
  198MOL0     C26041   5.145   3.784   9.047 -0.2621  0.5253 -0.0417
  198MOL0     C26042   5.025   3.721   9.122  0.0464  0.9392 -0.4463
  198MOL0     C26043   5.053   3.596   9.220 -0.2599 -0.0956  0.0837
  198MOL0     C26044   4.943   3.543   9.309  0.1223  0.0763 -0.2489
  198MOL0     C26045   4.817   3.506   9.241 -0.4027  0.0047 -0.0440
  198MOL0     C26046   4.835   3.392   9.141  0.6828 -0.2623 -0.9244
  198MOL0     C26047   4.724   3.373   9.040 -0.2810 -0.1748  0.2680
  198MOL0    Cl26048   4.721   3.509   8.934  0.1069 -0.1064  0.1742
  198MOL0     C26049   5.534   4.033   9.209 -0.2151 -0.3498 -0.6838
  198MOL0     C26050   5.670   4.044   9.229 -0.5678 -1.3479  0.3564
  198MOL0     O26051   5.980   3.839   9.035  0.3221 -0.3546 -0.4637
  198MOL0     C26052   6.156   4.065   9.261 -1.0876 -0.0781 -0.1374
  198MOL0     C26053   6.299   4.087   9.294 -0.2421 -0.8249  0.0795
  198MOL0     N26054   6.201   3.822   9.676 -0.5406 -0.3962 -0.6302
  198MOL0     N26055   6.080   3.864   9.672 -0.2690 -0.0177 -0.4135
  198MOL0     C26056   5.128   3.468   9.987  0.0535  0.8741 -0.8503
  198MOL0     C26057   4.984   3.452   9.974  0.1278 -0.7029  0.4271
  198MOL0     C26058   4.545   3.606   9.906 -0.0484 -0.0063 -0.2738
  198MOL0     C26059   4.496   3.473   9.895 -0.3653 -0.0227 -0.3299
  198MOL0     C26060   4.356   3.444   9.904  0.2560  0.5830  0.4122
  198MOL0     C26061   4.266   3.546   9.937 -0.3091 -0.4532  0.1613
  198MOL0     O26062   4.136   3.520   9.957  1.1285  0.1502 -0.1969
  198MOL0     C26063   4.070   3.394   9.970 -0.0993 -0.0570  0.0556
  198MOL0     C26064   4.070   3.355  10.115  0.7339  0.9801 -0.2160
  198MOL0     C26065   4.060   3.203  10.129  0.5999 -0.4160  0.3481
  198MOL0     C26066   4.025   3.161  10.272 -0.0044 -0.7418 -1.0332
  198MOL0     C26067   4.133   3.214  10.369 -0.0414  0.3692 -0.4813
  198MOL0     C26068   4.214   3.266  10.438 -0.0350  0.0650 -0.8210
  198MOL0     C26069   4.316   3.674   9.946  0.4632 -0.5867 -0.3001
  198MOL0     C26070   4.448   3.710   9.924  0.0804 -0.3812  0.1604
  198MOL0     H26071   4.940   3.738   9.780 -0.7118 -0.3531  0.5472
  198MOL0     H26072   5.182   3.764   9.821 -2.8353  1.5915  1.3468
  198MOL0     H26073   5.358   3.779   9.914 -1.8414  0.0076 -2.6451
  198MOL0     H26074   5.436   3.675   9.796  0.4161 -0.3204  0.1865
  198MOL0     H26075   5.597   3.593   9.948  1.3602  1.8220 -2.5460
  198MOL0     H26076   5.513   3.660  10.087 -1.5097 -0.6070 -0.7054
  198MOL0     H26077   5.697   3.832  10.024  0.3057 -4.2864  1.9396
  198MOL0     H26078   5.552   3.898   9.958 -2.2019 -1.7729  2.6558
  198MOL0     H26079   5.788   3.731   9.838  0.8397  1.2283  3.2601
  198MOL0     H26080   5.635   3.729   9.755  0.2786 -0.3715  0.1476
  198MOL0     H26081   5.650   3.972   9.729 -0.3244  1.5498  2.1004
  198MOL0     H26082   5.787   3.888   9.671  1.7352 -0.8740  0.8971
  198MOL0     H26083   5.923   3.968   9.890  1.6582  2.5091  0.5231
  198MOL0     H26084   5.778   4.059   9.918  0.1835  0.2407 -0.0639
  198MOL0     H26085   5.812   4.188   9.713  0.6784  0.4604 -1.3007
  198MOL0     H26086   5.948   4.200   9.804 -0.3865 -1.0188  1.1636
  198MOL0     H26087   6.003   4.175   9.576  0.5205  0.6565  1.1417
  198MOL0     H26088   5.906   4.023   9.558 -0.5842 -2.6637  1.1766
  198MOL0     H26089   6.267   4.142   9.680 -0.9483  0.3229  1.8193
  198MOL0     H26090   6.484   3.830   9.732 -0.3914  1.2133  2.6481
  198MOL0     H26091   6.468   3.989   9.798 -0.9954 -0.0642  0.6304
  198MOL0     H26092   6.623   4.023   9.621 -1.2811  1.6131  4.1721
  198MOL0     H26093   6.467   4.069   9.547  2.1575  0.0012 -1.8477
  198MOL0     H26094   6.608   3.796   9.521 -0.5965 -1.6381  0.0557
  198MOL0     H26095   6.448   3.832   9.459 -2.5311  2.0667  3.6474
  198MOL0     H26096   6.629   3.871   9.269 -3.3559  0.7759 -1.8954
  198MOL0     H26097   6.706   3.982   9.378 -0.0729  1.6074 -3.2673
  198MOL0     H26098   6.430   3.809   9.163 -1.6538 -1.8232  0.3461
  198MOL0     H26099   6.214   3.803   9.063 -2.4794 -1.4188  2.1777
  198MOL0     H26100   5.752   3.797   9.013 -1.6744  3.4152 -2.9979
  198MOL0     H26101   5.530   3.789   8.986  0.3132  1.0069 -0.5029
  198MOL0     H26102   5.236   3.807   9.242 -2.9765 -1.3441 -1.4796
  198MOL0     H26103   5.333   3.724   9.128 -0.6809 -0.1053 -0.4017
  198MOL0     H26104   5.180   3.722   8.964 -2.5435 -0.1760 -0.5623
  198MOL0     H26105   5.111   3.876   8.999  4.1520  3.2095  1.3855
  198MOL0     H26106   4.951   3.698   9.045 -0.0170  1.0321 -0.4128
  198MOL0     H26107   4.969   3.790   9.186 -2.6266 -2.2248  0.9141
  198MOL0     H26108   5.102   3.521   9.158  1.2836  0.7380  0.2605
  198MOL0     H26109   5.127   3.622   9.296 -1.8516  1.0458  1.3406
  198MOL0     H26110   4.926   3.611   9.393 -0.5799 -1.2647  0.7439
  198MOL0     H26111   4.988   3.460   9.365  1.9958  2.1925  1.6333
  198MOL0     H26112   4.782   3.596   9.191  0.6833  1.0969  1.1073
  198MOL0     H26113   4.749   3.475   9.321 -0.0208  0.3630  0.4266
  198MOL0     H26114   4.935   3.406   9.099  0.4671  0.0449 -1.3485
  198MOL0     H26115   4.845   3.296   9.193 -1.7604 -0.3125 -0.4254
  198MOL0     H26116   4.628   3.365   9.092 -1.2944 -1.1374 -1.6270
  198MOL0     H26117   4.735   3.280   8.984 -2.2380 -0.3359  0.0832
  198MOL0     H26118   5.461   4.101   9.252  1.6523  0.8709  0.7008
  198MOL0     H26119   5.702   4.121   9.299 -0.3758  0.1697 -1.3392
  198MOL0     H26120   6.080   4.131   9.302 -1.6374  0.1743 -1.5148
  198MOL0     H26121   6.332   4.178   9.343 -1.1407  0.2795 -1.3113
  198MOL0     H26122   5.179   3.386  10.036 -3.5435  0.6702  3.1216
  198MOL0     H26123   4.915   3.373   9.997 -3.1004  1.8586  0.2644
  198MOL0     H26124   4.567   3.392   9.882  0.4860  0.8578 -1.4188
  198MOL0     H26125   4.320   3.344   9.885 -1.0036  1.3526 -1.6000
  198MOL0     H26126   4.115   3.324   9.900  2.3061 -0.1948  1.6091
  198MOL0     H26127   3.967   3.414   9.941 -0.0973 -2.7470 -2.1606
  198MOL0     H26128   4.156   3.398  10.169 -1.4934  6.0116 -0.1101
  198MOL0     H26129   3.985   3.391  10.173  1.1484 -0.3721  1.2975
  198MOL0     H26130   4.151   3.161  10.086  0.0162 -1.2154 -0.1329
  198MOL0     H26131   3.979   3.160  10.069  0.3101 -0.4127  0.7348
  198MOL0     H26132   3.934   3.218  10.292  0.4995  0.4966 -2.1084
  198MOL0     H26133   4.009   3.054  10.283  2.2032 -1.0019  0.2780
  198MOL0     H26134   4.291   3.330  10.478  0.5690 -0.7367 -0.6698
  198MOL0     H26135   4.230   3.736   9.969 -1.2400 -3.0494  0.4692
  198MOL0     H26136   4.474   3.813   9.942  0.2345 -0.5586  0.9992
  199MOL0     O26137   2.679   9.146   7.319  0.0825  0.8362 -0.7771
  199MOL0     C26138   2.565   9.161   7.356  0.0649 -0.1199 -0.2229
  199MOL0     O26139   2.523   9.176   7.487 -0.1824 -1.0953  0.0352
  199MOL0     C26140   2.617   9.191   7.583  0.7937  0.0566 -0.4022
  199MOL0     C26141   2.583   9.117   7.695  0.2905  0.1690 -0.4559
  199MOL0     C26142   2.668   9.137   7.805  0.1008  0.2405 -0.2167
  199MOL0     C26143   2.773   9.235   7.811 -0.3346 -0.0736 -0.4840
  199MOL0     O26144   2.860   9.261   7.913  0.2576 -0.1200 -0.1805
  199MOL0     C26145   2.833   9.202   8.046 -0.1253 -0.2335 -0.5324
  199MOL0     C26146   2.959   9.238   8.121  0.3327 -0.1680  0.3604
  199MOL0     C26147   2.965   9.379   8.175  0.2286  0.2690 -0.4878
  199MOL0     C26148   2.860   9.410   8.275  0.6640  0.7233  0.0930
  199MOL0     C26149   2.847   9.557   8.320  0.6897  0.5964  0.4782
  199MOL0     C26150   2.735   9.585   8.421  0.0178  0.7768 -0.2718
  199MOL0     C26151   2.717   9.740   8.438 -0.4980  0.3475  0.4263
  199MOL0     C26152   2.627   9.791   8.324 -0.5891  0.3539 -0.4477
  199MOL0     N26153   2.563   9.926   8.352 -0.2342  0.2220  0.2447
  199MOL0     C26154   2.453   9.955   8.416  0.1323 -0.3040 -0.7309
  199MOL0     C26155   2.421  10.081   8.381 -0.2232  0.3200  0.1904
  199MOL0     C26156   2.325  10.174   8.445 -0.5506  0.9200  0.3307
  199MOL0     C26157   2.391  10.285   8.519 -0.4376 -0.6959 -0.3603
  199MOL0     C26158   2.291  10.385   8.582 -0.0082  0.0047 -0.1548
  199MOL0     C26159   2.180  10.335   8.680 -0.8426 -0.5002 -0.2932
  199MOL0     O26160   2.105  10.447   8.720  1.2298 -0.4103  0.5209
  199MOL0     C26161   1.968  10.442   8.694 -0.8563 -0.4554  0.1140
  199MOL0     C26162   1.942  10.410   8.558 -0.2214  0.4867  0.2566
  199MOL0     C26163   1.817  10.407   8.516  0.8346 -0.2253  0.0179
  199MOL0     C26164   1.706  10.405   8.602 -0.8690 -0.7115  0.6837
  199MOL0     C26165   1.571  10.366   8.552  0.1453  0.4125  0.4428
  199MOL0     O26166   1.548  10.376   8.420  0.5194 -0.5731 -0.5585
  199MOL0     C26167   1.417  10.374   8.380 -0.6931 -0.0969  0.3715
  199MOL0     C26168   1.345  10.262   8.398  0.0810  0.7498  0.4223
  199MOL0     C26169   1.220  10.257   8.335  0.4401  0.2341 -0.7344
  199MOL0     C26170   1.174  10.373   8.274 -1.2027  0.5053  0.0992
  199MOL0     O26171   1.049  10.351   8.223 -0.2645 -0.3117  0.6186
  199MOL0     C26172   0.948  10.457   8.248  0.4304  0.5578 -0.0434
  199MOL0     C26173   0.814  10.441   8.160 -0.5836 -0.0056 -0.0251
  199MOL0     C26174   0.722  10.331   8.225 -0.1863  0.2564  0.0172
  199MOL0     C26175   0.769  10.192   8.198 -1.0333 -0.0723 -0.5137
  199MOL0     C26176   0.653  10.090   8.216  0.2464  0.3338 -0.3903
  199MOL0     C26177   0.606  10.040   8.075 -0.3543 -0.6462 -0.2485
  199MOL0     C26178   0.486   9.935   8.070 -0.5057 -0.5780 -0.3431
  199MOL0     C26179   0.490   9.825   8.176 -0.5118 -0.5455 -0.6679
  199MOL0    Cl26180   0.353   9.712   8.147 -0.2633 -0.0413  0.3418
  199MOL0     C26181   1.242  10.491   8.258 -0.2590 -0.3808  0.5680
  199MOL0     C26182   1.372  10.489   8.317  0.4718  0.4188  0.6460
  199MOL0     O26183   1.486  10.332   8.626  0.0641  0.5685  0.0136
  199MOL0     C26184   1.732  10.420   8.743 -0.6997 -1.0977  0.2542
  199MOL0     C26185   1.864  10.451   8.781  0.3301  0.0279  0.2776
  199MOL0     N26186   2.503  10.127   8.284 -1.0225  0.2459 -0.1627
  199MOL0     N26187   2.589  10.032   8.264  0.1817  0.0076  1.2320
  199MOL0     C26188   2.798   9.308   7.697 -0.7655  0.8839 -0.4504
  199MOL0     C26189   2.712   9.288   7.588  0.7316 -0.1673 -0.4075
  199MOL0     C26190   2.450   9.159   7.260  0.2303  0.5553  0.3117
  199MOL0     C26191   2.319   9.115   7.299  0.2500  0.1017 -0.7402
  199MOL0     C26192   2.211   9.110   7.210 -0.2173  0.3722 -0.4288
  199MOL0     C26193   2.231   9.155   7.079  0.0193 -0.3098 -0.8107
  199MOL0     O26194   2.132   9.170   6.983 -0.2114  0.3819 -0.0082
  199MOL0     C26195   2.031   9.260   7.016  0.5008 -0.4388 -0.3830
  199MOL0     C26196   1.954   9.299   6.888 -0.1506  0.1652 -1.0901
  199MOL0     C26197   1.886   9.432   6.889  0.3050 -0.3926 -0.4858
  199MOL0     C26198   1.789   9.454   6.774 -0.5324  0.4131 -0.6897
  199MOL0     C26199   1.657   9.401   6.786 -0.1224 -0.3690 -0.4529
  199MOL0     C26200   1.546   9.352   6.790  1.3000 -0.5245  0.4327
  199MOL0     C26201   2.357   9.181   7.033  0.3480  1.0231 -1.0279
  199MOL0     C26202   2.469   9.167   7.124 -0.4876  0.2927  0.2992
  199MOL0     H26203   2.513   9.035   7.683 -1.2123  1.1789  0.9786
  199MOL0     H26204   2.647   9.087   7.899  0.5101 -0.1637 -0.3363
  199MOL0     H26205   2.815   9.096   8.028 -0.5928 -0.5674  1.5965
  199MOL0     H26206   2.742   9.244   8.089  0.0890 -1.1275  0.8574
  199MOL0     H26207   3.051   9.216   8.066  1.2989  0.1991  1.7500
  199MOL0     H26208   2.956   9.182   8.216  1.3574 -2.0733 -0.6630
  199MOL0     H26209   2.956   9.453   8.095 -2.4470 -0.2720 -0.7681
  199MOL0     H26210   3.066   9.396   8.215  0.0783 -1.0442  0.5480
  199MOL0     H26211   2.758   9.379   8.251  0.0402 -0.3158  3.5638
  199MOL0     H26212   2.888   9.348   8.360  1.2870  1.9348  0.8104
  199MOL0     H26213   2.832   9.608   8.224 -0.0114 -1.2443 -0.4287
  199MOL0     H26214   2.946   9.590   8.352  1.2166  2.6604 -2.7573
  199MOL0     H26215   2.771   9.533   8.511  1.0568 -1.6230 -1.9485
  199MOL0     H26216   2.650   9.530   8.380  2.8919 -2.9698 -1.9241
  199MOL0     H26217   2.660   9.743   8.532 -0.4298  1.2551  0.4407
  199MOL0     H26218   2.810   9.795   8.450 -0.8571  1.3020 -0.9781
  199MOL0     H26219   2.546   9.719   8.310 -0.7864  0.4626  0.1233
  199MOL0     H26220   2.679   9.800   8.228  1.2004 -1.2722  0.2973
  199MOL0     H26221   2.391   9.896   8.483  0.7674 -0.1079  0.0536
  199MOL0     H26222   2.254  10.116   8.504 -1.5566  0.6805 -1.0619
  199MOL0     H26223   2.270  10.225   8.364  1.9644 -1.4974 -3.2001
  199MOL0     H26224   2.440  10.338   8.437 -3.5091 -1.4515 -2.8865
  199MOL0     H26225   2.460  10.251   8.597  0.8808  0.4174 -0.9911
  199MOL0     H26226   2.353  10.463   8.627 -1.4782  1.1869 -0.0965
  199MOL0     H26227   2.232  10.427   8.500  0.0775  3.5750  1.4271
  199MOL0     H26228   2.228  10.284   8.764 -0.0566  0.4075 -0.1825
  199MOL0     H26229   2.119  10.255   8.637 -1.4564 -0.8772  1.2270
  199MOL0     H26230   2.019  10.392   8.485  1.1559  0.8526  1.5644
  199MOL0     H26231   1.792  10.388   8.412 -1.8958  0.2964  0.4979
  199MOL0     H26232   1.393  10.175   8.440 -0.8574 -0.3678 -0.7600
  199MOL0     H26233   1.169  10.162   8.337 -0.1800  0.5082  2.4400
  199MOL0     H26234   0.983  10.560   8.241 -1.1349  1.0903 -0.4800
  199MOL0     H26235   0.920  10.452   8.353  1.9733  2.2156  0.4986
  199MOL0     H26236   0.834  10.408   8.058 -1.7245 -0.2916 -0.1678
  199MOL0     H26237   0.760  10.536   8.153  1.5554  1.1604 -2.2013
  199MOL0     H26238   0.623  10.349   8.183 -1.4216  0.8100  2.9376
  199MOL0     H26239   0.707  10.358   8.330 -0.1868 -1.4517  0.4859
  199MOL0     H26240   0.813  10.198   8.098 -0.8167  0.5611 -0.3857
  199MOL0     H26241   0.852  10.170   8.265 -1.1000 -1.5907 -0.8899
  199MOL0     H26242   0.572  10.136   8.272  2.2715  1.4131  1.8487
  199MOL0     H26243   0.701  10.010   8.273  1.8516  0.2867 -1.7078
  199MOL0     H26244   0.695   9.996   8.029  0.7726  0.6339  0.6123
  199MOL0     H26245   0.580  10.125   8.012 -0.7410 -0.1066  0.6109
  199MOL0     H26246   0.394   9.987   8.097  0.7524  0.5287  2.1409
  199MOL0     H26247   0.476   9.891   7.970 -0.6508  1.4708 -1.2984
  199MOL0     H26248   0.481   9.860   8.279  0.6867 -1.6595 -0.1541
  199MOL0     H26249   0.581   9.766   8.161 -0.8690 -1.4191  0.4564
  199MOL0     H26250   1.193  10.584   8.233  0.6392 -0.6644 -2.6623
  199MOL0     H26251   1.417  10.588   8.318  2.0195 -0.2140  3.1050
  199MOL0     H26252   1.651  10.419   8.814 -1.2289  0.4235 -0.2828
  199MOL0     H26253   1.887  10.462   8.887 -0.9448 -0.8902  0.6776
  199MOL0     H26254   2.883   9.375   7.700 -1.8959  2.3348  0.7986
  199MOL0     H26255   2.727   9.346   7.498 -1.0469 -2.5626 -2.3936
  199MOL0     H26256   2.307   9.099   7.406  0.1419 -0.3009 -0.8086
  199MOL0     H26257   2.107   9.094   7.238 -0.3636  1.8988  0.0269
  199MOL0     H26258   2.080   9.349   7.056 -0.8284 -0.3100  1.0381
  199MOL0     H26259   1.969   9.211   7.092  3.1889  0.2172  2.4603
  199MOL0     H26260   2.023   9.299   6.803  0.5127 -0.8133 -0.5676
  199MOL0     H26261   1.880   9.219   6.876  1.7417 -2.1583  1.4693
  199MOL0     H26262   1.953   9.517   6.872 -1.9563  1.4251 -0.9293
  199MOL0     H26263   1.830   9.431   6.983 -1.1620  0.3735 -1.2931
  199MOL0     H26264   1.777   9.561   6.753  2.1882  1.8164  3.5701
  199MOL0     H26265   1.834   9.410   6.684  0.9422  0.2811  0.0793
  199MOL0     H26266   1.442   9.327   6.797  0.8489  0.9589 -0.5738
  199MOL0     H26267   2.379   9.201   6.929 -1.5098 -0.7072 -1.8207
  199MOL0     H26268   2.568   9.188   7.085 -0.5533  0.7804  0.3859
  200MOL0     O26269   3.483   7.379   5.123  0.2917  0.2636 -0.6152
  200MOL0     C26270   3.500   7.501   5.134  0.0262 -0.1955  0.6787
  200MOL0     O26271   3.398   7.597   5.136  0.2585  1.1948 -0.0052
  200MOL0     C26272   3.263   7.560   5.145 -0.5058 -0.0568  0.6289
  200MOL0     C26273   3.212   7.432   5.191 -0.1009  0.0866 -0.1796
  200MOL0     C26274   3.076   7.413   5.199 -0.0646  0.6574  0.6318
  200MOL0     C26275   2.992   7.505   5.147 -0.1577  0.5105  0.8088
  200MOL0     O26276   2.860   7.466   5.152 -0.0102  0.0814  0.9667
  200MOL0     C26277   2.761   7.559   5.130 -0.4748 -0.0751 -0.4464
  200MOL0     C26278   2.626   7.486   5.156 -0.4096 -1.1785 -0.9261
  200MOL0     C26279   2.507   7.569   5.133  0.5911 -0.2572  1.0648
  200MOL0     C26280   2.376   7.497   5.162 -0.4006  0.5155 -0.4170
  200MOL0     C26281   2.252   7.590   5.158  0.3558  0.9799 -0.6189
  200MOL0     C26282   2.126   7.512   5.206  0.0974 -1.2056 -1.0212
  200MOL0     C26283   2.002   7.610   5.226 -0.8978  0.1158 -0.5446
  200MOL0     C26284   1.898   7.619   5.113 -0.5014  0.4447  0.2605
  200MOL0     N26285   1.955   7.709   5.002  0.0466 -0.1097  0.1308
  200MOL0     C26286   1.973   7.839   5.004 -0.2242 -0.7018  0.7298
  200MOL0     C26287   2.040   7.871   4.889  0.4196  1.2532  0.4574
  200MOL0     C26288   2.088   8.004   4.848 -0.0021 -0.5856  0.3874
  200MOL0     C26289   2.237   8.028   4.889  0.3326  0.3722 -0.2608
  200MOL0     C26290   2.281   8.003   5.035  0.3612  0.4434 -0.5531
  200MOL0     C26291   2.426   8.060   5.046 -0.4462  0.9511  0.2288
  200MOL0     O26292   2.492   8.001   5.150 -0.5398  0.0671 -0.0002
  200MOL0     C26293   2.634   8.012   5.150  0.0975  0.6918 -0.3867
  200MOL0     C26294   2.704   7.928   5.248 -0.7506  0.3154  0.0002
  200MOL0     C26295   2.851   7.926   5.248  0.8517 -0.0525 -0.2090
  200MOL0     C26296   2.926   8.020   5.173  0.1286 -0.0147  0.5327
  200MOL0     C26297   3.073   8.028   5.184 -0.3125  0.9596 -0.6318
  200MOL0     O26298   3.144   8.093   5.091 -0.8470 -0.4722  0.7830
  200MOL0     C26299   3.278   8.119   5.092 -0.6175 -0.0342  0.2214
  200MOL0     C26300   3.320   8.243   5.041  0.3067  1.2201 -0.6364
  200MOL0     C26301   3.450   8.278   5.060 -0.1616 -0.2251 -0.1739
  200MOL0     C26302   3.542   8.186   5.106 -0.6684  0.3399  0.2264
  200MOL0     O26303   3.670   8.234   5.118  0.4130  0.6174  0.7687
  200MOL0     C26304   3.776   8.134   5.081  0.7252 -0.0485  0.0878
  200MOL0     C26305   3.789   8.125   4.926 -0.3840 -0.0924 -0.1759
  200MOL0     C26306   3.815   8.270   4.865 -0.6083 -0.2011 -1.1069
  200MOL0     C26307   3.773   8.277   4.714  0.0087 -0.2725 -0.4905
  200MOL0     C26308   3.621   8.291   4.685  0.0602  0.1480 -0.7284
  200MOL0     C26309   3.603   8.324   4.542  0.2816  0.1566 -0.6085
  200MOL0     C26310   3.460   8.330   4.498 -0.1843  0.2341  0.2955
  200MOL0     C26311   3.449   8.377   4.358 -0.5803  0.0940 -0.4660
  200MOL0    Cl26312   3.521   8.268   4.237 -0.3488 -0.2615  0.5045
  200MOL0     C26313   3.501   8.055   5.133 -1.3217 -0.9729  0.4032
  200MOL0     C26314   3.371   8.018   5.125 -0.2776 -0.0328  0.6066
  200MOL0     O26315   3.119   7.966   5.276 -0.1432 -0.1073 -0.4036
  200MOL0     C26316   2.855   8.109   5.089 -0.3654  0.8563  1.3057
  200MOL0     C26317   2.717   8.101   5.077 -0.6753 -0.1261  0.4896
  200MOL0     N26318   2.057   7.751   4.817  0.2295 -0.3016 -0.6536
  200MOL0     N26319   1.997   7.656   4.882 -0.6966 -0.5064 -0.3036
  200MOL0     C26320   3.037   7.627   5.088  0.8125 -0.4808 -0.5718
  200MOL0     C26321   3.169   7.651   5.089 -0.4730  0.2288  0.3704
  200MOL0     C26322   3.637   7.542   5.155 -0.0785  0.3353  0.7992
  200MOL0     C26323   3.659   7.683   5.159 -0.9610 -0.0878 -1.4839
  200MOL0     C26324   3.793   7.728   5.155  0.4082 -0.9664 -0.3202
  200MOL0     C26325   3.901   7.641   5.146  0.2475 -0.3328 -0.2299
  200MOL0     O26326   4.034   7.680   5.158  0.0435 -0.4624  0.1373
  200MOL0     C26327   4.067   7.825   5.185 -1.0978  0.3069 -0.1699
  200MOL0     C26328   4.210   7.866   5.173 -0.2070  0.3063 -0.5484
  200MOL0     C26329   4.236   8.011   5.214 -0.4398  0.1084  0.0578
  200MOL0     C26330   4.361   8.034   5.289  0.2163  1.1838  0.7446
  200MOL0     C26331   4.351   7.974   5.426 -0.9447  0.4232 -0.0939
  200MOL0     C26332   4.337   7.928   5.536 -0.9641 -0.6357  0.0557
  200MOL0     C26333   3.876   7.500   5.132  0.0686  1.0817  0.0788
  200MOL0     C26334   3.743   7.454   5.137  0.5883 -0.1282 -1.0745
  200MOL0     H26335   3.276   7.356   5.234 -0.2383 -0.3500 -0.7417
  200MOL0     H26336   3.033   7.321   5.236  1.4607  0.1419  1.2011
  200MOL0     H26337   2.762   7.585   5.024 -2.9352 -2.4747 -1.1767
  200MOL0     H26338   2.790   7.639   5.198  1.6918  0.6806 -2.1635
  200MOL0     H26339   2.637   7.454   5.260  0.6995  2.6773  0.3145
  200MOL0     H26340   2.614   7.405   5.083 -2.2749  0.2777 -2.3374
  200MOL0     H26341   2.510   7.604   5.030  1.4036  0.9638  1.4757
  200MOL0     H26342   2.524   7.660   5.192  3.0188  1.5996 -2.2126
  200MOL0     H26343   2.366   7.407   5.100 -0.5777  1.1207 -1.2770
  200MOL0     H26344   2.387   7.461   5.265  0.6391  1.8587 -0.0248
  200MOL0     H26345   2.235   7.616   5.053 -0.7628 -1.2418 -1.0372
  200MOL0     H26346   2.265   7.673   5.229 -1.2868 -1.0159  2.2277
  200MOL0     H26347   2.153   7.462   5.299  1.2873  1.6330  0.2884
  200MOL0     H26348   2.095   7.434   5.136  2.3498 -2.8925 -0.2646
  200MOL0     H26349   1.958   7.552   5.308  0.2693  1.1798  0.8822
  200MOL0     H26350   2.043   7.704   5.263  1.4192 -0.5628 -1.1762
  200MOL0     H26351   1.803   7.659   5.150 -0.4088 -0.9485  2.2097
  200MOL0     H26352   1.873   7.518   5.079 -0.2516 -0.0763  1.5482
  200MOL0     H26353   1.947   7.901   5.089 -0.9692 -1.3142  0.9557
  200MOL0     H26354   2.015   8.069   4.899  0.5257 -0.5927  1.1676
  200MOL0     H26355   2.068   8.009   4.741 -3.6843 -0.0546  0.9345
  200MOL0     H26356   2.245   8.136   4.872 -2.7083  0.4267 -2.0140
  200MOL0     H26357   2.306   7.981   4.818  1.3513  1.8147 -0.2876
  200MOL0     H26358   2.220   8.047   5.114  2.8223 -0.5872  2.1328
  200MOL0     H26359   2.292   7.895   5.051 -1.3087  0.0731 -1.6936
  200MOL0     H26360   2.422   8.169   5.060 -0.2286  1.1426 -1.0565
  200MOL0     H26361   2.469   8.046   4.946  0.7178  0.3173  0.7980
  200MOL0     H26362   2.649   7.867   5.319  0.1754 -2.0590 -1.1843
  200MOL0     H26363   2.891   7.853   5.317  0.2280  0.3661  0.6037
  200MOL0     H26364   3.245   8.314   5.006 -0.0371  1.6548  0.8973
  200MOL0     H26365   3.473   8.384   5.060  0.7418 -0.4148  0.0957
  200MOL0     H26366   3.758   8.033   5.119 -1.9218  0.1276 -0.4792
  200MOL0     H26367   3.869   8.174   5.124 -0.5463  1.6483  1.4357
  200MOL0     H26368   3.707   8.073   4.876 -0.6606 -3.4399  3.2956
  200MOL0     H26369   3.873   8.056   4.912  1.2751  1.9179 -0.8182
  200MOL0     H26370   3.922   8.287   4.882 -0.6234 -2.3420  1.9760
  200MOL0     H26371   3.760   8.344   4.923  0.3818  1.2899 -1.9981
  200MOL0     H26372   3.819   8.365   4.667  1.3142 -0.6318  0.0649
  200MOL0     H26373   3.802   8.187   4.659  1.1155 -1.0766  1.3094
  200MOL0     H26374   3.582   8.373   4.745  2.1363 -1.0019  2.4728
  200MOL0     H26375   3.573   8.194   4.703  0.7837 -0.0782  0.0525
  200MOL0     H26376   3.655   8.239   4.496  4.7872 -0.0016  3.8665
  200MOL0     H26377   3.649   8.420   4.520 -2.0058  1.4526 -0.0913
  200MOL0     H26378   3.410   8.234   4.511 -2.0242  0.7452 -2.1943
  200MOL0     H26379   3.415   8.402   4.567 -1.6148 -0.1955 -0.1615
  200MOL0     H26380   3.505   8.470   4.346 -0.3173 -0.1885 -1.6195
  200MOL0     H26381   3.344   8.383   4.328 -0.5558  0.2806 -0.5127
  200MOL0     H26382   3.559   7.969   5.165  2.0314 -0.5901 -3.7881
  200MOL0     H26383   3.335   7.916   5.129 -4.3284  1.1259 -0.9480
  200MOL0     H26384   2.894   8.194   5.035 -0.6622  1.4614  2.0205
  200MOL0     H26385   2.678   8.175   5.008 -0.0597  0.8340  1.1395
  200MOL0     H26386   2.963   7.689   5.036 -1.3294 -1.1677  1.4806
  200MOL0     H26387   3.209   7.738   5.037 -1.2140  0.4080  0.0788
  200MOL0     H26388   3.572   7.747   5.149 -1.6627 -0.8472 -0.4339
  200MOL0     H26389   3.811   7.833   5.172  0.4876 -0.4882 -3.0209
  200MOL0     H26390   4.018   7.855   5.278 -2.0544  2.7016 -1.3637
  200MOL0     H26391   4.012   7.882   5.110  1.7378  1.6804 -1.3690
  200MOL0     H26392   4.278   7.804   5.233 -1.7029 -3.2633 -2.2321
  200MOL0     H26393   4.249   7.839   5.074 -1.0720  3.1112 -1.7425
  200MOL0     H26394   4.152   8.048   5.273  1.4489  1.7360  1.8532
  200MOL0     H26395   4.240   8.078   5.127 -0.1191  0.8453  0.6304
  200MOL0     H26396   4.435   7.981   5.228 -1.1930  0.3376 -0.3085
  200MOL0     H26397   4.387   8.140   5.292  1.0972  0.9591  1.1948
  200MOL0     H26398   4.319   7.872   5.626  0.7637 -1.3440 -0.0094
  200MOL0     H26399   3.959   7.431   5.120 -1.4191 -0.6666 -0.6003
  200MOL0     H26400   3.727   7.347   5.129  0.4537 -0.2700  0.6716
  201MOL0     O26401  10.360   7.622   0.088 -0.2580 -0.4140  0.5773
  201MOL0     C26402  10.470   7.635   0.042 -0.5853  0.7265  0.4418
  201MOL0     O26403  10.517   7.732  -0.036 -0.3041 -0.0116  0.4891
  201MOL0     C26404  10.426   7.812  -0.103 -0.3193  0.2662 -1.1813
  201MOL0     C26405  10.368   7.917  -0.039 -0.1282  0.7881 -0.1475
  201MOL0     C26406  10.282   8.001  -0.098 -0.2284 -0.1517  0.9328
  201MOL0     C26407  10.232   7.981  -0.226  0.0680  0.2613  0.6011
  201MOL0     O26408  10.141   8.071  -0.279  0.2052 -0.0119  0.3736
  201MOL0     C26409  10.119   8.058  -0.418 -0.5064  0.1489 -0.5514
  201MOL0     C26410  10.022   8.154  -0.488  0.4332  0.4030  0.5679
  201MOL0     C26411   9.883   8.157  -0.427 -0.1449  0.5648  0.3531
  201MOL0     C26412   9.798   8.268  -0.477  0.2869  0.0567 -0.1589
  201MOL0     C26413   9.666   8.266  -0.397 -0.5530 -0.4157  0.0516
  201MOL0     C26414   9.602   8.408  -0.394  0.1778 -0.5295  0.9941
  201MOL0     C26415   9.463   8.394  -0.331 -0.0310 -0.2735  0.9054
  201MOL0     C26416   9.464   8.355  -0.190  0.0736 -0.1447 -0.1335
  201MOL0     N26417   9.325   8.361  -0.142  0.1311  0.6851  0.3042
  201MOL0     C26418   9.248   8.251  -0.099 -0.8168 -0.9348  0.5565
  201MOL0     C26419   9.135   8.293  -0.055  0.0673 -0.0659 -0.0626
  201MOL0     C26420   9.015   8.202  -0.024  0.0570 -0.3503 -0.1085
  201MOL0     C26421   8.991   8.160   0.121  0.3868 -0.8561  0.0879
  201MOL0     C26422   9.099   8.070   0.172  0.4425 -0.0527  0.6875
  201MOL0     C26423   9.117   8.062   0.327  0.3615 -0.1055 -0.5548
  201MOL0     O26424   8.979   8.040   0.382 -1.1571 -0.1712 -0.0466
  201MOL0     C26425   8.949   8.100   0.502 -0.7112  0.3242 -0.2404
  201MOL0     C26426   8.835   8.177   0.505 -0.2816 -0.3592 -0.1530
  201MOL0     C26427   8.819   8.262   0.614  0.0658 -0.4313  0.6459
  201MOL0     C26428   8.917   8.276   0.719  0.9641  0.1188  1.1730
  201MOL0     C26429   8.905   8.367   0.842 -0.2188  0.7967 -0.8973
  201MOL0     O26430   8.815   8.461   0.831  0.0973  0.2168  0.1020
  201MOL0     C26431   8.786   8.543   0.944  0.2317 -0.5125  0.0458
  201MOL0     C26432   8.877   8.620   1.017  0.0483 -0.2532 -0.0793
  201MOL0     C26433   8.834   8.713   1.106 -0.9033 -0.4072  0.9429
  201MOL0     C26434   8.697   8.738   1.117  0.3800 -0.7875 -0.5396
  201MOL0     O26435   8.647   8.827   1.208  0.3733  0.6635 -0.0072
  201MOL0     C26436   8.735   8.912   1.274 -0.4064  0.5515 -0.2576
  201MOL0     C26437   8.656   9.002   1.368 -0.1988  0.2141 -0.2929
  201MOL0     C26438   8.553   9.093   1.294  0.4098 -0.0143  0.4817
  201MOL0     C26439   8.499   9.207   1.378 -0.4730  0.5502  0.7080
  201MOL0     C26440   8.389   9.287   1.300  0.5902 -0.1615 -0.9138
  201MOL0     C26441   8.236   9.230   1.313 -0.9234  0.2936  0.7089
  201MOL0     C26442   8.181   9.268   1.453 -0.5133 -0.0460  0.2138
  201MOL0     C26443   8.115   9.151   1.520  0.3137 -0.1096 -0.6421
  201MOL0    Cl26444   7.988   9.087   1.419  0.1424 -0.1382 -0.3099
  201MOL0     C26445   8.596   8.660   1.056 -0.2703  0.1972 -0.6891
  201MOL0     C26446   8.652   8.563   0.967  0.2738  0.6937  0.2172
  201MOL0     O26447   8.970   8.334   0.948  1.3468 -0.3850  0.2224
  201MOL0     C26448   9.024   8.193   0.707  0.1785 -0.5351 -0.2055
  201MOL0     C26449   9.040   8.108   0.601 -0.4018  0.3930 -0.3730
  201MOL0     N26450   9.139   8.431  -0.066 -0.6028  0.5093 -0.1582
  201MOL0     N26451   9.249   8.469  -0.105 -0.4744 -0.6123  0.8054
  201MOL0     C26452  10.294   7.875  -0.305 -0.0986  0.6970  1.3219
  201MOL0     C26453  10.389   7.792  -0.235  0.5058 -0.3033 -1.0495
  201MOL0     C26454  10.564   7.520   0.072 -0.0158 -0.4861 -0.5045
  201MOL0     C26455  10.553   7.435   0.185 -0.3848 -0.5397 -0.3621
  201MOL0     C26456  10.636   7.325   0.213  0.5085 -0.1781  0.4402
  201MOL0     C26457  10.736   7.294   0.120 -0.0263  0.2843 -0.2410
  201MOL0     O26458  10.816   7.182   0.145  0.5363  0.0661  0.2370
  201MOL0     C26459  10.810   7.081   0.045 -0.5395  0.6765 -0.1176
  201MOL0     C26460  10.687   6.988   0.077  0.2115  0.2868 -0.5356
  201MOL0     C26461  10.683   6.944   0.216  0.0948 -0.1493 -0.6614
  201MOL0     C26462  10.603   6.817   0.238 -0.8094  0.9917 -0.2615
  201MOL0     C26463  10.638   6.765   0.377  0.2807 -0.2210 -0.1712
  201MOL0     C26464  10.676   6.755   0.488 -0.5532 -0.3659 -0.7183
  201MOL0     C26465  10.745   7.375   0.015  0.1443  0.4997 -0.5912
  201MOL0     C26466  10.663   7.480  -0.016 -0.1153  0.4438  0.0741
  201MOL0     H26467  10.398   7.934   0.064 -0.7317  1.6094 -0.0953
  201MOL0     H26468  10.237   8.080  -0.040 -0.7275 -0.1620  0.5649
  201MOL0     H26469  10.075   7.959  -0.436 -1.5792  0.2615  1.1556
  201MOL0     H26470  10.214   8.064  -0.471 -0.3396 -1.0130 -0.4097
  201MOL0     H26471  10.021   8.135  -0.596 -1.9993  1.1294  0.3993
  201MOL0     H26472  10.071   8.252  -0.489  0.4422  0.5533  4.1433
  201MOL0     H26473   9.901   8.164  -0.319  0.2739  0.5941  0.2842
  201MOL0     H26474   9.828   8.066  -0.452 -0.2374  1.3203 -2.5342
  201MOL0     H26475   9.850   8.361  -0.454 -0.4741 -0.2027  3.0332
  201MOL0     H26476   9.770   8.260  -0.582 -0.3527  2.2851 -0.2038
  201MOL0     H26477   9.693   8.234  -0.297 -2.6226 -0.4455  0.6541
  201MOL0     H26478   9.597   8.190  -0.437  0.6850 -0.0342 -3.0870
  201MOL0     H26479   9.595   8.438  -0.499  1.1385 -1.8537  0.5260
  201MOL0     H26480   9.673   8.472  -0.340  2.7421 -1.3008 -1.2071
  201MOL0     H26481   9.419   8.494  -0.344  0.6813 -0.1104 -0.4542
  201MOL0     H26482   9.407   8.329  -0.399 -0.2016  0.8040 -0.0136
  201MOL0     H26483   9.536   8.413  -0.132 -1.0519 -0.5392  1.7310
  201MOL0     H26484   9.493   8.250  -0.200  0.2998 -0.0258 -0.8052
  201MOL0     H26485   9.277   8.146  -0.105 -1.8888 -1.1605 -1.4247
  201MOL0     H26486   9.023   8.111  -0.085 -1.6265 -0.5494 -0.0797
  201MOL0     H26487   8.935   8.264  -0.067  1.4929  1.0214 -0.9162
  201MOL0     H26488   8.890   8.119   0.115 -1.0769  2.4731 -0.1902
  201MOL0     H26489   8.981   8.254   0.176 -3.2791  0.5792 -2.5926
  201MOL0     H26490   9.070   7.970   0.139 -2.7252  0.7432  0.6647
  201MOL0     H26491   9.194   8.091   0.122 -1.8830  1.6189 -3.6296
  201MOL0     H26492   9.169   8.147   0.372 -1.8092  1.3104 -0.5991
  201MOL0     H26493   9.179   7.973   0.343 -1.1317 -0.8292  1.6707
  201MOL0     H26494   8.760   8.184   0.427 -0.6195  0.0574  0.1999
  201MOL0     H26495   8.729   8.322   0.619 -1.1336 -2.2012  1.4135
  201MOL0     H26496   8.983   8.617   0.994  0.0317  0.8054 -0.3194
  201MOL0     H26497   8.910   8.773   1.155 -0.7984  0.3306 -0.0927
  201MOL0     H26498   8.776   8.966   1.188 -1.7301 -5.3180 -5.2322
  201MOL0     H26499   8.818   8.868   1.331 -1.1904  0.5509  0.9252
  201MOL0     H26500   8.737   9.066   1.407  1.2393  0.1142 -2.8937
  201MOL0     H26501   8.597   8.952   1.445 -0.6473 -0.5312 -1.1192
  201MOL0     H26502   8.469   9.036   1.253  0.0252  0.7599  0.1765
  201MOL0     H26503   8.593   9.146   1.207 -2.6632  1.2489 -0.2904
  201MOL0     H26504   8.463   9.172   1.475 -0.8612 -0.1596  0.3197
  201MOL0     H26505   8.582   9.275   1.397  0.5111 -1.2422  3.3766
  201MOL0     H26506   8.405   9.301   1.192 -3.4605  1.3260 -1.5028
  201MOL0     H26507   8.382   9.388   1.343 -4.7777  0.5417 -2.7362
  201MOL0     H26508   8.243   9.121   1.307  0.9109  0.4262 -0.4785
  201MOL0     H26509   8.177   9.264   1.227 -0.1630  0.8575  0.4032
  201MOL0     H26510   8.262   9.311   1.513 -0.7928  2.5872 -1.1402
  201MOL0     H26511   8.106   9.344   1.432  0.0627  0.1306 -1.3680
  201MOL0     H26512   8.090   9.192   1.618 -2.5314 -1.9060 -0.4914
  201MOL0     H26513   8.189   9.071   1.529  1.8406  0.9634 -2.7476
  201MOL0     H26514   8.489   8.672   1.070  0.1999  1.5798  2.5439
  201MOL0     H26515   8.588   8.499   0.907  2.6232 -0.0825 -1.6077
  201MOL0     H26516   9.083   8.178   0.796  1.8971 -0.3663 -1.2698
  201MOL0     H26517   9.132   8.050   0.601 -0.1243  0.7213  1.9206
  201MOL0     H26518  10.267   7.864  -0.410 -2.5452  2.0279  1.7269
  201MOL0     H26519  10.430   7.709  -0.291  1.3689 -0.2481 -0.5200
  201MOL0     H26520  10.475   7.443   0.260 -0.7202  0.3376 -0.7875
  201MOL0     H26521  10.620   7.294   0.315 -2.4083  0.2834  0.2339
  201MOL0     H26522  10.908   7.031   0.044 -1.8579 -2.3336  3.0405
  201MOL0     H26523  10.802   7.125  -0.055  3.1021  0.9098 -0.4641
  201MOL0     H26524  10.592   7.039   0.060 -1.0350 -0.0034  4.1618
  201MOL0     H26525  10.679   6.903   0.009  0.7601  1.8721 -2.7015
  201MOL0     H26526  10.629   7.023   0.269  0.9296  0.4299 -0.6650
  201MOL0     H26527  10.784   6.944   0.256 -0.1771 -1.0936  0.0527
  201MOL0     H26528  10.499   6.842   0.214 -0.7464 -1.2790 -3.6403
  201MOL0     H26529  10.627   6.740   0.164  2.1525  1.4098  0.1375
  201MOL0     H26530  10.722   6.749   0.585 -0.7175  0.7997 -0.5657
  201MOL0     H26531  10.817   7.342  -0.060  0.4934  3.0061 -1.4871
  201MOL0     H26532  10.683   7.541  -0.104 -2.5681  0.8709 -0.2415
  202MOL0     O26533   1.650   9.537   5.681 -0.4203  0.0837 -0.3571
  202MOL0     C26534   1.686   9.635   5.610  0.4055 -0.7856  0.4347
  202MOL0     O26535   1.629   9.760   5.619  0.1662  0.0045 -0.0575
  202MOL0     C26536   1.511   9.776   5.684  0.2345  0.2234 -0.3430
  202MOL0     C26537   1.390   9.714   5.632 -0.2144 -0.9058  0.2899
  202MOL0     C26538   1.269   9.729   5.697  0.0151  0.0372  0.1131
  202MOL0     C26539   1.258   9.817   5.803 -0.7011 -0.6248 -0.1445
  202MOL0     O26540   1.152   9.837   5.886 -0.3674 -0.1782 -0.7555
  202MOL0     C26541   1.027   9.779   5.864 -0.0971 -0.4891 -0.4802
  202MOL0     C26542   0.911   9.868   5.919  0.0038 -0.4174  1.3173
  202MOL0     C26543   0.913  10.004   5.848  0.0766  0.3895 -0.5672
  202MOL0     C26544   0.824  10.117   5.911  0.3586 -0.0136 -0.4026
  202MOL0     C26545   0.820  10.255   5.835  0.5963 -0.1168 -0.2336
  202MOL0     C26546   0.738  10.361   5.914 -0.3064 -0.1351 -0.4046
  202MOL0     C26547   0.598  10.316   5.917  0.0153  0.7459 -0.5867
  202MOL0     C26548   0.499  10.435   5.940  0.1077  0.2631 -0.3841
  202MOL0     N26549   0.369  10.376   5.982  0.3387  0.1499  0.2885
  202MOL0     C26550   0.306  10.267   5.935 -0.5891 -0.1213 -0.5395
  202MOL0     C26551   0.176  10.272   5.972  0.4712 -0.4588  0.3109
  202MOL0     C26552   0.064  10.178   5.942 -0.8716 -0.1228 -1.0582
  202MOL0     C26553  -0.019  10.224   5.824  0.4748  0.2778 -0.2189
  202MOL0     C26554  -0.129  10.119   5.806 -0.9758 -0.0870  0.6629
  202MOL0     C26555  -0.238  10.154   5.708  1.0986 -0.5211  0.2189
  202MOL0     O26556  -0.327  10.038   5.713 -0.4437 -0.3309 -0.5693
  202MOL0     C26557  -0.469  10.044   5.684 -0.3857 -0.2653  0.3288
  202MOL0     C26558  -0.534  10.141   5.608 -0.2121 -0.0288  0.7311
  202MOL0     C26559  -0.668  10.154   5.588  0.1070  0.4782  0.3412
  202MOL0     C26560  -0.751  10.077   5.659 -0.5938  0.1858 -0.0678
  202MOL0     C26561  -0.896  10.099   5.644  1.1872  1.0226 -1.0473
  202MOL0     O26562  -0.977  10.004   5.702 -0.8931 -0.0677 -0.2153
  202MOL0     C26563  -1.117  10.008   5.694 -0.4216  0.0581  0.6391
  202MOL0     C26564  -1.199  10.122   5.725 -0.3306  0.9041 -1.1900
  202MOL0     C26565  -1.337  10.118   5.725 -0.5211  0.6077 -0.6913
  202MOL0     C26566  -1.402   9.997   5.687  0.4535 -0.9208 -0.3304
  202MOL0     O26567  -1.537   9.983   5.702 -0.6629 -0.5822 -0.4434
  202MOL0     C26568  -1.626  10.079   5.642  0.1192  0.8138 -1.0326
  202MOL0     C26569  -1.772  10.046   5.670  0.0465  0.3385  0.1389
  202MOL0     C26570  -1.869  10.165   5.651 -0.8934 -1.1327  0.1679
  202MOL0     C26571  -2.004  10.143   5.702 -0.5895  0.0277  0.2741
  202MOL0     C26572  -2.026  10.133   5.853 -0.2463 -0.2364 -0.3683
  202MOL0     C26573  -2.169  10.130   5.907 -0.1534 -0.1987 -0.7004
  202MOL0     C26574  -2.263  10.045   5.829 -0.1009  0.6345  1.0761
  202MOL0     C26575  -2.403  10.030   5.882 -0.6855 -0.1318 -0.8877
  202MOL0    Cl26576  -2.492  10.187   5.852 -0.3177  0.0823 -0.0670
  202MOL0     C26577  -1.327   9.893   5.643 -0.4552  0.2703 -0.0900
  202MOL0     C26578  -1.184   9.896   5.646  0.5697  0.2107 -0.0767
  202MOL0     O26579  -0.943  10.198   5.590 -0.2487 -0.6910  0.1121
  202MOL0     C26580  -0.693   9.983   5.746 -0.6503 -0.6123 -0.9252
  202MOL0     C26581  -0.551   9.965   5.763  0.1537  0.0288  0.5492
  202MOL0     N26582   0.160  10.388   6.038  0.0631  0.7163  0.2169
  202MOL0     N26583   0.274  10.452   6.044 -0.2698 -0.2071  0.5346
  202MOL0     C26584   1.373   9.868   5.861  0.6009 -0.6171 -0.4537
  202MOL0     C26585   1.492   9.860   5.801 -0.2932 -0.5210 -0.1117
  202MOL0     C26586   1.785   9.609   5.499 -0.5698 -1.0095  0.2443
  202MOL0     C26587   1.881   9.509   5.501 -0.8764 -0.1119  0.2052
  202MOL0     C26588   1.979   9.505   5.403 -0.3902 -0.5547 -0.0183
  202MOL0     C26589   1.979   9.592   5.291  0.2353  1.0351 -0.0364
  202MOL0     O26590   2.086   9.587   5.198 -0.5847  0.5824  0.0774
  202MOL0     C26591   2.084   9.676   5.091 -0.0960 -0.6453  0.1178
  202MOL0     C26592   2.128   9.815   5.133  0.7308  0.2191  0.3791
  202MOL0     C26593   2.275   9.849   5.123 -0.2398 -0.4004  0.2301
  202MOL0     C26594   2.317   9.875   4.977 -0.7229 -0.2613 -0.6942
  202MOL0     C26595   2.453   9.928   4.991 -0.4273 -0.1135 -1.2487
  202MOL0     C26596   2.561   9.965   5.019  0.6316  0.3288  0.0257
  202MOL0     C26597   1.877   9.691   5.295  0.2889  0.3448  0.8285
  202MOL0     C26598   1.783   9.705   5.393  0.5107 -0.2368  0.3453
  202MOL0     H26599   1.390   9.653   5.542 -1.0496  1.1387 -1.1671
  202MOL0     H26600   1.179   9.681   5.660  0.1587 -0.0173 -0.1707
  202MOL0     H26601   1.034   9.685   5.919  1.0411 -0.0791  0.1237
  202MOL0     H26602   1.014   9.751   5.759 -1.7563  2.6579 -1.2349
  202MOL0     H26603   0.929   9.885   6.026 -1.2653  2.8734  1.1079
  202MOL0     H26604   0.814   9.821   5.898 -0.4027  0.6021  0.8286
  202MOL0     H26605   0.871   9.989   5.748 -2.0052 -2.8819  0.6307
  202MOL0     H26606   1.017  10.037   5.852 -0.0942  1.2991 -2.3133
  202MOL0     H26607   0.721  10.085   5.927  0.6311 -0.4041  0.6360
  202MOL0     H26608   0.872  10.144   6.006  0.0935  0.1152 -0.3050
  202MOL0     H26609   0.775  10.238   5.736 -1.5230 -0.0030  0.6472
  202MOL0     H26610   0.925  10.283   5.826  0.5883  0.6966  1.6472
  202MOL0     H26611   0.737  10.454   5.857  1.0856 -0.2721 -0.6936
  202MOL0     H26612   0.774  10.382   6.015 -0.7385  0.6137 -0.4017
  202MOL0     H26613   0.574  10.275   5.819 -0.8584 -3.1415  1.0408
  202MOL0     H26614   0.594  10.242   5.998  0.8551  1.2606 -0.0577
  202MOL0     H26615   0.495  10.486   5.844 -2.5203  1.8925  0.4838
  202MOL0     H26616   0.543  10.501   6.015 -0.3005  0.8644 -0.6708
  202MOL0     H26617   0.333  10.199   5.855 -0.1138  2.1542 -2.3915
  202MOL0     H26618   0.006  10.164   6.033 -0.2736  2.1151 -0.2667
  202MOL0     H26619   0.096  10.078   5.911 -1.3344 -1.3103  1.9953
  202MOL0     H26620   0.042  10.239   5.734 -1.9540  2.2278 -1.6736
  202MOL0     H26621  -0.074  10.317   5.843  1.6038  1.5104 -2.5512
  202MOL0     H26622  -0.073  10.032   5.769  1.4822  1.8407 -0.4232
  202MOL0     H26623  -0.183  10.106   5.901  0.6112 -3.1978  1.2895
  202MOL0     H26624  -0.193  10.158   5.609  0.0268 -0.6448 -0.2787
  202MOL0     H26625  -0.296  10.244   5.732 -2.5144 -1.4801 -3.8579
  202MOL0     H26626  -0.463  10.201   5.552  1.2533 -2.0916  0.2220
  202MOL0     H26627  -0.691  10.237   5.522 -0.3672 -1.2740 -1.8248
  202MOL0     H26628  -1.144  10.215   5.735 -0.4957  0.7520  2.3815
  202MOL0     H26629  -1.396  10.202   5.759 -0.9427  0.1218 -0.1987
  202MOL0     H26630  -1.606  10.063   5.535  1.1597  1.0508 -0.8928
  202MOL0     H26631  -1.616  10.182   5.678 -0.2203  0.7628 -0.7993
  202MOL0     H26632  -1.780  10.012   5.774  0.2105 -1.5901 -0.4448
  202MOL0     H26633  -1.793   9.970   5.595  0.5712  2.1037 -1.8790
  202MOL0     H26634  -1.866  10.194   5.546  0.2674 -2.3838 -0.1853
  202MOL0     H26635  -1.830  10.241   5.719  3.2608 -1.7135 -1.2256
  202MOL0     H26636  -2.065  10.230   5.677 -1.7847 -1.2379 -1.4059
  202MOL0     H26637  -2.049  10.056   5.653 -2.5629  2.2084 -2.0879
  202MOL0     H26638  -1.986  10.226   5.895 -0.5311 -0.2263 -0.1113
  202MOL0     H26639  -1.972  10.046   5.892  0.6325  0.6690  0.4988
  202MOL0     H26640  -2.206  10.233   5.903  0.2780 -0.0677 -1.3591
  202MOL0     H26641  -2.156  10.085   6.006  1.7806  1.5484 -0.0830
  202MOL0     H26642  -2.273  10.090   5.730 -0.8711  2.1214  1.8005
  202MOL0     H26643  -2.214   9.948   5.828  4.5883  2.6836 -1.4443
  202MOL0     H26644  -2.395  10.009   5.989  0.1320  3.3236 -0.1623
  202MOL0     H26645  -2.458   9.945   5.839  0.4349 -1.0471 -0.5536
  202MOL0     H26646  -1.378   9.802   5.614  0.8079 -0.6122  0.3716
  202MOL0     H26647  -1.127   9.809   5.614 -0.4026 -0.5317  0.1582
  202MOL0     H26648  -0.761   9.916   5.799 -0.5124 -1.2668 -1.5576
  202MOL0     H26649  -0.518   9.899   5.842  1.8392  1.9428  1.5370
  202MOL0     H26650   1.361   9.921   5.955 -2.9464 -2.5117  0.3429
  202MOL0     H26651   1.575   9.912   5.849 -1.0079 -0.0513  0.6287
  202MOL0     H26652   1.888   9.431   5.577 -2.7062  0.7831  1.3758
  202MOL0     H26653   2.047   9.421   5.401  1.0575  0.2982  3.8706
  202MOL0     H26654   1.981   9.675   5.054  0.0350  0.0927 -0.2975
  202MOL0     H26655   2.143   9.639   5.006 -2.2491 -0.2509 -1.6466
  202MOL0     H26656   2.073   9.891   5.076 -0.9256 -1.7170 -0.7773
  202MOL0     H26657   2.093   9.836   5.235 -0.4945 -2.6516  0.6543
  202MOL0     H26658   2.338   9.770   5.165  0.8732  0.4080  0.1370
  202MOL0     H26659   2.286   9.941   5.182 -2.2299 -0.7711  1.2820
  202MOL0     H26660   2.325   9.780   4.924 -1.6363  0.4984 -2.2564
  202MOL0     H26661   2.253   9.942   4.919 -0.7493 -1.2386 -1.8234
  202MOL0     H26662   2.657  10.008   5.039 -0.4199  4.6706 -2.8475
  202MOL0     H26663   1.864   9.769   5.220  3.4074  0.8667  0.7007
  202MOL0     H26664   1.708   9.784   5.391  1.1532  0.4132 -2.2838
  203MOL0     O26665   2.746  10.850   4.229  0.8737  0.4798  0.2120
  203MOL0     C26666   2.780  10.760   4.305  0.1873  1.5033  0.7053
  203MOL0     O26667   2.711  10.645   4.334 -0.1175 -0.0628 -0.2056
  203MOL0     C26668   2.574  10.635   4.309 -0.0184 -0.2729  0.0645
  203MOL0     C26669   2.519  10.669   4.184 -0.8694 -0.0117 -0.0046
  203MOL0     C26670   2.382  10.683   4.161  0.0366  0.3998  0.0701
  203MOL0     C26671   2.291  10.645   4.259  1.3233  0.0494 -0.8808
  203MOL0     O26672   2.155  10.628   4.234  0.0073  0.0810 -0.9055
  203MOL0     C26673   2.081  10.738   4.169 -0.4521 -0.6043  0.5849
  203MOL0     C26674   1.928  10.701   4.158 -1.0436 -0.2231  0.5196
  203MOL0     C26675   1.860  10.807   4.073  0.6026 -0.1541  0.9352
  203MOL0     C26676   1.703  10.770   4.045  0.5410  0.0200 -0.6711
  203MOL0     C26677   1.620  10.853   4.139  0.2573 -0.1402 -0.0199
  203MOL0     C26678   1.476  10.854   4.105  0.0909  0.5103  0.5098
  203MOL0     C26679   1.415  10.965   4.196  0.0969 -0.1655  0.1673
  203MOL0     C26680   1.273  11.012   4.163  0.0421 -0.4191 -0.4288
  203MOL0     N26681   1.167  10.918   4.216  0.3944 -0.7766 -0.9135
  203MOL0     C26682   1.106  10.824   4.134 -0.3698 -0.6724 -0.2945
  203MOL0     C26683   1.020  10.768   4.225 -0.1993 -0.3365 -1.4127
  203MOL0     C26684   0.929  10.657   4.202 -0.1497  0.0512  0.1216
  203MOL0     C26685   0.998  10.539   4.148 -0.5806  0.1759 -0.9104
  203MOL0     C26686   0.909  10.412   4.161 -0.6942 -0.5083 -0.6604
  203MOL0     C26687   0.815  10.381   4.039 -0.0015  0.2116  0.2182
  203MOL0     O26688   0.718  10.483   4.009 -0.5146  0.3012 -0.4099
  203MOL0     C26689   0.620  10.508   4.105 -0.0392 -1.2277  0.0251
  203MOL0     C26690   0.567  10.640   4.105 -0.0221  0.4614 -0.1337
  203MOL0     C26691   0.453  10.662   4.180 -0.3539 -0.3960  0.1511
  203MOL0     C26692   0.399  10.575   4.272  0.4613 -0.0131 -0.3365
  203MOL0     C26693   0.283  10.600   4.356 -0.5721  0.2704 -0.6178
  203MOL0     O26694   0.224  10.490   4.422 -0.6313 -0.4938 -0.0463
  203MOL0     C26695   0.103  10.514   4.482  0.3899 -0.2028 -0.5580
  203MOL0     C26696  -0.018  10.451   4.440  0.0048 -0.5113 -0.5658
  203MOL0     C26697  -0.131  10.468   4.517  0.1193  0.7358  0.0282
  203MOL0     C26698  -0.135  10.546   4.631  0.5022  0.4327  0.4164
  203MOL0     O26699  -0.247  10.552   4.711 -0.9463  0.0288 -0.3621
  203MOL0     C26700  -0.288  10.446   4.796  0.0190 -0.8959  1.2951
  203MOL0     C26701  -0.296  10.471   4.944 -1.0105  0.7431  0.0596
  203MOL0     C26702  -0.336  10.615   4.973 -0.3907  1.0925 -0.7489
  203MOL0     C26703  -0.302  10.641   5.119 -0.5514 -0.1420  0.0414
  203MOL0     C26704  -0.335  10.785   5.151  0.0630  0.2808  0.0042
  203MOL0     C26705  -0.324  10.799   5.306 -0.6251 -0.7243  1.6628
  203MOL0     C26706  -0.389  10.934   5.337  0.7179  0.4520  0.3021
  203MOL0     C26707  -0.389  10.979   5.477  0.1155  0.0053  0.2397
  203MOL0    Cl26708  -0.229  10.984   5.557  0.7615  0.5368 -0.6426
  203MOL0     C26709  -0.021  10.615   4.668  1.1165 -0.7245 -0.3239
  203MOL0     C26710   0.095  10.600   4.598 -0.2854 -0.3234  0.6420
  203MOL0     O26711   0.251  10.720   4.372 -0.5344  0.1076  0.4009
  203MOL0     C26712   0.464  10.452   4.273 -0.2004  0.1541 -0.2210
  203MOL0     C26713   0.562  10.415   4.187 -0.4800  0.4051 -0.0701
  203MOL0     N26714   1.024  10.829   4.355  0.3934 -0.2592  0.7029
  203MOL0     N26715   1.108  10.927   4.341  1.2018 -0.3156  0.7343
  203MOL0     C26716   2.343  10.606   4.380 -0.0312 -0.0284 -0.6152
  203MOL0     C26717   2.483  10.593   4.406 -0.2373  0.5475  0.4463
  203MOL0     C26718   2.911  10.767   4.375 -0.0291 -0.6177  0.3591
  203MOL0     C26719   2.994  10.882   4.350  0.8203  0.4800 -0.2602
  203MOL0     C26720   3.123  10.884   4.405 -0.6395  0.0912 -0.3875
  203MOL0     C26721   3.175  10.782   4.479  0.2936 -0.0925 -0.2566
  203MOL0     O26722   3.301  10.780   4.532 -0.1461  0.6118 -0.1969
  203MOL0     C26723   3.404  10.867   4.470  0.1643 -1.3953  0.7991
  203MOL0     C26724   3.555  10.840   4.512 -0.2270  0.6672 -0.1632
  203MOL0     C26725   3.622  10.726   4.443 -1.0610  0.0480  0.2978
  203MOL0     C26726   3.633  10.753   4.290 -0.2393  0.6801  0.3080
  203MOL0     C26727   3.712  10.658   4.214 -0.2809  0.9240  1.0071
  203MOL0     C26728   3.785  10.580   4.151  0.2744  0.3023 -0.1168
  203MOL0     C26729   3.095  10.672   4.502  0.2155 -0.6341 -0.2169
  203MOL0     C26730   2.966  10.660   4.447  0.1564 -0.1148  0.8147
  203MOL0     H26731   2.587  10.698   4.104  1.1927 -1.3283  1.1701
  203MOL0     H26732   2.345  10.730   4.070  1.5847  1.3456 -0.1225
  203MOL0     H26733   2.121  10.768   4.072 -1.9365  1.3849  0.5166
  203MOL0     H26734   2.101  10.819   4.240  3.3568 -2.7005  2.1844
  203MOL0     H26735   1.875  10.699   4.253 -1.5345  1.6099  0.3185
  203MOL0     H26736   1.921  10.602   4.112  0.7883 -0.7723  1.3012
  203MOL0     H26737   1.905  10.821   3.975 -0.3019  1.4108  0.7051
  203MOL0     H26738   1.861  10.903   4.125 -0.7076  1.4015 -1.7019
  203MOL0     H26739   1.681  10.785   3.939 -2.3427  2.8152  0.1338
  203MOL0     H26740   1.691  10.663   4.064  0.1094 -0.1723 -1.9467
  203MOL0     H26741   1.651  10.956   4.121 -2.0426  0.3353 -1.6376
  203MOL0     H26742   1.633  10.821   4.243  0.6989 -0.9079 -0.2980
  203MOL0     H26743   1.432  10.755   4.119 -1.6076  1.3422  1.3916
  203MOL0     H26744   1.475  10.879   3.999  0.2051 -0.6960  0.2079
  203MOL0     H26745   1.431  10.939   4.301 -4.4092 -0.7654  0.8868
  203MOL0     H26746   1.479  11.053   4.177  0.9057 -0.8583 -0.4135
  203MOL0     H26747   1.266  11.024   4.054  1.2364 -0.4616 -0.5218
  203MOL0     H26748   1.253  11.106   4.215 -0.1601  1.3482 -3.4298
  203MOL0     H26749   1.119  10.792   4.031 -3.3438 -0.4506 -0.8207
  203MOL0     H26750   0.853  10.683   4.127 -0.7460  0.1917  0.7604
  203MOL0     H26751   0.875  10.631   4.293  1.8713 -2.3556  0.7106
  203MOL0     H26752   1.085  10.521   4.212 -1.7863  0.5540  0.9331
  203MOL0     H26753   1.033  10.556   4.046 -0.5199  3.8375 -0.4191
  203MOL0     H26754   0.984  10.335   4.181  0.3580  0.5886 -0.2803
  203MOL0     H26755   0.849  10.423   4.252 -0.2045  3.5222 -0.6665
  203MOL0     H26756   0.774  10.280   4.052  2.5352 -1.0167 -0.6256
  203MOL0     H26757   0.888  10.374   3.958  0.4767 -3.5622  0.7707
  203MOL0     H26758   0.603  10.724   4.046 -1.9298  0.5738 -1.2252
  203MOL0     H26759   0.434  10.769   4.175 -0.3104 -0.3669  0.5769
  203MOL0     H26760  -0.008  10.392   4.350  0.9950  1.2199 -1.6509
  203MOL0     H26761  -0.216  10.416   4.474 -1.2974  1.1512  2.1747
  203MOL0     H26762  -0.246  10.349   4.767 -0.2224 -0.7654  0.4933
  203MOL0     H26763  -0.394  10.428   4.780 -0.8863  0.4145  4.8809
  203MOL0     H26764  -0.191  10.463   4.974 -1.0326 -1.0193 -0.2567
  203MOL0     H26765  -0.360  10.396   4.990  1.5269 -2.1205 -0.7809
  203MOL0     H26766  -0.442  10.638   4.961 -0.7950 -0.1670  0.1839
  203MOL0     H26767  -0.280  10.687   4.913  0.8970 -1.3712 -2.7167
  203MOL0     H26768  -0.349  10.562   5.178  1.3207 -1.5732 -0.2881
  203MOL0     H26769  -0.194  10.622   5.128 -0.3056  0.2000 -1.8002
  203MOL0     H26770  -0.439  10.804   5.123 -0.7146 -0.1960  2.3115
  203MOL0     H26771  -0.266  10.849   5.096  1.9569 -1.0287  0.7352
  203MOL0     H26772  -0.217  10.805   5.326 -0.6329  0.3697  1.4265
  203MOL0     H26773  -0.382  10.721   5.355 -2.2178 -0.2674  0.5773
  203MOL0     H26774  -0.330  11.003   5.275 -0.1100 -1.1530 -2.4320
  203MOL0     H26775  -0.488  10.932   5.291  0.3354  2.2503  0.9371
  203MOL0     H26776  -0.449  10.902   5.526 -1.0279  0.8047  0.1400
  203MOL0     H26777  -0.434  11.079   5.487 -1.7252 -0.9060  1.5765
  203MOL0     H26778  -0.017  10.676   4.757 -0.4368 -0.3656 -0.4807
  203MOL0     H26779   0.181  10.642   4.648  1.2014 -2.1407 -0.2599
  203MOL0     H26780   0.441  10.377   4.348  0.0201 -0.1352 -0.4440
  203MOL0     H26781   0.593  10.311   4.193 -1.3159  0.2162  2.2812
  203MOL0     H26782   2.272  10.569   4.454  0.2256 -1.1185 -0.8980
  203MOL0     H26783   2.522  10.553   4.499  1.5679  0.7884 -0.1726
  203MOL0     H26784   2.953  10.957   4.284 -1.3028  1.1649  1.7217
  203MOL0     H26785   3.181  10.972   4.381 -0.6973  1.7951  4.5618
  203MOL0     H26786   3.378  10.972   4.483  2.6340 -0.4982 -0.8394
  203MOL0     H26787   3.401  10.851   4.362 -2.7821  3.3640 -0.1135
  203MOL0     H26788   3.618  10.928   4.495  0.9000  0.0842  0.8555
  203MOL0     H26789   3.557  10.823   4.620 -3.3022 -0.3111 -0.1673
  203MOL0     H26790   3.578  10.627   4.462 -0.7730 -0.4992 -1.5796
  203MOL0     H26791   3.723  10.733   4.484 -1.2383 -0.3017  0.8051
  203MOL0     H26792   3.534  10.742   4.243  0.4094 -1.2533 -0.7037
  203MOL0     H26793   3.672  10.854   4.277 -3.0574  1.7797 -0.5202
  203MOL0     H26794   3.854  10.526   4.090  2.1885  1.9933  0.4235
  203MOL0     H26795   3.142  10.592   4.558 -0.3111  0.1050  1.3229
  203MOL0     H26796   2.906  10.570   4.456 -0.7933  0.1864 -1.6295
  204MOL0     O26797   5.444   0.860   4.140  0.0990 -0.2574 -0.3952
  204MOL0     C26798   5.353   0.899   4.215  0.2587 -0.3583 -0.3564
  204MOL0     O26799   5.225   0.860   4.218  0.9093 -0.2555  0.0002
  204MOL0     C26800   5.174   0.765   4.131 -0.0644 -0.0885 -0.0367
  204MOL0     C26801   5.047   0.788   4.078  0.2192 -0.4465 -0.5222
  204MOL0     C26802   4.998   0.706   3.981 -0.7348  0.0194 -0.1544
  204MOL0     C26803   5.068   0.587   3.944 -0.3936  0.5149 -0.3162
  204MOL0     O26804   5.008   0.507   3.857 -0.1425 -0.1785 -0.6833
  204MOL0     C26805   4.996   0.364   3.870  0.5546 -0.2580 -0.1424
  204MOL0     C26806   4.846   0.337   3.904 -0.1472 -0.0916 -0.1125
  204MOL0     C26807   4.822   0.325   4.055  0.6271  1.1284  0.2391
  204MOL0     C26808   4.682   0.324   4.106 -0.0926 -0.3928  0.1083
  204MOL0     C26809   4.683   0.287   4.252  0.1247  0.0630 -1.3977
  204MOL0     C26810   4.537   0.290   4.302 -0.1655 -0.4632 -0.2838
  204MOL0     C26811   4.529   0.258   4.455 -0.8849 -0.0785 -0.1266
  204MOL0     C26812   4.392   0.226   4.512 -0.3051  0.4841  0.2705
  204MOL0     N26813   4.302   0.325   4.458  0.4606  0.2171  1.0164
  204MOL0     C26814   4.321   0.456   4.494 -0.6464  0.0453 -0.4149
  204MOL0     C26815   4.228   0.522   4.427  0.1723 -0.8788 -0.3172
  204MOL0     C26816   4.219   0.668   4.423 -0.2574  0.0476 -0.4612
  204MOL0     C26817   4.083   0.715   4.375 -0.1226  0.6434 -1.0093
  204MOL0     C26818   3.977   0.688   4.482 -0.8438 -0.5107 -0.4275
  204MOL0     C26819   3.854   0.751   4.441 -0.0784  0.7403  0.4921
  204MOL0     O26820   3.743   0.697   4.514 -0.0880 -0.1554 -0.7313
  204MOL0     C26821   3.622   0.757   4.478 -0.8569 -0.5454  0.0585
  204MOL0     C26822   3.600   0.843   4.371 -0.5093  0.9948 -0.1549
  204MOL0     C26823   3.472   0.888   4.341  0.7280 -1.0570  0.1915
  204MOL0     C26824   3.357   0.848   4.423 -0.2130  0.7207 -0.1561
  204MOL0     C26825   3.220   0.883   4.383  0.0578 -1.3924 -0.3003
  204MOL0     O26826   3.117   0.850   4.468 -0.4951  0.5299 -0.2007
  204MOL0     C26827   2.983   0.827   4.422 -0.3815  0.2957  0.0434
  204MOL0     C26828   2.879   0.822   4.521 -0.4846  0.5299 -0.0279
  204MOL0     C26829   2.747   0.788   4.487 -0.0238  0.4596 -0.3586
  204MOL0     C26830   2.712   0.759   4.350  0.4173 -0.9813  0.2880
  204MOL0     O26831   2.576   0.748   4.320 -0.5570 -0.1959 -0.2029
  204MOL0     C26832   2.528   0.808   4.196 -0.0999 -0.1939 -0.3697
  204MOL0     C26833   2.380   0.761   4.195  1.1233 -0.4246  0.1962
  204MOL0     C26834   2.299   0.770   4.069  0.4434  0.2793  0.8360
  204MOL0     C26835   2.167   0.692   4.074  0.2202  0.2509 -0.1915
  204MOL0     C26836   2.079   0.764   4.187 -0.8770  0.3601  0.4761
  204MOL0     C26837   1.939   0.810   4.134 -0.3819 -0.2840 -0.0665
  204MOL0     C26838   1.928   0.965   4.128  0.4020  0.8706  0.2025
  204MOL0     C26839   1.795   1.015   4.060  0.7329  1.0572 -0.1891
  204MOL0    Cl26840   1.639   0.948   4.130 -0.3401  0.5288  0.0536
  204MOL0     C26841   2.814   0.761   4.250  0.4041 -0.3048  0.2077
  204MOL0     C26842   2.944   0.797   4.287  0.3524  0.0281  0.9730
  204MOL0     O26843   3.209   0.934   4.272  0.0196  0.0148  0.0834
  204MOL0     C26844   3.386   0.764   4.530  0.4212  0.7272  0.5696
  204MOL0     C26845   3.517   0.724   4.553 -0.2855  0.0726  0.7284
  204MOL0     N26846   4.153   0.420   4.348  0.6611 -0.8431 -0.1632
  204MOL0     N26847   4.197   0.308   4.360 -0.2609 -0.5538  0.6104
  204MOL0     C26848   5.192   0.557   4.003 -0.5819 -0.4810 -0.0209
  204MOL0     C26849   5.237   0.645   4.104 -0.7998  0.1914  1.5326
  204MOL0     C26850   5.367   1.010   4.311  0.4242 -0.7802  0.0298
  204MOL0     C26851   5.284   1.034   4.424 -0.4930  0.8096 -0.6150
  204MOL0     C26852   5.307   1.154   4.496 -1.2018  0.1015  0.2490
  204MOL0     C26853   5.407   1.251   4.456 -0.1779  0.2618 -0.6575
  204MOL0     O26854   5.422   1.359   4.537  0.7302 -0.3230  0.5871
  204MOL0     C26855   5.487   1.469   4.492  0.0222 -0.7155 -0.1411
  204MOL0     C26856   5.406   1.553   4.391  0.0724  0.0709  0.1982
  204MOL0     C26857   5.489   1.680   4.359 -0.2349 -0.3151 -0.5062
  204MOL0     C26858   5.398   1.802   4.314  0.2108  0.0433 -0.7388
  204MOL0     C26859   5.348   1.784   4.168 -0.1605 -0.3353  0.4426
  204MOL0     C26860   5.334   1.769   4.044  0.8657 -0.4578  0.9383
  204MOL0     C26861   5.487   1.216   4.344  0.5414 -0.5088 -0.6943
  204MOL0     C26862   5.462   1.100   4.272  0.0260 -0.0345 -0.2752
  204MOL0     H26863   4.998   0.880   4.108 -0.2359 -0.9435  0.2961
  204MOL0     H26864   4.902   0.734   3.940  0.4778  1.5580 -2.1110
  204MOL0     H26865   5.050   0.325   3.956 -0.5467  2.6729  2.0739
  204MOL0     H26866   5.033   0.316   3.779 -2.5696  0.8067 -2.1562
  204MOL0     H26867   4.821   0.243   3.855 -2.0564  0.6236 -0.6262
  204MOL0     H26868   4.785   0.417   3.860  3.3377  1.6213 -2.2520
  204MOL0     H26869   4.877   0.405   4.105 -0.0437  2.4756 -1.1180
  204MOL0     H26870   4.872   0.236   4.096 -0.1471  0.3615 -0.4225
  204MOL0     H26871   4.643   0.425   4.090 -1.7154 -0.9815  0.1606
  204MOL0     H26872   4.618   0.257   4.048 -1.6868  0.7105  0.5298
  204MOL0     H26873   4.740   0.367   4.300  1.6673 -1.2971 -0.8767
  204MOL0     H26874   4.736   0.196   4.281  0.5843  0.5966 -0.5007
  204MOL0     H26875   4.463   0.227   4.251 -1.2985  0.4063  0.2406
  204MOL0     H26876   4.489   0.385   4.280  0.4083 -0.2809 -0.7825
  204MOL0     H26877   4.594   0.172   4.470 -2.2505 -0.7583  2.6735
  204MOL0     H26878   4.574   0.340   4.512 -1.7612  1.0760 -1.0473
  204MOL0     H26879   4.388   0.234   4.621  0.0564  1.1599  0.2406
  204MOL0     H26880   4.369   0.124   4.477  2.8265  0.6503 -2.8490
  204MOL0     H26881   4.399   0.504   4.553 -0.1165 -0.6332 -0.5472
  204MOL0     H26882   4.299   0.710   4.361 -0.2642  2.0690  0.7804
  204MOL0     H26883   4.242   0.716   4.519  2.3106  1.8615 -1.8619
  204MOL0     H26884   4.059   0.659   4.284  0.9387 -2.9918  0.7315
  204MOL0     H26885   4.090   0.820   4.346  1.9040  1.0134  0.5799
  204MOL0     H26886   3.969   0.580   4.492 -2.1912 -0.3962 -0.1115
  204MOL0     H26887   4.015   0.732   4.575 -0.9693  1.9211 -1.4358
  204MOL0     H26888   3.840   0.745   4.332  0.2179 -0.3799  0.5083
  204MOL0     H26889   3.851   0.860   4.450  0.2366  0.8995 -0.9485
  204MOL0     H26890   3.673   0.896   4.310  0.2647  2.4767  1.9377
  204MOL0     H26891   3.462   0.955   4.256 -0.4973 -2.6036 -0.9612
  204MOL0     H26892   2.914   0.836   4.623  1.2502 -2.3498 -0.1381
  204MOL0     H26893   2.674   0.775   4.565 -1.6105 -1.1552 -2.0157
  204MOL0     H26894   2.587   0.774   4.111 -0.5891  1.4891 -1.4152
  204MOL0     H26895   2.523   0.917   4.197  0.3618 -0.1719  0.1792
  204MOL0     H26896   2.332   0.821   4.272  1.8708 -1.2979  1.3717
  204MOL0     H26897   2.377   0.664   4.246 -2.2036  0.3610  1.7910
  204MOL0     H26898   2.360   0.719   3.993 -1.7184 -0.4993 -0.4655
  204MOL0     H26899   2.291   0.871   4.027 -0.3393 -0.9825 -2.3638
  204MOL0     H26900   2.121   0.698   3.974  0.4335  2.2921 -0.2085
  204MOL0     H26901   2.182   0.588   4.102  0.1096  0.3515  0.2514
  204MOL0     H26902   2.122   0.857   4.225  0.2109  1.2950 -2.7233
  204MOL0     H26903   2.075   0.688   4.265 -1.3146  0.4987  0.5952
  204MOL0     H26904   1.860   0.766   4.196 -0.9479  0.5999 -0.1365
  204MOL0     H26905   1.911   0.772   4.035  1.6154  1.4664 -1.3924
  204MOL0     H26906   1.934   1.003   4.230  1.6544  0.7062  0.2034
  204MOL0     H26907   2.013   1.011   4.076 -0.4360  3.0256  0.6452
  204MOL0     H26908   1.800   0.991   3.953 -0.1569  1.6602 -0.3760
  204MOL0     H26909   1.774   1.122   4.076  0.3582  0.9668 -0.0760
  204MOL0     H26910   2.793   0.733   4.147  3.4885  2.2832 -1.2856
  204MOL0     H26911   3.015   0.798   4.205  0.5789 -0.0411  1.1663
  204MOL0     H26912   3.303   0.732   4.591 -0.1049 -2.0018 -1.3710
  204MOL0     H26913   3.535   0.651   4.631 -0.1039 -2.1579 -1.2894
  204MOL0     H26914   5.249   0.469   3.973 -0.3408 -0.4346  0.2957
  204MOL0     H26915   5.334   0.620   4.145  0.7042  0.3055 -1.6355
  204MOL0     H26916   5.204   0.965   4.448 -0.6104  0.6349 -1.4789
  204MOL0     H26917   5.245   1.174   4.583 -2.4509 -0.5783 -0.4600
  204MOL0     H26918   5.584   1.438   4.451 -0.4025 -1.6102 -0.4970
  204MOL0     H26919   5.527   1.530   4.573  0.0754  0.8761 -1.3218
  204MOL0     H26920   5.378   1.514   4.292  2.6070 -0.1105 -0.5156
  204MOL0     H26921   5.318   1.587   4.445 -0.0274  0.5332 -0.2472
  204MOL0     H26922   5.567   1.653   4.287 -0.1891 -0.6815 -0.3202
  204MOL0     H26923   5.534   1.713   4.453 -2.4917  3.2659 -0.4912
  204MOL0     H26924   5.309   1.812   4.375  3.5851  2.0897  4.5241
  204MOL0     H26925   5.443   1.901   4.326 -3.0503  1.4914  0.8062
  204MOL0     H26926   5.322   1.756   3.938  0.1299 -2.9269  1.2549
  204MOL0     H26927   5.568   1.280   4.312  4.1188 -2.8872  2.6938
  204MOL0     H26928   5.528   1.083   4.189 -1.9288 -1.1550 -1.6948
  205MOL0     O26929  10.728   3.140   8.055 -0.3442 -0.2438  0.7509
  205MOL0     C26930  10.727   3.258   8.022 -0.0420 -0.6155 -0.0067
  205MOL0     O26931  10.621   3.344   8.045  0.4397  0.3493  0.4769
  205MOL0     C26932  10.499   3.322   8.105 -0.7091  0.0572 -0.5793
  205MOL0     C26933  10.404   3.425   8.098 -0.7912  0.0269  0.4820
  205MOL0     C26934  10.286   3.425   8.169 -0.6635  0.2392 -0.6266
  205MOL0     C26935  10.256   3.311   8.238  0.3551 -0.6688 -0.0580
  205MOL0     O26936  10.137   3.288   8.296 -0.0204 -0.3117 -0.3957
  205MOL0     C26937  10.102   3.379   8.401  0.2531 -0.0972  0.2336
  205MOL0     C26938  10.003   3.318   8.489  0.2681 -0.4251 -0.0760
  205MOL0     C26939   9.865   3.263   8.422  0.3204 -0.3900 -0.5468
  205MOL0     C26940   9.785   3.366   8.356 -0.3936  0.8489  0.4797
  205MOL0     C26941   9.640   3.312   8.340  0.1733 -0.1767  0.6252
  205MOL0     C26942   9.548   3.359   8.459  0.4561  0.8223  0.4520
  205MOL0     C26943   9.402   3.295   8.459  0.4708 -0.0516  0.2686
  205MOL0     C26944   9.392   3.162   8.543 -0.1094  0.7439  0.0912
  205MOL0     N26945   9.244   3.129   8.563  0.0991 -0.0063  0.1855
  205MOL0     C26946   9.178   3.028   8.498 -0.2213 -0.1249 -0.5063
  205MOL0     C26947   9.055   3.027   8.567 -0.4896 -0.6413 -0.3101
  205MOL0     C26948   8.931   2.940   8.536  0.0978  0.0404  0.0577
  205MOL0     C26949   8.822   2.917   8.638 -0.0556 -0.6916 -0.4021
  205MOL0     C26950   8.699   2.847   8.581  0.7310  0.2979  0.3419
  205MOL0     C26951   8.590   2.846   8.686  1.1533 -0.5957  0.5209
  205MOL0     O26952   8.464   2.804   8.617  0.3273  0.4864  0.6401
  205MOL0     C26953   8.354   2.781   8.696 -0.3495  0.1437 -0.4253
  205MOL0     C26954   8.268   2.678   8.664 -0.2254 -0.2628  0.4165
  205MOL0     C26955   8.141   2.689   8.722 -0.3533 -0.0752  1.0555
  205MOL0     C26956   8.105   2.774   8.827  0.0053  0.3763  0.6807
  205MOL0     C26957   7.974   2.765   8.890  0.1198  0.3697 -0.6638
  205MOL0     O26958   7.876   2.689   8.828  0.3107 -0.5143 -1.1162
  205MOL0     C26959   7.747   2.700   8.880 -0.2063  0.0637 -0.5948
  205MOL0     C26960   7.692   2.592   8.954  0.4121 -0.0329 -0.0487
  205MOL0     C26961   7.556   2.590   8.985  0.5161 -0.4779 -0.2213
  205MOL0     C26962   7.476   2.699   8.946  0.8064  0.4841  0.9179
  205MOL0     O26963   7.342   2.702   8.972 -0.2656 -0.5412 -0.2002
  205MOL0     C26964   7.309   2.657   9.106  0.5304 -0.7222 -0.7542
  205MOL0     C26965   7.179   2.721   9.147  0.0706 -0.6062 -0.2268
  205MOL0     C26966   7.130   2.694   9.299 -0.3137  0.5511  0.2493
  205MOL0     C26967   7.021   2.784   9.352  0.3080  0.1325  0.1735
  205MOL0     C26968   7.077   2.905   9.434 -0.7405 -0.0774 -1.2168
  205MOL0     C26969   6.984   2.996   9.500  0.8265  0.3625  0.3636
  205MOL0     C26970   6.874   2.941   9.594  0.1095 -0.4402 -0.8712
  205MOL0     C26971   6.932   2.848   9.701  0.3858  0.4549 -0.1252
  205MOL0    Cl26972   7.010   2.949   9.823  0.6941  0.1052  0.0627
  205MOL0     C26973   7.528   2.802   8.869  0.3571  0.5472  0.1594
  205MOL0     C26974   7.663   2.805   8.845  0.1878  0.0523 -0.2027
  205MOL0     O26975   7.961   2.835   8.988  0.2871  0.1618 -0.2789
  205MOL0     C26976   8.203   2.870   8.856 -0.3218  0.6678 -0.8637
  205MOL0     C26977   8.325   2.881   8.789  0.4877 -0.1369 -0.0728
  205MOL0     N26978   9.064   3.113   8.678 -0.3022 -0.7340  0.1418
  205MOL0     N26979   9.171   3.173   8.667 -0.4419 -0.7695  0.2354
  205MOL0     C26980  10.351   3.205   8.247  0.1600  0.4152 -0.9179
  205MOL0     C26981  10.469   3.216   8.179  0.6618  0.2938  0.4634
  205MOL0     C26982  10.847   3.302   7.947 -0.4270  0.5620 -0.7268
  205MOL0     C26983  10.893   3.437   7.968  0.4335 -0.7523 -0.0889
  205MOL0     C26984  10.998   3.481   7.880  0.2046 -0.4303  0.2811
  205MOL0     C26985  11.047   3.398   7.776 -0.0109 -0.5574  0.5967
  205MOL0     O26986  11.139   3.442   7.680 -0.6970 -0.7066 -0.4364
  205MOL0     C26987  11.096   3.547   7.593 -0.4067 -0.5164  0.1865
  205MOL0     C26988  11.129   3.505   7.456 -0.5480  0.3848  0.1805
  205MOL0     C26989  11.024   3.403   7.402  0.1613  0.4021 -0.0193
  205MOL0     C26990  11.076   3.347   7.262 -0.6280 -0.4690  0.1600
  205MOL0     C26991  11.186   3.259   7.281  0.4751 -0.2163 -0.3589
  205MOL0     C26992  11.278   3.184   7.287  0.6867  0.3733  0.3795
  205MOL0     C26993  11.010   3.263   7.769 -0.6120 -0.0392 -0.5565
  205MOL0     C26994  10.916   3.217   7.857  0.2831 -0.0110 -0.3004
  205MOL0     H26995  10.436   3.500   8.026  1.1524 -0.5490  0.6801
  205MOL0     H26996  10.209   3.501   8.166 -0.7999  0.1964  0.8264
  205MOL0     H26997  10.040   3.456   8.355 -0.9795 -2.7681 -2.9458
  205MOL0     H26998  10.193   3.420   8.446  0.6191  1.2391 -1.6200
  205MOL0     H26999   9.970   3.386   8.568  0.2022 -1.2571  0.6275
  205MOL0     H27000  10.055   3.227   8.519  0.8495 -1.2392 -3.1772
  205MOL0     H27001   9.810   3.222   8.508  2.3088 -0.3043  0.8286
  205MOL0     H27002   9.890   3.187   8.348 -2.5366 -0.9130 -1.0939
  205MOL0     H27003   9.784   3.465   8.402 -3.9517  1.3400 -0.4132
  205MOL0     H27004   9.826   3.388   8.256  1.2118  0.6169  1.0520
  205MOL0     H27005   9.646   3.203   8.330  0.0925 -0.0872 -0.5967
  205MOL0     H27006   9.608   3.357   8.245 -0.7280 -3.3430 -0.6860
  205MOL0     H27007   9.533   3.466   8.472 -4.6024  0.5254 -0.6067
  205MOL0     H27008   9.584   3.314   8.552  2.4675 -2.2811 -1.6302
  205MOL0     H27009   9.332   3.364   8.507 -1.4829 -0.1200 -2.2769
  205MOL0     H27010   9.365   3.276   8.358 -0.3775 -0.9311  0.7279
  205MOL0     H27011   9.424   3.180   8.646  2.9669 -1.8062 -0.2472
  205MOL0     H27012   9.450   3.079   8.503  1.5527  2.5464 -1.4112
  205MOL0     H27013   9.219   2.980   8.410  3.6082 -2.0519  2.0186
  205MOL0     H27014   8.964   2.839   8.511 -0.4772 -0.0577 -0.3307
  205MOL0     H27015   8.876   2.974   8.447  0.7995 -0.9454 -0.7830
  205MOL0     H27016   8.787   3.017   8.664  0.8626  0.5343 -3.4980
  205MOL0     H27017   8.853   2.855   8.723 -4.1781 -4.0051 -1.0032
  205MOL0     H27018   8.658   2.904   8.498 -2.4750 -2.4607 -0.1645
  205MOL0     H27019   8.734   2.750   8.545 -2.4523 -0.7656 -0.1399
  205MOL0     H27020   8.579   2.943   8.736 -2.1437  0.4629 -1.9464
  205MOL0     H27021   8.610   2.777   8.769 -0.8082 -0.7027  0.9603
  205MOL0     H27022   8.281   2.629   8.568  0.7388  1.6230 -0.4539
  205MOL0     H27023   8.059   2.636   8.673  0.3597  0.9007 -1.3587
  205MOL0     H27024   7.746   2.505   8.990  0.5911  0.1184  0.0507
  205MOL0     H27025   7.516   2.503   9.035  0.1314  0.5182  1.2772
  205MOL0     H27026   7.376   2.691   9.185 -0.3022 -1.9444  0.5278
  205MOL0     H27027   7.291   2.549   9.113 -0.8400 -0.4117  1.1082
  205MOL0     H27028   7.099   2.703   9.075 -0.5437 -1.7161  0.7009
  205MOL0     H27029   7.198   2.827   9.130  1.7368 -1.2304 -2.6391
  205MOL0     H27030   7.218   2.702   9.363 -1.6811 -0.5614  2.4072
  205MOL0     H27031   7.104   2.589   9.316 -2.0902  0.4943 -2.1895
  205MOL0     H27032   6.961   2.818   9.267  3.0561 -0.1677 -2.0018
  205MOL0     H27033   6.962   2.714   9.412  1.9709 -0.6582  0.9546
  205MOL0     H27034   7.146   2.971   9.381 -1.2600  0.0568 -1.7372
  205MOL0     H27035   7.138   2.875   9.519  1.4913  0.0909 -2.6753
  205MOL0     H27036   6.944   3.063   9.423 -1.2293  0.3289  1.3566
  205MOL0     H27037   7.049   3.059   9.562  0.6110 -1.6103  2.7504
  205MOL0     H27038   6.823   3.027   9.640 -1.3449 -1.1441 -1.0976
  205MOL0     H27039   6.805   2.883   9.531  0.6643 -0.8277 -1.1283
  205MOL0     H27040   7.008   2.785   9.655  1.6188  1.7164  0.1465
  205MOL0     H27041   6.855   2.786   9.749  0.6737  0.0475 -0.1833
  205MOL0     H27042   7.465   2.883   8.833 -2.0937 -1.6379 -0.8531
  205MOL0     H27043   7.728   2.871   8.790  0.1193 -0.6121 -1.1055
  205MOL0     H27044   8.187   2.941   8.936 -0.5852  0.6152 -0.8675
  205MOL0     H27045   8.381   2.973   8.800  1.0125 -0.4993  0.3267
  205MOL0     H27046  10.334   3.117   8.309  0.9501 -0.5587 -2.0326
  205MOL0     H27047  10.538   3.133   8.195  0.9411  0.7503  1.7282
  205MOL0     H27048  10.848   3.492   8.050 -2.1666 -1.3604 -0.9936
  205MOL0     H27049  11.027   3.585   7.883 -0.8589 -0.1229  0.1744
  205MOL0     H27050  11.141   3.645   7.606  0.2916 -0.7592 -0.3279
  205MOL0     H27051  10.988   3.565   7.598 -0.0474  1.5224  1.3586
  205MOL0     H27052  11.127   3.596   7.395 -1.3518 -0.0430 -0.4534
  205MOL0     H27053  11.230   3.464   7.456 -0.6033  0.1760 -1.1977
  205MOL0     H27054  10.922   3.442   7.386  0.3497  1.5085  1.3169
  205MOL0     H27055  11.014   3.317   7.468  2.2625  0.3703  0.3183
  205MOL0     H27056  10.997   3.285   7.218 -0.3893  1.1129 -2.6841
  205MOL0     H27057  11.102   3.420   7.185 -1.1891 -1.9700 -1.5114
  205MOL0     H27058  11.358   3.115   7.298 -0.0216 -0.6123 -0.4433
  205MOL0     H27059  11.066   3.199   7.701 -0.4089 -0.0548 -0.3751
  205MOL0     H27060  10.874   3.119   7.839  0.9026 -1.1534  3.5609
  206MOL0     O27061   7.269  10.576   0.700 -0.1052 -0.0692  0.4065
  206MOL0     C27062   7.381  10.579   0.755 -0.4853  0.5237 -0.2104
  206MOL0     O27063   7.422  10.646   0.872 -0.0359 -0.0323  0.4687
  206MOL0     C27064   7.329  10.674   0.970  0.1584 -0.2455  0.6386
  206MOL0     C27065   7.204  10.601   0.989 -1.2438  0.0246  0.4845
  206MOL0     C27066   7.111  10.631   1.090 -0.3109 -0.5281 -0.6589
  206MOL0     C27067   7.148  10.735   1.179  0.1710 -0.9473  0.8960
  206MOL0     O27068   7.062  10.787   1.260  0.0381 -0.3621 -1.0539
  206MOL0     C27069   7.024  10.681   1.360  0.1765 -0.5425 -0.4009
  206MOL0     C27070   6.881  10.707   1.420  0.2716  0.3021 -0.0371
  206MOL0     C27071   6.828  10.576   1.491 -0.5637 -0.3844 -0.7749
  206MOL0     C27072   6.750  10.493   1.392 -0.4582  0.7310 -0.0226
  206MOL0     C27073   6.623  10.565   1.336 -0.1367 -0.3598  0.1079
  206MOL0     C27074   6.518  10.462   1.301  0.0092 -0.7800 -0.5333
  206MOL0     C27075   6.377  10.512   1.323  0.2997 -0.2184 -0.0567
  206MOL0     C27076   6.353  10.556   1.476 -0.5524  0.6586 -0.0202
  206MOL0     N27077   6.226  10.522   1.523  0.3072 -0.1472 -0.6313
  206MOL0     C27078   6.196  10.429   1.615 -0.6909  1.4147 -0.2677
  206MOL0     C27079   6.067  10.405   1.603 -0.2231 -0.7089 -1.5916
  206MOL0     C27080   5.966  10.331   1.693  0.0850 -0.0545  0.6331
  206MOL0     C27081   5.814  10.347   1.667 -0.6768  0.3381 -1.3933
  206MOL0     C27082   5.738  10.278   1.781  0.3233  0.0307  0.3173
  206MOL0     C27083   5.597  10.255   1.748 -0.1403  0.8882 -0.1852
  206MOL0     O27084   5.543  10.186   1.863  0.0239  0.1227 -0.4400
  206MOL0     C27085   5.408  10.176   1.875  0.3637 -0.2826 -0.2949
  206MOL0     C27086   5.312  10.242   1.787 -0.3452 -0.3033  0.5395
  206MOL0     C27087   5.183  10.256   1.834  1.4309  0.7937  0.1111
  206MOL0     C27088   5.142  10.177   1.943  0.0741  0.2492  1.0738
  206MOL0     C27089   4.994  10.169   1.984 -0.3966  0.1237  0.0065
  206MOL0     O27090   4.973  10.081   2.080  0.0319  0.4361  0.5555
  206MOL0     C27091   4.843  10.048   2.137  0.3743 -0.6676 -0.0467
  206MOL0     C27092   4.723  10.111   2.109  0.3619  0.8349  0.6042
  206MOL0     C27093   4.607  10.074   2.186 -0.7516  0.5243  0.3325
  206MOL0     C27094   4.620   9.987   2.291  0.5852  0.6382 -0.0038
  206MOL0     O27095   4.509   9.970   2.373  0.4088 -0.3511 -0.3204
  206MOL0     C27096   4.487   9.867   2.473 -0.1741 -0.8356  0.2673
  206MOL0     C27097   4.480   9.728   2.414  0.0241  0.5254 -0.0586
  206MOL0     C27098   4.421   9.613   2.506 -0.3167 -0.4849  0.4419
  206MOL0     C27099   4.399   9.479   2.427 -0.0913 -0.5997  0.5672
  206MOL0     C27100   4.342   9.373   2.524  0.2251  0.6577  0.2376
  206MOL0     C27101   4.339   9.232   2.470 -0.3017  0.1418 -0.5986
  206MOL0     C27102   4.303   9.127   2.577 -0.0482  0.7486  0.4128
  206MOL0     C27103   4.151   9.103   2.581  0.0189  0.4188  0.9508
  206MOL0    Cl27104   4.110   8.955   2.489 -0.0868  0.2998  0.0445
  206MOL0     C27105   4.737   9.924   2.325  0.0140 -0.0074  0.0935
  206MOL0     C27106   4.848   9.955   2.243  0.2202 -0.2475 -1.0889
  206MOL0     O27107   4.914  10.242   1.931 -0.3446 -0.1050  0.7993
  206MOL0     C27108   5.233  10.101   2.015  0.1577  0.1823 -0.4212
  206MOL0     C27109   5.370  10.110   1.988  0.7349  1.2514  0.0041
  206MOL0     N27110   6.017  10.491   1.511  0.3101 -0.0675  0.5119
  206MOL0     N27111   6.112  10.556   1.454 -0.9378 -0.0118 -0.3703
  206MOL0     C27112   7.268  10.812   1.159  0.6532 -0.1155 -0.1462
  206MOL0     C27113   7.361  10.779   1.058  0.0441 -0.7147 -0.0987
  206MOL0     C27114   7.486  10.487   0.701  0.4848 -0.6307 -0.2815
  206MOL0     C27115   7.622  10.493   0.739  0.5594 -0.0076  0.3315
  206MOL0     C27116   7.708  10.390   0.685  0.1037  0.3917 -0.7551
  206MOL0     C27117   7.674  10.282   0.608 -0.3509  0.0387 -0.0695
  206MOL0     O27118   7.783  10.203   0.567  0.5449  0.0362  0.6452
  206MOL0     C27119   7.752  10.095   0.463  0.3689 -0.9878  0.8642
  206MOL0     C27120   7.876  10.019   0.440 -1.2589 -0.5306 -0.3224
  206MOL0     C27121   7.896   9.916   0.556 -0.8627  0.0320  0.8443
  206MOL0     C27122   7.853   9.775   0.508 -0.5291 -0.2097 -0.1399
  206MOL0     C27123   7.862   9.670   0.608 -1.2082  0.0725  0.7478
  206MOL0     C27124   7.875   9.582   0.691 -0.8956  0.0216  0.8256
  206MOL0     C27125   7.539  10.285   0.575  0.5220 -0.5596 -0.4482
  206MOL0     C27126   7.445  10.387   0.612 -0.4343 -0.0981  0.5030
  206MOL0     H27127   7.178  10.518   0.924 -1.8035  0.5488  0.0224
  206MOL0     H27128   7.015  10.581   1.100 -0.5982  0.1955  0.3996
  206MOL0     H27129   7.107  10.685   1.430  0.2377  2.2572 -0.5075
  206MOL0     H27130   7.020  10.581   1.317  1.7014 -1.0480  0.5744
  206MOL0     H27131   6.813  10.747   1.345 -1.9359 -3.3131 -0.2310
  206MOL0     H27132   6.901  10.789   1.490  1.4654 -0.3218  0.3784
  206MOL0     H27133   6.763  10.610   1.572  0.3113 -0.9460  0.1866
  206MOL0     H27134   6.908  10.511   1.526 -0.3987  0.0922 -0.2439
  206MOL0     H27135   6.813  10.464   1.308  1.8992 -0.0758  1.9271
  206MOL0     H27136   6.724  10.397   1.438  3.7600  1.2086  4.1151
  206MOL0     H27137   6.649  10.608   1.239  0.9365 -2.3253 -0.5356
  206MOL0     H27138   6.605  10.639   1.415  2.5881  2.7006 -1.8653
  206MOL0     H27139   6.520  10.370   1.359 -2.4671  1.1191  2.9717
  206MOL0     H27140   6.523  10.435   1.195  0.4926  1.8420 -1.2619
  206MOL0     H27141   6.355  10.593   1.252 -2.3008 -0.6965  0.0737
  206MOL0     H27142   6.297  10.442   1.294 -0.9361  0.6384  1.1754
  206MOL0     H27143   6.355  10.665   1.483 -0.2603  0.6194  0.5817
  206MOL0     H27144   6.431  10.516   1.542 -1.4447 -0.0983  0.5872
  206MOL0     H27145   6.261  10.371   1.680  0.5698  1.3801 -1.5254
  206MOL0     H27146   5.982  10.379   1.789  0.8465  1.7854 -0.3679
  206MOL0     H27147   5.990  10.225   1.682 -1.8032 -0.4482 -0.1531
  206MOL0     H27148   5.789  10.329   1.562 -0.5810 -0.9299 -1.2088
  206MOL0     H27149   5.787  10.450   1.694 -0.8326 -0.0580  0.0965
  206MOL0     H27150   5.782  10.178   1.795  1.0972  0.1401 -1.0711
  206MOL0     H27151   5.736  10.346   1.866 -0.1722  1.6098 -0.9187
  206MOL0     H27152   5.588  10.187   1.664 -1.8407  1.7159 -0.7201
  206MOL0     H27153   5.543  10.350   1.736  0.5741  1.4360  0.7467
  206MOL0     H27154   5.340  10.307   1.704  1.5306 -0.1040  1.2722
  206MOL0     H27155   5.101  10.315   1.797 -2.1043 -2.0477  2.6578
  206MOL0     H27156   4.722  10.196   2.042 -3.0832 -0.2008 -0.9085
  206MOL0     H27157   4.518  10.136   2.175 -0.6574  1.1128  2.5114
  206MOL0     H27158   4.392   9.887   2.525 -1.4226 -0.6209 -1.9772
  206MOL0     H27159   4.565   9.877   2.549  0.6197  0.7629 -0.7132
  206MOL0     H27160   4.579   9.701   2.375  0.1876  0.3287  0.4716
  206MOL0     H27161   4.419   9.719   2.324  2.6093 -1.0893 -1.7648
  206MOL0     H27162   4.324   9.637   2.550 -0.0849 -1.7803  1.7700
  206MOL0     H27163   4.491   9.583   2.585  1.7496  1.7555 -0.4166
  206MOL0     H27164   4.323   9.498   2.351 -0.8411 -0.3109  1.3730
  206MOL0     H27165   4.487   9.434   2.379  0.1275 -0.8910  1.2241
  206MOL0     H27166   4.236   9.392   2.543 -0.2546 -1.1880 -0.3915
  206MOL0     H27167   4.402   9.376   2.616 -0.1810 -0.1919  0.5362
  206MOL0     H27168   4.441   9.210   2.435  0.3331 -2.2002  2.3504
  206MOL0     H27169   4.268   9.221   2.388  0.1655  0.9142 -1.1300
  206MOL0     H27170   4.351   9.034   2.543 -1.4202  0.7858 -1.8195
  206MOL0     H27171   4.350   9.140   2.675 -0.2576  3.2958  0.2499
  206MOL0     H27172   4.111   9.192   2.531  0.1322  1.6036  2.9025
  206MOL0     H27173   4.114   9.102   2.684 -0.1644 -1.7570  0.9054
  206MOL0     H27174   4.740   9.848   2.402  0.1384  1.2220  1.3482
  206MOL0     H27175   4.940   9.908   2.278 -0.2152 -1.7655 -1.8964
  206MOL0     H27176   5.206  10.035   2.096  2.2772 -2.6327 -1.7956
  206MOL0     H27177   5.436  10.062   2.061 -0.4944 -0.4652  0.0446
  206MOL0     H27178   7.285  10.888   1.235 -1.1874 -1.9777  2.2900
  206MOL0     H27179   7.456  10.826   1.037  1.1254 -3.8734 -3.3669
  206MOL0     H27180   7.661  10.556   0.817  2.7277 -1.3893  0.4671
  206MOL0     H27181   7.808  10.403   0.725 -0.0492  1.8137 -0.7794
  206MOL0     H27182   7.720  10.137   0.367  1.0816  0.2243  1.1455
  206MOL0     H27183   7.674  10.027   0.500 -3.1174  2.4390  0.5398
  206MOL0     H27184   7.894   9.978   0.340 -0.1445  0.5765 -0.6073
  206MOL0     H27185   7.956  10.094   0.441 -1.3304 -0.4567 -0.2607
  206MOL0     H27186   7.823   9.937   0.635  0.9313  0.9301  2.3379
  206MOL0     H27187   8.000   9.924   0.587  0.0777 -4.0963 -0.6318
  206MOL0     H27188   7.759   9.774   0.453 -0.1344 -2.9400 -0.9248
  206MOL0     H27189   7.935   9.745   0.442  1.3884 -2.1650  2.8627
  206MOL0     H27190   7.867   9.511   0.771 -0.9355 -1.8040 -0.7297
  206MOL0     H27191   7.522  10.210   0.498  2.2726  1.0328 -2.4939
  206MOL0     H27192   7.357  10.384   0.549  0.1935  0.9438 -0.4863
  207MOL0     O27193   9.967  10.076   2.837  0.7667  0.1116  0.3597
  207MOL0     C27194   9.978   9.975   2.901 -0.2608  1.2838  1.0032
  207MOL0     O27195   9.881   9.873   2.903 -0.2150 -0.5459 -0.4982
  207MOL0     C27196   9.759   9.898   2.839 -0.5681  0.3748 -0.2493
  207MOL0     C27197   9.657   9.960   2.908  0.9354 -0.3252  0.5294
  207MOL0     C27198   9.533   9.979   2.851 -0.6072 -0.8886  0.4542
  207MOL0     C27199   9.505   9.951   2.717 -1.0453  1.2131 -0.8958
  207MOL0     O27200   9.393   9.978   2.650 -0.2606  0.6994 -0.1132
  207MOL0     C27201   9.382  10.118   2.630 -0.0755 -0.8411 -0.9771
  207MOL0     C27202   9.263  10.152   2.540 -1.0240 -0.0276 -0.7852
  207MOL0     C27203   9.145  10.226   2.605 -0.4275  0.0925 -0.2305
  207MOL0     C27204   9.035  10.258   2.500  0.7680 -0.4163  0.1429
  207MOL0     C27205   8.905  10.316   2.563 -0.9445 -0.2954 -0.8598
  207MOL0     C27206   8.852  10.214   2.658  0.2664 -0.2648 -0.1809
  207MOL0     C27207   8.703  10.226   2.676 -0.8751  0.9050  0.1072
  207MOL0     C27208   8.640  10.115   2.755 -0.6394  0.5802 -0.2654
  207MOL0     N27209   8.708  10.080   2.879  0.0180  0.4441 -0.5048
  207MOL0     C27210   8.771   9.953   2.893 -0.2842 -0.7682 -0.3941
  207MOL0     C27211   8.765   9.920   3.026 -0.5404  0.9263 -1.0540
  207MOL0     C27212   8.816   9.788   3.091  0.5103 -0.1572  0.2462
  207MOL0     C27213   8.950   9.812   3.164 -0.8153  0.2876 -0.4662
  207MOL0     C27214   9.064   9.819   3.056  0.1888 -0.0621 -0.5083
  207MOL0     C27215   9.110   9.680   3.006  0.3867 -0.6099 -0.7521
  207MOL0     O27216   9.179   9.607   3.107 -0.5521  0.7916  0.0866
  207MOL0     C27217   9.310   9.626   3.132  0.6595  0.1291 -0.6256
  207MOL0     C27218   9.354   9.602   3.257 -0.0660 -0.0630 -0.1669
  207MOL0     C27219   9.489   9.597   3.288 -0.5373 -0.3950 -0.3379
  207MOL0     C27220   9.589   9.612   3.185 -0.7855 -0.0599  0.6869
  207MOL0     C27221   9.734   9.570   3.194 -0.5797 -0.1790 -1.5145
  207MOL0     O27222   9.807   9.545   3.080  0.0615  0.9696  0.3636
  207MOL0     C27223   9.939   9.494   3.095 -0.0175 -0.0536 -0.8625
  207MOL0     C27224  10.026   9.528   2.991  0.4582  1.1366  1.2165
  207MOL0     C27225  10.157   9.495   2.997  0.1215  0.2891  0.4743
  207MOL0     C27226  10.210   9.419   3.101 -0.1345 -0.3651  0.1693
  207MOL0     O27227  10.338   9.381   3.097 -0.1732  0.2219 -0.3022
  207MOL0     C27228  10.401   9.310   3.205  0.3213 -0.4426  0.4727
  207MOL0     C27229  10.543   9.288   3.156 -0.5377 -0.1688 -0.9313
  207MOL0     C27230  10.613   9.421   3.120 -0.2546  0.5725 -0.9854
  207MOL0     C27231  10.740   9.409   3.035 -0.4244  0.1009 -0.7743
  207MOL0     C27232  10.853   9.338   3.117  0.4595  0.1509 -0.0510
  207MOL0     C27233  11.003   9.367   3.065  0.1834  0.6216 -0.0519
  207MOL0     C27234  11.051   9.512   3.065  0.2017 -0.9300  0.5173
  207MOL0     C27235  11.204   9.530   3.063 -0.5462  0.1772 -0.1723
  207MOL0    Cl27236  11.262   9.461   3.212 -0.0026  0.1947 -0.1034
  207MOL0     C27237  10.123   9.376   3.196  0.6506 -0.1515 -0.8331
  207MOL0     C27238   9.990   9.407   3.194 -0.5983 -1.2547  0.0259
  207MOL0     O27239   9.788   9.569   3.308  0.4441 -0.9075 -0.2052
  207MOL0     C27240   9.537   9.656   3.065 -0.3054 -0.2839  0.0262
  207MOL0     C27241   9.401   9.657   3.035 -0.4341  0.0433  0.4701
  207MOL0     N27242   8.700  10.023   3.087 -0.4983  0.0103  0.4152
  207MOL0     N27243   8.670  10.115   2.999 -0.8874 -0.2901  0.8626
  207MOL0     C27244   9.611   9.880   2.643  0.1994 -1.1875  0.6153
  207MOL0     C27245   9.733   9.859   2.712  0.5053 -0.8079  0.4403
  207MOL0     C27246  10.103   9.947   2.972  0.7088 -0.6882 -0.0860
  207MOL0     C27247  10.104   9.843   3.066 -0.0726 -0.5145 -0.3490
  207MOL0     C27248  10.215   9.808   3.138  0.1650 -0.0014  0.4583
  207MOL0     C27249  10.330   9.885   3.121 -0.1588  0.0057  0.1302
  207MOL0     O27250  10.440   9.848   3.193 -0.0034  0.0720  0.1510
  207MOL0     C27251  10.422   9.805   3.326  0.5919 -0.1128  0.1738
  207MOL0     C27252  10.546   9.839   3.404 -0.5813  0.6968 -0.1057
  207MOL0     C27253  10.519   9.812   3.552  0.4013  0.1237 -0.4704
  207MOL0     C27254  10.640   9.834   3.626  0.2678 -0.5897  0.2359
  207MOL0     C27255  10.607   9.827   3.770  0.0218 -1.0843  0.3160
  207MOL0     C27256  10.586   9.854   3.886 -0.4361 -0.4494  0.5353
  207MOL0     C27257  10.338   9.988   3.022  0.5089  0.5672 -1.4857
  207MOL0     C27258  10.219  10.024   2.956  0.6279  0.0597  0.3554
  207MOL0     H27259   9.673   9.986   3.012  0.0117  1.9814  0.1582
  207MOL0     H27260   9.447  10.019   2.904 -1.9319 -1.6761 -1.0001
  207MOL0     H27261   9.474  10.146   2.578 -0.0828  1.6507  0.2294
  207MOL0     H27262   9.370  10.177   2.721 -2.5314  0.0838 -1.8097
  207MOL0     H27263   9.219  10.064   2.492 -1.3133 -0.4336  0.2030
  207MOL0     H27264   9.321  10.224   2.483  2.7364 -0.5459  2.0074
  207MOL0     H27265   9.189  10.319   2.643  0.8548  0.9750 -3.5553
  207MOL0     H27266   9.115  10.168   2.693 -1.1306 -3.9316 -2.8781
  207MOL0     H27267   9.073  10.327   2.424  0.3020  1.6398  1.6581
  207MOL0     H27268   9.005  10.169   2.444  0.5739  0.5454 -1.3447
  207MOL0     H27269   8.825  10.336   2.492 -0.3983 -0.3141 -1.4929
  207MOL0     H27270   8.936  10.403   2.621  0.9424 -2.6707  2.0418
  207MOL0     H27271   8.905  10.203   2.753  1.0345 -0.1823 -0.5999
  207MOL0     H27272   8.857  10.114   2.614  2.1439 -0.7403  1.0161
  207MOL0     H27273   8.680  10.318   2.730 -0.3490  1.2573 -0.2508
  207MOL0     H27274   8.651  10.229   2.579  0.9144 -0.7900 -0.9766
  207MOL0     H27275   8.635  10.020   2.702  1.6446 -1.2009  2.3933
  207MOL0     H27276   8.537  10.140   2.786 -0.0412  0.5106  1.9539
  207MOL0     H27277   8.825   9.898   2.816  1.6787 -1.6583  1.5134
  207MOL0     H27278   8.828   9.706   3.019 -2.0355 -0.9366  0.5975
  207MOL0     H27279   8.749   9.769   3.176  2.8205 -2.2795  1.7646
  207MOL0     H27280   8.968   9.731   3.236 -2.7142 -0.8810 -1.2051
  207MOL0     H27281   8.933   9.903   3.221  3.2844  1.2354 -0.4584
  207MOL0     H27282   9.038   9.880   2.969 -1.7669 -3.9253 -2.8998
  207MOL0     H27283   9.154   9.866   3.099  0.7161 -2.4505  1.1812
  207MOL0     H27284   9.170   9.698   2.917 -1.7868  4.5038 -1.5471
  207MOL0     H27285   9.027   9.614   2.980 -2.5076  2.4616 -0.0735
  207MOL0     H27286   9.275   9.593   3.331  0.9028  0.3888  0.9719
  207MOL0     H27287   9.514   9.577   3.391 -1.7415  1.1285  0.2806
  207MOL0     H27288   9.999   9.595   2.909  4.4191  2.3490  0.6757
  207MOL0     H27289  10.225   9.522   2.916 -1.5755  1.3865 -0.6428
  207MOL0     H27290  10.341   9.220   3.218 -0.3134 -0.3304 -1.4341
  207MOL0     H27291  10.387   9.377   3.290 -1.7930  0.4325 -0.4810
  207MOL0     H27292  10.544   9.225   3.066  0.2321  0.7197 -1.5695
  207MOL0     H27293  10.594   9.241   3.241  0.6953  1.8683 -0.4793
  207MOL0     H27294  10.633   9.464   3.218 -0.6057 -0.2990 -0.5248
  207MOL0     H27295  10.543   9.476   3.056 -1.0578 -1.1853 -1.6642
  207MOL0     H27296  10.725   9.368   2.935 -1.2499  1.2076 -1.1220
  207MOL0     H27297  10.772   9.512   3.019  1.0810 -0.2386 -0.0685
  207MOL0     H27298  10.844   9.230   3.122  2.2666 -0.1275 -1.8382
  207MOL0     H27299  10.841   9.381   3.218  3.5187 -1.5470  1.1718
  207MOL0     H27300  11.024   9.328   2.965  2.6042  0.8968  0.2860
  207MOL0     H27301  11.063   9.311   3.138 -1.6756 -1.3455  0.0745
  207MOL0     H27302  11.004   9.561   2.980 -1.8045 -0.1788  1.9826
  207MOL0     H27303  11.018   9.574   3.149  1.1960 -0.2340  0.4212
  207MOL0     H27304  11.233   9.635   3.055 -0.0941 -0.0690 -2.4596
  207MOL0     H27305  11.254   9.471   2.986 -1.3159  1.9189 -2.0957
  207MOL0     H27306  10.156   9.315   3.280 -0.9955 -0.2299 -0.2070
  207MOL0     H27307   9.923   9.369   3.270 -0.5719 -1.2650  0.0437
  207MOL0     H27308   9.607   9.687   2.988  0.2481  0.7161  0.9009
  207MOL0     H27309   9.373   9.660   2.930 -2.8576 -2.3221  0.9515
  207MOL0     H27310   9.606   9.867   2.535  1.7744  2.8277 -0.1213
  207MOL0     H27311   9.802   9.795   2.657 -3.0859 -2.8020 -2.2489
  207MOL0     H27312  10.006   9.806   3.095 -0.5128 -0.8856 -2.1502
  207MOL0     H27313  10.205   9.731   3.213 -0.3085  0.6881  1.1137
  207MOL0     H27314  10.406   9.697   3.332 -0.2277  0.0751  1.8134
  207MOL0     H27315  10.336   9.854   3.373 -0.5601 -3.5092  1.9682
  207MOL0     H27316  10.624   9.772   3.366 -1.5402 -1.5946  1.7109
  207MOL0     H27317  10.580   9.940   3.382  0.6723  0.2737 -0.2415
  207MOL0     H27318  10.495   9.707   3.573  2.0066  0.0459  1.2311
  207MOL0     H27319  10.445   9.887   3.580 -0.0263 -0.5170  0.1716
  207MOL0     H27320  10.717   9.765   3.592 -0.6397 -0.8459 -1.4134
  207MOL0     H27321  10.668   9.936   3.595 -3.0714 -0.1832 -2.0156
  207MOL0     H27322  10.574   9.893   3.985  1.1720  1.8065 -0.0834
  207MOL0     H27323  10.438  10.020   2.993  2.5971 -3.5110  0.3549
  207MOL0     H27324  10.226  10.106   2.885  2.2256 -0.1590  0.2164
  208MOL0     O27325  10.666   6.531   0.841  0.8214 -0.2094  0.1574
  208MOL0     C27326  10.666   6.630   0.910  0.5452  0.2263 -0.5480
  208MOL0     O27327  10.554   6.696   0.946 -1.0662 -0.0581 -0.1678
  208MOL0     C27328  10.435   6.665   0.891 -0.0023  0.2000 -0.3984
  208MOL0     C27329  10.322   6.666   0.976 -0.8012  0.6447 -0.8452
  208MOL0     C27330  10.194   6.669   0.919 -0.8992  0.6456  0.6960
  208MOL0     C27331  10.182   6.665   0.779 -1.1830  0.7991 -0.3432
  208MOL0     O27332  10.061   6.690   0.731 -0.2237 -0.1323  0.9313
  208MOL0     C27333   9.990   6.574   0.683 -0.0503 -0.2399  0.0907
  208MOL0     C27334   9.840   6.613   0.645 -0.5076  0.3640 -0.6857
  208MOL0     C27335   9.760   6.653   0.775 -1.1447 -0.6060  0.1704
  208MOL0     C27336   9.630   6.720   0.732  0.2933  0.0875 -0.2807
  208MOL0     C27337   9.537   6.753   0.857 -0.3346  0.4505  0.0310
  208MOL0     C27338   9.518   6.621   0.939 -0.4896 -0.1547  0.1535
  208MOL0     C27339   9.410   6.640   1.051  0.0421 -0.9008 -0.2802
  208MOL0     C27340   9.403   6.515   1.155 -0.4467 -0.4198  0.4051
  208MOL0     N27341   9.294   6.530   1.253 -0.3074  0.1576  0.3163
  208MOL0     C27342   9.164   6.492   1.226  0.1534  0.5111  1.0039
  208MOL0     C27343   9.104   6.544   1.339 -0.1204  1.6773 -0.7467
  208MOL0     C27344   8.957   6.535   1.379  0.9398 -0.1469 -0.1441
  208MOL0     C27345   8.931   6.456   1.508  0.6307 -0.0546 -0.0842
  208MOL0     C27346   8.784   6.423   1.532 -0.6090 -0.8188  0.1557
  208MOL0     C27347   8.691   6.550   1.560 -0.6671 -0.4805  0.3809
  208MOL0     O27348   8.666   6.632   1.446 -0.0034 -0.2243  0.9321
  208MOL0     C27349   8.578   6.748   1.457 -0.8395  0.1423  0.4166
  208MOL0     C27350   8.487   6.757   1.572  0.0623 -0.0168  0.4483
  208MOL0     C27351   8.401   6.865   1.581  0.1740 -0.5319 -0.2704
  208MOL0     C27352   8.375   6.950   1.476 -0.9799  0.1600  0.3875
  208MOL0     C27353   8.271   7.059   1.490 -1.5891 -0.6309  0.4746
  208MOL0     O27354   8.235   7.114   1.362 -0.0885  0.4522  0.7513
  208MOL0     C27355   8.136   7.209   1.335  0.8156  0.4988  0.4224
  208MOL0     C27356   8.063   7.283   1.433  0.4674 -0.5014  0.3431
  208MOL0     C27357   7.969   7.378   1.392 -0.8492  0.3705  0.2588
  208MOL0     C27358   7.947   7.406   1.255 -0.0049  0.8715 -1.0969
  208MOL0     O27359   7.836   7.483   1.226 -0.0627  0.0546  0.0425
  208MOL0     C27360   7.819   7.537   1.094 -0.5288 -0.2982  0.5952
  208MOL0     C27361   7.930   7.640   1.059  0.1570  0.1011  0.0892
  208MOL0     C27362   7.907   7.688   0.912  0.1439 -0.0394  0.7540
  208MOL0     C27363   8.038   7.767   0.867  0.4109 -0.9998 -0.7728
  208MOL0     C27364   8.042   7.831   0.724 -0.5762  0.0147 -0.3197
  208MOL0     C27365   7.935   7.938   0.711 -0.4198 -0.1462  0.1868
  208MOL0     C27366   7.942   8.012   0.579  0.6433 -0.8094 -0.1321
  208MOL0     C27367   7.840   8.127   0.552  0.2378  0.2006 -1.2493
  208MOL0    Cl27368   7.670   8.071   0.608 -0.3250  0.5906  0.9821
  208MOL0     C27369   8.037   7.340   1.164  0.1387 -0.8206 -0.2030
  208MOL0     C27370   8.127   7.251   1.203 -1.2737  0.1275 -0.2750
  208MOL0     O27371   8.223   7.086   1.595  0.2949  0.0896 -0.5041
  208MOL0     C27372   8.474   6.946   1.367 -0.2983 -0.2520  0.3778
  208MOL0     C27373   8.567   6.845   1.364 -1.1348 -0.1048 -0.2816
  208MOL0     N27374   9.187   6.585   1.429  0.6006 -0.4565  0.1140
  208MOL0     N27375   9.308   6.579   1.378  0.3909 -0.1896 -0.6615
  208MOL0     C27376  10.292   6.653   0.697 -0.2250 -0.7145  0.7608
  208MOL0     C27377  10.423   6.657   0.751  0.1522 -0.3734  0.6218
  208MOL0     C27378  10.792   6.680   0.950 -0.6134 -0.3223 -0.9008
  208MOL0     C27379  10.801   6.777   1.053  0.1906  0.3338 -0.1689
  208MOL0     C27380  10.923   6.831   1.083 -0.0080  0.0359 -0.6807
  208MOL0     C27381  11.037   6.792   1.012 -0.0291  0.0549  0.7351
  208MOL0     O27382  11.149   6.875   1.041 -0.4456  0.5446  0.3159
  208MOL0     C27383  11.270   6.864   0.963 -0.5673  0.2369 -0.3538
  208MOL0     C27384  11.253   6.921   0.822 -0.3255  0.3259  0.4212
  208MOL0     C27385  11.186   7.054   0.835  0.7056  0.5374 -0.4495
  208MOL0     C27386  11.213   7.128   0.705 -1.3598 -0.1131  0.3214
  208MOL0     C27387  11.150   7.062   0.587 -0.1671 -0.5594 -0.3568
  208MOL0     C27388  11.117   7.014   0.483  0.1351  0.1225  0.2395
  208MOL0     C27389  11.031   6.703   0.913 -0.0095  0.6511  0.0424
  208MOL0     C27390  10.911   6.636   0.885  0.7542  0.5221 -0.0480
  208MOL0     H27391  10.345   6.685   1.081 -0.8740 -0.0972 -0.6886
  208MOL0     H27392  10.109   6.692   0.983 -0.1940  1.7557  1.2789
  208MOL0     H27393   9.989   6.503   0.766 -0.1076 -1.1599 -0.6715
  208MOL0     H27394  10.035   6.527   0.595 -0.0195 -0.6488  0.3209
  208MOL0     H27395   9.788   6.527   0.602 -1.3112  1.2613 -1.5913
  208MOL0     H27396   9.844   6.695   0.572  0.4416  0.5903 -0.3864
  208MOL0     H27397   9.813   6.710   0.852  2.2304 -1.3878 -1.4058
  208MOL0     H27398   9.740   6.562   0.831  0.0960 -1.0037  0.0001
  208MOL0     H27399   9.650   6.811   0.675  3.1933 -0.8857 -0.9955
  208MOL0     H27400   9.580   6.653   0.662  1.4323  1.0446 -2.0770
  208MOL0     H27401   9.443   6.794   0.818 -0.4986  0.9509  0.9090
  208MOL0     H27402   9.583   6.835   0.913 -1.0574 -0.0959  1.4945
  208MOL0     H27403   9.612   6.589   0.985  0.3725  0.8339 -0.8977
  208MOL0     H27404   9.479   6.547   0.869  1.8353 -0.1455 -1.2363
  208MOL0     H27405   9.419   6.734   1.106 -2.8689 -0.7416  0.0454
  208MOL0     H27406   9.309   6.658   1.014  0.3843  0.5666 -0.5559
  208MOL0     H27407   9.496   6.519   1.213 -0.0829  2.0392 -0.2492
  208MOL0     H27408   9.389   6.423   1.098  0.3843  0.1896 -0.8127
  208MOL0     H27409   9.112   6.432   1.152 -1.8433 -0.5672  3.1163
  208MOL0     H27410   8.914   6.467   1.306  2.7016 -2.4237  0.8095
  208MOL0     H27411   8.903   6.630   1.381 -2.5226 -1.9532 -0.4174
  208MOL0     H27412   8.956   6.516   1.596  3.4607  0.2062 -0.9797
  208MOL0     H27413   8.983   6.361   1.498  0.0924 -0.4605  0.8212
  208MOL0     H27414   8.751   6.367   1.444 -2.4983 -0.3651  0.5336
  208MOL0     H27415   8.771   6.367   1.626  0.5609 -1.8852 -0.2904
  208MOL0     H27416   8.729   6.610   1.643 -3.8832  3.4025 -0.6612
  208MOL0     H27417   8.598   6.500   1.588  0.3152 -1.8729  1.3199
  208MOL0     H27418   8.487   6.692   1.659 -0.8660  1.9413  1.9920
  208MOL0     H27419   8.359   6.882   1.679 -4.0800  0.0096 -1.9527
  208MOL0     H27420   8.067   7.261   1.539 -0.0923  0.0611  0.4846
  208MOL0     H27421   7.911   7.436   1.464 -4.9673 -0.8297 -1.7923
  208MOL0     H27422   7.734   7.604   1.081 -1.3100 -1.4444 -0.5071
  208MOL0     H27423   7.809   7.450   1.029 -0.7923 -0.1637  0.4539
  208MOL0     H27424   8.028   7.590   1.061  0.2408  0.2313 -0.5319
  208MOL0     H27425   7.930   7.728   1.124  2.6821  0.2364  0.0247
  208MOL0     H27426   7.809   7.736   0.907  0.9194  1.7117  1.6586
  208MOL0     H27427   7.902   7.605   0.840 -2.9091  3.3236 -3.4466
  208MOL0     H27428   8.057   7.855   0.929 -0.7935 -1.8536  0.9024
  208MOL0     H27429   8.123   7.702   0.885  0.6518 -0.8069 -1.2005
  208MOL0     H27430   8.028   7.742   0.663  2.7656 -0.1011 -1.1127
  208MOL0     H27431   8.132   7.891   0.706  0.3033 -1.5272 -1.3020
  208MOL0     H27432   7.967   8.010   0.787  3.7977  1.8142 -3.0328
  208MOL0     H27433   7.840   7.887   0.729 -0.3616  0.0966  1.2180
  208MOL0     H27434   8.048   8.029   0.558 -0.0463  0.2004 -3.5238
  208MOL0     H27435   7.920   7.942   0.497  1.8242 -2.5591  0.9921
  208MOL0     H27436   7.848   8.151   0.446  1.3412  0.5744 -1.0995
  208MOL0     H27437   7.861   8.220   0.607  0.3799 -0.4236 -0.2163
  208MOL0     H27438   8.026   7.365   1.059 -3.3119  2.3941  0.7201
  208MOL0     H27439   8.194   7.206   1.131  0.8524  3.9187 -0.9630
  208MOL0     H27440   8.463   7.018   1.287  0.8282  0.0740  0.5067
  208MOL0     H27441   8.637   6.835   1.281 -1.9435  2.1644 -1.2988
  208MOL0     H27442  10.277   6.650   0.589 -0.1914  3.9466  0.4313
  208MOL0     H27443  10.505   6.662   0.681 -1.1054 -0.7389 -0.9592
  208MOL0     H27444  10.715   6.814   1.108  0.0115 -0.0874 -0.1603
  208MOL0     H27445  10.929   6.893   1.172  2.3204  0.9881 -1.4238
  208MOL0     H27446  11.298   6.758   0.959 -0.0681  0.3714 -0.4623
  208MOL0     H27447  11.353   6.908   1.019  0.3901 -1.1777 -0.6094
  208MOL0     H27448  11.349   6.937   0.773  0.6722 -0.2502  2.1208
  208MOL0     H27449  11.194   6.855   0.758 -2.3195  1.5034  0.9496
  208MOL0     H27450  11.225   7.105   0.923 -0.7645 -0.6101  0.9317
  208MOL0     H27451  11.079   7.035   0.845  0.6447  2.0150  3.7285
  208MOL0     H27452  11.180   7.233   0.703 -1.1818 -0.0679 -0.9412
  208MOL0     H27453  11.322   7.135   0.696 -1.3994 -0.8492 -0.9019
  208MOL0     H27454  11.083   6.963   0.395 -1.0212 -1.8423  1.7498
  208MOL0     H27455  11.119   6.662   0.863 -1.1835 -0.7315 -0.9805
  208MOL0     H27456  10.901   6.560   0.808  2.5123  1.0246 -0.8226
  209MOL0     O27457   4.789   5.886   5.167  0.9769  0.3015 -0.3219
  209MOL0     C27458   4.779   5.936   5.060 -0.3315 -0.2818  0.7361
  209MOL0     O27459   4.706   5.877   4.955 -0.0898  0.2094 -0.7343
  209MOL0     C27460   4.602   5.785   4.978 -0.1549 -0.5924 -0.7384
  209MOL0     C27461   4.627   5.648   4.983 -0.5932 -0.8864  0.6293
  209MOL0     C27462   4.528   5.553   4.995  0.3619 -0.4450 -1.0450
  209MOL0     C27463   4.391   5.596   4.999  0.7991  0.4160 -0.2733
  209MOL0     O27464   4.279   5.512   5.009  0.0346  0.2034 -0.1139
  209MOL0     C27465   4.274   5.404   4.919  0.6291  0.1243 -0.3450
  209MOL0     C27466   4.181   5.299   4.971 -0.1705 -0.2670 -0.3911
  209MOL0     C27467   4.236   5.240   5.106  0.2123  0.5962  0.5509
  209MOL0     C27468   4.121   5.153   5.147 -0.2853 -0.5358 -0.4825
  209MOL0     C27469   4.157   5.038   5.233 -1.1405 -0.5639 -0.0500
  209MOL0     C27470   4.041   4.955   5.285  0.6551  0.4718  0.0721
  209MOL0     C27471   4.081   4.810   5.329  0.2147 -0.8563 -1.9482
  209MOL0     C27472   4.126   4.708   5.219  0.0240 -0.8235  0.9072
  209MOL0     N27473   4.114   4.563   5.246 -0.3163 -0.2914  0.3774
  209MOL0     C27474   4.009   4.479   5.286  0.7218  0.3604  0.2797
  209MOL0     C27475   4.065   4.360   5.318 -0.4308 -0.7699  0.3900
  209MOL0     C27476   3.999   4.240   5.365  0.7371  0.0752  0.2629
  209MOL0     C27477   3.861   4.250   5.406  0.3194  0.0948 -0.1479
  209MOL0     C27478   3.810   4.119   5.465  0.2344  0.2353  0.1394
  209MOL0     C27479   3.664   4.145   5.519 -0.8452  0.3966  0.7562
  209MOL0     O27480   3.614   4.031   5.586  0.4611  0.6794 -0.0391
  209MOL0     C27481   3.500   4.029   5.660  0.9104  0.1239  0.2246
  209MOL0     C27482   3.429   4.146   5.702 -0.5312  1.0823 -0.2769
  209MOL0     C27483   3.322   4.135   5.785  0.0635 -0.6170 -0.0156
  209MOL0     C27484   3.276   4.005   5.820  0.5007  0.2156  0.7012
  209MOL0     C27485   3.172   3.990   5.923 -0.4385 -0.2232  0.3507
  209MOL0     O27486   3.156   3.858   5.968  0.1429 -0.4683  0.2154
  209MOL0     C27487   3.051   3.841   6.060  0.1785  0.1863 -0.1741
  209MOL0     C27488   3.048   3.875   6.196 -0.6095 -0.4459 -0.1505
  209MOL0     C27489   2.946   3.824   6.276  0.4467  0.6219 -0.3168
  209MOL0     C27490   2.837   3.750   6.225 -0.5783 -0.4460  0.1529
  209MOL0     O27491   2.722   3.709   6.287  0.3871  0.9782  0.7964
  209MOL0     C27492   2.686   3.787   6.404 -0.2579  0.0632  0.4326
  209MOL0     C27493   2.553   3.750   6.463 -0.2516  0.3212 -0.4593
  209MOL0     C27494   2.443   3.807   6.369  1.5291  0.2766  0.1107
  209MOL0     C27495   2.296   3.778   6.415 -0.6363 -0.3774  0.1599
  209MOL0     C27496   2.248   3.635   6.404 -0.7317 -0.1776 -0.2948
  209MOL0     C27497   2.213   3.594   6.261  0.3757 -0.2492 -0.1567
  209MOL0     C27498   2.250   3.445   6.220 -0.0714 -1.4405 -0.6423
  209MOL0     C27499   2.222   3.409   6.083 -0.2040  0.7134 -0.7569
  209MOL0    Cl27500   2.349   3.463   5.974  0.0298 -0.0679  0.3160
  209MOL0     C27501   2.840   3.713   6.091  1.2909  0.1300  0.2886
  209MOL0     C27502   2.948   3.757   6.011 -0.2566 -0.0672 -0.6081
  209MOL0     O27503   3.106   4.084   5.961 -0.1421 -0.5572 -0.1190
  209MOL0     C27504   3.338   3.891   5.765 -0.0190 -0.9913 -0.0539
  209MOL0     C27505   3.459   3.904   5.692  0.6001  0.2000  0.6425
  209MOL0     N27506   4.203   4.372   5.294  0.7159 -1.2602  0.2941
  209MOL0     N27507   4.230   4.491   5.257  0.2283 -0.4029 -0.1775
  209MOL0     C27508   4.365   5.735   5.011 -0.2857  0.0161  0.3580
  209MOL0     C27509   4.473   5.830   4.990  0.6543  0.5760  1.1841
  209MOL0     C27510   4.861   6.052   5.023  0.0500  0.1520  0.7311
  209MOL0     C27511   4.869   6.097   4.887 -0.1783 -0.2138  0.4783
  209MOL0     C27512   4.953   6.205   4.851 -0.2253 -0.6969  0.5086
  209MOL0     C27513   5.039   6.267   4.948  0.5709  0.0890 -0.7608
  209MOL0     O27514   5.120   6.375   4.922  0.2198  0.2398  0.3989
  209MOL0     C27515   5.154   6.403   4.783  0.4768 -0.4091 -0.6195
  209MOL0     C27516   5.247   6.525   4.775  0.6031  0.0078  0.1417
  209MOL0     C27517   5.253   6.602   4.647 -0.5293  0.3016 -0.2300
  209MOL0     C27518   5.362   6.541   4.558 -0.0843 -0.3279  0.9225
  209MOL0     C27519   5.486   6.595   4.580 -0.6065 -0.1660 -0.1240
  209MOL0     C27520   5.596   6.648   4.588 -0.0799  0.5930 -0.0626
  209MOL0     C27521   5.013   6.232   5.084 -0.4084  0.1580  0.6964
  209MOL0     C27522   4.930   6.120   5.124  0.8339 -0.5933 -0.1212
  209MOL0     H27523   4.731   5.619   4.976  0.1134  1.2107  1.4939
  209MOL0     H27524   4.545   5.448   5.017  0.6996  0.0094  1.1081
  209MOL0     H27525   4.377   5.367   4.909  0.1300 -1.7517  0.9588
  209MOL0     H27526   4.233   5.430   4.821  1.6370 -1.8897 -1.3646
  209MOL0     H27527   4.183   5.218   4.898  1.9439  0.8991 -1.7091
  209MOL0     H27528   4.080   5.342   4.984  0.4441  1.6042 -1.3970
  209MOL0     H27529   4.252   5.312   5.187 -3.7154  2.7090 -0.2508
  209MOL0     H27530   4.327   5.181   5.099 -0.4279 -0.3938  0.4391
  209MOL0     H27531   4.061   5.221   5.207 -0.3806 -0.9810 -0.0618
  209MOL0     H27532   4.061   5.123   5.061  1.3095  1.7637 -2.5083
  209MOL0     H27533   4.230   5.069   5.308 -2.0857  1.4102  0.1178
  209MOL0     H27534   4.214   4.972   5.168  0.4381  0.8539 -0.1679
  209MOL0     H27535   3.958   4.948   5.213 -1.0979 -1.0423  2.0860
  209MOL0     H27536   4.003   5.009   5.372  1.7267 -0.3570  1.0893
  209MOL0     H27537   4.168   4.815   5.394 -1.1013  2.0502 -0.2342
  209MOL0     H27538   3.996   4.772   5.386  1.6530 -3.3036 -1.3080
  209MOL0     H27539   4.228   4.722   5.182 -1.3517  1.8890 -2.4051
  209MOL0     H27540   4.071   4.741   5.130  1.7626  3.6518  1.2375
  209MOL0     H27541   3.900   4.485   5.282  0.7880  2.4705  0.7388
  209MOL0     H27542   4.063   4.205   5.448  1.5731  2.3935  0.6562
  209MOL0     H27543   4.008   4.165   5.285  3.6986  2.5527 -1.9659
  209MOL0     H27544   3.803   4.284   5.320  0.8058  2.4548  0.3880
  209MOL0     H27545   3.855   4.327   5.484 -0.0140 -0.0918  0.0141
  209MOL0     H27546   3.811   4.039   5.390  0.0106 -1.0516  1.4857
  209MOL0     H27547   3.879   4.094   5.545 -0.8505 -1.6907  0.5391
  209MOL0     H27548   3.599   4.178   5.438  0.4103  0.7006 -0.1525
  209MOL0     H27549   3.680   4.230   5.586  0.6820  2.3238 -1.8825
  209MOL0     H27550   3.464   4.242   5.666 -0.1290  1.8174  1.9051
  209MOL0     H27551   3.287   4.228   5.829 -1.6264 -1.6234  0.8989
  209MOL0     H27552   3.136   3.917   6.242  0.3364 -0.3918 -1.9402
  209MOL0     H27553   2.940   3.850   6.381  0.5795  0.2574 -0.2177
  209MOL0     H27554   2.691   3.896   6.397 -2.2436  0.1124 -1.3516
  209MOL0     H27555   2.759   3.769   6.483  2.1218 -1.1285 -1.8643
  209MOL0     H27556   2.552   3.801   6.560 -3.1138  4.7260 -2.4748
  209MOL0     H27557   2.549   3.641   6.473  2.7747  0.2643  1.1163
  209MOL0     H27558   2.462   3.764   6.271 -0.8060  0.7429 -0.6031
  209MOL0     H27559   2.445   3.917   6.369  0.8618  0.3289  1.8755
  209MOL0     H27560   2.291   3.813   6.518  3.7832 -0.9117  0.7648
  209MOL0     H27561   2.228   3.839   6.355 -0.9873  0.2714  1.1857
  209MOL0     H27562   2.171   3.617   6.479 -1.0271  2.0951  0.0103
  209MOL0     H27563   2.331   3.574   6.441 -1.0778  0.4596  1.6546
  209MOL0     H27564   2.269   3.656   6.190  0.9291 -2.6228 -1.9145
  209MOL0     H27565   2.107   3.607   6.236  0.6417 -1.0189 -1.8211
  209MOL0     H27566   2.355   3.432   6.247 -0.1979 -1.4626 -0.1629
  209MOL0     H27567   2.203   3.386   6.299  1.8677  1.0418  2.6238
  209MOL0     H27568   2.123   3.446   6.056 -1.1313  1.5128  3.1465
  209MOL0     H27569   2.212   3.300   6.081  0.9110  0.5663  0.5612
  209MOL0     H27570   2.763   3.650   6.048  2.1858 -1.4689  0.9587
  209MOL0     H27571   2.961   3.719   5.910 -1.8092 -2.6298  0.0782
  209MOL0     H27572   3.314   3.788   5.793  1.9211 -0.9417  2.1369
  209MOL0     H27573   3.499   3.812   5.651 -0.9015  0.1313 -0.7722
  209MOL0     H27574   4.263   5.767   5.026 -0.8465 -2.2046  1.6745
  209MOL0     H27575   4.454   5.935   4.972  2.0302  0.5464 -0.7540
  209MOL0     H27576   4.813   6.036   4.817  0.2997 -0.4436  0.2920
  209MOL0     H27577   4.965   6.236   4.748  2.4307  3.1894  1.7657
  209MOL0     H27578   5.059   6.424   4.735  0.4304 -0.1321 -0.4120
  209MOL0     H27579   5.189   6.312   4.733 -0.6527 -1.3528  0.2479
  209MOL0     H27580   5.213   6.590   4.857 -3.3909 -0.4601 -0.9118
  209MOL0     H27581   5.348   6.496   4.806  1.8630  0.9873 -2.7247
  209MOL0     H27582   5.290   6.704   4.662 -2.2890  0.8852  0.4310
  209MOL0     H27583   5.159   6.618   4.593 -1.4615  2.6685  1.9385
  209MOL0     H27584   5.368   6.433   4.567 -0.9903 -0.5244 -0.4807
  209MOL0     H27585   5.337   6.557   4.452  0.4574 -0.4679  0.7691
  209MOL0     H27586   5.687   6.704   4.585 -0.5098  1.2456 -1.7484
  209MOL0     H27587   5.063   6.292   5.159  0.7702  0.5139 -0.3428
  209MOL0     H27588   4.914   6.088   5.227 -1.6252 -5.2647 -1.6474
  210MOL0     O27589   9.000  10.267   3.968  0.7658  0.2116  0.5362
  210MOL0     C27590   9.055  10.310   3.866  0.5259 -0.2918  0.4417
  210MOL0     O27591   8.993  10.325   3.748 -0.3649 -0.3606  0.1661
  210MOL0     C27592   8.858  10.316   3.745  0.4866  0.5392 -0.7336
  210MOL0     C27593   8.799  10.192   3.764 -0.9300  1.1165 -0.7700
  210MOL0     C27594   8.665  10.168   3.768 -0.4428 -0.5545 -0.4893
  210MOL0     C27595   8.584  10.284   3.744 -0.1190 -0.4774 -0.0690
  210MOL0     O27596   8.446  10.291   3.763 -0.1395 -0.9466 -0.3193
  210MOL0     C27597   8.381  10.195   3.848  0.7890  0.6544 -0.3909
  210MOL0     C27598   8.226  10.214   3.848 -0.3427  0.2254 -0.8411
  210MOL0     C27599   8.154  10.156   3.728 -0.1079 -0.2257 -0.5816
  210MOL0     C27600   7.999  10.170   3.744  0.1595  0.7303  0.2335
  210MOL0     C27601   7.937  10.066   3.637 -0.6379  0.5880 -0.4734
  210MOL0     C27602   7.801  10.116   3.590  1.0333 -0.0772 -0.2639
  210MOL0     C27603   7.803  10.213   3.464 -0.4756  0.1621  0.1517
  210MOL0     C27604   7.672  10.229   3.382  0.9090  0.1164  0.1699
  210MOL0     N27605   7.708  10.301   3.257  0.7113  0.8063  0.2448
  210MOL0     C27606   7.774  10.416   3.248 -0.8811  0.8484  0.0723
  210MOL0     C27607   7.829  10.437   3.127  0.2745 -0.2093  0.3078
  210MOL0     C27608   7.905  10.558   3.065  0.0560  0.2816  0.0989
  210MOL0     C27609   8.057  10.541   3.045 -0.5232 -0.4723 -0.2224
  210MOL0     C27610   8.111  10.665   2.956 -0.4602 -0.2392 -0.2240
  210MOL0     C27611   8.252  10.637   2.902  0.0007 -0.2262 -0.6374
  210MOL0     O27612   8.339  10.563   2.989  0.9264 -0.7604 -0.4733
  210MOL0     C27613   8.470  10.549   2.961 -0.0135 -0.7067  0.3953
  210MOL0     C27614   8.559  10.495   3.052  0.7625 -0.1511 -0.0379
  210MOL0     C27615   8.697  10.492   3.035 -0.7737 -0.4442  0.0215
  210MOL0     C27616   8.745  10.544   2.913 -0.1672  0.3307 -0.3944
  210MOL0     C27617   8.888  10.531   2.882 -0.4974 -0.0975  0.5639
  210MOL0     O27618   8.966  10.451   2.965 -0.8877  0.7736  0.4315
  210MOL0     C27619   9.100  10.430   2.947  0.3256  0.1424 -0.4110
  210MOL0     C27620   9.144  10.299   2.964  0.2556  0.0647 -0.9167
  210MOL0     C27621   9.284  10.278   2.957  0.6179 -0.0926 -0.9236
  210MOL0     C27622   9.372  10.377   2.923  0.2209 -0.1528  0.4344
  210MOL0     O27623   9.498  10.333   2.904 -0.0379 -0.5577  0.9350
  210MOL0     C27624   9.596  10.399   2.977 -0.2915 -0.7837 -1.4761
  210MOL0     C27625   9.737  10.411   2.902  1.5400 -0.2604 -0.5103
  210MOL0     C27626   9.841  10.486   2.993 -1.7431  0.5519  0.6556
  210MOL0     C27627   9.967  10.510   2.903 -0.6645  0.4639 -0.5184
  210MOL0     C27628  10.079  10.589   2.971  0.1292 -0.2214 -0.9931
  210MOL0     C27629  10.177  10.518   3.075  0.1329  0.9574  0.5382
  210MOL0     C27630  10.306  10.597   3.102  0.5348 -0.9158  0.4192
  210MOL0     C27631  10.416  10.508   3.166 -0.7481 -0.4772  0.2592
  210MOL0    Cl27632  10.476  10.371   3.059 -0.3945  0.1603  0.5602
  210MOL0     C27633   9.328  10.505   2.917 -0.0086 -0.0284  0.9382
  210MOL0     C27634   9.192  10.536   2.921  0.3438  0.6668 -0.4327
  210MOL0     O27635   8.925  10.609   2.791  0.1005  0.4163  0.7405
  210MOL0     C27636   8.659  10.594   2.811 -0.2720 -0.7170  0.4461
  210MOL0     C27637   8.520  10.603   2.841  0.2219 -0.0045  0.9278
  210MOL0     N27638   7.793  10.319   3.056  0.2351  0.0644  0.0645
  210MOL0     N27639   7.733  10.239   3.138 -0.0902  1.0402 -0.5399
  210MOL0     C27640   8.639  10.411   3.709  0.1880  0.1691 -0.1721
  210MOL0     C27641   8.774  10.426   3.729 -0.1713  0.0300  0.4581
  210MOL0     C27642   9.201  10.324   3.876 -0.1407 -0.2997 -0.1047
  210MOL0     C27643   9.270  10.322   3.996 -0.1400  0.9021 -0.2434
  210MOL0     C27644   9.413  10.319   3.993 -0.4795  0.5852 -0.3739
  210MOL0     C27645   9.478  10.316   3.864  0.0954  0.2884 -0.6002
  210MOL0     O27646   9.616  10.327   3.837 -0.3616 -0.0780 -0.0102
  210MOL0     C27647   9.716  10.276   3.923 -0.6876 -0.2929 -0.0794
  210MOL0     C27648   9.832  10.264   3.827 -0.1439  0.2905  0.0722
  210MOL0     C27649   9.964  10.225   3.909  0.2975 -0.0464  0.3435
  210MOL0     C27650  10.085  10.185   3.813  0.5211 -0.1423  0.4295
  210MOL0     C27651  10.203  10.131   3.882  0.6645  0.1716  0.3045
  210MOL0     C27652  10.297  10.089   3.947 -0.8874 -0.0152  0.1346
  210MOL0     C27653   9.406  10.306   3.755 -0.7438  0.0345 -0.1426
  210MOL0     C27654   9.270  10.311   3.755 -0.6272 -0.4402  0.1047
  210MOL0     H27655   8.859  10.105   3.789 -1.3242  1.0406 -0.0789
  210MOL0     H27656   8.630  10.067   3.786  1.4662 -1.2913 -0.7511
  210MOL0     H27657   8.414  10.212   3.951 -0.2385 -0.3475  0.1162
  210MOL0     H27658   8.410  10.095   3.815  0.3756 -0.1231  1.4969
  210MOL0     H27659   8.196  10.318   3.865  0.4115  0.6771 -2.1087
  210MOL0     H27660   8.186  10.157   3.932  2.0685 -1.1993 -0.5482
  210MOL0     H27661   8.187  10.051   3.724 -0.0471 -0.2092 -0.5041
  210MOL0     H27662   8.168  10.212   3.635 -1.0363  3.3695  1.2690
  210MOL0     H27663   7.978  10.142   3.848  1.8958 -0.6377  0.2720
  210MOL0     H27664   7.966  10.273   3.730 -0.2628  1.0902  3.1173
  210MOL0     H27665   7.928   9.975   3.697 -1.1789 -0.0078 -1.4283
  210MOL0     H27666   8.012  10.035   3.563 -0.1632  1.2430 -0.2802
  210MOL0     H27667   7.737  10.145   3.674  0.5261  0.0491 -0.6844
  210MOL0     H27668   7.751  10.030   3.544 -1.2315  2.1905 -2.3724
  210MOL0     H27669   7.822  10.315   3.501 -1.4068  0.9261 -1.3872
  210MOL0     H27670   7.888  10.207   3.396 -1.0952  3.0166 -1.0343
  210MOL0     H27671   7.596  10.288   3.434  1.7308  0.5360  0.9313
  210MOL0     H27672   7.627  10.135   3.350 -0.1868 -0.1330  2.2716
  210MOL0     H27673   7.774  10.490   3.328 -0.2603  1.3613 -0.3862
  210MOL0     H27674   7.884  10.641   3.133  1.7052  0.5860  0.2636
  210MOL0     H27675   7.861  10.573   2.966  0.7447  0.0189 -0.2556
  210MOL0     H27676   8.062  10.443   2.996  0.6476 -1.0619  1.0057
  210MOL0     H27677   8.122  10.534   3.133  0.6376  2.3655 -0.7542
  210MOL0     H27678   8.044  10.693   2.874  0.4138 -0.4155 -1.0023
  210MOL0     H27679   8.128  10.757   3.011 -0.4322  1.0292 -2.2602
  210MOL0     H27680   8.279  10.743   2.898 -2.9187  0.7807  1.9107
  210MOL0     H27681   8.243  10.597   2.801 -0.8788  2.5602 -1.7697
  210MOL0     H27682   8.507  10.470   3.144 -1.3862  0.9754 -0.8996
  210MOL0     H27683   8.763  10.445   3.107  2.0592  2.3371 -0.5054
  210MOL0     H27684   9.080  10.215   2.989  4.0306 -2.3912  1.5700
  210MOL0     H27685   9.319  10.175   2.963  2.8386  0.6757  0.3221
  210MOL0     H27686   9.600  10.343   3.071  1.2561  1.2669 -0.2409
  210MOL0     H27687   9.571  10.502   3.001  1.2933 -1.0040  1.6366
  210MOL0     H27688   9.724  10.473   2.812  1.0672  2.6126  1.4148
  210MOL0     H27689   9.769  10.309   2.875  0.9067 -0.2899 -1.2061
  210MOL0     H27690   9.862  10.421   3.079  1.1022  3.3627  2.2842
  210MOL0     H27691   9.803  10.583   3.026 -1.7150  0.3430  1.3298
  210MOL0     H27692  10.021  10.426   2.859 -2.5567  0.4478 -3.0498
  210MOL0     H27693   9.935  10.572   2.819 -1.7781  1.1192  0.3511
  210MOL0     H27694  10.029  10.669   3.027 -3.1862 -0.8066 -2.8798
  210MOL0     H27695  10.138  10.626   2.887  0.6713  2.4662  0.4558
  210MOL0     H27696  10.198  10.420   3.033  1.4300  2.0629 -1.5666
  210MOL0     H27697  10.127  10.500   3.171 -0.4403 -1.2865 -0.1192
  210MOL0     H27698  10.333  10.652   3.012 -1.9681  1.0565  0.7684
  210MOL0     H27699  10.276  10.673   3.174 -0.4434 -1.5865  0.7382
  210MOL0     H27700  10.387  10.463   3.261  1.6950 -3.3957 -0.2481
  210MOL0     H27701  10.503  10.572   3.180 -0.5456 -0.6829 -0.0634
  210MOL0     H27702   9.402  10.580   2.892 -0.2307 -0.5507 -1.5634
  210MOL0     H27703   9.157  10.636   2.899  1.3429  1.2158  0.3869
  210MOL0     H27704   8.706  10.637   2.723 -1.1557  0.1429  0.3811
  210MOL0     H27705   8.463  10.653   2.765  0.9133  1.2107  1.1836
  210MOL0     H27706   8.570  10.495   3.703  0.3264  0.6718  3.3905
  210MOL0     H27707   8.826  10.521   3.727  1.5227 -0.7866  2.1258
  210MOL0     H27708   9.215  10.328   4.090  1.1375  2.1016  0.4561
  210MOL0     H27709   9.478  10.315   4.080 -1.8962  1.3592  0.7349
  210MOL0     H27710   9.703  10.180   3.974 -1.7887  1.2125  2.7142
  210MOL0     H27711   9.740  10.359   3.990 -1.1383 -0.3310  0.1349
  210MOL0     H27712   9.795  10.184   3.762 -1.5414  1.2883 -0.4159
  210MOL0     H27713   9.850  10.352   3.763 -0.7887 -1.4360 -2.6568
  210MOL0     H27714   9.943  10.153   3.989  2.8276  0.9990  2.0637
  210MOL0     H27715  10.004  10.312   3.962  2.2412 -1.7358  1.8175
  210MOL0     H27716  10.060  10.112   3.734 -0.1705 -0.0658  0.5754
  210MOL0     H27717  10.105  10.282   3.766 -1.3598  0.9794  1.8131
  210MOL0     H27718  10.381  10.057   4.006  0.9028 -0.2943 -2.3830
  210MOL0     H27719   9.471  10.316   3.669  1.3166  1.0140  1.4340
  210MOL0     H27720   9.218  10.305   3.660 -0.7836  0.5383  0.1194
  211MOL0     O27721   1.632   0.897   5.623 -0.3528 -0.2196 -0.7100
  211MOL0     C27722   1.528   0.837   5.619 -0.4485 -0.0795 -0.7063
  211MOL0     O27723   1.494   0.745   5.707 -0.4371 -0.4295 -0.6776
  211MOL0     C27724   1.569   0.705   5.809  0.0234  0.1434 -0.3314
  211MOL0     C27725   1.533   0.577   5.855 -0.1876 -0.3718 -0.6415
  211MOL0     C27726   1.610   0.510   5.956 -0.1296  0.7541 -0.3877
  211MOL0     C27727   1.716   0.571   6.024 -0.0003 -0.8624  0.6795
  211MOL0     O27728   1.790   0.520   6.129 -0.2781  0.4291  0.3416
  211MOL0     C27729   1.767   0.389   6.181  0.1762 -0.0825 -0.9698
  211MOL0     C27730   1.872   0.355   6.282 -0.0777 -0.6407  1.3250
  211MOL0     C27731   1.830   0.229   6.358 -0.4740  0.0428  0.7437
  211MOL0     C27732   1.940   0.193   6.452 -0.4694 -0.0870 -0.1006
  211MOL0     C27733   1.892   0.096   6.568 -0.6504 -0.2900 -0.2992
  211MOL0     C27734   1.851  -0.045   6.513  0.2889 -0.0563  0.1414
  211MOL0     C27735   1.751  -0.113   6.598  0.6935  0.8675  0.4916
  211MOL0     C27736   1.731  -0.253   6.553  0.7768  0.1653  0.0015
  211MOL0     N27737   1.630  -0.325   6.636 -0.3555  0.5787  0.0614
  211MOL0     C27738   1.649  -0.355   6.767 -0.4663 -1.0400  0.5582
  211MOL0     C27739   1.559  -0.451   6.790 -0.3229  0.0234 -0.3539
  211MOL0     C27740   1.531  -0.499   6.931  0.3912  0.4474  0.0906
  211MOL0     C27741   1.412  -0.591   6.965  0.8979 -0.0740  0.0579
  211MOL0     C27742   1.285  -0.516   6.933 -0.1294  1.1257  0.2787
  211MOL0     C27743   1.159  -0.583   7.000 -0.7433 -0.3537  0.1074
  211MOL0     O27744   1.052  -0.479   7.008 -0.1219 -0.1960  0.6808
  211MOL0     C27745   0.922  -0.516   6.988  1.2966  0.0508  0.0262
  211MOL0     C27746   0.832  -0.411   7.008  0.2864 -1.0820 -0.4013
  211MOL0     C27747   0.695  -0.423   6.988  0.0606 -0.0098 -1.4085
  211MOL0     C27748   0.639  -0.552   6.969  0.2617  0.3504 -0.2076
  211MOL0     C27749   0.493  -0.552   6.934  0.8521  0.6377 -1.1594
  211MOL0     O27750   0.422  -0.434   6.940  0.8828  0.2100  0.1518
  211MOL0     C27751   0.291  -0.424   6.895 -0.0780  0.5288 -0.8289
  211MOL0     C27752   0.170  -0.428   6.970 -0.2042 -1.2825 -0.1002
  211MOL0     C27753   0.049  -0.409   6.912  0.4700 -0.8704  0.2126
  211MOL0     C27754   0.032  -0.382   6.774  0.5336  0.4316 -0.2484
  211MOL0     O27755  -0.093  -0.367   6.722 -0.1130  0.9711  0.0323
  211MOL0     C27756  -0.101  -0.361   6.575  0.3002  0.0534  0.4243
  211MOL0     C27757  -0.249  -0.317   6.549  0.3778  0.6543 -0.1255
  211MOL0     C27758  -0.354  -0.429   6.573  0.2226  1.0365  0.3624
  211MOL0     C27759  -0.394  -0.434   6.729 -0.7105  0.5984  0.3622
  211MOL0     C27760  -0.541  -0.473   6.756 -1.0187 -0.0529 -0.2801
  211MOL0     C27761  -0.628  -0.353   6.732 -0.2914 -0.9539  0.8637
  211MOL0     C27762  -0.781  -0.395   6.753  0.0369 -0.1245 -0.2995
  211MOL0     C27763  -0.846  -0.491   6.669 -0.5483 -0.1533 -0.2063
  211MOL0    Cl27764  -0.871  -0.462   6.497  0.4046  0.2624  0.0000
  211MOL0     C27765   0.148  -0.386   6.700 -0.3478 -0.1487 -0.5398
  211MOL0     C27766   0.271  -0.410   6.760  0.5676 -0.2281  0.3095
  211MOL0     O27767   0.442  -0.663   6.902 -0.1595 -0.6435  0.3614
  211MOL0     C27768   0.726  -0.660   6.934 -0.7236  0.1196  0.4479
  211MOL0     C27769   0.865  -0.643   6.951  0.0094  0.1670  0.1519
  211MOL0     N27770   1.503  -0.496   6.675 -0.6370 -0.6696  0.6780
  211MOL0     N27771   1.556  -0.427   6.576 -0.4853 -0.6472  0.2038
  211MOL0     C27772   1.756   0.689   5.969 -0.0824 -0.7677 -0.0293
  211MOL0     C27773   1.683   0.758   5.866  0.4146 -0.0018 -1.0820
  211MOL0     C27774   1.422   0.899   5.540 -0.8764 -0.5655 -0.4443
  211MOL0     C27775   1.291   0.885   5.589  0.1998 -0.6201 -0.1650
  211MOL0     C27776   1.183   0.942   5.519  0.5230  0.1350 -0.1636
  211MOL0     C27777   1.192   0.997   5.394 -0.3156 -0.7594  0.6902
  211MOL0     O27778   1.096   1.082   5.327  0.8244  0.2892 -0.1348
  211MOL0     C27779   0.982   1.017   5.281  0.1313 -0.4386  0.5459
  211MOL0     C27780   0.860   1.114   5.309 -0.0064 -0.1959 -0.6839
  211MOL0     C27781   0.790   1.090   5.447 -0.1449 -0.2221  0.0330
  211MOL0     C27782   0.692   1.200   5.481 -0.8133  0.5948  0.5234
  211MOL0     C27783   0.580   1.212   5.397  0.6486 -0.7615  0.2642
  211MOL0     C27784   0.478   1.229   5.332 -0.4241 -0.4954  0.2589
  211MOL0     C27785   1.323   0.998   5.345  0.1300 -0.6323  0.9197
  211MOL0     C27786   1.433   0.959   5.413 -0.3219  0.2539 -0.4475
  211MOL0     H27787   1.447   0.532   5.805  0.7801  0.1886 -2.9386
  211MOL0     H27788   1.586   0.409   5.991 -0.4282  0.4111 -1.5530
  211MOL0     H27789   1.769   0.308   6.108  0.6870 -0.8967 -0.0746
  211MOL0     H27790   1.667   0.397   6.225  1.3208 -1.2522  2.1984
  211MOL0     H27791   1.892   0.434   6.355  1.2787 -0.7507  1.1002
  211MOL0     H27792   1.965   0.320   6.235 -1.3918 -3.3386  0.5192
  211MOL0     H27793   1.806   0.159   6.277  2.9664 -0.3425 -0.0826
  211MOL0     H27794   1.740   0.271   6.405  1.6469  4.5223  1.3296
  211MOL0     H27795   2.023   0.147   6.397  2.5373  0.4535  3.5759
  211MOL0     H27796   1.985   0.280   6.502  1.1435 -1.1661  0.4052
  211MOL0     H27797   1.809   0.154   6.608 -0.6634 -1.1828  0.9947
  211MOL0     H27798   1.977   0.087   6.636  2.3514 -1.4647 -3.8790
  211MOL0     H27799   1.947  -0.097   6.503  0.7260  0.7344  0.0537
  211MOL0     H27800   1.806  -0.037   6.414  2.3317  0.7730 -0.7833
  211MOL0     H27801   1.794  -0.125   6.698  0.9570 -1.4213  0.1461
  211MOL0     H27802   1.659  -0.054   6.606  0.6363  0.5712  2.9809
  211MOL0     H27803   1.825  -0.308   6.565  0.6645  0.3163  1.8891
  211MOL0     H27804   1.696  -0.252   6.449 -1.1903  1.1897  0.6425
  211MOL0     H27805   1.700  -0.293   6.839  0.0448 -0.1762 -0.5069
  211MOL0     H27806   1.501  -0.410   6.987 -1.8401 -0.3598  0.3112
  211MOL0     H27807   1.626  -0.536   6.972 -0.1837 -1.8255 -0.4508
  211MOL0     H27808   1.418  -0.598   7.074  0.6278 -0.4289  0.0473
  211MOL0     H27809   1.402  -0.686   6.913 -2.0651 -1.0766  2.2139
  211MOL0     H27810   1.291  -0.410   6.961 -2.1907  0.4993  3.6745
  211MOL0     H27811   1.268  -0.522   6.825 -2.0259  0.3918  0.5836
  211MOL0     H27812   1.182  -0.616   7.102 -3.0123  1.2179  1.1857
  211MOL0     H27813   1.137  -0.680   6.954 -2.9983 -2.1167  4.3453
  211MOL0     H27814   0.867  -0.312   7.035 -2.6468 -0.1194  0.1820
  211MOL0     H27815   0.627  -0.339   6.997 -3.7747 -2.9883  0.1867
  211MOL0     H27816   0.175  -0.442   7.077  1.0880 -4.1579 -0.4289
  211MOL0     H27817  -0.042  -0.399   6.970 -0.1124 -3.5936 -0.1037
  211MOL0     H27818  -0.071  -0.453   6.525 -2.1529  0.6062 -2.3345
  211MOL0     H27819  -0.034  -0.284   6.533  1.4234 -1.3733 -0.5235
  211MOL0     H27820  -0.252  -0.282   6.445  3.6365  0.1644 -0.4800
  211MOL0     H27821  -0.277  -0.228   6.607 -0.5178  0.2197  0.1271
  211MOL0     H27822  -0.330  -0.532   6.545 -2.0142  0.3201  0.9134
  211MOL0     H27823  -0.441  -0.395   6.517  2.2039 -0.3436 -4.0704
  211MOL0     H27824  -0.318  -0.498   6.774 -2.2442 -1.1720  0.5281
  211MOL0     H27825  -0.380  -0.337   6.778  3.2648  0.5669 -0.3737
  211MOL0     H27826  -0.542  -0.506   6.861 -0.8222  1.5228  0.2526
  211MOL0     H27827  -0.569  -0.553   6.688 -0.1460  0.1317 -0.8676
  211MOL0     H27828  -0.623  -0.307   6.633 -2.1556 -0.6160  0.8904
  211MOL0     H27829  -0.607  -0.282   6.812  1.3534 -2.8357  2.1837
  211MOL0     H27830  -0.783  -0.428   6.858 -0.2839  2.7003  0.6469
  211MOL0     H27831  -0.834  -0.302   6.734  0.1668  0.0663  0.2554
  211MOL0     H27832  -0.948  -0.499   6.707 -1.0993  1.0993 -1.3288
  211MOL0     H27833  -0.795  -0.587   6.678 -1.4040 -0.8376 -2.1580
  211MOL0     H27834   0.154  -0.361   6.594  1.8836 -0.8946 -0.6472
  211MOL0     H27835   0.354  -0.401   6.691  2.0184 -2.9161  1.5710
  211MOL0     H27836   0.691  -0.754   6.893  0.6537 -0.4627  0.5491
  211MOL0     H27837   0.931  -0.729   6.949 -1.1393 -0.7299 -1.8036
  211MOL0     H27838   1.850   0.728   6.005 -0.2581 -1.8358  1.6847
  211MOL0     H27839   1.724   0.853   5.832  0.3033  1.6412  2.8198
  211MOL0     H27840   1.261   0.842   5.684 -2.4582 -0.2756 -0.7888
  211MOL0     H27841   1.089   0.957   5.571  0.6817  0.0477  0.1504
  211MOL0     H27842   0.973   0.925   5.340  0.1457 -1.1558 -0.5492
  211MOL0     H27843   0.989   1.003   5.173  0.1737  1.1197  0.3252
  211MOL0     H27844   0.901   1.215   5.313  0.2221 -0.3064 -0.2237
  211MOL0     H27845   0.783   1.115   5.231 -0.4420 -3.4097 -0.4495
  211MOL0     H27846   0.870   1.097   5.521 -1.5704 -0.0952  1.6109
  211MOL0     H27847   0.754   0.988   5.463  0.8291 -0.4804  0.7012
  211MOL0     H27848   0.645   1.174   5.575  0.1827 -2.9070  0.1816
  211MOL0     H27849   0.749   1.294   5.484 -1.0050  0.6931  1.2357
  211MOL0     H27850   0.389   1.258   5.280 -0.2300 -0.4305 -0.0363
  211MOL0     H27851   1.331   1.046   5.248 -0.8221 -0.0150  1.1345
  211MOL0     H27852   1.534   0.978   5.379 -0.5617 -0.4691 -1.5840
  212MOL0     O27853   1.909   7.716   3.940 -0.1999 -1.0422 -0.1398
  212MOL0     C27854   1.987   7.780   3.867  0.0108  0.2665 -0.4612
  212MOL0     O27855   1.956   7.841   3.750  0.0788  0.1482  0.0366
  212MOL0     C27856   1.822   7.849   3.716 -0.4561 -0.5774 -0.4925
  212MOL0     C27857   1.713   7.909   3.780 -0.0847  0.1831  0.2650
  212MOL0     C27858   1.593   7.935   3.720  0.1518  0.1202  0.3368
  212MOL0     C27859   1.576   7.887   3.590  1.0987  0.7594  0.1535
  212MOL0     O27860   1.461   7.909   3.518  0.0633  0.5661 -0.1201
  212MOL0     C27861   1.377   7.788   3.500 -0.2006 -0.5743 -0.3050
  212MOL0     C27862   1.229   7.788   3.545 -0.0764  0.0158  1.5344
  212MOL0     C27863   1.140   7.850   3.433 -0.0535 -0.0606  0.5464
  212MOL0     C27864   0.996   7.835   3.470  0.7706 -0.1004  0.7375
  212MOL0     C27865   0.909   7.842   3.347  0.0249  0.1512 -0.3251
  212MOL0     C27866   0.757   7.872   3.374  0.4020 -0.0835 -0.3894
  212MOL0     C27867   0.662   7.880   3.249 -0.1667  0.8487 -0.7429
  212MOL0     C27868   0.697   7.988   3.153 -0.2306  0.2055 -0.3994
  212MOL0     N27869   0.568   8.043   3.090 -0.3826  0.8699  0.6304
  212MOL0     C27870   0.495   7.964   2.998 -0.0732  0.2374 -0.3658
  212MOL0     C27871   0.375   8.026   3.009  0.3677 -0.2343  1.1142
  212MOL0     C27872   0.261   7.980   2.911  0.0377 -0.4415  0.2583
  212MOL0     C27873   0.122   8.032   2.964 -0.0371 -1.0443 -0.0522
  212MOL0     C27874   0.012   8.011   2.865 -0.0119  0.4094  0.0263
  212MOL0     C27875  -0.125   8.069   2.907  0.1589 -0.6189  0.3969
  212MOL0     O27876  -0.214   8.067   2.798  0.0135 -0.1950  0.8515
  212MOL0     C27877  -0.345   8.115   2.824 -1.0081  0.0695  0.3123
  212MOL0     C27878  -0.431   8.104   2.713 -0.0260  0.3377  0.7540
  212MOL0     C27879  -0.561   8.151   2.712  0.3884 -0.0287 -0.0733
  212MOL0     C27880  -0.608   8.222   2.829 -0.2027 -1.0731  0.5475
  212MOL0     C27881  -0.748   8.264   2.846  0.2619 -0.2677 -0.5621
  212MOL0     O27882  -0.780   8.340   2.958  0.1611 -0.3304  0.1138
  212MOL0     C27883  -0.917   8.359   2.976  0.9273 -0.6569 -0.0072
  212MOL0     C27884  -0.985   8.433   2.883 -0.0732 -0.6649  0.5231
  212MOL0     C27885  -1.121   8.452   2.891 -0.4928  0.2666  0.6454
  212MOL0     C27886  -1.190   8.412   3.004  0.1345  0.2639  0.4659
  212MOL0     O27887  -1.330   8.408   3.015 -0.5786  0.0011  0.4826
  212MOL0     C27888  -1.396   8.492   2.926  0.5044 -0.3282  0.4196
  212MOL0     C27889  -1.546   8.515   2.974  0.5974  0.3757  1.3564
  212MOL0     C27890  -1.599   8.638   2.915 -0.1448 -0.3594  0.4984
  212MOL0     C27891  -1.754   8.649   2.949 -0.5928  0.5310  0.0681
  212MOL0     C27892  -1.836   8.552   2.858  0.1912 -0.3971  0.0799
  212MOL0     C27893  -1.981   8.578   2.888  0.4356 -0.0409  0.1465
  212MOL0     C27894  -2.082   8.507   2.787 -0.2103 -0.2086  0.4654
  212MOL0     C27895  -2.228   8.545   2.809  0.0367  0.2065 -0.2494
  212MOL0    Cl27896  -2.327   8.458   2.680 -0.1319 -0.0416  0.2412
  212MOL0     C27897  -1.121   8.343   3.105  0.5769 -0.2077  0.0113
  212MOL0     C27898  -0.984   8.318   3.087 -0.4816  0.4858  0.0953
  212MOL0     O27899  -0.828   8.228   2.760 -0.5876 -0.0910 -0.4460
  212MOL0     C27900  -0.528   8.235   2.938 -0.1325  0.4080  0.7230
  212MOL0     C27901  -0.392   8.194   2.926  0.1964  0.1759 -0.1477
  212MOL0     N27902   0.378   8.140   3.097 -0.6969  0.0394  0.4264
  212MOL0     N27903   0.497   8.143   3.141 -0.3421  0.3296 -0.6907
  212MOL0     C27904   1.672   7.820   3.523 -0.3723  0.3974 -0.0471
  212MOL0     C27905   1.799   7.805   3.585  0.1660  0.3850  0.3816
  212MOL0     C27906   2.123   7.788   3.930  0.2153  1.2506  0.8428
  212MOL0     C27907   2.226   7.837   3.850  0.7758 -0.7206 -0.3665
  212MOL0     C27908   2.345   7.865   3.906  0.1999 -0.4609  0.4557
  212MOL0     C27909   2.369   7.822   4.036  0.0405 -0.5212 -0.0469
  212MOL0     O27910   2.491   7.854   4.095  0.0902 -0.0528  0.3761
  212MOL0     C27911   2.603   7.897   4.018  0.7831 -0.9854 -0.0336
  212MOL0     C27912   2.730   7.895   4.109  0.4533  1.2872  1.4240
  212MOL0     C27913   2.851   7.928   4.006 -0.9142  0.0621 -0.4846
  212MOL0     C27914   2.993   7.896   4.046 -0.1894 -0.8299 -0.0963
  212MOL0     C27915   3.041   7.981   4.159 -0.2323  0.4153  0.9703
  212MOL0     C27916   3.078   8.016   4.264 -0.5570  0.3192  0.1359
  212MOL0     C27917   2.275   7.759   4.110  0.2758  0.2130  1.0146
  212MOL0     C27918   2.151   7.737   4.057 -0.2478 -0.1637  0.9654
  212MOL0     H27919   1.726   7.952   3.879  1.8737  1.5510 -0.5047
  212MOL0     H27920   1.507   7.983   3.765 -0.0827 -0.7048  0.8091
  212MOL0     H27921   1.431   7.703   3.542  2.3052  0.8889 -0.3900
  212MOL0     H27922   1.376   7.772   3.392  1.0414  0.3289 -0.4706
  212MOL0     H27923   1.221   7.844   3.639 -1.8100  1.5903  0.5189
  212MOL0     H27924   1.197   7.684   3.547 -1.1616  0.2464 -0.8293
  212MOL0     H27925   1.147   7.802   3.335 -2.0332  0.3865  0.1483
  212MOL0     H27926   1.169   7.955   3.423  0.7879 -0.5101 -3.2446
  212MOL0     H27927   0.958   7.754   3.533 -2.7062  0.8986  0.1234
  212MOL0     H27928   0.964   7.930   3.515 -1.6573 -0.5939  0.1919
  212MOL0     H27929   0.922   7.747   3.295  1.6418 -0.1100  0.4714
  212MOL0     H27930   0.941   7.928   3.287  0.1251  1.4416  1.4882
  212MOL0     H27931   0.759   7.962   3.435  0.3492 -0.6758  0.5115
  212MOL0     H27932   0.722   7.787   3.433  0.4862  1.4003  1.8998
  212MOL0     H27933   0.653   7.779   3.207 -4.2768  0.8570 -0.2192
  212MOL0     H27934   0.564   7.901   3.291  0.3691  1.6138  0.1624
  212MOL0     H27935   0.768   7.943   3.083 -0.6487 -3.4470  1.2695
  212MOL0     H27936   0.735   8.072   3.211 -1.8725  0.4644  0.3448
  212MOL0     H27937   0.525   7.873   2.946 -0.6679 -1.3507  1.8743
  212MOL0     H27938   0.256   7.871   2.900  1.0800 -0.3134 -2.0601
  212MOL0     H27939   0.277   8.014   2.809 -2.2261 -1.0292 -0.3424
  212MOL0     H27940   0.130   8.141   2.966  0.6788 -0.8776 -3.8164
  212MOL0     H27941   0.088   7.996   3.061  2.3976 -0.3579  1.1332
  212MOL0     H27942   0.037   8.063   2.772 -2.3424 -0.7878 -1.3497
  212MOL0     H27943   0.002   7.903   2.860 -1.4532  0.2955  3.1719
  212MOL0     H27944  -0.112   8.173   2.941  1.0181 -1.6264  3.4288
  212MOL0     H27945  -0.164   8.013   2.992 -2.7345 -1.6990 -1.4855
  212MOL0     H27946  -0.379   8.063   2.627 -0.1722  3.3305 -0.8965
  212MOL0     H27947  -0.628   8.129   2.630  0.4527  0.9189 -0.3986
  212MOL0     H27948  -0.930   8.474   2.799  1.9332  0.5761  2.3425
  212MOL0     H27949  -1.180   8.482   2.805  0.4612  1.1739  0.2801
  212MOL0     H27950  -1.403   8.434   2.833 -1.9947 -1.4315  1.2062
  212MOL0     H27951  -1.344   8.587   2.909 -0.2664 -0.2951 -2.2674
  212MOL0     H27952  -1.564   8.521   3.082 -2.6334  0.0837  0.9307
  212MOL0     H27953  -1.605   8.430   2.938  0.1469  2.1189 -2.4954
  212MOL0     H27954  -1.590   8.650   2.807  4.1397  0.2134  0.7337
  212MOL0     H27955  -1.545   8.723   2.959 -0.8487  0.4368 -0.1605
  212MOL0     H27956  -1.765   8.632   3.056  0.7332 -0.6529  0.0380
  212MOL0     H27957  -1.785   8.752   2.927  0.5380  1.2142  1.4890
  212MOL0     H27958  -1.819   8.449   2.889 -1.2293 -0.1112  2.0357
  212MOL0     H27959  -1.828   8.579   2.753 -2.9602 -0.8415 -0.3690
  212MOL0     H27960  -2.005   8.685   2.884 -2.1109 -0.5402  0.0658
  212MOL0     H27961  -2.006   8.549   2.990 -2.8256  2.6290  0.2992
  212MOL0     H27962  -2.056   8.539   2.685 -0.8084 -1.3550 -0.0629
  212MOL0     H27963  -2.077   8.399   2.804 -1.8207 -0.3216  0.3274
  212MOL0     H27964  -2.252   8.652   2.803 -1.0068  0.1269  1.6353
  212MOL0     H27965  -2.275   8.521   2.906 -0.0017 -0.4775 -0.4312
  212MOL0     H27966  -1.175   8.319   3.196  1.8400 -1.2003  0.5261
  212MOL0     H27967  -0.936   8.287   3.180  0.3073  0.2789 -0.3707
  212MOL0     H27968  -0.557   8.272   3.036 -2.8206  2.4300 -0.7138
  212MOL0     H27969  -0.327   8.216   3.010  1.3912 -0.8159 -0.7907
  212MOL0     H27970   1.651   7.805   3.418 -2.3211 -0.7600  0.4635
  212MOL0     H27971   1.873   7.751   3.526 -1.9333  1.9876 -4.1619
  212MOL0     H27972   2.200   7.878   3.753  2.9334 -1.4115 -1.2925
  212MOL0     H27973   2.412   7.929   3.849  0.3566 -0.4639  0.6347
  212MOL0     H27974   2.571   7.988   3.966  3.5403 -0.8300 -1.6865
  212MOL0     H27975   2.626   7.835   3.930 -0.6303 -0.3360 -0.8928
  212MOL0     H27976   2.715   7.975   4.183 -0.0575  1.4901  1.1067
  212MOL0     H27977   2.749   7.800   4.159 -1.6089 -0.5960 -1.1361
  212MOL0     H27978   2.855   8.036   3.990  0.2705  0.0581 -0.3459
  212MOL0     H27979   2.825   7.886   3.909  0.4541 -3.5993  0.5559
  212MOL0     H27980   3.019   7.790   4.059  1.0363 -0.5240  0.0958
  212MOL0     H27981   3.060   7.928   3.965 -1.7786  5.3045  0.5333
  212MOL0     H27982   3.118   8.065   4.350 -1.3236  1.5717 -0.1929
  212MOL0     H27983   2.287   7.744   4.217  0.6731 -1.0532  0.8118
  212MOL0     H27984   2.072   7.703   4.124  0.8529  1.5680  3.2616
  213MOL0     O27985   3.637   8.513   6.560 -0.3301  0.1138 -0.0324
  213MOL0     C27986   3.681   8.490   6.674  0.9169  0.0242  0.7096
  213MOL0     O27987   3.603   8.478   6.786 -0.4844  0.3511  0.4147
  213MOL0     C27988   3.469   8.471   6.772  0.0972  0.2762 -0.2213
  213MOL0     C27989   3.404   8.348   6.779  1.4417 -0.5781 -0.7429
  213MOL0     C27990   3.267   8.334   6.784  0.4562  0.1124  0.9137
  213MOL0     C27991   3.194   8.457   6.776  0.4854 -0.3445  1.0150
  213MOL0     O27992   3.056   8.437   6.786 -0.3308 -0.5565  0.4347
  213MOL0     C27993   2.957   8.543   6.793 -0.2582  0.3885  0.0815
  213MOL0     C27994   2.831   8.509   6.727 -0.6232  0.0585  0.0094
  213MOL0     C27995   2.769   8.385   6.812  0.4350 -0.1099 -0.0222
  213MOL0     C27996   2.658   8.307   6.734  0.1994  0.0412 -0.1668
  213MOL0     C27997   2.637   8.166   6.800 -1.0266  0.1516  0.0167
  213MOL0     C27998   2.525   8.079   6.736  0.3433 -0.5934 -0.3050
  213MOL0     C27999   2.465   7.978   6.830 -0.4490 -0.5463  0.2966
  213MOL0     C28000   2.346   7.915   6.771 -0.2637 -0.5005  0.1794
  213MOL0     N28001   2.250   7.872   6.873 -0.7119  0.3231  0.4450
  213MOL0     C28002   2.135   7.930   6.904  0.4485 -0.3739 -0.2588
  213MOL0     C28003   2.110   7.903   7.032  0.4103  0.2815 -0.7666
  213MOL0     C28004   1.995   7.951   7.132 -0.3582  0.8456  0.2829
  213MOL0     C28005   1.859   7.931   7.068  0.1178  0.6150 -0.1122
  213MOL0     C28006   1.830   7.788   7.019  0.0713  0.2207 -0.9705
  213MOL0     C28007   1.680   7.781   7.019  0.6464 -0.3850 -0.6079
  213MOL0     O28008   1.626   7.832   6.895 -0.2770 -0.3805  0.1670
  213MOL0     C28009   1.490   7.835   6.887 -0.0659 -0.5159  0.4228
  213MOL0     C28010   1.439   7.910   6.777  0.2471  0.0792 -0.4370
  213MOL0     C28011   1.300   7.916   6.755 -0.1898  0.0299 -0.5085
  213MOL0     C28012   1.209   7.839   6.832  0.1234  0.4217 -0.7199
  213MOL0     C28013   1.065   7.852   6.817  0.7821  0.5236  0.6501
  213MOL0     O28014   1.026   7.978   6.780  0.9711 -0.2165  0.5433
  213MOL0     C28015   0.895   8.008   6.754 -1.2169 -0.0849  0.0371
  213MOL0     C28016   0.881   8.112   6.661 -0.7176  0.9391  0.3123
  213MOL0     C28017   0.750   8.141   6.625 -0.5058  0.1116  0.2062
  213MOL0     C28018   0.635   8.081   6.679  1.1749  0.1754  0.2353
  213MOL0     O28019   0.523   8.142   6.646 -0.7512  0.3405  0.4668
  213MOL0     C28020   0.395   8.076   6.665  0.8496 -0.3313 -0.0325
  213MOL0     C28021   0.284   8.167   6.607 -0.1352  0.9430 -0.1757
  213MOL0     C28022   0.141   8.110   6.602 -0.4840 -0.3978 -0.2965
  213MOL0     C28023   0.129   8.005   6.492  0.5797  1.0213 -0.8279
  213MOL0     C28024  -0.017   7.998   6.439 -0.0010 -0.4069  0.1422
  213MOL0     C28025  -0.057   7.896   6.327 -0.2457  0.3843 -0.1987
  213MOL0     C28026  -0.206   7.897   6.289  0.1252 -0.3607 -0.9116
  213MOL0     C28027  -0.234   7.812   6.166  0.2093 -0.1507  0.4102
  213MOL0    Cl28028  -0.411   7.815   6.151  0.2807 -0.0108  0.0523
  213MOL0     C28029   0.646   7.976   6.770 -0.0125 -0.1659 -0.5856
  213MOL0     C28030   0.780   7.933   6.812  0.8514  0.1048  1.2525
  213MOL0     O28031   0.995   7.750   6.842 -0.0747 -0.0517 -0.2187
  213MOL0     C28032   1.257   7.775   6.951 -0.4747  0.4041 -0.5027
  213MOL0     C28033   1.399   7.776   6.971 -0.1165  0.2024 -0.3765
  213MOL0     N28034   2.207   7.807   7.072  0.0122  0.0371 -0.3415
  213MOL0     N28035   2.294   7.798   6.978 -0.0447 -0.0523  0.0716
  213MOL0     C28036   3.255   8.590   6.768  0.3767 -0.0580 -0.3414
  213MOL0     C28037   3.394   8.591   6.778  0.2071  0.0994  0.8821
  213MOL0     C28038   3.828   8.491   6.685  0.2665  0.3577 -0.5895
  213MOL0     C28039   3.888   8.428   6.799  0.1239 -0.6411 -0.2032
  213MOL0     C28040   4.025   8.447   6.816 -0.5634 -0.2280 -0.7326
  213MOL0     C28041   4.097   8.518   6.717 -0.9093 -0.6368 -0.3636
  213MOL0     O28042   4.231   8.537   6.705  0.0318 -0.6219 -0.5625
  213MOL0     C28043   4.310   8.499   6.813 -0.2377 -0.9417 -0.4858
  213MOL0     C28044   4.456   8.508   6.783 -0.5962  0.3465  0.7482
  213MOL0     C28045   4.536   8.435   6.898 -0.3451  0.4126  0.0012
  213MOL0     C28046   4.683   8.466   6.898 -0.1098 -0.7945  1.4204
  213MOL0     C28047   4.754   8.405   6.791 -1.0192 -0.2058  0.6315
  213MOL0     C28048   4.810   8.339   6.700  1.0708  0.6825 -0.1209
  213MOL0     C28049   4.040   8.580   6.611  0.9339  0.5749  0.2968
  213MOL0     C28050   3.902   8.560   6.591 -0.8533  0.1445  0.8599
  213MOL0     H28051   3.473   8.264   6.787  2.5335  0.2092 -1.5908
  213MOL0     H28052   3.221   8.237   6.777  0.3736 -0.0007  2.5754
  213MOL0     H28053   2.986   8.639   6.748  0.0219  0.8803  1.2503
  213MOL0     H28054   2.931   8.557   6.899 -1.2006 -2.7817  0.3688
  213MOL0     H28055   2.853   8.486   6.622  3.2870  0.2663  0.6233
  213MOL0     H28056   2.770   8.599   6.738  0.6533  1.1536 -1.4325
  213MOL0     H28057   2.713   8.416   6.901 -1.3975 -2.2279 -0.3437
  213MOL0     H28058   2.850   8.324   6.855  0.1860  0.7900  1.8044
  213MOL0     H28059   2.567   8.367   6.731  0.4550  0.4468  0.1271
  213MOL0     H28060   2.681   8.291   6.628 -0.1753  0.0764 -0.2554
  213MOL0     H28061   2.619   8.175   6.907  0.5374  3.3466  0.1323
  213MOL0     H28062   2.732   8.113   6.784 -0.4170  1.2894 -0.2617
  213MOL0     H28063   2.557   8.036   6.641 -0.1648 -2.0474  0.1669
  213MOL0     H28064   2.442   8.142   6.704  1.4787  0.8955 -0.4549
  213MOL0     H28065   2.536   7.898   6.853 -0.1544 -0.1786  0.6685
  213MOL0     H28066   2.444   8.027   6.925  0.6328  0.5206  0.0115
  213MOL0     H28067   2.359   7.830   6.703 -2.1343  0.2033 -1.1373
  213MOL0     H28068   2.295   7.989   6.709 -2.3374 -1.7851  0.2665
  213MOL0     H28069   2.085   8.001   6.839 -0.2254  0.0516  0.6976
  213MOL0     H28070   2.020   8.055   7.155 -2.1294  1.4121 -0.2158
  213MOL0     H28071   2.003   7.882   7.217 -3.0054  1.7841  1.4144
  213MOL0     H28072   1.853   7.997   6.981  3.1458  0.2926 -0.6616
  213MOL0     H28073   1.790   7.968   7.145  0.7691  2.7221 -0.4810
  213MOL0     H28074   1.875   7.781   6.920 -0.3831 -0.0290 -1.1640
  213MOL0     H28075   1.865   7.713   7.090 -1.1884  0.0501 -0.5013
  213MOL0     H28076   1.641   7.836   7.105  5.0957  1.9195  0.2422
  213MOL0     H28077   1.663   7.674   7.030  1.4797 -0.5809 -1.1361
  213MOL0     H28078   1.488   7.975   6.705 -1.4706  0.6977 -1.1145
  213MOL0     H28079   1.262   7.963   6.665 -0.2787 -0.2099 -0.5974
  213MOL0     H28080   0.967   8.164   6.621 -0.9741  1.5164  0.4917
  213MOL0     H28081   0.741   8.221   6.552 -4.6473 -0.0584  0.2988
  213MOL0     H28082   0.376   8.059   6.771 -1.2258 -0.5635 -0.3967
  213MOL0     H28083   0.391   7.978   6.615  2.6329 -1.1675  1.3386
  213MOL0     H28084   0.300   8.182   6.499  0.5291 -0.5187 -0.2957
  213MOL0     H28085   0.291   8.259   6.666 -0.2794  0.9975 -0.2410
  213MOL0     H28086   0.069   8.191   6.585  1.5254  2.1850  2.5001
  213MOL0     H28087   0.128   8.070   6.703  1.0017 -2.9710 -1.0307
  213MOL0     H28088   0.192   8.026   6.406  1.2987  0.9166 -0.3355
  213MOL0     H28089   0.154   7.904   6.528  1.6043  0.4674 -2.9154
  213MOL0     H28090  -0.039   8.093   6.391 -0.6887 -0.1039  1.0303
  213MOL0     H28091  -0.082   7.975   6.524 -0.9411  2.2962  0.2364
  213MOL0     H28092  -0.024   7.796   6.357 -0.8911 -0.0116 -0.7739
  213MOL0     H28093  -0.000   7.925   6.239  0.3771  0.9842  0.3904
  213MOL0     H28094  -0.272   7.872   6.373  0.4510  1.2311 -0.1553
  213MOL0     H28095  -0.234   8.001   6.270 -0.4115 -0.1535  0.7804
  213MOL0     H28096  -0.214   7.705   6.182 -3.7487 -1.0107  0.7261
  213MOL0     H28097  -0.176   7.858   6.085 -2.4731  0.9603 -1.0071
  213MOL0     H28098   0.558   7.920   6.801  0.2152 -0.3995 -0.3571
  213MOL0     H28099   0.782   7.858   6.890 -1.5398  2.1474  3.4872
  213MOL0     H28100   1.181   7.723   7.008 -2.0726 -0.0253 -2.8453
  213MOL0     H28101   1.434   7.737   7.065 -2.8139 -0.4191  0.4631
  213MOL0     H28102   3.190   8.678   6.768 -0.0446 -0.3555  0.5436
  213MOL0     H28103   3.441   8.687   6.764  1.8148 -0.3707  2.6560
  213MOL0     H28104   3.842   8.373   6.881 -2.3717  0.4155 -0.8103
  213MOL0     H28105   4.077   8.409   6.904 -1.1084  0.6995  0.0046
  213MOL0     H28106   4.291   8.392   6.827  0.5094 -1.0806 -0.4965
  213MOL0     H28107   4.283   8.547   6.908  4.2396  1.5317 -0.1653
  213MOL0     H28108   4.474   8.453   6.690 -0.1142  1.2175  0.3110
  213MOL0     H28109   4.501   8.602   6.751  4.1544 -2.4058 -1.8280
  213MOL0     H28110   4.529   8.328   6.877 -1.9697  0.1479  1.6489
  213MOL0     H28111   4.486   8.459   6.993 -0.5412 -1.6748  0.4648
  213MOL0     H28112   4.699   8.572   6.878 -2.4983 -0.4998  0.7198
  213MOL0     H28113   4.731   8.436   6.991  0.6347  0.8174  1.5742
  213MOL0     H28114   4.845   8.289   6.612  2.0921 -1.9422  1.6648
  213MOL0     H28115   4.088   8.634   6.530  0.7542  0.6752  0.2559
  213MOL0     H28116   3.863   8.602   6.499 -0.8552 -1.8794 -0.1392
  214MOL0     O28117   1.335   3.153   4.402  0.4967 -0.1319 -0.3362
  214MOL0     C28118   1.313   3.083   4.307  0.9656  0.7527  0.2464
  214MOL0     O28119   1.197   3.024   4.286 -0.0738  0.1806 -0.1423
  214MOL0     C28120   1.076   3.060   4.349 -0.8248 -0.1388 -0.3654
  214MOL0     C28121   0.966   2.968   4.346 -0.9539 -0.5226 -0.3180
  214MOL0     C28122   0.846   2.995   4.396  0.8160  0.7722 -0.1484
  214MOL0     C28123   0.818   3.120   4.445  1.0957  0.2002  1.1708
  214MOL0     O28124   0.683   3.125   4.478 -0.4307 -0.0229 -0.6403
  214MOL0     C28125   0.643   3.249   4.530  0.6700  0.8359 -0.8520
  214MOL0     C28126   0.495   3.244   4.511 -0.3354  0.1755  0.4955
  214MOL0     C28127   0.423   3.358   4.588  0.4926 -0.5677 -0.1869
  214MOL0     C28128   0.271   3.339   4.560 -0.0567 -0.0560 -0.0441
  214MOL0     C28129   0.179   3.433   4.643  0.6430  0.6605  0.0167
  214MOL0     C28130   0.162   3.388   4.793  0.2973  0.8260  0.6104
  214MOL0     C28131   0.075   3.506   4.862  0.2418 -0.3427 -0.9802
  214MOL0     C28132  -0.061   3.544   4.795  0.5476  0.4995 -0.7748
  214MOL0     N28133  -0.177   3.548   4.888  0.0401 -0.1880  0.7938
  214MOL0     C28134  -0.185   3.562   5.028  0.2355 -0.2838  0.4169
  214MOL0     C28135  -0.308   3.545   5.069  0.0784  0.2702  0.3620
  214MOL0     C28136  -0.351   3.551   5.207  1.1197 -0.0116 -0.5988
  214MOL0     C28137  -0.444   3.667   5.228 -0.7027  0.7731  0.7032
  214MOL0     C28138  -0.486   3.686   5.372  0.0247  0.0389 -0.1930
  214MOL0     C28139  -0.543   3.815   5.414  0.1929  0.1767 -0.8376
  214MOL0     O28140  -0.649   3.841   5.320  0.3627  0.1725 -0.7697
  214MOL0     C28141  -0.783   3.805   5.344  0.9440 -0.5788 -0.2303
  214MOL0     C28142  -0.892   3.869   5.282  0.1234  0.0364  0.8140
  214MOL0     C28143  -1.021   3.821   5.294  0.4175  0.4225  0.3282
  214MOL0     C28144  -1.048   3.706   5.366 -0.3244  0.0562  0.2785
  214MOL0     C28145  -1.178   3.642   5.381 -0.1960  0.4487  0.1591
  214MOL0     O28146  -1.206   3.582   5.498 -0.5947  0.2949 -0.1820
  214MOL0     C28147  -1.333   3.534   5.515 -0.1160  0.1999  0.7065
  214MOL0     C28148  -1.358   3.401   5.476 -1.3534  0.4774 -0.5078
  214MOL0     C28149  -1.487   3.362   5.473  0.4359  0.0911  0.1795
  214MOL0     C28150  -1.595   3.441   5.518  0.2297 -0.1205  0.1031
  214MOL0     O28151  -1.726   3.390   5.508  0.4163 -0.4369 -0.7113
  214MOL0     C28152  -1.756   3.286   5.597  0.5324  0.0794  0.3153
  214MOL0     C28153  -1.908   3.246   5.578  0.2782 -0.4534 -1.1225
  214MOL0     C28154  -1.921   3.163   5.459 -0.9141 -0.0432  0.0181
  214MOL0     C28155  -2.045   3.073   5.457 -0.1950  0.8986 -0.1832
  214MOL0     C28156  -2.046   2.968   5.566 -0.6379 -0.0641 -0.3778
  214MOL0     C28157  -1.914   2.886   5.580  1.1753  0.5721 -0.6187
  214MOL0     C28158  -1.869   2.823   5.455  0.2218  0.1733 -0.2364
  214MOL0     C28159  -1.758   2.718   5.471 -1.1289  0.8407  0.1234
  214MOL0    Cl28160  -1.782   2.604   5.613  0.0619 -0.1981  0.5561
  214MOL0     C28161  -1.568   3.573   5.561 -0.0313 -0.4832  0.0855
  214MOL0     C28162  -1.436   3.622   5.558  0.3122  0.1651  0.6854
  214MOL0     O28163  -1.255   3.650   5.291 -0.1215 -0.5921  0.1929
  214MOL0     C28164  -0.946   3.645   5.432 -0.1263  0.1712 -0.3606
  214MOL0     C28165  -0.813   3.695   5.419 -0.7192 -0.1860 -0.9499
  214MOL0     N28166  -0.380   3.511   4.952 -0.5501  0.6909  0.2128
  214MOL0     N28167  -0.304   3.518   4.845  0.4859  0.0342  0.1858
  214MOL0     C28168   0.916   3.219   4.441 -0.1568 -0.3452 -1.3017
  214MOL0     C28169   1.044   3.189   4.397 -0.8191  0.5722  0.8983
  214MOL0     C28170   1.409   3.059   4.201 -1.0202 -0.2735 -0.0370
  214MOL0     C28171   1.379   2.967   4.100 -0.7026 -0.5876 -0.1034
  214MOL0     C28172   1.478   2.938   3.998  0.1468 -0.4876 -0.9137
  214MOL0     C28173   1.603   3.006   4.002 -0.1216  0.2738 -0.3269
  214MOL0     O28174   1.702   2.963   3.916 -0.0167  0.1241  0.5194
  214MOL0     C28175   1.656   2.946   3.775  0.0908  1.1928 -0.3043
  214MOL0     C28176   1.771   2.944   3.676  0.0381  0.2264  0.4750
  214MOL0     C28177   1.847   2.822   3.683  0.3672  0.2152  0.3718
  214MOL0     C28178   1.961   2.809   3.583 -0.1225 -0.1804  0.0267
  214MOL0     C28179   1.911   2.848   3.447  0.2863  0.2452  0.0707
  214MOL0     C28180   1.874   2.868   3.336 -0.2466  0.2801 -1.4370
  214MOL0     C28181   1.629   3.095   4.104 -0.7211 -0.3289 -0.3823
  214MOL0     C28182   1.538   3.114   4.202 -0.4473 -0.0256 -0.2482
  214MOL0     H28183   0.982   2.869   4.304  2.2371  0.1619 -0.9937
  214MOL0     H28184   0.767   2.924   4.373  0.3879  0.7535  1.2720
  214MOL0     H28185   0.677   3.332   4.467  0.8068 -1.3636 -3.9157
  214MOL0     H28186   0.663   3.249   4.637 -1.9961 -0.6657 -0.2657
  214MOL0     H28187   0.464   3.141   4.532  2.7037 -1.1515 -0.9913
  214MOL0     H28188   0.485   3.264   4.404  0.6147 -2.5758 -0.1939
  214MOL0     H28189   0.449   3.457   4.550  0.6567 -1.1858 -1.7605
  214MOL0     H28190   0.452   3.350   4.693  2.6282 -1.5142 -0.7766
  214MOL0     H28191   0.263   3.375   4.457  0.0326 -1.5388 -0.5812
  214MOL0     H28192   0.241   3.235   4.571 -0.0056 -0.0838 -0.1737
  214MOL0     H28193   0.078   3.432   4.602  1.1170  1.7350 -1.2745
  214MOL0     H28194   0.210   3.538   4.648 -2.2674  1.6264 -0.4612
  214MOL0     H28195   0.265   3.384   4.830  0.9621 -0.5061 -1.2401
  214MOL0     H28196   0.124   3.286   4.802  0.9658  0.5277  0.1405
  214MOL0     H28197   0.052   3.477   4.965 -0.2158  0.8930 -0.7253
  214MOL0     H28198   0.142   3.591   4.880 -0.8258  0.9037 -2.5815
  214MOL0     H28199  -0.088   3.484   4.707  0.6338 -1.7733  0.6633
  214MOL0     H28200  -0.048   3.647   4.761 -0.6263  0.0922 -2.6228
  214MOL0     H28201  -0.102   3.585   5.094 -0.4021  1.4105  0.6891
  214MOL0     H28202  -0.270   3.575   5.277 -0.6031  1.6236  0.9836
  214MOL0     H28203  -0.402   3.458   5.233  4.1958 -1.9060 -0.8727
  214MOL0     H28204  -0.536   3.654   5.170 -1.0696 -1.6948  1.7070
  214MOL0     H28205  -0.390   3.755   5.191  1.2606 -0.6025  0.1163
  214MOL0     H28206  -0.546   3.603   5.410  0.9741  0.1240  1.5992
  214MOL0     H28207  -0.389   3.672   5.422  1.2708  2.9084 -1.5624
  214MOL0     H28208  -0.460   3.884   5.397  1.2722  0.5134  4.3353
  214MOL0     H28209  -0.561   3.838   5.519  1.0439  0.8973 -0.8351
  214MOL0     H28210  -0.860   3.950   5.217  1.4985 -1.0208  0.1063
  214MOL0     H28211  -1.090   3.891   5.247 -0.4022 -0.5487  0.0564
  214MOL0     H28212  -1.286   3.334   5.430  2.1285  3.1138  0.6620
  214MOL0     H28213  -1.524   3.267   5.437 -2.6797  0.3024  2.4013
  214MOL0     H28214  -1.745   3.327   5.697 -3.1490 -0.6236  1.1374
  214MOL0     H28215  -1.692   3.197   5.597  1.7811  0.9333  1.9896
  214MOL0     H28216  -1.983   3.326   5.569  2.1325  1.2793 -2.0649
  214MOL0     H28217  -1.935   3.191   5.668  2.6552  1.6925  1.0688
  214MOL0     H28218  -1.833   3.098   5.451  0.7257  1.6645  2.7519
  214MOL0     H28219  -1.913   3.231   5.373 -3.8230  1.1702  0.5751
  214MOL0     H28220  -2.120   3.150   5.476 -1.8223 -1.4860  5.0186
  214MOL0     H28221  -2.064   3.025   5.361 -0.1715  1.7807 -0.6355
  214MOL0     H28222  -2.122   2.893   5.542 -0.9391 -0.3520  1.3820
  214MOL0     H28223  -2.070   3.012   5.663  0.3992 -0.6545  0.1653
  214MOL0     H28224  -1.929   2.809   5.656  2.6675 -0.2369 -1.0824
  214MOL0     H28225  -1.836   2.949   5.625 -0.7190  1.0554  2.2235
  214MOL0     H28226  -1.951   2.771   5.404  0.3491  1.2305 -1.5790
  214MOL0     H28227  -1.827   2.899   5.389  1.6188  0.0889  0.5163
  214MOL0     H28228  -1.658   2.757   5.489 -1.5478  0.6778  3.4772
  214MOL0     H28229  -1.743   2.661   5.378  1.5477  0.6924  0.5559
  214MOL0     H28230  -1.653   3.639   5.577  0.3709 -0.1002  0.6861
  214MOL0     H28231  -1.419   3.728   5.577  0.0546  0.2980  0.2039
  214MOL0     H28232  -0.970   3.566   5.503 -0.7845  1.0245  0.3857
  214MOL0     H28233  -0.740   3.663   5.492 -1.6280  0.2406  0.1617
  214MOL0     H28234   0.893   3.321   4.468 -2.4150 -1.2430  0.5186
  214MOL0     H28235   1.114   3.272   4.384  1.4204 -1.2784  0.5424
  214MOL0     H28236   1.293   2.903   4.088 -0.2203 -1.8973  2.7500
  214MOL0     H28237   1.458   2.862   3.923 -0.0533 -0.6494 -0.6965
  214MOL0     H28238   1.597   3.031   3.739  0.1388  0.5227 -2.0806
  214MOL0     H28239   1.592   2.857   3.772 -0.7792  1.8300 -3.0708
  214MOL0     H28240   1.725   2.965   3.579 -1.3550 -1.7595  0.6703
  214MOL0     H28241   1.848   3.020   3.694  1.5092  0.3662 -4.6231
  214MOL0     H28242   1.774   2.743   3.662 -0.4178  0.1787  2.9233
  214MOL0     H28243   1.891   2.792   3.779  1.3572 -2.2854 -0.7579
  214MOL0     H28244   2.039   2.883   3.603  4.4146 -3.4560 -3.4057
  214MOL0     H28245   2.007   2.710   3.580  0.2966  0.0271 -0.6380
  214MOL0     H28246   1.845   2.899   3.238 -0.5966 -0.4675 -1.5797
  214MOL0     H28247   1.729   3.137   4.113  0.1552 -2.3381 -0.2379
  214MOL0     H28248   1.578   3.182   4.276  1.1070  2.2140 -2.9324
  215MOL0     O28249   6.197   3.490   6.535  0.2329  0.9591  0.0323
  215MOL0     C28250   6.303   3.442   6.585 -0.1912  0.4164  0.1942
  215MOL0     O28251   6.332   3.313   6.612 -0.4905  0.2180  0.6784
  215MOL0     C28252   6.246   3.215   6.578  0.3759  0.7048 -0.3161
  215MOL0     C28253   6.171   3.207   6.461  0.1437 -0.5303  0.2994
  215MOL0     C28254   6.071   3.108   6.443 -0.1325 -0.4396 -0.5377
  215MOL0     C28255   6.041   3.027   6.556  0.4912  0.6911  0.2106
  215MOL0     O28256   5.944   2.934   6.540  0.4422  0.2331  0.5668
  215MOL0     C28257   5.849   2.945   6.643 -0.4978 -1.0741  0.5409
  215MOL0     C28258   5.755   2.823   6.639  0.6932 -1.2193  0.0838
  215MOL0     C28259   5.822   2.683   6.646 -0.1241  0.3441  0.4841
  215MOL0     C28260   5.951   2.672   6.735  0.2946 -0.0083 -0.0531
  215MOL0     C28261   6.007   2.522   6.741  0.4737 -0.1205  0.1774
  215MOL0     C28262   6.140   2.531   6.813 -0.7337  1.2135  0.1750
  215MOL0     C28263   6.218   2.391   6.800 -0.3574 -0.3844 -0.8935
  215MOL0     C28264   6.349   2.395   6.887  0.3328  0.0353  0.7259
  215MOL0     N28265   6.453   2.491   6.847  0.2516 -0.6620 -0.0064
  215MOL0     C28266   6.523   2.567   6.934  0.4310  0.3040 -0.3771
  215MOL0     C28267   6.565   2.676   6.859 -0.0689 -1.2078 -0.5177
  215MOL0     C28268   6.658   2.779   6.909  0.2786 -0.1327 -0.1896
  215MOL0     C28269   6.795   2.773   6.836 -0.1444  0.8199 -0.2591
  215MOL0     C28270   6.890   2.648   6.884  0.6571 -0.3922  0.5513
  215MOL0     C28271   7.025   2.641   6.816  0.0147  0.2219  0.0713
  215MOL0     O28272   7.113   2.757   6.826 -0.6471  0.6318 -0.6799
  215MOL0     C28273   7.251   2.746   6.822 -0.4631  0.2504  0.1100
  215MOL0     C28274   7.325   2.870   6.818 -0.4532 -0.0414 -0.3966
  215MOL0     C28275   7.468   2.868   6.815  0.2683 -0.5069 -0.4255
  215MOL0     C28276   7.534   2.744   6.791 -0.1094  0.7307  0.4038
  215MOL0     C28277   7.682   2.743   6.783 -0.2809  0.7599  0.4662
  215MOL0     O28278   7.766   2.852   6.815  1.2797  0.1313 -0.1263
  215MOL0     C28279   7.903   2.826   6.833  0.9879  1.3910 -0.3026
  215MOL0     C28280   7.977   2.767   6.738  0.4829 -0.6562 -0.1503
  215MOL0     C28281   8.110   2.761   6.768  0.3987 -0.4310  0.4101
  215MOL0     C28282   8.162   2.798   6.891 -0.7272 -0.5305  0.0348
  215MOL0     O28283   8.299   2.779   6.909  0.2612 -0.2542 -0.4045
  215MOL0     C28284   8.356   2.777   7.043  0.4766 -0.0715  0.5484
  215MOL0     C28285   8.508   2.739   7.033  0.1927 -0.0706 -1.1170
  215MOL0     C28286   8.589   2.837   7.119 -0.1487  1.0102 -0.2795
  215MOL0     C28287   8.739   2.796   7.110 -0.5714 -0.4820 -0.3847
  215MOL0     C28288   8.826   2.890   7.193  0.1480  0.4043 -0.2110
  215MOL0     C28289   8.800   2.899   7.338 -0.1787  0.0525 -0.8322
  215MOL0     C28290   8.904   2.977   7.421 -0.2029 -0.2997  0.4927
  215MOL0     C28291   8.927   3.124   7.378 -1.2390 -0.2473  0.3259
  215MOL0    Cl28292   8.781   3.212   7.368 -0.1401 -0.0761  0.2657
  215MOL0     C28293   8.084   2.848   6.991  0.3219 -0.2402  0.6521
  215MOL0     C28294   7.954   2.865   6.957  0.1309  1.0867  0.0380
  215MOL0     O28295   7.723   2.638   6.729  0.1507 -0.2041  0.3473
  215MOL0     C28296   7.455   2.628   6.793 -1.2593 -0.2803 -0.5868
  215MOL0     C28297   7.317   2.630   6.806  0.1162  0.7571  0.0791
  215MOL0     N28298   6.525   2.660   6.721 -0.9522  0.4334  0.5285
  215MOL0     N28299   6.459   2.543   6.718  0.5461 -0.1453 -0.4653
  215MOL0     C28300   6.123   3.028   6.668  0.3343 -0.3984 -0.8503
  215MOL0     C28301   6.226   3.123   6.683  0.4723  0.8315 -0.5597
  215MOL0     C28302   6.424   3.528   6.600  0.6771 -0.2920  0.6421
  215MOL0     C28303   6.547   3.488   6.650 -0.0945 -0.4675 -0.6608
  215MOL0     C28304   6.663   3.566   6.665  0.0465  0.1172  0.4968
  215MOL0     C28305   6.663   3.694   6.599  0.0339 -0.6512 -0.1067
  215MOL0     O28306   6.784   3.766   6.601 -0.0906 -0.2816  0.0316
  215MOL0     C28307   6.788   3.870   6.500  0.4923 -0.0504  0.1726
  215MOL0     C28308   6.728   4.003   6.554 -0.8323  0.1957 -0.1887
  215MOL0     C28309   6.797   4.061   6.674 -0.4614  0.2387  0.2114
  215MOL0     C28310   6.733   4.029   6.808  0.5407  0.8040  0.3122
  215MOL0     C28311   6.821   3.929   6.876  0.1202 -0.2677 -0.4339
  215MOL0     C28312   6.893   3.854   6.940 -0.4144 -0.0583 -0.4102
  215MOL0     C28313   6.544   3.740   6.539  0.3746  0.0969  0.9305
  215MOL0     C28314   6.425   3.654   6.540  0.2852 -0.1542 -0.1219
  215MOL0     H28315   6.180   3.282   6.383 -2.3316  0.2433  0.6804
  215MOL0     H28316   6.006   3.101   6.357 -0.2882  3.8570 -0.9860
  215MOL0     H28317   5.799   3.043   6.648  0.5919 -0.3068 -2.1616
  215MOL0     H28318   5.909   2.938   6.735 -1.4371  2.1982  1.5701
  215MOL0     H28319   5.694   2.830   6.549  3.8184 -3.4877 -2.4588
  215MOL0     H28320   5.689   2.829   6.727  0.9010 -2.4582  0.3538
  215MOL0     H28321   5.855   2.653   6.547  0.8302  1.3561  0.4698
  215MOL0     H28322   5.745   2.610   6.672  0.6090 -0.9918 -0.9643
  215MOL0     H28323   6.026   2.746   6.705 -1.4270  1.5995 -0.6389
  215MOL0     H28324   5.913   2.701   6.834  0.1998  2.3341 -0.7077
  215MOL0     H28325   6.029   2.496   6.637 -0.3097 -0.4633  0.0969
  215MOL0     H28326   5.936   2.456   6.791  0.8756  1.4701  3.0500
  215MOL0     H28327   6.130   2.551   6.920 -1.9071 -0.1677  0.3554
  215MOL0     H28328   6.204   2.610   6.772 -0.3218  0.2485 -1.1167
  215MOL0     H28329   6.150   2.307   6.819  0.9769 -1.2152  0.4604
  215MOL0     H28330   6.245   2.374   6.695 -1.6644 -0.6079 -1.2054
  215MOL0     H28331   6.396   2.297   6.894  0.2483  0.0670  2.0534
  215MOL0     H28332   6.323   2.421   6.990 -0.1206  2.9432 -0.0250
  215MOL0     H28333   6.553   2.549   7.036 -0.3835  0.1945 -0.1522
  215MOL0     H28334   6.672   2.772   7.017  0.9608  2.9570  0.0092
  215MOL0     H28335   6.607   2.873   6.886 -2.6524 -0.9544  2.4387
  215MOL0     H28336   6.850   2.868   6.839 -0.2266  0.8648 -0.1748
  215MOL0     H28337   6.774   2.758   6.730 -0.2014  0.9572 -0.2677
  215MOL0     H28338   6.905   2.660   6.992 -0.3392  1.3033  0.5382
  215MOL0     H28339   6.830   2.560   6.861 -0.4326  0.4352  0.1149
  215MOL0     H28340   7.012   2.621   6.709 -0.6865  0.7873  0.0406
  215MOL0     H28341   7.076   2.562   6.872 -1.0349 -1.1096 -0.7603
  215MOL0     H28342   7.262   2.959   6.815 -2.9512 -1.6647  0.3280
  215MOL0     H28343   7.529   2.956   6.835 -1.4752  1.0676 -1.6714
  215MOL0     H28344   7.929   2.744   6.643  0.2743  1.6775 -0.6559
  215MOL0     H28345   8.179   2.710   6.702  0.5869  2.0787 -1.4581
  215MOL0     H28346   8.297   2.711   7.108  0.1632  0.0882  0.4310
  215MOL0     H28347   8.344   2.877   7.087  3.9589  0.8312 -0.2948
  215MOL0     H28348   8.543   2.737   6.930  0.7536 -1.2513 -0.9131
  215MOL0     H28349   8.516   2.634   7.060  2.1772  0.3092 -0.0878
  215MOL0     H28350   8.560   2.827   7.224  0.1784 -2.2471 -0.4124
  215MOL0     H28351   8.576   2.943   7.093 -0.1188  1.2689  0.6963
  215MOL0     H28352   8.748   2.693   7.145 -0.5636 -0.7481 -1.1628
  215MOL0     H28353   8.782   2.807   7.010  0.9102 -1.0711  0.1541
  215MOL0     H28354   8.815   2.989   7.147 -3.2706  0.0362 -0.4568
  215MOL0     H28355   8.931   2.863   7.182  0.9895  2.6608  1.5267
  215MOL0     H28356   8.795   2.799   7.383 -1.8161  1.7718  3.3344
  215MOL0     H28357   8.706   2.955   7.346  1.3496  3.2437 -3.1082
  215MOL0     H28358   8.869   2.966   7.523 -0.5457 -1.0444  0.3003
  215MOL0     H28359   8.997   2.920   7.411 -1.6274 -2.7689  0.4683
  215MOL0     H28360   8.993   3.127   7.291  2.3004  1.0929  2.8038
  215MOL0     H28361   8.987   3.164   7.460  1.5656 -2.1271 -0.6604
  215MOL0     H28362   8.101   2.870   7.096 -1.5368  0.8427  0.7634
  215MOL0     H28363   7.883   2.899   7.031 -0.0164 -0.2191  0.5270
  215MOL0     H28364   7.505   2.532   6.791  1.7005  1.0955  0.4663
  215MOL0     H28365   7.256   2.542   6.819  1.6116 -0.4176 -0.6163
  215MOL0     H28366   6.100   2.950   6.740 -1.4901 -1.2460 -2.2766
  215MOL0     H28367   6.284   3.122   6.774  0.5832 -1.1079 -0.6147
  215MOL0     H28368   6.556   3.382   6.669  0.1472 -0.6378 -1.6684
  215MOL0     H28369   6.750   3.519   6.711 -0.8091 -2.4022 -0.2765
  215MOL0     H28370   6.734   3.838   6.410 -0.5590 -0.0503  0.7929
  215MOL0     H28371   6.894   3.889   6.480  0.2279  1.8910  0.4032
  215MOL0     H28372   6.733   4.068   6.466  3.2806  0.0745 -0.2361
  215MOL0     H28373   6.623   3.996   6.586 -0.0528 -1.1650  2.3863
  215MOL0     H28374   6.777   4.166   6.652 -4.9544  0.0423  2.1914
  215MOL0     H28375   6.904   4.036   6.672 -0.1026  1.6600  0.5449
  215MOL0     H28376   6.705   4.121   6.860 -0.1435 -0.0005  1.3974
  215MOL0     H28377   6.647   3.964   6.793  2.6565 -1.7911 -1.4788
  215MOL0     H28378   6.960   3.785   6.987 -0.0680 -1.9363 -3.3757
  215MOL0     H28379   6.537   3.829   6.477 -3.6930  0.9148  2.2575
  215MOL0     H28380   6.332   3.683   6.491  0.3795 -1.6392 -1.2489
  216MOL0     O28381   2.648   9.061   5.523 -0.2322  0.4752 -0.9103
  216MOL0     C28382   2.618   9.178   5.543 -0.7358 -0.3391  0.0193
  216MOL0     O28383   2.535   9.249   5.464 -0.2936 -0.5803 -0.4903
  216MOL0     C28384   2.473   9.205   5.353  0.1516 -0.4395 -0.3979
  216MOL0     C28385   2.404   9.304   5.287 -0.4426 -0.5963  0.4065
  216MOL0     C28386   2.324   9.271   5.179 -0.0963  0.1780  0.3266
  216MOL0     C28387   2.307   9.140   5.131  0.1229 -0.3795 -0.3840
  216MOL0     O28388   2.232   9.101   5.023 -0.0288 -0.2718  0.0395
  216MOL0     C28389   2.144   9.188   4.956  0.3893  0.3552  0.3130
  216MOL0     C28390   2.011   9.202   5.035 -0.1407  0.2048  0.1405
  216MOL0     C28391   1.903   9.294   4.970  0.7721  0.0211 -0.3019
  216MOL0     C28392   1.768   9.268   5.039  0.0804 -0.8094  0.1097
  216MOL0     C28393   1.669   9.355   4.976 -0.0928  0.4755  0.3472
  216MOL0     C28394   1.566   9.394   5.085  0.5518  0.2196 -0.4737
  216MOL0     C28395   1.436   9.450   5.025  0.5216  0.2526 -0.4389
  216MOL0     C28396   1.330   9.459   5.135  0.3641 -0.1841  0.8543
  216MOL0     N28397   1.200   9.466   5.076 -0.5190  0.2764  0.0974
  216MOL0     C28398   1.136   9.359   5.019  0.9437  0.2881  0.4983
  216MOL0     C28399   1.013   9.415   4.977  0.1440  0.6877 -0.0009
  216MOL0     C28400   0.902   9.329   4.926 -0.7909 -0.6156  0.0230
  216MOL0     C28401   0.814   9.291   5.046 -0.3379 -0.2543  0.6002
  216MOL0     C28402   0.663   9.273   5.021  0.3659  0.1117  0.6356
  216MOL0     C28403   0.586   9.266   5.145  0.0114 -0.5554 -0.7854
  216MOL0     O28404   0.454   9.253   5.101 -0.7124  0.1216  0.7207
  216MOL0     C28405   0.353   9.260   5.189  0.7069 -0.5584 -1.3760
  216MOL0     C28406   0.374   9.244   5.328 -0.2591  0.0644  0.0472
  216MOL0     C28407   0.258   9.247   5.410  0.1536 -0.9702 -0.1502
  216MOL0     C28408   0.125   9.249   5.358  0.4850 -0.0258 -0.0084
  216MOL0     C28409   0.008   9.254   5.448  0.6060 -0.0335 -0.7992
  216MOL0     O28410  -0.115   9.289   5.392 -0.6322  0.4584 -0.3506
  216MOL0     C28411  -0.209   9.320   5.486  0.1095  0.9890  0.4911
  216MOL0     C28412  -0.210   9.443   5.549 -0.1688  1.1033  0.9291
  216MOL0     C28413  -0.314   9.481   5.645 -0.2913  0.8606 -0.4695
  216MOL0     C28414  -0.408   9.385   5.689  0.2022 -0.2224  1.0473
  216MOL0     O28415  -0.498   9.412   5.790 -0.1737  0.2666  0.3498
  216MOL0     C28416  -0.530   9.553   5.828 -0.4359 -0.5530 -0.1965
  216MOL0     C28417  -0.624   9.564   5.943  0.1714  0.0512  0.5845
  216MOL0     C28418  -0.764   9.511   5.913 -0.9425 -0.3410 -0.2686
  216MOL0     C28419  -0.869   9.547   6.025  0.3946 -0.5425  0.6508
  216MOL0     C28420  -1.009   9.496   5.994 -0.6269 -0.1471 -0.4664
  216MOL0     C28421  -1.052   9.524   5.847 -0.0013  0.6363  0.3582
  216MOL0     C28422  -1.195   9.481   5.813  0.1838 -0.4314 -0.2959
  216MOL0     C28423  -1.219   9.497   5.663 -0.3938 -0.7816  0.3079
  216MOL0    Cl28424  -1.391   9.467   5.637 -0.5163 -0.3761  0.4809
  216MOL0     C28425  -0.406   9.260   5.624 -0.7949 -0.0331 -0.1373
  216MOL0     C28426  -0.307   9.225   5.527  0.0604 -0.1884 -0.0474
  216MOL0     O28427   0.036   9.246   5.571  0.1154 -0.3985 -0.0384
  216MOL0     C28428   0.111   9.266   5.223 -0.5468  0.1557  0.4536
  216MOL0     C28429   0.223   9.271   5.143 -0.2862 -1.2538  0.4409
  216MOL0     N28430   1.011   9.552   4.999  0.0603 -0.6397  0.1076
  216MOL0     N28431   1.121   9.582   5.058 -0.4550  0.2925 -0.4009
  216MOL0     C28432   2.373   9.034   5.205  0.0913 -0.3754 -0.1380
  216MOL0     C28433   2.456   9.071   5.317  0.8516  0.1767  0.8405
  216MOL0     C28434   2.696   9.253   5.652 -0.4439 -0.1280 -0.2364
  216MOL0     C28435   2.678   9.391   5.651  0.5352  0.0600  0.2605
  216MOL0     C28436   2.742   9.477   5.742  0.5307  0.6022  0.5061
  216MOL0     C28437   2.831   9.423   5.834  0.8727 -0.0015 -0.2577
  216MOL0     O28438   2.900   9.512   5.915 -0.2457 -0.1899 -0.4026
  216MOL0     C28439   3.040   9.490   5.929 -0.4189  0.7925  0.0980
  216MOL0     C28440   3.116   9.621   5.927 -0.3712  0.1023  0.9270
  216MOL0     C28441   3.100   9.710   6.051  1.0190 -0.1270  0.0394
  216MOL0     C28442   3.118   9.856   6.016  0.4994 -0.3343 -0.2418
  216MOL0     C28443   3.065   9.962   6.114  0.4608  0.7262  0.5875
  216MOL0     C28444   3.040  10.045   6.198  0.4651  0.4203  0.2689
  216MOL0     C28445   2.850   9.286   5.840  0.6061  0.0672 -0.1579
  216MOL0     C28446   2.782   9.201   5.751  0.9670  0.5181  0.5762
  216MOL0     H28447   2.404   9.410   5.310  0.0025 -0.2295 -1.1576
  216MOL0     H28448   2.271   9.348   5.124  0.1516  0.5091  0.5483
  216MOL0     H28449   2.117   9.141   4.860  1.7050  1.7626 -0.7905
  216MOL0     H28450   2.195   9.282   4.933  3.6072 -0.9845  1.5195
  216MOL0     H28451   2.034   9.244   5.134  0.1720 -1.8229  0.9616
  216MOL0     H28452   1.969   9.105   5.064  0.0250 -0.0301 -0.4033
  216MOL0     H28453   1.900   9.281   4.862 -3.8627  2.1452 -0.6706
  216MOL0     H28454   1.917   9.401   4.992 -0.4892  0.3308 -0.9150
  216MOL0     H28455   1.732   9.167   5.021 -1.0515 -0.3260 -0.4200
  216MOL0     H28456   1.778   9.288   5.146  3.6803  1.3249 -0.4494
  216MOL0     H28457   1.622   9.299   4.894 -3.5767  3.5721 -0.0340
  216MOL0     H28458   1.709   9.447   4.933  1.8333 -1.4370 -2.2925
  216MOL0     H28459   1.608   9.472   5.149  0.4327 -0.1365  0.0491
  216MOL0     H28460   1.551   9.306   5.149  2.3567 -2.0011 -2.8949
  216MOL0     H28461   1.457   9.548   4.980 -1.9700  0.1940 -1.9393
  216MOL0     H28462   1.402   9.376   4.952  3.0317 -2.0524  0.5687
  216MOL0     H28463   1.355   9.550   5.191 -0.9140 -0.0101  1.1538
  216MOL0     H28464   1.342   9.371   5.197  1.3326 -1.1927 -0.6867
  216MOL0     H28465   1.167   9.255   5.016  1.8843  0.5512  0.7977
  216MOL0     H28466   0.948   9.239   4.885 -0.1366  0.3394 -1.4441
  216MOL0     H28467   0.855   9.387   4.845 -1.8189 -1.2930  0.1173
  216MOL0     H28468   0.823   9.365   5.126 -0.2285  1.1312 -0.6352
  216MOL0     H28469   0.848   9.193   5.078 -0.9547 -0.5709  0.3021
  216MOL0     H28470   0.627   9.361   4.967 -3.4396 -2.3772 -1.2803
  216MOL0     H28471   0.646   9.179   4.968  0.6792  1.1640 -1.4122
  216MOL0     H28472   0.592   9.358   5.204  0.9319  0.8162 -2.9060
  216MOL0     H28473   0.607   9.173   5.198 -2.5573 -0.0987  1.2394
  216MOL0     H28474   0.473   9.230   5.370  0.0189  1.4529 -0.1049
  216MOL0     H28475   0.267   9.236   5.517  1.3052  0.8566 -0.0234
  216MOL0     H28476  -0.131   9.513   5.524  0.8573 -0.5752 -0.7498
  216MOL0     H28477  -0.316   9.582   5.685 -2.9765  1.2163 -1.2619
  216MOL0     H28478  -0.572   9.599   5.738  4.1301 -0.0666 -2.3568
  216MOL0     H28479  -0.441   9.610   5.855 -0.3842 -0.5316 -0.4070
  216MOL0     H28480  -0.624   9.669   5.972  1.7369  0.6592 -1.4266
  216MOL0     H28481  -0.576   9.507   6.023  0.1000 -0.1590  0.4792
  216MOL0     H28482  -0.754   9.404   5.891 -3.3711 -0.6722  0.0378
  216MOL0     H28483  -0.798   9.552   5.817  0.1738  0.1446 -0.4845
  216MOL0     H28484  -0.825   9.516   6.120  3.3294  0.9634 -0.1071
  216MOL0     H28485  -0.878   9.655   6.016 -3.3812 -0.7713  0.0304
  216MOL0     H28486  -1.079   9.540   6.067  1.0625  0.2893  0.9508
  216MOL0     H28487  -0.998   9.390   6.018  2.9072  0.6056  2.0366
  216MOL0     H28488  -0.989   9.463   5.781 -0.1956  0.9627 -0.1392
  216MOL0     H28489  -1.020   9.627   5.827  0.6465  0.1954 -0.9851
  216MOL0     H28490  -1.224   9.377   5.831 -2.8393 -0.1340 -2.5962
  216MOL0     H28491  -1.270   9.546   5.859 -0.9103 -1.2539 -0.8828
  216MOL0     H28492  -1.141   9.441   5.609  1.5387  0.0060  2.1508
  216MOL0     H28493  -1.198   9.601   5.634  3.0976 -1.9535 -2.0746
  216MOL0     H28494  -0.473   9.190   5.673  1.4758  0.0652  3.5266
  216MOL0     H28495  -0.308   9.119   5.506  0.0244 -0.1634 -0.1777
  216MOL0     H28496   0.012   9.273   5.178 -1.3383  0.0038  2.1151
  216MOL0     H28497   0.205   9.278   5.036  1.4280  0.0760  0.1991
  216MOL0     H28498   2.362   8.935   5.163 -1.9246 -0.0839 -0.4290
  216MOL0     H28499   2.492   8.981   5.364 -6.7066 -3.8302  0.4728
  216MOL0     H28500   2.623   9.426   5.564 -1.3675 -0.3857  1.2123
  216MOL0     H28501   2.704   9.579   5.739  1.7765  1.2010  2.8202
  216MOL0     H28502   3.073   9.432   5.842  0.7561  1.2784  0.2058
  216MOL0     H28503   3.061   9.437   6.023 -0.3275 -0.4563 -0.5930
  216MOL0     H28504   3.223   9.612   5.907  0.2790  2.7013  2.7452
  216MOL0     H28505   3.081   9.671   5.837 -0.1556  1.0862  1.3726
  216MOL0     H28506   3.173   9.694   6.131  3.9719 -1.3158 -2.6961
  216MOL0     H28507   2.997   9.689   6.084  0.2714 -1.8602 -2.9727
  216MOL0     H28508   3.227   9.867   6.012  1.1389 -2.2148  4.8951
  216MOL0     H28509   3.067   9.874   5.921  1.0042 -0.0008 -0.4508
  216MOL0     H28510   2.999  10.099   6.280  0.8002  0.3996  0.4502
  216MOL0     H28511   2.903   9.243   5.924  0.9027  1.0350  0.1515
  216MOL0     H28512   2.777   9.093   5.760 -3.3635  0.0240 -3.4507
  217MOL0     O28513   4.162   0.635   2.694 -0.1805  0.2832 -0.5916
  217MOL0     C28514   4.176   0.723   2.782  0.8349 -0.5903 -0.4039
  217MOL0     O28515   4.076   0.752   2.874 -0.2408 -0.5602 -0.3090
  217MOL0     C28516   3.972   0.677   2.910  0.9795 -0.3181  0.2668
  217MOL0     C28517   3.892   0.595   2.820 -0.3740 -0.1409  0.6688
  217MOL0     C28518   3.788   0.506   2.865  0.2131  1.4325 -0.3090
  217MOL0     C28519   3.742   0.519   2.994 -0.1929  0.2431 -0.1703
  217MOL0     O28520   3.629   0.460   3.036  0.1590  0.1686 -0.2142
  217MOL0     C28521   3.526   0.426   2.941 -0.9059  0.6457 -0.3219
  217MOL0     C28522   3.422   0.355   3.017  0.4098 -0.2341 -0.3427
  217MOL0     C28523   3.348   0.462   3.099 -0.2418 -0.2829 -0.1787
  217MOL0     C28524   3.251   0.411   3.205 -0.3821  0.0841  0.6871
  217MOL0     C28525   3.125   0.351   3.140 -0.5144  0.5774 -0.8376
  217MOL0     C28526   3.027   0.294   3.256  0.2464 -0.6833 -0.1795
  217MOL0     C28527   2.890   0.248   3.209 -0.2010 -0.9151 -0.0206
  217MOL0     C28528   2.894   0.153   3.093  0.4711 -0.0916  0.3867
  217MOL0     N28529   2.768   0.097   3.042 -0.1517  0.0261  0.3759
  217MOL0     C28530   2.729  -0.035   3.020  0.4104  1.0602  0.2486
  217MOL0     C28531   2.611  -0.030   2.956 -0.2868 -0.6402 -0.4168
  217MOL0     C28532   2.527  -0.140   2.892 -0.2157  0.2666  0.5136
  217MOL0     C28533   2.371  -0.126   2.903 -0.3481  0.8541 -0.3782
  217MOL0     C28534   2.301  -0.072   2.778 -0.7632 -0.2372 -0.4350
  217MOL0     C28535   2.149  -0.041   2.798 -0.4735  0.4859 -0.5503
  217MOL0     O28536   2.090  -0.043   2.663 -0.3702 -0.8099  0.1187
  217MOL0     C28537   1.987   0.037   2.637 -0.1217  0.4888  0.8608
  217MOL0     C28538   1.932   0.028   2.508 -0.6955 -0.4773 -0.1808
  217MOL0     C28539   1.817   0.084   2.480  0.4444 -1.1900 -1.2399
  217MOL0     C28540   1.744   0.163   2.577  0.4917 -0.2216  0.0313
  217MOL0     C28541   1.615   0.219   2.539 -0.5790  0.4598  0.3087
  217MOL0     O28542   1.540   0.266   2.639  0.1767 -0.5439  0.0099
  217MOL0     C28543   1.405   0.308   2.622 -0.0553 -0.5951  0.3046
  217MOL0     C28544   1.323   0.267   2.724 -0.2259  0.7933 -0.2762
  217MOL0     C28545   1.184   0.283   2.712 -0.7933 -0.6775 -0.1598
  217MOL0     C28546   1.136   0.374   2.615  0.1585 -0.0277 -0.2416
  217MOL0     O28547   1.006   0.410   2.623  0.0118  0.0609  0.6833
  217MOL0     C28548   0.962   0.510   2.712  0.1723  0.1303 -1.1180
  217MOL0     C28549   0.820   0.482   2.725 -0.2807 -0.7143  0.0232
  217MOL0     C28550   0.800   0.359   2.815 -0.0312 -0.0981 -0.0618
  217MOL0     C28551   0.652   0.336   2.852 -0.5742 -0.7225 -0.2924
  217MOL0     C28552   0.627   0.227   2.956  0.2081  0.7228  0.2637
  217MOL0     C28553   0.491   0.243   3.026 -0.8820 -0.4708 -0.6149
  217MOL0     C28554   0.482   0.128   3.136 -0.7895 -0.3064 -0.9407
  217MOL0     C28555   0.361   0.154   3.234  0.6934  1.0390 -0.2436
  217MOL0    Cl28556   0.304   0.010   3.329  0.0323 -0.4546 -0.1192
  217MOL0     C28557   1.226   0.427   2.516  0.2131  0.5694 -0.2974
  217MOL0     C28558   1.360   0.402   2.526 -0.8295 -0.0480  0.1141
  217MOL0     O28559   1.580   0.206   2.421 -0.1956  0.5253  0.2785
  217MOL0     C28560   1.804   0.179   2.702  0.8709  0.2071  0.2398
  217MOL0     C28561   1.921   0.116   2.729  0.1324 -0.0394  0.4627
  217MOL0     N28562   2.567   0.106   2.968 -0.0134  0.2213 -0.6374
  217MOL0     N28563   2.662   0.179   3.026 -0.3332 -0.3585  0.1073
  217MOL0     C28564   3.804   0.616   3.068  0.6376  1.4766 -0.2619
  217MOL0     C28565   3.922   0.682   3.041  0.1929 -0.3520  0.3564
  217MOL0     C28566   4.292   0.814   2.769 -0.4923  0.2720 -0.2196
  217MOL0     C28567   4.304   0.923   2.854 -0.6446  0.2949 -0.1621
  217MOL0     C28568   4.425   0.993   2.847  0.0740 -0.6116 -0.2364
  217MOL0     C28569   4.520   0.972   2.744  0.7169  0.4719  0.0749
  217MOL0     O28570   4.625   1.055   2.738  0.3732  0.4377 -0.2591
  217MOL0     C28571   4.717   1.029   2.840 -0.8826 -0.9356  0.7313
  217MOL0     C28572   4.867   1.069   2.797 -0.1681  0.5723 -0.9536
  217MOL0     C28573   4.970   0.988   2.880 -0.3663  0.2244 -0.0226
  217MOL0     C28574   5.007   1.058   3.012  0.1819 -0.7441  0.1988
  217MOL0     C28575   5.116   0.993   3.086  0.1508  1.3054 -0.2248
  217MOL0     C28576   5.187   0.933   3.166 -0.9062 -0.6265 -0.1843
  217MOL0     C28577   4.504   0.859   2.659 -1.3997 -1.0082 -0.0935
  217MOL0     C28578   4.392   0.778   2.667  0.5520 -0.7146 -0.2604
  217MOL0     H28579   3.914   0.592   2.713 -3.3797  1.2224 -0.0810
  217MOL0     H28580   3.748   0.426   2.804 -2.2948  1.7949  0.7577
  217MOL0     H28581   3.555   0.342   2.876 -3.2351 -3.1994  3.1009
  217MOL0     H28582   3.486   0.511   2.884  1.5352  2.6835  0.8201
  217MOL0     H28583   3.458   0.288   3.095 -0.9825 -0.1878  0.3788
  217MOL0     H28584   3.344   0.327   2.945 -2.4957  2.3894  1.5301
  217MOL0     H28585   3.294   0.536   3.040 -0.4805  1.2402  1.8494
  217MOL0     H28586   3.422   0.511   3.164 -0.5142 -0.9456  0.6514
  217MOL0     H28587   3.316   0.341   3.258  0.9879  1.3898  0.8183
  217MOL0     H28588   3.228   0.481   3.286  0.3917  0.7297  0.3582
  217MOL0     H28589   3.140   0.280   3.058 -0.9280 -0.3047 -0.1574
  217MOL0     H28590   3.089   0.431   3.074  1.9205  0.6819 -2.1726
  217MOL0     H28591   3.022   0.366   3.337  0.7086  0.8982 -1.5009
  217MOL0     H28592   3.079   0.209   3.301 -1.1482 -1.4471  0.0525
  217MOL0     H28593   2.825   0.212   3.290 -0.2560 -3.5524 -1.1674
  217MOL0     H28594   2.833   0.337   3.179 -1.1258  0.0011  3.8690
  217MOL0     H28595   2.960   0.074   3.130  1.2421 -0.9344 -2.5246
  217MOL0     H28596   2.935   0.197   3.002 -1.5423 -0.1011 -0.5911
  217MOL0     H28597   2.785  -0.128   3.024 -1.0722 -0.0563 -2.2424
  217MOL0     H28598   2.563  -0.233   2.937 -0.2661 -0.3435 -0.6554
  217MOL0     H28599   2.558  -0.140   2.787 -2.3492 -1.3149 -0.1943
  217MOL0     H28600   2.346  -0.068   2.992  0.2590  2.5707 -1.2961
  217MOL0     H28601   2.345  -0.228   2.934  1.4678  0.1251 -1.1144
  217MOL0     H28602   2.362   0.014   2.752 -1.3755 -0.6697 -3.6406
  217MOL0     H28603   2.316  -0.152   2.705  1.4024  0.8788 -1.2833
  217MOL0     H28604   2.141   0.059   2.841  1.0178  0.7372 -0.7919
  217MOL0     H28605   2.119  -0.126   2.861 -0.2900 -0.1403 -1.2954
  217MOL0     H28606   1.981  -0.046   2.445 -0.3028 -1.2559  0.9995
  217MOL0     H28607   1.773   0.052   2.386  0.7425  0.7749 -2.1075
  217MOL0     H28608   1.362   0.204   2.803  1.1540  0.9636 -0.7912
  217MOL0     H28609   1.118   0.246   2.790 -2.0808 -0.6131 -1.1860
  217MOL0     H28610   0.971   0.611   2.672 -1.0144  1.4036  1.5700
  217MOL0     H28611   1.011   0.500   2.809 -0.8875 -0.8273 -0.6574
  217MOL0     H28612   0.774   0.469   2.627 -0.3647 -1.8303  0.1945
  217MOL0     H28613   0.775   0.572   2.767 -1.2723 -0.3678 -1.7039
  217MOL0     H28614   0.861   0.371   2.905 -1.3600  1.6102  0.6655
  217MOL0     H28615   0.839   0.269   2.767 -0.8549 -1.0634  1.0094
  217MOL0     H28616   0.601   0.425   2.890 -2.2957 -1.7976  0.0365
  217MOL0     H28617   0.596   0.304   2.764 -1.6310  1.4149 -0.4715
  217MOL0     H28618   0.707   0.236   3.030 -0.7512  1.4484  1.2350
  217MOL0     H28619   0.618   0.128   2.910  0.0220  1.1282 -0.5750
  217MOL0     H28620   0.413   0.229   2.951 -0.8869 -1.9507 -0.3532
  217MOL0     H28621   0.490   0.337   3.083 -1.5226  0.2689 -1.8085
  217MOL0     H28622   0.476   0.038   3.074  0.4640 -0.0648 -1.4442
  217MOL0     H28623   0.570   0.117   3.199 -1.3987  0.2523  0.0402
  217MOL0     H28624   0.272   0.184   3.178  0.3034 -0.3490 -0.4189
  217MOL0     H28625   0.401   0.234   3.297  1.2221  0.5749  0.0185
  217MOL0     H28626   1.182   0.497   2.446 -0.3807  0.4048 -0.0992
  217MOL0     H28627   1.431   0.446   2.457 -2.0957 -1.0782 -1.9451
  217MOL0     H28628   1.760   0.227   2.789  2.0247 -1.7645  1.9952
  217MOL0     H28629   1.950   0.114   2.834  0.3287  0.9374  0.4397
  217MOL0     H28630   3.751   0.633   3.161  0.5859 -0.4957  0.1182
  217MOL0     H28631   3.969   0.744   3.116  0.5765 -0.0594 -0.1248
  217MOL0     H28632   4.232   0.951   2.930  0.5504  2.9282  0.0835
  217MOL0     H28633   4.442   1.084   2.903  0.0773 -0.1056 -1.0394
  217MOL0     H28634   4.723   0.923   2.863 -3.7005 -1.8852 -2.1297
  217MOL0     H28635   4.700   1.087   2.931 -0.4178 -1.0654  0.9022
  217MOL0     H28636   4.872   1.042   2.691 -0.5069 -1.2518 -0.5262
  217MOL0     H28637   4.885   1.177   2.806 -1.3829  0.6645  0.8878
  217MOL0     H28638   5.066   0.973   2.830 -0.0815 -2.1127  1.0657
  217MOL0     H28639   4.934   0.888   2.905  2.0342 -0.0096  2.9603
  217MOL0     H28640   5.044   1.155   2.977  0.2378 -1.3534 -1.5636
  217MOL0     H28641   4.916   1.072   3.070 -0.4943  0.4975 -1.0884
  217MOL0     H28642   5.227   0.895   3.257  0.8399 -3.4185 -1.9851
  217MOL0     H28643   4.576   0.845   2.580 -0.5706  1.6517  0.0935
  217MOL0     H28644   4.375   0.702   2.592  1.5065 -1.2278  0.0168
  218MOL0     O28645   9.820   3.543   2.752  0.0160  0.5498  0.0988
  218MOL0     C28646   9.872   3.646   2.810  0.2579  0.3984 -0.1330
  218MOL0     O28647   9.800   3.744   2.877  0.0372  0.4179 -0.9028
  218MOL0     C28648   9.664   3.720   2.890  0.2383 -0.2998 -0.0308
  218MOL0     C28649   9.619   3.726   3.021  0.0315  0.6425 -0.5783
  218MOL0     C28650   9.482   3.728   3.055  0.3038 -0.6171  0.1659
  218MOL0     C28651   9.393   3.699   2.953 -0.0324  0.7702  0.9358
  218MOL0     O28652   9.255   3.705   2.978  0.7249 -0.6476 -0.4444
  218MOL0     C28653   9.171   3.736   2.868  0.8807  0.7262 -0.1971
  218MOL0     C28654   9.027   3.757   2.906 -1.0197  0.1857 -0.4826
  218MOL0     C28655   8.929   3.793   2.794 -0.4527  0.3626  0.6708
  218MOL0     C28656   8.785   3.801   2.824  0.9376 -0.3583 -0.2020
  218MOL0     C28657   8.740   3.902   2.924  0.0551  0.9749  0.6463
  218MOL0     C28658   8.776   4.055   2.902  0.6553  0.4977  0.0692
  218MOL0     C28659   8.714   4.111   2.768 -0.7191 -0.5470  0.3510
  218MOL0     C28660   8.576   4.169   2.800  0.1979  0.2849  0.8326
  218MOL0     N28661   8.509   4.239   2.689 -0.5316 -0.7495 -0.4869
  218MOL0     C28662   8.382   4.219   2.636 -0.4850  0.1278 -0.2656
  218MOL0     C28663   8.373   4.312   2.541 -0.1439  0.2068 -0.1975
  218MOL0     C28664   8.256   4.346   2.450 -0.2086  0.5719  0.1802
  218MOL0     C28665   8.142   4.398   2.533 -0.4741 -0.3645  0.0165
  218MOL0     C28666   8.027   4.435   2.444  0.0866  0.0907  0.6048
  218MOL0     C28667   7.891   4.413   2.508 -0.3235 -0.3527  0.1994
  218MOL0     O28668   7.782   4.446   2.415 -0.4456 -0.2600 -0.1704
  218MOL0     C28669   7.654   4.428   2.470  0.2629 -0.3558  0.1739
  218MOL0     C28670   7.542   4.449   2.392 -0.2145 -1.2721 -0.1222
  218MOL0     C28671   7.413   4.425   2.437 -0.4997  0.1335 -0.4613
  218MOL0     C28672   7.391   4.391   2.573 -0.2006  1.0883  0.0987
  218MOL0     C28673   7.248   4.369   2.616  0.0078  0.1155 -0.6973
  218MOL0     O28674   7.146   4.378   2.519  0.0917 -0.6755  0.2311
  218MOL0     C28675   7.015   4.340   2.545  0.0150  0.3672 -0.2639
  218MOL0     C28676   6.949   4.356   2.667  0.1646 -0.4961  0.1908
  218MOL0     C28677   6.821   4.324   2.693 -0.0567  0.5844 -0.7572
  218MOL0     C28678   6.744   4.266   2.591 -0.3338 -0.0726  0.0720
  218MOL0     O28679   6.629   4.195   2.609 -0.0509  0.5912 -0.0517
  218MOL0     C28680   6.579   4.153   2.743  0.4410  0.1477  1.1977
  218MOL0     C28681   6.462   4.051   2.726 -0.5748  0.0520  0.2013
  218MOL0     C28682   6.459   3.939   2.830  0.2195  0.1549 -0.7686
  218MOL0     C28683   6.351   3.841   2.793  0.4294  0.4747 -0.4157
  218MOL0     C28684   6.327   3.731   2.895 -0.3486 -0.7199 -0.2091
  218MOL0     C28685   6.226   3.628   2.837  0.7760  0.3166 -0.2820
  218MOL0     C28686   6.196   3.515   2.934 -0.1537  0.4408 -0.2519
  218MOL0     C28687   6.165   3.379   2.872 -0.0011  0.5800 -0.6002
  218MOL0    Cl28688   6.026   3.388   2.761  0.3894  0.1250  0.1240
  218MOL0     C28689   6.794   4.265   2.463 -0.2577  0.6079 -0.4570
  218MOL0     C28690   6.935   4.298   2.442 -0.0563 -0.2359 -0.1155
  218MOL0     O28691   7.238   4.326   2.729  0.0004 -0.1165  0.2563
  218MOL0     C28692   7.501   4.374   2.662 -0.3491 -0.6215 -0.8415
  218MOL0     C28693   7.632   4.401   2.609  0.8561  0.0192  0.4463
  218MOL0     N28694   8.489   4.382   2.541 -0.1801 -0.3278  0.1869
  218MOL0     N28695   8.571   4.339   2.627 -0.7584 -0.8078 -0.1200
  218MOL0     C28696   9.444   3.685   2.820  0.4143 -0.0046  0.3656
  218MOL0     C28697   9.581   3.710   2.791  0.8032 -0.4537  0.5154
  218MOL0     C28698  10.021   3.646   2.807  0.7964  0.3889  0.3253
  218MOL0     C28699  10.092   3.540   2.752  0.4729  0.3039  0.2540
  218MOL0     C28700  10.232   3.543   2.763 -0.2532 -0.2203  1.5678
  218MOL0     C28701  10.303   3.653   2.814 -0.3508 -0.1168 -0.0811
  218MOL0     O28702  10.435   3.655   2.840 -0.0644  0.3134  0.1185
  218MOL0     C28703  10.521   3.575   2.760 -0.3215  0.3235  0.3589
  218MOL0     C28704  10.642   3.657   2.714  0.2211 -0.7515 -0.0600
  218MOL0     C28705  10.720   3.713   2.836  0.4418  0.7279 -0.6154
  218MOL0     C28706  10.856   3.763   2.795 -0.0388 -0.9770  0.7242
  218MOL0     C28707  10.863   3.907   2.751  0.1029  0.4174  0.4170
  218MOL0     C28708  10.857   4.020   2.714 -0.6379  0.2488 -0.7019
  218MOL0     C28709  10.223   3.759   2.861 -1.3054 -0.3023  0.2758
  218MOL0     C28710  10.086   3.760   2.867 -0.3573  0.2936  1.0131
  218MOL0     H28711   9.692   3.725   3.101 -1.5812 -2.1204  1.0342
  218MOL0     H28712   9.433   3.737   3.151 -1.4511  1.2170 -0.8313
  218MOL0     H28713   9.161   3.656   2.794  0.9944  1.7417 -1.3485
  218MOL0     H28714   9.203   3.831   2.822  1.1761  1.2497  1.0470
  218MOL0     H28715   9.025   3.843   2.974  1.1819  3.2897 -3.9609
  218MOL0     H28716   8.984   3.674   2.964  1.4645  0.3474  1.7985
  218MOL0     H28717   8.931   3.717   2.716  0.0882  1.7551 -0.7277
  218MOL0     H28718   8.948   3.893   2.753 -2.9374  1.3462  1.6546
  218MOL0     H28719   8.740   3.819   2.726  2.4757  0.5670 -0.7789
  218MOL0     H28720   8.749   3.703   2.857 -0.3592 -0.5334 -2.0002
  218MOL0     H28721   8.778   3.867   3.021  1.2018  0.6506  0.1019
  218MOL0     H28722   8.631   3.901   2.938  0.2417 -0.6507  2.3261
  218MOL0     H28723   8.885   4.064   2.891  0.9388 -0.8164  1.5581
  218MOL0     H28724   8.740   4.118   2.983 -2.7650 -1.2160  0.0474
  218MOL0     H28725   8.789   4.185   2.737  2.2747 -2.7277  1.8846
  218MOL0     H28726   8.701   4.031   2.695  0.0954 -0.9830  0.6697
  218MOL0     H28727   8.586   4.245   2.878 -2.6127  1.5223  0.1047
  218MOL0     H28728   8.518   4.081   2.832  0.9786 -1.9280 -3.2027
  218MOL0     H28729   8.309   4.150   2.677 -1.0814  0.1113 -1.3275
  218MOL0     H28730   8.224   4.249   2.410 -1.1675  0.5162  1.0523
  218MOL0     H28731   8.295   4.421   2.381  2.4739  2.3692  3.3477
  218MOL0     H28732   8.175   4.489   2.583  1.4575  0.3429 -2.3380
  218MOL0     H28733   8.094   4.322   2.595 -1.5764  0.2354 -0.0954
  218MOL0     H28734   8.042   4.543   2.436  1.0601  0.3127  4.0808
  218MOL0     H28735   8.022   4.389   2.345  0.5151  0.9268  0.1801
  218MOL0     H28736   7.886   4.473   2.600 -0.0353 -0.7168  0.4567
  218MOL0     H28737   7.873   4.309   2.535  0.3874 -1.1370 -2.1684
  218MOL0     H28738   7.553   4.483   2.289  0.9663  1.7712  0.8859
  218MOL0     H28739   7.325   4.438   2.375 -1.4195  0.8527  0.9343
  218MOL0     H28740   7.009   4.416   2.736  3.0573 -0.6897 -1.9599
  218MOL0     H28741   6.780   4.351   2.790 -1.6008 -2.2328 -0.5173
  218MOL0     H28742   6.552   4.246   2.795  1.6739  1.0826  0.2426
  218MOL0     H28743   6.657   4.106   2.803  0.9205 -0.6808 -0.0562
  218MOL0     H28744   6.464   4.000   2.629 -4.2222 -1.1008  0.5625
  218MOL0     H28745   6.368   4.107   2.729 -0.2536  0.5338  1.7072
  218MOL0     H28746   6.436   3.975   2.931  0.4882 -3.2472  0.6200
  218MOL0     H28747   6.559   3.896   2.842 -0.3897 -1.6811 -1.8720
  218MOL0     H28748   6.258   3.896   2.781  1.3615  2.5412  1.2992
  218MOL0     H28749   6.366   3.792   2.696 -1.6039 -0.7712 -0.1513
  218MOL0     H28750   6.288   3.768   2.991 -1.0919 -1.1932 -0.3222
  218MOL0     H28751   6.427   3.691   2.916 -0.3477 -1.2204 -1.1448
  218MOL0     H28752   6.269   3.581   2.749 -0.1673  2.5538 -2.0388
  218MOL0     H28753   6.130   3.678   2.820  0.5632 -0.1291 -0.4072
  218MOL0     H28754   6.285   3.489   2.992 -1.2487 -2.9364  0.0864
  218MOL0     H28755   6.119   3.526   3.012 -0.1086 -5.2025  0.9749
  218MOL0     H28756   6.148   3.303   2.948 -2.3458  0.4723 -1.1396
  218MOL0     H28757   6.251   3.351   2.811  1.4930  0.0678  1.6552
  218MOL0     H28758   6.732   4.235   2.379 -0.0757  2.7132 -1.4307
  218MOL0     H28759   6.982   4.294   2.344  0.9052 -1.5297  0.3621
  218MOL0     H28760   7.483   4.353   2.767 -1.1021  1.6122 -0.4741
  218MOL0     H28761   7.710   4.397   2.684 -1.3106  1.6301  2.9499
  218MOL0     H28762   9.371   3.674   2.741 -0.6722  1.4568  1.1091
  218MOL0     H28763   9.610   3.724   2.688 -2.6109  0.8621 -0.3804
  218MOL0     H28764  10.043   3.459   2.699 -0.0634  0.9721 -0.2753
  218MOL0     H28765  10.287   3.454   2.732 -1.5176 -0.2365 -0.8653
  218MOL0     H28766  10.472   3.532   2.672 -0.9645  3.3918 -0.9110
  218MOL0     H28767  10.554   3.495   2.826 -3.5449 -2.2409 -0.8326
  218MOL0     H28768  10.707   3.581   2.671  2.4287  0.0732  1.6166
  218MOL0     H28769  10.613   3.727   2.635  2.6021 -0.1862 -0.5205
  218MOL0     H28770  10.743   3.633   2.906  0.0737  2.1219  1.1738
  218MOL0     H28771  10.660   3.787   2.889  0.2443  0.8291 -0.9756
  218MOL0     H28772  10.925   3.747   2.878 -0.6480  0.9050  1.6468
  218MOL0     H28773  10.882   3.706   2.705 -1.9546 -0.2581 -0.3573
  218MOL0     H28774  10.841   4.122   2.683 -3.3809 -0.0986 -0.6402
  218MOL0     H28775  10.268   3.847   2.907 -1.0197 -1.1213  1.6134
  218MOL0     H28776  10.035   3.841   2.918  0.9869  1.3905  0.6901
  219MOL0     O28777   1.651   5.726   8.611  0.1310  0.0833  0.2269
  219MOL0     C28778   1.704   5.679   8.712 -0.1441 -0.7078 -0.2488
  219MOL0     O28779   1.652   5.651   8.843  0.1467  0.0078  0.3315
  219MOL0     C28780   1.519   5.669   8.868 -0.3730  0.1992 -0.0824
  219MOL0     C28781   1.408   5.653   8.780 -0.7541 -1.5482  0.2863
  219MOL0     C28782   1.278   5.685   8.826 -0.0119 -0.5575 -0.2153
  219MOL0     C28783   1.254   5.712   8.958  0.3442 -1.5867 -0.1702
  219MOL0     O28784   1.126   5.715   9.010 -0.4877  0.5591  0.1478
  219MOL0     C28785   1.028   5.782   8.935 -0.5431  0.4041 -0.1982
  219MOL0     C28786   0.915   5.814   9.024  0.8096 -0.7345 -0.1159
  219MOL0     C28787   0.792   5.851   8.943  0.5437 -0.6169  1.0102
  219MOL0     C28788   0.708   5.953   9.011 -0.7305  0.2458  0.0335
  219MOL0     C28789   0.597   6.004   8.908  0.2821  0.4750  0.5204
  219MOL0     C28790   0.649   6.129   8.834  0.0081  0.8023  0.0488
  219MOL0     C28791   0.542   6.209   8.754 -0.4544  0.0551 -0.7260
  219MOL0     C28792   0.457   6.120   8.668  0.0901 -0.5175 -0.8546
  219MOL0     N28793   0.367   6.211   8.589  0.2012 -0.4180  0.3482
  219MOL0     C28794   0.415   6.307   8.495  0.0139 -0.7722  1.2318
  219MOL0     C28795   0.304   6.379   8.484 -0.6094 -0.7293 -0.4698
  219MOL0     C28796   0.296   6.506   8.398  0.1780 -0.1987  0.1170
  219MOL0     C28797   0.338   6.642   8.459  0.0065 -0.1853  1.3909
  219MOL0     C28798   0.301   6.656   8.602  0.2865 -0.0750 -0.2719
  219MOL0     C28799   0.154   6.689   8.625 -0.3621 -0.0328  0.2933
  219MOL0     O28800   0.139   6.772   8.734 -0.0394  0.6939 -0.0163
  219MOL0     C28801   0.032   6.843   8.743 -0.0129 -0.3248 -0.4614
  219MOL0     C28802  -0.067   6.815   8.840  1.1135  1.4606  0.3078
  219MOL0     C28803  -0.178   6.897   8.850  0.7086 -0.0040  0.6436
  219MOL0     C28804  -0.207   7.002   8.761  0.2779  1.5522 -0.6405
  219MOL0     C28805  -0.337   7.067   8.764 -0.2246 -0.4349 -0.4513
  219MOL0     O28806  -0.402   7.092   8.641 -0.1581  0.6829 -0.2901
  219MOL0     C28807  -0.537   7.118   8.640 -0.2663 -0.0828  0.3220
  219MOL0     C28808  -0.577   7.230   8.562 -0.0995 -0.4606  0.1106
  219MOL0     C28809  -0.706   7.282   8.573 -0.1730  0.4389  0.0011
  219MOL0     C28810  -0.801   7.221   8.659  0.4231 -0.3284 -0.2130
  219MOL0     O28811  -0.922   7.279   8.681  0.1943 -0.0839  0.4714
  219MOL0     C28812  -0.997   7.293   8.554  0.4213  0.3788 -0.8581
  219MOL0     C28813  -1.142   7.336   8.570  0.5581  0.5093 -0.1176
  219MOL0     C28814  -1.239   7.220   8.603 -0.4238 -0.3319  0.5422
  219MOL0     C28815  -1.387   7.267   8.623 -0.6410  0.1811 -0.0813
  219MOL0     C28816  -1.448   7.362   8.511  0.0856 -0.0794 -0.2496
  219MOL0     C28817  -1.601   7.383   8.525  0.0361  0.2138  0.5904
  219MOL0     C28818  -1.649   7.441   8.392 -0.3860 -0.2237 -0.4553
  219MOL0     C28819  -1.799   7.414   8.374  0.4554  0.6355 -0.0126
  219MOL0    Cl28820  -1.854   7.471   8.217  0.5392 -0.4104 -0.2074
  219MOL0     C28821  -0.760   7.102   8.734  0.0398  0.1070  0.0728
  219MOL0     C28822  -0.632   7.048   8.714  0.2337 -0.4237  0.5747
  219MOL0     O28823  -0.378   7.098   8.874  0.4968  0.7585  0.0620
  219MOL0     C28824  -0.112   7.025   8.664  0.5538 -0.8460  0.9500
  219MOL0     C28825   0.005   6.948   8.649 -0.4440 -0.1818 -0.6530
  219MOL0     N28826   0.198   6.337   8.566 -0.5360 -0.5044  1.0449
  219MOL0     N28827   0.243   6.234   8.626  0.2587  0.5357 -0.7113
  219MOL0     C28828   1.360   5.731   9.045 -0.6614 -0.3445 -0.2598
  219MOL0     C28829   1.492   5.710   9.005 -0.0883  1.4479  0.3152
  219MOL0     C28830   1.845   5.642   8.691 -0.1851 -1.5717 -0.9524
  219MOL0     C28831   1.928   5.613   8.810  0.0063  0.9699 -0.6651
  219MOL0     C28832   2.061   5.573   8.801 -0.0868  0.0586  0.1248
  219MOL0     C28833   2.119   5.577   8.681 -1.1997 -0.1318  1.2996
  219MOL0     O28834   2.254   5.556   8.666  0.0416 -0.3772 -0.2993
  219MOL0     C28835   2.301   5.430   8.718 -0.4262 -0.0348 -0.6298
  219MOL0     C28836   2.436   5.398   8.646 -0.1790 -0.0694 -0.7193
  219MOL0     C28837   2.414   5.379   8.497 -0.5964 -0.0647 -0.0284
  219MOL0     C28838   2.529   5.367   8.413 -0.2687  0.6287  0.4054
  219MOL0     C28839   2.634   5.265   8.468  0.8277 -0.5625  0.4674
  219MOL0     C28840   2.712   5.189   8.508 -1.0359  1.1065 -0.0158
  219MOL0     C28841   2.045   5.595   8.564  0.1494  0.0379 -0.0331
  219MOL0     C28842   1.912   5.623   8.565  0.6387 -0.1173  0.2193
  219MOL0     H28843   1.426   5.625   8.677  1.4889  1.0231 -0.1208
  219MOL0     H28844   1.201   5.688   8.750  0.9228  1.5479 -1.1548
  219MOL0     H28845   0.997   5.715   8.854  0.7104 -1.5456  0.8547
  219MOL0     H28846   1.062   5.881   8.903 -0.5567  0.3539 -0.3710
  219MOL0     H28847   0.948   5.894   9.091  2.4396 -0.4247 -1.2114
  219MOL0     H28848   0.895   5.725   9.084  0.6052 -1.1923 -0.8490
  219MOL0     H28849   0.739   5.760   8.914  1.9866 -0.7905 -1.3567
  219MOL0     H28850   0.816   5.880   8.840 -1.4517  1.9734  1.1774
  219MOL0     H28851   0.670   5.923   9.110  1.0928 -1.5719  0.2298
  219MOL0     H28852   0.772   6.037   9.040  0.5526  0.3327 -2.7881
  219MOL0     H28853   0.507   6.016   8.970 -0.7045 -0.0072 -0.7874
  219MOL0     H28854   0.572   5.936   8.826  1.3984  1.0065 -0.2860
  219MOL0     H28855   0.735   6.099   8.773 -0.9973 -1.2274 -0.4718
  219MOL0     H28856   0.696   6.194   8.908  0.2758  0.2647  0.3547
  219MOL0     H28857   0.497   6.271   8.832 -0.1262  2.0380 -2.0581
  219MOL0     H28858   0.596   6.278   8.689  0.6930 -0.8052 -0.7343
  219MOL0     H28859   0.403   6.043   8.723 -1.0561 -0.3631 -1.7320
  219MOL0     H28860   0.515   6.060   8.597  1.8122 -2.3646  1.9047
  219MOL0     H28861   0.512   6.326   8.451  0.1337  1.4223  2.2749
  219MOL0     H28862   0.188   6.510   8.386 -0.0184  1.4107  1.9730
  219MOL0     H28863   0.356   6.486   8.309  1.2401 -2.6518  1.2949
  219MOL0     H28864   0.295   6.720   8.396  1.2419 -0.6007 -0.0299
  219MOL0     H28865   0.447   6.644   8.449 -0.0590  1.5592  0.6055
  219MOL0     H28866   0.322   6.565   8.659  0.4505 -1.3654 -2.2890
  219MOL0     H28867   0.362   6.740   8.637 -2.5997  2.9215 -1.9336
  219MOL0     H28868   0.095   6.598   8.641  0.5509 -0.9622 -1.3115
  219MOL0     H28869   0.121   6.732   8.530  2.1402 -1.2220 -1.2293
  219MOL0     H28870  -0.061   6.726   8.903  0.4527  0.4794 -0.9696
  219MOL0     H28871  -0.256   6.862   8.916 -0.5978 -0.2912 -0.9700
  219MOL0     H28872  -0.501   7.278   8.502  1.8617 -0.9979  2.0208
  219MOL0     H28873  -0.731   7.370   8.515 -2.1988 -1.7044 -2.6650
  219MOL0     H28874  -0.980   7.201   8.498  1.2846 -0.9791  1.4864
  219MOL0     H28875  -0.951   7.365   8.486  1.9581  0.5243  0.2946
  219MOL0     H28876  -1.173   7.396   8.484  0.9637  1.6659  0.5183
  219MOL0     H28877  -1.146   7.403   8.657  2.0500 -2.0266  2.0711
  219MOL0     H28878  -1.201   7.190   8.701 -0.8104  1.0415  1.1326
  219MOL0     H28879  -1.232   7.139   8.529 -0.6824  0.3462 -0.2374
  219MOL0     H28880  -1.450   7.179   8.633  0.4007 -0.5878 -0.1877
  219MOL0     H28881  -1.396   7.318   8.720  0.6745 -1.4721  0.9651
  219MOL0     H28882  -1.425   7.307   8.419 -1.4354 -0.2262 -0.5643
  219MOL0     H28883  -1.402   7.461   8.509  0.7521 -0.3906 -0.6578
  219MOL0     H28884  -1.620   7.453   8.607  1.1903  0.5901  0.5487
  219MOL0     H28885  -1.653   7.291   8.553  2.9213 -1.6799  0.1953
  219MOL0     H28886  -1.627   7.548   8.387  0.9371 -0.4035  0.7757
  219MOL0     H28887  -1.591   7.395   8.311 -0.9636  1.5276 -1.9380
  219MOL0     H28888  -1.853   7.474   8.449 -0.6117  2.6474 -2.2375
  219MOL0     H28889  -1.815   7.306   8.378  2.8192  0.1607 -1.5789
  219MOL0     H28890  -0.828   7.033   8.783 -1.7250  1.4416 -0.3608
  219MOL0     H28891  -0.597   6.952   8.752  2.2009  0.3493  0.8025
  219MOL0     H28892  -0.136   7.102   8.592  1.3169 -0.9295  0.6008
  219MOL0     H28893   0.074   6.961   8.566  1.1314 -1.5054  0.3805
  219MOL0     H28894   1.348   5.754   9.150 -0.4195 -2.4580  0.2866
  219MOL0     H28895   1.565   5.719   9.084  0.5702 -2.2408  0.3122
  219MOL0     H28896   1.896   5.600   8.913 -1.6472 -0.1696 -1.2970
  219MOL0     H28897   2.110   5.539   8.891  2.4218 -0.5670 -1.3666
  219MOL0     H28898   2.224   5.355   8.701  0.4701 -0.2863 -4.3606
  219MOL0     H28899   2.322   5.437   8.825  2.6007 -0.6800 -1.0821
  219MOL0     H28900   2.511   5.475   8.659  1.7996 -1.3215 -3.6414
  219MOL0     H28901   2.471   5.301   8.683 -0.0385  0.2407 -0.0334
  219MOL0     H28902   2.369   5.464   8.445  0.7861 -0.0706 -1.3112
  219MOL0     H28903   2.352   5.289   8.488  0.9898 -1.2404  0.2711
  219MOL0     H28904   2.494   5.324   8.318 -0.5645 -2.7958  1.9209
  219MOL0     H28905   2.580   5.462   8.391  2.2471 -1.4692 -4.3685
  219MOL0     H28906   2.796   5.124   8.525 -0.6592  1.2622 -1.1949
  219MOL0     H28907   2.090   5.591   8.465 -1.4283  0.2055 -0.7776
  219MOL0     H28908   1.863   5.637   8.469  0.7823  3.8952  0.5495
  220MOL0     O28909   5.561  11.079   3.057 -0.3536  0.2018  0.4215
  220MOL0     C28910   5.644  11.001   3.107  0.9455  0.7327  0.8167
  220MOL0     O28911   5.608  10.881   3.175 -0.3035  0.1197 -0.3891
  220MOL0     C28912   5.477  10.836   3.153 -0.0081 -0.6795  0.6175
  220MOL0     C28913   5.450  10.728   3.059 -0.5145 -0.7295 -1.2960
  220MOL0     C28914   5.323  10.675   3.043  0.1747  0.4072  0.4063
  220MOL0     C28915   5.216  10.716   3.126  0.4558 -0.6724 -0.4077
  220MOL0     O28916   5.094  10.651   3.114 -0.1522 -0.0601  0.1413
  220MOL0     C28917   4.968  10.722   3.130  0.0511 -0.4954 -0.7900
  220MOL0     C28918   4.873  10.610   3.117 -0.0344  0.1662  1.2589
  220MOL0     C28919   4.727  10.652   3.146 -1.0716 -0.1348  0.2396
  220MOL0     C28920   4.628  10.533   3.136  0.6926  0.1398 -0.3627
  220MOL0     C28921   4.488  10.574   3.193  0.3229 -0.5246  0.9790
  220MOL0     C28922   4.378  10.469   3.167  0.6262  0.6569  0.1626
  220MOL0     C28923   4.235  10.516   3.222 -0.1036 -0.1199  1.5428
  220MOL0     C28924   4.132  10.404   3.220  0.3958  0.3592  0.4402
  220MOL0     N28925   4.001  10.448   3.281  0.1549  0.5755 -0.2668
  220MOL0     C28926   3.972  10.483   3.407  0.1012 -0.2873 -0.0452
  220MOL0     C28927   3.841  10.486   3.421  0.4251  0.8602  0.2194
  220MOL0     C28928   3.755  10.530   3.540 -0.6690 -0.1854 -0.4071
  220MOL0     C28929   3.664  10.423   3.589  0.4101  0.9738 -0.3229
  220MOL0     C28930   3.602  10.457   3.728 -1.2051  0.1075  0.3749
  220MOL0     C28931   3.463  10.404   3.749 -0.3198  0.0909  0.3790
  220MOL0     O28932   3.420  10.274   3.693  0.4345  0.0481 -0.2746
  220MOL0     C28933   3.285  10.240   3.699 -0.0469  0.2490 -0.2201
  220MOL0     C28934   3.205  10.267   3.811  0.1702 -0.1295 -0.1698
  220MOL0     C28935   3.073  10.230   3.806  0.3582  0.8210  0.1658
  220MOL0     C28936   3.015  10.154   3.695 -0.3826 -0.4060  0.2240
  220MOL0     C28937   2.867  10.124   3.692  0.2889 -0.4163 -0.5785
  220MOL0     O28938   2.827  10.065   3.586  0.2430 -0.2042 -0.0424
  220MOL0     C28939   2.682  10.062   3.571 -0.5860 -0.8415  0.5767
  220MOL0     C28940   2.617   9.950   3.592  0.6823 -0.5586 -0.1017
  220MOL0     C28941   2.477   9.952   3.582 -0.2953  0.2837  0.1024
  220MOL0     C28942   2.400  10.064   3.540 -0.3698 -0.3739  0.1899
  220MOL0     O28943   2.267  10.046   3.513 -0.7838  0.4299 -0.5391
  220MOL0     C28944   2.210  10.136   3.422 -0.4987  0.0547 -0.3493
  220MOL0     C28945   2.068  10.099   3.395 -0.1663  1.4257  0.2652
  220MOL0     C28946   1.998  10.204   3.303 -0.7560  1.2898 -0.3404
  220MOL0     C28947   1.849  10.196   3.324  0.2400  0.5629 -0.1406
  220MOL0     C28948   1.768  10.285   3.233 -0.3527  0.5260  0.7179
  220MOL0     C28949   1.825  10.428   3.212 -0.4663 -0.0132 -0.1520
  220MOL0     C28950   1.714  10.502   3.132 -0.8462 -1.1003 -0.4151
  220MOL0     C28951   1.747  10.662   3.113 -0.9150 -0.2403 -0.6025
  220MOL0    Cl28952   1.746  10.749   3.274 -0.2274  0.0382 -0.2458
  220MOL0     C28953   2.476  10.178   3.524  1.3053  0.2679  0.7038
  220MOL0     C28954   2.613  10.182   3.535  0.1258 -0.5482 -0.7880
  220MOL0     O28955   2.793  10.155   3.786  0.3738  0.2948  0.1175
  220MOL0     C28956   3.097  10.123   3.590  0.1363  0.1816 -0.2119
  220MOL0     C28957   3.229  10.177   3.583  0.3592 -0.5147  0.0732
  220MOL0     N28958   3.781  10.424   3.310 -0.0908 -0.7505  0.4409
  220MOL0     N28959   3.879  10.419   3.225  0.9276  0.0708 -0.5975
  220MOL0     C28960   5.244  10.822   3.221 -0.7239 -0.8294  0.0867
  220MOL0     C28961   5.372  10.885   3.231 -0.8529  0.8101  1.6634
  220MOL0     C28962   5.789  11.033   3.116  0.0839  0.2586 -0.4322
  220MOL0     C28963   5.873  10.946   3.183 -0.7647  0.0892 -0.2997
  220MOL0     C28964   6.009  10.983   3.215  0.2613 -0.0020  0.4647
  220MOL0     C28965   6.065  11.097   3.147  0.5116  0.0193  0.3329
  220MOL0     O28966   6.197  11.138   3.147  0.1010  0.7445 -0.7496
  220MOL0     C28967   6.277  11.062   3.230  0.1282  0.2902 -1.1263
  220MOL0     C28968   6.424  11.107   3.210  0.3869  0.1000  0.0097
  220MOL0     C28969   6.507  11.095   3.340 -0.0726 -0.5205  0.1815
  220MOL0     C28970   6.652  11.100   3.317 -0.1170  0.5973  0.0243
  220MOL0     C28971   6.711  10.971   3.300 -0.0622 -0.2394 -0.4257
  220MOL0     C28972   6.771  10.876   3.272  0.1693 -0.8641  0.0700
  220MOL0     C28973   5.982  11.178   3.072  0.5231  0.6182  0.3338
  220MOL0     C28974   5.847  11.150   3.066  0.2249  0.7827  0.5808
  220MOL0     H28975   5.534  10.686   3.004  0.6026 -0.0047 -0.2066
  220MOL0     H28976   5.299  10.595   2.974 -0.0133  1.5427 -0.8948
  220MOL0     H28977   4.950  10.807   3.064 -2.8174 -0.6741 -0.3767
  220MOL0     H28978   4.959  10.761   3.232 -0.7917 -1.7105 -0.3737
  220MOL0     H28979   4.912  10.525   3.173 -1.7610 -2.4094 -1.1539
  220MOL0     H28980   4.868  10.570   3.016 -0.6522 -3.7439  2.6535
  220MOL0     H28981   4.702  10.723   3.067  1.4454  1.5944  0.8573
  220MOL0     H28982   4.735  10.696   3.246  0.7141 -2.2361  1.1044
  220MOL0     H28983   4.625  10.495   3.033 -1.9788  0.4876 -0.4954
  220MOL0     H28984   4.673  10.462   3.205 -0.6552  1.0635  1.5584
  220MOL0     H28985   4.461  10.661   3.132 -1.2170 -2.2774 -0.9761
  220MOL0     H28986   4.500  10.589   3.300  3.0503 -3.1296  1.1696
  220MOL0     H28987   4.408  10.376   3.216  1.4250  1.9200  2.2314
  220MOL0     H28988   4.353  10.450   3.062 -3.3879  0.3738  1.0120
  220MOL0     H28989   4.245  10.544   3.327 -0.3753  2.0178  1.0544
  220MOL0     H28990   4.194  10.601   3.167  0.2603 -1.5483 -1.1080
  220MOL0     H28991   4.164  10.312   3.269 -2.6012 -1.2024 -0.3583
  220MOL0     H28992   4.115  10.379   3.115  0.0299  1.2987  0.2599
  220MOL0     H28993   4.045  10.511   3.483  0.6148  0.6293 -0.8626
  220MOL0     H28994   3.693  10.618   3.518  1.1099  1.5079  1.0402
  220MOL0     H28995   3.830  10.560   3.614  0.5011 -1.5376 -0.9973
  220MOL0     H28996   3.722  10.330   3.591  1.6941  1.7362 -1.3630
  220MOL0     H28997   3.587  10.397   3.516 -2.8885  2.3672  2.3707
  220MOL0     H28998   3.661  10.407   3.805 -1.0609 -0.0251  0.1787
  220MOL0     H28999   3.612  10.565   3.743  1.0277  0.2170 -1.3821
  220MOL0     H29000   3.394  10.481   3.714 -1.0857  0.6346  2.8818
  220MOL0     H29001   3.452  10.396   3.858  1.8418  2.1191  0.8160
  220MOL0     H29002   3.242  10.311   3.903  0.8510  0.0200 -0.5089
  220MOL0     H29003   3.011  10.252   3.892  0.8340  1.9579  0.2418
  220MOL0     H29004   2.672   9.858   3.611 -1.1424 -1.5863  0.4816
  220MOL0     H29005   2.425   9.857   3.596 -0.9638  0.3497 -1.6711
  220MOL0     H29006   2.270  10.121   3.332  1.9057 -2.7475  1.5154
  220MOL0     H29007   2.213  10.231   3.476  1.9473 -0.1762  0.0159
  220MOL0     H29008   2.018  10.080   3.491 -1.9633  0.4333 -0.8191
  220MOL0     H29009   2.062  10.010   3.332 -2.9229  1.6127  0.1356
  220MOL0     H29010   2.031  10.181   3.201 -0.0236  1.3684 -0.1221
  220MOL0     H29011   2.039  10.304   3.323 -0.8707  1.2561  0.0750
  220MOL0     H29012   1.800  10.098   3.323 -1.5458  1.3402 -3.1567
  220MOL0     H29013   1.835  10.226   3.428 -1.5603 -1.8290  0.4015
  220MOL0     H29014   1.662  10.288   3.259 -1.0211  0.5032 -1.8205
  220MOL0     H29015   1.769  10.243   3.132 -0.2357 -2.1631  1.7455
  220MOL0     H29016   1.913  10.425   3.146 -0.1987 -0.1714  0.2053
  220MOL0     H29017   1.841  10.489   3.301  2.4547 -0.3182 -0.3607
  220MOL0     H29018   1.716  10.462   3.030  1.4310  0.3199 -1.0006
  220MOL0     H29019   1.611  10.492   3.167 -1.6374  3.0086 -1.0853
  220MOL0     H29020   1.677  10.709   3.042  0.4114  2.1968 -0.4087
  220MOL0     H29021   1.838  10.676   3.055 -1.0324 -2.0403 -1.2786
  220MOL0     H29022   2.426  10.262   3.478 -1.0815 -2.4659 -2.1982
  220MOL0     H29023   2.658  10.281   3.539  0.9639 -0.9246 -0.7679
  220MOL0     H29024   3.064  10.064   3.505 -0.1150  0.7036 -0.4847
  220MOL0     H29025   3.290  10.172   3.493 -1.6532  1.2550 -1.4996
  220MOL0     H29026   5.173  10.862   3.292 -2.9686  0.5216 -2.7359
  220MOL0     H29027   5.378  10.957   3.312  1.8156  1.2637  1.1603
  220MOL0     H29028   5.832  10.854   3.225  2.6766 -0.4683  2.3472
  220MOL0     H29029   6.078  10.920   3.270  1.7602 -1.9029 -3.2323
  220MOL0     H29030   6.271  10.957   3.200 -0.3856  0.7162 -2.6173
  220MOL0     H29031   6.260  11.067   3.338  4.5097 -2.2555 -0.0844
  220MOL0     H29032   6.469  11.049   3.129 -0.7462 -4.5740  2.3701
  220MOL0     H29033   6.421  11.213   3.184 -2.5741 -0.5347 -3.0223
  220MOL0     H29034   6.472  11.004   3.390 -0.6950 -1.5329 -2.0070
  220MOL0     H29035   6.485  11.190   3.390  1.5459  0.0359 -0.1068
  220MOL0     H29036   6.668  11.165   3.231 -2.8554 -0.2115 -1.2347
  220MOL0     H29037   6.703  11.133   3.408  1.1920 -0.4496 -0.3027
  220MOL0     H29038   6.816  10.781   3.254  0.6340 -0.9415  1.4920
  220MOL0     H29039   6.019  11.265   3.019 -0.9029  2.1861  1.7754
  220MOL0     H29040   5.779  11.221   3.022 -0.5742  0.6648  1.5925
  221MOL0     O29041   4.539  11.132   7.932 -0.1771  0.3863 -0.0657
  221MOL0     C29042   4.560  11.118   7.808 -0.4447 -0.0772 -0.4901
  221MOL0     O29043   4.464  11.129   7.710  0.1764  0.0081  0.0562
  221MOL0     C29044   4.330  11.123   7.747 -0.6973  0.1106  0.0007
  221MOL0     C29045   4.278  10.999   7.778 -0.8155  0.1495 -0.2157
  221MOL0     C29046   4.143  10.995   7.832 -0.2994  0.2927  0.1306
  221MOL0     C29047   4.063  11.113   7.849 -1.0615  0.1090  0.5386
  221MOL0     O29048   3.942  11.101   7.912 -0.1882 -0.0471  0.0958
  221MOL0     C29049   3.830  11.194   7.893 -0.2120 -0.1409 -1.0130
  221MOL0     C29050   3.721  11.166   7.997  0.6465 -0.4313  0.6299
  221MOL0     C29051   3.598  11.253   7.976 -0.4918 -0.2375 -0.7632
  221MOL0     C29052   3.518  11.199   7.858 -0.1355 -0.4431 -1.2781
  221MOL0     C29053   3.394  11.279   7.830 -0.3927  0.7364 -1.0088
  221MOL0     C29054   3.280  11.241   7.919  0.6974  0.2702  0.2380
  221MOL0     C29055   3.167  11.341   7.896  0.4217 -0.8841  0.0200
  221MOL0     C29056   3.061  11.327   8.007 -0.2192  0.5237  0.6727
  221MOL0     N29057   2.950  11.416   7.975 -0.2474 -0.0066 -0.2503
  221MOL0     C29058   2.873  11.401   7.868 -0.3808 -0.3928  0.3229
  221MOL0     C29059   2.800  11.517   7.856  1.2789  0.2660 -1.0298
  221MOL0     C29060   2.702  11.566   7.756 -0.6249  0.6645 -0.0044
  221MOL0     C29061   2.764  11.560   7.620  0.7851 -1.1486  1.6081
  221MOL0     C29062   2.678  11.629   7.513  0.3497  0.5397 -0.0832
  221MOL0     C29063   2.536  11.571   7.510 -0.4131  0.1387  0.0344
  221MOL0     O29064   2.534  11.425   7.489 -0.1980  0.9575 -0.2669
  221MOL0     C29065   2.420  11.354   7.457  0.9233 -0.1788  0.9265
  221MOL0     C29066   2.284  11.401   7.454 -0.2325 -0.1607  0.1048
  221MOL0     C29067   2.179  11.314   7.431 -0.5792 -0.1565 -0.3896
  221MOL0     C29068   2.195  11.175   7.398  0.3577  0.0968 -0.0940
  221MOL0     C29069   2.081  11.086   7.355 -0.0772  0.0655  0.7962
  221MOL0     O29070   2.109  10.955   7.320 -0.4375 -0.5284 -0.5945
  221MOL0     C29071   2.012  10.859   7.301  0.4481 -0.5893  0.9536
  221MOL0     C29072   2.028  10.759   7.207 -0.2987  0.6326  0.6727
  221MOL0     C29073   1.930  10.658   7.182  0.4987  0.3784  0.3462
  221MOL0     C29074   1.804  10.674   7.244  0.4139 -0.7274  0.7203
  221MOL0     O29075   1.697  10.598   7.210  0.0839  0.1550  0.6262
  221MOL0     C29076   1.694  10.459   7.240  0.1992  0.0106 -0.1772
  221MOL0     C29077   1.629  10.372   7.134 -0.4243  0.5798  0.4888
  221MOL0     C29078   1.598  10.230   7.188  0.6968 -0.0487  1.3991
  221MOL0     C29079   1.554  10.135   7.068 -0.0667  0.4760 -0.0339
  221MOL0     C29080   1.492  10.003   7.125  0.1330  0.0203 -0.1283
  221MOL0     C29081   1.476   9.905   7.015  0.0617  0.1919  0.4094
  221MOL0     C29082   1.440   9.766   7.054  0.0788  0.6433  0.2457
  221MOL0     C29083   1.543   9.665   6.996  0.5301  0.0335 -0.0908
  221MOL0    Cl29084   1.725   9.679   7.030  0.0377  0.6149 -0.6451
  221MOL0     C29085   1.799  10.762   7.356  0.8707  1.0570  0.1519
  221MOL0     C29086   1.900  10.849   7.381 -0.1461 -0.2569 -0.2030
  221MOL0     O29087   1.973  11.139   7.360 -0.2181  0.3232 -0.8299
  221MOL0     C29088   2.328  11.142   7.368  0.4670 -0.5941 -0.0781
  221MOL0     C29089   2.438  11.228   7.398  0.0724 -0.6143  0.5641
  221MOL0     N29090   2.832  11.599   7.964 -0.5247 -0.1718 -0.1116
  221MOL0     N29091   2.921  11.537   8.036  0.1080 -1.1309 -0.4525
  221MOL0     C29092   4.114  11.234   7.795 -0.0753  0.0281  0.2971
  221MOL0     C29093   4.246  11.240   7.744  1.1315  0.2653 -0.4287
  221MOL0     C29094   4.708  11.099   7.775 -1.1118  0.2697  0.0979
  221MOL0     C29095   4.753  11.108   7.642  0.2990 -0.6935  0.3789
  221MOL0     C29096   4.885  11.106   7.597 -0.6248 -1.1991 -0.4096
  221MOL0     C29097   4.994  11.102   7.690  0.6707  0.1474  0.0827
  221MOL0     O29098   5.119  11.114   7.637 -0.4295 -0.2818 -0.5714
  221MOL0     C29099   5.227  11.141   7.728 -0.7471  0.2444 -0.0191
  221MOL0     C29100   5.346  11.209   7.664 -0.7322  0.1807  0.0619
  221MOL0     C29101   5.411  11.117   7.554 -0.7025 -1.2267 -0.1848
  221MOL0     C29102   5.527  11.183   7.481  1.3704 -0.1644 -0.3305
  221MOL0     C29103   5.574  11.087   7.378  0.2896  0.2355  0.1451
  221MOL0     C29104   5.618  11.012   7.293 -0.6044 -0.8191 -0.2284
  221MOL0     C29105   4.954  11.094   7.827 -0.2710 -0.0301  0.3688
  221MOL0     C29106   4.815  11.096   7.869  0.4035 -0.1050  0.4620
  221MOL0     H29107   4.340  10.910   7.778 -0.9769  0.0330  0.2145
  221MOL0     H29108   4.113  10.903   7.880  1.2409 -0.5688 -0.4887
  221MOL0     H29109   3.791  11.190   7.791  0.8090  1.3172 -1.4708
  221MOL0     H29110   3.861  11.296   7.917  1.3830 -0.8132 -0.0090
  221MOL0     H29111   3.753  11.174   8.101  2.1331 -2.8497  0.4256
  221MOL0     H29112   3.683  11.064   7.996 -1.5015  0.3038 -0.4472
  221MOL0     H29113   3.623  11.358   7.961  0.4553  0.0924  2.3355
  221MOL0     H29114   3.547  11.256   8.073  3.0831 -2.5365  1.4527
  221MOL0     H29115   3.582  11.206   7.770  3.2009  0.3935  1.0344
  221MOL0     H29116   3.494  11.095   7.879  1.4245 -0.7443 -0.9139
  221MOL0     H29117   3.360  11.265   7.727 -0.7249 -0.6362 -0.7315
  221MOL0     H29118   3.415  11.385   7.842 -0.9622  0.6055  1.9988
  221MOL0     H29119   3.303  11.235   8.026  0.2257 -1.4869  0.2850
  221MOL0     H29120   3.245  11.142   7.887  1.1309  0.4665 -0.8850
  221MOL0     H29121   3.209  11.441   7.904  0.3682 -0.5070 -3.1685
  221MOL0     H29122   3.121  11.349   7.797 -1.0061 -0.2720  0.6962
  221MOL0     H29123   3.117  11.353   8.098 -1.4673 -1.0940  1.9518
  221MOL0     H29124   3.023  11.225   8.003  0.3444  0.2957  1.0006
  221MOL0     H29125   2.870  11.317   7.799 -2.8657  1.9018 -2.6346
  221MOL0     H29126   2.677  11.670   7.778 -0.0331  0.1430  3.7129
  221MOL0     H29127   2.617  11.498   7.759 -1.6259  1.7599 -1.6151
  221MOL0     H29128   2.771  11.456   7.587 -2.4997 -1.0749  0.2461
  221MOL0     H29129   2.865  11.600   7.625  0.4756 -0.0379 -0.2541
  221MOL0     H29130   2.671  11.737   7.527  0.5031  0.5467 -0.0640
  221MOL0     H29131   2.729  11.617   7.417  0.8515  1.0122  0.1204
  221MOL0     H29132   2.473  11.626   7.439 -1.1104  0.4609  0.8799
  221MOL0     H29133   2.489  11.589   7.607  1.8486 -1.4582  1.5333
  221MOL0     H29134   2.256  11.505   7.468  0.2179  0.0349 -0.4285
  221MOL0     H29135   2.080  11.357   7.445  0.7094  2.7207  0.6881
  221MOL0     H29136   2.129  10.753   7.170 -1.2252  1.0637 -2.1683
  221MOL0     H29137   1.960  10.584   7.108  3.7359  1.3823  0.4979
  221MOL0     H29138   1.630  10.451   7.329  1.9288  1.4861  1.3133
  221MOL0     H29139   1.794  10.422   7.264 -0.9190 -3.9654 -0.9945
  221MOL0     H29140   1.701  10.363   7.051  0.9902 -2.3233  1.8789
  221MOL0     H29141   1.533  10.409   7.097 -1.6889 -0.9217  2.1237
  221MOL0     H29142   1.515  10.247   7.258  0.3471 -0.3048  1.0499
  221MOL0     H29143   1.684  10.185   7.238  1.0372  0.1427  0.9935
  221MOL0     H29144   1.486  10.181   6.996  1.6609 -0.6668 -2.5419
  221MOL0     H29145   1.642  10.109   7.008 -0.4596  0.7224 -0.7201
  221MOL0     H29146   1.392  10.030   7.161 -0.8728  4.0503 -4.8852
  221MOL0     H29147   1.554   9.964   7.206  0.4536  0.0405 -0.3637
  221MOL0     H29148   1.577   9.901   6.975  0.6626 -3.3129  1.9137
  221MOL0     H29149   1.406   9.941   6.938 -4.9191 -2.1470  3.3299
  221MOL0     H29150   1.449   9.765   7.163 -1.1071 -0.7291  0.3575
  221MOL0     H29151   1.338   9.743   7.022  1.2865 -1.1612 -2.7504
  221MOL0     H29152   1.532   9.649   6.888  2.1979 -0.4554 -0.2298
  221MOL0     H29153   1.520   9.568   7.042  0.2727  0.2808  0.2981
  221MOL0     H29154   1.710  10.789   7.412 -0.3249 -1.7045 -0.2363
  221MOL0     H29155   1.873  10.923   7.456 -2.1337 -2.2834  1.1925
  221MOL0     H29156   2.359  11.041   7.341  0.8053  0.0035 -2.0285
  221MOL0     H29157   2.539  11.191   7.380  0.7269 -0.0599  2.7427
  221MOL0     H29158   4.057  11.326   7.794  3.0361  2.1140 -0.1708
  221MOL0     H29159   4.279  11.340   7.718 -2.2393  0.8034 -3.4498
  221MOL0     H29160   4.681  11.107   7.561  0.6535 -1.6069  0.0641
  221MOL0     H29161   4.917  11.118   7.494 -0.5905 -1.0684 -0.3842
  221MOL0     H29162   5.252  11.047   7.780 -1.5364 -0.3475 -0.6744
  221MOL0     H29163   5.203  11.215   7.805  0.1967 -0.2487  0.7766
  221MOL0     H29164   5.306  11.297   7.613 -3.7433  1.0793  3.5226
  221MOL0     H29165   5.423  11.234   7.737  1.1530 -1.9048 -1.1084
  221MOL0     H29166   5.338  11.084   7.480 -1.2600 -1.0178  0.2627
  221MOL0     H29167   5.447  11.026   7.603  1.6087 -0.1083  0.3135
  221MOL0     H29168   5.502  11.280   7.437 -0.5782 -1.2104 -1.6956
  221MOL0     H29169   5.607  11.203   7.553  2.0943 -2.9038 -0.2489
  221MOL0     H29170   5.663  10.938   7.231 -1.6833 -1.1945 -0.5842
  221MOL0     H29171   5.034  11.065   7.894 -0.0635 -0.1718  0.0622
  221MOL0     H29172   4.795  11.085   7.975 -0.1192  1.4379  0.5438
  222MOL0     O29173   3.645   5.167   3.899  0.2522 -0.2857  0.5364
  222MOL0     C29174   3.722   5.075   3.897  0.0366  0.6322 -1.1338
  222MOL0     O29175   3.715   4.968   3.994 -0.7122  0.4213  0.1184
  222MOL0     C29176   3.679   4.998   4.122 -0.0850  0.2447  0.2760
  222MOL0     C29177   3.550   5.040   4.161  0.4286  0.7545 -0.5984
  222MOL0     C29178   3.519   5.067   4.295 -0.2041 -0.4338  0.4972
  222MOL0     C29179   3.610   5.043   4.399 -0.2710 -0.0092 -0.7806
  222MOL0     O29180   3.591   5.058   4.531 -0.0827 -0.7385  1.0893
  222MOL0     C29181   3.466   4.998   4.582  0.4967  0.8261  0.2405
  222MOL0     C29182   3.451   4.843   4.556  0.1520  0.1595 -0.8898
  222MOL0     C29183   3.328   4.767   4.615  0.0303  0.1177  0.4039
  222MOL0     C29184   3.199   4.848   4.617  0.9142 -0.2506 -0.5480
  222MOL0     C29185   3.078   4.766   4.671  0.3148 -0.0341 -0.6697
  222MOL0     C29186   2.956   4.841   4.741  0.0205 -0.6821  1.1251
  222MOL0     C29187   2.854   4.752   4.812  0.2474 -0.2878 -0.5172
  222MOL0     C29188   2.717   4.828   4.855  0.8955  0.9126  0.0882
  222MOL0     N29189   2.634   4.735   4.931 -0.6947  0.9666 -0.2695
  222MOL0     C29190   2.520   4.674   4.885 -0.4223  0.3469  0.1018
  222MOL0     C29191   2.454   4.630   4.991  0.4436 -0.2331 -1.3253
  222MOL0     C29192   2.336   4.539   4.981  0.2504  0.1574  0.1784
  222MOL0     C29193   2.266   4.531   5.121 -0.5745 -0.3059  0.7555
  222MOL0     C29194   2.186   4.405   5.136 -0.8955 -0.6645  0.3706
  222MOL0     C29195   2.195   4.332   5.272 -0.7067  0.5754  0.1635
  222MOL0     O29196   2.127   4.208   5.261  0.3588  0.0207  0.2210
  222MOL0     C29197   1.989   4.207   5.286  0.1547 -0.2680  1.6262
  222MOL0     C29198   1.937   4.071   5.297  0.3126  0.1983  0.0843
  222MOL0     C29199   1.805   4.053   5.306 -0.1182 -0.0470  0.0263
  222MOL0     C29200   1.714   4.165   5.304  0.0450  0.6209 -0.0296
  222MOL0     C29201   1.569   4.147   5.330 -0.0986 -0.0182 -0.2018
  222MOL0     O29202   1.523   4.059   5.417 -0.1709  0.2166  0.4130
  222MOL0     C29203   1.389   4.043   5.463 -0.3986  0.3309 -0.3816
  222MOL0     C29204   1.375   4.023   5.605  0.1439 -0.3691  0.2284
  222MOL0     C29205   1.248   4.007   5.659 -0.1413  0.1365  0.0263
  222MOL0     C29206   1.133   4.022   5.582  0.4673  0.4114 -1.0498
  222MOL0     O29207   1.021   4.032   5.662 -0.1953  0.3974 -0.4199
  222MOL0     C29208   0.895   3.998   5.602  0.1496  0.4285 -0.2414
  222MOL0     C29209   0.792   3.961   5.714  0.2619 -0.2236  0.0294
  222MOL0     C29210   0.705   3.853   5.653  0.7094  0.4985 -0.4709
  222MOL0     C29211   0.587   3.815   5.738  0.7287  0.3300  0.8829
  222MOL0     C29212   0.495   3.702   5.675 -0.1013 -0.8154 -0.4204
  222MOL0     C29213   0.444   3.699   5.534 -0.0403  0.4024 -0.0865
  222MOL0     C29214   0.366   3.570   5.513 -0.7345 -0.2535  0.5758
  222MOL0     C29215   0.291   3.586   5.379  0.2704  0.0181 -0.7432
  222MOL0    Cl29216   0.161   3.453   5.389 -0.1269  0.1664  0.4514
  222MOL0     C29217   1.141   4.028   5.444 -0.2745 -0.3908 -0.1061
  222MOL0     C29218   1.271   4.043   5.382 -0.4927  0.0663 -0.4125
  222MOL0     O29219   1.496   4.219   5.268 -0.5809 -0.3374 -0.6903
  222MOL0     C29220   1.766   4.286   5.284  0.5176 -0.1372 -0.7726
  222MOL0     C29221   1.904   4.321   5.281 -1.2853  0.0877  0.1296
  222MOL0     N29222   2.528   4.666   5.109  0.3038 -0.0554 -0.3295
  222MOL0     N29223   2.633   4.734   5.067 -0.3015  0.2506  0.2194
  222MOL0     C29224   3.729   4.983   4.368  0.0052 -0.2975  0.5064
  222MOL0     C29225   3.760   4.961   4.229  0.3431 -0.3631  0.6125
  222MOL0     C29226   3.825   5.088   3.797  0.1893  0.7551 -0.2800
  222MOL0     C29227   3.947   5.022   3.811  1.1379 -0.1293  0.2982
  222MOL0     C29228   4.051   5.054   3.726  0.4573 -0.0070 -0.4937
  222MOL0     C29229   4.034   5.146   3.617  0.5527 -0.9525 -0.0651
  222MOL0     O29230   4.126   5.163   3.522 -0.1061  0.1530  0.0746
  222MOL0     C29231   4.114   5.263   3.421  0.3902 -0.6995  1.1131
  222MOL0     C29232   4.237   5.280   3.341 -0.3132 -0.3213  0.3003
  222MOL0     C29233   4.256   5.152   3.254  0.4450 -0.6181  0.5006
  222MOL0     C29234   4.391   5.140   3.186  0.2574  0.0107 -0.3736
  222MOL0     C29235   4.444   5.265   3.134 -0.4581 -0.0562  0.0201
  222MOL0     C29236   4.496   5.359   3.077 -1.1187  0.0671  0.0342
  222MOL0     C29237   3.905   5.210   3.599 -0.1048 -0.2006  0.3788
  222MOL0     C29238   3.803   5.177   3.686  0.6052  0.3686  0.6002
  222MOL0     H29239   3.478   5.071   4.087 -0.2699  0.4944 -0.0397
  222MOL0     H29240   3.425   5.105   4.336  0.9376 -1.5109  4.5690
  222MOL0     H29241   3.377   5.043   4.535 -0.9010 -1.2051  0.8296
  222MOL0     H29242   3.466   5.015   4.690  1.6866 -2.3317  0.8232
  222MOL0     H29243   3.541   4.791   4.591  0.6412  1.8021  0.4479
  222MOL0     H29244   3.445   4.827   4.448  0.0071  0.3848 -0.9161
  222MOL0     H29245   3.363   4.739   4.715 -1.3196 -0.2152  0.8081
  222MOL0     H29246   3.312   4.677   4.554  1.2739  2.1825 -3.2508
  222MOL0     H29247   3.202   4.940   4.676  1.5713 -0.0946 -0.8081
  222MOL0     H29248   3.171   4.875   4.514 -4.6726 -1.2671  0.3789
  222MOL0     H29249   3.110   4.705   4.756 -1.8302  1.0393  1.0098
  222MOL0     H29250   3.043   4.691   4.598  2.7878 -0.4939 -1.4755
  222MOL0     H29251   2.906   4.888   4.655  1.5212  1.0749  1.1439
  222MOL0     H29252   2.991   4.912   4.817  0.6348 -1.4850  1.6074
  222MOL0     H29253   2.833   4.668   4.745  5.1052 -1.3302 -1.1373
  222MOL0     H29254   2.905   4.703   4.895 -1.5673 -4.6540 -1.7353
  222MOL0     H29255   2.662   4.873   4.772  0.8863  1.8297  0.5824
  222MOL0     H29256   2.742   4.907   4.926  1.0084 -0.1309  1.2469
  222MOL0     H29257   2.498   4.663   4.779  0.0066  0.3879  0.0026
  222MOL0     H29258   2.364   4.439   4.949  1.2413  1.7573 -4.8189
  222MOL0     H29259   2.271   4.575   4.901 -1.1795  1.4836  1.8484
  222MOL0     H29260   2.192   4.611   5.135 -1.1298 -0.1694 -2.3471
  222MOL0     H29261   2.344   4.522   5.197 -0.1542  0.6730  0.4573
  222MOL0     H29262   2.082   4.440   5.127 -0.2872  1.0983 -0.2828
  222MOL0     H29263   2.208   4.331   5.059 -0.7730  0.7528 -1.0119
  222MOL0     H29264   2.141   4.401   5.337 -2.0136  1.3652 -1.6502
  222MOL0     H29265   2.299   4.320   5.303 -0.2090  1.6930 -0.9740
  222MOL0     H29266   1.999   3.983   5.280  1.1343  0.5368  1.1819
  222MOL0     H29267   1.763   3.955   5.324  0.4252  0.2308  3.5211
  222MOL0     H29268   1.459   4.017   5.674 -0.1240  1.2080  0.7288
  222MOL0     H29269   1.226   3.986   5.763  1.1557 -1.3340  0.0409
  222MOL0     H29270   0.901   3.918   5.528 -3.3015  0.6140 -0.8853
  222MOL0     H29271   0.860   4.082   5.542 -0.7732  1.2487  1.3838
  222MOL0     H29272   0.731   4.050   5.732 -1.2902 -0.5676 -2.9636
  222MOL0     H29273   0.840   3.936   5.809 -0.1293 -0.5336  0.1458
  222MOL0     H29274   0.761   3.759   5.638 -1.7704 -1.2325  0.4230
  222MOL0     H29275   0.673   3.888   5.555 -2.0681 -2.0022 -0.5943
  222MOL0     H29276   0.615   3.793   5.841  0.8806  2.0071  1.2254
  222MOL0     H29277   0.534   3.910   5.736  2.4378  1.3364 -0.5814
  222MOL0     H29278   0.407   3.690   5.739  0.3106  0.7502  0.5174
  222MOL0     H29279   0.547   3.606   5.675 -0.9481 -1.3094  0.9943
  222MOL0     H29280   0.526   3.718   5.464 -0.0627  0.7295 -0.0256
  222MOL0     H29281   0.369   3.778   5.535  0.8333  1.2411  0.0664
  222MOL0     H29282   0.430   3.483   5.498  1.4979  1.7593 -2.7254
  222MOL0     H29283   0.300   3.550   5.599  0.7550  0.8795  2.0531
  222MOL0     H29284   0.351   3.575   5.289 -1.6748  1.0346 -2.2303
  222MOL0     H29285   0.245   3.685   5.377  0.2333  0.0877  1.1062
  222MOL0     H29286   1.050   4.033   5.385 -1.3910  2.8595  1.6512
  222MOL0     H29287   1.267   4.072   5.277 -3.7031  1.2870 -0.0884
  222MOL0     H29288   1.693   4.366   5.286 -0.9961 -1.4601  0.9178
  222MOL0     H29289   1.937   4.424   5.274  1.6950 -0.7819 -0.0082
  222MOL0     H29290   3.783   4.932   4.447  1.9904  0.5530 -0.2189
  222MOL0     H29291   3.862   4.927   4.215  1.1247  2.0558 -0.1503
  222MOL0     H29292   3.958   4.941   3.882 -0.1670 -0.4529  0.1733
  222MOL0     H29293   4.148   5.006   3.737  0.4412  0.5069  2.7732
  222MOL0     H29294   4.088   5.362   3.461 -0.8808 -0.3329 -0.5004
  222MOL0     H29295   4.033   5.229   3.356  0.8047 -2.9777  1.6970
  222MOL0     H29296   4.228   5.367   3.275  1.2605 -0.0159  0.4670
  222MOL0     H29297   4.316   5.283   3.416 -2.9634  1.4655  3.3016
  222MOL0     H29298   4.181   5.162   3.176 -2.2407 -2.2951  2.6939
  222MOL0     H29299   4.228   5.066   3.316 -2.2231 -1.7022 -2.0001
  222MOL0     H29300   4.459   5.093   3.258 -1.1018 -0.1507  0.8459
  222MOL0     H29301   4.376   5.064   3.109 -0.3253  0.9943 -1.2485
  222MOL0     H29302   4.543   5.441   3.026 -0.8231 -0.0659  0.0890
  222MOL0     H29303   3.886   5.290   3.528 -0.0751 -0.6494 -0.1407
  222MOL0     H29304   3.707   5.228   3.677  0.0122 -0.4769  1.7381
  223MOL0     O29305   5.308   5.299   7.722 -0.1385  0.4997  0.1307
  223MOL0     C29306   5.334   5.305   7.607  0.2014 -0.2106  0.5000
  223MOL0     O29307   5.244   5.284   7.507  0.1186  0.3190  0.6039
  223MOL0     C29308   5.114   5.268   7.533 -0.6383  0.6341 -0.5670
  223MOL0     C29309   5.045   5.172   7.608  0.5947 -0.7447 -0.9660
  223MOL0     C29310   4.903   5.172   7.606 -0.8909  0.5374  0.5522
  223MOL0     C29311   4.827   5.265   7.525 -0.3316 -0.2543  0.2525
  223MOL0     O29312   4.694   5.274   7.508 -0.7326  0.6346  0.2987
  223MOL0     C29313   4.618   5.150   7.547  0.0010 -0.9526  0.3620
  223MOL0     C29314   4.463   5.190   7.540 -0.4938  0.5685 -0.3688
  223MOL0     C29315   4.390   5.109   7.648  1.6907 -0.2697 -0.0165
  223MOL0     C29316   4.245   5.165   7.673  0.0339  0.3767  0.2351
  223MOL0     C29317   4.161   5.189   7.542 -0.6452 -0.0489 -0.2735
  223MOL0     C29318   4.019   5.246   7.568  0.2738 -0.3110  0.5480
  223MOL0     C29319   3.949   5.270   7.436 -0.2668 -0.5051  0.4574
  223MOL0     C29320   3.794   5.274   7.480  1.0168  0.0647  0.6900
  223MOL0     N29321   3.712   5.333   7.370 -0.7930  0.5314 -0.9817
  223MOL0     C29322   3.651   5.267   7.267  0.3162  0.1294  0.4623
  223MOL0     C29323   3.567   5.360   7.211 -0.0205 -0.1364  0.6303
  223MOL0     C29324   3.464   5.340   7.104 -0.3597 -0.9728  0.2420
  223MOL0     C29325   3.312   5.356   7.148 -0.0193 -0.0187 -0.2753
  223MOL0     C29326   3.271   5.223   7.215  0.5348 -0.0883  0.3163
  223MOL0     C29327   3.123   5.235   7.264  0.3593 -0.9433 -0.1941
  223MOL0     O29328   3.068   5.109   7.290  0.5836  0.7237 -0.0866
  223MOL0     C29329   2.940   5.101   7.339  0.6451  0.3060 -0.0525
  223MOL0     C29330   2.854   5.211   7.375 -0.2591  0.4827  0.3313
  223MOL0     C29331   2.728   5.192   7.429  0.3646 -0.2740 -0.4587
  223MOL0     C29332   2.675   5.067   7.466 -0.2136  0.0426  0.0829
  223MOL0     C29333   2.552   5.059   7.552 -0.9474 -1.0179  0.3139
  223MOL0     O29334   2.491   5.177   7.567  0.1259 -0.2820  0.5482
  223MOL0     C29335   2.367   5.175   7.629  0.0370 -0.9541  0.4725
  223MOL0     C29336   2.259   5.178   7.546  0.6091 -0.5189 -0.6507
  223MOL0     C29337   2.132   5.178   7.596  0.1394 -0.1155  0.5815
  223MOL0     C29338   2.117   5.162   7.734 -0.0933 -0.1983  0.2267
  223MOL0     O29339   1.989   5.151   7.790  0.3334 -0.3389  0.2533
  223MOL0     C29340   1.895   5.241   7.741 -0.2746 -0.0635  0.2049
  223MOL0     C29341   1.779   5.263   7.835  0.1487  0.4455 -0.9120
  223MOL0     C29342   1.657   5.335   7.768 -1.1389 -0.7428  0.4657
  223MOL0     C29343   1.564   5.392   7.875  0.5689 -0.3139 -0.3102
  223MOL0     C29344   1.456   5.486   7.815  0.2518  0.5127 -0.3043
  223MOL0     C29345   1.346   5.509   7.911 -0.4098  0.1011  0.3308
  223MOL0     C29346   1.254   5.617   7.857 -0.1000 -0.7067  0.0437
  223MOL0     C29347   1.173   5.698   7.960  0.6927  0.0561  0.2294
  223MOL0    Cl29348   1.295   5.799   8.049 -0.5196 -0.3878  0.4513
  223MOL0     C29349   2.226   5.144   7.822 -0.1013  0.2519  0.5746
  223MOL0     C29350   2.356   5.153   7.765 -1.0064  0.2196 -0.5545
  223MOL0     O29351   2.514   4.950   7.593 -0.5960  0.6378 -0.1319
  223MOL0     C29352   2.769   4.956   7.449  0.6968 -1.0639 -0.5840
  223MOL0     C29353   2.888   4.971   7.378 -1.2920 -0.1990  0.0523
  223MOL0     N29354   3.587   5.480   7.275 -0.5479 -0.1051  0.0647
  223MOL0     N29355   3.664   5.459   7.378 -0.0585  0.0231  0.5391
  223MOL0     C29356   4.901   5.354   7.445  0.0508 -0.5643 -0.0684
  223MOL0     C29357   5.042   5.352   7.457  0.2831 -0.4893 -0.0530
  223MOL0     C29358   5.481   5.292   7.568  0.1740  0.0098 -0.3210
  223MOL0     C29359   5.518   5.311   7.436  0.5128 -0.2541  0.0153
  223MOL0     C29360   5.654   5.320   7.390  0.0418 -0.4256  0.2890
  223MOL0     C29361   5.751   5.292   7.488 -0.5081  0.2780 -0.2515
  223MOL0     O29362   5.883   5.319   7.452  0.1440 -1.2319 -0.7951
  223MOL0     C29363   5.903   5.439   7.376  0.3442  0.1167  0.0865
  223MOL0     C29364   6.054   5.473   7.382 -0.1575 -1.1291  0.7906
  223MOL0     C29365   6.158   5.417   7.290 -0.0250 -0.3179 -0.0026
  223MOL0     C29366   6.150   5.272   7.283 -0.1924 -0.0256  1.2052
  223MOL0     C29367   6.227   5.204   7.171 -0.4675  0.1888 -0.2566
  223MOL0     C29368   6.285   5.152   7.076  0.4672  0.9465 -0.2993
  223MOL0     C29369   5.714   5.263   7.621 -0.1282  0.3309  0.3125
  223MOL0     C29370   5.580   5.281   7.664 -0.9894 -0.4612  0.2423
  223MOL0     H29371   5.110   5.103   7.662 -0.7382 -1.2719  0.0077
  223MOL0     H29372   4.857   5.090   7.661  0.5250  1.0608  2.6269
  223MOL0     H29373   4.639   5.109   7.646 -2.3565 -2.9862  0.1048
  223MOL0     H29374   4.630   5.071   7.472  1.7312  0.0147 -0.4365
  223MOL0     H29375   4.431   5.160   7.440 -1.7453 -1.3606  0.5563
  223MOL0     H29376   4.454   5.297   7.561 -0.3890  0.0800  2.6304
  223MOL0     H29377   4.432   5.126   7.747  0.0863  3.0503  0.2274
  223MOL0     H29378   4.379   5.003   7.623 -4.5852  0.2856 -1.4295
  223MOL0     H29379   4.197   5.092   7.739  2.0222 -2.9200 -1.6855
  223MOL0     H29380   4.253   5.262   7.724 -2.2922 -0.0701  1.5801
  223MOL0     H29381   4.157   5.097   7.482  3.3338 -0.0307 -0.8206
  223MOL0     H29382   4.211   5.262   7.479 -4.5504  0.6835 -2.9038
  223MOL0     H29383   4.014   5.344   7.615 -2.1607 -0.3322  0.4232
  223MOL0     H29384   3.970   5.185   7.645  1.4028 -0.0280  1.5320
  223MOL0     H29385   3.986   5.364   7.394 -1.0869  0.5478  2.0002
  223MOL0     H29386   3.960   5.185   7.367 -1.7232  0.3033 -0.8338
  223MOL0     H29387   3.787   5.331   7.573  2.0444 -1.2990  1.6589
  223MOL0     H29388   3.751   5.174   7.490 -1.2572  0.4506 -3.3462
  223MOL0     H29389   3.662   5.165   7.232  1.3087 -0.4395  2.2979
  223MOL0     H29390   3.483   5.246   7.052 -2.2030 -2.9608  2.8847
  223MOL0     H29391   3.477   5.418   7.028 -1.8826  0.6580  1.5770
  223MOL0     H29392   3.253   5.378   7.058  4.6394  1.0908 -3.4330
  223MOL0     H29393   3.294   5.439   7.217  0.8904 -1.0887  1.3014
  223MOL0     H29394   3.280   5.146   7.138  2.5545  0.1810  0.2076
  223MOL0     H29395   3.329   5.184   7.299 -0.7760  0.1650  1.3663
  223MOL0     H29396   3.076   5.288   7.181  4.7643  1.0500 -1.7278
  223MOL0     H29397   3.105   5.295   7.354 -2.0310 -0.0435 -1.2045
  223MOL0     H29398   2.882   5.313   7.348 -0.7086  0.1506 -1.5170
  223MOL0     H29399   2.660   5.274   7.448 -0.1629 -1.1410  1.6885
  223MOL0     H29400   2.272   5.205   7.442 -1.0923  1.2980 -0.4623
  223MOL0     H29401   2.044   5.178   7.532 -0.3995 -1.1508  1.3018
  223MOL0     H29402   1.855   5.202   7.647  0.5218  0.9975 -0.6055
  223MOL0     H29403   1.945   5.338   7.731  1.0033 -0.5394  1.4968
  223MOL0     H29404   1.801   5.309   7.932 -0.2092 -1.5792  0.1693
  223MOL0     H29405   1.744   5.162   7.858  0.3584 -0.1556 -3.0880
  223MOL0     H29406   1.598   5.265   7.708 -0.1665 -2.3116  1.2624
  223MOL0     H29407   1.697   5.417   7.708  0.7410  1.4825  4.3872
  223MOL0     H29408   1.517   5.304   7.919  0.8054 -0.3623 -0.1527
  223MOL0     H29409   1.616   5.448   7.953  0.9897  0.3983 -1.0784
  223MOL0     H29410   1.409   5.448   7.724 -2.9129  2.0262  0.5740
  223MOL0     H29411   1.499   5.583   7.791 -0.1229  1.1136  1.3131
  223MOL0     H29412   1.382   5.542   8.009  0.4122 -1.9615  0.7756
  223MOL0     H29413   1.294   5.418   7.942 -1.6305  0.0050 -1.7995
  223MOL0     H29414   1.313   5.694   7.808 -0.0465 -0.3187  0.7061
  223MOL0     H29415   1.181   5.583   7.782 -1.3952  2.2628 -0.1738
  223MOL0     H29416   1.119   5.641   8.037  2.6476  0.5878  2.0856
  223MOL0     H29417   1.105   5.763   7.904  0.6929 -0.8188 -0.8249
  223MOL0     H29418   2.216   5.125   7.929  0.1477 -1.8472  0.2523
  223MOL0     H29419   2.437   5.153   7.837 -1.0691 -0.4269 -0.4835
  223MOL0     H29420   2.755   4.853   7.479  2.5071 -1.9624 -2.5781
  223MOL0     H29421   2.946   4.880   7.371  1.4033  1.4597 -0.8037
  223MOL0     H29422   4.844   5.417   7.378 -1.7967 -0.7597  1.2415
  223MOL0     H29423   5.099   5.419   7.393 -0.4041 -0.2982 -0.4799
  223MOL0     H29424   5.434   5.344   7.376 -0.8504 -2.8606  0.3936
  223MOL0     H29425   5.657   5.323   7.282 -5.7446 -0.9170 -0.1825
  223MOL0     H29426   5.839   5.521   7.410  1.3956  0.5371  1.1379
  223MOL0     H29427   5.870   5.426   7.273  3.5580  1.6333 -1.2954
  223MOL0     H29428   6.057   5.582   7.386 -3.1163 -0.9327  0.1486
  223MOL0     H29429   6.090   5.441   7.480  0.0544  2.7774  2.1474
  223MOL0     H29430   6.254   5.452   7.330 -0.2529 -2.5176  2.7310
  223MOL0     H29431   6.149   5.458   7.189  0.2700 -2.0478 -0.7676
  223MOL0     H29432   6.195   5.238   7.377 -2.3646 -0.4189  2.1841
  223MOL0     H29433   6.047   5.235   7.273 -0.4020  1.1565 -3.0217
  223MOL0     H29434   6.331   5.095   6.998  1.5881 -1.5919  2.0876
  223MOL0     H29435   5.785   5.246   7.701 -0.1784  1.2521  0.5646
  223MOL0     H29436   5.565   5.279   7.771 -0.5673 -2.3669  0.3140
  224MOL0     O29437   8.028   3.852   0.513 -0.2558  0.1113 -0.0207
  224MOL0     C29438   7.927   3.823   0.446 -0.7008 -0.7963 -0.4876
  224MOL0     O29439   7.912   3.851   0.313  0.1272 -0.1581  0.2151
  224MOL0     C29440   8.002   3.923   0.245 -0.5432 -0.0105 -0.5989
  224MOL0     C29441   8.139   3.885   0.243 -0.0938 -0.5354 -0.7225
  224MOL0     C29442   8.226   3.955   0.154 -0.4491 -0.7908 -0.3911
  224MOL0     C29443   8.177   4.063   0.070  0.1711 -0.1971  0.2719
  224MOL0     O29444   8.270   4.139   0.007 -0.1175 -0.2544  0.2622
  224MOL0     C29445   8.235   4.238  -0.090 -0.1051 -0.0853 -0.3698
  224MOL0     C29446   8.155   4.183  -0.216  0.2544 -0.1773  0.0882
  224MOL0     C29447   8.228   4.101  -0.321 -0.2721  0.5466  0.6358
  224MOL0     C29448   8.319   3.982  -0.264 -0.3969 -0.7921 -0.9825
  224MOL0     C29449   8.421   3.928  -0.365 -0.1075 -0.2590  0.3290
  224MOL0     C29450   8.487   3.803  -0.321 -0.4843 -0.0557 -0.7256
  224MOL0     C29451   8.593   3.725  -0.408  0.5590 -0.5643 -0.3493
  224MOL0     C29452   8.613   3.794  -0.543 -0.0642 -0.3081 -0.4922
  224MOL0     N29453   8.726   3.732  -0.612 -0.0608  0.1188  0.1706
  224MOL0     C29454   8.863   3.730  -0.577  0.1488 -0.6817  0.4856
  224MOL0     C29455   8.924   3.665  -0.674 -0.6977 -0.2118  0.3591
  224MOL0     C29456   9.070   3.632  -0.683  0.2294 -0.7026  0.0860
  224MOL0     C29457   9.145   3.621  -0.554 -1.2091 -0.7070  0.7699
  224MOL0     C29458   9.288   3.566  -0.577 -0.0108 -0.2619 -0.3485
  224MOL0     C29459   9.354   3.536  -0.439 -0.3886 -0.2221  1.0279
  224MOL0     O29460   9.346   3.400  -0.402 -0.1238 -0.8133  0.5887
  224MOL0     C29461   9.245   3.350  -0.326 -0.1375  0.4816 -0.8499
  224MOL0     C29462   9.161   3.429  -0.242 -0.1860  1.1379  0.7942
  224MOL0     C29463   9.053   3.370  -0.174 -0.1402 -0.0515 -0.4651
  224MOL0     C29464   9.044   3.222  -0.171  0.8358 -0.8658 -0.8564
  224MOL0     C29465   8.940   3.157  -0.081 -0.1282 -0.2572 -1.2120
  224MOL0     O29466   8.845   3.234  -0.028 -0.2208  0.3911 -0.1949
  224MOL0     C29467   8.726   3.187   0.036  0.4047 -0.3082  1.1539
  224MOL0     C29468   8.659   3.073  -0.008 -0.2401  0.6213 -0.3674
  224MOL0     C29469   8.538   3.033   0.048  0.4579 -0.8085 -0.0683
  224MOL0     C29470   8.469   3.115   0.134  0.2776  0.3436 -0.2554
  224MOL0     O29471   8.342   3.081   0.182  0.2443  0.2337 -0.3896
  224MOL0     C29472   8.290   2.945   0.159  0.3278 -0.5513  0.3200
  224MOL0     C29473   8.149   2.945   0.219  0.9359 -0.5129 -0.9703
  224MOL0     C29474   8.061   2.829   0.168  0.1262 -0.3128  0.0637
  224MOL0     C29475   7.931   2.838   0.251  0.2901 -0.3989 -0.4871
  224MOL0     C29476   7.812   2.762   0.185 -0.2958  0.5464 -0.7445
  224MOL0     C29477   7.722   2.710   0.301 -0.8963 -0.1875  0.2485
  224MOL0     C29478   7.596   2.663   0.232 -0.2110 -0.3174  0.3490
  224MOL0     C29479   7.464   2.727   0.290 -0.1133  0.3333  0.5590
  224MOL0    Cl29480   7.318   2.672   0.200  0.0046  0.4345  0.1312
  224MOL0     C29481   8.531   3.239   0.172  0.7544 -0.5332 -0.3522
  224MOL0     C29482   8.656   3.272   0.125 -0.6633  0.7217  0.5296
  224MOL0     O29483   8.953   3.031  -0.069 -0.1072  0.1200 -0.3097
  224MOL0     C29484   9.124   3.149  -0.250  0.2469 -0.3301 -0.4127
  224MOL0     C29485   9.220   3.210  -0.325  0.5326  0.5564  0.0153
  224MOL0     N29486   8.824   3.624  -0.763 -0.2647 -0.1359 -0.1037
  224MOL0     N29487   8.709   3.665  -0.723  0.3394  0.2626  0.5679
  224MOL0     C29488   8.042   4.095   0.083  0.7113  0.4477  0.1080
  224MOL0     C29489   7.960   4.023   0.160  1.0935 -0.2064 -0.1105
  224MOL0     C29490   7.811   3.764   0.519  0.4297  1.9854 -0.1455
  224MOL0     C29491   7.682   3.767   0.465 -0.0694 -0.2277 -0.2838
  224MOL0     C29492   7.572   3.742   0.548  0.7328 -0.1147  1.4633
  224MOL0     C29493   7.596   3.703   0.680 -0.5663  0.1941 -0.6162
  224MOL0     O29494   7.500   3.681   0.775 -0.5824 -0.1837 -0.7764
  224MOL0     C29495   7.367   3.713   0.745 -0.4759  0.5833 -0.6815
  224MOL0     C29496   7.276   3.708   0.861  0.3315 -0.3777 -0.2481
  224MOL0     C29497   7.267   3.576   0.940 -0.3269  0.3561  0.8991
  224MOL0     C29498   7.224   3.456   0.851  0.7790  0.7238 -0.8996
  224MOL0     C29499   7.169   3.339   0.921 -0.1154  0.7401  0.0526
  224MOL0     C29500   7.128   3.231   0.963  1.2832  0.9893 -1.0930
  224MOL0     C29501   7.722   3.689   0.733  0.1059 -0.7411  0.2769
  224MOL0     C29502   7.835   3.712   0.654  0.8631  0.2886  0.3255
  224MOL0     H29503   8.177   3.800   0.300 -2.3647 -1.3615 -0.3001
  224MOL0     H29504   8.332   3.931   0.155  0.1954  1.4822  2.8962
  224MOL0     H29505   8.327   4.284  -0.128  0.1677 -0.0399  0.3366
  224MOL0     H29506   8.181   4.320  -0.041  0.9632  0.2886  0.1979
  224MOL0     H29507   8.128   4.274  -0.270 -1.5720 -0.7232  0.0124
  224MOL0     H29508   8.056   4.138  -0.205  0.0139  0.5960  1.3451
  224MOL0     H29509   8.301   4.167  -0.369  2.8607 -1.0213  2.8722
  224MOL0     H29510   8.173   4.054  -0.403  1.0772 -0.1054  0.0753
  224MOL0     H29511   8.356   4.007  -0.164 -2.3909  0.4834 -0.4902
  224MOL0     H29512   8.249   3.901  -0.240 -0.1221 -0.6602  0.3504
  224MOL0     H29513   8.502   4.001  -0.374  1.9586 -2.4214  0.3743
  224MOL0     H29514   8.364   3.915  -0.457  2.4538  2.9913 -1.9856
  224MOL0     H29515   8.408   3.731  -0.297 -1.6852  1.1094 -1.0428
  224MOL0     H29516   8.540   3.822  -0.227 -1.0697 -0.0240 -0.3966
  224MOL0     H29517   8.692   3.732  -0.361  2.2040  0.0686 -3.5919
  224MOL0     H29518   8.569   3.619  -0.422 -1.0925 -0.1784 -0.6955
  224MOL0     H29519   8.622   3.903  -0.535  1.0587 -0.3829 -0.5761
  224MOL0     H29520   8.520   3.776  -0.597 -1.1855 -1.2936  1.6441
  224MOL0     H29521   8.913   3.795  -0.506  3.1901 -0.0189 -2.0669
  224MOL0     H29522   9.116   3.709  -0.746 -1.5647  0.6517  0.3661
  224MOL0     H29523   9.071   3.536  -0.735 -2.4904 -0.2509 -0.9690
  224MOL0     H29524   9.084   3.547  -0.501 -3.5214 -0.3893 -1.2844
  224MOL0     H29525   9.164   3.714  -0.500  0.2877 -1.1728  1.0920
  224MOL0     H29526   9.291   3.477  -0.641  1.6525 -0.1427 -0.4875
  224MOL0     H29527   9.349   3.645  -0.623 -1.2326  0.4227 -0.8428
  224MOL0     H29528   9.341   3.614  -0.363 -0.2034  0.4132  0.4206
  224MOL0     H29529   9.459   3.552  -0.467 -1.1714  0.5069 -1.7015
  224MOL0     H29530   9.172   3.536  -0.255 -0.7507  1.4375  2.4867
  224MOL0     H29531   8.979   3.416  -0.108 -0.4405 -0.8992 -0.1981
  224MOL0     H29532   8.699   3.009  -0.085 -0.9300  1.5819 -1.5794
  224MOL0     H29533   8.492   2.943   0.007  0.8590 -1.2061  0.3485
  224MOL0     H29534   8.354   2.869   0.205  1.3204 -1.6971 -2.7187
  224MOL0     H29535   8.293   2.927   0.051  0.6655 -3.1663  0.7045
  224MOL0     H29536   8.104   3.039   0.186  1.9727  0.7693  1.0564
  224MOL0     H29537   8.153   2.947   0.328  1.1874  0.5366 -0.9842
  224MOL0     H29538   8.114   2.735   0.186  2.6479  0.6361 -1.7994
  224MOL0     H29539   8.048   2.850   0.061  0.6254  0.2918  0.1179
  224MOL0     H29540   7.949   2.799   0.352 -0.4371  1.3440  0.3713
  224MOL0     H29541   7.896   2.942   0.258 -0.2238 -0.5479 -0.8275
  224MOL0     H29542   7.851   2.672   0.137 -1.7874  0.6144 -2.1770
  224MOL0     H29543   7.765   2.834   0.117 -0.3030  0.8495 -0.4223
  224MOL0     H29544   7.700   2.789   0.374 -0.6174  1.0584 -0.9650
  224MOL0     H29545   7.770   2.626   0.352 -0.6771 -0.0004  0.3563
  224MOL0     H29546   7.599   2.677   0.123 -1.2910 -4.8559 -0.4833
  224MOL0     H29547   7.579   2.555   0.237 -3.5218  0.0568 -0.3982
  224MOL0     H29548   7.470   2.836   0.281  0.7616  0.2491  0.0238
  224MOL0     H29549   7.458   2.698   0.396  1.5628 -0.7777  0.3979
  224MOL0     H29550   8.479   3.301   0.245  0.5569 -1.0896 -0.0136
  224MOL0     H29551   8.713   3.363   0.140 -0.2087  0.7730 -1.2329
  224MOL0     H29552   9.121   3.041  -0.242 -1.1349 -0.3135 -0.4440
  224MOL0     H29553   9.287   3.149  -0.384  1.9862 -0.4111  2.5088
  224MOL0     H29554   8.000   4.187   0.042  2.4183  0.4138 -1.9055
  224MOL0     H29555   7.853   4.042   0.158  0.6060 -2.4336 -3.5861
  224MOL0     H29556   7.667   3.801   0.363  0.2119  1.5974  0.2545
  224MOL0     H29557   7.474   3.743   0.501  0.7170  0.2951  1.5036
  224MOL0     H29558   7.322   3.630   0.690 -1.0523 -0.1732  0.8918
  224MOL0     H29559   7.353   3.809   0.694 -2.0243  1.3081  0.9984
  224MOL0     H29560   7.322   3.785   0.924  2.5067  1.4696 -3.7569
  224MOL0     H29561   7.183   3.753   0.826  1.0572 -0.5423 -2.5508
  224MOL0     H29562   7.193   3.588   1.020 -0.3710 -0.9708  1.0755
  224MOL0     H29563   7.366   3.545   0.975  0.3688 -0.0803 -1.2782
  224MOL0     H29564   7.141   3.480   0.783 -0.0544 -2.5432 -1.1947
  224MOL0     H29565   7.315   3.438   0.794  0.2368 -0.8142 -1.3380
  224MOL0     H29566   7.085   3.135   0.984  2.2366  0.9556  0.9686
  224MOL0     H29567   7.730   3.660   0.837  0.8317  1.2011  0.8130
  224MOL0     H29568   7.931   3.716   0.705  1.8248 -2.7061 -1.0592
  225MOL0     O29569   2.851   8.309   2.195 -0.2550  0.1321  0.1813
  225MOL0     C29570   2.924   8.293   2.102  0.2799  0.0189 -0.1271
  225MOL0     O29571   2.915   8.189   2.006 -0.8141  0.1706 -0.6636
  225MOL0     C29572   2.839   8.076   2.045  0.4002 -0.0962 -0.4650
  225MOL0     C29573   2.904   7.949   2.037 -0.0550  1.5174 -0.1792
  225MOL0     C29574   2.825   7.834   2.079 -0.8426  0.2250  0.2498
  225MOL0     C29575   2.693   7.839   2.123  0.4957  0.2652  0.6430
  225MOL0     O29576   2.620   7.727   2.173  0.0760  0.4903  0.1827
  225MOL0     C29577   2.509   7.680   2.093  0.5200  0.2627  0.0816
  225MOL0     C29578   2.557   7.607   1.967 -1.1751  0.1207 -0.1472
  225MOL0     C29579   2.435   7.590   1.872 -0.3149 -0.5103  0.2203
  225MOL0     C29580   2.473   7.497   1.752 -0.2847 -0.4858  0.2151
  225MOL0     C29581   2.520   7.353   1.785  0.0293 -0.0439 -0.2703
  225MOL0     C29582   2.393   7.267   1.804  0.3224 -0.3044 -0.7890
  225MOL0     C29583   2.438   7.136   1.862  0.2863 -0.3254  0.1535
  225MOL0     C29584   2.324   7.038   1.905 -0.7245 -0.7869 -0.1923
  225MOL0     N29585   2.203   7.034   1.817  1.1121 -0.4819 -0.8860
  225MOL0     C29586   2.164   6.927   1.735  0.6776  0.1783 -0.6699
  225MOL0     C29587   2.049   6.982   1.684 -0.1045  0.6198  0.6978
  225MOL0     C29588   1.973   6.903   1.570  0.5017 -0.9150 -0.1444
  225MOL0     C29589   1.845   6.832   1.616 -0.0313 -0.1998  0.1782
  225MOL0     C29590   1.852   6.722   1.727 -0.6073 -0.1188 -0.6335
  225MOL0     C29591   1.711   6.657   1.744 -0.2732  0.2253 -0.2738
  225MOL0     O29592   1.608   6.744   1.809  0.5604 -0.0490 -0.2737
  225MOL0     C29593   1.483   6.688   1.816  0.9618 -0.0702 -0.3269
  225MOL0     C29594   1.421   6.630   1.697  0.5447 -0.5365  0.5248
  225MOL0     C29595   1.301   6.572   1.702  0.1187  0.7037  0.0206
  225MOL0     C29596   1.232   6.561   1.823  0.4689  0.3128 -0.3337
  225MOL0     C29597   1.094   6.509   1.838  1.2876 -0.4615  0.4273
  225MOL0     O29598   1.055   6.408   1.752 -0.5000  0.0285  0.1042
  225MOL0     C29599   0.930   6.348   1.758  0.1075  0.3207  0.8721
  225MOL0     C29600   0.871   6.304   1.882 -0.3970 -0.6176  0.5592
  225MOL0     C29601   0.760   6.217   1.888 -0.1029 -0.2860 -0.9606
  225MOL0     C29602   0.692   6.203   1.777  0.5199  0.2352  0.5979
  225MOL0     O29603   0.571   6.132   1.780 -0.6827 -0.3170  0.3924
  225MOL0     C29604   0.455   6.208   1.728  0.3941  0.6168  0.2349
  225MOL0     C29605   0.343   6.098   1.680  0.4362 -1.2242 -0.7749
  225MOL0     C29606   0.250   6.176   1.582  1.1746 -0.4341 -0.0330
  225MOL0     C29607   0.139   6.087   1.522  0.3035  0.5119 -0.1947
  225MOL0     C29608   0.043   6.168   1.430 -0.2474 -0.5432 -0.6297
  225MOL0     C29609  -0.033   6.070   1.340  0.6523  1.0919 -0.6009
  225MOL0     C29610  -0.147   6.003   1.419 -0.8731 -0.1051 -0.4589
  225MOL0     C29611  -0.259   5.934   1.329 -0.4563  0.8901 -0.1054
  225MOL0    Cl29612  -0.349   6.063   1.266  0.0960 -0.6301  0.0488
  225MOL0     C29613   0.737   6.246   1.651 -0.2213  0.5728  0.8090
  225MOL0     C29614   0.858   6.319   1.643  0.0647 -0.0601  0.4629
  225MOL0     O29615   1.016   6.565   1.924 -0.3167  0.0639  0.3667
  225MOL0     C29616   1.292   6.607   1.938 -0.9744 -0.3458  0.6763
  225MOL0     C29617   1.421   6.668   1.940  0.0461  0.1206 -0.4423
  225MOL0     N29618   2.027   7.106   1.728  0.0848 -0.4029  0.1792
  225MOL0     N29619   2.118   7.137   1.820  0.1880 -0.8946  1.3098
  225MOL0     C29620   2.633   7.969   2.128  0.9580  0.9003 -0.7372
  225MOL0     C29621   2.704   8.091   2.092 -0.3268  0.4589 -0.2819
  225MOL0     C29622   3.031   8.397   2.074 -1.0546  0.4619 -0.5258
  225MOL0     C29623   3.095   8.478   2.175  0.1970 -0.2887 -0.2659
  225MOL0     C29624   3.210   8.555   2.149 -1.0162  0.1568 -0.1895
  225MOL0     C29625   3.249   8.577   2.022 -0.2025 -0.5581 -0.3019
  225MOL0     O29626   3.357   8.644   1.991 -0.0955 -0.1856  0.0016
  225MOL0     C29627   3.419   8.735   2.084 -0.8491  0.3867 -0.4752
  225MOL0     C29628   3.486   8.847   2.007  0.3792  0.1170 -0.6336
  225MOL0     C29629   3.609   8.792   1.937 -0.1391 -0.8578  0.1472
  225MOL0     C29630   3.726   8.901   1.928 -0.1548 -0.7482 -0.8241
  225MOL0     C29631   3.787   8.930   2.060 -0.8328  0.3575  0.8590
  225MOL0     C29632   3.840   8.928   2.170 -0.5672 -0.4817 -0.1669
  225MOL0     C29633   3.182   8.513   1.924 -0.6525  0.5142  0.6962
  225MOL0     C29634   3.089   8.414   1.946 -0.3407  0.6788 -0.0819
  225MOL0     H29635   3.008   7.941   2.008 -0.3955 -2.0901 -0.9005
  225MOL0     H29636   2.880   7.741   2.076 -0.6422  0.3647 -0.3036
  225MOL0     H29637   2.446   7.763   2.061  1.0560  0.3168 -0.8656
  225MOL0     H29638   2.452   7.611   2.155 -0.8601  0.2353 -1.1627
  225MOL0     H29639   2.603   7.513   2.000 -1.1458  0.0096 -0.5034
  225MOL0     H29640   2.634   7.666   1.918 -2.6038  2.4299  0.2602
  225MOL0     H29641   2.402   7.685   1.831 -3.4480 -2.8909 -3.4568
  225MOL0     H29642   2.348   7.566   1.933 -0.0160  1.1420  1.3452
  225MOL0     H29643   2.392   7.506   1.680 -2.6231  0.5137  2.7595
  225MOL0     H29644   2.561   7.542   1.706  0.1787 -1.2560  0.3330
  225MOL0     H29645   2.584   7.341   1.873 -2.2529 -1.1495  1.3340
  225MOL0     H29646   2.580   7.313   1.703 -0.5489 -0.5839 -0.4357
  225MOL0     H29647   2.349   7.251   1.705  0.9294  1.6757 -1.4376
  225MOL0     H29648   2.323   7.314   1.873  0.4004 -0.4104 -0.6393
  225MOL0     H29649   2.506   7.087   1.792 -1.4091 -0.5696 -1.3814
  225MOL0     H29650   2.487   7.158   1.958 -0.5614  1.7666  0.1591
  225MOL0     H29651   2.291   7.080   2.000  1.5385  3.5397 -1.0755
  225MOL0     H29652   2.363   6.936   1.919 -0.2680 -0.3436  2.0446
  225MOL0     H29653   2.215   6.834   1.710  0.1682  0.1510 -1.6509
  225MOL0     H29654   2.038   6.839   1.510 -0.5552 -0.8333 -1.4204
  225MOL0     H29655   1.929   6.976   1.502  0.2587  1.8639  2.7348
  225MOL0     H29656   1.787   6.785   1.536 -3.0205  0.6456  1.7185
  225MOL0     H29657   1.783   6.911   1.660 -0.7276 -0.8348  0.3595
  225MOL0     H29658   1.927   6.647   1.699  1.8191  1.3662  1.4936
  225MOL0     H29659   1.880   6.758   1.826 -0.5087 -0.0014 -0.7040
  225MOL0     H29660   1.724   6.566   1.803  1.4051  0.3889 -0.3385
  225MOL0     H29661   1.671   6.640   1.643 -2.8573  0.2036  0.6772
  225MOL0     H29662   1.459   6.630   1.595 -1.0953  2.1412 -0.1756
  225MOL0     H29663   1.256   6.532   1.612  2.2919  1.7472 -1.6242
  225MOL0     H29664   0.919   6.319   1.978 -0.9077 -5.3892  1.8301
  225MOL0     H29665   0.739   6.177   1.987 -0.0042  1.6513 -0.1106
  225MOL0     H29666   0.482   6.274   1.645 -1.0794 -0.5161 -1.2158
  225MOL0     H29667   0.410   6.274   1.803 -4.5684  0.2362 -2.0211
  225MOL0     H29668   0.283   6.074   1.769 -0.4075  0.6264 -0.7994
  225MOL0     H29669   0.389   6.016   1.625  1.4774  0.4060 -2.4456
  225MOL0     H29670   0.310   6.215   1.498 -0.1548 -0.4603 -1.0368
  225MOL0     H29671   0.212   6.262   1.638  0.8049 -0.7828  0.2525
  225MOL0     H29672   0.190   6.013   1.460 -0.0968 -0.0166  0.0961
  225MOL0     H29673   0.080   6.027   1.592  0.4819 -0.2013 -0.6498
  225MOL0     H29674   0.112   6.220   1.362  0.9651 -3.9703 -2.2707
  225MOL0     H29675  -0.031   6.231   1.479 -1.7508 -2.1704 -0.6884
  225MOL0     H29676   0.035   5.998   1.293 -1.3797 -1.4370  0.0710
  225MOL0     H29677  -0.087   6.131   1.268  0.0308  0.2582 -0.8562
  225MOL0     H29678  -0.098   5.926   1.479 -0.2993 -0.2721 -1.1307
  225MOL0     H29679  -0.194   6.080   1.482  1.3797  0.4116  0.7163
  225MOL0     H29680  -0.321   5.860   1.382  1.2003  0.6563  1.6086
  225MOL0     H29681  -0.214   5.870   1.254  0.3781  0.1937  0.9590
  225MOL0     H29682   0.680   6.226   1.561  0.9551  1.9044 -0.2750
  225MOL0     H29683   0.892   6.334   1.542  1.4840  1.2037  1.0927
  225MOL0     H29684   1.239   6.614   2.033  0.1305  0.5205  1.2610
  225MOL0     H29685   1.468   6.728   2.018  1.1486 -0.2102 -0.8292
  225MOL0     H29686   2.528   7.983   2.148  1.0507  1.9809 -0.9503
  225MOL0     H29687   2.647   8.182   2.101 -3.6863 -1.3047 -1.8510
  225MOL0     H29688   3.062   8.463   2.277  2.2842  1.1769  0.6934
  225MOL0     H29689   3.261   8.595   2.236 -0.4658 -3.8655  1.5158
  225MOL0     H29690   3.498   8.684   2.139 -1.0405 -1.1250 -1.5277
  225MOL0     H29691   3.345   8.783   2.148  0.3332 -0.0809  1.3296
  225MOL0     H29692   3.417   8.877   1.929  0.7391  0.0408 -0.9837
  225MOL0     H29693   3.502   8.928   2.079 -3.6566  3.0259 -2.6467
  225MOL0     H29694   3.569   8.756   1.841  1.5805  1.1720 -1.4423
  225MOL0     H29695   3.657   8.707   1.987 -3.6807 -3.4145 -0.3858
  225MOL0     H29696   3.801   8.861   1.859  1.8988  3.3727 -1.3164
  225MOL0     H29697   3.692   8.993   1.880  2.5762  0.6198 -0.3510
  225MOL0     H29698   3.881   8.939   2.268  0.3848  2.5155 -0.7908
  225MOL0     H29699   3.213   8.536   1.823 -3.6376  0.3275 -0.3320
  225MOL0     H29700   3.049   8.357   1.863  0.4165  0.1798 -0.1094
  226MOL0     O29701   0.853   0.573   5.444 -0.3628 -1.0604  0.8575
  226MOL0     C29702   0.891   0.620   5.338  0.1671 -0.2722  0.3661
  226MOL0     O29703   0.805   0.665   5.235  0.6058 -0.1327 -0.0891
  226MOL0     C29704   0.674   0.692   5.252  0.3386  0.4920 -0.0665
  226MOL0     C29705   0.633   0.811   5.203 -0.8959  0.2687 -0.4525
  226MOL0     C29706   0.493   0.854   5.219  0.0826 -0.2683  0.5822
  226MOL0     C29707   0.401   0.776   5.282  0.2982 -0.1632 -0.1028
  226MOL0     O29708   0.271   0.833   5.297 -0.3316  0.3888 -0.2871
  226MOL0     C29709   0.174   0.783   5.390  0.0614 -0.4064 -0.0468
  226MOL0     C29710   0.104   0.667   5.313  0.0263  0.5402 -0.8832
  226MOL0     C29711  -0.023   0.701   5.236 -0.6133 -0.6818  0.6697
  226MOL0     C29712  -0.075   0.583   5.154 -0.1377 -0.5662 -0.3888
  226MOL0     C29713  -0.199   0.604   5.072  0.1926  0.2217  0.0626
  226MOL0     C29714  -0.326   0.606   5.143 -0.1161  0.5166 -0.1158
  226MOL0     C29715  -0.436   0.539   5.063  1.0749 -1.0450 -0.1415
  226MOL0     C29716  -0.577   0.567   5.121  0.7156  0.2203  0.8023
  226MOL0     N29717  -0.591   0.493   5.252 -0.0631 -0.5474 -0.6464
  226MOL0     C29718  -0.544   0.536   5.377 -0.5231 -0.1743 -0.0806
  226MOL0     C29719  -0.581   0.437   5.461 -0.2015 -0.9033  0.5805
  226MOL0     C29720  -0.584   0.439   5.613 -0.5990 -0.5141 -0.7083
  226MOL0     C29721  -0.730   0.445   5.666 -0.0494 -0.0548  0.0399
  226MOL0     C29722  -0.739   0.549   5.771  0.3768 -0.4779 -0.0929
  226MOL0     C29723  -0.867   0.545   5.851  0.4602 -0.9921 -0.7363
  226MOL0     O29724  -0.973   0.580   5.762 -0.1873  0.7074  0.1697
  226MOL0     C29725  -1.097   0.596   5.822  0.3849  0.2056  1.1828
  226MOL0     C29726  -1.199   0.625   5.727 -1.0243 -1.1633 -0.0340
  226MOL0     C29727  -1.330   0.622   5.769 -0.3631 -0.2238 -0.3015
  226MOL0     C29728  -1.369   0.602   5.904 -0.6237 -0.7359 -0.0388
  226MOL0     C29729  -1.510   0.597   5.946 -0.0529  0.8187  0.1411
  226MOL0     O29730  -1.601   0.573   5.844  0.1418 -0.4874 -0.1825
  226MOL0     C29731  -1.735   0.597   5.891 -0.1527 -0.5641 -0.0833
  226MOL0     C29732  -1.759   0.736   5.910  0.5492  0.1135 -0.3247
  226MOL0     C29733  -1.883   0.770   5.962  0.0501  0.4374  0.0499
  226MOL0     C29734  -1.983   0.669   5.987  0.6337 -0.9699 -0.0092
  226MOL0     O29735  -2.113   0.694   6.031  0.1365 -0.5835 -0.7512
  226MOL0     C29736  -2.148   0.816   6.080 -0.2507 -0.2682  0.0646
  226MOL0     C29737  -2.299   0.824   6.101 -0.4997  0.9931  0.3189
  226MOL0     C29738  -2.377   0.798   5.967  0.9938 -0.0160 -0.1974
  226MOL0     C29739  -2.530   0.779   5.993  0.5207 -0.8960 -0.2369
  226MOL0     C29740  -2.613   0.783   5.865  1.1923 -0.2871  0.6577
  226MOL0     C29741  -2.767   0.772   5.877  0.7997  0.0777 -1.1158
  226MOL0     C29742  -2.818   0.657   5.966  0.1433 -0.5620  0.3364
  226MOL0     C29743  -2.966   0.630   5.944  0.8756  0.5264 -0.8934
  226MOL0    Cl29744  -3.067   0.770   6.017 -0.0577 -0.6198  0.8463
  226MOL0     C29745  -1.955   0.539   5.969 -0.3594 -0.1326 -0.8239
  226MOL0     C29746  -1.827   0.497   5.923  0.1254 -0.2319 -0.0745
  226MOL0     O29747  -1.534   0.604   6.071  0.2751  0.3299 -0.1612
  226MOL0     C29748  -1.263   0.567   5.992  0.3993 -0.2843  0.7447
  226MOL0     C29749  -1.136   0.573   5.954 -0.2059 -1.0398  1.2214
  226MOL0     N29750  -0.642   0.336   5.388  0.2812  0.0416 -0.1505
  226MOL0     N29751  -0.637   0.364   5.258  0.6758 -1.1065 -0.2930
  226MOL0     C29752   0.433   0.651   5.325  0.6438 -0.0308  0.0986
  226MOL0     C29753   0.571   0.613   5.316 -0.3411  0.6285 -0.3387
  226MOL0     C29754   1.042   0.628   5.311  0.2883  0.9599 -0.9134
  226MOL0     C29755   1.091   0.699   5.200 -0.7533  0.3812 -0.4005
  226MOL0     C29756   1.229   0.703   5.183  0.3381  1.1753  0.1394
  226MOL0     C29757   1.316   0.643   5.273  0.5322 -0.4805 -0.6157
  226MOL0     O29758   1.453   0.623   5.264 -0.2975  0.1917 -0.2272
  226MOL0     C29759   1.526   0.674   5.149  0.1692 -0.4826 -0.0835
  226MOL0     C29760   1.681   0.645   5.142  0.3213 -0.2528  0.2823
  226MOL0     C29761   1.756   0.673   5.270 -0.4761 -0.6721  0.1973
  226MOL0     C29762   1.914   0.667   5.247 -0.1634 -0.0191 -0.4566
  226MOL0     C29763   1.978   0.717   5.372  0.0403 -0.2333  0.3452
  226MOL0     C29764   2.012   0.760   5.481  0.5151  0.0196  0.0185
  226MOL0     C29765   1.267   0.573   5.386  0.7572  0.0721 -0.0983
  226MOL0     C29766   1.132   0.563   5.405  0.2494 -0.3902  0.2431
  226MOL0     H29767   0.710   0.870   5.154 -0.4518 -0.7543 -1.0149
  226MOL0     H29768   0.468   0.954   5.184 -0.2740 -0.2194  0.9690
  226MOL0     H29769   0.102   0.861   5.416 -2.2319 -1.1153 -3.4997
  226MOL0     H29770   0.231   0.747   5.476  2.7809  0.7903 -1.2556
  226MOL0     H29771   0.059   0.590   5.377 -0.9782  1.2770 -0.6961
  226MOL0     H29772   0.185   0.625   5.253  0.5656 -2.7357  1.8226
  226MOL0     H29773  -0.001   0.781   5.164  0.3140 -1.1032  0.4667
  226MOL0     H29774  -0.111   0.727   5.295 -1.2032  0.5665 -0.6811
  226MOL0     H29775   0.006   0.556   5.085  0.5614  0.5573 -0.0361
  226MOL0     H29776  -0.087   0.499   5.223  0.5681  0.6485  1.3071
  226MOL0     H29777  -0.202   0.519   5.005  1.2340 -1.2942  1.8398
  226MOL0     H29778  -0.189   0.697   5.014  2.7928  1.7433  2.6530
  226MOL0     H29779  -0.356   0.707   5.172 -0.3768 -0.0304  1.6335
  226MOL0     H29780  -0.307   0.550   5.235  0.7219  0.5271 -0.2725
  226MOL0     H29781  -0.435   0.586   4.964  0.7081  0.6338  0.6190
  226MOL0     H29782  -0.423   0.431   5.051 -0.2000 -1.3566  1.0027
  226MOL0     H29783  -0.628   0.528   5.033  3.7580 -1.9374 -0.2069
  226MOL0     H29784  -0.593   0.674   5.135  0.2983  0.2256  0.3091
  226MOL0     H29785  -0.494   0.627   5.407 -0.5860 -0.4533  0.8914
  226MOL0     H29786  -0.521   0.520   5.652  0.6651 -1.6969 -0.1950
  226MOL0     H29787  -0.522   0.361   5.659  1.0375  0.4217 -1.2155
  226MOL0     H29788  -0.759   0.345   5.698 -2.0787 -0.4374 -2.6139
  226MOL0     H29789  -0.798   0.470   5.584 -0.7212  1.3103  0.9768
  226MOL0     H29790  -0.656   0.532   5.840 -1.5048  0.1170  2.4615
  226MOL0     H29791  -0.712   0.651   5.742  2.4640 -0.2045  2.4656
  226MOL0     H29792  -0.860   0.601   5.945  1.1358 -1.1462 -0.6878
  226MOL0     H29793  -0.874   0.440   5.882 -1.7499  0.1839  3.5895
  226MOL0     H29794  -1.171   0.665   5.630 -0.8029 -1.1602  0.0306
  226MOL0     H29795  -1.410   0.644   5.700 -1.2900 -2.2123  0.0577
  226MOL0     H29796  -1.681   0.810   5.893  2.6262 -1.6659  0.9030
  226MOL0     H29797  -1.906   0.876   5.966  2.0376  1.0828 -2.8515
  226MOL0     H29798  -2.123   0.893   6.007 -0.7738 -0.8741 -0.7826
  226MOL0     H29799  -2.097   0.844   6.172  0.5518  0.3175 -0.5483
  226MOL0     H29800  -2.321   0.922   6.145  0.8893  1.4873 -0.0590
  226MOL0     H29801  -2.326   0.741   6.167  0.5336 -0.5499 -1.1328
  226MOL0     H29802  -2.350   0.715   5.901  0.3144  0.5034 -1.1466
  226MOL0     H29803  -2.363   0.880   5.896  1.8120 -1.6049 -1.9757
  226MOL0     H29804  -2.560   0.686   6.042 -1.8326 -0.1805 -0.1566
  226MOL0     H29805  -2.563   0.863   6.055 -1.2916 -2.0610  0.4767
  226MOL0     H29806  -2.571   0.699   5.808 -0.2588 -0.5844 -0.0230
  226MOL0     H29807  -2.595   0.876   5.810 -0.6839  0.8548  1.8658
  226MOL0     H29808  -2.809   0.759   5.777  0.7334  1.1956 -1.2441
  226MOL0     H29809  -2.815   0.865   5.908  0.9329  0.6691 -2.5570
  226MOL0     H29810  -2.773   0.558   5.951 -2.6336 -2.2702  2.3300
  226MOL0     H29811  -2.816   0.670   6.075 -3.9826 -2.7802  0.8829
  226MOL0     H29812  -3.002   0.547   6.006  0.3775  2.2649  1.2611
  226MOL0     H29813  -2.983   0.617   5.837 -2.6691 -1.1287 -0.3028
  226MOL0     H29814  -2.028   0.462   5.993  0.5413 -0.5936  0.5532
  226MOL0     H29815  -1.806   0.391   5.932 -0.2609 -0.1262  2.7773
  226MOL0     H29816  -1.275   0.559   6.100  1.8411 -1.6615  0.8469
  226MOL0     H29817  -1.054   0.547   6.021 -1.7672 -0.5115  3.4640
  226MOL0     H29818   0.359   0.603   5.389  2.1854  1.1875  2.9839
  226MOL0     H29819   0.602   0.525   5.371  0.2768  0.6172 -0.7008
  226MOL0     H29820   1.029   0.753   5.129 -0.9196  0.4647 -0.1914
  226MOL0     H29821   1.264   0.752   5.093  1.7838 -1.1245 -0.6769
  226MOL0     H29822   1.527   0.784   5.153 -0.8496 -0.4786  2.9320
  226MOL0     H29823   1.480   0.645   5.055  1.3074  0.6544 -1.0399
  226MOL0     H29824   1.680   0.537   5.122 -1.3933 -1.0266  3.7437
  226MOL0     H29825   1.718   0.700   5.055  1.1179 -0.3261  0.5652
  226MOL0     H29826   1.720   0.597   5.340 -0.3895  1.7691  3.0516
  226MOL0     H29827   1.729   0.771   5.309 -1.1998 -0.1931 -1.4095
  226MOL0     H29828   1.949   0.566   5.225  2.8003  1.5679 -4.3042
  226MOL0     H29829   1.950   0.733   5.168  0.6037  0.9879  0.6881
  226MOL0     H29830   2.046   0.801   5.574 -1.0918  0.4545  0.4392
  226MOL0     H29831   1.341   0.520   5.445  0.6169 -1.4851 -1.2602
  226MOL0     H29832   1.100   0.492   5.480  1.7745 -0.6597  0.6742
  227MOL0     O29833   5.065   0.800   5.344 -0.5584  0.0444 -0.4984
  227MOL0     C29834   5.120   0.878   5.423  0.1398 -0.2855  0.1122
  227MOL0     O29835   5.106   1.014   5.417  0.1014 -0.4064 -0.5255
  227MOL0     C29836   5.024   1.066   5.318 -0.8424 -0.6064  0.0156
  227MOL0     C29837   4.902   1.106   5.352 -0.2100  0.1468  0.2435
  227MOL0     C29838   4.808   1.153   5.254 -0.1952  0.7924  0.0486
  227MOL0     C29839   4.833   1.148   5.124 -0.8498  0.2750  0.4971
  227MOL0     O29840   4.733   1.196   5.041 -0.5403  0.5985  0.1186
  227MOL0     C29841   4.694   1.110   4.935 -0.2707 -0.4210  0.4972
  227MOL0     C29842   4.601   1.185   4.843 -0.4165  0.1000  0.4569
  227MOL0     C29843   4.551   1.084   4.738 -0.4839 -0.0776  0.2659
  227MOL0     C29844   4.444   1.149   4.640  0.3707  0.4273 -0.1775
  227MOL0     C29845   4.410   1.044   4.539  0.5270 -0.3067 -1.0573
  227MOL0     C29846   4.280   1.089   4.469 -0.0412 -0.0394 -0.1135
  227MOL0     C29847   4.318   1.167   4.337 -0.0322 -0.6775 -0.7684
  227MOL0     C29848   4.197   1.236   4.273  0.5954 -0.5966  0.1894
  227MOL0     N29849   4.085   1.158   4.239 -0.1591  0.0306  0.8614
  227MOL0     C29850   4.087   1.090   4.116  0.0172  0.8596 -0.4031
  227MOL0     C29851   3.973   1.026   4.124  0.8447 -0.4269  0.9745
  227MOL0     C29852   3.906   0.950   4.016 -0.1277 -0.8276  0.6967
  227MOL0     C29853   3.765   0.901   4.049  0.0937 -0.1117  0.1094
  227MOL0     C29854   3.697   0.811   3.945  0.5827  0.9800 -0.3667
  227MOL0     C29855   3.544   0.785   3.984 -1.0487  0.8267  0.1360
  227MOL0     O29856   3.545   0.686   4.085 -0.0321  1.0344 -0.2753
  227MOL0     C29857   3.421   0.639   4.120 -0.1839 -0.6919  0.1997
  227MOL0     C29858   3.401   0.585   4.247 -0.0037  1.3982 -0.2902
  227MOL0     C29859   3.280   0.524   4.289  0.4071 -0.2547 -0.4250
  227MOL0     C29860   3.163   0.542   4.214 -0.6208  1.1530  0.2732
  227MOL0     C29861   3.032   0.491   4.269 -0.1309  0.0462 -0.5849
  227MOL0     O29862   3.020   0.469   4.412  0.1171 -0.5185 -0.0072
  227MOL0     C29863   2.893   0.439   4.466  0.2258 -0.1506 -0.8525
  227MOL0     C29864   2.766   0.447   4.412 -0.1594  0.6255 -0.8970
  227MOL0     C29865   2.646   0.424   4.487 -0.3705  0.2391 -0.0173
  227MOL0     C29866   2.649   0.377   4.621  0.4240  0.2767 -1.0526
  227MOL0     O29867   2.539   0.361   4.692 -0.3461 -0.0257  0.0031
  227MOL0     C29868   2.528   0.246   4.781  0.4003 -0.3739 -0.1374
  227MOL0     C29869   2.484   0.112   4.710 -0.2045 -0.1679 -0.3152
  227MOL0     C29870   2.336   0.096   4.714 -0.3670 -0.8167 -0.1513
  227MOL0     C29871   2.289  -0.036   4.645 -0.2453  0.0850 -0.0449
  227MOL0     C29872   2.128  -0.052   4.641  0.3009  0.0566 -0.7313
  227MOL0     C29873   2.088  -0.179   4.564 -0.0683  0.2729 -0.6863
  227MOL0     C29874   1.947  -0.178   4.511  0.2624  0.2693  0.8446
  227MOL0     C29875   1.899  -0.329   4.484 -0.0368 -0.4071  0.2953
  227MOL0    Cl29876   1.714  -0.338   4.459 -0.2287  0.1807  0.9182
  227MOL0     C29877   2.779   0.358   4.674  0.9600  0.2453  0.0259
  227MOL0     C29878   2.893   0.391   4.595 -0.1651  0.4103  0.4475
  227MOL0     O29879   2.947   0.462   4.192  0.1154  1.0889  0.3909
  227MOL0     C29880   3.176   0.602   4.091 -0.4298 -0.0674  1.5215
  227MOL0     C29881   3.303   0.651   4.046  0.4329  0.2801  0.4392
  227MOL0     N29882   3.913   1.057   4.239 -0.3687  0.5625  0.8197
  227MOL0     N29883   3.973   1.140   4.321  0.4795 -0.0872  0.0766
  227MOL0     C29884   4.970   1.116   5.087 -0.3373 -0.3447  0.0330
  227MOL0     C29885   5.063   1.082   5.188 -0.5273 -0.3398 -0.5292
  227MOL0     C29886   5.223   0.833   5.522  0.6099  0.1501  1.3036
  227MOL0     C29887   5.260   0.698   5.509  0.0119 -0.6800 -0.4223
  227MOL0     C29888   5.357   0.650   5.600  0.2550  0.7302  1.1988
  227MOL0     C29889   5.424   0.735   5.689  0.7263 -1.1219 -0.1110
  227MOL0     O29890   5.514   0.700   5.788 -0.2863 -0.3281 -0.1015
  227MOL0     C29891   5.574   0.571   5.775  1.5561 -0.4726  0.5611
  227MOL0     C29892   5.692   0.567   5.874  0.6885 -0.1722  0.3275
  227MOL0     C29893   5.792   0.680   5.863  0.0830 -0.3923  0.7548
  227MOL0     C29894   5.865   0.686   5.733  0.3455  0.0004  0.1434
  227MOL0     C29895   5.995   0.614   5.749 -0.6001 -0.6652  0.2171
  227MOL0     C29896   6.102   0.548   5.754 -0.4349 -0.7768  0.0983
  227MOL0     C29897   5.393   0.877   5.679  0.1233 -0.1434  0.1702
  227MOL0     C29898   5.290   0.921   5.603 -0.4942 -0.2445  0.7575
  227MOL0     H29899   4.869   1.110   5.455 -1.2723  0.5154 -0.1023
  227MOL0     H29900   4.709   1.182   5.287 -0.3334 -1.6547  2.0569
  227MOL0     H29901   4.645   1.024   4.983  0.2011 -0.9241  0.0927
  227MOL0     H29902   4.775   1.074   4.871 -0.1697  0.6257  0.0168
  227MOL0     H29903   4.655   1.272   4.804 -2.3099  1.1180  0.0144
  227MOL0     H29904   4.517   1.218   4.905  0.0946 -1.2341  1.9528
  227MOL0     H29905   4.498   1.005   4.793 -1.7654  1.4950  1.3695
  227MOL0     H29906   4.634   1.043   4.679  0.9429 -3.7845  4.2862
  227MOL0     H29907   4.356   1.165   4.703  0.8634  0.3172  0.5602
  227MOL0     H29908   4.483   1.235   4.586  1.3982 -0.0800 -0.2780
  227MOL0     H29909   4.391   0.951   4.594 -2.2665  1.8183  1.9318
  227MOL0     H29910   4.485   1.011   4.466  0.1314 -2.6516 -0.5123
  227MOL0     H29911   4.230   1.168   4.527  0.4172 -0.8491  1.4566
  227MOL0     H29912   4.201   1.015   4.454 -2.9475  2.7680  0.3088
  227MOL0     H29913   4.391   1.244   4.361 -0.7867 -0.9985  3.2549
  227MOL0     H29914   4.359   1.099   4.261 -1.0597 -2.4464  0.1759
  227MOL0     H29915   4.228   1.289   4.183  4.2173  0.2018  1.7045
  227MOL0     H29916   4.163   1.311   4.345  1.4788  2.8593 -2.7253
  227MOL0     H29917   4.152   1.100   4.029 -1.4754  0.2363 -1.6327
  227MOL0     H29918   3.963   0.857   4.004 -0.1410 -0.4848 -3.4201
  227MOL0     H29919   3.903   1.011   3.925 -2.8666 -2.3592 -0.3600
  227MOL0     H29920   3.708   0.991   4.074  0.6909  0.3563 -0.1841
  227MOL0     H29921   3.764   0.830   4.132  1.9669  1.8287  1.9071
  227MOL0     H29922   3.696   0.865   3.849  1.1365 -0.6454 -1.3204
  227MOL0     H29923   3.755   0.720   3.929 -0.1381  0.8297 -2.3524
  227MOL0     H29924   3.495   0.750   3.893 -0.3902 -0.4240  0.2473
  227MOL0     H29925   3.491   0.872   4.022 -0.7076  0.4264  1.5914
  227MOL0     H29926   3.487   0.558   4.308 -0.0112 -1.7933 -1.4882
  227MOL0     H29927   3.274   0.480   4.388  0.9438  0.8722  0.1223
  227MOL0     H29928   2.752   0.486   4.312 -0.2676  2.5931 -0.1693
  227MOL0     H29929   2.551   0.433   4.434 -0.1962 -0.2942 -0.4261
  227MOL0     H29930   2.446   0.266   4.851  1.0148 -0.0328  0.4981
  227MOL0     H29931   2.619   0.217   4.834  1.6313  3.0058 -0.2032
  227MOL0     H29932   2.534   0.034   4.768  2.1235  0.2661 -1.5966
  227MOL0     H29933   2.511   0.099   4.605 -3.5092 -1.6044 -1.1207
  227MOL0     H29934   2.286   0.181   4.667 -0.5329  0.1996  1.7636
  227MOL0     H29935   2.300   0.103   4.817  2.1888  2.8240  0.7128
  227MOL0     H29936   2.325  -0.032   4.542  2.6970 -4.0551  0.5839
  227MOL0     H29937   2.327  -0.125   4.696  1.4399 -0.0235 -1.4094
  227MOL0     H29938   2.087   0.039   4.596 -1.2528 -0.1797  0.1144
  227MOL0     H29939   2.088  -0.055   4.743 -0.1827  1.5687 -0.8534
  227MOL0     H29940   2.089  -0.264   4.632 -1.8570  1.6980  1.2343
  227MOL0     H29941   2.153  -0.200   4.478 -0.2390 -1.2121 -0.4814
  227MOL0     H29942   1.877  -0.138   4.584 -2.7092 -0.6823 -1.2509
  227MOL0     H29943   1.929  -0.120   4.420  1.1658  0.5095  0.8099
  227MOL0     H29944   1.941  -0.390   4.564  1.6874 -3.3919 -2.6357
  227MOL0     H29945   1.937  -0.354   4.384 -1.6885  0.6687 -0.6517
  227MOL0     H29946   2.781   0.335   4.780  1.0803 -2.6755 -0.5272
  227MOL0     H29947   2.991   0.387   4.642  0.4115 -0.1680 -0.7440
  227MOL0     H29948   3.097   0.627   4.021  2.6050  3.6810 -0.9811
  227MOL0     H29949   3.296   0.710   3.955 -1.4719 -0.0046  0.3502
  227MOL0     H29950   4.995   1.098   4.983  0.1235 -1.6437  0.3458
  227MOL0     H29951   5.167   1.059   5.164 -0.0156 -1.7566  2.5285
  227MOL0     H29952   5.208   0.629   5.443  0.5351 -1.3656 -0.1310
  227MOL0     H29953   5.381   0.545   5.599  0.0676  0.6593  2.1727
  227MOL0     H29954   5.615   0.566   5.673  0.3407 -0.7599  0.0740
  227MOL0     H29955   5.503   0.491   5.794 -0.4080  0.7182 -1.3246
  227MOL0     H29956   5.641   0.570   5.971  0.9989 -0.5850  0.5090
  227MOL0     H29957   5.734   0.466   5.874 -1.6429 -1.2703 -1.8259
  227MOL0     H29958   5.858   0.680   5.950  1.2952 -0.7142 -0.1247
  227MOL0     H29959   5.728   0.766   5.885  0.5204 -0.2102  1.3347
  227MOL0     H29960   5.806   0.644   5.651  0.8554 -0.0129 -0.2156
  227MOL0     H29961   5.888   0.789   5.703  1.1872  0.4914  2.2779
  227MOL0     H29962   6.178   0.475   5.768  0.8675  0.0764 -2.1628
  227MOL0     H29963   5.448   0.948   5.739  0.4590  0.5834 -0.9579
  227MOL0     H29964   5.261   1.025   5.597 -1.7223 -0.6204 -0.4555
  228MOL0     O29965   3.357   0.796   8.844  0.8123 -0.4213  0.1621
  228MOL0     C29966   3.406   0.709   8.905 -0.7782  0.7144 -0.0902
  228MOL0     O29967   3.330   0.608   8.952 -0.3330  0.2488  0.5037
  228MOL0     C29968   3.198   0.617   8.951 -0.0510  0.7100  1.1166
  228MOL0     C29969   3.116   0.572   8.840  0.3347  0.5869  0.4792
  228MOL0     C29970   2.977   0.574   8.845 -0.0582 -0.2684  0.3510
  228MOL0     C29971   2.916   0.614   8.960  0.3398  0.4026  1.0360
  228MOL0     O29972   2.779   0.606   8.949  0.1957  0.0598  0.6418
  228MOL0     C29973   2.688   0.631   9.056 -0.3793 -0.5600 -0.4480
  228MOL0     C29974   2.538   0.601   9.009 -0.1371  0.5183  0.5535
  228MOL0     C29975   2.493   0.686   8.886 -0.0193  0.0366  0.4308
  228MOL0     C29976   2.346   0.673   8.840 -0.6763 -0.2267 -0.3083
  228MOL0     C29977   2.331   0.701   8.699 -0.1877 -0.4669 -0.6960
  228MOL0     C29978   2.356   0.847   8.660 -1.0114 -0.1782  0.6489
  228MOL0     C29979   2.438   0.875   8.533 -0.4979 -0.5932  0.0292
  228MOL0     C29980   2.360   0.830   8.412 -0.1809 -0.0523  1.3452
  228MOL0     N29981   2.425   0.856   8.283  0.0240 -0.4428  0.2055
  228MOL0     C29982   2.522   0.782   8.230  1.4523  0.2324  1.4519
  228MOL0     C29983   2.564   0.844   8.121 -0.5153  0.8890  0.3027
  228MOL0     C29984   2.658   0.794   8.026  0.8841  0.2612 -0.8239
  228MOL0     C29985   2.746   0.909   7.972 -1.4109  0.0573 -0.0463
  228MOL0     C29986   2.870   0.926   8.060  0.1713  0.5876  0.0233
  228MOL0     C29987   2.984   1.008   7.999  0.2601  0.7208 -0.1462
  228MOL0     O29988   3.113   0.954   8.054 -0.1539 -0.3396  0.7805
  228MOL0     C29989   3.238   1.015   8.036  0.3030 -0.0675 -1.3206
  228MOL0     C29990   3.269   1.124   7.960 -0.3481 -1.4912 -0.8689
  228MOL0     C29991   3.403   1.176   7.965 -0.2268  0.3236  0.1400
  228MOL0     C29992   3.513   1.119   8.035  0.7032 -0.4840 -0.3413
  228MOL0     C29993   3.642   1.180   8.046 -1.0346 -0.5824  0.5523
  228MOL0     O29994   3.717   1.142   8.157  0.0404  1.1516 -0.1703
  228MOL0     C29995   3.859   1.149   8.137  0.4272  0.0838 -0.2031
  228MOL0     C29996   3.941   1.205   8.234 -0.5414 -0.2604 -0.2753
  228MOL0     C29997   4.073   1.227   8.212  0.9912  0.9715  0.3323
  228MOL0     C29998   4.138   1.198   8.087  1.0278  0.3047 -0.3644
  228MOL0     O29999   4.269   1.226   8.060  0.2229  0.4159 -0.6113
  228MOL0     C30000   4.362   1.219   8.176  0.1658  0.7423 -0.2150
  228MOL0     C30001   4.509   1.209   8.135 -0.1523 -0.5785 -0.7477
  228MOL0     C30002   4.530   1.317   8.025 -0.2477 -0.6615  0.7187
  228MOL0     C30003   4.676   1.364   7.995  0.0337 -0.3516 -0.8438
  228MOL0     C30004   4.678   1.468   7.892  0.0607  1.0081 -0.2941
  228MOL0     C30005   4.803   1.432   7.806 -0.3459 -0.1972 -0.0689
  228MOL0     C30006   4.819   1.535   7.691  0.4006  0.2056  0.1756
  228MOL0     C30007   4.701   1.550   7.603 -0.0511  0.6872  0.3337
  228MOL0    Cl30008   4.730   1.668   7.487  0.0842 -0.2155  0.0636
  228MOL0     C30009   4.061   1.146   7.981  0.7127 -0.3602  0.6731
  228MOL0     C30010   3.928   1.110   8.014 -0.6482 -0.4844  0.4321
  228MOL0     O30011   3.676   1.274   7.978 -0.5291 -0.4126 -0.7145
  228MOL0     C30012   3.485   1.001   8.099  0.0198  0.1446  0.5929
  228MOL0     C30013   3.346   0.950   8.109  0.2832 -0.2467 -0.1388
  228MOL0     N30014   2.494   0.962   8.105  1.0625 -0.7986  0.8578
  228MOL0     N30015   2.414   0.968   8.210  0.3638  0.6749  0.4847
  228MOL0     C30016   2.984   0.671   9.060  0.0609 -0.3253  0.6366
  228MOL0     C30017   3.129   0.678   9.055  0.6557  0.7337 -0.6160
  228MOL0     C30018   3.557   0.707   8.923  0.6987 -0.1031  0.4991
  228MOL0     C30019   3.614   0.640   9.036 -0.2693  0.4193  1.4139
  228MOL0     C30020   3.756   0.622   9.059 -0.0894  0.0172 -0.1774
  228MOL0     C30021   3.838   0.672   8.958 -1.2953  0.3214 -0.5559
  228MOL0     O30022   3.975   0.645   8.973  0.2226 -0.1014  0.5837
  228MOL0     C30023   4.065   0.730   8.897  0.0585  0.3099  0.5150
  228MOL0     C30024   4.193   0.723   8.979  0.1474  0.0613  0.1404
  228MOL0     C30025   4.299   0.819   8.922 -0.0620 -0.4912  0.3835
  228MOL0     C30026   4.432   0.819   8.989  0.4472  0.1194  0.2938
  228MOL0     C30027   4.494   0.689   8.996  0.0625 -0.1618  0.0633
  228MOL0     C30028   4.539   0.582   8.999 -0.1326 -0.1059  0.5630
  228MOL0     C30029   3.784   0.741   8.845 -1.0381  0.7608 -0.2777
  228MOL0     C30030   3.645   0.758   8.832  0.0500 -0.2067 -0.3938
  228MOL0     H30031   3.175   0.532   8.758  0.7117 -2.0430  1.9095
  228MOL0     H30032   2.925   0.525   8.764 -1.6038  1.1052  0.4516
  228MOL0     H30033   2.692   0.726   9.109  0.3679  0.2617 -1.9175
  228MOL0     H30034   2.704   0.555   9.133 -0.5787  0.5134  0.6805
  228MOL0     H30035   2.480   0.630   9.096  0.2820 -1.0144  1.3819
  228MOL0     H30036   2.520   0.494   8.993 -0.2913  0.7392 -0.8767
  228MOL0     H30037   2.550   0.652   8.800 -1.6645 -2.7425  0.3151
  228MOL0     H30038   2.507   0.794   8.904 -0.3223  0.1866 -0.2359
  228MOL0     H30039   2.313   0.572   8.866 -2.1597 -0.3889 -2.5829
  228MOL0     H30040   2.289   0.745   8.899 -0.7440 -1.6486  1.4488
  228MOL0     H30041   2.236   0.660   8.661 -0.1160 -0.8674 -0.4547
  228MOL0     H30042   2.403   0.640   8.644 -2.0726 -1.1619 -2.5319
  228MOL0     H30043   2.416   0.897   8.737 -1.5032 -0.1118  0.9921
  228MOL0     H30044   2.259   0.894   8.645 -2.2064 -2.3039  1.3314
  228MOL0     H30045   2.458   0.982   8.525  1.0402 -0.8536  0.1627
  228MOL0     H30046   2.530   0.816   8.527  0.9159  1.3221  1.5171
  228MOL0     H30047   2.265   0.884   8.401  0.4429  0.6803 -1.0656
  228MOL0     H30048   2.333   0.725   8.417 -0.0918 -0.2845 -1.5686
  228MOL0     H30049   2.556   0.684   8.261 -0.1618 -2.0107 -3.0370
  228MOL0     H30050   2.597   0.761   7.941  2.0755 -0.9643 -1.2422
  228MOL0     H30051   2.709   0.712   8.076  1.4811  1.5171  0.7087
  228MOL0     H30052   2.700   1.008   7.966  0.6676  1.1974  1.5188
  228MOL0     H30053   2.761   0.873   7.870  3.1983  0.0551  0.3939
  228MOL0     H30054   2.847   0.966   8.159 -0.4751 -1.0359  0.5762
  228MOL0     H30055   2.913   0.827   8.077 -2.1417 -0.6301 -0.7380
  228MOL0     H30056   2.966   1.111   8.031  1.0230  0.8295 -0.0513
  228MOL0     H30057   2.995   0.984   7.893  2.0860 -1.6497  0.5084
  228MOL0     H30058   3.191   1.155   7.891  0.5997 -1.8930 -2.1524
  228MOL0     H30059   3.407   1.273   7.916 -0.0494 -0.0752 -0.6532
  228MOL0     H30060   3.894   1.238   8.326  0.4816 -0.5787  0.3711
  228MOL0     H30061   4.117   1.266   8.303 -2.8511  1.1642  2.3018
  228MOL0     H30062   4.338   1.124   8.226 -0.5329 -0.6206 -2.9809
  228MOL0     H30063   4.354   1.302   8.247 -2.2458  0.3236  0.0803
  228MOL0     H30064   4.514   1.109   8.092  1.0788  0.5558 -3.5136
  228MOL0     H30065   4.577   1.224   8.220 -1.9128  0.7471  0.4919
  228MOL0     H30066   4.471   1.409   8.029 -1.1226 -1.0684 -1.3038
  228MOL0     H30067   4.490   1.271   7.934  1.7732 -0.6977 -0.2041
  228MOL0     H30068   4.721   1.404   8.086  0.0093 -2.0767 -0.0385
  228MOL0     H30069   4.724   1.270   7.964  1.3240 -0.2384  0.6948
  228MOL0     H30070   4.675   1.571   7.929 -0.1781  0.5065  1.1209
  228MOL0     H30071   4.591   1.466   7.826 -0.7798  2.1368  0.7461
  228MOL0     H30072   4.812   1.334   7.758  3.6462 -0.4136  0.8223
  228MOL0     H30073   4.893   1.440   7.867 -1.0869  1.1494  0.9232
  228MOL0     H30074   4.848   1.634   7.729  2.7474  0.8473 -2.8653
  228MOL0     H30075   4.904   1.504   7.629  0.9542  2.6719 -0.4390
  228MOL0     H30076   4.606   1.581   7.647 -1.9994  0.8146 -3.5728
  228MOL0     H30077   4.668   1.456   7.559 -1.1954  1.5880 -0.7949
  228MOL0     H30078   4.104   1.137   7.882 -3.6647 -2.6383 -1.2734
  228MOL0     H30079   3.875   1.062   7.932 -0.3949 -2.0375  1.1377
  228MOL0     H30080   3.565   0.947   8.148  1.7546 -0.3389 -2.5105
  228MOL0     H30081   3.324   0.866   8.175  2.5220 -0.9951 -0.2657
  228MOL0     H30082   2.929   0.720   9.140 -2.8407  0.1945 -1.4863
  228MOL0     H30083   3.185   0.730   9.132  1.2211  2.6336 -2.2248
  228MOL0     H30084   3.545   0.601   9.111 -0.5585 -0.6664  0.5981
  228MOL0     H30085   3.789   0.557   9.139  0.4100 -1.0348 -1.2312
  228MOL0     H30086   4.029   0.833   8.897 -1.2631 -0.0999  2.5564
  228MOL0     H30087   4.073   0.688   8.796  2.2743 -3.4179  2.0295
  228MOL0     H30088   4.181   0.757   9.082  1.4310  0.4127  0.1851
  228MOL0     H30089   4.227   0.619   8.967  2.4825  1.0472 -3.0768
  228MOL0     H30090   4.276   0.926   8.912  1.2958 -0.3113 -1.2686
  228MOL0     H30091   4.319   0.783   8.821 -0.8143 -1.7678  0.6775
  228MOL0     H30092   4.498   0.878   8.924 -0.0444  1.0687  0.6431
  228MOL0     H30093   4.437   0.860   9.090  2.6345 -0.3704  0.4459
  228MOL0     H30094   4.588   0.487   8.997 -2.1029 -1.1664 -0.8490
  228MOL0     H30095   3.853   0.770   8.766  1.1578 -0.4212  1.1130
  228MOL0     H30096   3.602   0.808   8.746 -2.2586  0.1031  0.8796
  229MOL0     O30097   3.701   8.547   2.214 -0.2401 -0.5890 -0.6109
  229MOL0     C30098   3.775   8.447   2.216  0.4484 -1.0131  0.7857
  229MOL0     O30099   3.737   8.315   2.208  0.1110  0.2377 -0.1344
  229MOL0     C30100   3.611   8.276   2.223 -0.1602  0.8140 -0.0136
  229MOL0     C30101   3.517   8.331   2.311  0.3121 -0.7015 -0.6780
  229MOL0     C30102   3.382   8.289   2.309 -0.1966  0.0046 -0.1296
  229MOL0     C30103   3.340   8.173   2.239  1.3626  0.2203 -0.6165
  229MOL0     O30104   3.220   8.122   2.245  0.1564 -0.3260  0.6503
  229MOL0     C30105   3.171   8.092   2.369  0.2307  0.5326 -0.8294
  229MOL0     C30106   3.044   8.001   2.378 -0.4032  0.0262 -0.1705
  229MOL0     C30107   3.003   7.993   2.531 -0.2866 -0.3660  0.6867
  229MOL0     C30108   2.890   7.894   2.550  0.0699 -0.2625 -0.2158
  229MOL0     C30109   2.756   7.935   2.498 -0.6006 -0.1425 -0.0593
  229MOL0     C30110   2.654   7.897   2.606 -1.0107  0.2938 -0.4425
  229MOL0     C30111   2.522   7.935   2.557 -0.0055 -0.2306  0.1324
  229MOL0     C30112   2.431   7.937   2.689 -0.6992 -0.5438 -0.2836
  229MOL0     N30113   2.366   7.810   2.707  0.9276  0.6151 -0.9248
  229MOL0     C30114   2.259   7.800   2.798  0.4756  1.1507 -0.1513
  229MOL0     C30115   2.210   7.671   2.780  0.0021  0.8224 -0.7769
  229MOL0     C30116   2.097   7.602   2.852 -0.1470 -0.6067 -0.2371
  229MOL0     C30117   1.990   7.600   2.752  0.5749 -1.1912  0.1280
  229MOL0     C30118   1.856   7.555   2.809 -0.5355  0.4133  0.1137
  229MOL0     C30119   1.735   7.554   2.703  0.5279 -0.0301  0.4898
  229MOL0     O30120   1.647   7.449   2.751 -0.2492 -0.0263 -0.2259
  229MOL0     C30121   1.518   7.448   2.726  0.2882 -0.5624  0.0769
  229MOL0     C30122   1.449   7.339   2.767  0.0513  0.6280  0.0097
  229MOL0     C30123   1.308   7.334   2.736 -0.4093  0.2360 -0.7822
  229MOL0     C30124   1.247   7.429   2.649 -0.0295  0.3476  0.1814
  229MOL0     C30125   1.106   7.420   2.611 -0.6970 -0.6206  0.0413
  229MOL0     O30126   1.036   7.318   2.648  0.3459 -0.5744  0.0092
  229MOL0     C30127   0.905   7.312   2.614  0.4786  0.1878  0.3660
  229MOL0     C30128   0.864   7.313   2.487 -0.2409  0.5219 -0.3966
  229MOL0     C30129   0.729   7.312   2.449  0.0278  0.2260 -0.1258
  229MOL0     C30130   0.632   7.303   2.549  1.0133 -0.4852 -0.4864
  229MOL0     O30131   0.499   7.294   2.514 -0.7510  0.3015 -0.0859
  229MOL0     C30132   0.417   7.215   2.609 -0.2464 -0.6306  0.2841
  229MOL0     C30133   0.275   7.203   2.550  0.2476  0.1316  0.2667
  229MOL0     C30134   0.262   7.171   2.399  0.7191 -1.0341 -0.1971
  229MOL0     C30135   0.109   7.134   2.357 -1.1219  0.0176  0.1341
  229MOL0     C30136   0.075   7.165   2.208  1.1402  0.3933 -0.4330
  229MOL0     C30137  -0.072   7.135   2.182  0.0173 -0.5679 -0.1715
  229MOL0     C30138  -0.106   7.138   2.033  0.0871  0.4064 -0.5681
  229MOL0     C30139  -0.257   7.156   2.000 -0.0730 -0.3265 -0.0151
  229MOL0    Cl30140  -0.324   7.310   2.078 -0.1793  0.2581  0.1246
  229MOL0     C30141   0.678   7.299   2.681 -0.5795  0.3461  0.8468
  229MOL0     C30142   0.814   7.307   2.715  0.4854  0.8009 -0.3654
  229MOL0     O30143   1.068   7.510   2.535  0.0031 -0.3542 -0.6026
  229MOL0     C30144   1.335   7.532   2.605  0.5158  0.2454 -0.3551
  229MOL0     C30145   1.468   7.551   2.641  0.3766  0.1486  0.1432
  229MOL0     N30146   2.296   7.611   2.687 -0.2967 -0.3469 -0.1369
  229MOL0     N30147   2.380   7.695   2.633  0.4060 -0.1002 -0.0923
  229MOL0     C30148   3.430   8.106   2.162 -0.1832  0.5304  0.1226
  229MOL0     C30149   3.560   8.157   2.156 -0.2601  0.0619 -1.2217
  229MOL0     C30150   3.922   8.476   2.228 -0.1486 -0.1471 -0.2476
  229MOL0     C30151   4.025   8.396   2.163 -0.1081 -0.1655  0.1992
  229MOL0     C30152   4.163   8.440   2.163 -0.6120  0.8622 -0.2109
  229MOL0     C30153   4.196   8.561   2.232 -0.4374  0.0329  0.7891
  229MOL0     O30154   4.333   8.579   2.249 -0.8083 -0.0447  0.1591
  229MOL0     C30155   4.380   8.706   2.299 -0.0223  0.2156 -0.0584
  229MOL0     C30156   4.522   8.726   2.250 -0.0208 -0.6959 -0.4689
  229MOL0     C30157   4.570   8.877   2.255 -0.6245  0.5525  1.3275
  229MOL0     C30158   4.696   8.903   2.179 -0.0549 -0.0687 -0.3264
  229MOL0     C30159   4.674   8.888   2.034 -0.5340 -0.3096  0.8236
  229MOL0     C30160   4.659   8.846   1.923 -0.3405  0.5394 -0.9810
  229MOL0     C30161   4.096   8.632   2.302 -0.1022  0.2857 -0.8600
  229MOL0     C30162   3.962   8.589   2.298 -0.0261  0.3704  0.4205
  229MOL0     H30163   3.549   8.409   2.378 -0.6894 -0.8572  0.0063
  229MOL0     H30164   3.314   8.347   2.369  1.4891  0.4438  1.4352
  229MOL0     H30165   3.141   8.187   2.415 -3.1073 -0.5980 -0.4450
  229MOL0     H30166   3.243   8.038   2.432 -0.0905  0.0459 -0.8727
  229MOL0     H30167   3.065   7.899   2.343 -2.3666  0.7940 -4.2038
  229MOL0     H30168   2.964   8.037   2.313 -0.4009 -0.4237 -0.4287
  229MOL0     H30169   2.967   8.091   2.565 -0.8393 -0.7917  1.3496
  229MOL0     H30170   3.084   7.955   2.594  1.2229 -0.7288 -1.3604
  229MOL0     H30171   2.912   7.801   2.497  2.3374  1.0199 -1.7077
  229MOL0     H30172   2.880   7.856   2.653 -3.3905 -1.7495 -0.9746
  229MOL0     H30173   2.732   7.888   2.402 -0.2011  2.1455 -1.3521
  229MOL0     H30174   2.750   8.044   2.493 -0.3741 -0.0610  1.1943
  229MOL0     H30175   2.685   7.939   2.702  0.3272 -1.1711 -0.1758
  229MOL0     H30176   2.663   7.789   2.618 -0.4839  0.0641 -2.4797
  229MOL0     H30177   2.523   8.035   2.514 -0.4986 -0.9184 -1.5776
  229MOL0     H30178   2.483   7.869   2.478  1.6898  0.1551 -1.0895
  229MOL0     H30179   2.350   8.009   2.673  1.4283  2.1781  0.3391
  229MOL0     H30180   2.471   7.970   2.785  0.3363 -1.5529 -0.3400
  229MOL0     H30181   2.210   7.877   2.857 -0.7235  1.3923 -1.4002
  229MOL0     H30182   2.059   7.657   2.938 -0.6458  0.3896 -1.0804
  229MOL0     H30183   2.130   7.505   2.891 -2.7351 -0.3510  3.0604
  229MOL0     H30184   2.021   7.543   2.663  0.4301  0.2174 -0.8558
  229MOL0     H30185   1.967   7.700   2.715 -2.7196 -1.9397 -0.2077
  229MOL0     H30186   1.869   7.455   2.851 -1.1244  0.4848  0.4782
  229MOL0     H30187   1.816   7.618   2.889  1.0823 -1.7252  2.7743
  229MOL0     H30188   1.764   7.539   2.599 -1.6948 -2.8822  0.1420
  229MOL0     H30189   1.688   7.652   2.714 -1.0061 -0.6965  0.1942
  229MOL0     H30190   1.490   7.269   2.839  2.3303  4.8921  3.3774
  229MOL0     H30191   1.254   7.251   2.782  0.4514 -0.4666 -1.0124
  229MOL0     H30192   0.945   7.323   2.415  1.3564 -1.1709  1.0818
  229MOL0     H30193   0.712   7.309   2.342  0.1009  4.6577 -0.4567
  229MOL0     H30194   0.407   7.280   2.696 -0.8880 -1.2184  0.6562
  229MOL0     H30195   0.460   7.115   2.623  1.1136 -0.6130 -2.8271
  229MOL0     H30196   0.235   7.304   2.553 -2.3423 -0.8145  0.2716
  229MOL0     H30197   0.203   7.136   2.599 -2.0202  0.8478 -1.8428
  229MOL0     H30198   0.318   7.080   2.378  0.3298 -0.5465 -4.0094
  229MOL0     H30199   0.295   7.253   2.334 -3.8958 -1.4690 -3.5360
  229MOL0     H30200   0.092   7.032   2.394  0.1208  0.4226  1.9732
  229MOL0     H30201   0.048   7.193   2.426 -0.6959 -1.1739  1.6136
  229MOL0     H30202   0.140   7.093   2.157  3.8581  2.1102  0.4147
  229MOL0     H30203   0.095   7.270   2.188 -0.6165  0.6767 -0.9214
  229MOL0     H30204  -0.138   7.207   2.231 -0.5461  1.0631 -3.0922
  229MOL0     H30205  -0.094   7.035   2.219  0.3761 -0.3451  0.6921
  229MOL0     H30206  -0.059   7.223   1.983  0.3827  0.3341 -0.4193
  229MOL0     H30207  -0.073   7.047   1.982 -2.1346 -0.1893 -1.0565
  229MOL0     H30208  -0.318   7.071   2.031  1.3808 -2.6784 -3.1449
  229MOL0     H30209  -0.272   7.165   1.892  0.3954  4.8230  0.0822
  229MOL0     H30210   0.622   7.289   2.774  0.6291 -0.8035  1.4803
  229MOL0     H30211   0.844   7.306   2.819  3.8222  1.4009 -1.2175
  229MOL0     H30212   1.299   7.607   2.535 -0.8409  0.1478  0.1951
  229MOL0     H30213   1.506   7.649   2.614  0.4500 -0.0255 -0.3962
  229MOL0     H30214   3.398   8.014   2.114 -2.6834  0.8354  1.0451
  229MOL0     H30215   3.630   8.112   2.087  2.1441  1.7333 -0.0106
  229MOL0     H30216   3.988   8.307   2.113 -1.2347  0.8250 -0.7820
  229MOL0     H30217   4.222   8.365   2.112 -3.0233  1.0076 -3.5524
  229MOL0     H30218   4.380   8.703   2.408  2.4746  2.2991  0.1095
  229MOL0     H30219   4.315   8.792   2.278 -0.0316  0.5522  1.2661
  229MOL0     H30220   4.590   8.664   2.308 -1.3203 -2.5883 -0.8857
  229MOL0     H30221   4.530   8.691   2.147  1.4211 -1.4626 -0.1319
  229MOL0     H30222   4.589   8.906   2.359  2.2213 -0.0212  1.0624
  229MOL0     H30223   4.495   8.942   2.209 -1.9085 -1.5145  0.3479
  229MOL0     H30224   4.717   9.008   2.201 -1.0876  0.4248 -1.5299
  229MOL0     H30225   4.779   8.843   2.216  0.7503  0.5668 -1.0703
  229MOL0     H30226   4.656   8.789   1.832  0.8120 -0.4726 -0.4193
  229MOL0     H30227   4.105   8.716   2.370 -2.2227  1.0809 -1.4589
  229MOL0     H30228   3.888   8.658   2.337  0.2984  0.3628  1.0610
  230MOL0     O30229   4.076   4.861   6.077 -0.2147 -0.3217 -0.4184
  230MOL0     C30230   4.178   4.915   6.129 -0.7911  0.0511 -0.3813
  230MOL0     O30231   4.181   5.023   6.220  0.8117 -0.0992  0.4431
  230MOL0     C30232   4.057   5.081   6.260 -0.6692  0.3346  0.3951
  230MOL0     C30233   4.067   5.220   6.279  0.0658 -0.1638 -0.1590
  230MOL0     C30234   3.950   5.301   6.297 -0.0662  0.0294  1.2592
  230MOL0     C30235   3.831   5.234   6.320  0.4256 -0.4667 -0.7046
  230MOL0     O30236   3.730   5.321   6.349  0.6881  0.2829  0.1521
  230MOL0     C30237   3.611   5.257   6.411  0.0525  0.2177  0.6371
  230MOL0     C30238   3.496   5.355   6.412 -1.0437  0.1838 -0.5072
  230MOL0     C30239   3.503   5.478   6.502 -0.7197 -0.6695 -0.3176
  230MOL0     C30240   3.369   5.540   6.515 -0.7601 -0.0051  0.2671
  230MOL0     C30241   3.374   5.677   6.561 -0.0567 -0.2372  0.5429
  230MOL0     C30242   3.238   5.737   6.588  0.7469  0.3238 -0.2880
  230MOL0     C30243   3.174   5.679   6.718 -0.6989 -0.4479  0.8496
  230MOL0     C30244   3.017   5.697   6.742 -0.3321 -0.3308 -0.5321
  230MOL0     N30245   2.995   5.651   6.881  0.5384 -0.0340 -0.6250
  230MOL0     C30246   2.993   5.728   6.995  0.1520 -0.2261  0.1014
  230MOL0     C30247   2.974   5.645   7.096 -1.7003  0.2639  0.0310
  230MOL0     C30248   2.955   5.712   7.231  0.9264  0.4670  0.2867
  230MOL0     C30249   3.024   5.633   7.341 -0.1870  0.1820  0.6396
  230MOL0     C30250   2.974   5.679   7.472 -0.3050  0.4662 -0.8269
  230MOL0     C30251   3.071   5.646   7.594 -1.1508  0.2306 -0.8330
  230MOL0     O30252   3.053   5.509   7.635  0.3002 -0.2767  0.2764
  230MOL0     C30253   2.951   5.487   7.735 -0.1161  0.1422 -0.3504
  230MOL0     C30254   2.960   5.532   7.872 -0.1816  1.6027 -0.1544
  230MOL0     C30255   2.856   5.507   7.962 -0.3754  0.3208  0.3427
  230MOL0     C30256   2.748   5.429   7.926 -0.0042 -0.0243 -0.8912
  230MOL0     C30257   2.640   5.387   8.031  0.8476  0.4316  0.6022
  230MOL0     O30258   2.516   5.368   7.966  0.4029  0.1789 -0.9605
  230MOL0     C30259   2.419   5.323   8.049 -0.5976 -0.9747  0.3915
  230MOL0     C30260   2.419   5.199   8.116 -0.9788  0.7938  0.3326
  230MOL0     C30261   2.312   5.158   8.186 -0.3571  0.0023  0.9150
  230MOL0     C30262   2.201   5.233   8.201  0.5133  0.7805  0.4362
  230MOL0     O30263   2.097   5.190   8.286  0.3452 -0.0151 -1.1242
  230MOL0     C30264   2.031   5.281   8.373 -0.8846  0.0877 -0.1731
  230MOL0     C30265   1.998   5.233   8.509  0.0553  0.2583  0.1317
  230MOL0     C30266   1.908   5.111   8.507  0.2375 -1.9767 -0.2094
  230MOL0     C30267   1.766   5.155   8.482  0.6828 -0.1741  0.5569
  230MOL0     C30268   1.669   5.042   8.552 -0.8108 -0.6277 -0.0678
  230MOL0     C30269   1.528   5.081   8.518 -0.3686 -0.6059 -0.3346
  230MOL0     C30270   1.447   4.971   8.573  1.3163 -0.6173 -0.4668
  230MOL0     C30271   1.306   4.998   8.536  0.9526  0.2892 -0.8480
  230MOL0    Cl30272   1.250   5.162   8.606 -0.1459  0.2429 -0.1756
  230MOL0     C30273   2.196   5.358   8.139  0.3077  1.0572  0.5086
  230MOL0     C30274   2.300   5.400   8.055 -0.7960  1.0333 -0.5282
  230MOL0     O30275   2.664   5.391   8.155 -0.0109  0.1571 -0.4381
  230MOL0     C30276   2.730   5.388   7.791  0.2436 -0.7111  0.3096
  230MOL0     C30277   2.827   5.424   7.694 -1.3255  0.2568  0.4091
  230MOL0     N30278   2.975   5.518   7.042 -0.4357 -0.5613 -0.1840
  230MOL0     N30279   2.983   5.520   6.913  0.3714 -0.2550 -0.2655
  230MOL0     C30280   3.825   5.090   6.312  0.7150 -0.4159  0.0046
  230MOL0     C30281   3.938   5.018   6.273  0.1346 -0.2329 -0.2732
  230MOL0     C30282   4.304   4.855   6.085  0.0483  0.5254  0.6583
  230MOL0     C30283   4.306   4.735   6.004 -0.0777 -0.2874 -0.5954
  230MOL0     C30284   4.437   4.701   5.958  0.8576  0.7341  1.0754
  230MOL0     C30285   4.557   4.770   5.988 -0.1423  0.6293  0.9784
  230MOL0     O30286   4.681   4.727   5.940 -0.5059  0.3144 -0.3948
  230MOL0     C30287   4.796   4.745   6.028 -0.4527 -0.3832 -0.0381
  230MOL0     C30288   4.908   4.642   5.998  0.1879  0.3761  0.2391
  230MOL0     C30289   4.944   4.644   5.852  0.0759 -0.3085  0.2997
  230MOL0     C30290   5.085   4.583   5.826 -0.0087  0.5767  0.3563
  230MOL0     C30291   5.181   4.687   5.875 -0.0938  0.1532 -0.7479
  230MOL0     C30292   5.240   4.775   5.938 -0.6592 -0.3547 -1.5342
  230MOL0     C30293   4.548   4.882   6.073  0.7082 -0.2586 -0.3037
  230MOL0     C30294   4.422   4.924   6.107 -0.2479  0.6168 -0.4713
  230MOL0     H30295   4.163   5.270   6.268 -0.6017  1.0806 -0.4901
  230MOL0     H30296   3.957   5.409   6.292  1.0180 -0.0458  0.7620
  230MOL0     H30297   3.632   5.218   6.511  0.4289 -3.8491 -0.8539
  230MOL0     H30298   3.581   5.169   6.354  0.4167  1.1512 -1.0717
  230MOL0     H30299   3.422   5.289   6.459 -0.9486 -0.3087 -1.0431
  230MOL0     H30300   3.463   5.386   6.313  1.9802 -0.6597 -1.8840
  230MOL0     H30301   3.576   5.549   6.461 -1.0769  2.1427  3.4153
  230MOL0     H30302   3.545   5.449   6.599  1.8277  1.6725 -0.5896
  230MOL0     H30303   3.317   5.546   6.419  0.4743  0.1277 -0.4095
  230MOL0     H30304   3.312   5.483   6.588 -2.0123  0.3267 -0.4204
  230MOL0     H30305   3.427   5.733   6.484 -2.3077  1.2849  0.0100
  230MOL0     H30306   3.427   5.687   6.656  1.2369  0.0583 -0.1754
  230MOL0     H30307   3.163   5.714   6.511  0.8655 -3.1782  0.4400
  230MOL0     H30308   3.242   5.845   6.600  1.5163  0.3044 -0.3446
  230MOL0     H30309   3.204   5.575   6.733  0.8690  0.0186  1.0996
  230MOL0     H30310   3.217   5.733   6.803 -2.2893  3.3304 -0.5458
  230MOL0     H30311   2.965   5.631   6.673 -0.2272  1.3324 -2.2748
  230MOL0     H30312   2.984   5.800   6.733  2.3245  0.7204  0.4753
  230MOL0     H30313   3.004   5.836   6.997  0.8091 -0.2599 -0.9669
  230MOL0     H30314   2.847   5.702   7.245  0.8897 -0.2693 -0.4723
  230MOL0     H30315   2.979   5.819   7.226 -1.9291  1.3077  1.9294
  230MOL0     H30316   3.131   5.656   7.337  0.1367 -0.6636  2.8785
  230MOL0     H30317   3.019   5.524   7.343 -2.9851  0.2295  3.1003
  230MOL0     H30318   2.972   5.788   7.464  0.7453  0.5503 -0.2773
  230MOL0     H30319   2.876   5.634   7.488  0.3330 -0.2414  1.6357
  230MOL0     H30320   3.051   5.712   7.679  1.3355  1.5298 -1.1421
  230MOL0     H30321   3.176   5.661   7.565 -0.4206 -0.8254  1.0982
  230MOL0     H30322   3.039   5.599   7.906 -2.1364  3.2488  1.4020
  230MOL0     H30323   2.874   5.533   8.065  0.8297 -3.0795  1.1148
  230MOL0     H30324   2.498   5.127   8.095 -1.4614  0.4896 -0.5354
  230MOL0     H30325   2.313   5.065   8.242  1.6314 -1.2479 -1.0155
  230MOL0     H30326   1.942   5.314   8.319 -0.2314  0.7531 -0.8619
  230MOL0     H30327   2.100   5.365   8.382 -1.8003  0.7214  1.1009
  230MOL0     H30328   1.948   5.318   8.556 -0.3340 -1.3878  2.9001
  230MOL0     H30329   2.094   5.204   8.554  0.9107  0.5811 -1.3923
  230MOL0     H30330   1.917   5.069   8.607  2.1938 -1.5273 -0.1604
  230MOL0     H30331   1.934   5.030   8.439  0.7243  0.3069 -2.9430
  230MOL0     H30332   1.732   5.249   8.525  1.4748 -1.8259  5.4016
  230MOL0     H30333   1.748   5.154   8.374 -0.7747 -0.0501  0.7722
  230MOL0     H30334   1.679   5.049   8.660 -2.0171 -0.5417  0.0556
  230MOL0     H30335   1.693   4.943   8.512  1.7317 -0.0416 -0.1586
  230MOL0     H30336   1.511   5.082   8.410  0.8455 -1.4555 -0.5614
  230MOL0     H30337   1.499   5.179   8.557 -1.7022 -1.1611  0.1219
  230MOL0     H30338   1.471   4.872   8.533 -4.3384 -2.8387  0.7487
  230MOL0     H30339   1.461   4.971   8.681  2.1393  2.7675 -0.4657
  230MOL0     H30340   1.241   4.915   8.564  0.2607  0.7227 -1.1448
  230MOL0     H30341   1.305   5.003   8.427 -0.3820  2.5387 -0.7946
  230MOL0     H30342   2.100   5.409   8.148 -1.1756 -1.0314 -2.0082
  230MOL0     H30343   2.282   5.488   7.995  1.8327  1.8736 -0.2089
  230MOL0     H30344   2.638   5.339   7.763 -0.1710 -0.2420  0.8221
  230MOL0     H30345   2.824   5.393   7.590 -2.1508 -1.3333  0.8675
  230MOL0     H30346   3.729   5.041   6.325 -0.3844  1.5553 -0.2887
  230MOL0     H30347   3.923   4.914   6.250 -1.7524 -0.7090  2.5578
  230MOL0     H30348   4.218   4.686   5.966  1.0761 -0.3318 -3.4389
  230MOL0     H30349   4.435   4.622   5.883  0.0962  1.4664  0.3057
  230MOL0     H30350   4.773   4.728   6.134 -1.4760  0.3658 -0.1216
  230MOL0     H30351   4.839   4.846   6.020  0.8082 -0.7730  1.3903
  230MOL0     H30352   4.998   4.657   6.058  0.5846  0.7487 -0.4392
  230MOL0     H30353   4.868   4.544   6.028 -0.2446  0.7272  0.8491
  230MOL0     H30354   4.953   4.749   5.824  1.5378  0.3475  2.9171
  230MOL0     H30355   4.875   4.584   5.792 -0.5524 -0.0100  0.7168
  230MOL0     H30356   5.097   4.492   5.885 -2.1882  0.2551  0.3751
  230MOL0     H30357   5.111   4.568   5.721 -0.7157  0.5443  0.1875
  230MOL0     H30358   5.275   4.859   5.993 -3.3677  0.0366 -0.2319
  230MOL0     H30359   4.636   4.941   6.099 -0.1781  0.5546  0.9302
  230MOL0     H30360   4.413   5.014   6.165 -1.7262  2.9604 -3.9868
  231MOL0     O30361   5.248   6.070   4.564  0.1698  0.7873  0.2060
  231MOL0     C30362   5.217   6.098   4.445 -0.4524  0.7190  0.2524
  231MOL0     O30363   5.109   6.044   4.381 -0.5674 -0.9148  0.6926
  231MOL0     C30364   5.048   5.934   4.430 -0.7373  0.4085 -0.3955
  231MOL0     C30365   5.094   5.801   4.398  0.2221 -0.3446 -0.6356
  231MOL0     C30366   5.019   5.696   4.455  0.0166  0.3535  0.2787
  231MOL0     C30367   4.919   5.710   4.548 -0.4027  0.1941 -0.6139
  231MOL0     O30368   4.849   5.605   4.591  0.0412  0.1425  0.1672
  231MOL0     C30369   4.917   5.480   4.609 -0.2846  0.5042 -0.1876
  231MOL0     C30370   4.833   5.386   4.683  0.0890 -0.0592 -0.2936
  231MOL0     C30371   4.717   5.340   4.601  0.0998  0.0637  0.3607
  231MOL0     C30372   4.645   5.211   4.654 -0.2718 -0.1212  0.3787
  231MOL0     C30373   4.579   5.130   4.544 -0.7997  0.3391 -0.3995
  231MOL0     C30374   4.691   5.053   4.477 -0.6793 -1.1279  0.6705
  231MOL0     C30375   4.642   5.011   4.336  0.0417  0.7359 -0.5670
  231MOL0     C30376   4.536   4.891   4.325 -0.4302  0.7641 -0.8954
  231MOL0     N30377   4.572   4.750   4.339 -0.1388 -0.0105  0.0942
  231MOL0     C30378   4.485   4.652   4.355  0.9988  0.6620 -0.2256
  231MOL0     C30379   4.552   4.542   4.306  0.0660 -0.3435 -0.1773
  231MOL0     C30380   4.498   4.403   4.302  0.4369  0.7870 -0.1359
  231MOL0     C30381   4.519   4.324   4.167 -0.4617 -0.5082 -0.8583
  231MOL0     C30382   4.500   4.175   4.184  0.0177 -0.5511 -0.2686
  231MOL0     C30383   4.513   4.097   4.054 -1.0598  0.2548  0.5496
  231MOL0     O30384   4.447   3.969   4.065 -0.2273  0.1581 -0.1444
  231MOL0     C30385   4.320   3.960   4.023 -0.2182  0.1155  0.0600
  231MOL0     C30386   4.294   3.935   3.895 -0.3626 -0.2489  0.2066
  231MOL0     C30387   4.164   3.908   3.853  0.5370  0.1602  0.2589
  231MOL0     C30388   4.060   3.918   3.943  0.3621  0.0649 -0.9972
  231MOL0     C30389   3.932   3.857   3.910 -0.3158  0.4925 -1.2006
  231MOL0     O30390   3.853   3.833   4.014  0.0748 -0.2526  0.1098
  231MOL0     C30391   3.727   3.781   4.013  0.4107 -0.3561  0.2446
  231MOL0     C30392   3.637   3.787   3.900 -0.3026 -0.1756  0.7568
  231MOL0     C30393   3.503   3.740   3.907  0.6320 -0.3795 -0.0905
  231MOL0     C30394   3.463   3.672   4.020  0.3074 -0.5789  0.7052
  231MOL0     O30395   3.339   3.631   4.054  0.4914 -0.2779  0.1043
  231MOL0     C30396   3.264   3.547   3.962 -0.2586 -0.0599 -0.1097
  231MOL0     C30397   3.144   3.481   4.025 -0.5768  0.9191  0.0840
  231MOL0     C30398   3.188   3.357   4.119  0.1754  0.4456  0.0824
  231MOL0     C30399   3.289   3.385   4.238 -0.1445  0.8706  0.7096
  231MOL0     C30400   3.323   3.249   4.297  0.7480  0.1045  0.5503
  231MOL0     C30401   3.449   3.249   4.390 -1.1945  0.0797 -0.0044
  231MOL0     C30402   3.445   3.355   4.502  0.5396 -0.0390  0.5461
  231MOL0     C30403   3.547   3.339   4.611 -0.4726 -0.5121  0.1793
  231MOL0    Cl30404   3.515   3.201   4.722 -0.0315 -0.2094  0.1121
  231MOL0     C30405   3.543   3.659   4.124  0.2159 -0.3572 -1.1165
  231MOL0     C30406   3.674   3.721   4.122 -0.5910 -0.5868 -1.0044
  231MOL0     O30407   3.907   3.833   3.797 -0.1724  0.7278  0.4970
  231MOL0     C30408   4.082   3.958   4.076  0.6907 -0.2651  1.1732
  231MOL0     C30409   4.215   3.973   4.120  0.3569 -0.7822 -0.2050
  231MOL0     N30410   4.667   4.582   4.247 -0.6742  0.1062  0.4205
  231MOL0     N30411   4.683   4.709   4.275 -0.1566  0.0908 -0.2823
  231MOL0     C30412   4.879   5.842   4.576 -0.4629 -0.1589 -0.3531
  231MOL0     C30413   4.941   5.955   4.516 -0.3728 -0.2308  0.4038
  231MOL0     C30414   5.284   6.207   4.365 -0.2874  0.1809 -0.7637
  231MOL0     C30415   5.221   6.292   4.277  0.4714 -0.2551 -0.5043
  231MOL0     C30416   5.299   6.373   4.195 -0.0760  0.1307  0.0775
  231MOL0     C30417   5.441   6.384   4.214  0.9513  0.5690 -0.3181
  231MOL0     O30418   5.498   6.479   4.126  0.5627  0.4224 -0.9088
  231MOL0     C30419   5.639   6.496   4.116 -0.2178 -0.1235  0.0598
  231MOL0     C30420   5.689   6.630   4.060 -0.1485 -0.1846 -0.0700
  231MOL0     C30421   5.627   6.752   4.153 -0.7878 -0.1880 -0.3288
  231MOL0     C30422   5.718   6.794   4.270 -0.6598  0.8353 -0.0217
  231MOL0     C30423   5.846   6.847   4.221 -0.7888  0.2756 -0.1056
  231MOL0     C30424   5.952   6.910   4.223  0.6981  0.1676  0.3893
  231MOL0     C30425   5.500   6.299   4.309 -0.4337 -0.4351 -0.1813
  231MOL0     C30426   5.429   6.200   4.382 -1.0212  0.6155  0.3537
  231MOL0     H30427   5.162   5.775   4.317 -0.8806  0.7076 -1.9557
  231MOL0     H30428   5.045   5.595   4.425 -2.9464 -0.3710 -0.1535
  231MOL0     H30429   5.006   5.500   4.670 -0.2488 -0.2320  0.0093
  231MOL0     H30430   4.943   5.430   4.516  1.0421 -0.7757  0.8284
  231MOL0     H30431   4.809   5.432   4.780 -0.2756 -0.9667  0.0601
  231MOL0     H30432   4.898   5.300   4.699  1.0818  0.1271 -2.8030
  231MOL0     H30433   4.755   5.342   4.498  0.3200  0.2437  0.4435
  231MOL0     H30434   4.640   5.416   4.587  0.9392  1.1674  1.4863
  231MOL0     H30435   4.716   5.149   4.710  0.2410  1.3556  1.4273
  231MOL0     H30436   4.582   5.257   4.731  0.1508  0.2699  0.4962
  231MOL0     H30437   4.522   5.205   4.489 -0.7447  0.5670 -0.1524
  231MOL0     H30438   4.511   5.046   4.560  1.9543 -2.7046 -3.0573
  231MOL0     H30439   4.729   4.969   4.536  1.0102  0.0660  1.3419
  231MOL0     H30440   4.777   5.120   4.471 -0.2662 -1.3924  2.9052
  231MOL0     H30441   4.582   5.098   4.307  0.6773  0.8498 -1.5757
  231MOL0     H30442   4.737   5.002   4.282 -0.8504  2.8975 -2.6542
  231MOL0     H30443   4.497   4.892   4.223 -0.1205 -4.2135 -1.2983
  231MOL0     H30444   4.448   4.916   4.385 -1.6623 -0.4700 -2.1298
  231MOL0     H30445   4.384   4.656   4.393  0.9985 -0.2959 -0.0919
  231MOL0     H30446   4.396   4.389   4.338  1.6215 -1.1883  2.8169
  231MOL0     H30447   4.558   4.346   4.373 -1.8690 -0.2548  1.0736
  231MOL0     H30448   4.623   4.338   4.136 -0.4493 -0.3143 -0.7313
  231MOL0     H30449   4.456   4.363   4.087 -0.9262  0.8033  0.0970
  231MOL0     H30450   4.572   4.123   4.248 -0.4576 -1.4600 -0.4505
  231MOL0     H30451   4.404   4.152   4.230 -0.4225  1.0120 -0.3389
  231MOL0     H30452   4.615   4.078   4.020 -1.3580 -0.1749 -0.1413
  231MOL0     H30453   4.468   4.164   3.980 -1.4000  0.2051  0.7079
  231MOL0     H30454   4.376   3.940   3.823 -0.5297  1.3064  0.0902
  231MOL0     H30455   4.143   3.883   3.749 -2.7116 -0.4532  0.9594
  231MOL0     H30456   3.667   3.827   3.804 -0.3404  1.4533  1.3803
  231MOL0     H30457   3.439   3.740   3.819 -1.6277  2.6087  1.3868
  231MOL0     H30458   3.332   3.468   3.929  1.3002 -0.0250  2.6635
  231MOL0     H30459   3.226   3.598   3.874 -0.3786 -2.0135 -1.2359
  231MOL0     H30460   3.080   3.447   3.942 -1.5528 -1.0786  1.5803
  231MOL0     H30461   3.084   3.552   4.082 -0.5715  0.6986  0.3625
  231MOL0     H30462   3.234   3.287   4.049  1.6842 -0.7966  2.1710
  231MOL0     H30463   3.103   3.315   4.173 -0.9198 -0.0143 -1.9063
  231MOL0     H30464   3.379   3.430   4.193  1.5158  0.6808  3.6243
  231MOL0     H30465   3.250   3.453   4.314  2.7648  0.0912  3.1056
  231MOL0     H30466   3.336   3.170   4.223  0.2797 -2.2989  2.9018
  231MOL0     H30467   3.230   3.217   4.345 -0.4758  0.0089 -1.7359
  231MOL0     H30468   3.531   3.248   4.319 -0.5590 -4.6292  0.4761
  231MOL0     H30469   3.456   3.152   4.442 -0.2482  1.3627  2.4221
  231MOL0     H30470   3.470   3.448   4.450 -0.7879 -0.0305 -0.1120
  231MOL0     H30471   3.344   3.361   4.545  0.6725 -1.7210  1.1983
  231MOL0     H30472   3.541   3.427   4.675 -1.3802  0.6199 -1.3973
  231MOL0     H30473   3.648   3.331   4.568 -0.3505  0.9011  0.1516
  231MOL0     H30474   3.508   3.602   4.210  2.4182 -0.6051 -0.3123
  231MOL0     H30475   3.735   3.719   4.211 -0.0219  1.0802 -1.3330
  231MOL0     H30476   4.003   3.977   4.147 -1.3198 -0.8610 -0.8035
  231MOL0     H30477   4.235   3.983   4.226  3.7444  1.2509 -0.8697
  231MOL0     H30478   4.798   5.844   4.648 -0.3678 -0.3371 -0.2412
  231MOL0     H30479   4.917   6.055   4.549  0.9962  0.7640 -1.4648
  231MOL0     H30480   5.114   6.287   4.256  0.3014  1.7539 -0.2591
  231MOL0     H30481   5.254   6.429   4.114 -2.2349 -1.0579  0.3694
  231MOL0     H30482   5.699   6.423   4.059  3.3184  0.6620  2.4528
  231MOL0     H30483   5.673   6.493   4.220 -1.2245  3.5917  0.6021
  231MOL0     H30484   5.798   6.638   4.051 -0.2787  0.3309 -1.3990
  231MOL0     H30485   5.648   6.633   3.958  0.0274 -2.1633 -0.2429
  231MOL0     H30486   5.521   6.736   4.172 -0.4670 -2.4250 -0.1930
  231MOL0     H30487   5.622   6.840   4.088  0.8972  0.9913  1.0263
  231MOL0     H30488   5.654   6.868   4.318 -2.1302 -1.1662  1.3020
  231MOL0     H30489   5.737   6.706   4.332  1.4308 -1.2917 -3.3465
  231MOL0     H30490   6.046   6.962   4.218  0.7432  0.1320  0.7825
  231MOL0     H30491   5.606   6.305   4.328 -0.5152  1.1005 -0.1382
  231MOL0     H30492   5.491   6.140   4.448 -2.2631 -1.7795 -0.5667
  232MOL0     O30493   7.710   2.490   1.872  0.4357 -0.1027  0.3085
  232MOL0     C30494   7.713   2.599   1.923 -1.0692 -0.2678 -0.8997
  232MOL0     O30495   7.604   2.677   1.943 -0.3852  0.2337 -0.1398
  232MOL0     C30496   7.481   2.633   1.905  0.4406  0.5604  0.9747
  232MOL0     C30497   7.430   2.503   1.921  0.0061  0.3294 -0.5452
  232MOL0     C30498   7.299   2.459   1.883 -0.2051 -1.0022 -0.0453
  232MOL0     C30499   7.208   2.544   1.819  0.2667  0.4846 -0.4114
  232MOL0     O30500   7.086   2.502   1.767  0.6808  0.4652  0.5613
  232MOL0     C30501   7.011   2.598   1.692 -0.3309 -0.8862  0.6866
  232MOL0     C30502   6.887   2.538   1.629 -0.1478  0.1788  0.4602
  232MOL0     C30503   6.775   2.642   1.622 -0.1072 -0.3167 -0.0375
  232MOL0     C30504   6.639   2.567   1.622 -0.4347  0.7357  0.6179
  232MOL0     C30505   6.561   2.593   1.498 -0.8867 -0.2902 -0.1276
  232MOL0     C30506   6.422   2.537   1.497  0.3278 -0.1210  0.0374
  232MOL0     C30507   6.402   2.385   1.502 -0.1581 -0.6589 -0.4410
  232MOL0     C30508   6.444   2.315   1.371 -0.3337 -0.5257  0.2864
  232MOL0     N30509   6.359   2.202   1.333  0.2954 -0.3099 -0.7122
  232MOL0     C30510   6.289   2.203   1.217 -0.3190 -0.0591  0.5660
  232MOL0     C30511   6.247   2.076   1.208 -0.4684  0.2117 -0.3430
  232MOL0     C30512   6.189   2.010   1.095 -0.3913 -0.3077  0.7467
  232MOL0     C30513   6.046   2.054   1.059  0.5086  0.8682 -0.0963
  232MOL0     C30514   6.034   2.166   0.955 -0.3580 -0.2061  0.2781
  232MOL0     C30515   5.892   2.186   0.911  0.3797  0.6636  0.6548
  232MOL0     O30516   5.862   2.310   0.844 -0.1866  0.1798  0.6447
  232MOL0     C30517   5.741   2.324   0.782  0.5117  0.8023 -0.3030
  232MOL0     C30518   5.724   2.333   0.643 -0.0964  0.0221  0.2041
  232MOL0     C30519   5.594   2.321   0.594  0.6351 -0.2304  0.4985
  232MOL0     C30520   5.477   2.313   0.669 -0.8935  0.4242 -0.6720
  232MOL0     C30521   5.342   2.309   0.619  0.6202 -0.4043 -0.3016
  232MOL0     O30522   5.236   2.290   0.698  0.3335 -0.3205 -0.3298
  232MOL0     C30523   5.119   2.239   0.644 -1.1477  0.2632  0.1799
  232MOL0     C30524   5.035   2.307   0.553 -0.1297 -0.8242 -0.1371
  232MOL0     C30525   4.906   2.250   0.529  0.0858 -0.8281  0.1935
  232MOL0     C30526   4.867   2.131   0.591  0.3238  0.2973  0.8019
  232MOL0     O30527   4.748   2.074   0.572  0.5173 -0.6021 -0.4620
  232MOL0     C30528   4.641   2.144   0.499  0.1375  1.1472  0.2584
  232MOL0     C30529   4.508   2.075   0.512  0.3362 -0.0805  0.1108
  232MOL0     C30530   4.418   2.141   0.404  0.1004  0.3568  0.7263
  232MOL0     C30531   4.280   2.070   0.404 -0.4199 -0.9447 -0.0739
  232MOL0     C30532   4.203   2.083   0.272 -0.4063  1.3236  0.4171
  232MOL0     C30533   4.056   2.043   0.280  0.3848  0.1969  0.3057
  232MOL0     C30534   4.036   1.900   0.337 -0.1958 -0.1411  0.6719
  232MOL0     C30535   3.905   1.846   0.306  0.3604 -0.0140  0.3361
  232MOL0    Cl30536   3.761   1.930   0.370  0.4055  0.4923 -0.0438
  232MOL0     C30537   4.953   2.069   0.678 -0.3307  0.2521  0.7229
  232MOL0     C30538   5.081   2.121   0.698 -0.0969 -0.5012 -0.7055
  232MOL0     O30539   5.338   2.316   0.499 -0.1457 -0.3569  0.0124
  232MOL0     C30540   5.496   2.295   0.807  0.5178  0.2629  0.0022
  232MOL0     C30541   5.627   2.291   0.854 -0.0289  0.8071  0.3221
  232MOL0     N30542   6.281   2.003   1.323  0.1387  0.5575 -0.2356
  232MOL0     N30543   6.353   2.079   1.400 -0.1728  0.4371 -0.5733
  232MOL0     C30544   7.254   2.677   1.810 -0.3544  0.0659  0.1403
  232MOL0     C30545   7.384   2.721   1.847 -0.2040  0.2588 -0.3723
  232MOL0     C30546   7.843   2.650   1.968  0.4425 -0.5139 -0.6710
  232MOL0     C30547   7.845   2.771   2.038 -0.0163  0.1707 -0.2978
  232MOL0     C30548   7.965   2.829   2.074  0.5464 -0.0497  0.0696
  232MOL0     C30549   8.084   2.770   2.051  0.2540  0.6936  0.2731
  232MOL0     O30550   8.201   2.838   2.079  0.1963  0.0983 -0.0356
  232MOL0     C30551   8.279   2.890   1.969  0.0974  0.5089  0.5893
  232MOL0     C30552   8.414   2.927   2.020 -0.5233 -0.5009  0.0477
  232MOL0     C30553   8.521   2.932   1.915  0.1148 -0.8295 -0.8356
  232MOL0     C30554   8.654   2.942   1.980  0.0852 -0.1227  0.1442
  232MOL0     C30555   8.762   2.928   1.876  0.2836 -0.3050 -0.8060
  232MOL0     C30556   8.835   2.919   1.783 -0.6955 -0.5074  0.3648
  232MOL0     C30557   8.080   2.648   1.983 -0.2969  0.8624  0.7580
  232MOL0     C30558   7.969   2.582   1.940 -1.1383  0.8411  0.2110
  232MOL0     H30559   7.494   2.432   1.972 -0.8590  1.6804  2.6986
  232MOL0     H30560   7.283   2.352   1.892  1.7999 -1.3321 -0.0106
  232MOL0     H30561   7.073   2.642   1.613 -0.6456  1.5639  1.7151
  232MOL0     H30562   6.984   2.688   1.748  0.4871 -0.7684  0.8988
  232MOL0     H30563   6.855   2.450   1.687  1.1100 -1.8282 -1.6923
  232MOL0     H30564   6.899   2.499   1.528 -2.6265  0.4071 -0.0047
  232MOL0     H30565   6.784   2.714   1.540  0.3218 -0.8352 -0.4510
  232MOL0     H30566   6.767   2.704   1.711 -1.8356 -0.1794 -0.2472
  232MOL0     H30567   6.656   2.459   1.619  3.9204  1.2624 -0.0145
  232MOL0     H30568   6.576   2.597   1.707 -0.2382  1.7847  0.4091
  232MOL0     H30569   6.619   2.557   1.413 -2.2688 -2.1619 -0.3331
  232MOL0     H30570   6.542   2.696   1.464  2.1167  0.2268 -0.4724
  232MOL0     H30571   6.380   2.572   1.402  1.7595  0.4912 -0.4029
  232MOL0     H30572   6.369   2.583   1.580  1.8273 -0.1228  1.0338
  232MOL0     H30573   6.444   2.340   1.592 -1.9790  0.1158  0.8575
  232MOL0     H30574   6.293   2.372   1.512 -0.7367  2.7685 -1.1021
  232MOL0     H30575   6.542   2.270   1.393 -0.3425 -0.9610 -0.5387
  232MOL0     H30576   6.474   2.370   1.282  5.1293 -0.2911  1.8838
  232MOL0     H30577   6.291   2.286   1.148  0.2583 -0.1790  0.4381
  232MOL0     H30578   6.179   1.906   1.129  3.2623 -0.4201  1.8884
  232MOL0     H30579   6.256   2.014   1.008  0.6103 -4.4413  1.1214
  232MOL0     H30580   6.014   2.093   1.156 -0.0034 -0.5146  0.3135
  232MOL0     H30581   5.985   1.966   1.038 -0.3804  0.8073  2.4433
  232MOL0     H30582   6.063   2.259   1.005  0.8474  0.2217 -1.1422
  232MOL0     H30583   6.097   2.149   0.867 -1.6688  0.2822 -0.8087
  232MOL0     H30584   5.829   2.181   1.001  0.1216  0.9623  0.4957
  232MOL0     H30585   5.861   2.103   0.847 -2.1826  1.1421  1.1364
  232MOL0     H30586   5.808   2.359   0.580 -0.2574 -0.0591 -0.0496
  232MOL0     H30587   5.583   2.317   0.486  2.1365  0.4923  0.2969
  232MOL0     H30588   5.071   2.398   0.506 -0.7472 -1.6748 -2.3800
  232MOL0     H30589   4.841   2.312   0.467  1.1264 -0.4663 -0.5666
  232MOL0     H30590   4.674   2.132   0.395 -2.4659  1.4382 -0.6911
  232MOL0     H30591   4.636   2.248   0.532  2.4798  1.0458  1.1110
  232MOL0     H30592   4.464   2.091   0.611 -1.8651  2.8244 -1.1668
  232MOL0     H30593   4.523   1.969   0.493 -3.2808 -0.9484  1.3667
  232MOL0     H30594   4.468   2.139   0.307  1.4735 -0.2979  1.4184
  232MOL0     H30595   4.399   2.244   0.435 -1.8395  0.2374  0.0672
  232MOL0     H30596   4.303   1.966   0.428  0.6574 -0.2403  2.1933
  232MOL0     H30597   4.215   2.109   0.483  0.9744 -0.0546  0.6801
  232MOL0     H30598   4.247   2.008   0.207 -1.9659 -1.0068  1.8520
  232MOL0     H30599   4.213   2.176   0.217  0.2514 -0.0803 -1.9961
  232MOL0     H30600   4.015   2.047   0.179  3.8129  0.1771 -1.2174
  232MOL0     H30601   4.006   2.109   0.351  0.1663  0.8493 -0.4480
  232MOL0     H30602   4.125   1.846   0.303  0.3974  2.3126 -2.0750
  232MOL0     H30603   4.046   1.900   0.446 -0.5500  1.9411  0.7521
  232MOL0     H30604   3.902   1.741   0.339 -2.2190  0.3672  1.5449
  232MOL0     H30605   3.901   1.832   0.198  2.2955  1.9267 -0.0550
  232MOL0     H30606   4.922   1.972   0.717  1.0575 -0.5628 -0.1014
  232MOL0     H30607   5.139   2.060   0.766 -0.5097  2.3589  2.4942
  232MOL0     H30608   5.411   2.287   0.874  1.7895 -1.3922  1.5100
  232MOL0     H30609   5.635   2.264   0.959  1.0151  0.0321  0.0641
  232MOL0     H30610   7.186   2.755   1.778 -0.0551  0.7005  1.0007
  232MOL0     H30611   7.405   2.828   1.850  1.7749 -0.1144  0.2441
  232MOL0     H30612   7.757   2.828   2.066  1.5223  2.3845  0.2906
  232MOL0     H30613   7.961   2.915   2.141  0.7622 -0.8155  1.0930
  232MOL0     H30614   8.226   2.981   1.939  3.3021  2.1514 -0.6097
  232MOL0     H30615   8.282   2.820   1.885  2.8849  0.3872  0.7079
  232MOL0     H30616   8.404   3.033   2.046  0.2103  0.1762 -2.2224
  232MOL0     H30617   8.447   2.862   2.102 -1.6026 -1.1886 -0.0267
  232MOL0     H30618   8.500   3.016   1.850  3.9441 -0.7261 -2.2124
  232MOL0     H30619   8.530   2.837   1.861  2.5534 -1.6058  0.7479
  232MOL0     H30620   8.671   3.037   2.032 -0.8745 -0.8144  1.8065
  232MOL0     H30621   8.662   2.868   2.059  1.6790 -0.3304 -0.1825
  232MOL0     H30622   8.910   2.919   1.706  1.6075 -3.5149  2.4092
  232MOL0     H30623   8.172   2.605   1.944  1.3453  2.4771  2.6033
  232MOL0     H30624   7.977   2.501   1.868 -1.0998  2.3458 -1.5633
  233MOL0     O30625  10.190  10.675   3.532 -0.6541 -0.1130  0.3901
  233MOL0     C30626  10.256  10.767   3.487 -0.1288 -0.3722  0.9839
  233MOL0     O30627  10.197  10.882   3.437  0.9655  0.4165  0.0603
  233MOL0     C30628  10.059  10.889   3.418  0.3001  0.9716  1.1048
  233MOL0     C30629   9.969  10.803   3.344  0.0949  0.2874 -0.0455
  233MOL0     C30630   9.828  10.832   3.336  0.1990  0.2324 -0.0539
  233MOL0     C30631   9.776  10.961   3.373  0.7689  0.0291 -0.3682
  233MOL0     O30632   9.643  10.982   3.360 -0.6166  0.3181  0.4966
  233MOL0     C30633   9.579  11.014   3.483  0.4087  0.4466 -0.0562
  233MOL0     C30634   9.431  10.965   3.467  0.1342 -0.6972  0.3218
  233MOL0     C30635   9.352  11.020   3.585 -0.1512  0.5489  0.2654
  233MOL0     C30636   9.199  10.999   3.557 -0.3090  0.2327  0.0198
  233MOL0     C30637   9.095  11.019   3.669  0.3946 -0.1779 -0.9276
  233MOL0     C30638   9.122  11.139   3.760 -0.6214  0.3768  0.1142
  233MOL0     C30639   8.988  11.168   3.831  0.3283  0.6384 -0.8615
  233MOL0     C30640   8.870  11.224   3.741  0.0173  0.5338  0.6606
  233MOL0     N30641   8.751  11.271   3.819  0.4588  0.5083  0.3250
  233MOL0     C30642   8.655  11.367   3.778 -0.1822  0.2274  0.0256
  233MOL0     C30643   8.561  11.365   3.873  0.5121 -0.2193  0.3005
  233MOL0     C30644   8.448  11.461   3.894 -0.7512 -0.8944  0.2819
  233MOL0     C30645   8.318  11.387   3.947  0.1425 -0.2356  0.8766
  233MOL0     C30646   8.203  11.476   3.997 -0.3533 -0.1063 -1.4113
  233MOL0     C30647   8.072  11.406   4.002 -0.3196  0.4253 -0.0671
  233MOL0     O30648   8.067  11.322   4.122 -0.1561  0.7728  0.4936
  233MOL0     C30649   7.949  11.264   4.150 -0.1972 -0.9841  0.2368
  233MOL0     C30650   7.939  11.207   4.275  0.0195  0.2908  0.1157
  233MOL0     C30651   7.815  11.167   4.325  0.6309  0.4236 -0.7726
  233MOL0     C30652   7.701  11.153   4.243  0.9744  0.5503 -0.5938
  233MOL0     C30653   7.575  11.091   4.292  0.0153  0.3008  0.8705
  233MOL0     O30654   7.487  11.072   4.192 -0.0181 -0.3569  0.2320
  233MOL0     C30655   7.354  11.052   4.212  0.0326  0.5809 -0.5343
  233MOL0     C30656   7.293  10.936   4.253  0.6274  0.5753 -0.1496
  233MOL0     C30657   7.143  10.937   4.270 -0.7379  0.3613 -0.1619
  233MOL0     C30658   7.066  11.051   4.226 -0.7868  1.5515 -0.2694
  233MOL0     O30659   6.927  11.054   4.222 -0.6049  0.0658  0.0156
  233MOL0     C30660   6.853  10.940   4.275 -0.6300 -0.2130 -0.3351
  233MOL0     C30661   6.702  10.953   4.236 -0.6385  0.7715  0.3560
  233MOL0     C30662   6.630  10.855   4.335 -0.0228 -0.5531 -0.6325
  233MOL0     C30663   6.479  10.883   4.331  1.3833  0.2151 -0.5633
  233MOL0     C30664   6.403  10.752   4.361  0.3629 -0.0537 -0.1949
  233MOL0     C30665   6.359  10.672   4.236 -0.0318  0.7284  0.3249
  233MOL0     C30666   6.242  10.565   4.236  0.7149  0.0940  0.4038
  233MOL0     C30667   6.266  10.464   4.119 -0.4073 -0.0782  0.1643
  233MOL0    Cl30668   6.226  10.533   3.969  0.2080  0.3589  0.4072
  233MOL0     C30669   7.133  11.158   4.174  0.8994 -0.8676  0.5629
  233MOL0     C30670   7.274  11.157   4.166  0.0258 -0.2911 -0.6610
  233MOL0     O30671   7.552  11.089   4.414  1.0671  0.1057  0.3387
  233MOL0     C30672   7.711  11.205   4.114  0.0177  0.6558 -0.3481
  233MOL0     C30673   7.831  11.265   4.078 -0.6574 -0.7260  0.0422
  233MOL0     N30674   8.589  11.257   3.957  0.1469 -1.8377  0.0667
  233MOL0     N30675   8.703  11.211   3.929  0.1356  0.1399  0.2496
  233MOL0     C30676   9.868  11.045   3.439 -0.0929 -0.3689 -0.0438
  233MOL0     C30677  10.004  11.010   3.456 -0.0099  0.6842 -0.3169
  233MOL0     C30678  10.399  10.738   3.463 -0.7859  0.2286  0.7811
  233MOL0     C30679  10.480  10.832   3.395 -0.1455 -0.1633 -0.7381
  233MOL0     C30680  10.600  10.808   3.346  0.6752 -0.4042  0.6668
  233MOL0     C30681  10.662  10.692   3.362 -0.0411  0.5058 -0.2700
  233MOL0     O30682  10.780  10.658   3.301  0.1475 -0.0404 -0.0907
  233MOL0     C30683  10.848  10.759   3.225  0.7651  0.2847  0.5569
  233MOL0     C30684  10.969  10.682   3.160  0.0243  0.3937 -0.8944
  233MOL0     C30685  11.073  10.631   3.267 -0.1895  0.6158 -0.2049
  233MOL0     C30686  11.178  10.542   3.194  0.9221  0.2007 -0.4921
  233MOL0     C30687  11.258  10.615   3.091 -0.2501  0.0854  0.0918
  233MOL0     C30688  11.323  10.664   3.003 -0.1972 -0.5821 -0.1719
  233MOL0     C30689  10.591  10.593   3.441 -1.1144  0.5843  0.0704
  233MOL0     C30690  10.464  10.611   3.482  0.2743  0.2244 -0.2457
  233MOL0     H30691  10.014  10.708   3.318  1.2236 -0.2001  3.2396
  233MOL0     H30692   9.757  10.761   3.294 -0.2681  0.3311  0.5649
  233MOL0     H30693   9.588  11.122   3.499 -1.5616  0.5870  0.4310
  233MOL0     H30694   9.631  10.958   3.561 -0.5360  0.4089  0.5717
  233MOL0     H30695   9.440  10.857   3.453  1.7649 -0.8965  2.3600
  233MOL0     H30696   9.381  11.006   3.379  0.8972 -3.4081 -1.4965
  233MOL0     H30697   9.366  11.129   3.590 -4.5008  1.5508 -2.9657
  233MOL0     H30698   9.382  10.958   3.669 -2.5328 -0.8098  0.2062
  233MOL0     H30699   9.178  11.070   3.475  1.6356  1.3826  0.4557
  233MOL0     H30700   9.197  10.894   3.527  3.6573 -0.0387  0.1406
  233MOL0     H30701   9.087  10.931   3.734 -0.3481  0.6633  0.1433
  233MOL0     H30702   8.998  11.019   3.618  1.1488  0.3739 -2.4319
  233MOL0     H30703   9.158  11.230   3.712 -2.5125  1.5516  0.8312
  233MOL0     H30704   9.195  11.094   3.829  0.5447  1.5605 -0.3179
  233MOL0     H30705   8.950  11.081   3.886 -2.0262  0.0052 -3.2444
  233MOL0     H30706   9.012  11.241   3.908 -0.3683  0.1295 -0.1533
  233MOL0     H30707   8.837  11.145   3.673  1.1435 -0.4746  1.2409
  233MOL0     H30708   8.910  11.311   3.688  0.1105  0.4034  0.5168
  233MOL0     H30709   8.667  11.431   3.690  0.3485  0.6871  0.4247
  233MOL0     H30710   8.426  11.516   3.802 -0.5686 -0.0092  0.7567
  233MOL0     H30711   8.485  11.531   3.970 -1.0983 -2.1955  1.6928
  233MOL0     H30712   8.340  11.315   4.027 -0.8603  0.7761  2.1224
  233MOL0     H30713   8.262  11.332   3.871  0.5415 -0.3539  0.6708
  233MOL0     H30714   8.232  11.507   4.098 -1.1181  0.0205 -1.2293
  233MOL0     H30715   8.194  11.565   3.934  0.3971 -0.2714 -1.7738
  233MOL0     H30716   8.078  11.350   3.909  1.8095  0.3714  0.0400
  233MOL0     H30717   7.984  11.471   4.003 -0.0417  0.8906  2.4164
  233MOL0     H30718   8.023  11.199   4.343 -0.1236  2.1459  0.5672
  233MOL0     H30719   7.811  11.113   4.419 -3.1455  0.4586 -0.7719
  233MOL0     H30720   7.357  10.852   4.277  0.5761  0.0912 -1.6171
  233MOL0     H30721   7.088  10.850   4.305 -1.3111  0.8339  0.1319
  233MOL0     H30722   6.882  10.933   4.381 -3.4924 -1.5894  0.4644
  233MOL0     H30723   6.889  10.855   4.216  1.2642 -2.0309  3.0665
  233MOL0     H30724   6.692  10.927   4.130  0.0416  0.1241  0.4423
  233MOL0     H30725   6.668  11.055   4.256  0.3858  1.2042 -0.0726
  233MOL0     H30726   6.671  10.863   4.436  0.3384  3.4099 -0.9383
  233MOL0     H30727   6.647  10.757   4.288  0.6406 -0.0890 -1.4070
  233MOL0     H30728   6.446  10.957   4.405 -0.7223 -0.7165 -0.4897
  233MOL0     H30729   6.443  10.929   4.239  2.5594  2.1279 -0.1223
  233MOL0     H30730   6.311  10.785   4.410 -0.8495 -0.4569 -2.1240
  233MOL0     H30731   6.452  10.687   4.435 -1.7419 -3.6105 -1.6722
  233MOL0     H30732   6.446  10.620   4.195 -1.3829 -1.6497  0.3434
  233MOL0     H30733   6.327  10.740   4.156  1.2456  3.7235  2.1606
  233MOL0     H30734   6.249  10.517   4.334  1.9699  0.5427  0.5526
  233MOL0     H30735   6.144  10.609   4.213  1.5113  0.5364 -2.6155
  233MOL0     H30736   6.201  10.377   4.125 -0.0011 -0.3530  0.6373
  233MOL0     H30737   6.366  10.421   4.105 -0.2694  0.7688 -1.8063
  233MOL0     H30738   7.072  11.244   4.149  1.7772 -0.3269  0.2398
  233MOL0     H30739   7.325  11.241   4.120  0.0613 -1.0656 -2.0985
  233MOL0     H30740   7.632  11.191   4.041 -0.0837 -0.8285  0.0220
  233MOL0     H30741   7.845  11.306   3.979  0.3159 -0.3615  0.3168
  233MOL0     H30742   9.834  11.143   3.469  0.5951 -0.5657  1.4585
  233MOL0     H30743  10.063  11.082   3.512  3.7073 -0.3119 -2.6261
  233MOL0     H30744  10.433  10.929   3.383 -2.0997 -1.2741 -2.9359
  233MOL0     H30745  10.646  10.887   3.288 -1.4853  1.5446  1.4981
  233MOL0     H30746  10.874  10.843   3.290 -2.9832  1.4333  0.8181
  233MOL0     H30747  10.784  10.809   3.152 -0.3321  0.3991  1.5682
  233MOL0     H30748  10.932  10.610   3.087 -1.2372  2.0015 -1.9108
  233MOL0     H30749  11.020  10.752   3.092 -0.0621  0.0409 -1.3233
  233MOL0     H30750  11.025  10.577   3.349  0.3136 -0.0989 -0.3756
  233MOL0     H30751  11.126  10.712   3.319  0.0920  0.7637 -0.7096
  233MOL0     H30752  11.253  10.509   3.267  1.2995  4.1122  1.1273
  233MOL0     H30753  11.119  10.457   3.159 -1.9933  3.0076 -2.9685
  233MOL0     H30754  11.382  10.700   2.921  0.0815 -1.5087 -0.3854
  233MOL0     H30755  10.636  10.496   3.457  0.6589  1.0819 -1.5756
  233MOL0     H30756  10.406  10.532   3.529  1.6439 -0.2706  0.6517
  234MOL0     O30757   4.129  10.222   9.671  0.1886 -1.0550  0.6216
  234MOL0     C30758   4.211  10.265   9.749 -0.5305  0.2275  0.7533
  234MOL0     O30759   4.189  10.284   9.882 -0.5134 -0.1577 -0.1307
  234MOL0     C30760   4.093  10.196   9.933 -0.2160 -0.5056  0.1410
  234MOL0     C30761   4.130  10.097  10.013  0.1296  0.3722  0.0708
  234MOL0     C30762   4.042  10.015  10.081 -0.2032 -0.5742 -0.4027
  234MOL0     C30763   3.908  10.048  10.068 -0.1736 -0.0744 -0.4577
  234MOL0     O30764   3.814   9.960  10.123  0.1289 -0.1949 -0.1740
  234MOL0     C30765   3.704  10.024  10.196 -0.3982 -0.0063  0.2358
  234MOL0     C30766   3.632   9.922  10.265  1.2589  0.6464 -0.4602
  234MOL0     C30767   3.575   9.812  10.169 -0.1767  0.1490 -0.2731
  234MOL0     C30768   3.471   9.732  10.241  0.4079  0.7322  0.5013
  234MOL0     C30769   3.416   9.617  10.159 -0.5592 -0.1964  0.1301
  234MOL0     C30770   3.322   9.659  10.042 -0.5788 -0.5387 -0.7314
  234MOL0     C30771   3.217   9.759  10.082  0.3201 -0.2102 -0.4695
  234MOL0     C30772   3.125   9.784   9.972  0.7057 -0.3465 -0.3167
  234MOL0     N30773   2.989   9.841  10.010 -1.7075  0.1436  0.0788
  234MOL0     C30774   2.926   9.952   9.959 -0.3746 -0.9879  0.4600
  234MOL0     C30775   2.815   9.966  10.029  0.0365  0.3680 -1.1349
  234MOL0     C30776   2.716  10.077  10.018  1.0223 -0.0792  0.0658
  234MOL0     C30777   2.724  10.200  10.113 -0.3171 -0.3452  0.1191
  234MOL0     C30778   2.750  10.153  10.261 -0.0032  0.1094  0.3019
  234MOL0     C30779   2.642  10.083  10.332  0.7335 -0.9043 -0.3173
  234MOL0     O30780   2.676  10.067  10.474  0.0922  0.5498 -0.4520
  234MOL0     C30781   2.576  10.030  10.558 -0.5303 -0.1639  0.8787
  234MOL0     C30782   2.607  10.010  10.687  0.4972  0.4735 -0.6770
  234MOL0     C30783   2.511   9.984  10.788  1.6261  0.5533  0.8196
  234MOL0     C30784   2.378   9.980  10.752 -0.1328  1.0628 -0.1028
  234MOL0     C30785   2.268   9.957  10.842 -0.0339  0.4368 -0.8219
  234MOL0     O30786   2.140  10.004  10.820  0.0570 -0.4473  0.0329
  234MOL0     C30787   2.038   9.949  10.881  0.1242 -0.2002  0.4556
  234MOL0     C30788   2.023   9.817  10.930 -0.1773 -0.3025  0.3390
  234MOL0     C30789   1.901   9.773  10.980 -0.2403 -0.2651 -0.9264
  234MOL0     C30790   1.792   9.866  10.965 -0.0298 -0.3935 -0.3391
  234MOL0     O30791   1.666   9.846  11.000  0.3419  0.9464 -0.5935
  234MOL0     C30792   1.637   9.731  11.083  0.0955 -0.9148 -0.5517
  234MOL0     C30793   1.518   9.767  11.159  1.6498 -0.6109  0.4851
  234MOL0     C30794   1.452   9.651  11.226  0.2094  0.0202 -0.2860
  234MOL0     C30795   1.323   9.677  11.290  0.3460  0.0358 -0.4212
  234MOL0     C30796   1.295   9.557  11.377  0.5583  0.6444  0.0483
  234MOL0     C30797   1.151   9.566  11.432  0.6624 -0.2768  0.8046
  234MOL0     C30798   1.139   9.445  11.526  0.3071  0.3689  0.6855
  234MOL0     C30799   1.007   9.427  11.602 -0.8929 -0.0291  0.0504
  234MOL0    Cl30800   0.979   9.566  11.721  0.2796  0.0273 -0.2920
  234MOL0     C30801   1.811  10.001  10.930  0.1508  0.4257 -0.3207
  234MOL0     C30802   1.933  10.044  10.887 -0.5253  0.2831  0.3472
  234MOL0     O30803   2.300   9.873  10.937  0.1965 -0.6106  0.1389
  234MOL0     C30804   2.341  10.005  10.619 -0.3192  0.4428  1.2675
  234MOL0     C30805   2.442  10.034  10.525  0.4541  0.0461 -0.2243
  234MOL0     N30806   2.803   9.864  10.119  0.4357  0.8574  0.0264
  234MOL0     N30807   2.897   9.776  10.086 -0.0053  0.4511 -0.1594
  234MOL0     C30808   3.867  10.152   9.989 -0.7395 -0.2973 -0.0056
  234MOL0     C30809   3.955  10.223   9.918  0.0792  0.8015  0.1095
  234MOL0     C30810   4.340  10.333   9.700  0.8814  0.3608 -0.2664
  234MOL0     C30811   4.331  10.384   9.571 -0.3255  0.9682  0.3100
  234MOL0     C30812   4.455  10.436   9.532  0.3717 -0.5855 -0.3197
  234MOL0     C30813   4.572  10.430   9.602  0.3979  0.4038  0.9058
  234MOL0     O30814   4.684  10.496   9.554  0.2607 -0.3222  0.0754
  234MOL0     C30815   4.812  10.429   9.554  0.0597  0.6123 -0.7574
  234MOL0     C30816   4.868  10.433   9.410  0.3037  0.1763  0.7876
  234MOL0     C30817   5.008  10.367   9.392 -0.1428  0.2798 -0.0694
  234MOL0     C30818   5.112  10.476   9.412  0.3406 -0.2367  0.9532
  234MOL0     C30819   5.248  10.422   9.421  0.1398 -0.3291  0.9910
  234MOL0     C30820   5.368  10.407   9.443 -0.6951  1.2448  0.0570
  234MOL0     C30821   4.573  10.359   9.715 -0.4048 -0.2934  1.1421
  234MOL0     C30822   4.452  10.320   9.771 -1.5571  0.4764 -0.3951
  234MOL0     H30823   4.232  10.068  10.037 -0.3582 -1.2469  0.3200
  234MOL0     H30824   4.072   9.927  10.138 -0.3526 -0.8822 -0.7892
  234MOL0     H30825   3.641  10.067  10.117 -1.8249 -2.1391  0.1353
  234MOL0     H30826   3.732  10.101  10.269 -1.2429  0.8076 -0.2771
  234MOL0     H30827   3.545   9.968  10.311 -0.8250 -1.2380 -2.2700
  234MOL0     H30828   3.695   9.883  10.346 -0.8130 -0.1286  0.8661
  234MOL0     H30829   3.652   9.739  10.142 -1.6311 -1.3489 -0.5241
  234MOL0     H30830   3.526   9.854  10.081 -1.2301  0.1892  0.3191
  234MOL0     H30831   3.520   9.692  10.330  2.6112 -0.3124 -1.0813
  234MOL0     H30832   3.386   9.788  10.281 -1.3011 -3.7461  4.0737
  234MOL0     H30833   3.371   9.541  10.224  1.4949  0.5677  2.6462
  234MOL0     H30834   3.498   9.557  10.118 -1.7486 -0.5400 -1.8627
  234MOL0     H30835   3.266   9.573  10.003 -1.9491  0.0355 -0.1194
  234MOL0     H30836   3.372   9.691   9.950  1.6018 -1.1754  0.1742
  234MOL0     H30837   3.168   9.714  10.169  0.2349  0.0899 -0.3623
  234MOL0     H30838   3.258   9.854  10.115 -2.0967  0.8258 -0.2386
  234MOL0     H30839   3.091   9.695   9.918  0.0300  0.0547 -0.5789
  234MOL0     H30840   3.170   9.847   9.894 -2.9682  2.1187 -0.7281
  234MOL0     H30841   2.959  10.016   9.878 -1.5506 -0.2431  0.5487
  234MOL0     H30842   2.622  10.022  10.033 -0.2577  1.3332 -2.1809
  234MOL0     H30843   2.711  10.109   9.914  3.0284 -0.3339 -0.1509
  234MOL0     H30844   2.648  10.279  10.113  0.6550  0.6447  1.5659
  234MOL0     H30845   2.811  10.253  10.071 -0.4324 -0.8472 -0.7779
  234MOL0     H30846   2.841  10.092  10.268 -1.1026 -1.7810 -0.9229
  234MOL0     H30847   2.777  10.246  10.311  1.4290  0.9768 -1.9426
  234MOL0     H30848   2.606   9.991  10.285 -0.5180  0.1419 -1.4565
  234MOL0     H30849   2.558  10.153  10.324  1.5634  0.2574  0.7087
  234MOL0     H30850   2.712   9.997  10.707  0.1569 -0.9217  0.4316
  234MOL0     H30851   2.550   9.962  10.887  3.1820 -2.5272 -0.3419
  234MOL0     H30852   2.095   9.736  10.927 -0.4157 -0.5417 -2.7979
  234MOL0     H30853   1.893   9.670  11.014  1.4057 -0.3603 -0.7430
  234MOL0     H30854   1.722   9.709  11.149  0.7539 -0.3556 -1.1898
  234MOL0     H30855   1.621   9.636  11.031 -1.7709 -1.7491  1.3886
  234MOL0     H30856   1.439   9.808  11.094 -0.5452 -1.1909  2.6298
  234MOL0     H30857   1.523   9.856  11.222 -1.8070  1.3543 -1.6510
  234MOL0     H30858   1.523   9.634  11.307 -0.5052 -0.8346  0.1686
  234MOL0     H30859   1.455   9.561  11.163  3.5894  1.6296 -2.8133
  234MOL0     H30860   1.309   9.774  11.339  0.3577  0.1418 -0.6254
  234MOL0     H30861   1.238   9.678  11.221 -1.4093  2.6828  1.5737
  234MOL0     H30862   1.369   9.561  11.457 -0.9718 -0.4556  1.5650
  234MOL0     H30863   1.307   9.465  11.320  3.1088  1.7211 -1.3353
  234MOL0     H30864   1.083   9.561  11.346  1.6257 -2.6722  0.1152
  234MOL0     H30865   1.130   9.653  11.496  2.3573  0.1702  0.8123
  234MOL0     H30866   1.153   9.348  11.477 -0.5653  1.8367 -2.7984
  234MOL0     H30867   1.210   9.449  11.609 -2.0553  1.6157  2.7797
  234MOL0     H30868   0.995   9.328  11.646 -1.5665 -0.4706 -1.0726
  234MOL0     H30869   0.936   9.448  11.522  0.9323 -0.5329 -1.8123
  234MOL0     H30870   1.731  10.075  10.937  0.4302  0.7116 -0.1469
  234MOL0     H30871   1.942  10.151  10.868 -0.9487  0.4496  1.0724
  234MOL0     H30872   2.234  10.009  10.601 -0.1873 -0.5864  0.1447
  234MOL0     H30873   2.404  10.059  10.426 -0.3266 -0.8429 -0.1616
  234MOL0     H30874   3.764  10.185   9.979 -0.6612  0.2283  0.7520
  234MOL0     H30875   3.924  10.297   9.845  0.5817  0.4100 -0.5080
  234MOL0     H30876   4.238  10.391   9.516 -1.9648  0.8291  2.9141
  234MOL0     H30877   4.470  10.484   9.436  1.1520 -0.1865 -0.0044
  234MOL0     H30878   4.799  10.323   9.580  2.2593  0.3430 -0.5411
  234MOL0     H30879   4.885  10.471   9.624 -0.5381 -0.7293  0.7428
  234MOL0     H30880   4.787  10.392   9.349 -0.5560  0.4070  1.7401
  234MOL0     H30881   4.881  10.538   9.383  3.7836 -0.3224  0.0929
  234MOL0     H30882   5.025  10.317   9.296 -2.3344 -2.5186  0.8315
  234MOL0     H30883   5.026  10.290   9.468  2.3294  1.5317  0.7160
  234MOL0     H30884   5.099  10.554   9.336 -0.3179 -2.0554 -0.9015
  234MOL0     H30885   5.092  10.522   9.509  1.1031 -0.8148  1.3974
  234MOL0     H30886   5.469  10.379   9.466 -0.2051  0.5584 -2.5469
  234MOL0     H30887   4.656  10.343   9.783 -0.4077  1.8446  1.7255
  234MOL0     H30888   4.459  10.294   9.877  1.8033  1.2819 -0.2939
  235MOL0     O30889   0.888   5.278   8.317  0.2247  0.5084  0.2152
  235MOL0     C30890   0.933   5.243   8.207  0.8666 -0.2483 -0.1443
  235MOL0     O30891   0.941   5.335   8.099 -0.6573 -0.6144 -0.1217
  235MOL0     C30892   0.870   5.444   8.108 -0.1073  0.5423  0.1265
  235MOL0     C30893   0.790   5.475   8.000  1.0603 -0.6334 -0.7036
  235MOL0     C30894   0.689   5.576   8.014  0.5451 -0.3372  0.2938
  235MOL0     C30895   0.687   5.665   8.114  0.2654 -0.2593  0.7379
  235MOL0     O30896   0.594   5.773   8.115  0.3471  0.0538  1.0105
  235MOL0     C30897   0.643   5.900   8.164  1.4099  0.4039 -0.0374
  235MOL0     C30898   0.530   5.993   8.113 -0.3451  0.3610 -0.0884
  235MOL0     C30899   0.394   5.976   8.191  0.5866  0.5232  0.4134
  235MOL0     C30900   0.275   6.010   8.114 -0.2166  1.0410  0.0225
  235MOL0     C30901   0.140   5.992   8.189 -0.6789  0.2773  0.1871
  235MOL0     C30902   0.094   6.106   8.283 -0.5652  0.7423 -0.4106
  235MOL0     C30903  -0.049   6.085   8.318  0.8105  0.0115  0.2356
  235MOL0     C30904  -0.105   6.201   8.399 -0.4665 -0.2278 -0.1226
  235MOL0     N30905  -0.249   6.195   8.411 -0.2171  0.4979 -0.7927
  235MOL0     C30906  -0.340   6.145   8.501  0.1572  1.0301  0.2221
  235MOL0     C30907  -0.460   6.187   8.461  0.6566 -0.5678 -1.2951
  235MOL0     C30908  -0.592   6.149   8.503  0.1088 -0.3149  0.1860
  235MOL0     C30909  -0.602   6.026   8.594 -0.3876 -0.0470  0.7009
  235MOL0     C30910  -0.602   5.906   8.496 -0.0229  0.6452 -0.0348
  235MOL0     C30911  -0.628   5.776   8.574 -0.5063  0.8447 -0.3795
  235MOL0     O30912  -0.543   5.775   8.686 -0.2571 -0.3177  0.4760
  235MOL0     C30913  -0.409   5.758   8.660  0.1671  0.3139  0.2762
  235MOL0     C30914  -0.308   5.818   8.740  0.5741  1.2816  0.7529
  235MOL0     C30915  -0.170   5.802   8.717  0.6664  0.8662  0.6980
  235MOL0     C30916  -0.122   5.741   8.595 -0.0348  0.1373  0.2246
  235MOL0     C30917   0.016   5.744   8.559  0.6494 -0.1329 -0.2079
  235MOL0     O30918   0.103   5.782   8.658  0.0071 -0.0338  0.4773
  235MOL0     C30919   0.234   5.746   8.634  0.4578 -0.4137 -0.1715
  235MOL0     C30920   0.305   5.809   8.532 -0.0872  0.9251 -0.1520
  235MOL0     C30921   0.435   5.764   8.513  0.1054 -1.0003  0.3249
  235MOL0     C30922   0.493   5.669   8.595  0.3098  0.5135  0.0982
  235MOL0     O30923   0.625   5.619   8.579 -0.0979  0.2318  0.0462
  235MOL0     C30924   0.649   5.470   8.551  0.2818 -0.0452  0.3589
  235MOL0     C30925   0.789   5.425   8.598  0.3646 -0.0051  0.1713
  235MOL0     C30926   0.795   5.415   8.756 -0.5787 -1.2411 -0.1634
  235MOL0     C30927   0.920   5.347   8.805 -0.2023  0.2714 -0.4239
  235MOL0     C30928   0.916   5.353   8.966  1.4265  0.3577 -0.1538
  235MOL0     C30929   1.037   5.283   9.030 -0.5469 -0.3275 -0.2112
  235MOL0     C30930   1.025   5.131   9.032  1.0815  0.2010 -0.7450
  235MOL0     C30931   0.952   5.077   9.154  0.2089 -0.2159  0.0917
  235MOL0    Cl30932   0.929   4.902   9.134  0.1918  0.0644  0.6611
  235MOL0     C30933   0.419   5.604   8.699 -0.0583  0.0509 -0.4110
  235MOL0     C30934   0.285   5.641   8.709 -0.4421  0.2709  0.8926
  235MOL0     O30935   0.047   5.701   8.450 -0.4221 -0.9305 -0.5060
  235MOL0     C30936  -0.223   5.677   8.524  0.2344  0.6455 -0.0620
  235MOL0     C30937  -0.360   5.678   8.560 -0.1101  0.4363 -1.1538
  235MOL0     N30938  -0.443   6.268   8.352 -0.2232 -0.7675 -0.2336
  235MOL0     N30939  -0.317   6.271   8.324 -0.0202  0.0215 -0.5586
  235MOL0     C30940   0.781   5.639   8.218 -1.7758  0.0365 -0.0339
  235MOL0     C30941   0.871   5.532   8.210 -0.7123 -0.3911  0.5059
  235MOL0     C30942   0.970   5.101   8.191  0.5965 -0.6056  0.1353
  235MOL0     C30943   1.027   5.028   8.292  0.7449  0.4558  0.0835
  235MOL0     C30944   1.057   4.893   8.269  0.5557  0.4420 -0.0204
  235MOL0     C30945   1.043   4.838   8.137  0.0510 -0.3088 -0.3094
  235MOL0     O30946   1.078   4.717   8.108  0.5548  0.2609  0.5246
  235MOL0     C30947   1.211   4.700   8.056 -0.5891 -0.3284  0.4580
  235MOL0     C30948   1.223   4.733   7.908  0.3845 -0.2967  0.8125
  235MOL0     C30949   1.362   4.731   7.863  0.4021 -0.2570  1.3187
  235MOL0     C30950   1.456   4.840   7.907  0.0860  1.1091  0.4430
  235MOL0     C30951   1.428   4.966   7.836 -0.5236  0.0861 -0.0681
  235MOL0     C30952   1.411   5.051   7.761  0.7857 -0.9401 -0.0572
  235MOL0     C30953   0.985   4.908   8.038 -0.3990  0.0771 -0.1881
  235MOL0     C30954   0.948   5.042   8.064  0.4517 -0.3583 -0.6302
  235MOL0     H30955   0.792   5.416   7.909  0.4501 -0.3626 -0.9001
  235MOL0     H30956   0.620   5.607   7.936  2.2869  0.1349 -1.1271
  235MOL0     H30957   0.735   5.936   8.116  0.5477  5.2141  1.3296
  235MOL0     H30958   0.639   5.916   8.272 -1.9397  0.1503 -0.0207
  235MOL0     H30959   0.502   5.974   8.009 -0.0254  1.9079 -0.4795
  235MOL0     H30960   0.572   6.095   8.113  2.5534 -0.6979 -1.9467
  235MOL0     H30961   0.398   6.033   8.284  1.7701  2.5061 -0.7972
  235MOL0     H30962   0.375   5.873   8.223 -0.6648  0.3597 -0.7668
  235MOL0     H30963   0.289   6.112   8.078  1.8162  0.6853 -0.3091
  235MOL0     H30964   0.273   5.950   8.023  1.5813  2.0188 -0.7092
  235MOL0     H30965   0.140   5.901   8.250 -1.8228  1.2234  1.6646
  235MOL0     H30966   0.061   5.993   8.114 -1.4287  1.7351  0.9643
  235MOL0     H30967   0.111   6.201   8.230 -0.7795  0.6782 -0.5961
  235MOL0     H30968   0.152   6.119   8.375  1.0556 -1.8708 -0.9474
  235MOL0     H30969  -0.110   6.074   8.227  0.0581 -1.2609  0.8572
  235MOL0     H30970  -0.060   5.996   8.382  0.5876 -0.0134  0.1655
  235MOL0     H30971  -0.071   6.293   8.350  0.9875 -1.9347 -2.5718
  235MOL0     H30972  -0.060   6.203   8.499  0.1398  1.0797 -0.4003
  235MOL0     H30973  -0.306   6.080   8.581  1.5240  0.4188 -0.8201
  235MOL0     H30974  -0.657   6.139   8.416 -0.8208  0.3243  0.7894
  235MOL0     H30975  -0.644   6.227   8.559 -4.0595 -2.3808 -0.4157
  235MOL0     H30976  -0.695   6.023   8.652  0.5082 -2.9040  2.2051
  235MOL0     H30977  -0.526   6.028   8.673 -1.1342  2.4894  1.4441
  235MOL0     H30978  -0.673   5.926   8.415 -0.8014 -2.8137 -0.3641
  235MOL0     H30979  -0.505   5.892   8.448  1.1224  3.1192  1.3270
  235MOL0     H30980  -0.621   5.689   8.508 -2.7459  1.5287 -1.6111
  235MOL0     H30981  -0.733   5.780   8.603 -0.4227 -0.5903  0.2163
  235MOL0     H30982  -0.326   5.885   8.824  0.0911  1.5461  0.4426
  235MOL0     H30983  -0.098   5.846   8.785  0.5032  0.3605  1.2059
  235MOL0     H30984   0.263   5.898   8.486 -0.4619  0.5856 -0.4756
  235MOL0     H30985   0.489   5.809   8.430 -2.4228 -0.3993 -1.1060
  235MOL0     H30986   0.642   5.454   8.443  0.1663 -2.5296  0.6861
  235MOL0     H30987   0.578   5.401   8.597 -1.7961  1.5147 -0.3375
  235MOL0     H30988   0.868   5.483   8.551  0.3172 -1.7834 -2.2708
  235MOL0     H30989   0.800   5.324   8.559  2.5718 -0.1809  1.1367
  235MOL0     H30990   0.706   5.374   8.804 -1.1126  1.5869  1.5053
  235MOL0     H30991   0.800   5.519   8.791 -1.9826 -0.9146 -0.8605
  235MOL0     H30992   0.910   5.246   8.763  1.7144 -0.9724  1.8473
  235MOL0     H30993   1.008   5.404   8.774  1.9631 -0.6802  3.3033
  235MOL0     H30994   0.826   5.302   9.004  0.8371 -0.0287 -1.9613
  235MOL0     H30995   0.912   5.460   8.988  0.2078  0.4550 -0.7579
  235MOL0     H30996   1.038   5.319   9.133 -0.1005 -0.2608 -0.2395
  235MOL0     H30997   1.126   5.317   8.976 -1.2144 -0.5898 -1.5321
  235MOL0     H30998   0.949   5.107   8.957 -1.8077  0.5672  1.8803
  235MOL0     H30999   1.119   5.080   9.007  0.6199 -0.8442 -0.3989
  235MOL0     H31000   0.850   5.117   9.161  0.2798 -0.0997  0.4705
  235MOL0     H31001   1.007   5.098   9.246  0.4143 -0.1102 -0.0556
  235MOL0     H31002   0.460   5.518   8.750 -3.8671 -1.5336  0.3102
  235MOL0     H31003   0.219   5.597   8.783 -1.0693  0.0076  0.2044
  235MOL0     H31004  -0.202   5.618   8.435 -0.4259 -2.0697  1.4811
  235MOL0     H31005  -0.422   5.612   8.500  0.5195 -2.5491  1.2122
  235MOL0     H31006   0.784   5.703   8.305 -2.1105 -0.9804  0.7444
  235MOL0     H31007   0.939   5.511   8.292  2.2321 -1.9419 -2.1112
  235MOL0     H31008   1.037   5.077   8.388 -1.4612  1.7453 -0.2834
  235MOL0     H31009   1.105   4.832   8.346  1.1655 -0.8597 -1.3893
  235MOL0     H31010   1.244   4.600   8.085  0.6230  0.3223  1.4208
  235MOL0     H31011   1.282   4.763   8.110 -0.6871 -1.5275  2.0806
  235MOL0     H31012   1.163   4.660   7.853 -0.4486  1.6392 -1.0181
  235MOL0     H31013   1.184   4.834   7.889 -1.3075 -0.5310  2.6586
  235MOL0     H31014   1.357   4.732   7.754 -0.1294 -1.7372  1.3095
  235MOL0     H31015   1.418   4.642   7.896  1.3964  0.0291  0.4428
  235MOL0     H31016   1.443   4.851   8.015 -2.6452  0.2215  0.2915
  235MOL0     H31017   1.559   4.816   7.880 -0.5439  1.4330 -2.6429
  235MOL0     H31018   1.392   5.139   7.703  1.3453 -0.5917  0.2850
  235MOL0     H31019   0.961   4.866   7.941  0.0240  2.3531 -1.3534
  235MOL0     H31020   0.890   5.103   7.996  0.2215  1.8867  1.4249
  236MOL0     O31021   0.868   8.590   9.001 -0.0950 -0.2775  0.0546
  236MOL0     C31022   0.906   8.695   8.953 -1.3557 -0.3108  0.1893
  236MOL0     O31023   0.828   8.788   8.891  0.6941  0.1392 -0.8977
  236MOL0     C31024   0.690   8.780   8.901 -0.0311 -0.7226 -0.0861
  236MOL0     C31025   0.619   8.657   8.879  0.0018 -0.5735  0.5709
  236MOL0     C31026   0.476   8.660   8.877  0.7740 -0.4656  0.4164
  236MOL0     C31027   0.405   8.780   8.894 -0.2693  0.0909 -0.8187
  236MOL0     O31028   0.269   8.788   8.871 -0.8849  0.0399  0.0677
  236MOL0     C31029   0.189   8.794   8.990 -0.2844  0.5179  0.0100
  236MOL0     C31030   0.056   8.715   8.979  0.1960 -0.6767 -0.5133
  236MOL0     C31031  -0.053   8.792   8.924  0.0810  0.1233  0.6257
  236MOL0     C31032  -0.179   8.702   8.918 -0.2412  0.1747  0.2110
  236MOL0     C31033  -0.308   8.770   8.860 -0.3443  0.5847 -1.2585
  236MOL0     C31034  -0.286   8.841   8.733  0.3430 -0.4527 -0.1304
  236MOL0     C31035  -0.419   8.893   8.666 -0.4089 -0.0129 -0.8257
  236MOL0     C31036  -0.502   8.780   8.603 -0.5672 -0.3647  0.1654
  236MOL0     N31037  -0.635   8.837   8.566 -0.0528  0.3713 -0.4250
  236MOL0     C31038  -0.696   8.850   8.442 -0.3541 -0.3872 -1.4634
  236MOL0     C31039  -0.819   8.895   8.443  0.6427  0.7843 -0.6516
  236MOL0     C31040  -0.922   8.894   8.327 -0.9383 -0.2666 -0.5047
  236MOL0     C31041  -0.997   8.754   8.319  0.3975  0.6506 -0.0828
  236MOL0     C31042  -1.097   8.744   8.212 -0.1765  0.2328 -0.1886
  236MOL0     C31043  -1.117   8.597   8.185 -0.4771  0.0587  0.2524
  236MOL0     O31044  -1.222   8.583   8.082 -0.7425  0.1268  0.1675
  236MOL0     C31045  -1.284   8.465   8.069  0.4052 -0.1034  0.1350
  236MOL0     C31046  -1.426   8.464   8.045 -0.9102 -0.8355 -0.0473
  236MOL0     C31047  -1.490   8.351   8.014 -0.5668 -0.4850  0.8232
  236MOL0     C31048  -1.425   8.224   8.022  0.5201 -0.2870  0.9829
  236MOL0     C31049  -1.495   8.098   7.986  0.6466  0.4477  0.6471
  236MOL0     O31050  -1.623   8.112   7.952 -0.1953  0.1404  0.8176
  236MOL0     C31051  -1.686   8.000   7.918 -0.2372 -0.4878  0.6991
  236MOL0     C31052  -1.745   7.998   7.792  0.4845 -0.2005 -0.5317
  236MOL0     C31053  -1.822   7.883   7.748  0.3154  0.4371  0.4303
  236MOL0     C31054  -1.845   7.781   7.832  0.8206 -0.4834 -0.0217
  236MOL0     O31055  -1.911   7.670   7.776 -0.5719  0.0752 -0.6374
  236MOL0     C31056  -1.931   7.555   7.850 -0.7559 -0.8625 -0.0285
  236MOL0     C31057  -2.062   7.497   7.797 -0.6716  0.0860  0.1268
  236MOL0     C31058  -2.091   7.367   7.873 -0.4064  0.0783  0.2274
  236MOL0     C31059  -2.225   7.304   7.838 -0.2742 -0.4615  0.3200
  236MOL0     C31060  -2.248   7.174   7.894 -0.2058  0.1399 -0.3777
  236MOL0     C31061  -2.384   7.130   7.847  0.1219 -0.5353  0.2028
  236MOL0     C31062  -2.426   7.015   7.938 -1.2656 -0.2260  0.3311
  236MOL0     C31063  -2.562   6.975   7.884 -0.4988 -0.7968  0.0596
  236MOL0    Cl31064  -2.611   6.826   7.961  0.3668  0.2224 -0.1591
  236MOL0     C31065  -1.789   7.786   7.960  0.0659 -0.5335  1.1634
  236MOL0     C31066  -1.695   7.888   7.992  0.6632  0.5434 -0.3202
  236MOL0     O31067  -1.430   7.993   7.997 -0.7506 -0.0477  0.0913
  236MOL0     C31068  -1.295   8.226   8.049 -0.0596 -0.3690  0.6058
  236MOL0     C31069  -1.223   8.337   8.069  1.1902 -0.6889  0.4159
  236MOL0     N31070  -0.841   8.906   8.585  1.1783 -0.5952  0.0204
  236MOL0     N31071  -0.735   8.873   8.655  0.7811 -0.4978 -0.0321
  236MOL0     C31072   0.478   8.893   8.933  0.4669 -0.5082  0.8331
  236MOL0     C31073   0.617   8.894   8.941 -0.9566 -0.2008 -0.7181
  236MOL0     C31074   1.051   8.721   8.968  0.1300  0.5242 -0.7252
  236MOL0     C31075   1.132   8.646   9.054  0.0575  0.0763 -0.5512
  236MOL0     C31076   1.263   8.677   9.065 -0.3290  0.8183  0.1136
  236MOL0     C31077   1.327   8.762   8.969  0.4933 -0.2218 -0.2998
  236MOL0     O31078   1.460   8.779   8.971  0.0846 -0.1526 -0.0593
  236MOL0     C31079   1.537   8.688   8.889 -0.7835  0.0434 -0.3098
  236MOL0     C31080   1.681   8.668   8.921 -0.4220 -1.1493  0.3027
  236MOL0     C31081   1.773   8.785   8.887  0.3767 -0.3612  0.3205
  236MOL0     C31082   1.919   8.752   8.931  0.8056 -0.2318 -0.4556
  236MOL0     C31083   1.984   8.883   8.961 -0.0867 -0.0936  0.1042
  236MOL0     C31084   2.047   8.984   8.998 -0.4129  0.0960 -0.5349
  236MOL0     C31085   1.249   8.827   8.877 -0.1382  0.5483  0.1029
  236MOL0     C31086   1.109   8.814   8.879  0.0252  0.0354 -0.7158
  236MOL0     H31087   0.674   8.565   8.864 -3.4509 -2.7814  0.3424
  236MOL0     H31088   0.416   8.573   8.852 -0.1109 -0.9432  3.7105
  236MOL0     H31089   0.164   8.898   9.015 -1.5605  0.0177  0.8940
  236MOL0     H31090   0.239   8.759   9.081  0.2180 -2.8109 -1.4160
  236MOL0     H31091   0.027   8.692   9.082 -1.8505  3.8472  0.1807
  236MOL0     H31092   0.077   8.623   8.924  2.3730 -1.1788  1.0262
  236MOL0     H31093  -0.034   8.832   8.824 -4.4836  2.4767  0.4573
  236MOL0     H31094  -0.080   8.871   8.994  1.9399 -1.1505  2.9592
  236MOL0     H31095  -0.152   8.612   8.863 -1.0605  1.1943 -2.0071
  236MOL0     H31096  -0.218   8.676   9.016 -1.0983 -0.1599 -0.2056
  236MOL0     H31097  -0.351   8.843   8.930  1.1671  3.2933 -2.9626
  236MOL0     H31098  -0.382   8.691   8.844 -1.5079  1.9386 -2.9025
  236MOL0     H31099  -0.235   8.770   8.667 -2.1188  0.7297 -3.6291
  236MOL0     H31100  -0.226   8.930   8.753 -0.0819  0.7680 -3.5254
  236MOL0     H31101  -0.482   8.944   8.739 -0.4877 -1.5317  0.1960
  236MOL0     H31102  -0.402   8.968   8.588 -1.6064 -0.1974 -1.2956
  236MOL0     H31103  -0.518   8.701   8.677 -1.5461  1.8023  2.4082
  236MOL0     H31104  -0.441   8.735   8.523  3.0518  1.1338  1.8462
  236MOL0     H31105  -0.646   8.804   8.357 -0.3706  0.3838 -1.9010
  236MOL0     H31106  -0.867   8.915   8.235  1.0522  1.8040  1.0316
  236MOL0     H31107  -0.988   8.980   8.339 -1.3733 -0.8882  2.3262
  236MOL0     H31108  -1.057   8.734   8.408 -0.9083 -0.4557 -1.1734
  236MOL0     H31109  -0.921   8.675   8.311 -0.2193  0.1379 -1.0784
  236MOL0     H31110  -1.193   8.788   8.241 -0.2365  1.6203 -2.2912
  236MOL0     H31111  -1.072   8.805   8.125 -1.6581  2.1259  0.6195
  236MOL0     H31112  -1.151   8.554   8.279 -1.9613  0.9511  0.1595
  236MOL0     H31113  -1.016   8.571   8.153 -0.6945 -2.6781  1.5179
  236MOL0     H31114  -1.474   8.559   8.065  0.9094  0.2433 -0.4932
  236MOL0     H31115  -1.597   8.351   7.994 -0.8902  0.6078  2.3855
  236MOL0     H31116  -1.739   8.085   7.726  0.3080 -1.6378 -2.5445
  236MOL0     H31117  -1.870   7.871   7.651  0.1083 -0.9792  0.6894
  236MOL0     H31118  -1.938   7.571   7.958  0.3098  1.3079 -0.2368
  236MOL0     H31119  -1.840   7.494   7.838  0.6769  1.3734 -1.1647
  236MOL0     H31120  -2.061   7.493   7.688 -1.5535  2.8616 -0.0401
  236MOL0     H31121  -2.137   7.568   7.832 -0.9043 -0.4314  0.6957
  236MOL0     H31122  -2.096   7.388   7.980  0.1869  0.2601  0.2237
  236MOL0     H31123  -2.014   7.296   7.843  1.1191  0.5219  2.7623
  236MOL0     H31124  -2.304   7.376   7.861  0.9305  0.8351  0.5346
  236MOL0     H31125  -2.235   7.299   7.729 -1.7437  3.1181  0.1389
  236MOL0     H31126  -2.266   7.184   8.002 -2.7757  0.4989 -0.7694
  236MOL0     H31127  -2.169   7.101   7.879  2.5460  2.5511  1.3260
  236MOL0     H31128  -2.393   7.094   7.744 -0.7753 -0.1195  0.1231
  236MOL0     H31129  -2.454   7.211   7.868  2.6086  1.1753  2.5997
  236MOL0     H31130  -2.352   6.935   7.941 -0.9474  0.0267  4.3070
  236MOL0     H31131  -2.432   7.049   8.042  2.5689  0.7093  0.3772
  236MOL0     H31132  -2.550   6.936   7.782 -0.9403 -3.4800  0.9460
  236MOL0     H31133  -2.628   7.062   7.880 -0.1720 -0.5768 -1.0901
  236MOL0     H31134  -1.792   7.701   8.028  0.5117 -0.6723  1.0116
  236MOL0     H31135  -1.636   7.885   8.083  1.3965  0.6637 -0.7829
  236MOL0     H31136  -1.240   8.134   8.037  0.5829  0.2360 -1.5547
  236MOL0     H31137  -1.114   8.338   8.062  1.2780  4.3495 -2.4201
  236MOL0     H31138   0.434   8.991   8.946 -0.1948 -0.6157 -0.4154
  236MOL0     H31139   0.683   8.978   8.961 -1.6876 -0.1878  2.1410
  236MOL0     H31140   1.097   8.555   9.103  1.5843 -0.9735 -1.3017
  236MOL0     H31141   1.329   8.626   9.134 -2.1529  0.8725  1.9929
  236MOL0     H31142   1.523   8.706   8.782  1.3403  1.3878 -0.3966
  236MOL0     H31143   1.492   8.592   8.919 -2.7778  1.3222  0.9997
  236MOL0     H31144   1.699   8.660   9.029  0.2373 -1.8094  0.1516
  236MOL0     H31145   1.715   8.577   8.872  0.0185 -1.8480  1.8292
  236MOL0     H31146   1.743   8.869   8.949 -0.6790 -3.5397  4.6224
  236MOL0     H31147   1.771   8.818   8.782  0.3796  3.4443  1.3785
  236MOL0     H31148   1.913   8.684   9.016 -0.8370 -0.1168 -0.4451
  236MOL0     H31149   1.973   8.702   8.850  0.9710  0.7342 -0.9623
  236MOL0     H31150   2.110   9.059   9.042 -2.3165  1.4879 -0.0050
  236MOL0     H31151   1.308   8.889   8.809 -0.0579  0.6749  0.2872
  236MOL0     H31152   1.053   8.874   8.808 -1.6067  0.1348  0.6121
  237MOL0     O31153   3.125   6.015   6.392  0.4495  0.0064 -0.5376
  237MOL0     C31154   3.210   5.967   6.323 -0.3837  0.7326  0.0773
  237MOL0     O31155   3.185   5.860   6.239 -1.0260 -0.7504 -0.0060
  237MOL0     C31156   3.054   5.812   6.232 -1.1112 -0.3578  0.8839
  237MOL0     C31157   3.014   5.691   6.289  0.0159 -0.1188 -0.2929
  237MOL0     C31158   2.874   5.668   6.281 -0.4429  0.4147  1.2037
  237MOL0     C31159   2.779   5.747   6.215  0.7833  0.4024 -0.3097
  237MOL0     O31160   2.646   5.718   6.196  0.7574  0.5046 -0.4376
  237MOL0     C31161   2.628   5.588   6.128  0.5594 -0.0055  0.2456
  237MOL0     C31162   2.484   5.541   6.140 -0.1014  0.7706 -0.3996
  237MOL0     C31163   2.381   5.635   6.077 -1.0331  0.3493 -0.0629
  237MOL0     C31164   2.248   5.568   6.100 -0.4328 -0.0613  0.2165
  237MOL0     C31165   2.143   5.667   6.047  0.1982 -0.7067  0.0968
  237MOL0     C31166   2.161   5.720   5.902  0.3045 -0.3372 -0.3307
  237MOL0     C31167   2.025   5.773   5.857 -0.2404  0.0946  0.0519
  237MOL0     C31168   2.042   5.842   5.723 -0.0363  0.0154  0.6143
  237MOL0     N31169   2.080   5.756   5.606  1.0190  0.8828 -0.4556
  237MOL0     C31170   1.999   5.649   5.560  0.8497  0.8967 -0.3963
  237MOL0     C31171   2.046   5.610   5.444 -0.8470  0.4122 -0.8932
  237MOL0     C31172   1.987   5.504   5.346 -0.1609  0.1796  0.3522
  237MOL0     C31173   1.887   5.583   5.248 -0.0812  1.4618  0.2869
  237MOL0     C31174   1.749   5.601   5.316  0.3416 -1.1786  0.3141
  237MOL0     C31175   1.663   5.690   5.226  0.2164 -0.4189  0.1832
  237MOL0     O31176   1.523   5.667   5.230 -0.0756  0.3167 -0.3614
  237MOL0     C31177   1.441   5.765   5.187  0.2297 -0.2976 -0.6315
  237MOL0     C31178   1.468   5.899   5.217 -0.9865  0.0770  0.0889
  237MOL0     C31179   1.386   6.006   5.175 -0.6473  0.5735 -0.4094
  237MOL0     C31180   1.269   5.976   5.103  1.4063  0.5553 -0.1000
  237MOL0     C31181   1.168   6.076   5.062 -0.6249  0.1166  0.5309
  237MOL0     O31182   1.048   6.023   5.008 -0.0907 -0.2604  0.5394
  237MOL0     C31183   0.925   6.092   5.011 -0.4626  0.3939 -0.2383
  237MOL0     C31184   0.852   6.085   4.891 -0.4047 -0.8131  0.3900
  237MOL0     C31185   0.740   6.162   4.881  0.3660  0.1231 -0.2700
  237MOL0     C31186   0.702   6.253   4.984  0.7554 -0.3172 -0.2189
  237MOL0     O31187   0.592   6.339   4.972 -0.4086 -0.6361 -0.5129
  237MOL0     C31188   0.607   6.473   4.991  0.5423  0.1629  0.6726
  237MOL0     C31189   0.457   6.536   4.973  0.1763  0.1934  0.1787
  237MOL0     C31190   0.412   6.551   4.827 -0.8345  0.1649 -0.0853
  237MOL0     C31191   0.276   6.606   4.820  0.3455  0.2164  0.0377
  237MOL0     C31192   0.276   6.755   4.857  0.4409 -0.9263  0.4129
  237MOL0     C31193   0.168   6.832   4.785 -0.0058 -0.3548  0.1713
  237MOL0     C31194   0.128   6.967   4.839 -0.1409 -0.0395  0.0990
  237MOL0     C31195  -0.014   7.008   4.780 -0.0859  0.5106 -0.2298
  237MOL0    Cl31196  -0.149   6.946   4.877  0.1493 -0.4436  0.3275
  237MOL0     C31197   0.781   6.255   5.100  0.3169  0.1078 -0.3664
  237MOL0     C31198   0.886   6.175   5.121  0.1128 -0.0760 -0.5448
  237MOL0     O31199   1.177   6.191   5.103  0.4486  0.6376 -0.6516
  237MOL0     C31200   1.249   5.839   5.057 -1.0968 -0.9881  0.1568
  237MOL0     C31201   1.336   5.736   5.097  0.2050 -0.0140 -0.4270
  237MOL0     N31202   2.133   5.707   5.410 -1.5448 -0.6473 -0.7268
  237MOL0     N31203   2.163   5.790   5.510 -0.2468 -0.4441 -0.2548
  237MOL0     C31204   2.824   5.864   6.154 -0.2807  0.8252 -0.1023
  237MOL0     C31205   2.962   5.893   6.170 -0.2196 -0.2813 -0.0713
  237MOL0     C31206   3.344   6.014   6.340 -0.7980 -1.4432 -0.2142
  237MOL0     C31207   3.376   6.123   6.423  0.0701 -0.3475 -0.7122
  237MOL0     C31208   3.514   6.153   6.429 -0.4931  0.3477 -0.0943
  237MOL0     C31209   3.619   6.092   6.364 -0.3981 -0.1421  0.7503
  237MOL0     O31210   3.746   6.125   6.399  0.1249  0.6475 -0.2323
  237MOL0     C31211   3.859   6.080   6.312  0.6276 -0.1407  0.4411
  237MOL0     C31212   3.981   6.161   6.351  0.1129 -0.7317  0.2458
  237MOL0     C31213   4.123   6.095   6.328  0.0299 -0.4009  0.9193
  237MOL0     C31214   4.238   6.199   6.317  0.0034  0.0879 -0.0441
  237MOL0     C31215   4.252   6.256   6.451 -0.4314 -0.1482 -0.5659
  237MOL0     C31216   4.291   6.294   6.563 -0.4085 -0.0584  0.0004
  237MOL0     C31217   3.584   5.986   6.270  0.4199  0.0716 -0.3386
  237MOL0     C31218   3.444   5.949   6.256  0.2543  0.0213 -0.4709
  237MOL0     H31219   3.080   5.619   6.334 -0.9047 -0.8771 -0.1166
  237MOL0     H31220   2.836   5.573   6.317  2.6817  0.0051  3.9994
  237MOL0     H31221   2.712   5.529   6.165  1.5541  2.1252  1.6004
  237MOL0     H31222   2.656   5.607   6.024  0.8989 -0.2840  0.2834
  237MOL0     H31223   2.460   5.541   6.247  0.0462  0.9047 -0.3668
  237MOL0     H31224   2.474   5.440   6.100  0.1634  0.2963  0.7022
  237MOL0     H31225   2.412   5.647   5.973 -2.0964  0.4013 -0.3776
  237MOL0     H31226   2.381   5.730   6.132  3.7623 -0.0640  1.1383
  237MOL0     H31227   2.236   5.474   6.046 -0.6888  0.9061 -1.4912
  237MOL0     H31228   2.226   5.560   6.207  2.1065  0.7968  0.8698
  237MOL0     H31229   2.137   5.760   6.103  0.4615  0.0615 -1.1139
  237MOL0     H31230   2.042   5.624   6.056 -1.0251  1.6807 -1.2766
  237MOL0     H31231   2.196   5.639   5.838  4.4579 -0.3692  1.6573
  237MOL0     H31232   2.235   5.801   5.900  0.1636 -0.2161 -0.8087
  237MOL0     H31233   1.949   5.695   5.844 -1.6802  1.8197 -3.1078
  237MOL0     H31234   1.987   5.847   5.928  1.8405 -1.7924  3.3646
  237MOL0     H31235   2.114   5.924   5.729  3.3972 -2.7263  0.4686
  237MOL0     H31236   1.948   5.883   5.686  0.2713  0.9013  0.7814
  237MOL0     H31237   1.906   5.607   5.599 -0.4977  2.5593 -1.6883
  237MOL0     H31238   1.944   5.424   5.406  0.5225  0.6786  1.5431
  237MOL0     H31239   2.064   5.464   5.280 -0.8844 -1.3343  0.3925
  237MOL0     H31240   1.864   5.518   5.163  2.0763  1.3272 -0.2527
  237MOL0     H31241   1.938   5.669   5.204 -0.1232  1.4123  0.1401
  237MOL0     H31242   1.689   5.513   5.345 -0.1261 -0.5999  1.1650
  237MOL0     H31243   1.763   5.651   5.413  1.3725 -0.2081 -0.3191
  237MOL0     H31244   1.693   5.678   5.121  2.0622 -1.0442  0.7382
  237MOL0     H31245   1.697   5.791   5.248  0.4407 -0.1523 -1.2894
  237MOL0     H31246   1.551   5.928   5.280 -0.6642  2.7657 -1.4332
  237MOL0     H31247   1.417   6.103   5.211 -0.8748  1.2468 -1.9506
  237MOL0     H31248   0.898   6.034   4.807  3.1245  0.0642  1.5831
  237MOL0     H31249   0.672   6.158   4.797  0.0550 -0.3734  0.0017
  237MOL0     H31250   0.663   6.512   4.905 -0.4346  2.2735  0.9220
  237MOL0     H31251   0.652   6.494   5.089  1.8322 -2.7828  0.8026
  237MOL0     H31252   0.466   6.640   5.007  0.3772  1.0473 -2.2611
  237MOL0     H31253   0.387   6.483   5.038  0.1826  0.2963  0.2695
  237MOL0     H31254   0.408   6.455   4.776 -3.0048 -0.2274  0.7065
  237MOL0     H31255   0.483   6.610   4.769 -0.9833  0.1437 -0.2896
  237MOL0     H31256   0.239   6.580   4.720 -1.7349 -1.1801  1.1098
  237MOL0     H31257   0.200   6.551   4.876 -2.4292 -0.2241 -3.7468
  237MOL0     H31258   0.374   6.795   4.830 -0.0204 -0.6284 -0.9409
  237MOL0     H31259   0.262   6.763   4.965 -1.4043 -1.1254  0.2174
  237MOL0     H31260   0.080   6.767   4.779 -1.0165  0.9240  0.7412
  237MOL0     H31261   0.189   6.840   4.678 -4.1705 -1.9782 -0.9557
  237MOL0     H31262   0.131   6.967   4.949 -0.2562 -1.2335  0.1091
  237MOL0     H31263   0.193   7.048   4.804 -2.1023  0.0461 -3.8563
  237MOL0     H31264  -0.020   6.976   4.675  1.3541  0.8061 -0.4264
  237MOL0     H31265  -0.020   7.117   4.773 -0.3151  0.4230 -1.6280
  237MOL0     H31266   0.770   6.324   5.184  3.5928 -0.2438  0.4836
  237MOL0     H31267   0.943   6.173   5.213 -0.9458  1.5027  0.1922
  237MOL0     H31268   1.175   5.811   4.983  0.1343 -1.5208 -0.9032
  237MOL0     H31269   1.330   5.636   5.056 -0.9725  1.2170 -3.4911
  237MOL0     H31270   2.756   5.917   6.087 -1.6544  0.0466  0.6413
  237MOL0     H31271   3.005   5.981   6.121 -1.2181  0.1082 -0.2665
  237MOL0     H31272   3.310   6.182   6.486  1.9528  1.0442  0.0561
  237MOL0     H31273   3.543   6.235   6.494 -1.3355  0.5355  0.0679
  237MOL0     H31274   3.833   6.097   6.207  1.3391  0.6636  0.3872
  237MOL0     H31275   3.869   5.974   6.335 -2.3097 -0.9348 -1.3910
  237MOL0     H31276   3.971   6.254   6.295 -0.1363 -0.4582  0.7289
  237MOL0     H31277   3.979   6.192   6.456 -1.4098  1.7889 -0.4349
  237MOL0     H31278   4.114   6.031   6.240  0.4025  0.8714 -0.0736
  237MOL0     H31279   4.143   6.024   6.409  0.0484 -2.0817 -0.5115
  237MOL0     H31280   4.339   6.167   6.289  1.4907  2.9189  1.5895
  237MOL0     H31281   4.213   6.281   6.248  0.6148  0.1636 -0.1774
  237MOL0     H31282   4.320   6.352   6.648 -0.8785  1.1283 -0.6301
  237MOL0     H31283   3.654   5.929   6.210 -1.8988 -1.7019 -1.5147
  237MOL0     H31284   3.429   5.869   6.185  0.5533  3.7296 -5.2135
  238MOL0     O31285   4.292   3.819   1.328  0.3943  0.1296  0.9860
  238MOL0     C31286   4.331   3.801   1.213  0.4406 -0.0777  0.5468
  238MOL0     O31287   4.278   3.708   1.126  0.2078  0.8145 -0.6642
  238MOL0     C31288   4.159   3.654   1.150  0.1962  0.0288 -0.9147
  238MOL0     C31289   4.057   3.721   1.227  0.0258 -0.5450  0.4490
  238MOL0     C31290   3.923   3.678   1.226  0.2511 -0.3132  0.0214
  238MOL0     C31291   3.889   3.573   1.148  0.5468 -1.0509 -0.1252
  238MOL0     O31292   3.761   3.526   1.160 -0.4184 -0.5202  0.2355
  238MOL0     C31293   3.680   3.498   1.044  0.3288  0.0846 -0.5698
  238MOL0     C31294   3.690   3.351   1.001  0.3738  0.6749 -0.2264
  238MOL0     C31295   3.571   3.311   0.919  0.4297 -0.1964  0.1269
  238MOL0     C31296   3.530   3.413   0.809 -0.4817 -0.3740 -0.7487
  238MOL0     C31297   3.414   3.355   0.730 -0.0594  0.5223  0.1884
  238MOL0     C31298   3.341   3.469   0.649 -0.0980  0.6768 -0.6583
  238MOL0     C31299   3.260   3.401   0.543  0.4806  0.0620  0.5595
  238MOL0     C31300   3.222   3.514   0.436 -0.4714  0.0454 -0.9887
  238MOL0     N31301   3.078   3.505   0.405  0.3377  0.1540 -0.1015
  238MOL0     C31302   3.021   3.422   0.318  0.0974  0.5633  0.2058
  238MOL0     C31303   2.893   3.464   0.297 -0.6419 -0.3494 -0.3089
  238MOL0     C31304   2.806   3.399   0.197 -1.1753 -0.1610  0.6522
  238MOL0     C31305   2.657   3.406   0.224  0.1631 -0.4296 -0.1337
  238MOL0     C31306   2.576   3.335   0.110  0.2135  0.2941 -0.7318
  238MOL0     C31307   2.430   3.370   0.114 -0.3061  0.0446 -0.9171
  238MOL0     O31308   2.353   3.330   0.233 -0.5019  0.2055  0.3517
  238MOL0     C31309   2.229   3.364   0.250  0.5889 -0.7815 -0.1605
  238MOL0     C31310   2.155   3.459   0.177 -0.2233 -0.1451 -0.4910
  238MOL0     C31311   2.024   3.497   0.210 -0.0257 -0.5723  0.5646
  238MOL0     C31312   1.959   3.446   0.320 -0.1631 -0.6457 -0.5568
  238MOL0     C31313   1.836   3.504   0.375  0.5110 -0.2351 -0.7035
  238MOL0     O31314   1.801   3.622   0.324 -0.6366 -0.5033 -0.0097
  238MOL0     C31315   1.668   3.668   0.344  0.3331  0.2347  0.0790
  238MOL0     C31316   1.560   3.577   0.332  0.2744 -0.1877 -0.2575
  238MOL0     C31317   1.431   3.619   0.361  0.1986  0.1003 -0.5115
  238MOL0     C31318   1.406   3.750   0.398 -0.1955 -0.1058  0.5560
  238MOL0     O31319   1.279   3.805   0.399 -0.1130  1.4995 -0.9652
  238MOL0     C31320   1.167   3.727   0.358 -0.7343  0.4911 -0.5738
  238MOL0     C31321   1.052   3.812   0.356  0.2485  0.0466 -0.3208
  238MOL0     C31322   0.917   3.747   0.311  0.0409 -0.7023  0.9128
  238MOL0     C31323   0.799   3.846   0.321 -0.2035 -0.4762 -0.1505
  238MOL0     C31324   0.748   3.862   0.470 -0.1046  0.6174  1.1985
  238MOL0     C31325   0.644   3.967   0.475  0.1149 -0.4852 -0.5726
  238MOL0     C31326   0.576   3.975   0.608  0.1802 -0.7978 -0.9849
  238MOL0     C31327   0.478   4.094   0.611  0.8137  0.1543  0.6378
  238MOL0    Cl31328   0.332   4.070   0.507 -0.1489 -0.2642  0.3513
  238MOL0     C31329   1.511   3.840   0.402  0.0233  0.2270  0.8085
  238MOL0     C31330   1.641   3.799   0.379 -0.4435 -0.8079 -0.4826
  238MOL0     O31331   1.776   3.441   0.467 -0.4060 -0.3434 -0.3497
  238MOL0     C31332   2.036   3.353   0.396  0.0361 -0.0169  0.1925
  238MOL0     C31333   2.161   3.309   0.354 -0.2312 -0.1898  0.3094
  238MOL0     N31334   2.872   3.577   0.385 -0.1104  0.5667  0.1937
  238MOL0     N31335   2.983   3.601   0.443  0.6585 -0.3518  0.5557
  238MOL0     C31336   3.989   3.504   1.072 -0.4381  0.2833  0.3184
  238MOL0     C31337   4.124   3.541   1.077 -0.3966 -0.0489 -0.2957
  238MOL0     C31338   4.448   3.881   1.176  0.8558 -0.3164 -0.5636
  238MOL0     C31339   4.552   3.918   1.259 -0.2615 -0.5775 -0.2705
  238MOL0     C31340   4.675   3.985   1.210  0.1730  1.2525  0.2326
  238MOL0     C31341   4.702   3.996   1.072 -1.1186  0.2770 -1.3366
  238MOL0     O31342   4.831   4.048   1.037  0.8397  0.6951  0.0140
  238MOL0     C31343   4.861   4.094   0.903 -0.7486  0.0691 -0.4220
  238MOL0     C31344   5.009   4.118   0.872 -0.5105 -0.3066  0.9797
  238MOL0     C31345   5.072   4.237   0.951 -1.0969 -0.3181 -0.5897
  238MOL0     C31346   5.210   4.271   0.894  0.9632 -0.1527  0.0449
  238MOL0     C31347   5.313   4.347   0.976 -1.1387  0.4568 -0.6698
  238MOL0     C31348   5.404   4.407   1.040  0.4230  1.2515  0.3129
  238MOL0     C31349   4.598   3.956   0.984  0.1105 -0.2161 -0.5704
  238MOL0     C31350   4.473   3.892   1.031  0.1812  0.2591  0.1183
  238MOL0     H31351   4.067   3.800   1.300 -0.5584  0.2179 -0.2641
  238MOL0     H31352   3.851   3.727   1.290 -0.1797  0.2982 -0.9146
  238MOL0     H31353   3.715   3.569   0.968 -1.9781  1.4081 -0.4953
  238MOL0     H31354   3.577   3.531   1.058  0.7925  0.5377  2.5013
  238MOL0     H31355   3.688   3.287   1.089  0.8944 -1.1292 -1.4557
  238MOL0     H31356   3.782   3.329   0.945  0.8247  2.5490 -0.2967
  238MOL0     H31357   3.483   3.302   0.982  1.0781 -1.4985  0.8765
  238MOL0     H31358   3.591   3.216   0.868  1.5129  0.0522  0.0464
  238MOL0     H31359   3.508   3.513   0.847  4.3347  1.0665 -1.1589
  238MOL0     H31360   3.610   3.418   0.734  0.4236  1.1586  0.2805
  238MOL0     H31361   3.338   3.325   0.803  0.3164  0.7598  0.6824
  238MOL0     H31362   3.451   3.282   0.657 -0.9732 -0.5232  0.7450
  238MOL0     H31363   3.411   3.529   0.590  2.4849 -0.3572  1.1291
  238MOL0     H31364   3.291   3.535   0.721  2.6158 -0.0518  2.1547
  238MOL0     H31365   3.318   3.324   0.492  0.7726  2.2316 -2.6580
  238MOL0     H31366   3.171   3.363   0.593 -0.3906 -0.7820 -1.5395
  238MOL0     H31367   3.295   3.515   0.355  3.2808  1.1418  2.0907
  238MOL0     H31368   3.242   3.610   0.484  3.0873  0.5063 -3.0238
  238MOL0     H31369   3.071   3.343   0.264  0.6554  1.1397 -0.1237
  238MOL0     H31370   2.847   3.303   0.164 -1.2980 -0.6978  1.9750
  238MOL0     H31371   2.814   3.470   0.114  0.7446  0.9074  1.6753
  238MOL0     H31372   2.626   3.511   0.238 -1.7874 -0.9520 -0.2111
  238MOL0     H31373   2.642   3.357   0.321 -0.5482  0.2571  0.1206
  238MOL0     H31374   2.618   3.360   0.012 -1.3315 -1.0550 -1.8112
  238MOL0     H31375   2.577   3.226   0.123 -0.1000  0.2115 -1.3439
  238MOL0     H31376   2.385   3.328   0.023  0.1673 -1.0301 -0.6740
  238MOL0     H31377   2.410   3.476   0.097 -2.1926 -0.1264 -0.0639
  238MOL0     H31378   2.201   3.496   0.086 -0.7348  1.5537 -0.0980
  238MOL0     H31379   1.965   3.565   0.149  0.6194 -1.0261 -0.6122
  238MOL0     H31380   1.566   3.473   0.302 -2.3464 -0.4199 -0.2789
  238MOL0     H31381   1.345   3.555   0.345 -0.4534  1.2853 -2.0234
  238MOL0     H31382   1.141   3.646   0.426 -0.8818  1.1723  0.1862
  238MOL0     H31383   1.185   3.685   0.258  0.3192  0.6606 -0.4593
  238MOL0     H31384   1.061   3.899   0.290  0.2060  1.3734  1.3426
  238MOL0     H31385   1.039   3.846   0.459 -3.2070  3.2779 -1.5647
  238MOL0     H31386   0.892   3.660   0.372 -3.0866  1.5048  3.0781
  238MOL0     H31387   0.906   3.709   0.209 -3.5656 -3.8415  2.2228
  238MOL0     H31388   0.831   3.943   0.282  2.0427 -1.0949  0.0030
  238MOL0     H31389   0.711   3.820   0.262 -0.5170 -1.2143  0.6136
  238MOL0     H31390   0.828   3.883   0.541 -0.8332 -1.0918  2.5849
  238MOL0     H31391   0.713   3.761   0.492  2.6130 -0.9304 -0.9112
  238MOL0     H31392   0.572   3.954   0.394 -0.6723 -4.4791  0.5641
  238MOL0     H31393   0.702   4.059   0.462 -1.2582  0.3984 -0.6418
  238MOL0     H31394   0.522   3.882   0.629 -1.2851  0.1866 -0.1774
  238MOL0     H31395   0.652   4.001   0.683 -0.0469  0.5533 -1.1911
  238MOL0     H31396   0.525   4.189   0.584  1.7258  0.9087  4.3740
  238MOL0     H31397   0.433   4.110   0.709 -3.6867 -1.2310 -0.9104
  238MOL0     H31398   1.498   3.944   0.431 -3.6546 -1.0619  4.9211
  238MOL0     H31399   1.722   3.871   0.382 -0.3033 -0.9206 -1.3523
  238MOL0     H31400   1.989   3.312   0.485 -0.5222  0.3684  0.0865
  238MOL0     H31401   2.206   3.236   0.421  3.6106  3.7893  2.5984
  238MOL0     H31402   3.974   3.414   1.014 -1.3815  0.4085  0.3386
  238MOL0     H31403   4.201   3.495   1.016 -0.3981  0.8908 -1.0374
  238MOL0     H31404   4.541   3.901   1.366  1.7092  0.6167  0.1657
  238MOL0     H31405   4.752   3.998   1.284 -0.4912  1.3218  0.9187
  238MOL0     H31406   4.803   4.183   0.882 -0.7575  0.3270  0.6199
  238MOL0     H31407   4.831   4.012   0.837  0.7448 -2.5139  1.8452
  238MOL0     H31408   5.061   4.022   0.877  3.0476  1.0946 -3.3576
  238MOL0     H31409   5.012   4.145   0.767  1.1285 -1.9967  0.5341
  238MOL0     H31410   5.090   4.218   1.057  0.1674 -0.7297 -0.8550
  238MOL0     H31411   5.003   4.321   0.938 -3.0675 -1.1758  3.0396
  238MOL0     H31412   5.246   4.182   0.841 -0.2729 -0.6977  0.0846
  238MOL0     H31413   5.185   4.330   0.806 -2.0033  0.0654  0.9418
  238MOL0     H31414   5.489   4.455   1.085  0.7479 -0.3555  1.5099
  238MOL0     H31415   4.606   3.962   0.876  0.5301 -0.6838 -0.5667
  238MOL0     H31416   4.397   3.875   0.956 -1.9632  0.8554  2.0242
  239MOL0     O31417   9.568   2.063   6.342 -0.8421  0.1518 -0.1616
  239MOL0     C31418   9.562   2.179   6.304  0.2452  0.0103  0.6506
  239MOL0     O31419   9.462   2.239   6.230 -0.1018  0.0688  0.7377
  239MOL0     C31420   9.368   2.165   6.166  0.5681 -0.3069  0.3112
  239MOL0     C31421   9.398   2.050   6.089 -0.6055 -0.2369  0.0728
  239MOL0     C31422   9.303   1.980   6.020 -0.1880 -0.3765 -1.4374
  239MOL0     C31423   9.169   2.026   6.025 -0.8425 -0.4934 -0.1307
  239MOL0     O31424   9.076   1.962   5.949 -0.5017 -0.2997 -0.0617
  239MOL0     C31425   8.974   2.046   5.889 -0.6796 -0.0986  0.7400
  239MOL0     C31426   8.910   1.972   5.771  0.5669 -0.2204  0.5994
  239MOL0     C31427   8.789   2.053   5.705 -0.2664  0.2011 -0.4951
  239MOL0     C31428   8.816   2.195   5.657  0.0184 -0.3245 -0.4549
  239MOL0     C31429   8.704   2.267   5.581 -0.3673  0.0288 -0.5529
  239MOL0     C31430   8.686   2.197   5.449  0.2590 -0.6339  0.6059
  239MOL0     C31431   8.576   2.275   5.375  0.4697 -0.0925 -0.7329
  239MOL0     C31432   8.542   2.208   5.235  0.4239 -0.6405 -0.0989
  239MOL0     N31433   8.402   2.224   5.205  0.0443 -0.1968 -0.0075
  239MOL0     C31434   8.346   2.323   5.128 -0.0663  0.0591  0.5449
  239MOL0     C31435   8.211   2.305   5.137 -0.1488 -0.3049  0.4035
  239MOL0     C31436   8.108   2.389   5.064  0.1523  0.1536 -0.2456
  239MOL0     C31437   7.972   2.386   5.138 -0.3927 -0.1167 -1.0097
  239MOL0     C31438   7.874   2.487   5.070  0.2585  0.1477 -0.1079
  239MOL0     C31439   7.741   2.494   5.136 -0.3108 -0.0383  0.6351
  239MOL0     O31440   7.668   2.374   5.151  0.1264  0.2985  0.2588
  239MOL0     C31441   7.622   2.312   5.039 -1.0265  0.4143  0.0262
  239MOL0     C31442   7.525   2.373   4.962  0.7277  0.7540 -0.3032
  239MOL0     C31443   7.463   2.303   4.860 -0.1955  0.8304  0.5947
  239MOL0     C31444   7.521   2.186   4.826  0.5603 -0.1500  0.8861
  239MOL0     C31445   7.473   2.119   4.703 -0.6803  0.2233 -0.5933
  239MOL0     O31446   7.488   1.979   4.704  0.0428 -0.4282 -0.4312
  239MOL0     C31447   7.459   1.908   4.593 -0.2792  1.2284 -0.5460
  239MOL0     C31448   7.338   1.836   4.581  0.1019  0.6054 -0.3456
  239MOL0     C31449   7.302   1.774   4.452  1.0799 -0.9233 -0.0066
  239MOL0     C31450   7.387   1.781   4.345  0.1395 -0.3016  0.6995
  239MOL0     O31451   7.354   1.748   4.217 -0.8330 -0.0356  0.4941
  239MOL0     C31452   7.234   1.677   4.187 -0.3954 -0.4672  0.4839
  239MOL0     C31453   7.232   1.657   4.029  0.8284  0.4747  0.1535
  239MOL0     C31454   7.135   1.538   3.985  0.1114 -0.5711  0.2947
  239MOL0     C31455   7.102   1.528   3.840  0.0895  0.3751 -0.2105
  239MOL0     C31456   7.012   1.413   3.793  0.1205  0.0985  0.2743
  239MOL0     C31457   7.087   1.282   3.818 -0.4798 -0.2724  0.4995
  239MOL0     C31458   7.200   1.262   3.723 -0.7880 -0.0779 -0.8431
  239MOL0     C31459   7.193   1.126   3.651  0.2757  0.1885  0.0447
  239MOL0    Cl31460   7.046   1.132   3.551 -0.0319  0.1060  0.7714
  239MOL0     C31461   7.512   1.836   4.356  0.0628 -1.2804 -0.1917
  239MOL0     C31462   7.547   1.901   4.478 -0.0651 -0.5661 -0.2750
  239MOL0     O31463   7.415   2.184   4.613  0.0636 -0.0018 -0.6085
  239MOL0     C31464   7.620   2.124   4.900  0.4144  0.4662  0.2209
  239MOL0     C31465   7.667   2.181   5.011  0.1260  0.3210  0.7000
  239MOL0     N31466   8.190   2.204   5.233 -0.4188  0.3990  0.0911
  239MOL0     N31467   8.309   2.159   5.278  0.4058  0.2675 -0.2854
  239MOL0     C31468   9.138   2.138   6.105  1.0206 -0.6543 -0.5161
  239MOL0     C31469   9.241   2.218   6.162  0.0619  1.1089  0.4170
  239MOL0     C31470   9.665   2.270   6.348  0.0343 -0.3541  0.2335
  239MOL0     C31471   9.675   2.393   6.285 -0.2680 -0.2477 -0.2140
  239MOL0     C31472   9.784   2.482   6.317 -0.5859 -0.0201  1.3117
  239MOL0     C31473   9.888   2.438   6.406 -1.4195 -0.2365  0.2225
  239MOL0     O31474   9.998   2.509   6.423 -0.2294  0.3054  0.4787
  239MOL0     C31475  10.119   2.439   6.391  0.1073 -0.3350  0.0248
  239MOL0     C31476  10.158   2.448   6.242  0.1530 -0.0048  0.5105
  239MOL0     C31477  10.279   2.357   6.216  0.7470 -0.0942  0.5362
  239MOL0     C31478  10.322   2.377   6.073  0.2627 -0.0205  0.6824
  239MOL0     C31479  10.360   2.516   6.033 -0.4764 -0.0821 -0.3022
  239MOL0     C31480  10.390   2.630   6.000 -0.5198 -0.8286 -0.2514
  239MOL0     C31481   9.863   2.320   6.473 -0.1935  0.5839 -0.0945
  239MOL0     C31482   9.747   2.244   6.451  0.2612  0.1165 -0.1823
  239MOL0     H31483   9.502   2.021   6.088 -1.3113 -3.1247  1.2064
  239MOL0     H31484   9.332   1.886   5.975 -1.0228 -1.3889  0.0649
  239MOL0     H31485   9.026   2.138   5.860 -2.3582  0.6254 -0.1117
  239MOL0     H31486   8.905   2.080   5.966 -1.2295 -1.7391  1.0085
  239MOL0     H31487   8.876   1.871   5.796  0.9213 -0.2399  1.0286
  239MOL0     H31488   8.980   1.953   5.690  0.1604 -0.0851  0.2113
  239MOL0     H31489   8.712   2.051   5.783  0.9430  2.2321  0.8361
  239MOL0     H31490   8.750   1.988   5.626 -3.1713 -0.3804  1.2514
  239MOL0     H31491   8.844   2.252   5.746  0.7876  0.4859 -1.1939
  239MOL0     H31492   8.900   2.196   5.587 -0.3765 -1.0983 -0.9603
  239MOL0     H31493   8.723   2.375   5.573 -1.9034  0.4140  0.4285
  239MOL0     H31494   8.610   2.250   5.634 -0.4577 -2.6375 -1.4218
  239MOL0     H31495   8.653   2.097   5.478 -0.7179  0.0952  2.0786
  239MOL0     H31496   8.781   2.195   5.394  0.5419 -0.2205  1.0764
  239MOL0     H31497   8.489   2.285   5.442  2.0180  3.0984  0.9981
  239MOL0     H31498   8.600   2.380   5.360 -1.4994  0.0934 -3.3167
  239MOL0     H31499   8.594   2.113   5.220  0.9543 -0.1219 -1.8696
  239MOL0     H31500   8.596   2.259   5.154 -2.1470  0.9015 -0.9632
  239MOL0     H31501   8.394   2.397   5.065  1.7833 -0.1259  1.6596
  239MOL0     H31502   8.098   2.362   4.958  1.1482 -0.5947 -0.1673
  239MOL0     H31503   8.155   2.488   5.061  2.0570 -0.6042 -5.2231
  239MOL0     H31504   7.977   2.411   5.244 -3.0483 -0.9282 -0.6126
  239MOL0     H31505   7.942   2.282   5.147  3.8945 -1.4183  0.8580
  239MOL0     H31506   7.913   2.588   5.054  0.4628  0.1867  0.6056
  239MOL0     H31507   7.858   2.448   4.969  0.9458 -0.0894 -0.1363
  239MOL0     H31508   7.688   2.568   5.076 -0.1828 -1.4021 -1.2363
  239MOL0     H31509   7.764   2.535   5.235 -1.1402 -0.0130  0.8291
  239MOL0     H31510   7.491   2.468   5.002 -2.5274 -0.5115  0.2070
  239MOL0     H31511   7.383   2.345   4.800  0.9171  2.1640 -0.0215
  239MOL0     H31512   7.274   1.824   4.668  1.0891  2.7617  0.7635
  239MOL0     H31513   7.209   1.718   4.443  2.3603 -3.0031 -1.1189
  239MOL0     H31514   7.148   1.737   4.217  2.3061  3.3633  1.3206
  239MOL0     H31515   7.234   1.575   4.226 -2.6125 -0.6235  0.1785
  239MOL0     H31516   7.335   1.647   3.994  0.3367  2.1677 -2.0504
  239MOL0     H31517   7.195   1.745   3.976 -0.0387  1.1019  1.7521
  239MOL0     H31518   7.045   1.571   4.039 -0.4382  0.1180 -0.9903
  239MOL0     H31519   7.159   1.439   4.023 -1.1184 -0.7509  0.6576
  239MOL0     H31520   7.055   1.621   3.806 -1.3008 -0.1153  0.2800
  239MOL0     H31521   7.201   1.527   3.794  0.0434 -2.0315 -0.3564
  239MOL0     H31522   6.986   1.435   3.689  0.3922  0.3378  0.2588
  239MOL0     H31523   6.925   1.399   3.858  1.9575 -1.2107  2.5923
  239MOL0     H31524   7.011   1.204   3.810  0.1567 -0.8305 -0.3455
  239MOL0     H31525   7.129   1.263   3.917  0.9136 -1.1756 -0.2318
  239MOL0     H31526   7.209   1.342   3.649 -1.4769 -1.7359 -2.8106
  239MOL0     H31527   7.290   1.280   3.784 -2.3340  2.6996  0.8445
  239MOL0     H31528   7.185   1.040   3.719  2.7255  0.1461  0.4064
  239MOL0     H31529   7.280   1.102   3.589 -0.9300 -0.3027 -1.4977
  239MOL0     H31530   7.583   1.846   4.275  1.1166  1.5775  0.9369
  239MOL0     H31531   7.643   1.950   4.494  2.0502 -3.6422 -2.2256
  239MOL0     H31532   7.660   2.026   4.878  1.2762  0.7700  0.4034
  239MOL0     H31533   7.739   2.132   5.076 -1.4723  0.1349  2.4052
  239MOL0     H31534   9.039   2.182   6.106 -1.7029 -5.9595 -0.7335
  239MOL0     H31535   9.222   2.321   6.191  1.7134  2.3673 -2.4385
  239MOL0     H31536   9.609   2.425   6.206 -3.4642 -2.2407  1.4488
  239MOL0     H31537   9.785   2.582   6.276  2.2324  0.4839  2.4113
  239MOL0     H31538  10.108   2.335   6.423  0.3553  0.1641  1.8966
  239MOL0     H31539  10.201   2.484   6.448  0.0551 -0.0818 -0.0975
  239MOL0     H31540  10.081   2.410   6.175  1.9225  0.2988 -1.8180
  239MOL0     H31541  10.179   2.549   6.207 -1.6078 -0.5757 -2.5746
  239MOL0     H31542  10.244   2.256   6.240 -0.8784  0.4998  0.7538
  239MOL0     H31543  10.362   2.387   6.281 -0.1735 -0.8521  2.1156
  239MOL0     H31544  10.396   2.298   6.056 -0.1091 -1.1877  3.7779
  239MOL0     H31545  10.239   2.351   6.006  0.9011  1.3091 -0.6835
  239MOL0     H31546  10.419   2.732   5.993  4.5944 -2.0624 -0.4981
  239MOL0     H31547   9.929   2.276   6.548 -4.8994 -1.5011  3.3609
  239MOL0     H31548   9.742   2.154   6.511 -2.7159  0.7874  0.7494
  240MOL0     O31549   4.585   5.393   4.273 -0.1165  0.4125  0.9053
  240MOL0     C31550   4.632   5.513   4.268  0.0540  0.6163 -0.3585
  240MOL0     O31551   4.580   5.615   4.328 -0.1129  0.0919 -0.2435
  240MOL0     C31552   4.481   5.599   4.420 -0.2557 -0.4108  0.0911
  240MOL0     C31553   4.495   5.633   4.558  1.0192  0.0070 -0.2689
  240MOL0     C31554   4.380   5.639   4.643  0.2794 -0.3844  1.2437
  240MOL0     C31555   4.260   5.618   4.588 -0.1485 -0.6524  0.3752
  240MOL0     O31556   4.156   5.653   4.662  0.1871 -0.1424 -0.3291
  240MOL0     C31557   4.036   5.576   4.668 -0.1322  0.1597  0.4614
  240MOL0     C31558   3.948   5.613   4.793  0.1776 -0.5546  0.0359
  240MOL0     C31559   3.928   5.766   4.799  1.1564 -0.7802  0.3155
  240MOL0     C31560   3.835   5.790   4.922  1.3523 -0.2450 -0.6127
  240MOL0     C31561   3.778   5.933   4.918  0.4993  0.5612  0.2387
  240MOL0     C31562   3.697   5.983   5.035  0.1280  0.7114  0.5991
  240MOL0     C31563   3.557   5.915   5.049 -0.2729 -0.2886 -0.3876
  240MOL0     C31564   3.456   5.931   4.937 -0.1773  0.4694 -0.0857
  240MOL0     N31565   3.336   5.840   4.953 -0.3596  0.2027 -0.8461
  240MOL0     C31566   3.225   5.880   5.019 -0.2358 -0.2207  0.0767
  240MOL0     C31567   3.147   5.767   5.020 -0.0532  0.0372 -0.2374
  240MOL0     C31568   3.013   5.728   5.090  0.4559  0.1203 -0.3061
  240MOL0     C31569   3.039   5.695   5.238  0.4207 -0.1811  0.7172
  240MOL0     C31570   3.142   5.591   5.282 -0.2175 -0.3399  1.0194
  240MOL0     C31571   3.153   5.553   5.426 -0.2887 -0.0934 -0.3138
  240MOL0     O31572   3.268   5.477   5.460  0.2791  0.3703 -0.1189
  240MOL0     C31573   3.391   5.540   5.481 -0.3226 -0.3352  0.0913
  240MOL0     C31574   3.501   5.463   5.528  1.2560  0.2048  0.0498
  240MOL0     C31575   3.621   5.519   5.556 -0.2938  0.0859  0.5543
  240MOL0     C31576   3.646   5.652   5.521 -0.3616  0.6196 -0.5695
  240MOL0     C31577   3.775   5.715   5.563  0.3834 -0.9053  0.6508
  240MOL0     O31578   3.807   5.842   5.503  0.5185 -0.1622  0.0412
  240MOL0     C31579   3.927   5.918   5.520  0.3840 -0.6043  0.4848
  240MOL0     C31580   4.032   5.889   5.607 -1.0449  0.7106  0.5034
  240MOL0     C31581   4.139   5.968   5.619 -0.2529  0.3801 -0.2656
  240MOL0     C31582   4.150   6.091   5.548  0.3160  0.6781 -0.5453
  240MOL0     O31583   4.262   6.161   5.558 -0.4527 -0.1562 -0.2008
  240MOL0     C31584   4.337   6.185   5.437 -0.0848 -0.3496 -0.1474
  240MOL0     C31585   4.495   6.187   5.475  0.5003 -0.5727 -0.1094
  240MOL0     C31586   4.546   6.282   5.587 -0.4261 -0.2801  1.2880
  240MOL0     C31587   4.696   6.289   5.615  0.9015 -0.1003  0.0298
  240MOL0     C31588   4.740   6.375   5.739  0.1651 -0.4211 -0.6931
  240MOL0     C31589   4.679   6.339   5.873 -0.1540 -0.4947 -0.9433
  240MOL0     C31590   4.761   6.410   5.991  0.3443 -0.1476  0.0077
  240MOL0     C31591   4.687   6.383   6.128  0.1339 -0.8096  0.9585
  240MOL0    Cl31592   4.519   6.450   6.122 -0.4070  0.1462  0.2470
  240MOL0     C31593   4.051   6.116   5.455  0.7789  0.0571 -0.0745
  240MOL0     C31594   3.946   6.027   5.435  0.1668 -0.5924 -1.0488
  240MOL0     O31595   3.848   5.651   5.637 -0.0811 -0.6768  0.4733
  240MOL0     C31596   3.547   5.726   5.463 -0.0814  0.1664 -0.0810
  240MOL0     C31597   3.422   5.674   5.449  0.4119 -0.8404 -0.4353
  240MOL0     N31598   3.209   5.666   4.950 -0.4637 -0.3330 -0.4649
  240MOL0     N31599   3.324   5.714   4.905 -0.7953 -0.4804 -0.3159
  240MOL0     C31600   4.250   5.580   4.454  0.5516 -0.0658  0.5054
  240MOL0     C31601   4.358   5.575   4.377 -0.7348 -0.8629  0.0229
  240MOL0     C31602   4.751   5.534   4.185  0.3951  0.2676  0.0191
  240MOL0     C31603   4.810   5.663   4.192  0.2016 -0.7028  0.5962
  240MOL0     C31604   4.921   5.684   4.105  0.4308 -0.9578  0.5320
  240MOL0     C31605   4.975   5.584   4.021  0.4331  0.0435 -0.0449
  240MOL0     O31606   5.072   5.611   3.929  0.3603 -0.4218 -0.6196
  240MOL0     C31607   5.148   5.740   3.937 -0.0867 -0.5430 -0.1315
  240MOL0     C31608   5.252   5.760   3.826  0.0626  0.5779 -0.1313
  240MOL0     C31609   5.376   5.663   3.832  1.0534  0.1874  0.6625
  240MOL0     C31610   5.500   5.720   3.905 -0.2767  0.7939  0.0243
  240MOL0     C31611   5.474   5.735   4.044 -0.3091 -0.7670 -0.3680
  240MOL0     C31612   5.445   5.745   4.160  1.2430  0.7683 -0.0443
  240MOL0     C31613   4.919   5.453   4.026 -0.9671 -0.6898 -0.2519
  240MOL0     C31614   4.801   5.431   4.097 -0.3519  0.2079 -0.6187
  240MOL0     H31615   4.585   5.672   4.604 -0.7566  2.5494  1.2660
  240MOL0     H31616   4.379   5.679   4.743  0.0918  1.6648  0.4830
  240MOL0     H31617   4.046   5.468   4.670  1.4530  0.2994  1.6069
  240MOL0     H31618   3.985   5.606   4.576  0.4503  1.0577  0.4160
  240MOL0     H31619   4.004   5.566   4.875 -0.7079 -3.6173 -0.9716
  240MOL0     H31620   3.852   5.561   4.788  0.1775 -0.4850 -0.7411
  240MOL0     H31621   3.875   5.796   4.709 -1.7701 -0.6307  1.9474
  240MOL0     H31622   4.025   5.817   4.800  1.5475 -1.4941 -0.0061
  240MOL0     H31623   3.752   5.719   4.927 -0.5297  1.1742 -5.5066
  240MOL0     H31624   3.884   5.784   5.019  0.9231 -4.1409 -0.4815
  240MOL0     H31625   3.733   5.960   4.821  1.9570 -0.9451 -0.8920
  240MOL0     H31626   3.868   5.995   4.918  1.1486 -0.2941 -2.1520
  240MOL0     H31627   3.687   6.090   5.015 -1.1006  0.3176 -1.1321
  240MOL0     H31628   3.745   5.968   5.132  0.0917 -1.0175  0.3718
  240MOL0     H31629   3.568   5.810   5.076  0.4353 -0.3922 -1.0417
  240MOL0     H31630   3.506   5.957   5.136 -1.1000 -1.8593 -0.0725
  240MOL0     H31631   3.514   5.920   4.845  1.4511  0.7475  0.8495
  240MOL0     H31632   3.413   6.031   4.940 -0.9816  0.1182  0.7475
  240MOL0     H31633   3.209   5.972   5.073  3.4463  0.3770  0.4049
  240MOL0     H31634   2.968   5.646   5.034 -0.1940  0.4398 -0.2595
  240MOL0     H31635   2.942   5.811   5.086 -0.3314 -0.3331  2.3196
  240MOL0     H31636   2.946   5.665   5.288 -1.7080 -3.5476 -4.4067
  240MOL0     H31637   3.068   5.785   5.293  0.2817 -0.6407  1.5571
  240MOL0     H31638   3.130   5.495   5.231  1.1314  1.6033 -3.4507
  240MOL0     H31639   3.238   5.634   5.251 -1.2018  2.2627  1.3811
  240MOL0     H31640   3.070   5.483   5.436 -1.5668  1.1624 -1.6009
  240MOL0     H31641   3.138   5.640   5.490  0.6098  0.2488 -0.5410
  240MOL0     H31642   3.477   5.357   5.537  0.0109  0.5580  1.1380
  240MOL0     H31643   3.693   5.455   5.605  1.3943  0.4183 -1.3854
  240MOL0     H31644   4.042   5.791   5.653 -0.5168  1.8159  2.8387
  240MOL0     H31645   4.226   5.936   5.676 -0.6812  0.7500  0.6157
  240MOL0     H31646   4.303   6.279   5.393  2.0934  0.7054  0.2849
  240MOL0     H31647   4.317   6.102   5.369 -1.7866  0.9398 -1.2985
  240MOL0     H31648   4.542   6.209   5.378  1.2325  2.3335  0.7898
  240MOL0     H31649   4.522   6.084   5.500  0.1597 -1.1615 -1.9483
  240MOL0     H31650   4.497   6.261   5.682  0.4816 -1.4093  1.5352
  240MOL0     H31651   4.533   6.384   5.551 -0.6070 -0.4761  0.7841
  240MOL0     H31652   4.741   6.189   5.621  1.2749  0.1557  2.4625
  240MOL0     H31653   4.731   6.325   5.518 -1.8072 -1.6440 -1.6484
  240MOL0     H31654   4.722   6.483   5.734 -1.1748 -0.3656  2.8209
  240MOL0     H31655   4.849   6.369   5.733  0.4337  2.6969 -0.7798
  240MOL0     H31656   4.679   6.233   5.899  0.1489  0.0950  1.8099
  240MOL0     H31657   4.572   6.362   5.869 -0.6740 -2.2894  1.1260
  240MOL0     H31658   4.860   6.364   5.990  2.1098  3.2898 -2.0588
  240MOL0     H31659   4.770   6.512   5.954  1.6199 -0.5270 -0.8024
  240MOL0     H31660   4.741   6.428   6.213  0.0572  1.7384 -0.2507
  240MOL0     H31661   4.688   6.278   6.157 -1.0214 -0.3830  2.7052
  240MOL0     H31662   4.061   6.196   5.382  0.2539  1.7315  1.6088
  240MOL0     H31663   3.878   6.041   5.352  1.8744 -1.1571 -2.6032
  240MOL0     H31664   3.566   5.828   5.431 -2.3102  1.7677  3.2138
  240MOL0     H31665   3.348   5.735   5.398 -0.7291  0.8640  3.0105
  240MOL0     H31666   4.155   5.576   4.402  2.0707 -0.8929 -2.4496
  240MOL0     H31667   4.358   5.561   4.269  0.7900  0.7131 -0.2151
  240MOL0     H31668   4.789   5.745   4.260  0.4171  0.8750 -1.1550
  240MOL0     H31669   4.960   5.785   4.097 -1.9639 -0.0157  0.0885
  240MOL0     H31670   5.198   5.753   4.034 -1.7110 -3.0233  1.1449
  240MOL0     H31671   5.073   5.819   3.924  0.7452  0.3279  0.2260
  240MOL0     H31672   5.206   5.741   3.729 -1.6977  0.1088  0.7477
  240MOL0     H31673   5.297   5.859   3.809 -1.7688  1.1938 -1.7241
  240MOL0     H31674   5.414   5.648   3.731  3.4047 -1.2626  1.6677
  240MOL0     H31675   5.361   5.559   3.862  0.0204 -0.1476 -0.9372
  240MOL0     H31676   5.575   5.642   3.889  0.2888  0.9150  1.9357
  240MOL0     H31677   5.531   5.811   3.853  0.0528  0.5056 -0.2971
  240MOL0     H31678   5.429   5.758   4.265 -0.0767  0.1643 -0.1480
  240MOL0     H31679   4.957   5.377   3.958 -0.1676 -0.8273  0.3484
  240MOL0     H31680   4.743   5.340   4.093 -0.9342  0.6039 -3.3798
  241MOL0     O31681   7.579   0.776   3.032 -1.3461  1.2644  0.4030
  241MOL0     C31682   7.527   0.734   2.926  0.1041 -0.2574 -0.8574
  241MOL0     O31683   7.576   0.770   2.798 -0.0018 -0.7582 -0.4902
  241MOL0     C31684   7.702   0.837   2.780  0.4607  0.1094 -0.3844
  241MOL0     C31685   7.710   0.966   2.716  0.4915  0.1224  0.2216
  241MOL0     C31686   7.833   1.030   2.694 -0.6485  0.5421  0.1190
  241MOL0     C31687   7.951   0.972   2.737  1.1507  0.8044  0.5813
  241MOL0     O31688   8.058   1.057   2.724 -0.5136  0.2794 -0.6787
  241MOL0     C31689   8.196   1.042   2.780  0.0273  0.6399  0.2835
  241MOL0     C31690   8.280   0.929   2.728  0.0220  0.4710 -0.4765
  241MOL0     C31691   8.409   0.899   2.820 -0.4906 -0.6426 -0.8648
  241MOL0     C31692   8.510   0.798   2.749 -0.3086 -1.0503 -0.1290
  241MOL0     C31693   8.579   0.872   2.638 -0.1658 -0.0516  0.3135
  241MOL0     C31694   8.671   0.780   2.548  0.5388  0.2385  0.3470
  241MOL0     C31695   8.762   0.695   2.631  0.4713 -0.1333  0.0159
  241MOL0     C31696   8.841   0.777   2.733  0.0697 -0.0942  0.2727
  241MOL0     N31697   8.960   0.698   2.794 -0.1692 -0.3103 -0.4589
  241MOL0     C31698   8.973   0.562   2.820  0.7693  0.0433 -0.3877
  241MOL0     C31699   9.102   0.530   2.840 -1.2374 -0.5725  0.6303
  241MOL0     C31700   9.169   0.397   2.861  1.0647 -0.4756 -1.7019
  241MOL0     C31701   9.265   0.359   2.755 -0.3965  0.5426 -0.3396
  241MOL0     C31702   9.331   0.219   2.786 -0.1995 -0.7419  0.0851
  241MOL0     C31703   9.467   0.193   2.719 -0.2947  0.0209 -0.9155
  241MOL0     O31704   9.448   0.105   2.607 -0.0804 -0.7682  0.1106
  241MOL0     C31705   9.550   0.087   2.516  0.9228 -0.3273 -0.1874
  241MOL0     C31706   9.524   0.050   2.386  0.2727  0.5296  0.0569
  241MOL0     C31707   9.621   0.040   2.287  0.3847  0.3297 -0.4622
  241MOL0     C31708   9.750   0.061   2.324 -0.4867 -0.9107  0.4224
  241MOL0     C31709   9.869   0.036   2.232 -0.6997  0.2649  0.2596
  241MOL0     O31710   9.998   0.037   2.286  0.3761 -0.1963  0.6422
  241MOL0     C31711  10.105   0.000   2.208  0.3261  0.2560  0.1333
  241MOL0     C31712  10.108  -0.119   2.134 -0.4640 -0.4116  0.2053
  241MOL0     C31713  10.228  -0.157   2.065  0.5855 -0.7146 -0.0309
  241MOL0     C31714  10.332  -0.063   2.059  0.2775 -0.5623 -0.3171
  241MOL0     O31715  10.446  -0.087   1.981  0.5343 -0.3199 -0.5586
  241MOL0     C31716  10.477  -0.216   1.930 -0.2464  1.1157  0.2180
  241MOL0     C31717  10.630  -0.218   1.915 -0.0358 -0.0704  0.0143
  241MOL0     C31718  10.667  -0.347   1.846 -0.2332  0.2889 -1.3484
  241MOL0     C31719  10.644  -0.473   1.942  0.3642  0.1273  0.4296
  241MOL0     C31720  10.572  -0.593   1.869 -0.3654 -0.2967 -0.5953
  241MOL0     C31721  10.667  -0.662   1.763 -1.0821  0.2939 -0.4617
  241MOL0     C31722  10.787  -0.744   1.837  0.3255 -0.1283  0.8211
  241MOL0     C31723  10.889  -0.794   1.729 -1.3162  0.4851 -0.6026
  241MOL0    Cl31724  10.973  -0.931   1.802  0.6073  0.1007 -0.1356
  241MOL0     C31725  10.330   0.063   2.117  0.4670 -1.0005 -1.2878
  241MOL0     C31726  10.215   0.086   2.192  0.1796 -0.3353  0.7149
  241MOL0     O31727   9.846   0.028   2.116 -1.7905  0.2799  0.5943
  241MOL0     C31728   9.784   0.095   2.452 -0.0666  0.6720 -0.3264
  241MOL0     C31729   9.679   0.116   2.543 -0.6397 -0.2760  0.2520
  241MOL0     N31730   9.174   0.654   2.823  0.1478 -0.0682  1.0582
  241MOL0     N31731   9.093   0.742   2.810  0.6560 -0.4075 -0.6713
  241MOL0     C31732   7.944   0.843   2.806  0.4748 -0.3102  0.9306
  241MOL0     C31733   7.816   0.786   2.826 -0.5238  0.9182 -0.0083
  241MOL0     C31734   7.397   0.672   2.938 -0.2156  0.5077 -0.3528
  241MOL0     C31735   7.314   0.669   2.822  0.2167  0.6927  0.3789
  241MOL0     C31736   7.181   0.628   2.832 -0.0572 -0.1226 -0.9516
  241MOL0     C31737   7.137   0.561   2.949 -0.1089 -0.3158 -0.1427
  241MOL0     O31738   7.005   0.517   2.933 -0.1599 -0.3793 -0.2334
  241MOL0     C31739   6.964   0.392   2.999 -0.8355  0.2929  0.2556
  241MOL0     C31740   7.030   0.260   2.941 -0.4857 -0.9781  0.2305
  241MOL0     C31741   7.008   0.246   2.788 -1.5605  0.0412  0.3204
  241MOL0     C31742   7.081   0.118   2.738  0.2793  0.5654  0.4240
  241MOL0     C31743   7.039   0.098   2.601 -0.7928  1.0768 -0.1239
  241MOL0     C31744   7.002   0.070   2.486 -0.8846  0.1134 -0.0364
  241MOL0     C31745   7.223   0.526   3.055 -0.2603 -0.2429 -0.1501
  241MOL0     C31746   7.351   0.594   3.048  0.6197 -0.9255 -0.2395
  241MOL0     H31747   7.621   1.017   2.682  0.2370 -0.0258  0.6633
  241MOL0     H31748   7.837   1.133   2.660 -0.3301  1.8290  3.5951
  241MOL0     H31749   8.181   1.024   2.887  0.5802 -0.4481  0.1879
  241MOL0     H31750   8.245   1.136   2.755 -2.0530  1.8556  0.5504
  241MOL0     H31751   8.301   0.939   2.621 -0.9034 -2.2263 -0.9984
  241MOL0     H31752   8.225   0.834   2.735 -0.6272  0.7699 -1.3147
  241MOL0     H31753   8.378   0.851   2.914  3.4153  1.3158  1.7078
  241MOL0     H31754   8.447   0.999   2.841 -2.0948 -0.4485  1.4879
  241MOL0     H31755   8.583   0.760   2.821 -0.5680 -0.6211  0.3686
  241MOL0     H31756   8.454   0.710   2.717  0.4193 -2.0473  1.2452
  241MOL0     H31757   8.638   0.953   2.683 -1.7758  1.6093 -0.4401
  241MOL0     H31758   8.505   0.920   2.574 -0.4109 -1.3174 -0.3762
  241MOL0     H31759   8.721   0.846   2.476 -3.9423  2.5025 -1.1250
  241MOL0     H31760   8.610   0.710   2.491  2.8579 -0.5263 -1.3631
  241MOL0     H31761   8.694   0.625   2.680  1.5507 -0.0959  1.6176
  241MOL0     H31762   8.827   0.640   2.562 -1.2166  0.6871 -2.3737
  241MOL0     H31763   8.778   0.811   2.816  0.6518  2.3901 -0.2283
  241MOL0     H31764   8.881   0.858   2.671  4.3774 -3.0160 -1.2757
  241MOL0     H31765   8.892   0.493   2.800  2.1802 -1.2934 -1.8176
  241MOL0     H31766   9.090   0.322   2.863 -0.8080  1.4002 -0.0372
  241MOL0     H31767   9.226   0.392   2.955 -1.4718  2.0092  0.1660
  241MOL0     H31768   9.347   0.431   2.749  1.9079 -1.9602 -0.9520
  241MOL0     H31769   9.210   0.354   2.660  4.1184  2.2810 -3.3926
  241MOL0     H31770   9.358   0.221   2.892  1.5117 -2.7538 -0.2657
  241MOL0     H31771   9.260   0.143   2.753 -0.1676 -0.1387 -1.4700
  241MOL0     H31772   9.530   0.139   2.791  0.9932  1.5404 -0.8600
  241MOL0     H31773   9.509   0.292   2.698 -0.7738  0.7128  1.1526
  241MOL0     H31774   9.416   0.034   2.386  0.6141 -2.3615 -0.5833
  241MOL0     H31775   9.582   0.000   2.194 -0.4518 -0.6127  0.2754
  241MOL0     H31776  10.014  -0.173   2.132 -0.7975 -0.0256  2.6157
  241MOL0     H31777  10.225  -0.249   2.007  0.6607  0.1108 -1.3795
  241MOL0     H31778  10.421  -0.233   1.838  0.0852 -1.7707  0.4590
  241MOL0     H31779  10.447  -0.294   2.000 -2.8713  1.2719 -0.6267
  241MOL0     H31780  10.669  -0.201   2.016 -1.5386  2.4183  0.2829
  241MOL0     H31781  10.665  -0.138   1.850 -1.0767  0.7432  0.4096
  241MOL0     H31782  10.773  -0.341   1.819  0.0904 -1.3723 -0.6082
  241MOL0     H31783  10.614  -0.353   1.751  2.3457 -0.4209 -2.8141
  241MOL0     H31784  10.740  -0.508   1.982  1.5762  2.1800 -0.4984
  241MOL0     H31785  10.587  -0.440   2.029 -0.1511  1.3397 -0.3495
  241MOL0     H31786  10.485  -0.556   1.814 -0.9550  0.4167  0.7685
  241MOL0     H31787  10.533  -0.663   1.942  1.4062  0.4986  1.2017
  241MOL0     H31788  10.714  -0.586   1.699  0.5526 -1.7605 -1.8545
  241MOL0     H31789  10.607  -0.729   1.701 -3.1653  2.8796 -1.4034
  241MOL0     H31790  10.836  -0.690   1.919  0.2537 -1.3481  1.6820
  241MOL0     H31791  10.739  -0.835   1.874 -2.0433  1.4576  1.9656
  241MOL0     H31792  10.963  -0.718   1.701  2.4916 -1.9894  1.7618
  241MOL0     H31793  10.831  -0.822   1.641 -1.4981  1.7328 -0.8989
  241MOL0     H31794  10.415   0.129   2.103  0.9608 -0.5657  2.7898
  241MOL0     H31795  10.205   0.190   2.221  1.7065 -0.1275  0.5489
  241MOL0     H31796   9.888   0.114   2.476  0.4409 -2.7687  0.6548
  241MOL0     H31797   9.720   0.146   2.639  1.7150  2.6620 -1.4936
  241MOL0     H31798   8.038   0.812   2.849  0.7663 -2.2331 -0.9596
  241MOL0     H31799   7.807   0.701   2.893  4.4521  3.0122  4.0511
  241MOL0     H31800   7.363   0.702   2.730  2.6212 -0.9618  0.9558
  241MOL0     H31801   7.114   0.635   2.748 -0.9712 -2.1309 -0.4409
  241MOL0     H31802   6.857   0.390   2.978 -1.0022  2.2025  0.7979
  241MOL0     H31803   6.975   0.405   3.107  3.1362 -3.1662  0.5396
  241MOL0     H31804   7.137   0.266   2.961 -0.4640  2.9488 -0.2739
  241MOL0     H31805   6.991   0.174   2.996 -1.3257  0.2695  1.6454
  241MOL0     H31806   7.058   0.332   2.742  0.2170  0.2095  2.3919
  241MOL0     H31807   6.901   0.247   2.767 -1.7290  0.5462  1.1497
  241MOL0     H31808   7.190   0.128   2.733  0.4181 -0.9927  0.0335
  241MOL0     H31809   7.057   0.032   2.801  1.5709 -1.0571 -1.1696
  241MOL0     H31810   6.970   0.055   2.385  0.8975 -0.6787 -0.5237
  241MOL0     H31811   7.192   0.482   3.149  2.3361  0.4295  1.0969
  241MOL0     H31812   7.414   0.592   3.136 -0.5774  0.2723  0.6780
  242MOL0     O31813  10.814   3.746   7.745  0.0891 -0.1461 -0.0290
  242MOL0     C31814  10.816   3.748   7.627 -0.7745  0.3557  0.2484
  242MOL0     O31815  10.753   3.655   7.545 -0.3727 -0.6939 -0.5524
  242MOL0     C31816  10.668   3.577   7.609 -0.3008 -0.2251  0.7879
  242MOL0     C31817  10.700   3.441   7.633 -0.0724  0.1505  0.6600
  242MOL0     C31818  10.614   3.357   7.702 -0.4268  0.3526  1.0820
  242MOL0     C31819  10.490   3.396   7.736  0.7756  0.0863  0.5792
  242MOL0     O31820  10.415   3.297   7.793 -0.2238 -0.1354 -0.5083
  242MOL0     C31821  10.278   3.324   7.798 -0.4481  0.1015  0.1313
  242MOL0     C31822  10.205   3.198   7.849 -0.0640  0.2196  0.3095
  242MOL0     C31823  10.053   3.232   7.867 -0.5978 -0.7350  1.1581
  242MOL0     C31824   9.968   3.108   7.919 -0.3329 -0.0236  0.1269
  242MOL0     C31825   9.864   3.152   8.021 -0.0561 -0.2816  0.0148
  242MOL0     C31826   9.815   3.036   8.114 -0.9056  0.2491 -0.6786
  242MOL0     C31827   9.775   2.904   8.042 -0.5574  0.2786  0.9374
  242MOL0     C31828   9.697   2.793   8.123 -0.3468 -0.1047 -1.0316
  242MOL0     N31829   9.550   2.817   8.152 -0.5353  0.5073 -0.2399
  242MOL0     C31830   9.457   2.809   8.057  0.3059 -0.1347 -0.4740
  242MOL0     C31831   9.341   2.847   8.121 -0.3413 -0.4438  0.1428
  242MOL0     C31832   9.205   2.878   8.054 -0.6582 -0.4328  0.3195
  242MOL0     C31833   9.079   2.881   8.141 -0.3881  0.8136  0.1914
  242MOL0     C31834   8.973   2.944   8.045 -0.4214 -0.3890  0.1308
  242MOL0     C31835   8.850   2.974   8.124  1.1676 -0.1396 -0.8081
  242MOL0     O31836   8.777   2.861   8.165  0.5367 -0.0009 -0.0871
  242MOL0     C31837   8.652   2.880   8.213 -1.0164  0.4140  1.3868
  242MOL0     C31838   8.596   2.999   8.255  0.1274 -0.3240  0.6800
  242MOL0     C31839   8.463   2.992   8.301 -0.4425 -0.2761 -0.9362
  242MOL0     C31840   8.388   2.879   8.299 -0.0128  0.3671  0.4396
  242MOL0     C31841   8.245   2.869   8.326  0.2739 -1.1029 -0.4559
  242MOL0     O31842   8.185   2.981   8.385 -0.7570  0.0771  0.1053
  242MOL0     C31843   8.048   2.983   8.417  1.1696 -0.1558  0.3902
  242MOL0     C31844   7.973   3.103   8.417  0.3081 -0.8176  0.2616
  242MOL0     C31845   7.842   3.106   8.453 -0.3862  0.3162  0.0694
  242MOL0     C31846   7.776   2.987   8.493 -0.2967 -0.2718 -0.0502
  242MOL0     O31847   7.654   2.982   8.543 -0.4158  0.3431 -0.0247
  242MOL0     C31848   7.548   3.068   8.494 -0.2984 -0.3541  0.5530
  242MOL0     C31849   7.423   3.018   8.556  0.1180  0.0324 -0.2005
  242MOL0     C31850   7.305   3.088   8.492 -0.8860 -0.5340 -0.1419
  242MOL0     C31851   7.171   3.025   8.543  0.1319 -0.7284 -0.7054
  242MOL0     C31852   7.131   3.061   8.684 -0.0604  0.9258 -0.0975
  242MOL0     C31853   6.988   3.026   8.726 -0.2084  0.8070  0.6097
  242MOL0     C31854   6.967   3.031   8.877  0.2096 -0.2488  0.1592
  242MOL0     C31855   6.933   3.163   8.951 -0.7986  0.3162 -1.6670
  242MOL0    Cl31856   6.880   3.121   9.120  0.8226 -0.0110 -0.0268
  242MOL0     C31857   7.839   2.866   8.486  0.3349  0.0921  0.0261
  242MOL0     C31858   7.978   2.865   8.456 -0.6691  0.3475 -1.1180
  242MOL0     O31859   8.182   2.776   8.279  0.4893 -0.8539  0.2310
  242MOL0     C31860   8.449   2.762   8.250  0.6340  0.0194  0.2992
  242MOL0     C31861   8.585   2.763   8.211  0.1553  0.5809  0.1415
  242MOL0     N31862   9.372   2.852   8.258 -0.5315 -0.6243  1.6815
  242MOL0     N31863   9.500   2.831   8.273 -0.2578  0.2552 -0.4351
  242MOL0     C31864  10.459   3.525   7.725 -0.4226 -0.3120 -0.9961
  242MOL0     C31865  10.547   3.621   7.662  1.2506  0.7017 -0.1350
  242MOL0     C31866  10.898   3.855   7.561  0.0385 -0.4247 -0.9589
  242MOL0     C31867  10.980   3.946   7.646  0.1653  0.2355  0.7136
  242MOL0     C31868  11.056   4.049   7.592 -0.4135  0.0907  0.1183
  242MOL0     C31869  11.067   4.056   7.451  0.2255 -0.0324  1.3618
  242MOL0     O31870  11.138   4.150   7.388 -0.0652  0.0924 -0.0826
  242MOL0     C31871  11.161   4.276   7.450 -0.4555  0.4055  0.1193
  242MOL0     C31872  11.312   4.312   7.476  0.0100  0.0956  0.2042
  242MOL0     C31873  11.388   4.374   7.359 -0.1707 -0.4463  0.2489
  242MOL0     C31874  11.394   4.281   7.242  0.2157 -0.0816 -0.7267
  242MOL0     C31875  11.375   4.361   7.119  1.0720  0.3046 -0.3236
  242MOL0     C31876  11.354   4.408   7.005 -0.3227 -0.4940  0.0152
  242MOL0     C31877  10.985   3.982   7.371  0.5714  0.2861 -0.9951
  242MOL0     C31878  10.907   3.870   7.423 -0.6270  0.7676  0.5237
  242MOL0     H31879  10.794   3.398   7.601  0.6927  2.2240 -0.0260
  242MOL0     H31880  10.636   3.254   7.730  2.6981  0.5906 -0.1903
  242MOL0     H31881  10.248   3.358   7.698  0.6014  1.3104  0.1933
  242MOL0     H31882  10.257   3.411   7.862 -2.1391 -0.1226 -0.0706
  242MOL0     H31883  10.240   3.164   7.947 -0.0867 -0.1996  0.1736
  242MOL0     H31884  10.229   3.105   7.796  0.8168 -1.6528  3.6647
  242MOL0     H31885  10.013   3.254   7.768  0.6343 -3.0031  0.0936
  242MOL0     H31886  10.057   3.328   7.921 -0.4331 -1.0026  1.6325
  242MOL0     H31887   9.919   3.059   7.834  1.1377  1.2004 -1.5289
  242MOL0     H31888  10.037   3.039   7.968  2.4081  1.0790 -1.9030
  242MOL0     H31889   9.786   3.195   7.958  0.9310  2.1151  0.3418
  242MOL0     H31890   9.910   3.235   8.074  1.9375  0.1575 -2.2275
  242MOL0     H31891   9.724   3.072   8.163 -0.7595  2.4222 -1.8788
  242MOL0     H31892   9.900   3.027   8.181 -1.6343  1.9460  0.5345
  242MOL0     H31893   9.725   2.936   7.950 -0.4493 -0.4646  0.6105
  242MOL0     H31894   9.871   2.862   8.010 -2.0750 -0.0052 -4.2286
  242MOL0     H31895   9.745   2.776   8.219 -0.6532  3.6120 -0.0765
  242MOL0     H31896   9.690   2.698   8.068 -3.2019  0.9862 -2.7563
  242MOL0     H31897   9.482   2.807   7.951 -0.8243  2.6976 -0.8706
  242MOL0     H31898   9.185   2.797   7.983 -2.3735 -0.3723  0.6785
  242MOL0     H31899   9.210   2.976   8.005 -0.4284 -1.2340 -1.3450
  242MOL0     H31900   9.098   2.944   8.228  0.5340 -0.0536  0.6449
  242MOL0     H31901   9.035   2.782   8.159 -2.5562  1.7964  0.6331
  242MOL0     H31902   8.999   3.045   8.011  2.0730 -1.1157 -0.3178
  242MOL0     H31903   8.933   2.880   7.965  1.5505 -1.8869  0.2890
  242MOL0     H31904   8.792   3.046   8.066  2.3410 -1.3058 -3.5721
  242MOL0     H31905   8.871   3.014   8.224 -1.9090 -0.3654  0.0406
  242MOL0     H31906   8.659   3.088   8.258  2.7901 -2.0454 -0.3426
  242MOL0     H31907   8.415   3.080   8.343  1.8472  1.4614 -1.7969
  242MOL0     H31908   8.031   3.191   8.393 -1.2005  0.7111  1.9329
  242MOL0     H31909   7.788   3.200   8.463  0.0350  0.4974  0.7135
  242MOL0     H31910   7.549   3.058   8.385  3.5712  1.3781  0.2693
  242MOL0     H31911   7.563   3.170   8.532 -0.0461 -0.1255 -0.1320
  242MOL0     H31912   7.427   3.040   8.663 -6.4589  1.1123  0.2354
  242MOL0     H31913   7.416   2.910   8.539 -2.1791 -0.2701  2.0370
  242MOL0     H31914   7.314   3.074   8.384 -2.2745  2.3644 -0.7302
  242MOL0     H31915   7.307   3.194   8.520 -1.9693 -0.9330  1.5497
  242MOL0     H31916   7.091   3.074   8.486 -0.9216  1.2537  2.2521
  242MOL0     H31917   7.171   2.916   8.533  1.0669 -1.0917  2.3015
  242MOL0     H31918   7.149   3.168   8.698 -3.2327  1.7647 -1.4900
  242MOL0     H31919   7.206   3.018   8.752 -0.6416  0.0559  0.0122
  242MOL0     H31920   6.968   2.925   8.688  2.9093  0.0026  0.8558
  242MOL0     H31921   6.916   3.095   8.680  0.5140  0.9780 -0.2964
  242MOL0     H31922   6.882   2.965   8.897  0.9827 -1.8715 -1.5446
  242MOL0     H31923   7.057   2.979   8.912  1.5804  0.3659 -2.2166
  242MOL0     H31924   6.849   3.214   8.903 -1.0551 -0.6032 -2.2355
  242MOL0     H31925   7.018   3.232   8.953 -1.5740  1.2759 -0.2482
  242MOL0     H31926   7.780   2.781   8.519 -2.5347  0.7763 -2.7280
  242MOL0     H31927   8.032   2.774   8.475  0.6105  1.6829  2.5281
  242MOL0     H31928   8.387   2.673   8.252 -0.0334  0.4487 -0.4473
  242MOL0     H31929   8.637   2.671   8.186  0.2484  0.0076  2.2877
  242MOL0     H31930  10.363   3.570   7.747 -1.5097 -2.9783 -0.0095
  242MOL0     H31931  10.512   3.722   7.645 -4.1000 -0.5049  1.6339
  242MOL0     H31932  10.967   3.918   7.750  0.4548  0.4318  0.8016
  242MOL0     H31933  11.106   4.116   7.662 -0.8582  0.5690 -0.0178
  242MOL0     H31934  11.108   4.287   7.546  0.9655  0.9711  0.8634
  242MOL0     H31935  11.116   4.349   7.382  0.2806  1.0377  0.2970
  242MOL0     H31936  11.316   4.385   7.557  2.0114  0.1222  0.1383
  242MOL0     H31937  11.355   4.219   7.515  0.9664 -0.2528 -1.5660
  242MOL0     H31938  11.494   4.380   7.385  0.3820 -1.9871 -1.4316
  242MOL0     H31939  11.341   4.469   7.335 -3.6565 -1.5639  1.9512
  242MOL0     H31940  11.486   4.221   7.243 -1.7780 -3.4284  1.8260
  242MOL0     H31941  11.317   4.204   7.242  1.8960 -1.8628 -1.4017
  242MOL0     H31942  11.341   4.458   6.911  1.5635 -1.1723 -0.6591
  242MOL0     H31943  10.989   3.990   7.263 -0.7351 -0.7052 -1.1459
  242MOL0     H31944  10.848   3.811   7.354  0.7390  1.3863 -1.2445
  243MOL0     O31945   5.041   3.959   3.227 -0.9998  0.0997 -0.8648
  243MOL0     C31946   4.997   4.073   3.262  0.0389 -0.7325 -0.8499
  243MOL0     O31947   4.884   4.132   3.217 -0.5419  0.2169  0.2867
  243MOL0     C31948   4.802   4.048   3.144  0.0893 -0.8685  0.6725
  243MOL0     C31949   4.772   3.918   3.181 -0.8796  0.7330 -0.8686
  243MOL0     C31950   4.671   3.844   3.128  0.2680  0.3120  0.1163
  243MOL0     C31951   4.585   3.906   3.030  1.7987  0.9146 -0.1088
  243MOL0     O31952   4.500   3.822   2.962  0.4636 -0.3312 -0.7933
  243MOL0     C31953   4.369   3.877   2.930 -0.9966  0.3488 -0.3037
  243MOL0     C31954   4.291   3.779   2.845 -0.0982  0.0927 -0.0233
  243MOL0     C31955   4.142   3.813   2.857 -1.2573 -0.5575  0.1297
  243MOL0     C31956   4.060   3.713   2.792 -0.9952  0.3918  0.0520
  243MOL0     C31957   3.921   3.757   2.770 -0.4541  0.6417 -1.1353
  243MOL0     C31958   3.828   3.648   2.720 -0.8620  0.1939  0.4508
  243MOL0     C31959   3.699   3.715   2.672 -0.2451 -1.2647 -1.5683
  243MOL0     C31960   3.591   3.608   2.653 -0.6346 -0.7141  0.4336
  243MOL0     N31961   3.467   3.659   2.587  0.1791 -0.1915 -0.4822
  243MOL0     C31962   3.372   3.728   2.653 -0.0900 -0.2464  1.1006
  243MOL0     C31963   3.274   3.745   2.560 -0.2406 -0.0061  0.1218
  243MOL0     C31964   3.142   3.791   2.587  0.4718 -0.7988  0.3669
  243MOL0     C31965   3.019   3.699   2.578  0.5528  0.2492 -0.5234
  243MOL0     C31966   3.036   3.591   2.689 -0.1792 -0.5631  0.4680
  243MOL0     C31967   2.919   3.494   2.694  0.0761  0.2154 -0.8418
  243MOL0     O31968   2.914   3.415   2.576  0.2927  0.1529  0.1829
  243MOL0     C31969   2.795   3.350   2.550  0.3587  0.6630 -0.2826
  243MOL0     C31970   2.748   3.349   2.422 -0.3801  0.8789  0.2225
  243MOL0     C31971   2.639   3.266   2.397  1.1180  0.2815 -0.6091
  243MOL0     C31972   2.559   3.228   2.497 -0.4430  0.1231  0.1940
  243MOL0     C31973   2.435   3.146   2.464  0.1320 -0.2439 -0.5216
  243MOL0     O31974   2.371   3.081   2.568  0.0184 -0.1741 -0.9929
  243MOL0     C31975   2.245   3.028   2.543  0.7427  0.3251  0.8277
  243MOL0     C31976   2.144   3.101   2.465 -0.2000 -0.0722 -0.7861
  243MOL0     C31977   2.010   3.058   2.453  0.5228  0.2409 -0.0456
  243MOL0     C31978   1.973   2.932   2.505 -0.5964  0.9013  0.4976
  243MOL0     O31979   1.853   2.872   2.485 -0.3346  0.0904 -0.3044
  243MOL0     C31980   1.739   2.951   2.448  0.8338 -0.4118 -0.2319
  243MOL0     C31981   1.643   2.943   2.568  0.5482  0.5627  0.1029
  243MOL0     C31982   1.498   2.982   2.549 -0.5902  0.5419 -0.4276
  243MOL0     C31983   1.400   2.954   2.669  0.0779 -0.1474  1.0989
  243MOL0     C31984   1.262   3.030   2.646  0.6753  0.4052 -0.0790
  243MOL0     C31985   1.175   2.989   2.523 -0.3437  0.1899  0.2513
  243MOL0     C31986   1.043   3.061   2.539  0.0953  0.4719  0.0693
  243MOL0     C31987   0.950   3.039   2.421 -0.0627 -0.3368  0.1130
  243MOL0    Cl31988   1.021   3.120   2.270 -0.3855 -0.2819 -0.2063
  243MOL0     C31989   2.074   2.857   2.567  0.7891  0.1372  0.3778
  243MOL0     C31990   2.203   2.904   2.591 -0.8560 -0.3297 -0.0947
  243MOL0     O31991   2.407   3.127   2.350  0.1597  0.1686  0.0656
  243MOL0     C31992   2.595   3.245   2.632  0.7323 -0.1347  0.4137
  243MOL0     C31993   2.722   3.298   2.662 -0.0690  0.4856  0.7306
  243MOL0     N31994   3.318   3.690   2.439 -0.2122 -1.1891 -0.0758
  243MOL0     N31995   3.434   3.652   2.455 -0.1292  0.6977  0.3017
  243MOL0     C31996   4.615   4.032   2.989  0.0766  0.2003  0.2788
  243MOL0     C31997   4.718   4.104   3.047  0.6313  0.2901 -0.6171
  243MOL0     C31998   5.079   4.164   3.351 -1.9125 -0.3310 -1.3887
  243MOL0     C31999   5.013   4.263   3.423  0.2063 -0.6463 -0.1678
  243MOL0     C32000   5.075   4.338   3.512  0.2064  0.0243 -0.2972
  243MOL0     C32001   5.208   4.326   3.548 -0.3947  0.3382  0.1113
  243MOL0     O32002   5.271   4.420   3.617  0.2111  0.2220 -0.8996
  243MOL0     C32003   5.209   4.477   3.727 -0.3943  0.6170 -0.4956
  243MOL0     C32004   5.319   4.523   3.827 -0.1616  0.5136  0.4681
  243MOL0     C32005   5.387   4.655   3.805  0.5545 -1.8601  0.0721
  243MOL0     C32006   5.455   4.683   3.665  0.1425 -0.4865  0.5368
  243MOL0     C32007   5.499   4.824   3.658 -0.5950  0.7051 -0.0458
  243MOL0     C32008   5.540   4.937   3.641  0.7745 -0.4263  0.4740
  243MOL0     C32009   5.292   4.224   3.482  0.5108  0.2894  0.6379
  243MOL0     C32010   5.216   4.145   3.381 -0.3373 -0.1831 -0.2117
  243MOL0     H32011   4.825   3.871   3.263 -2.5678  0.7511  0.3064
  243MOL0     H32012   4.650   3.747   3.173  0.5415  0.0914 -0.2288
  243MOL0     H32013   4.384   3.967   2.871  3.0858 -0.7645 -1.2712
  243MOL0     H32014   4.318   3.889   3.026 -0.0078 -0.7935  0.3937
  243MOL0     H32015   4.299   3.677   2.885  0.9779  0.2917  0.2933
  243MOL0     H32016   4.325   3.783   2.741  0.4700  1.5965  0.1975
  243MOL0     H32017   4.120   3.909   2.809 -0.8405 -0.2365  0.5676
  243MOL0     H32018   4.107   3.812   2.961 -2.1709  1.3746 -0.0917
  243MOL0     H32019   4.111   3.686   2.699  2.3687 -0.3126  1.9151
  243MOL0     H32020   4.059   3.631   2.865 -1.4935 -0.3726 -0.8042
  243MOL0     H32021   3.933   3.831   2.691 -1.2694  0.9592 -0.9739
  243MOL0     H32022   3.889   3.805   2.863 -1.9204 -0.3458 -1.0904
  243MOL0     H32023   3.804   3.566   2.789 -1.4962  0.4800  0.5838
  243MOL0     H32024   3.882   3.611   2.633 -1.6225 -0.0138  0.0588
  243MOL0     H32025   3.656   3.789   2.741  2.5030  0.1718 -1.2591
  243MOL0     H32026   3.725   3.762   2.578 -0.1399 -0.0758 -0.9586
  243MOL0     H32027   3.554   3.566   2.747 -0.6257 -1.5008  0.0923
  243MOL0     H32028   3.635   3.520   2.605  1.3114 -0.7667  2.2016
  243MOL0     H32029   3.369   3.767   2.754 -0.5660 -1.1587  1.4557
  243MOL0     H32030   3.118   3.857   2.503 -3.2215 -0.0305  1.8687
  243MOL0     H32031   3.143   3.845   2.682  2.3942 -0.0479 -0.0289
  243MOL0     H32032   3.015   3.657   2.477 -0.6061 -0.5088 -0.1822
  243MOL0     H32033   2.937   3.768   2.599  1.3287  1.9558 -2.6970
  243MOL0     H32034   3.128   3.535   2.670  0.6896  0.7906  0.5575
  243MOL0     H32035   3.035   3.637   2.789 -5.8439 -1.7515  1.2810
  243MOL0     H32036   2.829   3.552   2.716  1.1574  1.4379  0.5283
  243MOL0     H32037   2.940   3.417   2.769 -2.5065  0.2455  0.0023
  243MOL0     H32038   2.797   3.395   2.336 -1.4320 -0.8979 -1.4009
  243MOL0     H32039   2.620   3.248   2.292  0.7806  0.9005 -0.6612
  243MOL0     H32040   2.181   3.198   2.434  2.3861  0.3430  2.9192
  243MOL0     H32041   1.940   3.131   2.413 -0.3528 -0.4381  0.2446
  243MOL0     H32042   1.698   2.920   2.351  0.1066 -0.4821  0.0887
  243MOL0     H32043   1.755   3.058   2.438 -0.2898 -0.2181 -0.0753
  243MOL0     H32044   1.685   2.989   2.658  0.7273 -2.2286  1.5613
  243MOL0     H32045   1.632   2.837   2.594  1.0921  0.1256 -1.3349
  243MOL0     H32046   1.462   2.942   2.453  2.2304  0.8540 -1.7235
  243MOL0     H32047   1.485   3.090   2.546 -3.0320  0.4188  1.8590
  243MOL0     H32048   1.389   2.846   2.683  2.3942 -0.4609  0.8469
  243MOL0     H32049   1.448   2.990   2.760 -0.0981 -1.4192  1.7239
  243MOL0     H32050   1.285   3.137   2.651  1.0971  0.2672  1.9186
  243MOL0     H32051   1.207   3.000   2.736 -1.6761 -0.4147 -1.7022
  243MOL0     H32052   1.177   2.881   2.510  4.7187 -0.2413  2.2639
  243MOL0     H32053   1.217   3.031   2.431 -0.3818  0.7649  0.4888
  243MOL0     H32054   0.994   3.041   2.635 -1.9507  1.6215 -0.6769
  243MOL0     H32055   1.064   3.168   2.536 -3.8250  1.4528  1.4062
  243MOL0     H32056   0.855   3.085   2.450  0.3762  0.1611  0.7933
  243MOL0     H32057   0.931   2.933   2.405 -1.3657  0.2860 -3.1947
  243MOL0     H32058   2.049   2.758   2.603 -1.5408  0.9410  1.1530
  243MOL0     H32059   2.275   2.842   2.644  2.6858  2.6527 -1.0113
  243MOL0     H32060   2.529   3.209   2.711 -0.4310  3.0805  1.0732
  243MOL0     H32061   2.763   3.307   2.762  2.4069  2.7397 -0.3675
  243MOL0     H32062   4.543   4.075   2.918 -2.3321 -2.0394  1.2016
  243MOL0     H32063   4.723   4.207   3.013 -3.0726  1.0711  0.7242
  243MOL0     H32064   4.906   4.278   3.419  0.3809  1.6107  1.6971
  243MOL0     H32065   5.005   4.414   3.547  0.4027  2.3612 -4.3487
  243MOL0     H32066   5.152   4.403   3.783  1.3190 -1.3116 -1.1867
  243MOL0     H32067   5.151   4.563   3.693 -0.5638  1.3359  1.4922
  243MOL0     H32068   5.264   4.549   3.919 -1.4012  0.4877 -0.2395
  243MOL0     H32069   5.382   4.437   3.850 -0.7088 -0.1693 -0.4971
  243MOL0     H32070   5.468   4.657   3.878  0.3330 -3.7795  0.4273
  243MOL0     H32071   5.313   4.735   3.813  3.2131  0.6576  1.2430
  243MOL0     H32072   5.539   4.613   3.655  0.6741  0.1733  0.3817
  243MOL0     H32073   5.387   4.664   3.582  0.0422  1.7967  0.0400
  243MOL0     H32074   5.595   5.026   3.619  1.8851 -1.6483 -2.1088
  243MOL0     H32075   5.395   4.223   3.514  1.0025  0.8347 -0.8725
  243MOL0     H32076   5.256   4.060   3.327 -3.7301 -0.1988 -3.0257
  244MOL0     O32077   8.584   0.550  10.675 -0.0358  1.0900 -0.5524
  244MOL0     C32078   8.678   0.474  10.674 -0.0977  0.5910 -0.2172
  244MOL0     O32079   8.704   0.372  10.765 -0.0884 -0.3507 -0.7035
  244MOL0     C32080   8.602   0.352  10.859 -0.0751  0.7211 -0.3156
  244MOL0     C32081   8.513   0.251  10.841  0.2890  1.0541  0.6241
  244MOL0     C32082   8.395   0.243  10.920 -0.5373 -0.0850  0.7009
  244MOL0     C32083   8.376   0.329  11.029 -0.3557  0.6096 -0.0802
  244MOL0     O32084   8.260   0.322  11.097  0.1689 -0.3102 -0.2521
  244MOL0     C32085   8.243   0.388  11.227 -0.3498 -0.4373  0.1746
  244MOL0     C32086   8.124   0.322  11.296  0.2786  1.0451  0.3276
  244MOL0     C32087   8.100   0.353  11.448  0.7131 -0.4138  0.5179
  244MOL0     C32088   7.970   0.291  11.501  1.0931 -0.5771 -0.3995
  244MOL0     C32089   7.937   0.333  11.649  0.2664  0.1234  0.7792
  244MOL0     C32090   7.856   0.467  11.653 -0.6556 -0.0765 -0.4544
  244MOL0     C32091   7.815   0.500  11.798  0.1619  0.6291 -0.6871
  244MOL0     C32092   7.770   0.639  11.809  0.3847 -1.0096  0.5431
  244MOL0     N32093   7.728   0.673  11.940  0.3054 -0.5818 -0.2623
  244MOL0     C32094   7.637   0.769  11.969  0.0499  0.6822  0.9685
  244MOL0     C32095   7.631   0.780  12.101  0.2631 -0.5461  0.7604
  244MOL0     C32096   7.556   0.888  12.182 -0.3949  0.1353  0.1669
  244MOL0     C32097   7.526   0.845  12.322  1.3247  2.0698 -0.1915
  244MOL0     C32098   7.406   0.748  12.312 -0.3392 -1.0235  0.5990
  244MOL0     C32099   7.330   0.740  12.437  0.0321 -0.4830 -0.1952
  244MOL0     O32100   7.219   0.662  12.433 -0.1274 -0.4251  0.3707
  244MOL0     C32101   7.164   0.604  12.543  0.6260 -0.7886 -0.2871
  244MOL0     C32102   7.204   0.629  12.675  0.2800 -0.1388  0.1524
  244MOL0     C32103   7.129   0.605  12.795 -0.5732  0.8824 -0.1792
  244MOL0     C32104   7.002   0.551  12.775 -0.6229 -0.2689 -0.1092
  244MOL0     C32105   6.919   0.523  12.893  0.3833 -0.4754  0.6222
  244MOL0     O32106   6.788   0.485  12.863  0.1242  0.1657 -0.5505
  244MOL0     C32107   6.720   0.419  12.949 -0.4007  0.5972 -0.8161
  244MOL0     C32108   6.651   0.494  13.040 -0.7805 -0.7283  0.2825
  244MOL0     C32109   6.600   0.439  13.157  0.4595  0.0603  0.3597
  244MOL0     C32110   6.589   0.299  13.167 -1.3644  0.0487 -0.1308
  244MOL0     O32111   6.521   0.239  13.271 -0.2752  0.5446 -0.3206
  244MOL0     C32112   6.577   0.263  13.402 -0.6732  0.7049 -0.5655
  244MOL0     C32113   6.584   0.131  13.483  0.3493 -0.1451 -0.3703
  244MOL0     C32114   6.449   0.077  13.513  0.1638 -0.4339 -0.8158
  244MOL0     C32115   6.405   0.153  13.637 -0.2000  1.0894  1.2334
  244MOL0     C32116   6.261   0.116  13.681  0.1590  0.0393 -0.2622
  244MOL0     C32117   6.151   0.164  13.590 -0.6561  0.1988 -0.0854
  244MOL0     C32118   6.014   0.129  13.657 -0.9548  0.8012 -0.4109
  244MOL0     C32119   5.895   0.107  13.546  0.6161 -0.3281 -0.9658
  244MOL0    Cl32120   5.738   0.082  13.626  0.1176 -0.0456  0.0280
  244MOL0     C32121   6.658   0.215  13.070  0.1737 -0.4733 -0.0657
  244MOL0     C32122   6.712   0.280  12.965 -0.4119 -0.1891  0.6902
  244MOL0     O32123   6.969   0.531  13.008  0.0950  0.3632 -0.3559
  244MOL0     C32124   6.966   0.512  12.645  0.1434  0.4893  1.1350
  244MOL0     C32125   7.043   0.542  12.530  0.5748  0.0498 -0.1143
  244MOL0     N32126   7.719   0.684  12.147 -0.5555  0.6176 -0.5446
  244MOL0     N32127   7.774   0.623  12.053  0.0990 -0.0298 -0.8397
  244MOL0     C32128   8.481   0.422  11.059  0.0052  0.0760  0.2142
  244MOL0     C32129   8.592   0.434  10.973 -0.6720  0.2207 -0.2753
  244MOL0     C32130   8.774   0.485  10.553 -0.2609  0.2499 -0.3890
  244MOL0     C32131   8.732   0.566  10.444 -0.1293 -0.8950  0.1070
  244MOL0     C32132   8.829   0.584  10.337 -0.0231  1.8665 -0.2252
  244MOL0     C32133   8.954   0.509  10.335 -0.3959  0.8856  0.3813
  244MOL0     O32134   9.036   0.548  10.229 -0.2824  0.0535 -0.5674
  244MOL0     C32135   9.143   0.460  10.195  0.1851  0.2868 -0.1510
  244MOL0     C32136   9.207   0.515  10.064 -0.0250 -0.3675  0.0009
  244MOL0     C32137   9.112   0.543   9.952 -0.7814 -0.5376 -0.0055
  244MOL0     C32138   9.187   0.573   9.820 -0.0385  0.2985  0.8456
  244MOL0     C32139   9.245   0.453   9.759 -0.4454  0.2039  0.0870
  244MOL0     C32140   9.310   0.362   9.701  0.1518  0.0542 -0.5551
  244MOL0     C32141   8.992   0.436  10.451  0.6423 -0.2309 -0.4916
  244MOL0     C32142   8.901   0.420  10.552  1.1679  0.2969 -0.7160
  244MOL0     H32143   8.527   0.167  10.774 -0.5811 -1.2774  3.1927
  244MOL0     H32144   8.321   0.167  10.897 -1.5312  1.0500 -0.0098
  244MOL0     H32145   8.230   0.497  11.224 -0.8970 -0.4955  0.2452
  244MOL0     H32146   8.334   0.363  11.282 -0.4706  0.4993  0.8192
  244MOL0     H32147   8.133   0.213  11.296 -1.0469  0.8599 -2.5993
  244MOL0     H32148   8.035   0.361  11.246 -3.3960 -1.8165  3.9130
  244MOL0     H32149   8.077   0.459  11.463 -0.4558 -0.7837  1.4980
  244MOL0     H32150   8.193   0.330  11.502 -0.1599  2.1823  3.4581
  244MOL0     H32151   7.878   0.327  11.454 -0.6570 -2.8657  1.0862
  244MOL0     H32152   7.968   0.183  11.487 -0.1149 -0.5254 -0.7275
  244MOL0     H32153   8.030   0.345  11.705  0.4195  2.4027  0.1420
  244MOL0     H32154   7.882   0.249  11.693  0.8445 -1.2249 -0.9368
  244MOL0     H32155   7.766   0.463  11.592 -0.8604  2.3405 -0.3967
  244MOL0     H32156   7.913   0.547  11.606 -2.0036  0.4293 -1.2760
  244MOL0     H32157   7.732   0.435  11.824 -0.1801  0.9139 -1.0349
  244MOL0     H32158   7.905   0.490  11.859 -0.8194  1.8681  1.0582
  244MOL0     H32159   7.676   0.650  11.754 -0.7737 -2.2088  2.2039
  244MOL0     H32160   7.841   0.718  11.782  2.1430 -2.9049 -0.6641
  244MOL0     H32161   7.583   0.832  11.899 -0.1105 -0.5857 -0.0999
  244MOL0     H32162   7.471   0.922  12.122  1.1251  0.7911 -1.7194
  244MOL0     H32163   7.627   0.971  12.194  2.0957 -1.6178 -1.4830
  244MOL0     H32164   7.484   0.933  12.372 -0.1783  2.9853 -2.8412
  244MOL0     H32165   7.618   0.804  12.366 -0.1070  0.8150  1.7527
  244MOL0     H32166   7.341   0.780  12.230  2.2476  0.3097 -1.0642
  244MOL0     H32167   7.439   0.647  12.286 -1.4373 -1.6610  1.6013
  244MOL0     H32168   7.297   0.842  12.458 -1.4241 -0.9662 -0.0039
  244MOL0     H32169   7.404   0.709  12.511  1.2299  1.2110 -0.6182
  244MOL0     H32170   7.295   0.681  12.701 -0.1135  1.3801 -1.2860
  244MOL0     H32171   7.149   0.639  12.896 -1.1935 -2.5598  1.2111
  244MOL0     H32172   6.656   0.601  13.026  0.1063 -0.8450 -0.3402
  244MOL0     H32173   6.565   0.502  13.239 -0.8215 -1.1756  0.8075
  244MOL0     H32174   6.517   0.337  13.456  1.1773  0.7052  1.6406
  244MOL0     H32175   6.679   0.302  13.411  1.1042 -3.6703  0.9116
  244MOL0     H32176   6.643   0.143  13.574 -0.0629 -1.7028  0.1337
  244MOL0     H32177   6.638   0.060  13.420  0.3494  1.9356 -2.8464
  244MOL0     H32178   6.462  -0.031  13.529 -0.9795 -1.6468 -6.0002
  244MOL0     H32179   6.374   0.091  13.435 -2.9581  1.2714  2.2170
  244MOL0     H32180   6.469   0.140  13.725  0.4156  0.6664  0.7305
  244MOL0     H32181   6.397   0.259  13.611 -2.8602  0.3363 -1.5326
  244MOL0     H32182   6.245   0.155  13.782 -2.2409  1.0781 -0.9801
  244MOL0     H32183   6.243   0.008  13.690 -1.0341  0.3692  1.8743
  244MOL0     H32184   6.150   0.102  13.500  0.8389  1.3460 -0.9166
  244MOL0     H32185   6.152   0.270  13.566 -2.6528  0.1446 -0.5724
  244MOL0     H32186   6.008   0.038  13.716 -2.4222 -0.1550 -1.9315
  244MOL0     H32187   5.977   0.211  13.720  0.2429  1.8496 -1.0176
  244MOL0     H32188   5.913   0.025  13.477 -0.9782  0.0879 -1.9438
  244MOL0     H32189   5.894   0.202  13.491  0.1469  1.6892  2.2253
  244MOL0     H32190   6.660   0.106  13.079  3.1556 -0.3467  2.9540
  244MOL0     H32191   6.752   0.216  12.886  0.5937  0.9021  0.2702
  244MOL0     H32192   6.866   0.471  12.634 -0.8116  2.8548  0.5182
  244MOL0     H32193   7.011   0.534  12.427  0.5362  0.6774 -0.1557
  244MOL0     H32194   8.470   0.487  11.145 -2.0425  2.8647 -1.9840
  244MOL0     H32195   8.665   0.514  10.962 -1.9796  1.4152 -0.5639
  244MOL0     H32196   8.638   0.616  10.425 -1.3762 -3.6653 -1.6031
  244MOL0     H32197   8.812   0.652  10.254  0.5431  3.5091  0.9439
  244MOL0     H32198   9.108   0.357  10.188 -0.3594  0.2782  2.0518
  244MOL0     H32199   9.209   0.452  10.282 -0.4001 -0.8262  0.2103
  244MOL0     H32200   9.249   0.612  10.092 -0.5532 -0.0147 -0.3998
  244MOL0     H32201   9.298   0.462  10.035  0.1929 -0.1514  0.2819
  244MOL0     H32202   9.052   0.631   9.976 -4.0587 -2.9716  1.4767
  244MOL0     H32203   9.046   0.456   9.943 -0.2892 -1.2033  2.2792
  244MOL0     H32204   9.118   0.618   9.747 -1.0029 -2.1894  0.0961
  244MOL0     H32205   9.261   0.650   9.844  1.6701 -0.5711 -1.3206
  244MOL0     H32206   9.364   0.280   9.660  1.3420  0.3168  0.4413
  244MOL0     H32207   9.091   0.397  10.474  0.7517  0.4784  0.2565
  244MOL0     H32208   8.931   0.381  10.649 -1.3724  1.8126  0.7922
  245MOL0     O32209   0.533   0.457   4.514 -0.5017  0.5032  0.1963
  245MOL0     C32210   0.601   0.402   4.425 -0.9536 -0.3051 -0.5403
  245MOL0     O32211   0.565   0.370   4.300 -0.0687  0.2207 -0.6852
  245MOL0     C32212   0.438   0.369   4.265  0.7873 -1.2643  0.6865
  245MOL0     C32213   0.408   0.408   4.131 -0.4752  0.5010  0.1033
  245MOL0     C32214   0.277   0.419   4.087  0.5626  0.3101 -0.4062
  245MOL0     C32215   0.166   0.400   4.180 -0.3074  1.0575 -0.7378
  245MOL0     O32216   0.033   0.394   4.154  0.1418 -0.6836  0.4270
  245MOL0     C32217  -0.001   0.443   4.022  0.1224  0.6384 -0.1863
  245MOL0     C32218  -0.157   0.478   4.018 -0.1214  0.3828 -0.5240
  245MOL0     C32219  -0.247   0.357   4.047 -0.2605 -0.2556 -0.8653
  245MOL0     C32220  -0.389   0.404   4.077  0.6106  0.6359  0.0136
  245MOL0     C32221  -0.488   0.300   4.033  0.0501  0.2826 -0.6787
  245MOL0     C32222  -0.633   0.336   4.074 -0.4505 -0.5659  0.1642
  245MOL0     C32223  -0.729   0.214   4.054 -0.3720 -0.5406 -0.4932
  245MOL0     C32224  -0.880   0.261   4.062 -0.2329  0.5487  0.4837
  245MOL0     N32225  -0.910   0.348   3.945  1.0756 -0.2662 -0.4926
  245MOL0     C32226  -0.916   0.322   3.814 -0.1490 -0.3945  0.1351
  245MOL0     C32227  -0.927   0.441   3.750  0.5177 -0.1285 -0.0897
  245MOL0     C32228  -0.923   0.459   3.594 -0.3037 -0.0552  0.3381
  245MOL0     C32229  -0.799   0.382   3.540  0.6736 -0.2771 -0.2565
  245MOL0     C32230  -0.816   0.348   3.390  0.6678  1.2739 -0.0983
  245MOL0     C32231  -0.688   0.329   3.325 -0.1019  0.8095  0.4014
  245MOL0     O32232  -0.600   0.436   3.335  0.0900  0.5066  0.2198
  245MOL0     C32233  -0.484   0.438   3.264  0.1183  0.3509  0.3506
  245MOL0     C32234  -0.414   0.317   3.220 -0.7891 -0.1345 -0.6811
  245MOL0     C32235  -0.300   0.332   3.136  0.6530 -0.3448  0.2142
  245MOL0     C32236  -0.246   0.455   3.101 -0.3249 -0.1229 -0.8188
  245MOL0     C32237  -0.117   0.468   3.025 -0.5365  0.1066  0.3302
  245MOL0     O32238  -0.080   0.357   2.952  0.2283  0.4532  0.1766
  245MOL0     C32239   0.035   0.343   2.870  0.2598  1.0291 -0.1766
  245MOL0     C32240   0.151   0.419   2.891  0.3152 -0.4766 -0.5823
  245MOL0     C32241   0.258   0.399   2.805  0.2191  0.0921 -0.1731
  245MOL0     C32242   0.239   0.320   2.699 -0.0439  0.5130  0.9638
  245MOL0     O32243   0.350   0.298   2.616  0.1949 -0.1574  1.0080
  245MOL0     C32244   0.331   0.340   2.474 -0.2295 -0.1873 -0.5317
  245MOL0     C32245   0.476   0.341   2.427 -0.2768 -0.4597  0.5693
  245MOL0     C32246   0.520   0.486   2.385  0.1844  0.1463  0.1824
  245MOL0     C32247   0.655   0.480   2.318  0.5580  0.9201  0.5386
  245MOL0     C32248   0.691   0.617   2.257  0.4677  0.4300 -0.8597
  245MOL0     C32249   0.795   0.604   2.154  0.3051  0.1488 -0.6288
  245MOL0     C32250   0.833   0.736   2.088  0.4186  0.2365 -0.5949
  245MOL0     C32251   0.945   0.712   1.986  0.2008 -0.2719 -0.7477
  245MOL0    Cl32252   0.890   0.611   1.844  0.2101  0.5324 -0.4209
  245MOL0     C32253   0.130   0.246   2.680  1.0034 -0.2394  0.0018
  245MOL0     C32254   0.030   0.246   2.773  0.9544  0.4320 -0.8023
  245MOL0     O32255  -0.059   0.572   3.032  0.2039 -0.7270 -0.1455
  245MOL0     C32256  -0.312   0.573   3.151  0.6245  1.0465  0.2749
  245MOL0     C32257  -0.428   0.560   3.228  0.8189  0.7129  0.5137
  245MOL0     N32258  -0.943   0.534   3.850 -0.5644  0.5569  0.6743
  245MOL0     N32259  -0.934   0.481   3.966 -0.5383  0.4108 -0.6620
  245MOL0     C32260   0.202   0.355   4.317 -0.7983 -0.4099  1.2880
  245MOL0     C32261   0.335   0.337   4.352 -0.3144  0.4178  0.4128
  245MOL0     C32262   0.733   0.353   4.460 -0.9685  0.2144  0.1670
  245MOL0     C32263   0.783   0.244   4.389 -0.2966  0.0171  0.1020
  245MOL0     C32264   0.912   0.200   4.425 -0.5979 -0.2795  0.2146
  245MOL0     C32265   0.987   0.260   4.529 -0.5926 -0.3312 -0.8927
  245MOL0     O32266   1.108   0.220   4.581 -0.0257  0.0418  0.3229
  245MOL0     C32267   1.135   0.080   4.578 -0.0475 -1.0736  0.0134
  245MOL0     C32268   1.266   0.060   4.521  0.0204  0.0616  1.0574
  245MOL0     C32269   1.302  -0.088   4.510  0.1156  0.8076  0.4380
  245MOL0     C32270   1.452  -0.104   4.476 -0.4576  0.1198 -0.3982
  245MOL0     C32271   1.537  -0.066   4.594  0.2711  0.2404  0.1404
  245MOL0     C32272   1.614  -0.029   4.680 -0.4506  0.8686 -0.6192
  245MOL0     C32273   0.941   0.366   4.592  0.7208  0.3830  0.0677
  245MOL0     C32274   0.814   0.421   4.563  0.7646  0.2588  0.9905
  245MOL0     H32275   0.484   0.444   4.063 -2.7374  1.7535 -1.9679
  245MOL0     H32276   0.262   0.435   3.981  0.6834 -1.2678 -0.6857
  245MOL0     H32277   0.025   0.372   3.944  2.0814  2.7462 -1.5850
  245MOL0     H32278   0.055   0.536   4.008 -1.6042  1.5498 -1.4474
  245MOL0     H32279  -0.185   0.517   3.920  1.4731 -0.3961 -1.3237
  245MOL0     H32280  -0.170   0.558   4.092  0.2026  1.2853 -1.4118
  245MOL0     H32281  -0.210   0.298   4.131  0.7419 -0.6517 -1.5541
  245MOL0     H32282  -0.248   0.293   3.958 -0.4063  2.0614 -2.6152
  245MOL0     H32283  -0.385   0.431   4.183 -0.3044  1.2055 -0.0843
  245MOL0     H32284  -0.402   0.497   4.021  3.0945  2.2888  1.9607
  245MOL0     H32285  -0.456   0.204   4.073 -0.3266 -0.0229 -1.0926
  245MOL0     H32286  -0.483   0.300   3.923 -0.0843 -1.7319 -0.7258
  245MOL0     H32287  -0.669   0.426   4.022  2.2709  0.1495 -0.6139
  245MOL0     H32288  -0.652   0.365   4.178 -0.9916 -0.2462 -0.0176
  245MOL0     H32289  -0.709   0.181   3.952 -0.9472  2.4653 -1.6800
  245MOL0     H32290  -0.711   0.146   4.138  0.4109 -1.3022 -1.2716
  245MOL0     H32291  -0.913   0.304   4.157 -0.4351 -0.3480  0.8318
  245MOL0     H32292  -0.939   0.170   4.070  3.5560 -2.1241  0.9803
  245MOL0     H32293  -0.898   0.223   3.773  1.2709 -0.8526  1.7280
  245MOL0     H32294  -0.914   0.566   3.573 -1.2785 -0.3291 -1.6814
  245MOL0     H32295  -1.018   0.427   3.551 -1.4154  0.2450  2.4240
  245MOL0     H32296  -0.793   0.292   3.602  0.1538  1.4670  2.4658
  245MOL0     H32297  -0.707   0.438   3.558  1.4061 -2.0801  2.0259
  245MOL0     H32298  -0.882   0.261   3.382  1.2228  0.7467  0.8879
  245MOL0     H32299  -0.877   0.430   3.350 -3.2682 -0.6651  1.3889
  245MOL0     H32300  -0.712   0.308   3.220 -0.2995 -0.9633  0.7727
  245MOL0     H32301  -0.645   0.246   3.382 -2.8577  1.6020  3.9941
  245MOL0     H32302  -0.436   0.213   3.242 -0.1983 -0.8383 -3.1395
  245MOL0     H32303  -0.252   0.235   3.123  2.0811  0.4235 -0.4474
  245MOL0     H32304   0.158   0.489   2.974  1.6895 -1.3368  0.0631
  245MOL0     H32305   0.350   0.455   2.808  0.1194  0.2478 -0.0293
  245MOL0     H32306   0.291   0.442   2.479 -0.3179 -0.2696  0.6850
  245MOL0     H32307   0.274   0.257   2.430 -2.3179  1.1291 -0.4782
  245MOL0     H32308   0.470   0.296   2.327  1.5995  0.4042  0.0062
  245MOL0     H32309   0.548   0.284   2.486  0.7166  2.4307  2.3421
  245MOL0     H32310   0.532   0.545   2.476  0.2917 -0.7845  0.7780
  245MOL0     H32311   0.439   0.532   2.328 -0.1354 -1.9637 -1.1600
  245MOL0     H32312   0.740   0.442   2.376 -0.3561 -1.6301  0.3205
  245MOL0     H32313   0.651   0.403   2.241 -2.0236  1.2383  0.2607
  245MOL0     H32314   0.713   0.689   2.336 -0.4887 -0.5885  0.3788
  245MOL0     H32315   0.602   0.654   2.206 -0.5007  0.1564  0.5890
  245MOL0     H32316   0.773   0.530   2.077  2.3126  0.8263 -1.9479
  245MOL0     H32317   0.880   0.572   2.215  0.9439 -3.4206 -3.0589
  245MOL0     H32318   0.752   0.790   2.038  0.2761 -0.3875 -1.0546
  245MOL0     H32319   0.859   0.793   2.178 -1.7748 -0.0332  0.2545
  245MOL0     H32320   1.031   0.672   2.039 -0.4948 -0.7736  0.0277
  245MOL0     H32321   0.972   0.815   1.961  2.1593 -1.0347 -1.9792
  245MOL0     H32322   0.117   0.175   2.598  0.3751  0.7436 -0.7617
  245MOL0     H32323  -0.059   0.187   2.750  2.4338 -2.8023  1.0084
  245MOL0     H32324  -0.274   0.670   3.123  1.3277  0.4816 -0.8192
  245MOL0     H32325  -0.501   0.638   3.247 -1.3203 -0.5004 -2.0796
  245MOL0     H32326   0.123   0.330   4.386 -1.1993  0.5373  1.1938
  245MOL0     H32327   0.349   0.311   4.456 -0.3864  0.3663  0.4101
  245MOL0     H32328   0.727   0.196   4.309  0.0201 -0.5160  0.1917
  245MOL0     H32329   0.958   0.126   4.360  2.3008  1.6199 -0.0803
  245MOL0     H32330   1.057   0.023   4.527 -0.0629  1.4606 -3.0636
  245MOL0     H32331   1.150   0.041   4.679  1.6043 -4.4017 -1.3503
  245MOL0     H32332   1.262   0.100   4.420 -2.2870 -2.0399  0.2000
  245MOL0     H32333   1.345   0.110   4.578 -0.0195  1.1100  0.2088
  245MOL0     H32334   1.238  -0.131   4.433  1.1154 -2.3702  1.1994
  245MOL0     H32335   1.273  -0.140   4.601 -3.5930  0.4931 -0.7641
  245MOL0     H32336   1.484  -0.205   4.451  2.5997  0.6328  1.0177
  245MOL0     H32337   1.488  -0.048   4.389  4.1029 -0.6362  0.7480
  245MOL0     H32338   1.681   0.002   4.757  1.5309 -1.3925 -1.3287
  245MOL0     H32339   1.006   0.416   4.664  1.5746 -1.0463  0.3380
  245MOL0     H32340   0.760   0.510   4.595  0.3760  0.9776 -1.4810
  246MOL0     O32341   0.142   9.612   9.532 -0.0656 -0.7095  0.0863
  246MOL0     C32342   0.238   9.569   9.467 -0.6500  0.7170  0.2301
  246MOL0     O32343   0.236   9.500   9.349  0.4198  0.7903  0.3048
  246MOL0     C32344   0.113   9.448   9.320  0.3881  0.6117 -0.3798
  246MOL0     C32345   0.092   9.312   9.291  0.3399 -0.2977 -0.3089
  246MOL0     C32346  -0.037   9.260   9.280  0.0697  0.4140  0.4698
  246MOL0     C32347  -0.155   9.346   9.286 -0.0460 -0.3540 -0.7663
  246MOL0     O32348  -0.289   9.316   9.271  0.0630 -0.5587  0.4344
  246MOL0     C32349  -0.319   9.181   9.251 -0.4336 -0.5174 -0.4249
  246MOL0     C32350  -0.436   9.135   9.323  0.0997  0.2795  0.5505
  246MOL0     C32351  -0.569   9.185   9.262 -0.3459  0.5546 -0.1783
  246MOL0     C32352  -0.690   9.140   9.355 -0.3985 -0.3195  0.3204
  246MOL0     C32353  -0.701   9.238   9.469  0.3206 -0.0787  0.3025
  246MOL0     C32354  -0.826   9.206   9.553 -0.0072 -0.7812  0.0206
  246MOL0     C32355  -0.810   9.094   9.659 -0.2101  0.4285  0.6021
  246MOL0     C32356  -0.945   9.064   9.719 -0.4183  0.3147  0.0829
  246MOL0     N32357  -0.984   9.148   9.830 -0.3216 -0.4075 -0.8214
  246MOL0     C32358  -0.939   9.141   9.964 -0.2194  0.3238  0.8440
  246MOL0     C32359  -1.010   9.229  10.031  0.0724  0.1282 -1.2648
  246MOL0     C32360  -0.979   9.242  10.179 -0.0485 -1.0729 -0.2841
  246MOL0     C32361  -1.009   9.112  10.252  0.7311 -0.3962 -0.3478
  246MOL0     C32362  -1.147   9.061  10.237  0.0520 -0.2460  1.0319
  246MOL0     C32363  -1.251   9.171  10.270 -0.1632  0.7961 -0.0634
  246MOL0     O32364  -1.249   9.211  10.412  1.0575 -0.8570  0.0028
  246MOL0     C32365  -1.369   9.262  10.452  0.4045  0.5077 -0.4194
  246MOL0     C32366  -1.378   9.397  10.467  0.8702  0.3708 -0.1871
  246MOL0     C32367  -1.490   9.463  10.512  0.8117 -0.0759 -0.1286
  246MOL0     C32368  -1.610   9.386  10.538  0.1144 -0.4202 -0.0822
  246MOL0     C32369  -1.750   9.443  10.551  0.3528 -0.3409  0.3257
  246MOL0     O32370  -1.852   9.347  10.563 -0.4637 -0.0287  0.4048
  246MOL0     C32371  -1.981   9.373  10.558  0.4128 -0.4902  0.8469
  246MOL0     C32372  -2.061   9.303  10.467 -0.4285  1.2257 -0.8621
  246MOL0     C32373  -2.199   9.331  10.451 -1.1123 -0.4197  0.5867
  246MOL0     C32374  -2.256   9.441  10.535 -0.0780 -0.4128 -0.3028
  246MOL0     O32375  -2.381   9.492  10.522 -0.3715 -0.0266  0.6222
  246MOL0     C32376  -2.478   9.406  10.463  0.2694 -0.0802  0.2572
  246MOL0     C32377  -2.623   9.467  10.488  0.0916 -0.0576 -0.1291
  246MOL0     C32378  -2.735   9.372  10.447  0.4889 -0.8236  0.0536
  246MOL0     C32379  -2.866   9.437  10.477 -0.2770  0.1352  0.3383
  246MOL0     C32380  -2.970   9.356  10.395 -0.4044  0.2723 -0.4150
  246MOL0     C32381  -3.109   9.418  10.411 -0.4034 -0.8385 -0.6740
  246MOL0     C32382  -3.209   9.371  10.304  0.0297  0.2909 -0.2855
  246MOL0     C32383  -3.339   9.445  10.290 -0.0139  0.0784 -0.0792
  246MOL0    Cl32384  -3.458   9.361  10.172  0.1622  0.6837  0.1279
  246MOL0     C32385  -2.183   9.494  10.643 -0.4943  0.2359 -0.8386
  246MOL0     C32386  -2.044   9.454  10.652 -0.0830  1.0768  0.5050
  246MOL0     O32387  -1.760   9.563  10.531  0.8605  0.2836 -0.5038
  246MOL0     C32388  -1.608   9.247  10.511 -0.1216  0.0002 -0.0342
  246MOL0     C32389  -1.481   9.184  10.481 -0.0841 -0.5060 -0.6508
  246MOL0     N32390  -1.095   9.299   9.949  0.2396 -0.1122 -0.4108
  246MOL0     N32391  -1.075   9.245   9.829 -0.0007 -0.1565 -0.2449
  246MOL0     C32392  -0.133   9.481   9.309 -0.4262  0.0632  0.0028
  246MOL0     C32393  -0.001   9.529   9.309  0.5799  0.1777  0.0437
  246MOL0     C32394   0.380   9.583   9.514 -0.4708  1.2449 -0.1320
  246MOL0     C32395   0.491   9.534   9.442 -0.8454  0.0791 -0.7220
  246MOL0     C32396   0.618   9.587   9.472  0.0343 -0.2580 -0.1957
  246MOL0     C32397   0.641   9.678   9.575  0.6327  0.0885 -0.5631
  246MOL0     O32398   0.768   9.718   9.617  0.3790 -0.8756  0.1102
  246MOL0     C32399   0.877   9.659   9.544 -0.8364 -0.6358 -0.3124
  246MOL0     C32400   0.908   9.508   9.571 -0.0749  0.1317 -0.4741
  246MOL0     C32401   1.005   9.434   9.467 -0.1219  0.0605  0.3062
  246MOL0     C32402   1.136   9.504   9.454  0.4268  0.5476 -0.4913
  246MOL0     C32403   1.242   9.404   9.454  0.5772 -0.5111 -0.2608
  246MOL0     C32404   1.330   9.318   9.476 -0.5440  1.0274 -0.9557
  246MOL0     C32405   0.532   9.706   9.665  0.2394  0.6084  0.5527
  246MOL0     C32406   0.402   9.656   9.629  0.3936  0.7410  1.0530
  246MOL0     H32407   0.181   9.250   9.292 -0.5859 -1.6710  0.2877
  246MOL0     H32408  -0.053   9.154   9.265  2.3050 -0.0637  1.1140
  246MOL0     H32409  -0.233   9.118   9.278  3.0911  3.8710 -0.3986
  246MOL0     H32410  -0.337   9.167   9.144 -0.1634 -1.4059 -0.3702
  246MOL0     H32411  -0.412   9.169   9.424 -0.2093 -1.4453  1.2563
  246MOL0     H32412  -0.445   9.026   9.321 -0.4771  0.3372 -1.2037
  246MOL0     H32413  -0.593   9.150   9.161  1.0981 -3.2627  0.6320
  246MOL0     H32414  -0.557   9.294   9.259  1.3248  0.4392  0.8783
  246MOL0     H32415  -0.783   9.129   9.298 -0.0838 -1.6568  0.0332
  246MOL0     H32416  -0.672   9.041   9.399  1.7092  0.1314  0.5785
  246MOL0     H32417  -0.715   9.343   9.445 -1.7922 -0.6127 -1.0178
  246MOL0     H32418  -0.601   9.235   9.515  0.3531 -0.6520  0.2080
  246MOL0     H32419  -0.904   9.170   9.485 -0.8863 -0.2589  0.7315
  246MOL0     H32420  -0.851   9.298   9.607  0.5519  0.4598 -1.7477
  246MOL0     H32421  -0.786   8.995   9.620 -1.4430  0.6974 -0.9460
  246MOL0     H32422  -0.729   9.124   9.727  1.9412  2.1387 -2.4708
  246MOL0     H32423  -0.950   8.958   9.746 -3.3362  0.5459  0.7652
  246MOL0     H32424  -1.026   9.079   9.646 -0.7183  1.4235  0.6344
  246MOL0     H32425  -0.867   9.073  10.008 -1.9171 -2.1552  0.0051
  246MOL0     H32426  -1.049   9.316  10.218  1.4038  1.6714 -2.5850
  246MOL0     H32427  -0.879   9.285  10.185 -0.8770  0.8375  0.8604
  246MOL0     H32428  -0.976   9.122  10.356  4.5312 -1.1883 -1.3281
  246MOL0     H32429  -0.948   9.030  10.212 -0.5500 -0.5020 -2.1799
  246MOL0     H32430  -1.156   9.032  10.131 -2.1016  3.7616 -0.1054
  246MOL0     H32431  -1.159   8.975  10.303  3.3507 -2.2945 -0.7574
  246MOL0     H32432  -1.354   9.139  10.255  0.2788 -0.1751 -1.1806
  246MOL0     H32433  -1.247   9.257  10.203 -1.5101  0.4729 -0.5782
  246MOL0     H32434  -1.289   9.458  10.453  0.1508  1.5503  0.1871
  246MOL0     H32435  -1.497   9.571  10.523  1.8990  0.2421 -2.1885
  246MOL0     H32436  -2.008   9.221  10.421 -0.0751  0.0216  1.5409
  246MOL0     H32437  -2.254   9.300  10.363  2.7044  1.4018 -2.8033
  246MOL0     H32438  -2.456   9.312  10.515  1.8758 -0.9204 -1.8160
  246MOL0     H32439  -2.470   9.392  10.355  2.0253 -1.1244  0.4832
  246MOL0     H32440  -2.624   9.555  10.423  0.5166  0.2941  0.3293
  246MOL0     H32441  -2.640   9.495  10.592 -0.4020 -2.4597  0.4976
  246MOL0     H32442  -2.729   9.273  10.495 -0.0846 -1.4041 -1.0396
  246MOL0     H32443  -2.725   9.353  10.340  0.6167 -2.1713  0.2915
  246MOL0     H32444  -2.882   9.434  10.585  0.5464 -0.5678  0.4571
  246MOL0     H32445  -2.866   9.540  10.441 -2.1091 -0.2082 -0.7618
  246MOL0     H32446  -2.964   9.255  10.438  0.1200  0.2821 -0.4634
  246MOL0     H32447  -2.946   9.355  10.289 -1.5737  1.4796 -0.7236
  246MOL0     H32448  -3.096   9.526  10.404 -1.3624 -0.8148 -2.5676
  246MOL0     H32449  -3.145   9.405  10.513  0.2997 -0.9618 -0.4318
  246MOL0     H32450  -3.156   9.379  10.209 -0.3680  0.1157 -0.5276
  246MOL0     H32451  -3.235   9.268  10.328 -0.1896  0.8808  2.2310
  246MOL0     H32452  -3.320   9.547  10.256 -3.5881  1.2557  0.9068
  246MOL0     H32453  -3.377   9.451  10.393  2.5112 -3.7547  1.2934
  246MOL0     H32454  -2.231   9.567  10.709 -0.9103 -0.5404 -0.2569
  246MOL0     H32455  -1.985   9.489  10.736  2.3687 -2.8513  0.6509
  246MOL0     H32456  -1.699   9.188  10.510 -0.1336 -0.0186 -1.9590
  246MOL0     H32457  -1.481   9.077  10.467  1.3435 -0.8381  1.4352
  246MOL0     H32458  -0.218   9.549   9.310 -0.5148  0.0727  3.5593
  246MOL0     H32459   0.020   9.636   9.315  4.0835 -0.4713  4.9148
  246MOL0     H32460   0.481   9.458   9.365  0.7196 -1.1031  0.2049
  246MOL0     H32461   0.703   9.573   9.406  0.3818 -0.9364  0.3909
  246MOL0     H32462   0.960   9.727   9.566 -0.2884 -1.1319 -0.8205
  246MOL0     H32463   0.869   9.680   9.437  1.2685 -0.8124 -0.5500
  246MOL0     H32464   0.955   9.492   9.669 -0.9222 -1.3486 -0.2702
  246MOL0     H32465   0.816   9.451   9.586  0.7085 -0.4493  3.1085
  246MOL0     H32466   0.943   9.444   9.377  2.6063  0.9871 -1.5953
  246MOL0     H32467   1.015   9.328   9.492  4.6143 -0.1037 -1.2636
  246MOL0     H32468   1.154   9.548   9.356  2.8063 -0.6713 -0.6579
  246MOL0     H32469   1.145   9.589   9.522  1.7967 -0.7895  1.1095
  246MOL0     H32470   1.407   9.246   9.490 -0.2569  1.5890  0.4560
  246MOL0     H32471   0.538   9.737   9.769 -1.3441  2.2769  0.1879
  246MOL0     H32472   0.321   9.685   9.695  0.6746 -0.4164  1.9420
  247MOL0     O32473   5.163   1.019   8.441 -0.3915 -0.6646  0.5686
  247MOL0     C32474   5.270   1.085   8.457  0.5138 -0.1877 -0.0945
  247MOL0     O32475   5.337   1.160   8.353 -0.3084 -0.1438 -0.2869
  247MOL0     C32476   5.301   1.185   8.225 -0.6598  0.1119 -0.5403
  247MOL0     C32477   5.189   1.133   8.159  0.1133  0.4165  0.5380
  247MOL0     C32478   5.163   1.161   8.019  0.3490 -0.3246  0.7314
  247MOL0     C32479   5.253   1.224   7.938  0.5293 -0.7476 -0.4631
  247MOL0     O32480   5.230   1.238   7.806 -0.0487 -0.1535 -0.4731
  247MOL0     C32481   5.329   1.230   7.711  0.3223  0.3585  1.1349
  247MOL0     C32482   5.276   1.200   7.570 -1.2980  0.1477 -0.2016
  247MOL0     C32483   5.385   1.143   7.483 -0.2953 -0.4246 -0.8678
  247MOL0     C32484   5.482   1.244   7.430  0.2539  0.7774  0.2501
  247MOL0     C32485   5.571   1.195   7.309 -0.2526  0.1050 -0.4160
  247MOL0     C32486   5.640   1.321   7.248 -0.7505 -0.3955 -0.5914
  247MOL0     C32487   5.719   1.304   7.110  0.0511 -0.2916 -0.6345
  247MOL0     C32488   5.832   1.200   7.122 -1.2053 -0.0268 -0.8054
  247MOL0     N32489   5.881   1.166   6.990  1.0658  0.3855  0.7733
  247MOL0     C32490   5.989   1.217   6.925  0.1017 -1.2720 -0.7460
  247MOL0     C32491   6.001   1.160   6.802 -0.1877 -0.0315 -0.4950
  247MOL0     C32492   6.105   1.167   6.694  0.9109 -0.3585  0.5842
  247MOL0     C32493   6.248   1.178   6.746  0.2388  0.4447 -0.4503
  247MOL0     C32494   6.341   1.203   6.629  0.0022 -0.7253  0.3394
  247MOL0     C32495   6.479   1.243   6.667 -0.3700 -0.2176 -1.0326
  247MOL0     O32496   6.550   1.283   6.553 -0.4008 -0.0094  0.4042
  247MOL0     C32497   6.691   1.271   6.563 -0.2837 -0.3489 -0.0482
  247MOL0     C32498   6.760   1.263   6.443 -0.0390 -0.0856 -1.3598
  247MOL0     C32499   6.890   1.268   6.435 -0.4094 -0.7812  0.1469
  247MOL0     C32500   6.974   1.272   6.553 -0.5474 -0.0908  0.4644
  247MOL0     C32501   7.128   1.280   6.550  0.1705  0.7614  0.5330
  247MOL0     O32502   7.185   1.305   6.429 -0.2747  0.0872  0.5851
  247MOL0     C32503   7.298   1.377   6.409  0.9000 -0.6834  0.1734
  247MOL0     C32504   7.342   1.484   6.495 -0.7840  0.0279 -0.2325
  247MOL0     C32505   7.465   1.546   6.464  0.0578 -0.1131 -0.4825
  247MOL0     C32506   7.547   1.500   6.360 -0.5659  0.2689  0.6760
  247MOL0     O32507   7.673   1.566   6.348 -0.8045 -0.2122 -0.0762
  247MOL0     C32508   7.736   1.569   6.220 -0.3872  0.3935  0.0747
  247MOL0     C32509   7.868   1.654   6.220  0.3471 -0.0664 -0.7632
  247MOL0     C32510   7.892   1.700   6.081  0.1018  0.0516  0.2843
  247MOL0     C32511   8.020   1.795   6.075  0.2145  0.7537 -0.7714
  247MOL0     C32512   8.039   1.818   5.927 -0.5609 -0.2722  0.0183
  247MOL0     C32513   8.179   1.883   5.912  0.4867  0.0797 -0.4865
  247MOL0     C32514   8.206   1.950   5.771 -0.4397  0.0457  0.1164
  247MOL0     C32515   8.355   1.988   5.753  0.5746 -0.1067  0.2450
  247MOL0    Cl32516   8.410   2.098   5.887  0.2336  0.1166 -0.3853
  247MOL0     C32517   7.497   1.391   6.276  0.6237  0.2490 -0.2635
  247MOL0     C32518   7.375   1.333   6.302  1.1832  0.5015 -0.5928
  247MOL0     O32519   7.190   1.293   6.656  0.4623 -0.7412  0.2810
  247MOL0     C32520   6.905   1.268   6.681  0.0135 -0.0023  1.4282
  247MOL0     C32521   6.762   1.280   6.682 -0.0565 -0.0904  0.4040
  247MOL0     N32522   5.891   1.076   6.788 -0.1616 -0.4083 -0.3323
  247MOL0     N32523   5.828   1.075   6.910 -0.3289  1.3125  0.5778
  247MOL0     C32524   5.365   1.269   8.007 -0.2886 -0.1523 -0.8392
  247MOL0     C32525   5.386   1.242   8.149  0.4825 -0.7800 -0.4422
  247MOL0     C32526   5.319   1.105   8.598 -0.1182  0.0388  0.3012
  247MOL0     C32527   5.302   1.012   8.705 -0.4032  0.2632  0.2483
  247MOL0     C32528   5.344   1.035   8.843  1.1036  0.1672  0.4754
  247MOL0     C32529   5.390   1.163   8.877 -0.6310 -0.6931 -0.7715
  247MOL0     O32530   5.430   1.184   9.008 -0.1234  0.4875  0.5671
  247MOL0     C32531   5.488   1.304   9.048  0.9271  0.6445 -0.7080
  247MOL0     C32532   5.641   1.311   9.027 -0.0346 -0.1677  0.8672
  247MOL0     C32533   5.723   1.212   9.094  0.3649 -0.5246 -0.1588
  247MOL0     C32534   5.881   1.222   9.064  0.6032  0.3068 -0.5102
  247MOL0     C32535   5.893   1.198   8.917  0.1872  0.4186  0.5846
  247MOL0     C32536   5.917   1.184   8.800  0.1680 -0.1573  1.0595
  247MOL0     C32537   5.406   1.257   8.768 -0.5625  0.2872 -0.2679
  247MOL0     C32538   5.365   1.232   8.631 -0.3642  0.6609 -0.9626
  247MOL0     H32539   5.129   1.066   8.220  0.2651 -0.0704  0.1583
  247MOL0     H32540   5.077   1.112   7.974 -0.0077  1.0792 -0.1794
  247MOL0     H32541   5.394   1.149   7.744  4.0209  2.2666 -0.9384
  247MOL0     H32542   5.395   1.317   7.705 -0.2934  0.8205  0.9373
  247MOL0     H32543   5.227   1.290   7.533 -2.0922  0.9230  2.4580
  247MOL0     H32544   5.200   1.123   7.585 -2.0699  0.8526 -0.4461
  247MOL0     H32545   5.340   1.077   7.408 -0.7518  0.2685 -1.2095
  247MOL0     H32546   5.449   1.080   7.546  0.5814 -1.5934 -2.8094
  247MOL0     H32547   5.428   1.330   7.390  1.2306  0.3411 -2.1896
  247MOL0     H32548   5.551   1.270   7.511  1.1703 -1.5700  0.3057
  247MOL0     H32549   5.514   1.138   7.235  2.6864 -1.8083 -1.3852
  247MOL0     H32550   5.651   1.129   7.343  1.8640  1.7431 -1.9294
  247MOL0     H32551   5.712   1.359   7.322 -0.1283  0.6395 -1.6917
  247MOL0     H32552   5.569   1.401   7.225 -0.0048  0.5178  0.1684
  247MOL0     H32553   5.640   1.273   7.041  0.9896 -2.0947 -0.9513
  247MOL0     H32554   5.756   1.406   7.093 -2.8877  1.5399  2.5041
  247MOL0     H32555   5.804   1.102   7.160 -0.8809  0.1522 -0.0856
  247MOL0     H32556   5.924   1.238   7.168  0.3091 -3.8016 -0.3446
  247MOL0     H32557   6.060   1.284   6.973  1.2109 -1.4345 -2.0883
  247MOL0     H32558   6.088   1.255   6.632  1.8475 -1.8464 -1.9657
  247MOL0     H32559   6.097   1.079   6.629  1.5865 -0.5887  0.8010
  247MOL0     H32560   6.276   1.082   6.789  0.3300  0.4722 -0.4489
  247MOL0     H32561   6.254   1.259   6.820 -0.1615 -1.5072  1.8629
  247MOL0     H32562   6.348   1.117   6.561 -1.9196 -1.0832  0.5362
  247MOL0     H32563   6.293   1.283   6.572 -0.5062 -1.9626 -1.0474
  247MOL0     H32564   6.537   1.162   6.713 -1.5275  0.4836  1.8935
  247MOL0     H32565   6.483   1.326   6.739  1.2308 -0.9257 -0.2405
  247MOL0     H32566   6.703   1.259   6.351  1.4717 -0.9689 -2.3213
  247MOL0     H32567   6.937   1.276   6.337 -0.3174  3.3968  0.3704
  247MOL0     H32568   7.290   1.521   6.582 -1.1362  2.3893 -1.3468
  247MOL0     H32569   7.493   1.632   6.524  1.1263 -2.1578  2.1491
  247MOL0     H32570   7.661   1.615   6.154 -1.7811  1.6236  2.4160
  247MOL0     H32571   7.770   1.473   6.180 -0.2101  0.7924 -0.7621
  247MOL0     H32572   7.948   1.586   6.251  0.2951  0.6296  1.0385
  247MOL0     H32573   7.862   1.742   6.285 -1.1321 -0.5017 -0.2700
  247MOL0     H32574   7.804   1.760   6.056 -0.9774 -0.6155  2.2694
  247MOL0     H32575   7.908   1.614   6.015 -3.4173 -2.5666  2.4673
  247MOL0     H32576   8.002   1.890   6.126 -2.5294  0.8522 -1.7723
  247MOL0     H32577   8.098   1.735   6.123 -2.2576 -2.1673 -0.0594
  247MOL0     H32578   7.960   1.891   5.905  2.4382  3.3550  0.4063
  247MOL0     H32579   8.037   1.726   5.867  2.0155 -0.9447  0.8495
  247MOL0     H32580   8.255   1.806   5.925 -1.9130 -2.3935 -0.2251
  247MOL0     H32581   8.199   1.951   5.996 -1.3905 -0.1480  0.1919
  247MOL0     H32582   8.182   1.883   5.688  3.7246 -0.6945 -0.6706
  247MOL0     H32583   8.145   2.040   5.756  0.1203  0.2546 -0.9428
  247MOL0     H32584   8.361   2.034   5.654 -1.9757 -1.2491 -0.5381
  247MOL0     H32585   8.412   1.895   5.756 -0.4644 -0.8052 -0.8628
  247MOL0     H32586   7.558   1.358   6.192  0.6737  1.5394 -0.7605
  247MOL0     H32587   7.340   1.246   6.246  1.6434  1.0058 -1.6945
  247MOL0     H32588   6.969   1.288   6.767  2.6650 -2.0939  0.0936
  247MOL0     H32589   6.702   1.296   6.771  0.2257  2.0696  0.2437
  247MOL0     H32590   5.444   1.325   7.958 -0.8556  1.0711 -0.4079
  247MOL0     H32591   5.476   1.285   8.192  0.9418  0.8206 -2.8032
  247MOL0     H32592   5.248   0.919   8.692  0.4583 -0.0111 -1.7455
  247MOL0     H32593   5.343   0.961   8.922  3.5950 -1.2664 -0.7373
  247MOL0     H32594   5.471   1.313   9.155  3.9495  3.6493 -0.3199
  247MOL0     H32595   5.436   1.386   8.998  0.7309  1.4038  0.7111
  247MOL0     H32596   5.665   1.298   8.922  1.8615  1.2650  1.0844
  247MOL0     H32597   5.677   1.412   9.048  1.7030 -0.5057 -0.3002
  247MOL0     H32598   5.685   1.116   9.057 -5.6422  0.8192  1.3330
  247MOL0     H32599   5.705   1.215   9.202 -2.0208  0.2286 -0.5125
  247MOL0     H32600   5.921   1.318   9.097 -0.6108  0.2193  1.3832
  247MOL0     H32601   5.930   1.137   9.113 -1.2937 -1.1896 -1.0473
  247MOL0     H32602   5.935   1.177   8.694 -1.4638  0.4087  0.7300
  247MOL0     H32603   5.439   1.357   8.795  0.6550 -0.5765  1.7061
  247MOL0     H32604   5.355   1.308   8.554  4.1084  0.8101 -1.6428
  248MOL0     O32605   5.577   7.004   0.640  0.4019 -0.1439  0.3753
  248MOL0     C32606   5.611   7.022   0.518  0.5067  0.6121 -0.8729
  248MOL0     O32607   5.528   6.987   0.414 -0.1451  0.0272 -0.6697
  248MOL0     C32608   5.410   6.919   0.441  0.4978 -0.3403 -0.4026
  248MOL0     C32609   5.320   6.979   0.527 -0.1559 -0.6163  1.3446
  248MOL0     C32610   5.199   6.928   0.550 -0.6455  0.1489 -0.4795
  248MOL0     C32611   5.149   6.813   0.482 -0.3626 -0.3013 -0.1141
  248MOL0     O32612   5.015   6.781   0.497  0.0652 -0.2058  0.1837
  248MOL0     C32613   5.007   6.692   0.606 -0.2503 -0.0087  0.0200
  248MOL0     C32614   4.859   6.662   0.649  1.0690 -0.5269 -0.4795
  248MOL0     C32615   4.777   6.792   0.653 -0.1911 -0.6270  0.2299
  248MOL0     C32616   4.649   6.761   0.723  0.1584  0.4246 -0.1212
  248MOL0     C32617   4.565   6.889   0.724 -0.8554  0.3064 -1.5329
  248MOL0     C32618   4.602   6.985   0.838  0.8597 -0.8631  0.3622
  248MOL0     C32619   4.501   7.100   0.825 -0.2946 -0.5097 -0.1956
  248MOL0     C32620   4.495   7.185   0.963  0.4983  0.2922  0.4347
  248MOL0     N32621   4.631   7.233   0.998 -0.5563  0.0892 -0.2099
  248MOL0     C32622   4.719   7.153   1.065  0.4705  0.1942  0.4468
  248MOL0     C32623   4.827   7.235   1.069 -0.6594  0.0170  0.2603
  248MOL0     C32624   4.964   7.208   1.140 -0.4280  0.2415  0.1160
  248MOL0     C32625   5.079   7.254   1.048  0.9525  0.2510  0.1664
  248MOL0     C32626   5.093   7.172   0.918  0.0890  0.5644 -0.8919
  248MOL0     C32627   5.205   7.220   0.823  0.7035 -0.4929 -0.0807
  248MOL0     O32628   5.160   7.344   0.756 -0.6686 -0.0208 -0.0174
  248MOL0     C32629   5.256   7.402   0.675 -0.5328 -0.2746 -0.1346
  248MOL0     C32630   5.239   7.532   0.637  0.3738 -0.0497  0.3232
  248MOL0     C32631   5.334   7.597   0.559 -0.0889 -0.7333 -0.1474
  248MOL0     C32632   5.450   7.540   0.516 -0.1231 -0.4013 -0.2652
  248MOL0     C32633   5.549   7.616   0.431  0.2257  0.2980  0.7255
  248MOL0     O32634   5.676   7.560   0.418  0.4267 -0.6244 -0.8368
  248MOL0     C32635   5.780   7.603   0.348 -0.3970 -0.6215  0.0019
  248MOL0     C32636   5.901   7.551   0.372 -0.4491  0.4901  0.1394
  248MOL0     C32637   6.015   7.576   0.297  0.3445 -0.0461 -0.4051
  248MOL0     C32638   6.015   7.687   0.203  0.9162  0.9701 -0.1313
  248MOL0     O32639   6.116   7.711   0.116 -0.3307 -0.7222 -0.3500
  248MOL0     C32640   6.154   7.602   0.033  0.4181  0.2469 -0.1445
  248MOL0     C32641   6.028   7.524  -0.033 -0.1312  0.5580  0.1468
  248MOL0     C32642   6.078   7.420  -0.129  0.4197  0.2658 -0.1005
  248MOL0     C32643   6.169   7.491  -0.242 -0.0231 -0.4829 -0.7021
  248MOL0     C32644   6.170   7.396  -0.363  0.0542 -0.2481  0.5812
  248MOL0     C32645   6.294   7.434  -0.461 -0.3117 -0.5642  0.5400
  248MOL0     C32646   6.424   7.373  -0.421 -0.3020  0.0128  0.2944
  248MOL0     C32647   6.542   7.476  -0.399 -0.5318  0.6418  0.0058
  248MOL0    Cl32648   6.521   7.599  -0.270 -0.4481  0.0049 -0.0532
  248MOL0     C32649   5.894   7.748   0.183 -0.7062  0.6753  0.1089
  248MOL0     C32650   5.774   7.701   0.247  0.4532  0.4982 -0.1896
  248MOL0     O32651   5.511   7.724   0.382  0.8571 -0.0673 -0.2296
  248MOL0     C32652   5.474   7.406   0.559 -0.3264  0.0136  0.0188
  248MOL0     C32653   5.378   7.343   0.640  1.0492  0.1348  0.4050
  248MOL0     N32654   4.794   7.364   1.033 -0.0388  0.3659  1.0437
  248MOL0     N32655   4.677   7.354   0.974  0.5772 -0.8223 -0.7297
  248MOL0     C32656   5.234   6.747   0.399 -0.0177  0.0985 -0.3204
  248MOL0     C32657   5.370   6.802   0.381  0.4488  0.3244 -0.7758
  248MOL0     C32658   5.748   7.087   0.502 -0.6716  0.5426  0.0080
  248MOL0     C32659   5.785   7.155   0.377 -0.2795 -0.4233  0.6791
  248MOL0     C32660   5.912   7.220   0.370  0.3889  0.0487  0.0030
  248MOL0     C32661   6.008   7.209   0.470  0.0985 -0.7534 -0.1420
  248MOL0     O32662   6.132   7.266   0.463  0.8481 -0.3109 -0.7973
  248MOL0     C32663   6.211   7.192   0.372 -0.0486 -0.3517  0.0417
  248MOL0     C32664   6.341   7.157   0.438  0.2927 -0.2162 -0.1658
  248MOL0     C32665   6.353   7.042   0.532  0.2375 -0.1010  0.3651
  248MOL0     C32666   6.345   6.902   0.470  0.3847 -0.3601  0.2439
  248MOL0     C32667   6.465   6.867   0.382  1.2561  0.1868 -0.4371
  248MOL0     C32668   6.567   6.849   0.325 -0.1044  0.8036 -1.0103
  248MOL0     C32669   5.973   7.139   0.584 -0.2808 -0.0367 -0.8726
  248MOL0     C32670   5.852   7.073   0.599  0.3088 -0.5209 -0.2027
  248MOL0     H32671   5.354   7.072   0.572  0.4410 -0.4315  0.5371
  248MOL0     H32672   5.135   6.977   0.622  1.5150  1.4990  0.6060
  248MOL0     H32673   5.060   6.732   0.693  0.8488 -0.6615 -0.3291
  248MOL0     H32674   5.052   6.596   0.578 -1.3488 -1.8863  3.9113
  248MOL0     H32675   4.858   6.600   0.739 -2.7408  0.6860  0.4951
  248MOL0     H32676   4.808   6.597   0.576 -0.1353 -2.1768  1.6916
  248MOL0     H32677   4.764   6.824   0.550 -4.6976 -3.4807 -0.3634
  248MOL0     H32678   4.824   6.875   0.706 -0.5428 -0.4213  0.2245
  248MOL0     H32679   4.590   6.687   0.668  0.5890 -0.4865  0.6239
  248MOL0     H32680   4.669   6.716   0.820  2.1427 -2.5659 -1.7765
  248MOL0     H32681   4.456   6.879   0.727 -0.7942 -0.2826 -0.2991
  248MOL0     H32682   4.578   6.945   0.631 -2.6289  1.4139 -1.1523
  248MOL0     H32683   4.706   7.015   0.825  0.0919  0.8942 -2.8543
  248MOL0     H32684   4.593   6.932   0.933 -0.9217 -1.3208 -0.0097
  248MOL0     H32685   4.547   7.166   0.750  0.1694 -2.2580 -1.5359
  248MOL0     H32686   4.401   7.078   0.786 -0.1878  0.1704 -0.8819
  248MOL0     H32687   4.452   7.118   1.038 -1.4403 -1.8178 -2.3248
  248MOL0     H32688   4.430   7.273   0.963 -1.0498 -0.7641  2.6361
  248MOL0     H32689   4.712   7.048   1.090 -0.7313  0.0023 -0.5734
  248MOL0     H32690   4.987   7.108   1.178  1.6831  1.0005  1.0056
  248MOL0     H32691   4.958   7.271   1.230  0.0083  0.4386  0.0097
  248MOL0     H32692   5.168   7.253   1.111  0.1989 -1.7406  1.2863
  248MOL0     H32693   5.071   7.356   1.010  1.5635  0.6262  1.0039
  248MOL0     H32694   5.099   7.066   0.944 -2.4269 -0.3517 -3.4435
  248MOL0     H32695   5.003   7.176   0.855 -0.0016 -2.5569 -1.1196
  248MOL0     H32696   5.218   7.136   0.754 -2.3728 -0.4535 -0.8501
  248MOL0     H32697   5.295   7.238   0.882 -0.3504 -1.6027  1.9557
  248MOL0     H32698   5.152   7.581   0.679 -1.6822 -1.8104 -1.6890
  248MOL0     H32699   5.313   7.699   0.529  1.1931 -0.6081 -0.7044
  248MOL0     H32700   5.904   7.484   0.458 -0.7866  1.7212  1.1372
  248MOL0     H32701   6.102   7.512   0.299  0.1585 -0.2832  0.2164
  248MOL0     H32702   6.232   7.534   0.068  0.6279 -2.0355 -4.4486
  248MOL0     H32703   6.211   7.651  -0.047 -1.2383  0.9124 -0.9575
  248MOL0     H32704   5.950   7.586  -0.078 -0.1164 -0.0728 -0.7519
  248MOL0     H32705   5.976   7.466   0.044 -1.7841 -0.3136 -1.5743
  248MOL0     H32706   5.987   7.379  -0.174  1.8373 -2.5164 -0.6318
  248MOL0     H32707   6.137   7.346  -0.076  1.0866  0.2438 -0.8456
  248MOL0     H32708   6.146   7.594  -0.271 -0.0903  0.5187  2.4463
  248MOL0     H32709   6.272   7.486  -0.206 -0.4899 -3.1904  0.5376
  248MOL0     H32710   6.082   7.428  -0.419 -0.4022 -1.1013  0.7972
  248MOL0     H32711   6.164   7.289  -0.339  3.4871 -0.5791  0.5025
  248MOL0     H32712   6.302   7.543  -0.469  2.7437 -0.6700  0.8130
  248MOL0     H32713   6.274   7.411  -0.566  1.4183  3.0336 -0.7307
  248MOL0     H32714   6.417   7.320  -0.326 -2.3207  0.3008  0.3348
  248MOL0     H32715   6.454   7.297  -0.494  0.3803  0.6186 -0.0787
  248MOL0     H32716   6.556   7.519  -0.499  3.0354 -3.8568 -1.7935
  248MOL0     H32717   6.634   7.423  -0.375 -0.0259  2.0157  1.1586
  248MOL0     H32718   5.898   7.829   0.110 -1.2006 -1.8434 -2.9358
  248MOL0     H32719   5.682   7.750   0.215 -0.8934 -0.5206  1.9193
  248MOL0     H32720   5.557   7.346   0.523  0.3668  0.4521  0.8477
  248MOL0     H32721   5.390   7.240   0.673 -1.3339 -0.6297 -0.8360
  248MOL0     H32722   5.208   6.653   0.351  0.6995 -1.2993  1.8847
  248MOL0     H32723   5.438   6.743   0.320  2.0022  2.3028 -1.0706
  248MOL0     H32724   5.713   7.152   0.295 -0.8997  2.9264  0.9708
  248MOL0     H32725   5.940   7.274   0.280 -1.4202  0.5598 -0.2872
  248MOL0     H32726   6.220   7.248   0.279 -0.1538  0.1053  0.2999
  248MOL0     H32727   6.168   7.096   0.341  1.2588 -0.8134 -0.3786
  248MOL0     H32728   6.405   7.130   0.354  2.4778  2.0178  0.6589
  248MOL0     H32729   6.380   7.252   0.475 -0.8107  0.6779 -1.1939
  248MOL0     H32730   6.272   7.051   0.605  0.7546 -0.2712  0.9740
  248MOL0     H32731   6.447   7.043   0.588  0.5647  0.0355 -0.1849
  248MOL0     H32732   6.350   6.818   0.541  3.3381 -0.4717  0.0453
  248MOL0     H32733   6.256   6.885   0.409  1.9894  1.4889 -2.8629
  248MOL0     H32734   6.659   6.831   0.274  0.9823  1.3136  0.6597
  248MOL0     H32735   6.051   7.126   0.658 -2.4642 -4.3301  1.0475
  248MOL0     H32736   5.827   7.015   0.688 -1.3115  0.5190  0.0507
  249MOL0     O32737   5.639   0.790   7.719  0.2755 -0.1577 -0.3035
  249MOL0     C32738   5.674   0.902   7.758  0.1693  0.3552 -0.0614
  249MOL0     O32739   5.662   0.963   7.880  0.2640  0.3503 -0.3633
  249MOL0     C32740   5.593   0.904   7.985 -0.2205  0.5747  1.0925
  249MOL0     C32741   5.614   0.958   8.116 -0.0898 -0.7804  0.6031
  249MOL0     C32742   5.549   0.921   8.228  1.1612  0.1564 -0.3795
  249MOL0     C32743   5.464   0.815   8.218 -0.1492  0.4064 -0.2475
  249MOL0     O32744   5.391   0.779   8.331  0.1531  0.0254 -0.9296
  249MOL0     C32745   5.263   0.732   8.308  0.2638 -0.2962  0.3162
  249MOL0     C32746   5.249   0.584   8.331  0.4361 -1.3437 -0.6769
  249MOL0     C32747   5.116   0.531   8.306  0.3048 -0.3281 -0.6906
  249MOL0     C32748   5.005   0.567   8.397 -0.5538 -0.6264 -1.1514
  249MOL0     C32749   4.889   0.471   8.375 -0.3093  0.3415  0.2893
  249MOL0     C32750   4.802   0.514   8.257 -0.2725 -0.1935  0.5841
  249MOL0     C32751   4.677   0.417   8.220  0.4130 -0.3012 -0.4766
  249MOL0     C32752   4.567   0.426   8.331 -0.2731  0.0658  0.1514
  249MOL0     N32753   4.513   0.560   8.364  1.0121  0.8042  0.0956
  249MOL0     C32754   4.424   0.623   8.271 -0.1741 -0.5643 -0.3779
  249MOL0     C32755   4.417   0.749   8.316 -0.1183 -0.1040 -0.1349
  249MOL0     C32756   4.343   0.870   8.265  0.5611 -0.5608  0.2859
  249MOL0     C32757   4.196   0.879   8.316  0.0112  0.1901  0.7983
  249MOL0     C32758   4.120   0.791   8.221  0.2784 -0.6751  0.9083
  249MOL0     C32759   3.968   0.797   8.245 -1.2422  0.7365 -0.7753
  249MOL0     O32760   3.941   0.773   8.386  0.6859  0.2456  0.5088
  249MOL0     C32761   3.807   0.774   8.425 -0.2986 -1.3151  1.2491
  249MOL0     C32762   3.757   0.665   8.481 -0.3651 -0.2543  0.5315
  249MOL0     C32763   3.621   0.652   8.499  0.5464 -0.3591  0.0396
  249MOL0     C32764   3.530   0.765   8.482  0.7611  0.4706  0.2167
  249MOL0     C32765   3.377   0.749   8.487 -0.1814  0.6206 -0.2542
  249MOL0     O32766   3.310   0.858   8.452 -0.6541 -0.1571 -0.0983
  249MOL0     C32767   3.183   0.883   8.499 -0.7944 -0.4494  0.4259
  249MOL0     C32768   3.125   0.819   8.609 -0.0180  0.9677 -0.4993
  249MOL0     C32769   2.997   0.858   8.662 -0.6986  0.1145  0.4619
  249MOL0     C32770   2.916   0.953   8.601  0.5432  0.0988  0.0600
  249MOL0     O32771   2.793   1.005   8.642  0.2103  1.1531 -0.4882
  249MOL0     C32772   2.726   0.954   8.762 -0.2540 -0.1115  0.5253
  249MOL0     C32773   2.781   1.024   8.885 -0.8272 -1.4413 -0.0599
  249MOL0     C32774   2.684   1.002   8.986 -0.3587  0.3680 -0.2041
  249MOL0     C32775   2.727   1.057   9.127  1.7214  0.8383  0.0741
  249MOL0     C32776   2.631   1.018   9.240  0.4721  0.1652  0.0609
  249MOL0     C32777   2.480   1.068   9.221 -0.6564  0.5182  0.3325
  249MOL0     C32778   2.399   1.071   9.356 -1.1760 -0.2079 -0.3895
  249MOL0     C32779   2.381   0.927   9.415 -0.2117  0.2115  0.2364
  249MOL0    Cl32780   2.306   0.807   9.306  0.1236 -0.1059  0.0051
  249MOL0     C32781   2.968   1.011   8.496 -0.9005 -0.3430  0.4002
  249MOL0     C32782   3.102   0.983   8.444  0.7249 -0.8948  0.0228
  249MOL0     O32783   3.326   0.639   8.508  0.0490 -0.3655 -0.7166
  249MOL0     C32784   3.591   0.881   8.424  0.2480  0.7500 -0.5227
  249MOL0     C32785   3.725   0.880   8.395  0.6182 -0.7143  0.3502
  249MOL0     N32786   4.476   0.759   8.439  0.5425  0.2482 -0.5831
  249MOL0     N32787   4.534   0.642   8.472 -0.3391 -0.0340 -0.5765
  249MOL0     C32788   5.436   0.751   8.088  0.0258  0.5876 -0.6251
  249MOL0     C32789   5.496   0.800   7.975 -0.9606 -0.4218  0.1476
  249MOL0     C32790   5.754   0.978   7.658 -0.0214 -0.9099  0.7056
  249MOL0     C32791   5.786   0.919   7.540 -0.0551 -0.1939 -0.0382
  249MOL0     C32792   5.869   0.977   7.445 -1.1670 -0.2484 -0.4832
  249MOL0     C32793   5.928   1.107   7.464  0.3345  0.5197 -0.6572
  249MOL0     O32794   6.014   1.167   7.377  0.0845  0.9064 -0.0672
  249MOL0     C32795   6.100   1.078   7.298 -0.5613  0.2625  0.5797
  249MOL0     C32796   6.197   1.162   7.227 -0.4467 -0.7523 -0.5842
  249MOL0     C32797   6.295   1.075   7.156 -0.1918 -0.6180  0.3561
  249MOL0     C32798   6.419   1.156   7.096 -0.2180  0.3620 -0.0598
  249MOL0     C32799   6.512   1.081   7.012 -0.2879 -0.2203  0.3020
  249MOL0     C32800   6.598   1.028   6.943  0.3243 -0.3244  0.9856
  249MOL0     C32801   5.893   1.166   7.585 -0.9142 -0.3923  0.6571
  249MOL0     C32802   5.808   1.105   7.682  0.6706  0.3141  0.5091
  249MOL0     H32803   5.691   1.035   8.123  1.3599 -2.0165 -0.8637
  249MOL0     H32804   5.570   0.974   8.321  0.5666  0.6464 -0.5167
  249MOL0     H32805   5.229   0.758   8.207  0.0288 -3.7351 -0.6333
  249MOL0     H32806   5.200   0.780   8.383 -1.8704 -0.9349 -0.9691
  249MOL0     H32807   5.272   0.570   8.437 -0.9387 -0.5422 -0.2590
  249MOL0     H32808   5.326   0.537   8.268  0.1587 -0.9557 -1.3158
  249MOL0     H32809   5.134   0.423   8.300  3.1836  0.1253 -1.6188
  249MOL0     H32810   5.100   0.562   8.203 -0.7862  2.6347  0.2540
  249MOL0     H32811   5.030   0.557   8.503  0.0841  0.6791 -1.1632
  249MOL0     H32812   4.982   0.672   8.378  4.4372  0.4414 -2.6112
  249MOL0     H32813   4.816   0.468   8.456 -1.7685 -0.9423 -1.0044
  249MOL0     H32814   4.924   0.368   8.378  1.0138  0.7776  0.8581
  249MOL0     H32815   4.868   0.511   8.170 -1.0462  1.8916 -0.1110
  249MOL0     H32816   4.768   0.615   8.279  0.7658  0.3291 -0.1190
  249MOL0     H32817   4.629   0.438   8.124 -2.4664 -4.3335 -0.1878
  249MOL0     H32818   4.718   0.316   8.220  0.0598 -0.4684  0.6123
  249MOL0     H32819   4.614   0.381   8.418  0.2445  0.4655  0.0832
  249MOL0     H32820   4.483   0.356   8.321  0.5270 -1.3717  2.6498
  249MOL0     H32821   4.376   0.590   8.179 -0.5813 -2.9266  0.6085
  249MOL0     H32822   4.352   0.877   8.156  0.9982 -1.3659  0.2624
  249MOL0     H32823   4.399   0.954   8.306 -0.3201  0.9098 -1.3803
  249MOL0     H32824   4.155   0.980   8.314 -1.6337 -0.4458  0.8366
  249MOL0     H32825   4.203   0.842   8.419  1.2002 -1.2895  0.2311
  249MOL0     H32826   4.142   0.822   8.118  4.1584  0.2723  1.8326
  249MOL0     H32827   4.154   0.687   8.224  2.0509 -0.1144  3.5614
  249MOL0     H32828   3.916   0.719   8.188 -1.4373 -0.3774  0.8493
  249MOL0     H32829   3.924   0.894   8.219 -1.8914  0.4121 -0.9055
  249MOL0     H32830   3.818   0.578   8.505  0.2368  0.3432  1.2128
  249MOL0     H32831   3.596   0.554   8.540  0.5094  0.1211  1.2054
  249MOL0     H32832   3.182   0.761   8.680 -1.2543  0.4499  0.0855
  249MOL0     H32833   2.964   0.817   8.757 -3.4810 -5.6345 -2.4796
  249MOL0     H32834   2.730   0.845   8.763  1.3955 -0.2428 -3.0578
  249MOL0     H32835   2.620   0.973   8.743  0.0441  0.5553 -0.5943
  249MOL0     H32836   2.791   1.130   8.861  0.9541 -1.0278  2.1453
  249MOL0     H32837   2.881   0.988   8.912  0.1485  0.2730 -1.1690
  249MOL0     H32838   2.667   0.894   9.000  0.0114  0.5940  2.4390
  249MOL0     H32839   2.593   1.049   8.948  0.5089  1.7376 -0.6451
  249MOL0     H32840   2.829   1.023   9.150  1.2065 -0.1193  0.9874
  249MOL0     H32841   2.724   1.166   9.121 -1.7176  0.7676 -1.9389
  249MOL0     H32842   2.669   1.063   9.332 -1.8874  3.6258 -0.4660
  249MOL0     H32843   2.629   0.909   9.248 -2.0117  0.1161 -0.4485
  249MOL0     H32844   2.428   1.012   9.143  0.2425 -0.4628  0.4153
  249MOL0     H32845   2.486   1.171   9.183 -2.8403  1.0015  1.1644
  249MOL0     H32846   2.466   1.127   9.421 -1.5944  0.8400 -0.8260
  249MOL0     H32847   2.305   1.127   9.353 -1.5921 -0.9244 -1.0979
  249MOL0     H32848   2.306   0.941   9.492 -0.1679  1.4214  0.0774
  249MOL0     H32849   2.472   0.886   9.461  1.4998  2.0899 -1.2831
  249MOL0     H32850   2.912   1.092   8.449  1.3014  0.7786 -0.4311
  249MOL0     H32851   3.133   1.046   8.362 -0.3654  1.2198  1.1477
  249MOL0     H32852   3.533   0.969   8.397 -0.9637 -0.1570 -0.9868
  249MOL0     H32853   3.757   0.971   8.344 -1.7401  0.1221  0.2251
  249MOL0     H32854   5.369   0.666   8.077 -0.0304  0.2326  1.8485
  249MOL0     H32855   5.465   0.759   7.880  0.0300  0.0277 -0.3863
  249MOL0     H32856   5.752   0.817   7.522  0.7013 -0.1864 -1.6385
  249MOL0     H32857   5.887   0.922   7.353 -0.2373  2.4155 -1.9898
  249MOL0     H32858   6.036   1.022   7.229 -1.1483 -0.1901  1.4788
  249MOL0     H32859   6.152   1.013   7.370 -0.8856  1.4962  1.9552
  249MOL0     H32860   6.143   1.220   7.152  1.3523 -0.2362 -1.5431
  249MOL0     H32861   6.241   1.238   7.293 -3.1623  2.2538 -1.9600
  249MOL0     H32862   6.256   1.019   7.070  2.4738 -2.2277  0.0823
  249MOL0     H32863   6.333   0.999   7.225 -1.3852 -0.5960  1.0557
  249MOL0     H32864   6.373   1.239   7.040  0.4474  1.3974  0.8749
  249MOL0     H32865   6.467   1.202   7.183  1.0789 -1.5396  0.2640
  249MOL0     H32866   6.683   0.999   6.886  0.4952  2.9295 -0.6586
  249MOL0     H32867   5.938   1.263   7.605 -0.1692 -0.0631 -2.2018
  249MOL0     H32868   5.796   1.169   7.769 -1.6547  2.0537 -0.9568
  250MOL0     O32869   1.792   9.448   9.700 -0.2680 -0.9640  0.6280
  250MOL0     C32870   1.674   9.411   9.712  1.2847  0.7679 -0.3391
  250MOL0     O32871   1.630   9.287   9.754 -0.4825 -0.1511 -0.8583
  250MOL0     C32872   1.730   9.195   9.790  0.2652  0.1090  0.1814
  250MOL0     C32873   1.822   9.224   9.887  0.4620 -0.1068 -0.2975
  250MOL0     C32874   1.925   9.131   9.918 -0.0527  0.2564  0.4481
  250MOL0     C32875   1.947   9.016   9.853  0.6465 -0.2592 -0.1237
  250MOL0     O32876   2.042   8.921   9.876 -0.1657 -0.2006  0.3528
  250MOL0     C32877   2.143   8.953   9.970 -0.5175 -0.1392  0.0876
  250MOL0     C32878   2.242   8.836   9.970 -0.6167  0.1720  0.7295
  250MOL0     C32879   2.376   8.870  10.044 -0.1016  0.3085  0.2854
  250MOL0     C32880   2.480   8.764  10.007  0.2588  0.5137 -0.6271
  250MOL0     C32881   2.617   8.818  10.045 -0.5159 -0.0518  0.1623
  250MOL0     C32882   2.716   8.708  10.073  0.1529  0.5653 -0.4988
  250MOL0     C32883   2.853   8.775  10.114 -0.0388  0.5110 -0.1164
  250MOL0     C32884   2.944   8.680  10.179 -0.0378  0.5913  0.0343
  250MOL0     N32885   3.080   8.743  10.208  0.5019 -0.7861  0.0927
  250MOL0     C32886   3.100   8.862  10.275  0.0817 -0.1064 -0.5190
  250MOL0     C32887   3.229   8.892  10.252 -0.6430  0.5564 -0.1013
  250MOL0     C32888   3.311   8.999  10.301 -0.7803 -0.4722  0.4036
  250MOL0     C32889   3.318   9.100  10.196  0.2362 -0.2567  0.0690
  250MOL0     C32890   3.236   9.225  10.227 -0.6524 -0.7503 -0.5084
  250MOL0     C32891   3.082   9.200  10.234 -0.2796 -1.1548  0.2291
  250MOL0     O32892   3.009   9.321  10.220  0.1024 -0.7614  0.2297
  250MOL0     C32893   2.876   9.313  10.225  0.1932  0.0138  0.3611
  250MOL0     C32894   2.805   9.192  10.262  0.7406  0.1041  0.1448
  250MOL0     C32895   2.668   9.197  10.252 -0.5222 -0.4931 -0.1020
  250MOL0     C32896   2.594   9.312  10.213 -1.4181  0.3439 -0.1965
  250MOL0     C32897   2.447   9.306  10.203  0.2007  0.2161  0.7137
  250MOL0     O32898   2.379   9.409  10.139  0.0398  0.1692  0.1708
  250MOL0     C32899   2.244   9.431  10.152  0.1391 -0.1628  0.3566
  250MOL0     C32900   2.165   9.407  10.269 -1.0876 -0.2735 -0.0633
  250MOL0     C32901   2.026   9.442  10.273  0.4796 -0.4455  0.9868
  250MOL0     C32902   1.962   9.490  10.159 -0.0501  0.6744 -0.4798
  250MOL0     O32903   1.827   9.486  10.172  0.5619  0.1902  0.4322
  250MOL0     C32904   1.757   9.596  10.115 -0.5243 -0.2611  0.1360
  250MOL0     C32905   1.706   9.681  10.235  0.0356  0.3665  1.5087
  250MOL0     C32906   1.655   9.821  10.198 -0.3475 -0.2606  0.4415
  250MOL0     C32907   1.528   9.823  10.106 -1.6234  0.7124 -0.2105
  250MOL0     C32908   1.490   9.953  10.035 -0.4921  0.1524  0.7537
  250MOL0     C32909   1.485  10.082  10.122  0.9302 -0.5383 -0.0429
  250MOL0     C32910   1.478  10.209  10.040  0.9185 -0.5839  0.0036
  250MOL0     C32911   1.443  10.333  10.123  0.5841  0.0895  0.3422
  250MOL0    Cl32912   1.279  10.334  10.199  0.0518 -0.3879  0.0042
  250MOL0     C32913   2.035   9.499  10.047 -0.4557 -0.9635  1.5386
  250MOL0     C32914   2.180   9.496  10.037 -0.3840  0.1553  0.2586
  250MOL0     O32915   2.398   9.206  10.250 -0.4942  0.4395 -0.4721
  250MOL0     C32916   2.670   9.434  10.177  0.6818 -0.3985 -0.2655
  250MOL0     C32917   2.810   9.430  10.188 -0.3084 -0.5430  0.3451
  250MOL0     N32918   3.275   8.798  10.165 -0.9706  0.0081  0.2915
  250MOL0     N32919   3.192   8.694  10.153 -0.7216  0.1896  0.0083
  250MOL0     C32920   1.855   8.989   9.746 -0.3293  0.0319  0.3452
  250MOL0     C32921   1.747   9.078   9.719 -0.1286  0.4689  0.0671
  250MOL0     C32922   1.562   9.501   9.698  0.1468 -0.7327  0.1055
  250MOL0     C32923   1.586   9.640   9.658  0.5139  0.3763  0.2893
  250MOL0     C32924   1.471   9.732   9.651 -0.5591  0.2462 -0.0420
  250MOL0     C32925   1.344   9.704   9.697  0.0104 -0.3308  0.5213
  250MOL0     O32926   1.234   9.788   9.713  0.4189 -0.6948  0.2350
  250MOL0     C32927   1.247   9.931   9.704  0.5912 -0.5741 -0.7752
  250MOL0     C32928   1.116  10.009   9.730 -0.5137 -0.5764  0.3482
  250MOL0     C32929   1.052   9.992   9.864  0.6527  0.3060 -1.3359
  250MOL0     C32930   1.119  10.064   9.981  0.4971 -0.0302 -1.2529
  250MOL0     C32931   1.023  10.081  10.090 -0.8281 -0.0685 -0.7499
  250MOL0     C32932   0.936  10.102  10.169  0.6269 -0.0047  0.9078
  250MOL0     C32933   1.321   9.573   9.736 -0.3046 -0.1896 -0.5651
  250MOL0     C32934   1.427   9.469   9.738  0.8305 -0.3068  0.3762
  250MOL0     H32935   1.819   9.315   9.946  2.4919  0.7902 -1.5015
  250MOL0     H32936   2.001   9.163   9.988 -0.3030 -0.2554  0.9551
  250MOL0     H32937   2.107   8.982  10.069 -1.9474 -1.8010  0.1098
  250MOL0     H32938   2.202   9.036   9.931  1.4173 -1.6878 -0.4748
  250MOL0     H32939   2.257   8.800   9.868 -1.1610  1.4286  0.1944
  250MOL0     H32940   2.197   8.754  10.028  4.2502 -3.2150  0.2892
  250MOL0     H32941   2.361   8.886  10.151  1.9053  1.0974  0.5016
  250MOL0     H32942   2.400   8.967  10.000 -3.2947  0.7720 -0.7469
  250MOL0     H32943   2.461   8.671  10.062 -0.6583  0.0703 -1.6656
  250MOL0     H32944   2.475   8.730   9.903 -0.7863 -0.9096 -0.1430
  250MOL0     H32945   2.613   8.882  10.134 -1.5730  1.2540 -0.7732
  250MOL0     H32946   2.653   8.877   9.960  0.3339 -1.3265 -0.3912
  250MOL0     H32947   2.723   8.636   9.990 -0.9009  1.3468 -1.2833
  250MOL0     H32948   2.671   8.663  10.162  1.1111  2.4337  0.9817
  250MOL0     H32949   2.894   8.799  10.015  1.0258  1.7523  0.6058
  250MOL0     H32950   2.836   8.860  10.180  0.0972  0.3447  0.1333
  250MOL0     H32951   2.952   8.587  10.122  3.7775  0.9722 -0.2779
  250MOL0     H32952   2.901   8.641  10.272  1.1066 -2.2054 -0.4901
  250MOL0     H32953   3.040   8.925  10.340 -1.3002 -0.6787 -1.1979
  250MOL0     H32954   3.410   8.962  10.329 -0.4434  1.5205  2.1136
  250MOL0     H32955   3.278   9.030  10.401 -0.2903 -0.7143  0.6477
  250MOL0     H32956   3.284   9.071  10.096  0.3190  1.5622 -0.5269
  250MOL0     H32957   3.418   9.139  10.176 -2.0105  5.5007 -2.3974
  250MOL0     H32958   3.272   9.272  10.320 -1.7474  0.5794 -0.7167
  250MOL0     H32959   3.245   9.311  10.159 -1.1976 -0.8536 -0.7175
  250MOL0     H32960   3.059   9.181  10.339 -0.4376  0.3114  0.4784
  250MOL0     H32961   3.054   9.121  10.163  0.8489 -0.9755 -0.4364
  250MOL0     H32962   2.851   9.099  10.295 -0.4480 -0.5043  0.1640
  250MOL0     H32963   2.613   9.109  10.282  1.5938 -0.6390  4.0406
  250MOL0     H32964   2.202   9.353  10.356 -1.1147  1.2842  0.9522
  250MOL0     H32965   1.971   9.417  10.363 -2.1326  1.7018  0.1031
  250MOL0     H32966   1.674   9.567  10.050 -1.0155  1.9944 -0.3359
  250MOL0     H32967   1.826   9.662  10.060 -0.7947 -0.7678 -0.8428
  250MOL0     H32968   1.793   9.709  10.295  0.0821 -0.2157  1.7170
  250MOL0     H32969   1.636   9.632  10.303  0.6538  1.6648  3.1505
  250MOL0     H32970   1.731   9.875  10.141 -2.4733  1.4752 -0.9004
  250MOL0     H32971   1.637   9.868  10.295  5.0806 -0.3696  1.8505
  250MOL0     H32972   1.543   9.739  10.037  1.9984  1.8962 -1.1343
  250MOL0     H32973   1.442   9.792  10.165  0.2264  3.9381  4.9283
  250MOL0     H32974   1.393   9.935   9.987  0.7251  0.1654 -1.8594
  250MOL0     H32975   1.559   9.974   9.952  1.7201  0.1909  2.5167
  250MOL0     H32976   1.574  10.081  10.186  0.7242 -3.1657  0.3235
  250MOL0     H32977   1.401  10.075  10.192  0.7175 -0.4069 -0.2839
  250MOL0     H32978   1.575  10.230   9.992 -0.3455 -0.5433 -2.7293
  250MOL0     H32979   1.404  10.206   9.959  1.4627  2.7565 -0.7650
  250MOL0     H32980   1.451  10.426  10.065 -0.6469  0.6607  1.0536
  250MOL0     H32981   1.516  10.348  10.203  0.1719 -2.2356  1.2071
  250MOL0     H32982   1.985   9.522   9.954  2.6867 -2.2246 -0.6765
  250MOL0     H32983   2.230   9.529   9.946 -0.8623  2.1881  0.7000
  250MOL0     H32984   2.614   9.523  10.151 -2.6367 -1.4762  2.3891
  250MOL0     H32985   2.869   9.511  10.148  2.2508 -2.9210 -1.0985
  250MOL0     H32986   1.873   8.897   9.691 -0.6828  0.6263 -0.7987
  250MOL0     H32987   1.684   9.053   9.633 -2.0049  3.1529  0.5377
  250MOL0     H32988   1.681   9.684   9.629  0.4862  1.2731  1.4626
  250MOL0     H32989   1.492   9.836   9.624 -1.0070 -0.6091 -4.6143
  250MOL0     H32990   1.294   9.963   9.611 -0.7932  2.6337 -0.5137
  250MOL0     H32991   1.316   9.964   9.783  1.0117 -0.2491 -1.2660
  250MOL0     H32992   1.141  10.116   9.724 -0.6690 -0.4628  1.4772
  250MOL0     H32993   1.049   9.970   9.652  2.3818  1.0648 -3.2582
  250MOL0     H32994   1.053   9.884   9.884 -2.9196  0.1298 -1.5000
  250MOL0     H32995   0.949  10.029   9.862 -0.1196 -1.1772  2.1687
  250MOL0     H32996   1.214  10.026  10.020  0.7429  1.2550 -0.5514
  250MOL0     H32997   1.143  10.166   9.949  1.7372  0.5301  1.2326
  250MOL0     H32998   0.850  10.112  10.231 -0.6233  0.3673 -0.8098
  250MOL0     H32999   1.222   9.552   9.776  0.0254  0.8950  0.9228
  250MOL0     H33000   1.383   9.374   9.766 -0.7062 -0.2226 -1.5181
  251MOL0     O33001   0.535   2.947   7.991  0.1816  0.3302 -0.1075
  251MOL0     C33002   0.460   3.042   7.965 -0.1875 -0.5723 -0.0252
  251MOL0     O33003   0.504   3.162   7.912  0.5761  1.1168 -0.9861
  251MOL0     C33004   0.632   3.166   7.859  0.6078  0.2661  0.4051
  251MOL0     C33005   0.668   3.087   7.749 -0.5847 -0.0133  0.9404
  251MOL0     C33006   0.794   3.092   7.701  0.2037  0.0838 -0.0765
  251MOL0     C33007   0.886   3.195   7.749  0.3914  0.0353 -0.2406
  251MOL0     O33008   1.008   3.206   7.691 -0.0634 -0.1746 -0.3294
  251MOL0     C33009   1.112   3.259   7.760 -0.0368  0.8828 -0.8652
  251MOL0     C33010   1.238   3.231   7.682 -0.5171 -0.3358  1.0112
  251MOL0     C33011   1.360   3.281   7.764 -1.1316  0.4351  0.4693
  251MOL0     C33012   1.492   3.268   7.689  0.0872  0.0124 -0.1197
  251MOL0     C33013   1.595   3.335   7.786 -0.1684 -0.2042  0.8401
  251MOL0     C33014   1.734   3.340   7.706  0.5890 -1.0798 -0.1584
  251MOL0     C33015   1.843   3.242   7.761 -0.0923  0.1176  0.7339
  251MOL0     C33016   1.816   3.095   7.725  1.0214 -0.0343  0.7469
  251MOL0     N33017   1.946   3.019   7.731  0.4116  0.1242 -0.0226
  251MOL0     C33018   2.037   2.995   7.634  0.7669  0.0505 -0.4458
  251MOL0     C33019   2.140   2.925   7.698 -0.2002 -0.2229 -0.8873
  251MOL0     C33020   2.273   2.893   7.639 -0.7660  0.2166  0.7253
  251MOL0     C33021   2.266   2.779   7.532  0.8613 -1.0354 -0.2997
  251MOL0     C33022   2.229   2.840   7.394 -0.2551 -0.5040 -0.1966
  251MOL0     C33023   2.261   2.754   7.276 -0.6548  0.3342 -0.2335
  251MOL0     O33024   2.396   2.707   7.284 -0.1684 -0.3376 -0.7623
  251MOL0     C33025   2.477   2.719   7.175 -0.8409 -0.0125 -0.2277
  251MOL0     C33026   2.432   2.705   7.044 -0.1072  1.6955  0.5572
  251MOL0     C33027   2.525   2.725   6.937 -0.2439  0.4397 -0.7731
  251MOL0     C33028   2.660   2.752   6.963 -1.1699 -0.3686 -0.3252
  251MOL0     C33029   2.765   2.773   6.856 -0.9865  0.2027 -1.0888
  251MOL0     O33030   2.898   2.801   6.896 -0.2239 -0.2696  0.3307
  251MOL0     C33031   2.987   2.827   6.797  0.4799 -1.4186  0.4413
  251MOL0     C33032   3.099   2.754   6.793  0.6406  0.8346 -0.8050
  251MOL0     C33033   3.197   2.765   6.694 -0.0833 -0.2554  0.6261
  251MOL0     C33034   3.183   2.866   6.597  0.4367 -0.2402  0.2670
  251MOL0     O33035   3.273   2.902   6.498 -0.0477  0.6498  0.7365
  251MOL0     C33036   3.390   2.826   6.475 -0.3767  0.2857 -0.6075
  251MOL0     C33037   3.474   2.874   6.361 -1.1648 -1.0320 -0.8415
  251MOL0     C33038   3.582   2.967   6.424 -0.3357  0.0795  0.8823
  251MOL0     C33039   3.684   3.009   6.320 -0.2860 -0.3555  0.7861
  251MOL0     C33040   3.819   3.026   6.395  0.4352  0.3984 -0.7191
  251MOL0     C33041   3.936   3.069   6.310  0.1036 -1.9267 -0.3737
  251MOL0     C33042   3.891   3.204   6.234  1.4207 -0.6148  0.0817
  251MOL0     C33043   3.998   3.303   6.190 -0.1833 -0.8949  0.5196
  251MOL0    Cl33044   4.067   3.254   6.035  0.0346 -0.1768 -0.0014
  251MOL0     C33045   3.074   2.951   6.610  0.9886  0.1161  0.0994
  251MOL0     C33046   2.979   2.930   6.708 -0.1197  0.3973 -0.1424
  251MOL0     O33047   2.726   2.751   6.746 -0.8959 -0.4453 -0.8139
  251MOL0     C33048   2.709   2.759   7.100  0.2574 -0.6485 -0.6059
  251MOL0     C33049   2.615   2.742   7.202  0.2600 -0.3516  0.3722
  251MOL0     N33050   2.102   2.914   7.833 -0.1760 -0.5569  0.5508
  251MOL0     N33051   1.990   2.967   7.848  1.0039 -0.4349 -0.4948
  251MOL0     C33052   0.847   3.278   7.854  0.1330 -0.3306  0.4545
  251MOL0     C33053   0.722   3.258   7.917 -0.3834 -0.1332 -1.3570
  251MOL0     C33054   0.325   3.028   8.017  0.4873  0.2872  0.1694
  251MOL0     C33055   0.299   2.948   8.133 -0.4584  0.5034  0.7361
  251MOL0     C33056   0.185   2.957   8.207  0.3299 -0.8992 -1.1833
  251MOL0     C33057   0.085   3.038   8.160 -0.1667  0.9759  0.4852
  251MOL0     O33058  -0.030   3.036   8.238 -0.2555 -0.9524  0.2306
  251MOL0     C33059  -0.137   3.138   8.198 -0.6259 -0.1061  0.9398
  251MOL0     C33060  -0.183   3.199   8.327  0.2366 -0.8183  0.2546
  251MOL0     C33061  -0.301   3.126   8.403 -0.5746  0.1745  0.3685
  251MOL0     C33062  -0.441   3.151   8.333  0.1612 -0.1846 -0.5216
  251MOL0     C33063  -0.553   3.083   8.400 -0.1830  0.1748 -0.1386
  251MOL0     C33064  -0.641   3.022   8.456  0.9607  0.7793 -0.1070
  251MOL0     C33065   0.098   3.095   8.031 -0.0589  0.0726 -0.6840
  251MOL0     C33066   0.219   3.099   7.964  0.3946 -0.3928  0.1301
  251MOL0     H33067   0.611   3.010   7.699  1.5901 -2.4610  1.9661
  251MOL0     H33068   0.824   3.033   7.615  0.3591  0.7829 -0.5100
  251MOL0     H33069   1.117   3.214   7.860 -1.5276 -1.0160 -1.5976
  251MOL0     H33070   1.084   3.364   7.768  0.8521  1.0249  1.0216
  251MOL0     H33071   1.231   3.291   7.591 -1.0727  1.6890  2.3215
  251MOL0     H33072   1.250   3.123   7.667 -2.4763 -0.7272  1.8308
  251MOL0     H33073   1.362   3.238   7.864  1.0101 -1.7331 -0.4169
  251MOL0     H33074   1.339   3.387   7.781 -3.6606 -0.2226  1.8279
  251MOL0     H33075   1.526   3.164   7.682  0.8124  0.2051  0.3877
  251MOL0     H33076   1.484   3.319   7.593  0.9694  1.0560  0.3395
  251MOL0     H33077   1.610   3.271   7.873  4.0363  0.6898  0.9729
  251MOL0     H33078   1.566   3.436   7.814  0.2573  0.8252 -2.0940
  251MOL0     H33079   1.778   3.434   7.742  0.0489 -0.3429 -1.3575
  251MOL0     H33080   1.716   3.350   7.599 -1.4596  1.1097  0.2918
  251MOL0     H33081   1.938   3.274   7.717 -0.3330  3.3408  2.2887
  251MOL0     H33082   1.842   3.251   7.870 -0.2878  0.3866  0.7103
  251MOL0     H33083   1.794   3.089   7.618 -0.2221 -1.2710  1.0422
  251MOL0     H33084   1.732   3.050   7.779 -3.5565  3.9058 -2.2678
  251MOL0     H33085   2.020   3.026   7.531 -1.3727 -1.2060 -0.5331
  251MOL0     H33086   2.338   2.854   7.718  0.9503 -0.9899 -1.2153
  251MOL0     H33087   2.328   2.977   7.594  0.2109 -1.4383 -1.3027
  251MOL0     H33088   2.189   2.707   7.562 -0.0751 -0.4775 -1.2525
  251MOL0     H33089   2.367   2.739   7.522  0.8094 -0.6898 -3.0117
  251MOL0     H33090   2.126   2.876   7.385 -0.3377 -1.0997 -2.1129
  251MOL0     H33091   2.290   2.931   7.386 -1.0865  0.0580 -0.2156
  251MOL0     H33092   2.240   2.811   7.185  0.5036  1.9939  0.4859
  251MOL0     H33093   2.200   2.664   7.276 -0.0808 -0.3676  4.7451
  251MOL0     H33094   2.329   2.688   7.015 -0.3627  2.0226  1.2563
  251MOL0     H33095   2.482   2.713   6.838 -0.5133 -1.1004 -0.5031
  251MOL0     H33096   3.104   2.677   6.870  0.3829  0.5631 -1.0540
  251MOL0     H33097   3.294   2.717   6.703  0.9843  2.1260  3.7524
  251MOL0     H33098   3.363   2.723   6.450  2.4802 -0.4186 -1.1294
  251MOL0     H33099   3.438   2.831   6.572  0.2038 -1.3340 -0.7941
  251MOL0     H33100   3.419   2.928   6.283 -1.4736  0.9776  0.6990
  251MOL0     H33101   3.530   2.792   6.315 -1.4380 -0.1067 -2.9357
  251MOL0     H33102   3.634   2.909   6.501 -1.8192  1.0439  2.6914
  251MOL0     H33103   3.543   3.054   6.476 -0.7040 -0.7482  2.0248
  251MOL0     H33104   3.698   2.930   6.246  2.1277  1.5093 -0.9108
  251MOL0     H33105   3.647   3.105   6.283 -0.8295 -0.6658  0.5085
  251MOL0     H33106   3.836   2.926   6.436  1.3516  0.9431  0.3218
  251MOL0     H33107   3.815   3.092   6.482 -0.7995  1.6410 -1.6742
  251MOL0     H33108   3.960   3.005   6.225  3.9916  0.0577 -1.0303
  251MOL0     H33109   4.021   3.096   6.375 -0.3670 -1.0490 -0.1030
  251MOL0     H33110   3.818   3.195   6.154  0.6698 -1.2280  0.8105
  251MOL0     H33111   3.838   3.265   6.308  1.0245  1.7727 -2.0379
  251MOL0     H33112   4.070   3.311   6.272  1.5285 -3.5525 -0.5860
  251MOL0     H33113   3.954   3.401   6.171  0.1273 -0.7592  0.4871
  251MOL0     H33114   3.052   3.032   6.541 -2.1693 -1.8909 -1.5096
  251MOL0     H33115   2.890   2.992   6.706 -0.8911 -0.7120 -1.9155
  251MOL0     H33116   2.813   2.784   7.114  0.4976 -2.3801  1.1472
  251MOL0     H33117   2.642   2.739   7.307  2.6199 -0.5873 -0.1649
  251MOL0     H33118   0.918   3.347   7.900  4.5841 -2.0253 -3.0638
  251MOL0     H33119   0.699   3.323   8.001 -0.1756 -1.0785 -0.5500
  251MOL0     H33120   0.384   2.892   8.169  0.8516  1.9530  0.0399
  251MOL0     H33121   0.167   2.903   8.299  0.7302 -1.1118 -1.2281
  251MOL0     H33122  -0.215   3.081   8.146 -0.0043 -0.7768  0.7150
  251MOL0     H33123  -0.101   3.218   8.132 -0.1860 -0.2686  0.9814
  251MOL0     H33124  -0.090   3.206   8.385 -1.0084 -2.2727  2.5662
  251MOL0     H33125  -0.221   3.300   8.307 -2.7591 -1.9089 -0.0573
  251MOL0     H33126  -0.304   3.173   8.502  0.0131 -0.1579  0.5464
  251MOL0     H33127  -0.281   3.019   8.417 -4.1357 -0.7535 -0.4415
  251MOL0     H33128  -0.465   3.256   8.313 -1.8971 -0.9077 -2.3543
  251MOL0     H33129  -0.423   3.108   8.234  0.7932  0.9337 -0.9146
  251MOL0     H33130  -0.721   2.965   8.499 -0.8858  2.6618 -0.9105
  251MOL0     H33131   0.013   3.137   7.977  1.0190  1.3186 -1.4661
  251MOL0     H33132   0.229   3.145   7.866  1.5154  2.7309  1.5540
  252MOL0     O33133   0.424   6.184   6.884  0.2056 -0.0826 -0.0098
  252MOL0     C33134   0.492   6.271   6.826  0.8563  0.0459  0.5717
  252MOL0     O33135   0.536   6.388   6.876  0.9099 -0.6651  0.2165
  252MOL0     C33136   0.489   6.424   7.001 -0.3622  0.5620 -0.0294
  252MOL0     C33137   0.421   6.546   7.005 -0.3560  0.7607 -0.2503
  252MOL0     C33138   0.355   6.587   7.124 -0.6597 -0.0135 -0.5348
  252MOL0     C33139   0.366   6.504   7.239 -0.2410 -0.5975 -0.6366
  252MOL0     O33140   0.290   6.554   7.346  0.5839 -0.0454 -0.2036
  252MOL0     C33141   0.237   6.454   7.434  0.3336 -0.6435  0.4504
  252MOL0     C33142   0.148   6.538   7.524 -0.0813  0.5150  0.5092
  252MOL0     C33143  -0.000   6.552   7.472  0.2110 -0.0879  0.3628
  252MOL0     C33144  -0.075   6.423   7.506 -0.2067 -0.6695  0.7459
  252MOL0     C33145  -0.217   6.422   7.445  0.7681  0.2123 -0.4796
  252MOL0     C33146  -0.311   6.524   7.504 -0.1654 -0.7310 -0.2121
  252MOL0     C33147  -0.455   6.524   7.462 -0.4273  0.7059  0.4123
  252MOL0     C33148  -0.536   6.630   7.531  0.4476 -0.2559 -0.4521
  252MOL0     N33149  -0.685   6.607   7.511 -0.3881  0.0194  0.3235
  252MOL0     C33150  -0.740   6.618   7.390  0.6219 -0.2597  0.0363
  252MOL0     C33151  -0.877   6.634   7.417 -0.5405  0.5722 -0.4676
  252MOL0     C33152  -0.974   6.647   7.308 -0.0581  0.3359 -0.1753
  252MOL0     C33153  -1.091   6.726   7.367  0.9531 -0.1682 -0.6572
  252MOL0     C33154  -1.169   6.781   7.248 -0.1582  0.0020  0.2567
  252MOL0     C33155  -1.285   6.864   7.289  0.6488  0.7244 -0.4608
  252MOL0     O33156  -1.376   6.787   7.367  0.0145  0.4508 -0.4002
  252MOL0     C33157  -1.511   6.787   7.340  0.3077 -0.7069  0.0141
  252MOL0     C33158  -1.581   6.884   7.268  0.1635  0.9456  0.0863
  252MOL0     C33159  -1.718   6.880   7.252 -0.0305  0.7740  0.4195
  252MOL0     C33160  -1.786   6.769   7.298 -0.0161  0.1850 -0.3306
  252MOL0     C33161  -1.931   6.741   7.271 -0.0998  1.0857 -0.5622
  252MOL0     O33162  -1.984   6.614   7.312 -0.0857  0.2219 -0.0630
  252MOL0     C33163  -2.118   6.590   7.273 -0.7628  0.3979  0.2248
  252MOL0     C33164  -2.173   6.617   7.143 -0.3491 -0.6141  0.4026
  252MOL0     C33165  -2.295   6.575   7.101  0.1335 -0.1116 -0.1752
  252MOL0     C33166  -2.371   6.503   7.192 -0.9224  0.4986  0.5561
  252MOL0     O33167  -2.496   6.465   7.159  0.0948  0.5785  0.4821
  252MOL0     C33168  -2.493   6.349   7.072  0.4475  0.3228 -0.1975
  252MOL0     C33169  -2.630   6.281   7.074 -0.4711 -0.0394  0.5331
  252MOL0     C33170  -2.655   6.214   7.208  0.5552 -0.2846 -0.8791
  252MOL0     C33171  -2.807   6.190   7.195  0.6092 -0.3517 -0.3074
  252MOL0     C33172  -2.847   6.095   7.316 -0.3740  0.0462 -0.7800
  252MOL0     C33173  -2.968   6.134   7.401 -0.1862 -0.0453 -0.0620
  252MOL0     C33174  -2.973   6.041   7.519  0.0159  0.3668  0.3219
  252MOL0     C33175  -3.095   6.061   7.618 -0.4866 -0.3253 -0.1762
  252MOL0    Cl33176  -3.243   5.995   7.537 -0.1138  0.1149 -0.1385
  252MOL0     C33177  -2.324   6.465   7.316 -0.5668 -0.8355 -0.1499
  252MOL0     C33178  -2.199   6.516   7.357 -0.4576  0.0975 -0.1469
  252MOL0     O33179  -1.989   6.832   7.208  0.0990  0.8040 -0.2085
  252MOL0     C33180  -1.720   6.679   7.370  0.0811  0.4370 -0.2448
  252MOL0     C33181  -1.582   6.687   7.393  0.0652 -0.3463 -1.3125
  252MOL0     N33182  -0.893   6.631   7.554  0.9191 -1.0940  0.4786
  252MOL0     N33183  -0.777   6.627   7.608  0.4148  0.3424  0.1218
  252MOL0     C33184   0.426   6.383   7.235 -0.8226  0.2714  0.7734
  252MOL0     C33185   0.495   6.348   7.110  0.1396  1.6447  0.2696
  252MOL0     C33186   0.568   6.228   6.707  0.9889 -0.1486  0.6293
  252MOL0     C33187   0.643   6.326   6.632  0.8956  0.5781 -0.2391
  252MOL0     C33188   0.710   6.288   6.514 -0.4916 -1.3922 -0.3340
  252MOL0     C33189   0.705   6.163   6.467  0.1696 -0.1490  0.8339
  252MOL0     O33190   0.769   6.129   6.344  0.2126 -0.6748 -0.2573
  252MOL0     C33191   0.783   5.986   6.330 -0.2849 -0.1966  0.3453
  252MOL0     C33192   0.877   5.940   6.211  0.6031  0.7128 -1.1947
  252MOL0     C33193   1.013   6.014   6.219 -0.2157  0.8569  1.0655
  252MOL0     C33194   1.103   5.965   6.103  0.9173  0.1547  0.2384
  252MOL0     C33195   1.226   5.917   6.160 -0.4852 -0.3665 -0.0159
  252MOL0     C33196   1.316   5.861   6.223  0.0605  0.0562  0.0934
  252MOL0     C33197   0.633   6.067   6.551 -0.5983  0.2629 -0.1852
  252MOL0     C33198   0.580   6.099   6.670 -0.2616  0.3723 -0.2521
  252MOL0     H33199   0.424   6.616   6.922  1.7634 -1.2133 -1.9936
  252MOL0     H33200   0.300   6.680   7.132 -0.7415 -0.2174  3.4307
  252MOL0     H33201   0.317   6.405   7.492  2.2820 -1.2006 -2.4748
  252MOL0     H33202   0.180   6.387   7.369  0.7707  1.3290 -2.1316
  252MOL0     H33203   0.180   6.642   7.536  0.5566  0.3397  0.3405
  252MOL0     H33204   0.135   6.486   7.620 -1.4296  0.1682  0.1673
  252MOL0     H33205  -0.002   6.581   7.367  0.1549  3.7596  1.2981
  252MOL0     H33206  -0.054   6.637   7.516 -0.0702  0.7696 -1.5687
  252MOL0     H33207  -0.021   6.335   7.472 -0.6105 -0.9551  0.8425
  252MOL0     H33208  -0.072   6.410   7.614 -0.2896  0.4071  0.8895
  252MOL0     H33209  -0.260   6.324   7.469  2.6071 -0.0780  2.0995
  252MOL0     H33210  -0.211   6.430   7.336  2.3623  0.1992 -0.4289
  252MOL0     H33211  -0.261   6.620   7.484  2.1314 -1.8016 -0.0238
  252MOL0     H33212  -0.313   6.494   7.609 -2.0110  3.1327  1.0293
  252MOL0     H33213  -0.462   6.537   7.353 -0.7940  0.9604  0.4648
  252MOL0     H33214  -0.494   6.424   7.483  0.1886  0.7574  1.9692
  252MOL0     H33215  -0.512   6.730   7.493  3.0084 -0.0309  1.4790
  252MOL0     H33216  -0.517   6.622   7.638 -1.7755 -1.5725 -0.1024
  252MOL0     H33217  -0.696   6.597   7.292  2.9544 -1.8672  1.3178
  252MOL0     H33218  -1.007   6.544   7.290 -0.4111  0.4038  0.0651
  252MOL0     H33219  -0.931   6.678   7.212  0.4780 -0.6551 -0.2649
  252MOL0     H33220  -1.063   6.806   7.436 -0.2388 -1.7069  1.7526
  252MOL0     H33221  -1.147   6.651   7.424  2.6447  0.7855  2.4249
  252MOL0     H33222  -1.110   6.837   7.175 -2.3398 -0.0208 -1.6344
  252MOL0     H33223  -1.199   6.694   7.189  1.8356 -0.9537  0.5609
  252MOL0     H33224  -1.327   6.896   7.193  1.9356  0.9114 -0.9716
  252MOL0     H33225  -1.260   6.954   7.345 -0.7086  1.1802 -0.5371
  252MOL0     H33226  -1.515   6.956   7.219 -0.4806  0.0210 -2.2697
  252MOL0     H33227  -1.758   6.961   7.191  1.5535  1.1061 -0.2294
  252MOL0     H33228  -2.119   6.676   7.071 -0.4563  1.7846  2.1842
  252MOL0     H33229  -2.331   6.612   7.005  0.8772  2.4989  0.4729
  252MOL0     H33230  -2.413   6.279   7.099  0.2083  0.4816  0.9809
  252MOL0     H33231  -2.465   6.391   6.975  2.5228 -1.6331 -0.5315
  252MOL0     H33232  -2.636   6.210   6.991  1.6626  0.8441 -0.4608
  252MOL0     H33233  -2.709   6.353   7.050  0.8312  1.1778 -0.2819
  252MOL0     H33234  -2.635   6.282   7.291 -2.5578  0.7195 -0.8505
  252MOL0     H33235  -2.597   6.121   7.211 -0.2319 -0.7782 -0.5605
  252MOL0     H33236  -2.862   6.278   7.231  3.3966  1.5025 -0.2155
  252MOL0     H33237  -2.834   6.164   7.093  1.1698 -0.8422 -0.3346
  252MOL0     H33238  -2.764   6.110   7.385  1.1314 -0.5420 -2.3881
  252MOL0     H33239  -2.841   5.989   7.289  2.8234 -0.1223  0.2203
  252MOL0     H33240  -3.058   6.126   7.340  0.5184 -3.0281 -0.9070
  252MOL0     H33241  -2.957   6.238   7.431 -0.2324  0.0174 -0.2651
  252MOL0     H33242  -2.960   5.937   7.490 -0.4039  0.2241  0.6292
  252MOL0     H33243  -2.892   6.063   7.588 -0.0795 -3.6728  1.9929
  252MOL0     H33244  -3.115   6.167   7.632 -2.5767 -0.8154  1.0784
  252MOL0     H33245  -3.076   6.013   7.714  0.8643  0.7728  0.1368
  252MOL0     H33246  -2.384   6.424   7.397 -0.4355  2.0715  1.5573
  252MOL0     H33247  -2.163   6.490   7.456  2.1134  0.8257 -0.8004
  252MOL0     H33248  -1.777   6.599   7.417 -2.2616  2.6861  1.0505
  252MOL0     H33249  -1.530   6.619   7.460 -1.6957 -1.6625 -1.1875
  252MOL0     H33250   0.424   6.312   7.317 -1.7590  1.1819  1.5644
  252MOL0     H33251   0.544   6.252   7.105 -0.5032  1.3611 -1.0152
  252MOL0     H33252   0.652   6.428   6.667 -1.0361  2.0112 -3.4990
  252MOL0     H33253   0.751   6.369   6.454 -3.3268 -0.5719 -1.3325
  252MOL0     H33254   0.683   5.945   6.317 -0.4983  0.7071 -1.1840
  252MOL0     H33255   0.832   5.948   6.420  0.5290  1.1768  0.5111
  252MOL0     H33256   0.886   5.832   6.203  3.2113  0.2844  3.5879
  252MOL0     H33257   0.810   5.979   6.133 -2.0928 -0.9520  0.1519
  252MOL0     H33258   1.065   6.019   6.315  1.0005 -0.2844  0.4915
  252MOL0     H33259   0.986   6.118   6.195  1.4735  1.7861  2.8248
  252MOL0     H33260   1.048   5.887   6.050 -0.4955 -0.9339  3.0460
  252MOL0     H33261   1.142   6.043   6.038  1.3600  0.6887  1.1190
  252MOL0     H33262   1.386   5.792   6.266  1.7744  1.0119 -1.0305
  252MOL0     H33263   0.634   5.960   6.532 -0.3574  0.1881  0.2347
  252MOL0     H33264   0.541   6.017   6.729 -2.8473  0.3493 -1.8282
  253MOL0     O33265   6.657   8.280   9.357 -0.6798 -0.2613  0.7711
  253MOL0     C33266   6.737   8.301   9.259 -0.1477 -1.3748  0.5790
  253MOL0     O33267   6.711   8.356   9.142 -0.1278 -0.1528  0.7343
  253MOL0     C33268   6.589   8.419   9.134  0.3707 -0.1890  0.2239
  253MOL0     C33269   6.481   8.350   9.081 -0.1096  0.1733  0.2027
  253MOL0     C33270   6.349   8.405   9.077  0.1101  0.2694  0.2446
  253MOL0     C33271   6.333   8.532   9.126 -0.1166 -0.0803  0.5336
  253MOL0     O33272   6.215   8.605   9.125  0.1954  0.6633 -0.2038
  253MOL0     C33273   6.141   8.620   9.003  0.8129  0.2370  0.2946
  253MOL0     C33274   6.027   8.711   9.045  0.0809  0.6766 -0.1504
  253MOL0     C33275   6.071   8.850   9.096  0.2339 -0.5592 -0.5846
  253MOL0     C33276   5.953   8.941   9.146  0.4365  0.5289  0.6015
  253MOL0     C33277   6.005   9.079   9.134  1.2325  0.0216  1.3475
  253MOL0     C33278   6.107   9.145   9.228 -0.3838  1.0119  0.1348
  253MOL0     C33279   6.073   9.152   9.374 -0.3499  0.2495 -0.5878
  253MOL0     C33280   5.956   9.236   9.403 -0.8535 -0.8846  0.3972
  253MOL0     N33281   5.949   9.267   9.545  0.5560  0.2909 -0.7725
  253MOL0     C33282   5.945   9.173   9.645 -0.3376  0.2391  0.3089
  253MOL0     C33283   5.931   9.244   9.759  0.4262  0.4748 -0.3031
  253MOL0     C33284   5.885   9.201   9.899 -0.8030 -0.8344 -0.2742
  253MOL0     C33285   5.743   9.260   9.940 -0.3774  0.1811  0.8688
  253MOL0     C33286   5.716   9.228  10.085  0.1056 -0.0565 -0.0493
  253MOL0     C33287   5.580   9.270  10.124  0.5824  0.7024 -0.4759
  253MOL0     O33288   5.480   9.192  10.055  0.5266  0.6083  0.3337
  253MOL0     C33289   5.353   9.172  10.107  0.2592 -0.0254 -0.5687
  253MOL0     C33290   5.303   9.231  10.229  0.1747  0.6644  0.2354
  253MOL0     C33291   5.187   9.188  10.289 -0.8203  0.1638  0.7396
  253MOL0     C33292   5.100   9.111  10.211  0.1524 -0.2602  0.6388
  253MOL0     C33293   4.976   9.058  10.281  0.6370 -0.5885 -0.1970
  253MOL0     O33294   4.954   9.098  10.402 -0.5330  1.0774  0.1806
  253MOL0     C33295   4.845   9.062  10.472  0.1970  0.1591  0.3507
  253MOL0     C33296   4.717   9.033  10.422  0.6313 -0.3505 -0.6077
  253MOL0     C33297   4.614   8.978  10.504 -0.2193  0.0551 -0.2022
  253MOL0     C33298   4.628   8.948  10.641 -0.3798 -0.4737  0.1368
  253MOL0     O33299   4.517   8.895  10.708 -0.2785 -0.4009  0.6823
  253MOL0     C33300   4.526   8.907  10.852  0.8899 -0.2516 -0.6445
  253MOL0     C33301   4.493   9.047  10.898  0.5691 -0.4036 -0.2977
  253MOL0     C33302   4.345   9.082  10.878 -0.5436 -0.7968 -0.6151
  253MOL0     C33303   4.295   9.108  10.736  0.3386 -0.6022  0.0810
  253MOL0     C33304   4.143   9.120  10.732  0.2209  0.3927  0.0233
  253MOL0     C33305   4.082   9.227  10.820 -0.1763 -0.1664 -0.2443
  253MOL0     C33306   3.943   9.253  10.781  0.3898  0.0423 -0.3910
  253MOL0     C33307   3.880   9.336  10.889  0.5904 -0.4058 -0.7218
  253MOL0    Cl33308   3.916   9.513  10.869  0.3943  0.3570 -0.5356
  253MOL0     C33309   4.755   8.981  10.690  0.7810  0.0844 -0.3858
  253MOL0     C33310   4.853   9.043  10.611  0.1311  0.0920 -0.2802
  253MOL0     O33311   4.906   8.979  10.227 -0.3030 -0.2000 -0.7737
  253MOL0     C33312   5.134   9.067  10.083 -0.3666  0.9741 -0.0855
  253MOL0     C33313   5.265   9.095  10.036  0.0427 -0.0678  0.0250
  253MOL0     N33314   5.928   9.379   9.725  0.6364  0.1631  0.7293
  253MOL0     N33315   5.950   9.395   9.591  0.4949 -0.1348  0.0781
  253MOL0     C33316   6.444   8.597   9.185 -0.3727 -0.7848 -1.5410
  253MOL0     C33317   6.579   8.547   9.186 -0.1275 -0.1641 -0.2198
  253MOL0     C33318   6.876   8.252   9.286  0.6078 -0.2658  0.2269
  253MOL0     C33319   6.972   8.252   9.190  0.7395 -0.4101  0.0294
  253MOL0     C33320   7.107   8.235   9.220 -0.0432 -0.0352 -0.0907
  253MOL0     C33321   7.138   8.179   9.337  0.0250  0.1279  0.3744
  253MOL0     O33322   7.262   8.149   9.364 -0.0662 -0.3213  0.1247
  253MOL0     C33323   7.320   8.207   9.484  0.2746 -0.4232 -0.4302
  253MOL0     C33324   7.411   8.329   9.450  0.5067 -0.2637 -0.2545
  253MOL0     C33325   7.513   8.287   9.341 -0.1534  0.9916  0.1209
  253MOL0     C33326   7.617   8.180   9.387 -0.1187  0.8780 -0.7298
  253MOL0     C33327   7.673   8.200   9.519 -0.8258 -0.6107  0.1052
  253MOL0     C33328   7.715   8.227   9.631  0.5981  0.5700  0.0570
  253MOL0     C33329   7.039   8.167   9.432 -1.0533  0.6057 -0.8521
  253MOL0     C33330   6.912   8.209   9.414  0.2649 -0.6174  0.1463
  253MOL0     H33331   6.489   8.246   9.052 -1.9518  0.2577 -0.7976
  253MOL0     H33332   6.270   8.344   9.033  1.5423 -1.3036 -0.2422
  253MOL0     H33333   6.096   8.523   8.978  1.2571  0.2291 -0.5131
  253MOL0     H33334   6.209   8.653   8.925  1.6461 -2.3178 -0.1562
  253MOL0     H33335   5.969   8.657   9.121  1.6218 -1.0189 -0.1245
  253MOL0     H33336   5.964   8.728   8.958  0.3059  1.4537 -0.1668
  253MOL0     H33337   6.116   8.893   9.006  0.3181  0.1113 -0.2248
  253MOL0     H33338   6.151   8.852   9.171  1.5792  2.0106 -1.9808
  253MOL0     H33339   5.875   8.933   9.069  2.8900  0.3635 -2.0362
  253MOL0     H33340   5.920   8.921   9.248  1.5931  1.0586  1.0966
  253MOL0     H33341   5.910   9.133   9.140  2.0054  1.2931  2.8373
  253MOL0     H33342   6.031   9.089   9.028 -3.6968 -0.4562 -0.1623
  253MOL0     H33343   6.123   9.246   9.189  1.0926 -0.2363 -2.8662
  253MOL0     H33344   6.204   9.095   9.216  0.0870  1.8427  0.4368
  253MOL0     H33345   6.065   9.047   9.405  1.1535  0.3984  0.4040
  253MOL0     H33346   6.159   9.185   9.433 -0.4374  1.2613 -1.0164
  253MOL0     H33347   5.864   9.190   9.365 -1.0705 -0.6481  0.6271
  253MOL0     H33348   5.976   9.331   9.353 -1.4219  0.1449  2.0530
  253MOL0     H33349   5.946   9.065   9.636 -2.7301  0.1416  0.5710
  253MOL0     H33350   5.956   9.234   9.976 -1.0211  0.4466 -0.5937
  253MOL0     H33351   5.871   9.093   9.901 -1.1484 -0.7821  1.3382
  253MOL0     H33352   5.673   9.205   9.876  2.0813 -2.1233 -0.0186
  253MOL0     H33353   5.740   9.369   9.939  2.0275  0.3309 -1.7355
  253MOL0     H33354   5.737   9.122  10.105  1.0576  0.3081  1.0039
  253MOL0     H33355   5.781   9.294  10.143 -0.1819 -2.6227  3.5288
  253MOL0     H33356   5.556   9.375  10.105 -2.2773  0.2952  0.3344
  253MOL0     H33357   5.568   9.255  10.232  0.7311  2.2449 -0.2256
  253MOL0     H33358   5.364   9.298  10.290  1.0722 -1.0752  1.3600
  253MOL0     H33359   5.158   9.218  10.389  0.2724  0.3664  1.0105
  253MOL0     H33360   4.698   9.058  10.318  1.8443 -0.5600 -0.8971
  253MOL0     H33361   4.515   8.970  10.461 -0.2523  0.8328 -0.2796
  253MOL0     H33362   4.624   8.866  10.880  1.0181 -0.7860 -1.8160
  253MOL0     H33363   4.446   8.848  10.898  0.1756  1.7197  0.7280
  253MOL0     H33364   4.551   9.109  10.829 -0.4970  0.4238 -0.4741
  253MOL0     H33365   4.519   9.054  11.004  1.8371 -0.1128 -0.6082
  253MOL0     H33366   4.319   9.166  10.942  0.5505 -0.5773 -0.4242
  253MOL0     H33367   4.293   8.993  10.915  1.1863 -1.2408  0.8935
  253MOL0     H33368   4.336   9.201  10.695 -2.4987  1.2407  1.1157
  253MOL0     H33369   4.326   9.020  10.678  0.1488 -0.1860 -0.6687
  253MOL0     H33370   4.102   9.022  10.758  0.8423 -0.6276 -2.5543
  253MOL0     H33371   4.113   9.138  10.628 -4.4622  2.2123  1.4239
  253MOL0     H33372   4.139   9.318  10.801  0.0495  0.4860  2.8893
  253MOL0     H33373   4.086   9.203  10.927 -1.1586 -0.5470 -0.2843
  253MOL0     H33374   3.930   9.303  10.684  0.1296 -1.5581 -1.2193
  253MOL0     H33375   3.891   9.157  10.769 -0.3913  0.3443  0.4822
  253MOL0     H33376   3.910   9.301  10.988 -2.5322 -1.1303  0.0643
  253MOL0     H33377   3.771   9.330  10.883  0.2758  3.5231 -2.3286
  253MOL0     H33378   4.776   8.957  10.794  0.4547  3.0159  0.4664
  253MOL0     H33379   4.949   9.075  10.650 -0.7081 -0.1953  2.2199
  253MOL0     H33380   5.068   9.009  10.019 -3.5141  4.7580 -0.6251
  253MOL0     H33381   5.300   9.060   9.939 -2.0109  1.7360 -1.4615
  253MOL0     H33382   6.418   8.691   9.232 -0.2830 -1.4288 -0.1506
  253MOL0     H33383   6.662   8.597   9.236  0.0491 -1.4205  0.8095
  253MOL0     H33384   6.941   8.281   9.090  2.2895 -0.4006 -0.4767
  253MOL0     H33385   7.186   8.252   9.146  1.0484 -1.9658  0.5514
  253MOL0     H33386   7.377   8.131   9.537  0.2909 -0.4586 -0.4992
  253MOL0     H33387   7.246   8.246   9.555 -1.1474 -2.5424 -0.6622
  253MOL0     H33388   7.341   8.402   9.409  0.8202  1.2648  1.8014
  253MOL0     H33389   7.459   8.378   9.535 -2.8044  1.8249  0.6061
  253MOL0     H33390   7.575   8.374   9.316  1.8114  0.6291  3.1843
  253MOL0     H33391   7.461   8.276   9.246  2.6994  1.1656 -1.5904
  253MOL0     H33392   7.577   8.078   9.387  0.6844  0.5152  1.5597
  253MOL0     H33393   7.695   8.172   9.311 -0.1063  0.5602 -0.6879
  253MOL0     H33394   7.753   8.258   9.726  0.5513 -0.1984  0.3333
  253MOL0     H33395   7.075   8.125   9.525 -2.4459  0.5365 -0.3202
  253MOL0     H33396   6.845   8.203   9.499  0.3665  2.4374  0.5387
  254MOL0     O33397   3.731   7.608   2.056 -0.7317  0.0106  0.7670
  254MOL0     C33398   3.711   7.712   1.991  0.2222  0.4885 -0.0466
  254MOL0     O33399   3.595   7.747   1.949  0.5303 -0.1233 -0.3439
  254MOL0     C33400   3.466   7.691   1.971  0.1006 -0.7128 -0.2760
  254MOL0     C33401   3.434   7.582   2.055 -1.0974  0.3078  0.4540
  254MOL0     C33402   3.310   7.536   2.072 -0.1128 -1.2295  1.1321
  254MOL0     C33403   3.205   7.596   2.002 -0.1836 -0.0525  0.0095
  254MOL0     O33404   3.076   7.550   2.019  0.1158 -0.3140  0.3555
  254MOL0     C33405   3.057   7.412   2.056 -0.0625  0.4950 -0.0290
  254MOL0     C33406   2.917   7.357   2.030 -0.1078  0.2600  0.7319
  254MOL0     C33407   2.905   7.210   2.078 -0.8991 -0.2896  0.6621
  254MOL0     C33408   2.785   7.136   2.032  0.3549  0.2674 -0.2071
  254MOL0     C33409   2.789   7.000   2.102 -0.0817  0.1116 -0.6431
  254MOL0     C33410   2.698   6.896   2.040  0.2899 -0.1248  0.6227
  254MOL0     C33411   2.664   6.773   2.125  0.1428  0.0388  0.7345
  254MOL0     C33412   2.590   6.656   2.061  0.6159  0.0000  0.2174
  254MOL0     N33413   2.452   6.696   2.024 -0.1158 -0.2078 -0.0611
  254MOL0     C33414   2.350   6.703   2.119 -0.9208  1.4319 -0.8548
  254MOL0     C33415   2.234   6.692   2.058 -0.5998 -0.2575  0.5674
  254MOL0     C33416   2.089   6.703   2.108  0.1907  0.2404 -0.7109
  254MOL0     C33417   2.037   6.846   2.091  0.5933  0.2751  0.8427
  254MOL0     C33418   1.921   6.873   2.199 -0.7055 -0.3372  1.0325
  254MOL0     C33419   1.814   6.761   2.211 -0.2381  0.5850  0.6623
  254MOL0     O33420   1.704   6.816   2.275 -0.2557 -0.4598  0.3119
  254MOL0     C33421   1.587   6.742   2.278 -0.3145  0.1210  0.0318
  254MOL0     C33422   1.577   6.612   2.226  0.0306  0.4658  0.1391
  254MOL0     C33423   1.460   6.535   2.239 -0.1277  0.1583 -1.1657
  254MOL0     C33424   1.343   6.591   2.295 -0.0713 -0.1532  0.6686
  254MOL0     C33425   1.220   6.510   2.312  0.5608 -0.3189  0.0246
  254MOL0     O33426   1.223   6.375   2.290  0.5026  0.1500  0.6762
  254MOL0     C33427   1.121   6.286   2.284  0.9922  1.0786  0.2057
  254MOL0     C33428   1.153   6.159   2.238  0.4618 -0.6532  0.4206
  254MOL0     C33429   1.055   6.058   2.220 -0.1958 -0.0221  0.6052
  254MOL0     C33430   0.913   6.089   2.247 -0.4163 -0.3739 -0.5323
  254MOL0     O33431   0.808   6.013   2.204 -0.3717  0.4583  0.6191
  254MOL0     C33432   0.827   5.890   2.132 -0.7523 -1.3337 -0.6319
  254MOL0     C33433   0.694   5.814   2.128 -0.0366  0.5963 -0.3637
  254MOL0     C33434   0.580   5.894   2.053 -0.3644 -0.3774  0.3438
  254MOL0     C33435   0.446   5.833   2.044  0.4926  0.5587 -0.0190
  254MOL0     C33436   0.460   5.718   1.938  0.3043 -0.2732  0.1990
  254MOL0     C33437   0.338   5.617   1.942 -0.3053 -0.5705  0.1301
  254MOL0     C33438   0.359   5.502   1.848 -0.4935 -0.3785  0.2275
  254MOL0     C33439   0.257   5.393   1.838  1.0747 -1.3350  0.7320
  254MOL0    Cl33440   0.277   5.293   1.985  0.2215  0.2138 -0.1992
  254MOL0     C33441   0.882   6.222   2.298 -1.1855  0.4826 -0.0290
  254MOL0     C33442   0.990   6.307   2.326 -0.1137  0.2722  0.2185
  254MOL0     O33443   1.121   6.568   2.347  0.0547  0.0320 -0.9188
  254MOL0     C33444   1.353   6.727   2.338  0.1553  0.7393  1.0338
  254MOL0     C33445   1.470   6.800   2.329 -0.6705 -1.0249 -0.0269
  254MOL0     N33446   2.261   6.672   1.921 -0.4735  0.1485  0.0304
  254MOL0     N33447   2.397   6.673   1.907  0.2349  0.2626 -0.2997
  254MOL0     C33448   3.232   7.703   1.913 -0.2475  0.5543  0.2668
  254MOL0     C33449   3.366   7.757   1.903 -0.1374  0.2343 -0.2621
  254MOL0     C33450   3.820   7.814   1.984 -0.8028  1.0095  0.3819
  254MOL0     C33451   3.943   7.797   2.059 -0.1656 -0.9708 -0.2431
  254MOL0     C33452   4.038   7.900   2.052  0.3704  0.4120 -0.4842
  254MOL0     C33453   4.021   8.018   1.981 -0.1455 -0.4699 -0.1611
  254MOL0     O33454   4.115   8.115   2.005 -1.0731  0.0892  0.2650
  254MOL0     C33455   4.177   8.178   1.888  0.2726 -0.3090  0.1668
  254MOL0     C33456   4.332   8.183   1.910 -0.6270  0.7207  0.1771
  254MOL0     C33457   4.413   8.278   1.817  0.1442  0.1901  0.1074
  254MOL0     C33458   4.426   8.420   1.871 -0.0208  0.1733 -0.6054
  254MOL0     C33459   4.503   8.510   1.783 -0.7810  0.6984  0.5465
  254MOL0     C33460   4.572   8.576   1.706 -0.7891 -0.3665  0.4121
  254MOL0     C33461   3.907   8.040   1.917 -0.0323 -0.0286 -1.0935
  254MOL0     C33462   3.807   7.939   1.919  0.3176  0.6452 -0.0508
  254MOL0     H33463   3.515   7.528   2.103 -0.3347 -0.1590 -1.2815
  254MOL0     H33464   3.292   7.447   2.131 -0.7709 -1.5361  0.4826
  254MOL0     H33465   3.076   7.402   2.163 -1.2528  2.0994  0.3630
  254MOL0     H33466   3.126   7.345   2.004  0.0638 -1.4500  2.4666
  254MOL0     H33467   2.899   7.362   1.922  3.2642 -0.0346  0.0530
  254MOL0     H33468   2.835   7.411   2.079 -0.1664 -0.5951  1.6090
  254MOL0     H33469   2.922   7.204   2.186  3.9529  0.0256  0.1342
  254MOL0     H33470   2.993   7.159   2.038 -2.0656 -1.2095 -0.8376
  254MOL0     H33471   2.698   7.192   2.067  0.9962  2.0132 -1.2897
  254MOL0     H33472   2.768   7.128   1.925 -2.4936  1.3553  0.0681
  254MOL0     H33473   2.765   7.011   2.208  0.2021 -1.6875 -0.3630
  254MOL0     H33474   2.889   6.956   2.106 -0.1116  0.1187  0.8098
  254MOL0     H33475   2.732   6.858   1.943  0.1173  3.3378 -0.9346
  254MOL0     H33476   2.607   6.946   2.004  2.2736  3.4088  0.1277
  254MOL0     H33477   2.761   6.728   2.145  1.7325  2.2776 -1.4206
  254MOL0     H33478   2.615   6.807   2.217 -1.3110  2.9654 -0.9456
  254MOL0     H33479   2.595   6.559   2.111  0.4225  0.9526  2.1917
  254MOL0     H33480   2.636   6.621   1.968 -0.0565 -0.5304  0.0800
  254MOL0     H33481   2.364   6.722   2.225 -0.5404  4.0278 -1.3107
  254MOL0     H33482   2.079   6.669   2.211  1.2210 -0.1085 -0.7142
  254MOL0     H33483   2.027   6.630   2.054 -0.4548 -1.5494  2.2256
  254MOL0     H33484   2.004   6.869   1.990  2.3519 -0.5593  0.0417
  254MOL0     H33485   2.114   6.923   2.102  0.2147  0.4767  2.3790
  254MOL0     H33486   1.968   6.894   2.296 -1.6886  2.8686  0.9481
  254MOL0     H33487   1.875   6.967   2.166  0.1937  0.5993  2.3121
  254MOL0     H33488   1.849   6.677   2.271  0.4408 -0.8313 -1.5871
  254MOL0     H33489   1.796   6.717   2.112  1.2063  2.9412 -0.7639
  254MOL0     H33490   1.655   6.548   2.187  1.3432  0.6513  2.3051
  254MOL0     H33491   1.459   6.434   2.200  0.4866  0.1294 -1.1152
  254MOL0     H33492   1.256   6.139   2.210  0.2673 -0.6018 -0.3403
  254MOL0     H33493   1.085   5.961   2.183  0.5303  0.4302 -0.0114
  254MOL0     H33494   0.903   5.822   2.172 -0.7253 -0.8490  0.1557
  254MOL0     H33495   0.860   5.913   2.030 -1.5093 -2.0448 -1.0512
  254MOL0     H33496   0.661   5.774   2.224 -0.7784 -1.2822 -1.3652
  254MOL0     H33497   0.711   5.719   2.078 -0.2344 -0.2440  1.1017
  254MOL0     H33498   0.618   5.922   1.955 -2.1189 -1.1781 -0.6016
  254MOL0     H33499   0.562   5.981   2.117 -0.2819 -0.3001  0.2617
  254MOL0     H33500   0.398   5.799   2.136  2.9342 -1.2067  0.7013
  254MOL0     H33501   0.377   5.913   2.015 -0.3010  0.9583  2.6954
  254MOL0     H33502   0.550   5.660   1.962 -0.4268 -1.1399  0.9265
  254MOL0     H33503   0.478   5.745   1.834 -0.7721 -3.1358 -0.8366
  254MOL0     H33504   0.258   5.677   1.898  1.3241 -0.8643 -3.6230
  254MOL0     H33505   0.312   5.583   2.042 -0.4279 -0.6975  0.0553
  254MOL0     H33506   0.369   5.543   1.747 -0.6937  0.9165  0.7073
  254MOL0     H33507   0.457   5.458   1.869  2.8489  4.8929 -2.2204
  254MOL0     H33508   0.282   5.332   1.750 -0.3782 -1.5438  0.4347
  254MOL0     H33509   0.156   5.432   1.830  0.8392 -1.8514  1.1320
  254MOL0     H33510   0.781   6.252   2.323 -1.9932 -1.1745 -1.1059
  254MOL0     H33511   0.975   6.400   2.379  1.4947  2.3261 -2.6393
  254MOL0     H33512   1.257   6.774   2.355 -0.2686  1.1678 -2.0270
  254MOL0     H33513   1.464   6.904   2.359  1.2740 -0.9066  0.0541
  254MOL0     H33514   3.154   7.756   1.860 -2.0742 -0.6769  1.6214
  254MOL0     H33515   3.381   7.847   1.845 -0.5482  0.7786  0.4692
  254MOL0     H33516   3.960   7.702   2.109 -0.3092 -2.7271 -3.2538
  254MOL0     H33517   4.128   7.872   2.106 -0.9693 -0.8882  1.1948
  254MOL0     H33518   4.138   8.280   1.889 -0.4088 -0.5693  0.3977
  254MOL0     H33519   4.159   8.124   1.794  0.6002 -0.1071 -0.0138
  254MOL0     H33520   4.359   8.224   2.008  1.9167  1.4794 -0.7733
  254MOL0     H33521   4.375   8.083   1.899  0.1167  0.7561  2.3021
  254MOL0     H33522   4.372   8.287   1.716 -1.3053 -2.7073  0.3289
  254MOL0     H33523   4.514   8.237   1.808  1.0595  2.2221  0.5442
  254MOL0     H33524   4.333   8.474   1.891  1.2763  2.1157  0.5383
  254MOL0     H33525   4.469   8.421   1.971 -0.3768 -0.3064 -0.4448
  254MOL0     H33526   4.634   8.636   1.642 -0.9392 -2.0897 -1.4658
  254MOL0     H33527   3.886   8.131   1.862 -0.6177 -0.0143 -0.8513
  254MOL0     H33528   3.719   7.963   1.860  0.8149 -0.6738 -1.4091
  255MOL0     O33529   8.113   2.496   9.090 -0.4642 -0.7181  0.6397
  255MOL0     C33530   8.181   2.557   9.172  0.0059  0.3377  0.1674
  255MOL0     O33531   8.123   2.618   9.280 -0.4492 -0.6326  0.0431
  255MOL0     C33532   7.987   2.596   9.289 -0.1014  0.7217 -0.1979
  255MOL0     C33533   7.883   2.687   9.253  0.9070  0.6496 -0.5542
  255MOL0     C33534   7.745   2.649   9.273 -1.1702 -0.3619  0.1687
  255MOL0     C33535   7.705   2.529   9.330  0.4498  0.7995  0.9369
  255MOL0     O33536   7.574   2.487   9.318 -0.3661  0.9353 -0.1664
  255MOL0     C33537   7.485   2.533   9.428 -0.4095  0.8248  0.0166
  255MOL0     C33538   7.521   2.460   9.564 -0.2068 -0.4183  0.2444
  255MOL0     C33539   7.451   2.516   9.681  1.5805  0.1560  0.1191
  255MOL0     C33540   7.465   2.665   9.714 -0.2586 -0.7663  0.8357
  255MOL0     C33541   7.410   2.703   9.847  0.5339 -0.2153  0.2857
  255MOL0     C33542   7.392   2.852   9.870 -0.6491  0.4263  0.7541
  255MOL0     C33543   7.519   2.919   9.924  0.3453  0.2613  0.5226
  255MOL0     C33544   7.539   2.921  10.085  0.4298  0.3369 -0.2975
  255MOL0     N33545   7.675   2.964  10.128  0.2404  0.1041 -0.4766
  255MOL0     C33546   7.740   3.078  10.080  0.0333  0.4568  0.7812
  255MOL0     C33547   7.851   3.070  10.157  0.6457 -0.2593  0.3515
  255MOL0     C33548   7.952   3.185  10.161 -0.8171 -0.5728 -0.3281
  255MOL0     C33549   7.919   3.272  10.278 -1.4016 -0.4080  0.7226
  255MOL0     C33550   8.027   3.385  10.290 -0.0587  0.5706  0.5935
  255MOL0     C33551   7.991   3.480  10.412  0.2794  0.3524 -0.1264
  255MOL0     O33552   7.948   3.418  10.539  0.1721 -0.0708  0.1171
  255MOL0     C33553   7.891   3.497  10.634  0.2173  0.0703  0.3581
  255MOL0     C33554   7.835   3.427  10.738  0.3289  0.5249 -0.0211
  255MOL0     C33555   7.767   3.500  10.831  0.5070 -0.6433  0.3396
  255MOL0     C33556   7.758   3.642  10.837 -1.2033 -0.3221  0.5738
  255MOL0     C33557   7.670   3.713  10.936  0.3182  0.2903 -0.0617
  255MOL0     O33558   7.700   3.845  10.958 -0.6133 -0.3927  0.3460
  255MOL0     C33559   7.646   3.910  11.071 -0.7921  0.6098  0.5074
  255MOL0     C33560   7.508   3.910  11.103  0.4395 -0.1216  0.0238
  255MOL0     C33561   7.463   3.979  11.213 -0.2406  0.1132 -0.3983
  255MOL0     C33562   7.542   4.069  11.282  0.7793 -0.2906  0.1435
  255MOL0     O33563   7.503   4.131  11.402  0.2481 -0.4478  0.5208
  255MOL0     C33564   7.370   4.186  11.407  0.2721 -0.4344  0.4454
  255MOL0     C33565   7.370   4.315  11.500  0.1419 -0.1845  1.1947
  255MOL0     C33566   7.432   4.284  11.638  0.0783 -0.1870 -1.4968
  255MOL0     C33567   7.405   4.384  11.756 -0.5356  0.4302  0.4787
  255MOL0     C33568   7.429   4.528  11.718  0.0060  0.3631  0.3500
  255MOL0     C33569   7.574   4.543  11.685  0.3655  0.3540  0.0984
  255MOL0     C33570   7.604   4.701  11.658 -0.6882 -0.3317  0.3765
  255MOL0     C33571   7.756   4.738  11.650 -0.2818  0.2208 -0.3334
  255MOL0    Cl33572   7.848   4.648  11.517  0.2928  0.4840 -0.4718
  255MOL0     C33573   7.668   4.085  11.231 -0.4508  0.1187 -0.3780
  255MOL0     C33574   7.722   4.007  11.132  1.0598 -0.0635 -0.6157
  255MOL0     O33575   7.586   3.645  11.006 -0.5177 -0.1771  0.0456
  255MOL0     C33576   7.823   3.715  10.732  0.4709  0.4190 -0.3896
  255MOL0     C33577   7.891   3.634  10.635  0.2425  0.0286 -0.0105
  255MOL0     N33578   7.864   2.953  10.223 -0.1331  0.9139  0.6171
  255MOL0     N33579   7.754   2.895  10.212  0.0845 -0.5384 -0.5380
  255MOL0     C33580   7.806   2.439   9.360  0.2216 -0.0440  1.1632
  255MOL0     C33581   7.945   2.472   9.344 -0.0931 -0.3913 -0.0588
  255MOL0     C33582   8.325   2.562   9.153 -0.1260 -0.0433 -0.6284
  255MOL0     C33583   8.375   2.578   9.028 -0.6709  0.2302 -0.1618
  255MOL0     C33584   8.513   2.574   9.009  0.4367  0.0903 -0.2622
  255MOL0     C33585   8.599   2.562   9.119 -0.3007 -0.1070 -0.6162
  255MOL0     O33586   8.730   2.570   9.097 -0.7419  0.7958  0.2843
  255MOL0     C33587   8.791   2.482   8.998 -0.0330  0.1253  0.1829
  255MOL0     C33588   8.854   2.584   8.900 -0.7538  0.3543  0.0946
  255MOL0     C33589   8.947   2.533   8.789  0.0881  0.6918 -0.6804
  255MOL0     C33590   8.880   2.420   8.708  0.7774  0.0128 -0.2434
  255MOL0     C33591   8.762   2.461   8.625  0.3990 -0.1098 -0.3374
  255MOL0     C33592   8.664   2.496   8.573  1.0792 -0.1603  0.2984
  255MOL0     C33593   8.552   2.565   9.246 -0.0834  1.0882  0.0129
  255MOL0     C33594   8.416   2.558   9.265 -0.4032 -0.1068 -0.2440
  255MOL0     H33595   7.889   2.783   9.202 -4.0531  1.1451 -0.6691
  255MOL0     H33596   7.673   2.719   9.231  1.1064  1.4982 -0.9428
  255MOL0     H33597   7.384   2.501   9.399 -0.4594  0.6708  0.3626
  255MOL0     H33598   7.476   2.642   9.431 -3.4880  0.6987 -1.2676
  255MOL0     H33599   7.626   2.464   9.593 -0.4897  2.1767  1.1504
  255MOL0     H33600   7.491   2.356   9.547 -1.3277  0.3379 -3.4182
  255MOL0     H33601   7.477   2.456   9.769 -2.4321  1.2096  2.3120
  255MOL0     H33602   7.344   2.498   9.667  1.9948 -1.7796 -0.9103
  255MOL0     H33603   7.573   2.685   9.714 -0.2224 -0.4728 -2.0567
  255MOL0     H33604   7.416   2.732   9.643 -1.7602  0.0295  2.5389
  255MOL0     H33605   7.463   2.658   9.932  0.2688 -1.2419 -0.0855
  255MOL0     H33606   7.309   2.663   9.840 -0.0206  1.2220 -0.5082
  255MOL0     H33607   7.307   2.868   9.936  0.0186  0.1804  1.6921
  255MOL0     H33608   7.366   2.891   9.771  0.4326 -1.4396 -0.3499
  255MOL0     H33609   7.606   2.879   9.871 -0.4969  0.5525 -1.1349
  255MOL0     H33610   7.521   3.022   9.887  0.2099  0.3863  0.8532
  255MOL0     H33611   7.530   2.819  10.124 -1.6474  0.5985  0.0495
  255MOL0     H33612   7.459   2.981  10.130  0.9938 -0.1569  1.4556
  255MOL0     H33613   7.714   3.163  10.017  2.0953  2.3790  2.3702
  255MOL0     H33614   7.950   3.242  10.068  1.0340  0.5927  0.3056
  255MOL0     H33615   8.051   3.143  10.182 -0.0154  1.8305  1.0311
  255MOL0     H33616   7.933   3.216  10.371 -1.6829  0.4468  1.2905
  255MOL0     H33617   7.817   3.302  10.254 -0.6181  0.5647 -1.5974
  255MOL0     H33618   8.125   3.341  10.314  0.3485  0.2563 -1.4861
  255MOL0     H33619   8.043   3.441  10.198 -0.7690  3.7307  2.2553
  255MOL0     H33620   7.904   3.539  10.382 -0.8390 -1.0116  0.2916
  255MOL0     H33621   8.063   3.558  10.439 -0.6419  0.4640  2.2616
  255MOL0     H33622   7.841   3.321  10.760  1.2572  0.6360  0.2841
  255MOL0     H33623   7.701   3.440  10.893 -1.4426 -0.5665 -1.5597
  255MOL0     H33624   7.449   3.849  11.035 -0.6484 -0.0244  0.8632
  255MOL0     H33625   7.359   3.976  11.245 -0.6355 -0.3552 -1.6471
  255MOL0     H33626   7.305   4.111  11.454 -1.5776  1.5650  1.2230
  255MOL0     H33627   7.335   4.226  11.312 -1.1505  1.4694  1.6957
  255MOL0     H33628   7.274   4.367  11.504 -0.4466 -0.5339 -3.3400
  255MOL0     H33629   7.431   4.388  11.447 -1.2217 -0.9624 -1.6518
  255MOL0     H33630   7.540   4.273  11.625  0.3337  1.1344 -0.6174
  255MOL0     H33631   7.396   4.192  11.684 -1.7208 -0.0692 -2.5758
  255MOL0     H33632   7.306   4.369  11.798 -2.3183  1.7804 -2.8886
  255MOL0     H33633   7.480   4.369  11.834 -0.3500  2.6273  0.7814
  255MOL0     H33634   7.404   4.603  11.794 -1.5028  0.5091 -0.2433
  255MOL0     H33635   7.379   4.546  11.622 -1.3888 -1.1322  0.7632
  255MOL0     H33636   7.588   4.490  11.591 -2.7720 -1.3415  0.4509
  255MOL0     H33637   7.637   4.512  11.768 -1.3216 -0.6270  1.0677
  255MOL0     H33638   7.552   4.732  11.566 -1.7498 -1.2585  0.6441
  255MOL0     H33639   7.569   4.762  11.741 -0.1801 -0.0152  0.3598
  255MOL0     H33640   7.798   4.716  11.749 -1.8333  1.0105  0.5270
  255MOL0     H33641   7.771   4.844  11.630  2.1050 -0.5289 -3.3070
  255MOL0     H33642   7.733   4.154  11.284 -0.9082  0.6820 -0.5414
  255MOL0     H33643   7.823   4.006  11.092  0.8057 -2.7540 -1.3869
  255MOL0     H33644   7.816   3.823  10.723  2.3151  0.4726 -1.8659
  255MOL0     H33645   7.959   3.683  10.566  3.7310 -1.4448  2.1272
  255MOL0     H33646   7.770   2.337   9.374  1.5247 -0.7506 -0.2039
  255MOL0     H33647   8.017   2.393   9.365  0.1923 -0.1902 -0.2689
  255MOL0     H33648   8.304   2.576   8.946  1.3195  1.4316 -2.0302
  255MOL0     H33649   8.546   2.578   8.906  3.2918  4.9518  0.5835
  255MOL0     H33650   8.713   2.418   8.957  0.1471  0.8368 -1.3302
  255MOL0     H33651   8.863   2.410   9.039 -0.6492 -0.4108  0.3340
  255MOL0     H33652   8.775   2.647   8.858 -0.5434  2.0730  2.1080
  255MOL0     H33653   8.917   2.643   8.966  0.4217 -0.2965 -0.4208
  255MOL0     H33654   9.037   2.491   8.836 -1.4920 -1.0507  0.9966
  255MOL0     H33655   8.984   2.610   8.721  0.2825  1.7456  0.5536
  255MOL0     H33656   8.952   2.379   8.637 -0.4872 -2.7469 -0.0613
  255MOL0     H33657   8.860   2.331   8.768  0.9052 -0.5172 -0.9729
  255MOL0     H33658   8.579   2.544   8.529 -0.9453 -3.8770 -0.2180
  255MOL0     H33659   8.620   2.585   9.328  0.0021  4.6346 -0.7590
  255MOL0     H33660   8.378   2.553   9.367 -0.3192  2.4184 -0.0373
  256MOL0     O33661   2.890   4.800   3.119  0.4713 -0.0800  0.6496
  256MOL0     C33662   2.989   4.731   3.092 -0.5061  0.0040  0.4251
  256MOL0     O33663   2.995   4.596   3.095  0.6790  0.4583  0.2365
  256MOL0     C33664   2.879   4.527   3.113 -0.5759 -0.5844 -1.0672
  256MOL0     C33665   2.804   4.536   3.232  0.4457  0.4186  0.5802
  256MOL0     C33666   2.685   4.463   3.247 -0.3303 -0.1115  0.3379
  256MOL0     C33667   2.642   4.364   3.166 -0.3486  0.0359 -0.7429
  256MOL0     O33668   2.526   4.294   3.201 -0.2925 -0.1819  0.7456
  256MOL0     C33669   2.495   4.165   3.149 -0.3789  0.1080  0.3214
  256MOL0     C33670   2.342   4.115   3.177 -0.9716 -0.2593 -0.1782
  256MOL0     C33671   2.306   3.989   3.094  1.0998 -0.2593  0.0080
  256MOL0     C33672   2.163   3.945   3.132 -0.2489  0.4192  0.6949
  256MOL0     C33673   2.120   3.843   3.017 -0.5772  0.3841 -0.5726
  256MOL0     C33674   1.971   3.796   3.029 -0.3832 -0.2491 -0.0764
  256MOL0     C33675   1.944   3.693   2.919 -0.1282  0.0742 -0.3091
  256MOL0     C33676   1.825   3.601   2.931  0.3925 -1.0368 -0.1665
  256MOL0     N33677   1.698   3.678   2.933  0.2407  0.9528 -0.4779
  256MOL0     C33678   1.604   3.677   2.831 -0.0339  0.9251  0.1490
  256MOL0     C33679   1.494   3.739   2.887  0.9979 -0.2814  0.9018
  256MOL0     C33680   1.368   3.750   2.811  0.1808 -0.1061 -1.0213
  256MOL0     C33681   1.247   3.781   2.893  0.1716 -0.2350  0.0087
  256MOL0     C33682   1.111   3.738   2.851 -0.2238  0.4613 -0.2601
  256MOL0     C33683   0.995   3.782   2.948 -0.5980 -0.2510  0.5029
  256MOL0     O33684   0.881   3.815   2.870  0.1568  0.1043  0.2079
  256MOL0     C33685   0.765   3.834   2.939  0.0984  0.2662 -0.4838
  256MOL0     C33686   0.654   3.862   2.862 -1.5001  0.1167 -0.3577
  256MOL0     C33687   0.527   3.872   2.923 -1.0151 -0.0318  0.4119
  256MOL0     C33688   0.512   3.843   3.055 -0.0973 -0.4470  0.4760
  256MOL0     C33689   0.376   3.834   3.116  0.0353  0.5582  0.7174
  256MOL0     O33690   0.272   3.859   3.031  0.9973 -0.2476 -0.3509
  256MOL0     C33691   0.143   3.861   3.086  1.2033 -0.7113 -0.4166
  256MOL0     C33692   0.039   3.839   2.996  0.0590  0.4345 -0.7417
  256MOL0     C33693  -0.101   3.856   3.023 -0.7124  0.5632 -0.7947
  256MOL0     C33694  -0.141   3.877   3.153 -0.3222 -0.3201 -0.4889
  256MOL0     O33695  -0.277   3.876   3.174 -0.5317 -0.2814 -0.0975
  256MOL0     C33696  -0.339   3.860   3.300  0.0796 -0.9643 -0.5609
  256MOL0     C33697  -0.493   3.832   3.284 -0.1783 -0.1397 -0.7995
  256MOL0     C33698  -0.553   3.957   3.218  0.2564  0.5167 -0.9830
  256MOL0     C33699  -0.702   3.944   3.181  0.0954 -0.4776  0.1412
  256MOL0     C33700  -0.745   4.071   3.102 -0.3341 -0.0316  0.3189
  256MOL0     C33701  -0.887   4.067   3.052  0.4499 -0.3524  0.5218
  256MOL0     C33702  -0.985   4.044   3.169  0.1838  0.3900  0.6546
  256MOL0     C33703  -1.126   4.051   3.128  0.2588 -0.2432 -0.1672
  256MOL0    Cl33704  -1.181   4.226   3.110  0.1846 -0.4082  0.2767
  256MOL0     C33705  -0.048   3.892   3.259  0.5112  0.1546  1.0118
  256MOL0     C33706   0.092   3.894   3.220 -0.1297  0.2167 -0.6612
  256MOL0     O33707   0.365   3.798   3.234  0.0396  0.6989 -0.0098
  256MOL0     C33708   0.619   3.837   3.131 -0.8306  0.8426  0.4618
  256MOL0     C33709   0.744   3.833   3.075  0.3841 -0.2561  0.2906
  256MOL0     N33710   1.520   3.779   3.010  0.3408  0.3739  0.0845
  256MOL0     N33711   1.643   3.741   3.036 -0.1529  0.9032 -0.0468
  256MOL0     C33712   2.729   4.344   3.050 -0.3977 -0.2658 -0.2463
  256MOL0     C33713   2.849   4.418   3.028  0.4171 -0.6391  1.1241
  256MOL0     C33714   3.112   4.808   3.039  0.3043 -0.9087 -0.5148
  256MOL0     C33715   3.111   4.951   3.034  0.1945  0.0814  0.3092
  256MOL0     C33716   3.219   5.017   2.978  1.1718 -0.3323  0.9864
  256MOL0     C33717   3.332   4.952   2.938  0.3298 -0.0348 -0.0604
  256MOL0     O33718   3.445   5.018   2.905 -0.4797  0.1164  0.2972
  256MOL0     C33719   3.435   5.144   2.830 -0.7042 -0.3396  0.0067
  256MOL0     C33720   3.569   5.195   2.781 -0.6029 -0.4913 -0.3966
  256MOL0     C33721   3.549   5.342   2.742 -0.6096  0.1664  0.3057
  256MOL0     C33722   3.679   5.404   2.666 -0.3115  0.1286  1.1289
  256MOL0     C33723   3.721   5.336   2.541 -0.6607  0.6482 -0.3489
  256MOL0     C33724   3.744   5.301   2.422  0.6426 -0.2079 -1.0594
  256MOL0     C33725   3.335   4.815   2.954  0.5831 -0.4779 -0.0922
  256MOL0     C33726   3.229   4.743   2.997 -0.1819 -1.3095 -0.3922
  256MOL0     H33727   2.824   4.622   3.296 -2.0663  1.4057  0.1784
  256MOL0     H33728   2.631   4.471   3.341 -0.7601 -2.1502  0.3205
  256MOL0     H33729   2.567   4.088   3.181  0.4495  0.5528 -0.4246
  256MOL0     H33730   2.510   4.165   3.040 -1.0406  0.9768  0.2201
  256MOL0     H33731   2.265   4.191   3.160 -2.0701 -1.9084 -3.4924
  256MOL0     H33732   2.337   4.091   3.284 -1.3420 -2.5468 -0.6610
  256MOL0     H33733   2.380   3.913   3.121  1.8922  0.1900 -0.8297
  256MOL0     H33734   2.311   4.011   2.987  0.8487  0.4296  0.1303
  256MOL0     H33735   2.170   3.904   3.233  0.2162  3.1819  1.8667
  256MOL0     H33736   2.104   4.037   3.130  2.3369  2.2055 -1.3783
  256MOL0     H33737   2.190   3.760   3.031  0.5515  1.3417 -0.3509
  256MOL0     H33738   2.132   3.887   2.918 -3.1318 -0.1528 -1.1857
  256MOL0     H33739   1.900   3.879   3.026 -0.5667 -0.4434 -1.6298
  256MOL0     H33740   1.961   3.749   3.128 -0.7318  2.8441  1.5100
  256MOL0     H33741   1.949   3.748   2.825  3.0023  1.5762  0.5910
  256MOL0     H33742   2.024   3.619   2.921 -0.7347 -0.5745  1.1280
  256MOL0     H33743   1.836   3.532   3.015 -2.4857 -0.7520  0.5425
  256MOL0     H33744   1.815   3.527   2.852 -3.5772 -5.0812  3.6066
  256MOL0     H33745   1.608   3.634   2.731  1.1724 -0.6898  0.8354
  256MOL0     H33746   1.356   3.650   2.767 -0.7281  0.5976 -2.4633
  256MOL0     H33747   1.379   3.818   2.727 -0.0329 -0.7879 -1.6095
  256MOL0     H33748   1.241   3.890   2.901 -1.5135 -0.3198  0.3156
  256MOL0     H33749   1.267   3.750   2.996 -1.4905 -1.5754 -0.0222
  256MOL0     H33750   1.096   3.779   2.751 -2.0569  0.8642  0.1465
  256MOL0     H33751   1.100   3.629   2.844 -4.1766  0.5485  2.0975
  256MOL0     H33752   1.037   3.862   3.010  2.3067 -1.6512  0.5389
  256MOL0     H33753   0.959   3.701   3.012 -2.1000  2.2373  2.9888
  256MOL0     H33754   0.666   3.866   2.754 -2.9006  0.8785 -0.5031
  256MOL0     H33755   0.436   3.892   2.866  0.1752  0.7574 -1.3130
  256MOL0     H33756   0.073   3.827   2.894  1.8149  0.7547 -0.2198
  256MOL0     H33757  -0.169   3.845   2.940  0.0291 -0.3935 -1.2980
  256MOL0     H33758  -0.315   3.950   3.357  2.8330 -2.0608  0.1386
  256MOL0     H33759  -0.283   3.781   3.350  2.0592  1.0851  0.6353
  256MOL0     H33760  -0.540   3.819   3.382 -0.2299  1.6764 -0.5343
  256MOL0     H33761  -0.510   3.745   3.221 -0.0645  0.9627 -2.4284
  256MOL0     H33762  -0.510   3.959   3.118 -1.0617 -1.6158 -1.6636
  256MOL0     H33763  -0.537   4.050   3.274 -1.6261 -0.4308  1.3299
  256MOL0     H33764  -0.713   3.860   3.112  0.6819  0.0109 -0.5662
  256MOL0     H33765  -0.768   3.925   3.266 -0.4226  0.5315 -0.0271
  256MOL0     H33766  -0.667   4.075   3.026  1.1046  1.0893  1.7731
  256MOL0     H33767  -0.731   4.161   3.163  0.6465  1.0057 -1.3607
  256MOL0     H33768  -0.881   3.991   2.973 -0.4557  0.0826  0.0304
  256MOL0     H33769  -0.905   4.163   3.003  1.9344  0.3996  1.3541
  256MOL0     H33770  -0.984   3.941   3.207 -1.1103 -0.6419 -1.8463
  256MOL0     H33771  -0.958   4.117   3.245  3.0097  2.4856 -2.1185
  256MOL0     H33772  -1.187   4.000   3.203 -2.4084  2.1397 -0.5404
  256MOL0     H33773  -1.150   3.991   3.039 -0.9126  0.7794 -0.5858
  256MOL0     H33774  -0.094   3.902   3.357 -0.3954 -4.6728  1.3504
  256MOL0     H33775   0.156   3.921   3.302 -0.4521 -0.9753  0.0138
  256MOL0     H33776   0.618   3.827   3.239  2.4928  1.2780  0.6305
  256MOL0     H33777   0.827   3.826   3.144 -0.1210  0.0533  0.9410
  256MOL0     H33778   2.693   4.259   2.993 -1.8981 -0.3742  0.8334
  256MOL0     H33779   2.889   4.400   2.929  0.4224 -0.4798  1.0985
  256MOL0     H33780   3.015   4.998   3.052  0.0370  0.4204 -1.2614
  256MOL0     H33781   3.213   5.125   2.987  0.5546 -0.4159  1.6465
  256MOL0     H33782   3.394   5.214   2.903  1.4554  0.5551  0.4547
  256MOL0     H33783   3.368   5.123   2.746  0.6144  0.5096 -1.3148
  256MOL0     H33784   3.648   5.185   2.855 -1.8971  2.8207  1.6211
  256MOL0     H33785   3.597   5.135   2.693  2.0445 -1.4461  0.9835
  256MOL0     H33786   3.522   5.413   2.821 -0.4007 -0.6750  1.1449
  256MOL0     H33787   3.460   5.347   2.679  0.8395  1.2581 -1.7835
  256MOL0     H33788   3.653   5.505   2.634 -0.5003 -1.0902 -3.1574
  256MOL0     H33789   3.764   5.416   2.734  0.4240 -0.8107  0.4191
  256MOL0     H33790   3.782   5.267   2.328  1.1807  2.9444 -2.0933
  256MOL0     H33791   3.426   4.762   2.929  0.2818 -0.8447 -0.4282
  256MOL0     H33792   3.243   4.636   3.011  1.5363 -1.0747 -0.1770
  257MOL0     O33793   4.269   2.035   8.340  0.0698  0.4042 -0.3908
  257MOL0     C33794   4.243   2.065   8.460  0.4216  0.4348  0.8047
  257MOL0     O33795   4.332   2.088   8.560  0.2145  0.5777 -0.3511
  257MOL0     C33796   4.467   2.059   8.542  0.3250  0.3558 -0.4413
  257MOL0     C33797   4.511   1.948   8.476  0.0631  0.0321 -0.6631
  257MOL0     C33798   4.648   1.930   8.459 -0.0553 -0.8493  0.0808
  257MOL0     C33799   4.741   2.029   8.497  0.1152  0.9796  0.1637
  257MOL0     O33800   4.866   1.991   8.464 -0.0930  0.0582  0.2407
  257MOL0     C33801   4.977   2.064   8.522 -0.8382  0.7280  0.0836
  257MOL0     C33802   5.098   2.036   8.424  0.2053  0.5428 -0.6607
  257MOL0     C33803   5.219   2.091   8.475 -0.5159  0.9644 -0.6504
  257MOL0     C33804   5.351   2.046   8.393  0.5322  0.5390 -0.3141
  257MOL0     C33805   5.336   2.081   8.240  0.6295  0.4235  0.4588
  257MOL0     C33806   5.467   2.029   8.169 -0.2357 -0.1036  1.0262
  257MOL0     C33807   5.491   2.062   8.020  0.1103  0.5942  0.0016
  257MOL0     C33808   5.391   1.996   7.923 -0.5134 -0.0981  0.5719
  257MOL0     N33809   5.434   2.027   7.781 -0.0470  0.5078  0.2163
  257MOL0     C33810   5.359   1.982   7.678  0.7906 -0.6015  0.6156
  257MOL0     C33811   5.418   2.032   7.568 -0.1507  0.7630 -0.8977
  257MOL0     C33812   5.378   2.009   7.425 -0.0556  0.4815  0.2506
  257MOL0     C33813   5.251   2.069   7.366 -0.7943  0.0299 -0.1667
  257MOL0     C33814   5.241   2.039   7.223  0.2808 -0.2146 -0.5808
  257MOL0     C33815   5.112   2.103   7.171 -0.7811 -0.0704  1.7991
  257MOL0     O33816   5.100   2.100   7.026  0.4187  0.1251 -0.1246
  257MOL0     C33817   5.171   2.184   6.941  0.3679  0.1404 -0.2609
  257MOL0     C33818   5.275   2.273   6.989  0.5942 -0.3091 -0.1130
  257MOL0     C33819   5.329   2.364   6.899 -0.1020 -0.0215 -0.6765
  257MOL0     C33820   5.296   2.370   6.765 -0.2680 -0.3180  0.7179
  257MOL0     C33821   5.373   2.469   6.682  0.1836  0.3414  0.4651
  257MOL0     O33822   5.342   2.490   6.554 -0.0864  0.1770 -0.8142
  257MOL0     C33823   5.404   2.603   6.498  0.5986 -0.2403 -0.1290
  257MOL0     C33824   5.385   2.734   6.540  0.0842 -0.0578 -0.7487
  257MOL0     C33825   5.437   2.830   6.450  0.3358  0.0366 -0.9209
  257MOL0     C33826   5.505   2.804   6.329 -1.0894 -0.3323 -0.5354
  257MOL0     O33827   5.554   2.900   6.248  0.2885  0.3867  0.5274
  257MOL0     C33828   5.687   2.948   6.269 -0.3720 -0.5727 -1.2360
  257MOL0     C33829   5.686   3.080   6.340 -0.0080  0.0166 -0.2882
  257MOL0     C33830   5.542   3.148   6.332  0.3786 -0.6948 -0.0129
  257MOL0     C33831   5.553   3.305   6.365 -0.2774  0.2639 -0.1531
  257MOL0     C33832   5.616   3.381   6.246 -0.5558  0.2198  0.0745
  257MOL0     C33833   5.522   3.410   6.133  1.0765  0.1416  1.4271
  257MOL0     C33834   5.589   3.473   6.007  0.3359 -0.9405 -1.2631
  257MOL0     C33835   5.528   3.416   5.876 -0.4531  0.6094 -0.3232
  257MOL0    Cl33836   5.629   3.478   5.750  0.2841 -0.2182  0.1037
  257MOL0     C33837   5.518   2.672   6.290  0.9656  0.3191 -0.3004
  257MOL0     C33838   5.465   2.575   6.375  0.3157 -0.9367 -0.5789
  257MOL0     O33839   5.467   2.523   6.741 -0.0512  0.1332  0.9930
  257MOL0     C33840   5.187   2.296   6.722 -0.5733  0.1157 -0.2230
  257MOL0     C33841   5.123   2.204   6.812 -0.1143  0.2373  0.6090
  257MOL0     N33842   5.522   2.112   7.610  0.1594 -0.0020 -0.7707
  257MOL0     N33843   5.517   2.122   7.733  0.1486  0.4194  0.1591
  257MOL0     C33844   4.696   2.145   8.568  0.5514 -0.7724 -0.3150
  257MOL0     C33845   4.555   2.160   8.585  0.2880 -0.4156 -0.0363
  257MOL0     C33846   4.104   2.089   8.502 -0.1614 -0.6023 -0.2043
  257MOL0     C33847   3.994   2.068   8.419 -0.1683  0.2398  0.3720
  257MOL0     C33848   3.873   2.108   8.460  0.9837  0.5029 -1.0552
  257MOL0     C33849   3.845   2.173   8.581 -0.3957 -0.0927 -0.5589
  257MOL0     O33850   3.717   2.186   8.618  0.5308 -0.5083  0.8545
  257MOL0     C33851   3.655   2.079   8.674 -0.8910 -0.6362 -0.1237
  257MOL0     C33852   3.533   2.035   8.595 -1.1728 -0.0668 -0.1891
  257MOL0     C33853   3.414   2.125   8.606 -0.1932 -0.5772  0.5094
  257MOL0     C33854   3.301   2.085   8.699 -0.0224 -0.7368 -0.6355
  257MOL0     C33855   3.188   2.176   8.699  0.1195 -0.3184  0.0425
  257MOL0     C33856   3.094   2.253   8.683  0.1093  0.2471 -0.6900
  257MOL0     C33857   3.953   2.190   8.674  0.2716 -0.3244  0.3609
  257MOL0     C33858   4.084   2.145   8.634 -0.0304 -0.3576  0.1622
  257MOL0     H33859   4.437   1.873   8.452 -2.1103  1.4617  1.1305
  257MOL0     H33860   4.672   1.829   8.426 -2.1906 -1.9677  1.6851
  257MOL0     H33861   5.004   2.047   8.627 -0.3162  2.4594  0.2471
  257MOL0     H33862   4.966   2.172   8.509 -1.2859  0.7306  0.4706
  257MOL0     H33863   5.079   2.075   8.324 -0.2519  4.3215  0.7331
  257MOL0     H33864   5.115   1.928   8.422  1.9235  0.7770 -0.4427
  257MOL0     H33865   5.236   2.045   8.573 -1.4979 -2.1612 -1.8286
  257MOL0     H33866   5.209   2.199   8.492 -2.5771  0.3915  2.7781
  257MOL0     H33867   5.440   2.080   8.447  0.3113 -1.3919  1.4061
  257MOL0     H33868   5.358   1.937   8.405 -0.0725  0.5901  0.6264
  257MOL0     H33869   5.307   2.186   8.226 -2.7409 -0.3796  0.5427
  257MOL0     H33870   5.257   2.016   8.201  3.1021 -1.6532 -1.4858
  257MOL0     H33871   5.484   1.923   8.190  0.4512 -0.3059 -0.4041
  257MOL0     H33872   5.554   2.072   8.219  0.9858 -0.7285 -0.4813
  257MOL0     H33873   5.490   2.171   8.015  0.0884  0.8340  3.2152
  257MOL0     H33874   5.593   2.024   8.002 -0.6543 -0.3806 -2.7475
  257MOL0     H33875   5.292   2.036   7.943 -0.7405 -0.0683 -0.5389
  257MOL0     H33876   5.390   1.887   7.935 -1.8387 -0.3227 -1.2216
  257MOL0     H33877   5.279   1.909   7.685 -0.1289  0.5232  3.1436
  257MOL0     H33878   5.376   1.901   7.407 -0.6228  0.2564  1.5289
  257MOL0     H33879   5.459   2.055   7.368 -0.2998  2.3280  1.3127
  257MOL0     H33880   5.263   2.176   7.386  2.0431  0.3056 -2.7526
  257MOL0     H33881   5.160   2.031   7.414 -1.6426  0.5284 -1.3304
  257MOL0     H33882   5.333   2.066   7.170  0.6805 -0.7059 -0.1484
  257MOL0     H33883   5.236   1.931   7.205 -1.8524 -0.0835 -1.0242
  257MOL0     H33884   5.089   2.204   7.206 -1.4393  0.8114 -0.9461
  257MOL0     H33885   5.028   2.046   7.212 -0.9771 -1.9050 -0.8743
  257MOL0     H33886   5.297   2.289   7.094 -1.2592  1.6421  0.0645
  257MOL0     H33887   5.395   2.437   6.944  0.5821 -0.2008 -1.3589
  257MOL0     H33888   5.344   2.768   6.635  0.9391  1.3666 -0.8704
  257MOL0     H33889   5.440   2.934   6.482  1.6880 -0.3694  0.3636
  257MOL0     H33890   5.741   2.962   6.175 -0.6887  1.5488 -1.1522
  257MOL0     H33891   5.745   2.874   6.324 -2.7417 -2.6978 -1.3732
  257MOL0     H33892   5.768   3.139   6.297 -1.0657  0.8558 -1.2101
  257MOL0     H33893   5.715   3.058   6.443 -1.1643 -2.4155 -0.4137
  257MOL0     H33894   5.490   3.107   6.418  1.3851  0.1737  1.0426
  257MOL0     H33895   5.502   3.126   6.233 -2.0728 -1.7764  1.1497
  257MOL0     H33896   5.459   3.352   6.394  1.1494  1.9079  2.1928
  257MOL0     H33897   5.621   3.310   6.450 -1.0716 -0.9505  0.5791
  257MOL0     H33898   5.693   3.314   6.207  0.4477  1.5886 -0.3662
  257MOL0     H33899   5.656   3.474   6.289 -0.0830  0.0481  0.0052
  257MOL0     H33900   5.443   3.479   6.164  0.1918 -0.4781  0.5855
  257MOL0     H33901   5.477   3.316   6.104 -0.9923  0.9731  1.7972
  257MOL0     H33902   5.576   3.581   6.016  1.8643 -0.9063  1.6425
  257MOL0     H33903   5.697   3.460   6.009  0.2391 -1.7119 -0.9409
  257MOL0     H33904   5.427   3.455   5.863 -1.8239 -2.3511  0.5419
  257MOL0     H33905   5.517   3.307   5.876 -0.5780  0.4299  4.4846
  257MOL0     H33906   5.576   2.650   6.201  2.1869 -0.5638  0.6720
  257MOL0     H33907   5.494   2.481   6.330  1.1483  0.1052 -2.3450
  257MOL0     H33908   5.165   2.296   6.616 -0.4595 -0.0982 -0.2485
  257MOL0     H33909   5.032   2.148   6.794 -1.2767  2.8547 -2.8746
  257MOL0     H33910   4.769   2.217   8.603 -0.4842 -1.1270  2.8807
  257MOL0     H33911   4.504   2.245   8.628 -1.0530 -1.3200  0.2436
  257MOL0     H33912   4.000   2.024   8.320 -1.9956 -1.9078  1.1199
  257MOL0     H33913   3.789   2.092   8.393 -1.0441 -2.1824  1.8324
  257MOL0     H33914   3.618   2.122   8.768 -2.6360  0.9100 -1.4499
  257MOL0     H33915   3.723   1.993   8.680 -0.3278 -0.1251  1.5564
  257MOL0     H33916   3.562   2.032   8.489 -1.3401  0.7336 -0.2598
  257MOL0     H33917   3.501   1.934   8.621 -2.3894  0.4713  0.4629
  257MOL0     H33918   3.383   2.146   8.503  1.2878 -0.8247 -0.0121
  257MOL0     H33919   3.446   2.224   8.640 -4.3957  1.5150 -0.9033
  257MOL0     H33920   3.264   1.985   8.673 -1.3630 -0.0849 -1.3875
  257MOL0     H33921   3.338   2.081   8.801 -0.5150  3.0936 -0.1481
  257MOL0     H33922   3.005   2.309   8.663 -0.9673 -2.0466 -2.8760
  257MOL0     H33923   3.926   2.229   8.771 -2.1814 -1.5260  0.2372
  257MOL0     H33924   4.163   2.165   8.706 -0.6680 -2.3285  1.4945
  258MOL0     O33925   3.349   2.184   9.972 -1.0136  1.2732 -0.1441
  258MOL0     C33926   3.383   2.268  10.053 -1.1524 -0.0190 -0.1782
  258MOL0     O33927   3.307   2.374  10.093  0.2541 -0.3744 -0.4221
  258MOL0     C33928   3.174   2.379  10.060  0.6196 -0.4463 -0.2876
  258MOL0     C33929   3.138   2.392   9.923 -0.0023  0.3462 -0.0883
  258MOL0     C33930   3.003   2.421   9.897  0.3889  0.2237 -0.3170
  258MOL0     C33931   2.901   2.429  10.000 -1.0536  0.0028 -0.7328
  258MOL0     O33932   2.778   2.460   9.973  0.0999 -0.6787 -0.0134
  258MOL0     C33933   2.710   2.340   9.935 -0.1598  0.3379 -0.2615
  258MOL0     C33934   2.653   2.259  10.044 -0.3516 -0.3901  0.1767
  258MOL0     C33935   2.548   2.318  10.144 -0.2318  0.2729 -0.5753
  258MOL0     C33936   2.470   2.446  10.108  0.0632 -0.5656 -0.3241
  258MOL0     C33937   2.378   2.489  10.221  0.0179 -0.6143 -0.1487
  258MOL0     C33938   2.243   2.555  10.178 -0.0890  0.1602 -0.0619
  258MOL0     C33939   2.137   2.551  10.294 -0.4144  0.9814  0.2201
  258MOL0     C33940   1.994   2.573  10.252 -0.7813  0.1571  0.1084
  258MOL0     N33941   1.905   2.572  10.371  0.7184  0.4097  0.6032
  258MOL0     C33942   1.843   2.690  10.400  0.3348 -0.0033 -0.4151
  258MOL0     C33943   1.763   2.656  10.499  0.3767 -0.3151 -0.3245
  258MOL0     C33944   1.696   2.772  10.572 -0.4237  0.0874 -0.1003
  258MOL0     C33945   1.554   2.821  10.519 -0.4247  0.3111 -0.7931
  258MOL0     C33946   1.564   2.871  10.377  0.2239  0.0765 -0.2800
  258MOL0     C33947   1.424   2.907  10.329 -0.0937  0.5197  0.4154
  258MOL0     O33948   1.375   3.036  10.391  0.1491  0.1104 -0.0810
  258MOL0     C33949   1.247   3.061  10.360 -0.1594  0.6912 -0.0600
  258MOL0     C33950   1.151   2.964  10.310  0.3694  0.3273  0.0119
  258MOL0     C33951   1.010   3.003  10.297  1.0017  0.0925 -0.2638
  258MOL0     C33952   0.969   3.127  10.351 -0.8498  1.0553  0.3670
  258MOL0     C33953   0.833   3.176  10.340  0.3057  0.3265 -0.1788
  258MOL0     O33954   0.754   3.100  10.265  0.3423 -0.3406 -0.3350
  258MOL0     C33955   0.613   3.106  10.268 -0.4109 -0.4672 -0.2427
  258MOL0     C33956   0.541   3.067  10.152 -0.2031  0.5668  0.0301
  258MOL0     C33957   0.395   3.071  10.150 -0.4772  0.5898  0.7150
  258MOL0     C33958   0.316   3.122  10.247 -0.2907  0.1422 -0.1661
  258MOL0     O33959   0.179   3.139  10.219 -0.2600 -0.1429  0.1201
  258MOL0     C33960   0.101   3.160  10.340  0.3780  0.2313 -0.6862
  258MOL0     C33961  -0.046   3.152  10.311  0.8142  0.8216  0.5767
  258MOL0     C33962  -0.136   3.210  10.423 -0.0004  0.6368  0.1933
  258MOL0     C33963  -0.291   3.176  10.402 -0.1630 -0.9301 -0.0040
  258MOL0     C33964  -0.359   3.188  10.539  0.8496 -0.5029 -0.3125
  258MOL0     C33965  -0.388   3.334  10.583  0.4683  0.4312 -0.5396
  258MOL0     C33966  -0.498   3.401  10.496 -0.1238 -0.3517  0.7345
  258MOL0     C33967  -0.522   3.545  10.536  0.5636 -0.0228 -0.4594
  258MOL0    Cl33968  -0.586   3.536  10.708  0.1219 -0.2130  0.2622
  258MOL0     C33969   0.390   3.157  10.371 -1.7251  0.0001  0.1045
  258MOL0     C33970   0.532   3.151  10.379  0.1255  0.5408  0.1245
  258MOL0     O33971   0.803   3.284  10.396  0.1834 -0.1113  0.4012
  258MOL0     C33972   1.064   3.215  10.393  0.9775  0.5047 -0.0766
  258MOL0     C33973   1.198   3.186  10.403  0.5454 -0.5524  0.6320
  258MOL0     N33974   1.777   2.517  10.530  0.1951  0.1827  0.1317
  258MOL0     N33975   1.860   2.468  10.446  0.1306  0.0153 -0.1418
  258MOL0     C33976   2.943   2.407  10.130  0.2964  0.4774  0.7723
  258MOL0     C33977   3.081   2.390  10.162  0.2036  0.2768 -0.4539
  258MOL0     C33978   3.532   2.277  10.089 -0.5918 -0.4185  0.5133
  258MOL0     C33979   3.584   2.378  10.172  0.1715  0.2678  0.4508
  258MOL0     C33980   3.715   2.393  10.199  0.2508 -0.4771 -0.3973
  258MOL0     C33981   3.811   2.305  10.149  1.1317 -0.1145  0.2439
  258MOL0     O33982   3.938   2.340  10.179 -0.2260  0.2069 -0.0282
  258MOL0     C33983   4.048   2.265  10.107 -0.3784  0.6564  0.0836
  258MOL0     C33984   4.182   2.302  10.159 -0.9994 -0.1966  0.1895
  258MOL0     C33985   4.231   2.212  10.277  0.5123  1.4439  0.1019
  258MOL0     C33986   4.356   2.259  10.355 -0.3527 -0.3299 -0.3957
  258MOL0     C33987   4.337   2.393  10.404 -0.7079  0.0158 -0.6444
  258MOL0     C33988   4.322   2.504  10.446  0.2066  0.0145  0.6964
  258MOL0     C33989   3.769   2.208  10.053  1.0498  0.3493  0.0462
  258MOL0     C33990   3.629   2.195  10.017  0.8083 -1.3477 -1.3703
  258MOL0     H33991   3.207   2.383   9.840 -1.2355 -1.4359 -0.9816
  258MOL0     H33992   2.967   2.438   9.796  1.6697 -0.8969 -0.9857
  258MOL0     H33993   2.783   2.276   9.884  0.4283  1.1341 -0.4484
  258MOL0     H33994   2.634   2.367   9.861 -1.1922  0.4403  0.8220
  258MOL0     H33995   2.726   2.195  10.096  0.0061 -1.1630 -1.2233
  258MOL0     H33996   2.589   2.188   9.992 -2.5231  0.0159  2.1558
  258MOL0     H33997   2.608   2.338  10.233 -1.1903  1.9662 -0.2731
  258MOL0     H33998   2.475   2.239  10.165  0.7852 -0.5074  0.1374
  258MOL0     H33999   2.538   2.530  10.092  0.2648 -0.3604  1.4193
  258MOL0     H34000   2.417   2.434  10.013 -3.0586 -0.9774  1.3368
  258MOL0     H34001   2.432   2.546  10.298  0.0654  2.6261 -2.3647
  258MOL0     H34002   2.354   2.399  10.279  0.6789 -0.9884 -0.4519
  258MOL0     H34003   2.211   2.506  10.086  1.2232  0.8484 -0.9187
  258MOL0     H34004   2.270   2.658  10.150  0.2303  0.3866  1.0499
  258MOL0     H34005   2.150   2.456  10.346 -0.3913  0.4252 -0.7902
  258MOL0     H34006   2.155   2.631  10.367 -0.8889  0.8686  0.4701
  258MOL0     H34007   1.967   2.486  10.192  1.4677 -1.0308  0.7285
  258MOL0     H34008   1.984   2.664  10.192  0.2708  0.0250 -0.2859
  258MOL0     H34009   1.851   2.789  10.354 -0.7003  1.0131  1.4800
  258MOL0     H34010   1.767   2.855  10.571 -2.7895  2.2522  0.0930
  258MOL0     H34011   1.669   2.757  10.677 -4.8221  1.1830 -0.8680
  258MOL0     H34012   1.506   2.898  10.580 -1.7047  0.4404 -1.9046
  258MOL0     H34013   1.494   2.729  10.523  0.7316 -0.5293 -1.8927
  258MOL0     H34014   1.624   2.959  10.356 -0.1947  0.2307 -0.8488
  258MOL0     H34015   1.604   2.784  10.324  2.4112  0.5056  0.5726
  258MOL0     H34016   1.370   2.813  10.342  3.1021 -1.3085  1.6144
  258MOL0     H34017   1.432   2.917  10.221  0.6365 -0.0578  0.4068
  258MOL0     H34018   1.166   2.858  10.291 -2.7784  0.0502 -1.5915
  258MOL0     H34019   0.944   2.931  10.250  1.9494 -0.0129 -1.4767
  258MOL0     H34020   0.589   3.020  10.067 -1.3159  0.3886 -0.5127
  258MOL0     H34021   0.355   3.033  10.056 -0.3378  0.4927  0.6938
  258MOL0     H34022   0.137   3.257  10.374  3.4680 -0.0248 -2.7055
  258MOL0     H34023   0.135   3.086  10.413  1.4469 -0.1543 -1.5299
  258MOL0     H34024  -0.056   3.044  10.299 -0.4573  0.9333  0.4442
  258MOL0     H34025  -0.075   3.195  10.214  3.9040 -0.0772 -0.8668
  258MOL0     H34026  -0.128   3.318  10.410 -1.7889  0.6428 -1.3779
  258MOL0     H34027  -0.110   3.180  10.524  1.4694  0.2491 -0.2758
  258MOL0     H34028  -0.337   3.248  10.333 -2.6720  0.0157  2.4889
  258MOL0     H34029  -0.300   3.075  10.361 -0.0112 -0.9334 -0.0317
  258MOL0     H34030  -0.296   3.134  10.611  0.7611 -0.3974 -0.1540
  258MOL0     H34031  -0.457   3.138  10.542  1.2505 -1.3823  2.9873
  258MOL0     H34032  -0.302   3.398  10.560  1.2143 -0.0160  0.9253
  258MOL0     H34033  -0.406   3.337  10.690  1.2870 -1.5512 -0.2992
  258MOL0     H34034  -0.472   3.407  10.390 -0.1251  1.0453  0.7927
  258MOL0     H34035  -0.581   3.330  10.490  1.5296 -2.5599  2.2068
  258MOL0     H34036  -0.596   3.596  10.474  1.2836  0.6283 -0.7989
  258MOL0     H34037  -0.430   3.602  10.521  1.6228 -2.1122 -2.5963
  258MOL0     H34038   0.340   3.192  10.461 -0.0910  1.0152  0.6612
  258MOL0     H34039   0.587   3.171  10.471  1.6268 -3.8231  0.4360
  258MOL0     H34040   1.038   3.316  10.421  1.1131  0.1105  1.5745
  258MOL0     H34041   1.268   3.261  10.440  0.1647  1.3284 -2.1391
  258MOL0     H34042   2.866   2.405  10.206  0.6701  2.8897  1.3252
  258MOL0     H34043   3.118   2.379  10.264  4.0527  0.0225 -1.7333
  258MOL0     H34044   3.515   2.447  10.219 -1.1054  0.6617 -1.8719
  258MOL0     H34045   3.744   2.471  10.270  2.5280 -1.5179 -0.1087
  258MOL0     H34046   4.058   2.303  10.005  3.3922  2.2771  0.8951
  258MOL0     H34047   4.042   2.156  10.112  1.9509  0.5234  1.1849
  258MOL0     H34048   4.245   2.287  10.071 -1.9481 -0.8915 -0.3867
  258MOL0     H34049   4.184   2.410  10.173 -0.9032 -0.2673  0.7659
  258MOL0     H34050   4.267   2.121  10.228  1.9076  2.1040 -0.1409
  258MOL0     H34051   4.149   2.186  10.344  1.5328 -2.7010  0.0175
  258MOL0     H34052   4.373   2.183  10.432 -3.4684  0.4966  1.2892
  258MOL0     H34053   4.438   2.269  10.283  1.8151  0.1391  1.9681
  258MOL0     H34054   4.293   2.607  10.461 -3.0834 -0.2799 -2.2134
  258MOL0     H34055   3.837   2.141  10.001 -0.9369 -1.1580 -0.6949
  258MOL0     H34056   3.594   2.126   9.941  0.5272 -1.3249 -1.2608
  259MOL0     O34057  10.854   9.096  10.639 -0.2263  0.2195  0.3950
  259MOL0     C34058  10.948   9.076  10.711  0.1460  0.4520 -0.5462
  259MOL0     O34059  10.959   9.119  10.844 -0.0958 -0.0487  0.2920
  259MOL0     C34060  10.877   9.210  10.905  0.0452  0.5418  0.7632
  259MOL0     C34061  10.848   9.328  10.843  0.3800 -0.1324 -0.5635
  259MOL0     C34062  10.767   9.428  10.895  1.0287  0.7534 -1.2078
  259MOL0     C34063  10.712   9.407  11.020  1.0701  0.4444  0.6203
  259MOL0     O34064  10.617   9.487  11.080  0.4980  0.6156 -1.4568
  259MOL0     C34065  10.547   9.586  11.004  0.7158  0.3453  0.2041
  259MOL0     C34066  10.418   9.646  11.067 -0.2702 -0.8833 -0.1977
  259MOL0     C34067  10.434   9.744  11.185 -0.1139  0.3755  0.6938
  259MOL0     C34068  10.306   9.789  11.254 -0.1296  0.5077 -0.6419
  259MOL0     C34069  10.198   9.671  11.294  0.9028 -0.7140  0.1328
  259MOL0     C34070  10.073   9.740  11.357 -0.3694  0.6911 -0.0823
  259MOL0     C34071   9.946   9.650  11.369 -0.5761  0.6105  0.3771
  259MOL0     C34072   9.865   9.644  11.243 -0.7604  0.0250 -1.0897
  259MOL0     N34073   9.745   9.563  11.255  0.6577 -0.3332 -0.4811
  259MOL0     C34074   9.746   9.423  11.254  0.4228 -0.7376  0.7615
  259MOL0     C34075   9.623   9.391  11.279  0.5986 -0.3644 -0.1603
  259MOL0     C34076   9.563   9.263  11.293 -0.3522  0.2881  0.4855
  259MOL0     C34077   9.555   9.199  11.430  0.1937 -0.2009 -0.3252
  259MOL0     C34078   9.703   9.147  11.479  1.4009  0.6219  0.4857
  259MOL0     C34079   9.700   9.007  11.549 -0.6968  0.3458 -1.0658
  259MOL0     O34080   9.829   8.969  11.604 -0.4545  0.1607 -0.7556
  259MOL0     C34081   9.930   8.942  11.519 -0.5161 -0.8789  1.1921
  259MOL0     C34082  10.059   8.950  11.577 -0.0794 -0.6284  0.4070
  259MOL0     C34083  10.178   8.929  11.499  0.3120  0.5142 -0.0633
  259MOL0     C34084  10.162   8.895  11.364 -0.2501  0.0133  0.0350
  259MOL0     C34085  10.281   8.861  11.281 -0.6995 -1.0490  0.3396
  259MOL0     O34086  10.267   8.867  11.138 -0.7213 -0.1737 -0.4540
  259MOL0     C34087  10.379   8.834  11.070  0.0046  1.1645 -0.0475
  259MOL0     C34088  10.372   8.704  11.007  0.0982  0.0102  0.0248
  259MOL0     C34089  10.460   8.665  10.910 -0.8058  0.5243  0.6349
  259MOL0     C34090  10.577   8.738  10.887 -0.1218 -0.4886 -0.3620
  259MOL0     O34091  10.684   8.703  10.806  0.0571 -0.8256 -0.7211
  259MOL0     C34092  10.675   8.593  10.715 -0.7740 -0.5335 -0.1063
  259MOL0     C34093  10.801   8.569  10.644 -0.4060  0.2662  0.3343
  259MOL0     C34094  10.903   8.542  10.750  1.1351  0.0945  0.5811
  259MOL0     C34095  11.037   8.515  10.685 -1.0770  0.0961  0.3884
  259MOL0     C34096  11.038   8.385  10.605  0.1327  0.2697 -0.4084
  259MOL0     C34097  11.182   8.366  10.548 -0.6885  0.8355  0.5100
  259MOL0     C34098  11.179   8.227  10.491 -0.7454  0.1938 -0.3484
  259MOL0     C34099  11.321   8.189  10.451  0.7247 -0.1471 -0.8346
  259MOL0    Cl34100  11.415   8.322  10.377 -0.0164  0.1152 -0.2555
  259MOL0     C34101  10.585   8.870  10.951 -0.6620 -0.0050 -0.9279
  259MOL0     C34102  10.487   8.914  11.046  0.6398  0.3940 -0.4348
  259MOL0     O34103  10.393   8.836  11.341 -0.2321 -0.1595 -0.4102
  259MOL0     C34104  10.042   8.880  11.312  1.1166  0.1449 -0.4854
  259MOL0     C34105   9.923   8.912  11.381 -0.4314  0.1324  0.3317
  259MOL0     N34106   9.558   9.510  11.309  0.2421  0.2698  0.0940
  259MOL0     N34107   9.630   9.614  11.301  1.0849 -0.4139 -0.1248
  259MOL0     C34108  10.745   9.297  11.094 -0.3112  1.0672 -0.1970
  259MOL0     C34109  10.830   9.197  11.036 -0.8382 -0.8547  0.5646
  259MOL0     C34110  11.057   8.992  10.655  0.2888 -0.5141 -0.4393
  259MOL0     C34111  11.053   8.946  10.527  0.1194 -0.1515 -0.2262
  259MOL0     C34112  11.152   8.866  10.461 -0.5288  0.0147  0.1371
  259MOL0     C34113  11.259   8.824  10.539  0.1417  0.1872 -0.0894
  259MOL0     O34114  11.376   8.758  10.510  0.3140  0.3863 -0.3014
  259MOL0     C34115  11.398   8.733  10.372  0.0158  0.6500  1.0123
  259MOL0     C34116  11.533   8.652  10.357 -0.2179 -0.1088 -0.4664
  259MOL0     C34117  11.650   8.743  10.422  0.2048 -0.0598 -0.7354
  259MOL0     C34118  11.678   8.703  10.572  1.1658 -0.3402  0.6277
  259MOL0     C34119  11.819   8.696  10.587  0.2300 -0.0344 -0.1547
  259MOL0     C34120  11.936   8.658  10.593  0.2005 -0.3736 -0.4280
  259MOL0     C34121  11.266   8.877  10.675 -0.6696  0.3512  0.6453
  259MOL0     C34122  11.165   8.949  10.733 -0.0738  0.0591  0.5950
  259MOL0     H34123  10.889   9.343  10.744 -3.0944 -1.1170 -2.3240
  259MOL0     H34124  10.754   9.517  10.835  0.3542 -0.0576 -2.3022
  259MOL0     H34125  10.532   9.536  10.908  1.7664 -0.8472  0.6378
  259MOL0     H34126  10.618   9.669  10.999  1.0937  0.0659  0.7634
  259MOL0     H34127  10.369   9.558  11.111 -1.9098  1.0420  2.1015
  259MOL0     H34128  10.343   9.682  10.996 -1.0216  0.6899  1.3083
  259MOL0     H34129  10.478   9.828  11.131  2.6418 -2.1051 -1.2990
  259MOL0     H34130  10.509   9.698  11.251  1.6983 -2.2172 -2.8472
  259MOL0     H34131  10.330   9.835  11.351 -1.8991  0.6793 -0.2545
  259MOL0     H34132  10.257   9.868  11.197  1.6944  3.0703  1.1202
  259MOL0     H34133  10.236   9.607  11.375  0.2799 -0.8392  0.3339
  259MOL0     H34134  10.179   9.610  11.206  0.2562 -0.0112 -0.2198
  259MOL0     H34135  10.047   9.833  11.304 -2.4238 -0.0962 -0.5568
  259MOL0     H34136  10.106   9.772  11.456 -0.3728  1.0961 -0.2111
  259MOL0     H34137   9.989   9.551  11.384  0.6419  0.7760 -1.6760
  259MOL0     H34138   9.883   9.676  11.455 -1.3167  0.5396 -0.1363
  259MOL0     H34139   9.926   9.601  11.163 -0.1325  2.3744 -1.9593
  259MOL0     H34140   9.828   9.743  11.214  0.3350  0.5380 -0.7849
  259MOL0     H34141   9.827   9.351  11.244 -0.0886 -1.3038  0.6734
  259MOL0     H34142   9.615   9.190  11.229  0.2961  1.5433 -0.4720
  259MOL0     H34143   9.460   9.270  11.258  0.2229 -0.8386 -1.5913
  259MOL0     H34144   9.476   9.125  11.424 -0.9608  0.8173  1.4155
  259MOL0     H34145   9.513   9.270  11.502 -0.8944 -1.2702  0.1169
  259MOL0     H34146   9.762   9.162  11.388 -0.9419 -1.5805 -1.5610
  259MOL0     H34147   9.738   9.218  11.554  0.4060  0.4786  1.0990
  259MOL0     H34148   9.672   8.925  11.482  2.4597 -2.9087  1.2699
  259MOL0     H34149   9.635   9.011  11.637 -2.6160  1.2152 -2.4402
  259MOL0     H34150  10.064   8.990  11.678  1.4539  0.0719  0.0962
  259MOL0     H34151  10.272   8.932  11.552  0.5365 -0.5118 -0.3742
  259MOL0     H34152  10.284   8.650  11.039 -0.4089 -2.0073 -4.0418
  259MOL0     H34153  10.437   8.572  10.859  0.1275  0.2930  0.6175
  259MOL0     H34154  10.604   8.616  10.635 -0.5860 -1.9015 -0.6987
  259MOL0     H34155  10.632   8.504  10.763 -0.7407 -0.9037 -0.7453
  259MOL0     H34156  10.819   8.661  10.588 -1.8544 -0.9361 -2.2934
  259MOL0     H34157  10.790   8.484  10.576  4.1684  0.1671 -0.6263
  259MOL0     H34158  10.890   8.455  10.815  1.0078 -1.7957 -1.8749
  259MOL0     H34159  10.920   8.626  10.818 -0.5452 -0.5211  1.8275
  259MOL0     H34160  11.065   8.608  10.633  3.5078 -0.7552  0.9496
  259MOL0     H34161  11.115   8.505  10.761 -1.0332  1.5890  0.5735
  259MOL0     H34162  10.957   8.376  10.532  0.1130 -0.3535 -0.3186
  259MOL0     H34163  11.009   8.303  10.671 -1.6985  0.1231 -1.3333
  259MOL0     H34164  11.252   8.363  10.632 -1.0705  1.1075  0.8446
  259MOL0     H34165  11.218   8.446  10.483 -2.4773  1.3612  0.1066
  259MOL0     H34166  11.136   8.148  10.553  0.1060 -1.1216 -1.3701
  259MOL0     H34167  11.109   8.225  10.407 -2.1599  1.2422  0.7585
  259MOL0     H34168  11.313   8.106  10.381 -2.0350 -1.0794  0.4462
  259MOL0     H34169  11.369   8.150  10.542 -0.3802 -1.6658 -0.8652
  259MOL0     H34170  10.678   8.925  10.943 -1.5475  2.0655  1.5652
  259MOL0     H34171  10.516   9.004  11.099  3.0067  0.3640 -1.5618
  259MOL0     H34172  10.035   8.868  11.204 -0.3734 -1.7571 -0.2298
  259MOL0     H34173   9.828   8.911  11.329 -0.5685  1.4506  0.5334
  259MOL0     H34174  10.705   9.290  11.194 -2.7701  1.5462 -1.0732
  259MOL0     H34175  10.871   9.113  11.091  0.4149 -0.0029  0.9749
  259MOL0     H34176  10.961   8.976  10.479  0.3802  2.2264  0.6135
  259MOL0     H34177  11.132   8.858  10.354  1.0525  2.2813 -0.4091
  259MOL0     H34178  11.403   8.827  10.315  2.9383 -1.0443 -1.8670
  259MOL0     H34179  11.319   8.675  10.324  2.6258 -0.0076 -3.0347
  259MOL0     H34180  11.537   8.550  10.395  2.2628 -0.7439 -2.1507
  259MOL0     H34181  11.555   8.628  10.252 -0.4381 -1.2818 -0.2572
  259MOL0     H34182  11.625   8.849  10.413 -1.3605 -0.2436  0.8596
  259MOL0     H34183  11.741   8.730  10.362  0.5394  3.6032 -1.2622
  259MOL0     H34184  11.644   8.788  10.631  2.8852  1.0243 -0.2246
  259MOL0     H34185  11.622   8.614  10.602 -4.0216  2.4024  0.1358
  259MOL0     H34186  12.039   8.629  10.589  1.1143  2.6670 -1.9052
  259MOL0     H34187  11.348   8.845  10.739 -1.0227  0.5465  1.1902
  259MOL0     H34188  11.157   8.975  10.838  1.2801 -3.6175  1.7684
  260MOL0     O34189   9.660   4.394   4.302 -0.3687  0.3552  0.0314
  260MOL0     C34190   9.714   4.382   4.412  0.2624  0.1095 -0.7009
  260MOL0     O34191   9.648   4.375   4.534 -0.1016  0.5976 -0.3243
  260MOL0     C34192   9.510   4.386   4.539 -0.0151  0.0938  0.0758
  260MOL0     C34193   9.446   4.493   4.472 -0.6034 -0.0271 -0.3040
  260MOL0     C34194   9.304   4.501   4.468 -0.8867  0.0128 -0.0584
  260MOL0     C34195   9.234   4.401   4.545 -0.1913  0.3622 -0.2522
  260MOL0     O34196   9.096   4.432   4.554  0.1614 -0.0906  0.3650
  260MOL0     C34197   9.008   4.323   4.577 -0.0000 -0.1497 -0.4790
  260MOL0     C34198   8.865   4.375   4.545  0.2722  0.0555 -0.1259
  260MOL0     C34199   8.751   4.284   4.590  0.6185 -0.5337  0.4494
  260MOL0     C34200   8.762   4.218   4.725 -0.0703 -0.8716  0.0125
  260MOL0     C34201   8.629   4.161   4.775 -0.4476 -0.7056  0.6366
  260MOL0     C34202   8.529   4.270   4.802 -0.1138 -0.4673 -0.1186
  260MOL0     C34203   8.398   4.202   4.842  0.0411  0.2946 -0.3675
  260MOL0     C34204   8.276   4.291   4.859 -0.9217 -0.1332 -0.4547
  260MOL0     N34205   8.144   4.224   4.846 -0.3740 -0.7887 -1.2785
  260MOL0     C34206   8.107   4.115   4.926 -0.5789 -1.4376 -0.3526
  260MOL0     C34207   7.976   4.099   4.895 -0.2521  0.4287  0.1482
  260MOL0     C34208   7.890   3.986   4.942  0.8189 -0.7062 -0.0295
  260MOL0     C34209   7.873   3.882   4.833 -0.1623  0.4056 -0.5192
  260MOL0     C34210   7.801   3.758   4.888 -0.6140  0.7773 -0.7480
  260MOL0     C34211   7.666   3.771   4.947  0.4901 -0.4283 -0.2786
  260MOL0     O34212   7.592   3.876   4.873  0.3109 -0.0366  0.1001
  260MOL0     C34213   7.472   3.907   4.922  1.3344  0.0216 -1.1122
  260MOL0     C34214   7.419   3.861   5.042  0.0517 -0.6171 -0.1109
  260MOL0     C34215   7.290   3.895   5.084 -0.4763  0.0380  0.8656
  260MOL0     C34216   7.207   3.962   5.003  0.2619 -0.7245  0.1465
  260MOL0     C34217   7.077   3.994   5.051  1.2270  0.4538 -0.2970
  260MOL0     O34218   6.991   4.054   4.956 -0.5701 -0.2665  0.0509
  260MOL0     C34219   6.854   4.059   4.973 -0.3814 -0.4134 -0.2351
  260MOL0     C34220   6.804   4.180   5.026  0.3272  0.2230  0.1110
  260MOL0     C34221   6.670   4.202   5.046  0.5807 -0.1008  0.0373
  260MOL0     C34222   6.582   4.099   5.016 -0.0237  0.3010 -0.1072
  260MOL0     O34223   6.448   4.110   5.036  0.4726 -0.7150 -0.4220
  260MOL0     C34224   6.371   4.125   4.915 -0.2340 -0.2252 -0.2534
  260MOL0     C34225   6.219   4.114   4.951  0.2840 -0.1697  0.5197
  260MOL0     C34226   6.181   4.190   5.083  0.0604  0.3853 -0.0102
  260MOL0     C34227   6.034   4.198   5.097 -0.1914  0.5539 -0.0126
  260MOL0     C34228   5.986   4.253   5.232  0.0566 -0.1425 -0.0491
  260MOL0     C34229   5.840   4.269   5.217  0.7066 -0.9785 -0.7447
  260MOL0     C34230   5.778   4.343   5.325 -0.0654 -0.3093  0.1169
  260MOL0     C34231   5.633   4.299   5.339 -0.0631 -0.3890  0.4023
  260MOL0    Cl34232   5.626   4.178   5.477 -0.4454  0.2660  0.0975
  260MOL0     C34233   6.630   3.971   4.972  0.6660  0.8902  0.6526
  260MOL0     C34234   6.762   3.956   4.941 -0.2625  0.2728 -0.5012
  260MOL0     O34235   7.051   3.992   5.173  0.5356 -0.1998 -0.0721
  260MOL0     C34236   7.257   4.010   4.876  0.4637  0.5819 -0.1910
  260MOL0     C34237   7.396   3.991   4.842  0.3343 -0.5904 -0.4724
  260MOL0     N34238   7.940   4.198   4.814 -0.3605 -0.5434 -0.4856
  260MOL0     N34239   8.034   4.277   4.788  0.1530  0.5141 -0.6241
  260MOL0     C34240   9.295   4.291   4.607 -0.6632 -0.1047 -0.2668
  260MOL0     C34241   9.439   4.284   4.607 -0.4893  0.1617 -1.3823
  260MOL0     C34242   9.862   4.372   4.424 -0.4314 -0.1042 -0.3723
  260MOL0     C34243   9.920   4.292   4.525  0.1518 -0.2122  0.2259
  260MOL0     C34244  10.061   4.292   4.541  0.1422 -0.0307  0.4914
  260MOL0     C34245  10.148   4.362   4.453  0.8297 -0.0083 -0.2920
  260MOL0     O34246  10.280   4.340   4.480  0.2672 -0.2029 -0.3318
  260MOL0     C34247  10.380   4.386   4.388  0.2139  0.3113 -0.1479
  260MOL0     C34248  10.526   4.393   4.462  0.0557  0.9104 -0.5307
  260MOL0     C34249  10.554   4.261   4.530 -0.1390  0.2026  0.6479
  260MOL0     C34250  10.702   4.235   4.583  0.7687  0.6095  0.0989
  260MOL0     C34251  10.794   4.247   4.471  0.4588  0.5268  0.5396
  260MOL0     C34252  10.883   4.267   4.387  0.6752  0.1272  0.3598
  260MOL0     C34253  10.087   4.427   4.346 -0.6577  0.4696 -0.7701
  260MOL0     C34254   9.941   4.431   4.335 -1.0879  0.0537  0.0341
  260MOL0     H34255   9.509   4.562   4.418  1.5350 -2.3381 -0.9815
  260MOL0     H34256   9.265   4.585   4.412  2.0011 -0.1678 -2.5665
  260MOL0     H34257   9.021   4.283   4.678  2.2490  0.7770 -0.3430
  260MOL0     H34258   9.027   4.242   4.507 -0.5819  0.4064 -1.3037
  260MOL0     H34259   8.840   4.393   4.440 -3.1323  0.4447  0.6319
  260MOL0     H34260   8.860   4.473   4.592  1.7394 -1.0952  2.6713
  260MOL0     H34261   8.753   4.206   4.513  0.7715  1.8442 -2.0886
  260MOL0     H34262   8.662   4.346   4.582  2.8965  2.9208 -0.1861
  260MOL0     H34263   8.829   4.134   4.707  2.6061  1.5868 -2.6250
  260MOL0     H34264   8.811   4.294   4.787  1.1228  0.5075 -2.4883
  260MOL0     H34265   8.642   4.106   4.869 -0.7925 -0.2535  0.9570
  260MOL0     H34266   8.588   4.099   4.694  0.2904 -0.4536  0.0640
  260MOL0     H34267   8.514   4.337   4.717  2.2576 -0.5333 -0.6681
  260MOL0     H34268   8.562   4.328   4.888 -3.1378  1.6924 -0.2811
  260MOL0     H34269   8.372   4.125   4.769 -2.8806  0.2772  0.5489
  260MOL0     H34270   8.409   4.153   4.939 -1.5902 -0.6414 -0.6150
  260MOL0     H34271   8.283   4.346   4.765  1.4127 -0.7396 -0.7124
  260MOL0     H34272   8.281   4.348   4.953  2.8709  0.8675 -1.0655
  260MOL0     H34273   8.158   4.052   4.998 -1.4310 -0.8611  0.7640
  260MOL0     H34274   7.790   4.024   4.968 -0.0021 -0.6175 -2.9647
  260MOL0     H34275   7.946   3.943   5.026 -0.0750 -1.2152  0.3216
  260MOL0     H34276   7.971   3.855   4.793 -1.2716 -3.9121 -0.7337
  260MOL0     H34277   7.806   3.933   4.764 -1.6170  1.1252  1.3306
  260MOL0     H34278   7.789   3.694   4.800 -0.3423 -2.1155  1.1852
  260MOL0     H34279   7.859   3.691   4.952 -2.0941 -2.3846 -2.4693
  260MOL0     H34280   7.678   3.797   5.052 -1.7138  2.1479 -0.5790
  260MOL0     H34281   7.612   3.676   4.948  0.2778 -0.4436  3.8347
  260MOL0     H34282   7.480   3.807   5.114 -2.3300 -2.8666  0.3624
  260MOL0     H34283   7.263   3.874   5.188 -0.1148 -1.6113  0.6602
  260MOL0     H34284   6.880   4.249   5.061  0.1921 -0.2987  1.4824
  260MOL0     H34285   6.640   4.291   5.100 -3.2667 -1.2402  0.1328
  260MOL0     H34286   6.385   4.044   4.843 -2.8802 -0.6648 -0.3518
  260MOL0     H34287   6.402   4.223   4.879  0.8501 -0.2662  0.5063
  260MOL0     H34288   6.211   4.005   4.957  2.5788 -0.3054  3.0581
  260MOL0     H34289   6.157   4.151   4.869  2.0417  1.3540 -0.1938
  260MOL0     H34290   6.224   4.290   5.069  0.5589 -0.1853 -3.3701
  260MOL0     H34291   6.225   4.136   5.166  0.9051  0.2840 -0.5195
  260MOL0     H34292   6.003   4.258   5.011  1.7890  0.2535 -0.9985
  260MOL0     H34293   5.992   4.097   5.092 -2.4073  1.1662  3.1263
  260MOL0     H34294   6.024   4.353   5.256  1.7745 -0.9632  0.8840
  260MOL0     H34295   6.024   4.183   5.307  1.9448  0.8261 -0.0383
  260MOL0     H34296   5.792   4.171   5.215 -1.1141 -0.1185 -2.3874
  260MOL0     H34297   5.821   4.314   5.119  0.0781 -0.8121 -0.5541
  260MOL0     H34298   5.833   4.340   5.419  0.3082  1.9336  0.0219
  260MOL0     H34299   5.788   4.447   5.293  0.5804 -0.8554 -1.5472
  260MOL0     H34300   5.592   4.251   5.250 -0.0830 -0.0396  0.2219
  260MOL0     H34301   5.575   4.383   5.380  0.1122  0.2318 -0.6048
  260MOL0     H34302   6.560   3.890   4.954  0.2756  1.6896 -1.6954
  260MOL0     H34303   6.793   3.856   4.913  0.1221  0.1990  0.1683
  260MOL0     H34304   7.192   4.064   4.809 -1.2497 -0.5938  0.4475
  260MOL0     H34305   7.447   4.041   4.761 -0.0055  1.9231  0.7550
  260MOL0     H34306   9.238   4.223   4.669  0.2831 -0.8734 -0.2057
  260MOL0     H34307   9.504   4.205   4.644 -0.7756  0.5260 -0.0603
  260MOL0     H34308   9.864   4.224   4.588  2.0812 -1.6385  0.4850
  260MOL0     H34309  10.101   4.232   4.622  1.8167 -0.4510 -0.5967
  260MOL0     H34310  10.356   4.487   4.354  0.9045 -0.3807 -2.9295
  260MOL0     H34311  10.389   4.332   4.293  0.6853 -0.2988  0.2372
  260MOL0     H34312  10.603   4.423   4.390  2.4045 -0.6749  1.1706
  260MOL0     H34313  10.528   4.471   4.538  3.6219 -1.8590  2.5759
  260MOL0     H34314  10.536   4.183   4.456 -0.2725 -0.4873  1.3953
  260MOL0     H34315  10.477   4.254   4.607 -2.0194  0.9651 -1.0805
  260MOL0     H34316  10.706   4.309   4.663 -2.4274  0.6830  0.3006
  260MOL0     H34317  10.695   4.139   4.635 -3.2742  0.3247 -0.6564
  260MOL0     H34318  10.941   4.290   4.300 -2.0848  1.6388 -1.2180
  260MOL0     H34319  10.143   4.477   4.267 -1.6527  0.8106 -1.2791
  260MOL0     H34320   9.913   4.480   4.242  2.4662 -0.8140 -1.6624
  261MOL0     O34321   4.223   0.513   2.080 -0.6067 -0.3991 -0.4465
  261MOL0     C34322   4.246   0.588   1.987  0.4953 -1.2102  0.0105
  261MOL0     O34323   4.164   0.633   1.884  0.6704  0.5376 -0.4729
  261MOL0     C34324   4.051   0.561   1.873 -0.0668 -0.2284  0.1268
  261MOL0     C34325   3.934   0.611   1.914 -0.0138  0.6083 -1.1408
  261MOL0     C34326   3.814   0.538   1.904  0.2607 -0.2868  0.1142
  261MOL0     C34327   3.813   0.418   1.838  0.1049 -1.0014  1.1303
  261MOL0     O34328   3.694   0.348   1.809 -0.3640 -0.1698  0.9479
  261MOL0     C34329   3.611   0.328   1.929 -0.1571 -0.8142  0.6287
  261MOL0     C34330   3.510   0.226   1.896 -1.1124  0.1276 -0.2698
  261MOL0     C34331   3.430   0.280   1.790  0.3270  0.9051 -0.1651
  261MOL0     C34332   3.293   0.207   1.787 -0.6215 -0.8207  0.2549
  261MOL0     C34333   3.192   0.276   1.692 -0.0594  0.6086 -0.5222
  261MOL0     C34334   3.062   0.202   1.685  0.1546  0.7639 -0.0389
  261MOL0     C34335   3.069   0.092   1.579  0.4808  0.4908 -0.1687
  261MOL0     C34336   3.067   0.144   1.426 -0.3391  0.5528  0.5407
  261MOL0     N34337   2.989   0.060   1.329  0.2291  0.3705 -0.0829
  261MOL0     C34338   2.854   0.057   1.327 -0.2842 -0.2635  0.8453
  261MOL0     C34339   2.807  -0.015   1.218 -0.3165 -0.7457 -0.3022
  261MOL0     C34340   2.659  -0.048   1.173  0.0449  0.9598  0.8410
  261MOL0     C34341   2.563  -0.007   1.278 -0.4054  1.5223 -0.3469
  261MOL0     C34342   2.425  -0.031   1.227  0.6969 -0.9952  0.0202
  261MOL0     C34343   2.320  -0.021   1.343 -0.1310  0.2873  0.5493
  261MOL0     O34344   2.193  -0.021   1.272  0.0611 -0.4845  0.0526
  261MOL0     C34345   2.077   0.004   1.342 -0.1579  0.6264 -0.7252
  261MOL0     C34346   1.967  -0.007   1.258  0.2983  0.1953  0.0491
  261MOL0     C34347   1.839   0.010   1.302 -0.7275 -0.3122 -0.4145
  261MOL0     C34348   1.821   0.024   1.448 -0.7367 -0.4441 -0.1714
  261MOL0     C34349   1.684   0.021   1.506 -0.2088  0.7201 -0.0610
  261MOL0     O34350   1.677   0.038   1.642 -0.1760 -0.1811  0.1469
  261MOL0     C34351   1.554   0.064   1.707 -0.9715  0.4978  0.5498
  261MOL0     C34352   1.505   0.195   1.716 -1.1390  0.5571  0.2396
  261MOL0     C34353   1.381   0.222   1.768  0.4105  0.4197  0.7591
  261MOL0     C34354   1.303   0.111   1.810 -0.1581 -0.3110  0.3387
  261MOL0     O34355   1.182   0.130   1.863  0.5006  1.0796  0.1659
  261MOL0     C34356   1.077   0.199   1.783 -0.4597 -0.0629 -0.0517
  261MOL0     C34357   0.954   0.102   1.762  0.1509 -0.1655  0.3920
  261MOL0     C34358   0.855   0.185   1.684 -0.2314  0.0715 -0.0395
  261MOL0     C34359   0.714   0.120   1.660  0.0789 -0.4272 -0.2520
  261MOL0     C34360   0.610   0.225   1.619 -0.1610  0.0559  0.1591
  261MOL0     C34361   0.513   0.272   1.726  0.4206 -0.1717  0.0554
  261MOL0     C34362   0.586   0.316   1.857  0.7449  0.2950  0.7320
  261MOL0     C34363   0.485   0.310   1.972 -0.1554 -0.1889 -0.5404
  261MOL0    Cl34364   0.454   0.137   2.021 -0.2042  0.3942  0.1927
  261MOL0     C34365   1.360  -0.025   1.815  0.7641 -0.3071  0.4624
  261MOL0     C34366   1.485  -0.040   1.759 -0.0201  0.2930  0.6138
  261MOL0     O34367   1.585   0.018   1.437  0.6822  0.0438  0.3740
  261MOL0     C34368   1.935   0.049   1.530  0.1228 -0.2311 -0.4569
  261MOL0     C34369   2.059   0.031   1.479  0.2228 -0.1197  0.5435
  261MOL0     N34370   2.926  -0.026   1.146  0.2772  0.2484 -0.1159
  261MOL0     N34371   3.030   0.012   1.215 -1.0735 -0.7534 -0.4239
  261MOL0     C34372   3.940   0.360   1.798 -0.7291 -0.1226 -1.5115
  261MOL0     C34373   4.060   0.431   1.817  1.1991 -0.5528  0.6649
  261MOL0     C34374   4.394   0.632   1.959 -0.2778 -0.5753  0.0087
  261MOL0     C34375   4.492   0.646   2.059 -0.0845  0.5272  0.3929
  261MOL0     C34376   4.626   0.671   2.010  0.0653 -1.1236 -0.5052
  261MOL0     C34377   4.669   0.692   1.879 -0.0598  0.0662  0.1155
  261MOL0     O34378   4.803   0.718   1.856  0.2327 -0.5198 -0.3555
  261MOL0     C34379   4.844   0.722   1.724 -0.7228  0.2415 -0.0166
  261MOL0     C34380   4.991   0.729   1.715  0.5391  0.4335 -0.3297
  261MOL0     C34381   5.056   0.871   1.739 -0.7045  0.4726 -0.4296
  261MOL0     C34382   5.203   0.872   1.768 -1.5154 -0.2199 -0.0672
  261MOL0     C34383   5.267   0.826   1.648 -0.1962 -0.6241  0.9480
  261MOL0     C34384   5.306   0.785   1.539  0.9586 -0.9346 -0.6596
  261MOL0     C34385   4.567   0.685   1.785  0.5869  0.7337  0.3114
  261MOL0     C34386   4.435   0.653   1.823 -0.3757  0.1027  0.3254
  261MOL0     H34387   3.930   0.706   1.967  0.0075 -0.1143  0.2206
  261MOL0     H34388   3.725   0.592   1.936  1.1467  0.6696  1.0331
  261MOL0     H34389   3.559   0.415   1.969 -0.5589 -2.1225  3.1577
  261MOL0     H34390   3.673   0.273   2.001 -1.0388 -4.5282 -1.2201
  261MOL0     H34391   3.455   0.201   1.987  1.3392 -2.0695  0.7435
  261MOL0     H34392   3.560   0.132   1.870 -0.7271  0.1742  0.2785
  261MOL0     H34393   3.483   0.272   1.695  3.1265  0.4079  1.3102
  261MOL0     H34394   3.397   0.378   1.827  1.1113  0.6930  1.1735
  261MOL0     H34395   3.319   0.109   1.745 -0.7027 -0.5467 -0.4358
  261MOL0     H34396   3.256   0.197   1.890  0.8532  0.0825  0.9002
  261MOL0     H34397   3.224   0.281   1.587  3.1272 -0.8068  0.2500
  261MOL0     H34398   3.171   0.376   1.732  0.8247  0.0132  1.5760
  261MOL0     H34399   2.990   0.278   1.654 -1.4369 -0.6978 -0.0780
  261MOL0     H34400   3.029   0.167   1.783  1.2271  0.9335  0.4025
  261MOL0     H34401   3.156   0.027   1.590  0.2602  0.3093  0.5805
  261MOL0     H34402   2.987   0.022   1.596 -0.9889  0.7711 -4.7184
  261MOL0     H34403   3.173   0.155   1.401 -0.4128  0.6071  0.2402
  261MOL0     H34404   3.019   0.243   1.425 -3.6733 -0.9089 -0.3428
  261MOL0     H34405   2.798   0.102   1.409 -1.0498 -0.3781  0.3957
  261MOL0     H34406   2.640  -0.151   1.142 -0.6484  2.2162 -3.6371
  261MOL0     H34407   2.648   0.009   1.080  1.3111  0.5388  0.4003
  261MOL0     H34408   2.576   0.100   1.299 -1.6923  2.1519 -2.3677
  261MOL0     H34409   2.586  -0.055   1.373 -0.9795  3.1197  0.6293
  261MOL0     H34410   2.414   0.038   1.142  3.7968 -1.9048 -1.2777
  261MOL0     H34411   2.416  -0.132   1.187  1.0873 -0.9151 -0.2725
  261MOL0     H34412   2.327   0.077   1.391 -1.8017  2.1994 -2.7632
  261MOL0     H34413   2.337  -0.095   1.422  0.2493  1.4965  1.6506
  261MOL0     H34414   1.969  -0.047   1.157 -2.0611 -6.4292  2.0726
  261MOL0     H34415   1.753   0.019   1.236 -0.1974 -2.4012 -1.4540
  261MOL0     H34416   1.575   0.273   1.688 -0.3300 -0.3610 -0.3516
  261MOL0     H34417   1.335   0.320   1.778  0.1076  0.2566  0.9835
  261MOL0     H34418   1.115   0.230   1.685 -0.7294 -1.7498 -0.7307
  261MOL0     H34419   1.061   0.291   1.839  2.4009 -1.3675  3.3732
  261MOL0     H34420   0.904   0.077   1.857  0.9025  1.2196  1.1867
  261MOL0     H34421   0.986   0.012   1.708  1.5559 -1.9558  3.8738
  261MOL0     H34422   0.900   0.207   1.587  0.9670 -1.3616  0.1605
  261MOL0     H34423   0.841   0.280   1.737 -1.3987  1.0628 -1.9765
  261MOL0     H34424   0.720   0.032   1.595 -0.5604 -0.0607 -0.8201
  261MOL0     H34425   0.673   0.084   1.755  0.9903 -0.1103  0.2808
  261MOL0     H34426   0.552   0.182   1.536 -1.0147 -1.6936  1.5813
  261MOL0     H34427   0.665   0.319   1.611 -0.7527  0.5989  1.9472
  261MOL0     H34428   0.452   0.187   1.761 -1.1251  2.0539  3.3282
  261MOL0     H34429   0.446   0.354   1.699 -2.1551 -1.0238  3.1504
  261MOL0     H34430   0.664   0.256   1.904  0.9814  0.7587  0.9382
  261MOL0     H34431   0.621   0.416   1.828  0.6905 -0.3184 -1.6124
  261MOL0     H34432   0.391   0.362   1.951  0.1041  0.3766 -0.3108
  261MOL0     H34433   0.529   0.362   2.058 -2.4417  0.7986  0.1172
  261MOL0     H34434   1.288  -0.099   1.848 -3.7211  2.3528 -2.3437
  261MOL0     H34435   1.522  -0.142   1.761 -0.8226  0.0096  1.4370
  261MOL0     H34436   1.932   0.078   1.635 -0.8372  1.2462 -0.8585
  261MOL0     H34437   2.138   0.077   1.538  1.0597 -1.4456  0.4908
  261MOL0     H34438   3.934   0.261   1.754 -4.5163 -0.8399  0.1676
  261MOL0     H34439   4.155   0.383   1.795  1.8846 -0.8733  3.8274
  261MOL0     H34440   4.474   0.631   2.165  0.5281 -1.5767  0.2446
  261MOL0     H34441   4.697   0.688   2.090 -1.4571 -0.5467  0.7979
  261MOL0     H34442   4.794   0.806   1.675  0.8580  0.9604 -0.4475
  261MOL0     H34443   4.811   0.628   1.679 -1.2113 -0.7117  2.1938
  261MOL0     H34444   5.025   0.648   1.780 -0.9498  1.7577  2.2570
  261MOL0     H34445   5.016   0.697   1.613 -2.3045 -0.7248 -0.7815
  261MOL0     H34446   5.004   0.919   1.822 -2.2748 -0.1118 -1.0340
  261MOL0     H34447   5.037   0.929   1.648 -1.1159  0.6503 -0.2307
  261MOL0     H34448   5.245   0.973   1.776 -0.7209 -0.6402  1.6332
  261MOL0     H34449   5.233   0.819   1.859  0.3766  0.6801 -0.1128
  261MOL0     H34450   5.334   0.746   1.443  0.9266  0.0223 -1.0681
  261MOL0     H34451   4.577   0.707   1.679 -0.9916  2.0875  0.4033
  261MOL0     H34452   4.359   0.637   1.748 -1.6790 -1.8773  1.9715
  262MOL0     O34453  10.519   9.270   6.344 -0.1969  0.0708  0.4719
  262MOL0     C34454  10.585   9.345   6.418  0.8367  1.8112  0.5471
  262MOL0     O34455  10.540   9.447   6.481  0.5730  0.4909 -0.9736
  262MOL0     C34456  10.407   9.474   6.482  0.1084 -0.4972  0.7236
  262MOL0     C34457  10.321   9.419   6.573  0.2113  0.6282  0.0802
  262MOL0     C34458  10.180   9.434   6.554 -0.0969  0.5648  0.4705
  262MOL0     C34459  10.136   9.524   6.458 -0.5055 -0.5047 -0.8394
  262MOL0     O34460  10.001   9.545   6.449 -0.4295 -0.0569  0.6271
  262MOL0     C34461   9.916   9.433   6.461  0.5201  0.3716  0.8442
  262MOL0     C34462   9.779   9.465   6.399 -0.5880 -0.3257  0.3365
  262MOL0     C34463   9.698   9.335   6.384  0.2697  0.1942 -0.0613
  262MOL0     C34464   9.563   9.348   6.320  0.0018 -0.4169 -0.9396
  262MOL0     C34465   9.496   9.222   6.292 -0.2850  1.0299  0.8458
  262MOL0     C34466   9.381   9.189   6.391 -0.1820 -0.2408 -0.1368
  262MOL0     C34467   9.335   9.056   6.354 -0.2066  0.8149  0.4315
  262MOL0     C34468   9.224   8.994   6.442 -0.5591  0.8537  0.7187
  262MOL0     N34469   9.154   8.894   6.359  0.0400  0.3026 -0.2058
  262MOL0     C34470   9.201   8.766   6.325  0.3837 -0.8371  0.2790
  262MOL0     C34471   9.098   8.716   6.245 -1.4630  0.1390  0.1665
  262MOL0     C34472   9.081   8.566   6.200  0.6167  0.6522  0.2076
  262MOL0     C34473   8.953   8.517   6.268 -0.2085  0.7648 -0.2311
  262MOL0     C34474   8.817   8.562   6.204 -1.0071  0.6366  0.5113
  262MOL0     C34475   8.700   8.486   6.265  0.4834 -0.0752 -0.0850
  262MOL0     O34476   8.575   8.558   6.268  0.2454  0.5585 -0.1830
  262MOL0     C34477   8.476   8.497   6.334 -0.7606  0.1627  0.5303
  262MOL0     C34478   8.387   8.579   6.404 -0.2818 -0.9743 -0.1696
  262MOL0     C34479   8.276   8.529   6.472 -0.2897 -0.0907  0.0298
  262MOL0     C34480   8.245   8.393   6.452 -0.5548 -0.3574 -0.6842
  262MOL0     C34481   8.115   8.326   6.494 -0.2387  0.6473  0.4626
  262MOL0     O34482   8.081   8.215   6.416  0.4516  0.1947  0.1699
  262MOL0     C34483   7.940   8.197   6.407 -0.5402 -0.1873  0.2989
  262MOL0     C34484   7.873   8.097   6.473  0.3622  0.4328 -1.0061
  262MOL0     C34485   7.731   8.079   6.460  0.0529  0.9018 -0.2869
  262MOL0     C34486   7.664   8.149   6.360  0.3712 -0.6878  0.2060
  262MOL0     O34487   7.540   8.102   6.321  0.0337  0.2437  0.3174
  262MOL0     C34488   7.486   8.134   6.187 -0.3636  0.1838 -0.4140
  262MOL0     C34489   7.357   8.071   6.148  0.9089  0.5125  0.5963
  262MOL0     C34490   7.248   8.071   6.253  1.0782  0.3607  1.1025
  262MOL0     C34491   7.111   8.006   6.192 -0.9073 -1.1779 -0.8173
  262MOL0     C34492   6.987   8.042   6.278 -0.4092 -0.1005  0.9273
  262MOL0     C34493   6.972   7.991   6.419 -0.1649  0.4607 -0.2528
  262MOL0     C34494   6.832   8.025   6.475 -1.2586  0.0047  0.9679
  262MOL0     C34495   6.811   7.959   6.607  0.4184 -0.6826 -0.0081
  262MOL0    Cl34496   6.768   7.789   6.578 -0.2671  0.3941 -0.1025
  262MOL0     C34497   7.734   8.251   6.288 -0.1450 -0.9319  0.1740
  262MOL0     C34498   7.866   8.285   6.321 -0.3624  0.3346  0.3113
  262MOL0     O34499   8.049   8.386   6.581 -0.6481  0.7180 -0.5887
  262MOL0     C34500   8.340   8.313   6.389 -0.0077  0.9149  0.2667
  262MOL0     C34501   8.446   8.362   6.319  0.4681  0.1218 -0.8277
  262MOL0     N34502   9.009   8.818   6.233  0.1900  1.0302 -0.6967
  262MOL0     N34503   9.034   8.916   6.307  0.3009 -0.4260  0.6368
  262MOL0     C34504  10.226   9.604   6.386  0.6958  0.1524 -0.5639
  262MOL0     C34505  10.363   9.571   6.394 -0.2740 -1.1216 -0.0130
  262MOL0     C34506  10.733   9.323   6.426 -0.2370  0.7585 -0.2026
  262MOL0     C34507  10.812   9.385   6.522  0.4124  0.1160  0.3662
  262MOL0     C34508  10.950   9.358   6.538  0.5060  0.7134 -0.5711
  262MOL0     C34509  11.011   9.282   6.442  0.3919 -0.5614 -0.8635
  262MOL0     O34510  11.144   9.252   6.443  0.9215 -0.1120 -0.5009
  262MOL0     C34511  11.240   9.320   6.518  0.3515 -0.8301 -0.2065
  262MOL0     C34512  11.382   9.301   6.449  0.8350 -0.0234 -0.9645
  262MOL0     C34513  11.418   9.402   6.350 -0.1424 -0.3953 -1.1375
  262MOL0     C34514  11.561   9.390   6.291 -0.3790 -0.1301 -0.3483
  262MOL0     C34515  11.585   9.519   6.228 -1.0574 -0.2496 -0.4282
  262MOL0     C34516  11.633   9.630   6.187  0.5794 -0.1950 -0.2714
  262MOL0     C34517  10.939   9.209   6.356  0.1903 -0.1001  0.1189
  262MOL0     C34518  10.797   9.229   6.343  0.6495  0.8686  0.5532
  262MOL0     H34519  10.362   9.360   6.653 -0.6150 -0.7439 -0.4762
  262MOL0     H34520  10.115   9.374   6.616  0.4186  0.4970  0.9649
  262MOL0     H34521   9.915   9.390   6.562  0.5632 -2.1969 -0.1628
  262MOL0     H34522   9.955   9.364   6.386  1.4799  0.5802  1.1365
  262MOL0     H34523   9.789   9.518   6.304 -1.1985 -0.2993  0.2847
  262MOL0     H34524   9.721   9.532   6.464 -1.1921 -2.4285  2.0855
  262MOL0     H34525   9.679   9.288   6.481 -0.1106  1.5256  0.5441
  262MOL0     H34526   9.754   9.263   6.324 -0.0073  0.7730 -1.0287
  262MOL0     H34527   9.499   9.402   6.390 -1.7695 -3.7924  0.2776
  262MOL0     H34528   9.573   9.425   6.243  3.6030 -0.0737 -0.2929
  262MOL0     H34529   9.571   9.144   6.283  0.7030  2.0546 -0.1347
  262MOL0     H34530   9.452   9.234   6.192  2.3761 -0.1716 -0.5652
  262MOL0     H34531   9.303   9.266   6.391  1.7825  1.8749  1.4843
  262MOL0     H34532   9.415   9.182   6.494  0.6282 -3.3081 -0.4972
  262MOL0     H34533   9.302   9.055   6.250 -0.9293 -0.2054  0.6543
  262MOL0     H34534   9.422   8.991   6.348  0.7365  1.9506  1.2680
  262MOL0     H34535   9.152   9.071   6.473 -1.9037 -0.6615  1.5213
  262MOL0     H34536   9.264   8.939   6.528 -1.4514  2.1841  2.0306
  262MOL0     H34537   9.299   8.725   6.349 -0.1380 -1.8482  0.7149
  262MOL0     H34538   9.166   8.505   6.232  0.3980 -0.6563 -1.6016
  262MOL0     H34539   9.080   8.561   6.091 -0.1916 -0.3746  0.2480
  262MOL0     H34540   8.957   8.549   6.373 -0.2470  1.8673 -0.5481
  262MOL0     H34541   8.953   8.408   6.277  0.9382  0.7586 -0.1330
  262MOL0     H34542   8.811   8.670   6.222  1.0165  0.8295  0.3484
  262MOL0     H34543   8.822   8.539   6.097 -2.5545  0.7276  0.4066
  262MOL0     H34544   8.723   8.455   6.367  0.6351  3.1849  0.9690
  262MOL0     H34545   8.692   8.392   6.209 -1.7696 -2.0837  3.2648
  262MOL0     H34546   8.415   8.684   6.412 -0.3438 -0.8627 -1.2523
  262MOL0     H34547   8.198   8.578   6.531  1.2096  1.6826  0.6350
  262MOL0     H34548   7.914   8.033   6.551 -0.9762  0.3771 -0.3216
  262MOL0     H34549   7.681   7.991   6.499  1.4773 -1.1894 -2.8956
  262MOL0     H34550   7.558   8.097   6.113  1.5909  2.6326  0.1385
  262MOL0     H34551   7.477   8.243   6.189  0.5381  0.2881 -1.4426
  262MOL0     H34552   7.382   7.965   6.131  0.4682  0.1604  2.0485
  262MOL0     H34553   7.316   8.107   6.053  0.6091 -3.4035 -0.9496
  262MOL0     H34554   7.230   8.176   6.279 -0.1655  0.5628 -0.3887
  262MOL0     H34555   7.283   8.015   6.340  1.5638  1.0380  1.3566
  262MOL0     H34556   7.092   8.054   6.095  1.7027 -1.0176 -1.3284
  262MOL0     H34557   7.118   7.897   6.194 -0.8195 -1.2232  3.0365
  262MOL0     H34558   6.901   8.017   6.215 -0.1814  0.4540  0.3883
  262MOL0     H34559   6.989   8.151   6.282  1.7597 -0.1034  0.7599
  262MOL0     H34560   7.042   8.040   6.487 -1.6859 -0.4192  2.1089
  262MOL0     H34561   6.991   7.883   6.419 -0.3829  0.4221 -0.2410
  262MOL0     H34562   6.835   8.132   6.496  3.8022  0.4540 -0.8082
  262MOL0     H34563   6.753   7.999   6.404 -1.8201  1.5346  0.9952
  262MOL0     H34564   6.729   8.010   6.658  0.7159 -0.5938  0.3790
  262MOL0     H34565   6.899   7.969   6.670 -0.2829  1.6108  0.7240
  262MOL0     H34566   7.684   8.312   6.213  1.0382  1.8156  1.4498
  262MOL0     H34567   7.917   8.359   6.261 -2.3631  0.7029 -1.0304
  262MOL0     H34568   8.315   8.210   6.366  0.5918  1.3822 -3.1096
  262MOL0     H34569   8.508   8.299   6.256 -0.0551 -1.1897 -0.0779
  262MOL0     H34570  10.203   9.688   6.321  1.2848  0.7500 -0.0039
  262MOL0     H34571  10.442   9.629   6.347 -0.5031 -1.8834 -1.3983
  262MOL0     H34572  10.764   9.458   6.587  0.5687  2.6270 -2.1362
  262MOL0     H34573  10.996   9.413   6.619  0.3918 -1.0322  0.7543
  262MOL0     H34574  11.242   9.286   6.622  0.1915 -1.9095 -0.5494
  262MOL0     H34575  11.217   9.427   6.521  0.3590 -0.8390  0.2639
  262MOL0     H34576  11.468   9.307   6.518  2.5935 -2.6192 -2.7551
  262MOL0     H34577  11.377   9.203   6.400  0.5201 -0.1646 -0.6571
  262MOL0     H34578  11.424   9.497   6.404  2.7697 -0.3013 -1.5073
  262MOL0     H34579  11.352   9.392   6.262 -0.4603  1.6113 -1.1797
  262MOL0     H34580  11.633   9.384   6.374 -1.4050  1.3177  0.7046
  262MOL0     H34581  11.577   9.304   6.225  2.3156 -1.6251  1.9859
  262MOL0     H34582  11.665   9.724   6.149 -0.2737  0.4517  0.5700
  262MOL0     H34583  10.988   9.127   6.305 -1.2256 -0.7762 -0.1857
  262MOL0     H34584  10.738   9.176   6.269 -0.0900  0.7485  1.2203
  263MOL0     O34585   1.562   9.055   1.702 -0.2963 -0.5743  0.8955
  263MOL0     C34586   1.650   9.144   1.708 -0.6268 -0.1267 -0.7765
  263MOL0     O34587   1.648   9.254   1.785  0.3228  0.1108 -0.3713
  263MOL0     C34588   1.523   9.297   1.818 -0.1721 -0.3496 -0.3062
  263MOL0     C34589   1.455   9.234   1.923 -0.5000 -0.1119 -0.0556
  263MOL0     C34590   1.320   9.266   1.953  0.1683  1.4140  0.0592
  263MOL0     C34591   1.264   9.372   1.887  0.2312  0.0610 -0.3553
  263MOL0     O34592   1.136   9.399   1.924 -0.3913 -0.2620 -0.7374
  263MOL0     C34593   1.031   9.400   1.822  0.5507 -0.0874  0.3910
  263MOL0     C34594   0.894   9.387   1.863 -0.6429  0.2826  0.4225
  263MOL0     C34595   0.860   9.493   1.965  0.4359  0.2323  0.1439
  263MOL0     C34596   0.822   9.434   2.100 -1.0075 -0.7397 -1.5186
  263MOL0     C34597   0.682   9.370   2.109  0.3185  0.2334 -0.3316
  263MOL0     C34598   0.568   9.464   2.115 -0.8289 -0.4164 -0.3416
  263MOL0     C34599   0.430   9.401   2.083  0.1517 -0.4567  0.2165
  263MOL0     C34600   0.316   9.487   2.151 -0.9016 -0.2743  0.3461
  263MOL0     N34601   0.193   9.427   2.101  0.2347  0.6332  0.2356
  263MOL0     C34602   0.136   9.320   2.165 -0.6166  0.0682  0.0624
  263MOL0     C34603   0.030   9.281   2.091 -0.0159 -0.5620  0.3108
  263MOL0     C34604  -0.066   9.192   2.146  0.4662  0.1180 -0.2320
  263MOL0     C34605  -0.179   9.265   2.226 -0.6866 -0.2881 -0.0624
  263MOL0     C34606  -0.270   9.344   2.130  0.1685 -0.5853 -0.1729
  263MOL0     C34607  -0.348   9.459   2.204  0.1589  0.2434  0.2294
  263MOL0     O34608  -0.468   9.430   2.278 -0.4677  0.1075 -0.5644
  263MOL0     C34609  -0.581   9.403   2.205 -0.7094  0.3001 -0.1669
  263MOL0     C34610  -0.593   9.393   2.062  0.0956 -0.7419 -0.3569
  263MOL0     C34611  -0.707   9.355   1.999 -0.5502 -0.3313 -0.3600
  263MOL0     C34612  -0.820   9.331   2.075 -1.0793 -0.6892  0.8225
  263MOL0     C34613  -0.940   9.286   1.997 -0.4273  0.5073 -0.1209
  263MOL0     O34614  -1.021   9.203   2.083  0.1430  0.3097 -0.2576
  263MOL0     C34615  -1.143   9.170   2.033  0.2074 -0.0204  0.2217
  263MOL0     C34616  -1.264   9.188   2.104 -0.1354  0.0029  0.4418
  263MOL0     C34617  -1.386   9.146   2.055  1.4427  0.3405 -1.1097
  263MOL0     C34618  -1.382   9.062   1.938  0.0119 -0.1875 -0.9156
  263MOL0     O34619  -1.499   9.005   1.885  0.2694 -0.5385 -0.1741
  263MOL0     C34620  -1.572   9.095   1.807  0.6956 -0.2776 -0.8331
  263MOL0     C34621  -1.498   9.178   1.700 -0.3114  1.5304  0.3279
  263MOL0     C34622  -1.601   9.233   1.606 -0.2267 -0.5894 -0.5561
  263MOL0     C34623  -1.524   9.323   1.510  0.6119  0.0415  0.9155
  263MOL0     C34624  -1.617   9.419   1.439 -0.2885 -0.5068 -0.6995
  263MOL0     C34625  -1.734   9.345   1.360  0.3110 -0.1663 -0.2484
  263MOL0     C34626  -1.790   9.432   1.245 -0.0986 -0.0560 -0.3591
  263MOL0     C34627  -1.871   9.546   1.308 -0.3444  0.5482  0.3236
  263MOL0    Cl34628  -1.917   9.660   1.176  0.6030  0.1182 -0.5346
  263MOL0     C34629  -1.261   9.034   1.875  0.4530  0.1634  0.3702
  263MOL0     C34630  -1.148   9.088   1.917  0.5318 -0.0655 -0.3046
  263MOL0     O34631  -0.976   9.329   1.880  0.1758  0.1418 -0.3058
  263MOL0     C34632  -0.810   9.345   2.216 -0.3797 -0.4666  0.2776
  263MOL0     C34633  -0.696   9.381   2.281  0.5199 -0.2176  0.1363
  263MOL0     N34634   0.043   9.344   1.962 -0.3756  0.6857  0.3903
  263MOL0     N34635   0.145   9.426   1.975 -0.9717  0.1616 -1.3799
  263MOL0     C34636   1.329   9.441   1.788 -0.4946 -0.6770  0.2837
  263MOL0     C34637   1.460   9.406   1.757  0.3490 -0.6965  0.0534
  263MOL0     C34638   1.782   9.109   1.644 -1.0159 -0.3004 -0.0987
  263MOL0     C34639   1.869   9.215   1.624  0.8150  0.3544  0.0149
  263MOL0     C34640   1.984   9.194   1.553 -0.7307  0.9427 -1.4323
  263MOL0     C34641   2.019   9.066   1.511  0.3061 -0.1024 -0.5960
  263MOL0     O34642   2.128   9.027   1.443  0.0119 -0.0565 -0.3792
  263MOL0     C34643   2.244   9.105   1.441 -0.3417 -0.9656  0.0140
  263MOL0     C34644   2.331   9.037   1.332 -0.5210 -0.8225 -1.1702
  263MOL0     C34645   2.433   9.138   1.272 -0.6183 -0.1076  0.3867
  263MOL0     C34646   2.513   9.080   1.147  0.1146 -0.3050 -0.7452
  263MOL0     C34647   2.618   9.178   1.111 -0.1096 -0.1171 -0.2591
  263MOL0     C34648   2.714   9.258   1.102  0.5622  0.5296  0.5629
  263MOL0     C34649   1.922   8.967   1.515 -0.1965  0.3574 -0.5682
  263MOL0     C34650   1.805   8.987   1.586 -0.7331 -0.0945  0.3624
  263MOL0     H34651   1.503   9.157   1.982 -1.5640 -1.7050 -1.1710
  263MOL0     H34652   1.267   9.214   2.033  0.1159  0.7161 -0.4187
  263MOL0     H34653   1.055   9.316   1.755  0.4771  1.5703 -1.8151
  263MOL0     H34654   1.024   9.487   1.757 -0.4930  0.0144  0.6271
  263MOL0     H34655   0.868   9.285   1.892  0.3618 -0.8346 -2.2955
  263MOL0     H34656   0.844   9.410   1.769  2.6346  1.1497 -1.2382
  263MOL0     H34657   0.770   9.546   1.933  0.3136  0.0231  0.1427
  263MOL0     H34658   0.940   9.567   1.971  0.0880  0.6670 -0.4730
  263MOL0     H34659   0.898   9.360   2.128 -2.1498 -1.5575 -0.4592
  263MOL0     H34660   0.831   9.512   2.177 -0.0649 -1.9614 -0.3323
  263MOL0     H34661   0.672   9.314   2.203 -2.4649 -1.0847 -1.3073
  263MOL0     H34662   0.669   9.306   2.022 -1.6780 -1.3391  1.0275
  263MOL0     H34663   0.585   9.550   2.049 -2.2031  0.9989  1.0772
  263MOL0     H34664   0.556   9.515   2.211 -1.2230  0.5697 -0.9044
  263MOL0     H34665   0.419   9.384   1.975 -1.1647 -2.4099  0.5959
  263MOL0     H34666   0.425   9.303   2.132 -0.7541  0.4698  2.0776
  263MOL0     H34667   0.326   9.586   2.106  1.0941 -1.6457 -2.5330
  263MOL0     H34668   0.333   9.480   2.259  1.6782 -0.8496 -0.0405
  263MOL0     H34669   0.184   9.279   2.253 -2.5966 -0.0258  1.1603
  263MOL0     H34670  -0.020   9.129   2.222 -0.3477  1.8201  1.7451
  263MOL0     H34671  -0.117   9.129   2.072 -2.1196 -0.5905  1.9806
  263MOL0     H34672  -0.129   9.341   2.288 -0.3212  1.1606 -2.0538
  263MOL0     H34673  -0.236   9.196   2.290 -4.4973  2.8975  0.3673
  263MOL0     H34674  -0.209   9.386   2.049 -0.0413 -0.1732 -0.1184
  263MOL0     H34675  -0.338   9.265   2.097  0.6080 -2.3082  2.6661
  263MOL0     H34676  -0.387   9.527   2.127 -1.3972 -3.2508 -2.3195
  263MOL0     H34677  -0.278   9.517   2.265 -1.3151  3.7809 -1.1371
  263MOL0     H34678  -0.504   9.415   2.004 -0.9697  1.1748 -1.3421
  263MOL0     H34679  -0.708   9.334   1.893 -4.0529 -1.3175 -0.2661
  263MOL0     H34680  -1.248   9.248   2.193 -0.6029  2.0855 -0.7945
  263MOL0     H34681  -1.478   9.161   2.111  2.0033  0.0110 -0.0562
  263MOL0     H34682  -1.623   9.159   1.880  2.9994  0.1339  0.5154
  263MOL0     H34683  -1.652   9.038   1.759 -0.7995 -0.1446  1.3634
  263MOL0     H34684  -1.439   9.103   1.648 -3.6672 -1.8032  0.9171
  263MOL0     H34685  -1.433   9.257   1.739  1.1861 -0.2020  1.5422
  263MOL0     H34686  -1.670   9.291   1.668 -0.2554 -0.1507 -0.9862
  263MOL0     H34687  -1.660   9.157   1.554 -1.7997  2.2712 -3.3351
  263MOL0     H34688  -1.450   9.380   1.567  0.0747 -0.0660  1.7363
  263MOL0     H34689  -1.473   9.262   1.435  2.5857  0.5779  1.7530
  263MOL0     H34690  -1.564   9.482   1.367  0.3157  1.2291  1.1548
  263MOL0     H34691  -1.650   9.496   1.510 -1.0832 -1.1502 -0.3605
  263MOL0     H34692  -1.813   9.314   1.430  2.3499  1.0838  2.7979
  263MOL0     H34693  -1.687   9.252   1.327  2.0988  0.2858  0.8821
  263MOL0     H34694  -1.711   9.460   1.175 -1.0055  0.3428 -1.2414
  263MOL0     H34695  -1.844   9.361   1.181  1.3565 -0.5839 -1.0516
  263MOL0     H34696  -1.811   9.593   1.387  1.8549 -0.3470 -0.7279
  263MOL0     H34697  -1.965   9.515   1.353 -0.9637  1.1781 -0.4941
  263MOL0     H34698  -1.260   8.976   1.783  3.0681  3.0988 -1.6957
  263MOL0     H34699  -1.053   9.052   1.878  0.0376 -4.1481  1.7133
  263MOL0     H34700  -0.905   9.338   2.269 -0.9087  0.5976 -0.4848
  263MOL0     H34701  -0.692   9.390   2.389 -1.5160  0.1824  0.2274
  263MOL0     H34702   1.270   9.508   1.727 -1.5245  0.0033  1.9561
  263MOL0     H34703   1.512   9.457   1.677  2.3774 -4.7862 -1.5459
  263MOL0     H34704   1.846   9.312   1.666 -1.1178  0.6541 -1.5598
  263MOL0     H34705   2.056   9.274   1.534  0.9720 -1.0222 -3.8547
  263MOL0     H34706   2.307   9.120   1.529 -2.2370 -2.3130  1.6836
  263MOL0     H34707   2.229   9.208   1.406  4.3333 -0.1920 -0.4401
  263MOL0     H34708   2.378   8.948   1.376  1.2002 -0.7799 -2.7925
  263MOL0     H34709   2.270   8.992   1.254  1.0313 -3.2223 -1.1062
  263MOL0     H34710   2.497   9.169   1.355  1.4864  3.2942 -2.2445
  263MOL0     H34711   2.389   9.233   1.240  1.8063  0.9413 -0.0406
  263MOL0     H34712   2.556   8.983   1.172 -0.8231 -0.3441  0.8584
  263MOL0     H34713   2.440   9.073   1.065  0.1984  4.3904 -1.5098
  263MOL0     H34714   2.793   9.328   1.080 -0.2720  0.8660 -1.6769
  263MOL0     H34715   1.939   8.876   1.458 -2.8248  0.6844 -1.9984
  263MOL0     H34716   1.731   8.908   1.587 -0.3920 -0.4505 -0.9209
  264MOL0     O34717   5.032  10.712   9.093 -0.3995 -0.3667  0.1984
  264MOL0     C34718   4.980  10.598   9.060 -0.4838 -0.9786 -0.7933
  264MOL0     O34719   5.045  10.489   9.005 -0.2268  0.2527 -0.6371
  264MOL0     C34720   5.181  10.513   8.982  1.1203  0.2689  0.5969
  264MOL0     C34721   5.236  10.596   8.882 -0.3074  1.2935 -0.3100
  264MOL0     C34722   5.374  10.611   8.872  0.4235 -0.3542 -0.6369
  264MOL0     C34723   5.464  10.538   8.945  1.1847  1.3838 -0.6439
  264MOL0     O34724   5.599  10.558   8.938 -0.6915 -0.1302  0.6195
  264MOL0     C34725   5.666  10.440   8.901  0.6006 -0.4360 -0.5927
  264MOL0     C34726   5.780  10.464   8.797  0.2758  0.0546 -1.1025
  264MOL0     C34727   5.893  10.357   8.796  0.5613 -0.0432  0.0229
  264MOL0     C34728   6.020  10.405   8.713  0.1065  0.1685 -1.3380
  264MOL0     C34729   6.152  10.327   8.750  0.0659 -0.4372 -0.4349
  264MOL0     C34730   6.251  10.384   8.652 -0.1445 -0.2895 -0.3136
  264MOL0     C34731   6.382  10.300   8.647 -0.2940  0.6710  1.2077
  264MOL0     C34732   6.499  10.386   8.624 -0.2569 -0.6088  1.0328
  264MOL0     N34733   6.625  10.305   8.616 -0.2906  0.1334  0.2256
  264MOL0     C34734   6.749  10.351   8.653  0.5668  0.6002 -1.0584
  264MOL0     C34735   6.835  10.288   8.582 -0.4160  0.0767 -0.9860
  264MOL0     C34736   6.982  10.305   8.585  0.1271  0.9961 -0.4782
  264MOL0     C34737   7.028  10.356   8.450  1.6911  0.3880 -0.4484
  264MOL0     C34738   7.173  10.414   8.464 -0.2391 -0.0617  0.0660
  264MOL0     C34739   7.186  10.553   8.538 -0.1314  0.4154  0.3445
  264MOL0     O34740   7.138  10.666   8.451 -0.5897  0.0044  0.2831
  264MOL0     C34741   7.013  10.681   8.432  0.2188  0.1563  0.4755
  264MOL0     C34742   6.964  10.699   8.301 -0.1070  0.9755  0.2043
  264MOL0     C34743   6.836  10.725   8.273  0.5951 -0.7951  0.4960
  264MOL0     C34744   6.747  10.738   8.381 -0.8016  0.5241  0.0069
  264MOL0     C34745   6.614  10.784   8.353  0.0902  1.2138 -1.2611
  264MOL0     O34746   6.515  10.727   8.432  0.3766  0.1596  0.4856
  264MOL0     C34747   6.390  10.747   8.397 -0.0847 -0.2825 -0.1183
  264MOL0     C34748   6.304  10.635   8.383  0.3692  0.5562 -0.0019
  264MOL0     C34749   6.171  10.646   8.350 -0.2263 -0.3450  0.0221
  264MOL0     C34750   6.113  10.775   8.343  0.3602  0.2799 -0.5555
  264MOL0     O34751   5.986  10.806   8.311 -0.1374  0.2168 -0.2474
  264MOL0     C34752   5.879  10.715   8.332 -0.0011  0.2912  0.0068
  264MOL0     C34753   5.849  10.639   8.203 -0.2572  0.6894  0.0405
  264MOL0     C34754   5.792  10.502   8.234 -0.1234 -0.2994 -0.0462
  264MOL0     C34755   5.740  10.421   8.116  0.4284 -0.4003  1.2332
  264MOL0     C34756   5.697  10.271   8.151  0.3930 -0.0230  0.1104
  264MOL0     C34757   5.812  10.169   8.166  0.2321 -0.2553 -0.1762
  264MOL0     C34758   5.902  10.130   8.046 -0.0630 -0.1143 -0.1578
  264MOL0     C34759   5.819  10.123   7.906 -0.5961  0.3074 -0.7970
  264MOL0    Cl34760   5.682  10.017   7.937 -0.2980  0.2304  0.2186
  264MOL0     C34761   6.189  10.886   8.362 -0.4961  0.1128 -0.5035
  264MOL0     C34762   6.326  10.872   8.384  0.7615 -0.8031 -0.3764
  264MOL0     O34763   6.598  10.859   8.259  0.3243  0.3640  0.4882
  264MOL0     C34764   6.793  10.723   8.515  0.2539 -0.1095  0.3152
  264MOL0     C34765   6.921  10.686   8.538  0.0107 -0.2669 -0.0792
  264MOL0     N34766   6.773  10.188   8.512  0.3462  0.1204  0.1671
  264MOL0     N34767   6.650  10.204   8.525  1.0121  0.3570 -0.2664
  264MOL0     C34768   5.400  10.442   9.033  0.4258  0.3954 -0.3157
  264MOL0     C34769   5.262  10.431   9.058 -0.3814 -0.2344  0.5463
  264MOL0     C34770   4.839  10.578   9.086 -0.1969 -1.1389 -0.2181
  264MOL0     C34771   4.764  10.482   9.017 -0.5480 -0.9706  1.3592
  264MOL0     C34772   4.629  10.504   9.011  0.1227  1.2496 -0.4405
  264MOL0     C34773   4.557  10.594   9.092 -0.4985  0.2637 -0.6999
  264MOL0     O34774   4.420  10.621   9.094 -0.7085  0.0900 -0.2731
  264MOL0     C34775   4.338  10.550   9.003 -0.4817  0.7242  1.1512
  264MOL0     C34776   4.191  10.588   9.038  0.6980 -0.8945  0.3631
  264MOL0     C34777   4.150  10.544   9.172  1.0962  0.0898  0.1098
  264MOL0     C34778   4.008  10.543   9.216  0.3456  0.4553  0.5057
  264MOL0     C34779   3.938  10.671   9.195  0.7138 -0.4294  0.2255
  264MOL0     C34780   3.887  10.777   9.161  0.0415 -0.4535  1.0708
  264MOL0     C34781   4.638  10.671   9.182  0.1045  0.4235  0.4215
  264MOL0     C34782   4.779  10.670   9.176 -0.1542 -0.1826 -0.7278
  264MOL0     H34783   5.170  10.660   8.825  0.1341  2.3029  0.2663
  264MOL0     H34784   5.411  10.678   8.794 -1.5014 -1.3942 -2.5475
  264MOL0     H34785   5.602  10.365   8.854 -0.9781  1.3310 -1.4275
  264MOL0     H34786   5.711  10.406   8.994  2.2892  1.3380 -0.6759
  264MOL0     H34787   5.829  10.559   8.821  2.1176 -1.1036 -0.0091
  264MOL0     H34788   5.744  10.480   8.695 -1.5590 -1.6018 -0.7716
  264MOL0     H34789   5.863  10.254   8.772 -1.4448  0.7463 -1.1561
  264MOL0     H34790   5.922  10.352   8.901 -0.5297 -1.7336  0.2766
  264MOL0     H34791   5.989  10.388   8.609 -1.9273 -3.1529 -0.3380
  264MOL0     H34792   6.037  10.511   8.731 -1.8515  0.2890  0.1634
  264MOL0     H34793   6.132  10.220   8.736  1.0771 -0.8712  1.2180
  264MOL0     H34794   6.176  10.345   8.855 -0.9498 -1.1437 -0.0647
  264MOL0     H34795   6.277  10.488   8.674 -0.1069 -0.0093 -1.6293
  264MOL0     H34796   6.201  10.372   8.556 -1.2747 -2.5823  0.4810
  264MOL0     H34797   6.403  10.244   8.739 -1.0128  0.2616  1.1280
  264MOL0     H34798   6.371  10.234   8.561  0.7678  2.3725 -0.2806
  264MOL0     H34799   6.515  10.466   8.697  0.0291  1.4158 -1.1297
  264MOL0     H34800   6.482  10.434   8.528 -1.8187 -1.5331  0.8201
  264MOL0     H34801   6.779  10.430   8.722  0.4622 -1.4971  1.5898
  264MOL0     H34802   7.028  10.211   8.615 -1.1355  1.2434  2.5736
  264MOL0     H34803   7.011  10.375   8.665  1.0303  0.9322 -0.7393
  264MOL0     H34804   6.955  10.425   8.406  1.3461  2.2137  2.6139
  264MOL0     H34805   7.046  10.269   8.387  0.5317  0.1392 -0.4584
  264MOL0     H34806   7.229  10.338   8.518 -2.6241 -2.6350 -0.8168
  264MOL0     H34807   7.200  10.425   8.359  2.2646  1.8450  0.7991
  264MOL0     H34808   7.291  10.567   8.566 -1.1096  1.7963  4.0267
  264MOL0     H34809   7.146  10.554   8.640  1.3883 -3.9517  1.1693
  264MOL0     H34810   7.037  10.705   8.221  2.2736 -1.6759  1.9903
  264MOL0     H34811   6.822  10.743   8.167  1.7915  1.6893  0.6827
  264MOL0     H34812   6.336  10.536   8.413 -2.9618 -0.9481 -0.9333
  264MOL0     H34813   6.110  10.556   8.344  0.3954 -0.7733  0.0358
  264MOL0     H34814   5.793  10.778   8.357  1.0871  1.8909 -0.1554
  264MOL0     H34815   5.897  10.654   8.421 -1.0092  0.2346  0.1826
  264MOL0     H34816   5.944  10.613   8.154  1.6664  1.7092  2.9439
  264MOL0     H34817   5.794  10.694   8.126 -0.9491 -1.8919 -1.4645
  264MOL0     H34818   5.707  10.514   8.302 -2.8616  0.0629 -3.2561
  264MOL0     H34819   5.872  10.439   8.275  0.0048  0.5089  0.9904
  264MOL0     H34820   5.649  10.471   8.081 -0.2999 -0.9142  2.3388
  264MOL0     H34821   5.813  10.408   8.035 -0.6420 -4.0455  0.6667
  264MOL0     H34822   5.619  10.231   8.086 -0.5610 -1.0120  1.7981
  264MOL0     H34823   5.648  10.270   8.249  1.9985  0.4972  0.9728
  264MOL0     H34824   5.767  10.073   8.194  2.6267 -1.0770  1.1545
  264MOL0     H34825   5.868  10.209   8.251  0.5252 -0.4156 -0.2938
  264MOL0     H34826   5.979  10.207   8.047 -0.2823  0.1776 -2.3217
  264MOL0     H34827   5.957  10.039   8.071  2.5373  2.0300  2.9255
  264MOL0     H34828   5.880  10.093   7.821  1.9129  2.3965  0.1510
  264MOL0     H34829   5.777  10.221   7.882 -3.0906 -0.5978 -0.5345
  264MOL0     H34830   6.144  10.984   8.349 -2.0438 -0.6725 -1.2457
  264MOL0     H34831   6.382  10.964   8.397 -0.5461 -0.0049 -0.2679
  264MOL0     H34832   6.715  10.758   8.582 -0.2242  2.6604 -1.5008
  264MOL0     H34833   6.964  10.686   8.638 -0.8762 -0.9689  0.3138
  264MOL0     H34834   5.457  10.377   9.097 -1.4111  1.0293  2.1021
  264MOL0     H34835   5.233  10.353   9.128  2.8896  0.6477  3.1696
  264MOL0     H34836   4.787  10.407   8.942 -0.4259  0.6286 -0.2764
  264MOL0     H34837   4.569  10.442   8.945  1.8901 -1.4764  0.3209
  264MOL0     H34838   4.326  10.443   9.020 -4.6813  0.6082 -1.2472
  264MOL0     H34839   4.363  10.573   8.899 -2.2279  0.6128  0.6873
  264MOL0     H34840   4.194  10.697   9.024  1.7463 -0.5617  2.7051
  264MOL0     H34841   4.126  10.546   8.960  1.0255  2.2058 -1.7631
  264MOL0     H34842   4.192  10.623   9.234  0.0217  2.1224 -1.6457
  264MOL0     H34843   4.191  10.443   9.186 -0.8622 -0.8052 -0.3327
  264MOL0     H34844   3.966  10.464   9.153 -1.5527  1.1446  0.8345
  264MOL0     H34845   4.006  10.516   9.322  0.2387 -0.4984  0.2772
  264MOL0     H34846   3.852  10.876   9.138 -3.1856 -1.3854  1.3676
  264MOL0     H34847   4.583  10.739   9.246 -1.6545  0.1379 -0.7194
  264MOL0     H34848   4.837  10.732   9.243 -0.8490 -1.3362  0.9949
  265MOL0     O34849   5.847   5.129   1.220 -0.2888  0.2152  0.3712
  265MOL0     C34850   5.818   5.123   1.097  0.1379  1.1111  0.1884
  265MOL0     O34851   5.695   5.142   1.046  0.0940  0.8096 -0.8430
  265MOL0     C34852   5.587   5.127   1.122  0.7918 -0.1447 -0.3784
  265MOL0     C34853   5.569   5.213   1.234 -0.6820  0.3082 -1.3403
  265MOL0     C34854   5.458   5.208   1.315  0.4839 -0.5808  0.3497
  265MOL0     C34855   5.348   5.124   1.280 -0.9602  0.4972 -0.8737
  265MOL0     O34856   5.250   5.120   1.374 -0.0311  0.4980  1.4512
  265MOL0     C34857   5.128   5.064   1.319  0.3023 -0.9442 -0.0885
  265MOL0     C34858   5.013   5.126   1.413  0.0682 -0.0574  0.6860
  265MOL0     C34859   5.002   5.080   1.549  0.0695  0.3499 -1.2057
  265MOL0     C34860   4.890   5.157   1.610  0.0271  0.4089 -0.0989
  265MOL0     C34861   4.843   5.114   1.748  0.2566 -0.0341 -0.2410
  265MOL0     C34862   4.955   5.040   1.828 -0.0174  0.4114  0.6321
  265MOL0     C34863   4.918   5.021   1.973  0.2700  0.1450  0.2617
  265MOL0     C34864   5.031   4.942   2.035 -0.3058  0.4090 -0.6377
  265MOL0     N34865   5.007   4.940   2.181 -0.1276 -0.3067  0.0134
  265MOL0     C34866   5.042   5.038   2.275 -0.5729  0.5215  0.2332
  265MOL0     C34867   5.012   4.983   2.395  0.3656 -0.1752  1.0182
  265MOL0     C34868   5.037   5.045   2.533 -0.3792 -0.0646  0.7979
  265MOL0     C34869   5.183   5.046   2.577  0.0868  0.2645 -0.6535
  265MOL0     C34870   5.194   5.099   2.724  0.3939  1.1013 -0.0847
  265MOL0     C34871   5.332   5.052   2.780  0.3417 -0.9664  0.4431
  265MOL0     O34872   5.419   5.127   2.707 -0.5981  0.3706  0.4387
  265MOL0     C34873   5.561   5.104   2.731 -0.1753 -0.0403 -0.0294
  265MOL0     C34874   5.614   5.004   2.824  0.4185 -0.1858  0.8805
  265MOL0     C34875   5.746   4.994   2.833 -0.4197 -0.1563  0.2456
  265MOL0     C34876   5.829   5.099   2.786 -0.1599 -0.8108  0.5745
  265MOL0     C34877   5.979   5.095   2.818  0.3712 -0.5122 -0.4752
  265MOL0     O34878   6.051   5.204   2.769  0.3660 -0.1322 -0.1904
  265MOL0     C34879   6.171   5.224   2.828  0.3706  0.0681 -0.1713
  265MOL0     C34880   6.273   5.242   2.736  0.4094 -0.5487 -0.1226
  265MOL0     C34881   6.403   5.264   2.773 -0.4665 -0.1634  0.3561
  265MOL0     C34882   6.443   5.259   2.901  0.5758 -0.3209  0.0275
  265MOL0     O34883   6.583   5.276   2.923  0.4731 -0.1798 -0.6381
  265MOL0     C34884   6.637   5.216   3.044 -0.6214  0.4179  0.5229
  265MOL0     C34885   6.789   5.252   3.068  0.4064 -0.6337  0.3293
  265MOL0     C34886   6.878   5.209   2.951 -0.0890  0.7760 -0.4340
  265MOL0     C34887   7.013   5.232   3.001  0.1129  0.2639  0.2677
  265MOL0     C34888   7.105   5.271   2.893 -0.3573 -0.6374  0.1979
  265MOL0     C34889   7.255   5.290   2.938  0.1078  0.0776 -0.3065
  265MOL0     C34890   7.349   5.319   2.831 -0.3251 -0.6066  0.8285
  265MOL0     C34891   7.487   5.341   2.884 -0.3668 -0.4790  0.4934
  265MOL0    Cl34892   7.590   5.346   2.733 -0.2869  0.1179  0.5976
  265MOL0     C34893   6.336   5.251   3.002 -0.3344  0.5400  0.6080
  265MOL0     C34894   6.209   5.222   2.964  0.3111 -0.4011  0.4638
  265MOL0     O34895   6.024   5.001   2.875  0.1443 -0.2463 -0.0519
  265MOL0     C34896   5.773   5.206   2.714 -0.1858  0.6904  0.2452
  265MOL0     C34897   5.642   5.200   2.673  0.1759  0.4585 -0.1392
  265MOL0     N34898   4.957   4.862   2.376  0.2607 -0.3394  0.2536
  265MOL0     N34899   4.941   4.842   2.248 -0.9824 -0.9777  0.3352
  265MOL0     C34900   5.364   5.040   1.166  0.4727 -0.1151  0.0401
  265MOL0     C34901   5.484   5.034   1.094 -0.4376 -0.3728  0.4138
  265MOL0     C34902   5.934   5.118   1.005 -0.3688 -0.5332  0.2181
  265MOL0     C34903   6.063   5.171   1.046  1.2405  0.2426 -0.1050
  265MOL0     C34904   6.162   5.193   0.962 -1.5408  0.5630  0.2929
  265MOL0     C34905   6.142   5.157   0.824 -0.3644  0.6536  0.2876
  265MOL0     O34906   6.259   5.176   0.739  0.1273 -0.0753 -0.2804
  265MOL0     C34907   6.236   5.185   0.605 -0.7114 -0.3475 -0.0361
  265MOL0     C34908   6.365   5.244   0.560  0.1578  0.4040 -0.4471
  265MOL0     C34909   6.476   5.141   0.571  0.1314 -0.2839  0.3027
  265MOL0     C34910   6.610   5.206   0.540  0.3503 -0.4356  0.5036
  265MOL0     C34911   6.613   5.234   0.395 -0.3012  0.0976 -0.4373
  265MOL0     C34912   6.618   5.238   0.274  0.1131 -0.3065 -1.2066
  265MOL0     C34913   6.017   5.096   0.785 -0.0921 -0.5754  0.0339
  265MOL0     C34914   5.915   5.066   0.875 -0.6996  0.7028  0.0090
  265MOL0     H34915   5.651   5.273   1.272 -0.9925  0.2614 -0.5870
  265MOL0     H34916   5.443   5.272   1.401  2.2309  2.3344 -1.3384
  265MOL0     H34917   5.120   4.956   1.339 -0.0713 -0.6877  1.2877
  265MOL0     H34918   5.110   5.091   1.215 -1.1576  3.1836  1.0542
  265MOL0     H34919   4.915   5.107   1.368 -1.4269 -0.7475  3.9312
  265MOL0     H34920   5.022   5.234   1.409 -0.2597 -0.0820 -1.7139
  265MOL0     H34921   5.099   5.080   1.599 -0.2876 -1.4675 -0.4231
  265MOL0     H34922   4.979   4.973   1.545  2.3507 -0.4579  2.6292
  265MOL0     H34923   4.916   5.263   1.611  0.6616  0.3278 -2.3411
  265MOL0     H34924   4.796   5.149   1.554 -2.3115  2.6088  3.1475
  265MOL0     H34925   4.762   5.040   1.741 -2.2917  2.5455  0.2028
  265MOL0     H34926   4.779   5.191   1.792 -1.6823 -2.1740  0.9372
  265MOL0     H34927   5.048   5.097   1.818 -0.1729  0.3795 -1.5489
  265MOL0     H34928   4.967   4.937   1.792  0.7060  0.4111  0.8460
  265MOL0     H34929   4.911   5.118   2.023  1.2600  0.1335  0.4531
  265MOL0     H34930   4.826   4.963   1.985 -0.3204  1.1283  0.6476
  265MOL0     H34931   5.125   4.991   2.009  0.0225  0.5963  0.8166
  265MOL0     H34932   5.030   4.836   2.010  0.0448  0.6018 -1.5007
  265MOL0     H34933   5.093   5.130   2.248 -1.4558  0.6224 -1.1958
  265MOL0     H34934   4.976   4.990   2.606  3.5556 -2.4528  2.6791
  265MOL0     H34935   4.985   5.140   2.530 -3.5389 -1.5805  2.3813
  265MOL0     H34936   5.244   5.103   2.506  2.0028 -2.2945 -1.2102
  265MOL0     H34937   5.205   4.939   2.577 -4.9928 -1.0448  0.1402
  265MOL0     H34938   5.174   5.206   2.711 -0.1043  0.8399 -1.6641
  265MOL0     H34939   5.110   5.066   2.785  0.3231 -1.9575 -1.6502
  265MOL0     H34940   5.342   4.944   2.762 -2.3544 -1.3067  0.5133
  265MOL0     H34941   5.340   5.070   2.887 -1.0612 -0.0562  0.4208
  265MOL0     H34942   5.552   4.925   2.866  1.4235 -1.9000 -0.6950
  265MOL0     H34943   5.784   4.908   2.886 -3.4196 -2.2703 -0.7695
  265MOL0     H34944   6.251   5.243   2.630 -2.2974  2.0449  0.3283
  265MOL0     H34945   6.476   5.273   2.693  3.2753 -1.9633  3.2514
  265MOL0     H34946   6.620   5.109   3.034  0.5079  0.4345 -5.4336
  265MOL0     H34947   6.594   5.259   3.135  2.9849  2.5343  1.4123
  265MOL0     H34948   6.834   5.208   3.158  1.9749 -0.1087 -0.1511
  265MOL0     H34949   6.800   5.360   3.079 -0.1671 -0.6723  1.3602
  265MOL0     H34950   6.852   5.276   2.868  0.2098  1.3589 -0.0622
  265MOL0     H34951   6.857   5.105   2.922  0.6608  0.0606  1.4073
  265MOL0     H34952   7.011   5.317   3.070 -1.5893 -0.5214  1.2673
  265MOL0     H34953   7.052   5.142   3.049 -1.7870 -0.0400  1.3513
  265MOL0     H34954   7.075   5.366   2.847  1.7590 -0.2403 -0.5060
  265MOL0     H34955   7.101   5.191   2.819 -5.0870 -2.5227  2.1287
  265MOL0     H34956   7.283   5.195   2.984  0.0227  0.0907 -0.2261
  265MOL0     H34957   7.271   5.374   3.008 -2.3681 -0.0337  0.4795
  265MOL0     H34958   7.360   5.232   2.766  0.5703 -0.2633  0.5168
  265MOL0     H34959   7.313   5.403   2.770  1.5121 -0.4882 -0.1411
  265MOL0     H34960   7.528   5.260   2.945  1.6838 -0.5511 -0.8951
  265MOL0     H34961   7.495   5.430   2.947 -0.9822 -1.1430  1.5472
  265MOL0     H34962   6.369   5.253   3.106 -0.1849 -0.0269  0.5788
  265MOL0     H34963   6.126   5.211   3.034  1.1936 -2.2747  1.2842
  265MOL0     H34964   5.834   5.290   2.681  2.4358 -0.9068  0.7034
  265MOL0     H34965   5.587   5.271   2.612 -2.1877  0.5969  1.9660
  265MOL0     H34966   5.295   4.964   1.132  0.3105  0.5507 -1.1748
  265MOL0     H34967   5.485   4.972   1.004  3.0637 -0.5067  0.4069
  265MOL0     H34968   6.073   5.203   1.149  0.7711 -1.4539  0.4978
  265MOL0     H34969   6.257   5.224   1.004 -1.4878 -2.3916  2.7586
  265MOL0     H34970   6.152   5.247   0.573 -1.0037 -0.5363  0.3682
  265MOL0     H34971   6.228   5.082   0.569  1.0616 -0.8252  0.8504
  265MOL0     H34972   6.361   5.266   0.453 -2.1349  1.8501 -0.1333
  265MOL0     H34973   6.397   5.332   0.618  3.6971  0.1141 -1.7634
  265MOL0     H34974   6.457   5.054   0.507  0.7782  1.6082 -2.6778
  265MOL0     H34975   6.479   5.102   0.673 -0.3129  3.1024  1.7485
  265MOL0     H34976   6.609   5.294   0.605 -1.9315 -0.4829  0.5776
  265MOL0     H34977   6.684   5.131   0.571 -0.9550 -0.6747  3.2380
  265MOL0     H34978   6.608   5.243   0.168 -1.9251 -2.4805 -1.1900
  265MOL0     H34979   5.996   5.056   0.687  1.4127  1.8634 -1.3912
  265MOL0     H34980   5.832   5.002   0.847 -1.5473  1.1382  1.4646
  266MOL0     O34981   2.554   3.278  10.116 -0.3841  0.2006 -0.4431
  266MOL0     C34982   2.616   3.381  10.118  0.5517 -0.3058 -0.3773
  266MOL0     O34983   2.570   3.506  10.070 -0.5480  0.2508 -0.0099
  266MOL0     C34984   2.437   3.510  10.076 -0.2993 -0.3382 -0.1968
  266MOL0     C34985   2.365   3.496   9.962  0.0471 -0.0301 -0.3512
  266MOL0     C34986   2.229   3.468   9.964  0.8676 -0.3127  0.3732
  266MOL0     C34987   2.158   3.468  10.081 -0.1134 -0.6482 -0.1474
  266MOL0     O34988   2.023   3.449  10.084 -0.7946  0.1431 -0.2519
  266MOL0     C34989   1.944   3.538  10.013  0.4075  0.1551  0.1023
  266MOL0     C34990   1.854   3.612  10.113 -0.5962 -0.8725 -0.3843
  266MOL0     C34991   1.786   3.742  10.047  0.3582 -0.2030 -1.2473
  266MOL0     C34992   1.641   3.727  10.005 -0.1514 -1.1640 -0.4009
  266MOL0     C34993   1.612   3.812   9.885  0.2093  0.2209 -1.0209
  266MOL0     C34994   1.462   3.816   9.853  0.5087  0.0230  0.3600
  266MOL0     C34995   1.431   3.926   9.751  0.5022  0.3627  0.5112
  266MOL0     C34996   1.292   3.910   9.701 -0.4999  0.5227  0.1517
  266MOL0     N34997   1.194   3.898   9.808  0.5793  0.2947 -0.6083
  266MOL0     C34998   1.164   3.995   9.900 -0.1313 -0.0856 -0.5322
  266MOL0     C34999   1.034   3.979   9.931  0.6377  0.4053 -0.2441
  266MOL0     C35000   0.937   4.073  10.012  0.8223  0.1273  0.2664
  266MOL0     C35001   0.822   4.137   9.931  0.0767  0.5713 -0.1394
  266MOL0     C35002   0.741   4.032   9.856 -0.5748 -0.9095  0.7979
  266MOL0     C35003   0.669   3.926   9.940  0.7183 -0.1640 -0.0051
  266MOL0     O35004   0.579   3.975  10.038 -0.1820 -0.1362 -0.7419
  266MOL0     C35005   0.457   4.009  10.010  0.4831 -0.5336  0.4882
  266MOL0     C35006   0.386   3.996   9.884  0.2673  0.9002 -0.4422
  266MOL0     C35007   0.250   4.022   9.881 -0.4577 -0.7761  0.0955
  266MOL0     C35008   0.182   4.083   9.987  0.2687  0.5066 -0.0479
  266MOL0     C35009   0.035   4.103   9.976 -0.4195  0.5906 -0.7243
  266MOL0     O35010  -0.027   4.064   9.857 -0.0292  0.9028 -0.3206
  266MOL0     C35011  -0.161   4.081   9.853  0.7328 -1.0849  0.1768
  266MOL0     C35012  -0.240   3.991   9.917  0.8087 -0.1719 -0.2327
  266MOL0     C35013  -0.378   3.988   9.906 -0.0315 -0.7373  0.3509
  266MOL0     C35014  -0.440   4.073   9.816  0.3163 -0.5098  0.3049
  266MOL0     O35015  -0.572   4.061   9.812  0.0422  0.2594  0.4177
  266MOL0     C35016  -0.647   4.154   9.729  0.8030 -0.5169  1.1330
  266MOL0     C35017  -0.790   4.153   9.770 -0.2303  0.2856 -0.6933
  266MOL0     C35018  -0.892   4.063   9.702  0.2193  0.4024  0.7557
  266MOL0     C35019  -1.034   4.130   9.710  1.0924 -0.7281  0.0422
  266MOL0     C35020  -1.154   4.058   9.640  0.2124 -0.0096  0.2270
  266MOL0     C35021  -1.298   4.100   9.683 -0.5419  0.5622  0.3286
  266MOL0     C35022  -1.403   3.996   9.630 -0.0124  0.5170  0.9755
  266MOL0     C35023  -1.531   4.043   9.681  0.5350 -0.6370  0.0255
  266MOL0    Cl35024  -1.586   4.186   9.602  0.2372 -0.4973 -0.6510
  266MOL0     C35025  -0.362   4.163   9.735  0.5064 -0.0506  0.0572
  266MOL0     C35026  -0.223   4.160   9.760 -0.0803  0.0397 -0.9146
  266MOL0     O35027  -0.019   4.147  10.075 -0.1080  0.3475 -0.0908
  266MOL0     C35028   0.250   4.099  10.108 -0.0555 -0.1621 -0.3017
  266MOL0     C35029   0.384   4.058  10.119 -0.9039 -0.9783 -0.3855
  266MOL0     N35030   0.993   3.856   9.877 -0.0149 -0.6428 -0.4881
  266MOL0     N35031   1.082   3.820   9.800 -0.8918  0.3242  0.2204
  266MOL0     C35032   2.225   3.499  10.201  0.0825 -0.4228  0.8494
  266MOL0     C35033   2.369   3.514  10.197 -0.1372  0.1670  0.7896
  266MOL0     C35034   2.767   3.369  10.158  0.1512  0.5151  0.3885
  266MOL0     C35035   2.859   3.464  10.120  0.2725  0.4090  0.7599
  266MOL0     C35036   2.988   3.459  10.162 -0.1824  0.2636 -0.1346
  266MOL0     C35037   3.036   3.346  10.228  0.4421 -0.6452 -1.1527
  266MOL0     O35038   3.173   3.345  10.271  0.7398  0.4402 -0.2328
  266MOL0     C35039   3.260   3.402  10.169 -0.7683  0.1080  0.0674
  266MOL0     C35040   3.403   3.357  10.190 -0.0331  0.4339  0.8563
  266MOL0     C35041   3.420   3.205  10.207  0.5178  1.0430  0.3032
  266MOL0     C35042   3.571   3.183  10.221 -0.0457 -0.2711 -0.0142
  266MOL0     C35043   3.650   3.183  10.092 -0.2225 -0.1798  0.4585
  266MOL0     C35044   3.722   3.196   9.994 -0.1849  1.2731  0.4666
  266MOL0     C35045   2.949   3.244  10.241 -0.0342  0.9293  0.1607
  266MOL0     C35046   2.811   3.253  10.208 -0.5153 -1.0448 -0.6367
  266MOL0     H35047   2.417   3.483   9.868  0.6975 -1.3002  0.1654
  266MOL0     H35048   2.178   3.441   9.873 -1.8169  5.1173 -0.1168
  266MOL0     H35049   1.872   3.492   9.944  0.6685  0.8106 -0.6170
  266MOL0     H35050   2.008   3.611   9.964  1.3255 -0.1879  0.7601
  266MOL0     H35051   1.915   3.633  10.201 -2.9333 -0.0704  1.1336
  266MOL0     H35052   1.773   3.552  10.155  0.0673  0.2858  2.8618
  266MOL0     H35053   1.847   3.760   9.958  0.7423 -1.4780 -1.2561
  266MOL0     H35054   1.796   3.831  10.111  2.6502  0.5296 -2.4874
  266MOL0     H35055   1.616   3.622   9.986  1.6600 -2.1580  2.0788
  266MOL0     H35056   1.574   3.746  10.090  4.1435 -4.7239  4.4468
  266MOL0     H35057   1.658   3.765   9.797 -1.0154 -0.6989 -1.1849
  266MOL0     H35058   1.650   3.913   9.907  2.3886 -1.0965  1.9887
  266MOL0     H35059   1.406   3.852   9.940  2.1870  1.8530  0.7636
  266MOL0     H35060   1.424   3.724   9.809 -0.5478  0.8304 -0.4546
  266MOL0     H35061   1.440   4.022   9.803 -0.7134  1.2255 -0.7951
  266MOL0     H35062   1.495   3.938   9.663 -3.5473 -0.9262 -2.9314
  266MOL0     H35063   1.292   3.818   9.642  3.0462 -0.7657  1.8920
  266MOL0     H35064   1.259   4.000   9.647 -0.0570  1.8379  1.9584
  266MOL0     H35065   1.236   4.075   9.910  3.2367 -2.5051 -2.9187
  266MOL0     H35066   0.992   4.156  10.057  2.5614 -3.1498  4.8840
  266MOL0     H35067   0.898   4.013  10.095  0.1362 -1.3670 -1.0878
  266MOL0     H35068   0.875   4.201   9.859  1.0639 -0.5942 -0.4746
  266MOL0     H35069   0.758   4.194   9.998 -0.0471  0.9350 -0.5597
  266MOL0     H35070   0.675   4.101   9.802 -1.3034 -2.0327  0.1965
  266MOL0     H35071   0.812   3.990   9.784  0.8398  2.8626 -0.2574
  266MOL0     H35072   0.751   3.878   9.994  0.1936 -0.7228  0.3056
  266MOL0     H35073   0.623   3.847   9.879 -0.4003  0.7268 -0.3449
  266MOL0     H35074   0.435   3.940   9.806  4.0906  2.2009  0.7944
  266MOL0     H35075   0.189   3.996   9.795  0.6228 -2.3160 -0.2405
  266MOL0     H35076  -0.185   3.922   9.980 -0.0399  1.8318  2.9472
  266MOL0     H35077  -0.428   3.919   9.974 -0.4529 -0.2329  0.5510
  266MOL0     H35078  -0.631   4.127   9.624 -0.7025  1.6464  0.2790
  266MOL0     H35079  -0.604   4.255   9.730  1.3433 -0.7405  1.2821
  266MOL0     H35080  -0.837   4.252   9.775 -2.6084 -0.8287  1.4948
  266MOL0     H35081  -0.784   4.116   9.873 -0.7478  0.9311 -0.4210
  266MOL0     H35082  -0.883   3.963   9.746 -0.2105 -0.3190 -0.7336
  266MOL0     H35083  -0.870   4.058   9.595 -2.0763  1.0592  0.1887
  266MOL0     H35084  -1.064   4.122   9.814  0.0448  0.5838 -0.1397
  266MOL0     H35085  -1.034   4.237   9.685  0.0373 -0.7999 -0.2937
  266MOL0     H35086  -1.133   3.953   9.664 -2.0343 -0.1702  1.7024
  266MOL0     H35087  -1.151   4.065   9.531 -0.5957 -0.3307  0.1757
  266MOL0     H35088  -1.324   4.199   9.645  5.3777  2.4367  0.1609
  266MOL0     H35089  -1.299   4.108   9.792  0.0743 -0.2346  0.4059
  266MOL0     H35090  -1.403   3.992   9.521  3.6879 -0.0732  0.8857
  266MOL0     H35091  -1.382   3.894   9.666 -0.9548  1.1780  3.6383
  266MOL0     H35092  -1.526   4.053   9.790  0.0868 -0.5965  0.0440
  266MOL0     H35093  -1.604   3.965   9.658 -0.1952 -0.0787  0.3700
  266MOL0     H35094  -0.404   4.231   9.660 -0.1907 -0.1948  0.3036
  266MOL0     H35095  -0.149   4.217   9.703  2.1371 -1.5888  0.2031
  266MOL0     H35096   0.214   4.133  10.205  0.7244 -0.9697  0.2763
  266MOL0     H35097   0.441   4.084  10.207  1.0487  1.0712 -2.1193
  266MOL0     H35098   2.174   3.511  10.296  0.0593 -0.6204  0.8622
  266MOL0     H35099   2.441   3.509  10.279  1.6499  0.9155 -0.6480
  266MOL0     H35100   2.838   3.552  10.061  3.3240  0.6163 -0.1509
  266MOL0     H35101   3.048   3.550  10.164 -0.5465  0.4920  0.7310
  266MOL0     H35102   3.272   3.511  10.173 -0.1515  0.0711 -0.5874
  266MOL0     H35103   3.220   3.369  10.073  1.6850  0.6126 -1.2231
  266MOL0     H35104   3.444   3.393  10.096  0.0216  2.0142  1.4607
  266MOL0     H35105   3.451   3.407  10.275  4.8237  0.6522 -1.6694
  266MOL0     H35106   3.369   3.155  10.123  0.8462  0.3516  0.5084
  266MOL0     H35107   3.389   3.175  10.307  1.6050  0.5918  0.5194
  266MOL0     H35108   3.607   3.268  10.280 -1.6437  0.4507 -0.0005
  266MOL0     H35109   3.585   3.091  10.278 -2.5171 -0.8268 -0.1831
  266MOL0     H35110   3.798   3.189   9.918 -0.9177  1.0649 -0.2683
  266MOL0     H35111   2.996   3.155  10.281 -0.6457  0.5541  0.0623
  266MOL0     H35112   2.749   3.166  10.230 -2.4900  0.7884  1.7466
  267MOL0     O35113   3.208   3.783   8.753  0.5045 -0.0655 -0.2049
  267MOL0     C35114   3.289   3.849   8.688 -0.2823 -0.6088 -0.9413
  267MOL0     O35115   3.266   3.978   8.633 -0.2322 -0.3457  0.5167
  267MOL0     C35116   3.138   4.024   8.614  0.1337 -0.4983  0.4062
  267MOL0     C35117   3.015   3.963   8.625 -0.1331 -0.2542 -0.3302
  267MOL0     C35118   2.889   4.031   8.612 -0.6287  0.1898 -0.7656
  267MOL0     C35119   2.887   4.172   8.581 -0.4755  0.3454 -0.1432
  267MOL0     O35120   2.780   4.240   8.548 -0.3280  0.0788  0.1413
  267MOL0     C35121   2.662   4.215   8.620  0.4261 -0.6247  0.4117
  267MOL0     C35122   2.562   4.310   8.568  0.3036 -0.1830  0.3741
  267MOL0     C35123   2.424   4.289   8.640  0.1230 -0.3314 -0.2654
  267MOL0     C35124   2.352   4.154   8.583 -0.2033 -0.2536  0.2662
  267MOL0     C35125   2.210   4.120   8.625  0.4248 -0.1748  0.8918
  267MOL0     C35126   2.105   4.218   8.571 -0.0701 -0.0665  0.9377
  267MOL0     C35127   1.969   4.185   8.651  0.2727 -0.5209 -0.0573
  267MOL0     C35128   1.848   4.255   8.571 -0.4873 -0.3267  0.1896
  267MOL0     N35129   1.844   4.406   8.584 -0.0814  0.3119 -0.5949
  267MOL0     C35130   1.934   4.494   8.531 -0.6837 -1.0019  0.3519
  267MOL0     C35131   1.899   4.615   8.586 -0.7048  1.3997 -0.8946
  267MOL0     C35132   1.974   4.744   8.562 -0.1451  0.2079  0.4751
  267MOL0     C35133   2.098   4.753   8.654  0.6281  0.7364 -0.1727
  267MOL0     C35134   2.183   4.872   8.638 -0.1229  0.3705 -0.9289
  267MOL0     C35135   2.245   4.894   8.495 -0.3123  0.3548  0.1308
  267MOL0     O35136   2.334   4.780   8.456 -1.1018  0.5446  0.5306
  267MOL0     C35137   2.455   4.797   8.507  0.0724  0.6409  0.0761
  267MOL0     C35138   2.537   4.688   8.467 -0.1445  0.3669  0.3602
  267MOL0     C35139   2.677   4.691   8.495  0.2704 -0.2976 -0.1857
  267MOL0     C35140   2.731   4.786   8.589 -0.0506 -0.5638 -0.2269
  267MOL0     C35141   2.864   4.779   8.638 -0.9827 -0.2094  0.0257
  267MOL0     O35142   2.945   4.687   8.574 -0.0371 -0.1200 -0.0211
  267MOL0     C35143   3.077   4.700   8.591 -0.2880 -0.8548 -0.8462
  267MOL0     C35144   3.145   4.588   8.617  0.5536  0.3543 -0.2850
  267MOL0     C35145   3.285   4.574   8.624  0.2035 -0.3583 -0.0728
  267MOL0     C35146   3.358   4.692   8.631  0.4438 -0.6322  0.1907
  267MOL0     O35147   3.496   4.685   8.648  0.6143  0.7064  0.0037
  267MOL0     C35148   3.554   4.671   8.510  0.2658 -0.0067  1.6166
  267MOL0     C35149   3.692   4.733   8.490 -0.5021 -0.8041 -0.6424
  267MOL0     C35150   3.818   4.648   8.544 -0.7315  0.9243  1.0057
  267MOL0     C35151   3.806   4.591   8.683 -0.1914 -0.3496  0.3716
  267MOL0     C35152   3.914   4.480   8.702  0.3009 -0.3071 -0.2489
  267MOL0     C35153   4.054   4.517   8.672  0.6823  0.2694  0.3803
  267MOL0     C35154   4.119   4.609   8.775 -0.3671  0.7404  0.3853
  267MOL0     C35155   4.243   4.690   8.731 -0.3680  0.7954  0.0862
  267MOL0    Cl35156   4.200   4.851   8.664 -0.1734 -0.3079 -0.2707
  267MOL0     C35157   3.290   4.815   8.593 -0.0427  0.1504  0.1383
  267MOL0     C35158   3.152   4.826   8.580  0.1756  0.2562  0.4969
  267MOL0     O35159   2.903   4.851   8.731 -0.5392 -0.4848  0.0246
  267MOL0     C35160   2.644   4.875   8.648  0.2156 -0.3948  0.8534
  267MOL0     C35161   2.515   4.893   8.593  0.3840 -0.3647 -0.3882
  267MOL0     N35162   1.812   4.585   8.689  0.2999 -0.2493  0.2901
  267MOL0     N35163   1.784   4.462   8.691  0.1306  0.5512 -0.0558
  267MOL0     C35164   3.012   4.233   8.563  0.5187  0.3485 -0.6251
  267MOL0     C35165   3.132   4.161   8.587 -0.1660  0.2897 -0.3419
  267MOL0     C35166   3.429   3.808   8.694 -0.8465  0.4418  0.3983
  267MOL0     C35167   3.538   3.887   8.647 -0.2518 -0.1139 -0.0524
  267MOL0     C35168   3.665   3.826   8.649  0.0055 -1.2143 -0.7054
  267MOL0     C35169   3.697   3.699   8.688  0.3804 -0.5967 -0.2286
  267MOL0     O35170   3.821   3.637   8.671  0.1632 -0.5452  0.6209
  267MOL0     C35171   3.878   3.575   8.793 -0.6580  0.8476  0.3272
  267MOL0     C35172   3.994   3.485   8.763  1.2201 -0.4148 -0.0050
  267MOL0     C35173   4.027   3.401   8.883 -0.3694 -0.3271  0.4830
  267MOL0     C35174   4.116   3.486   8.980  0.0454 -0.3800 -0.1264
  267MOL0     C35175   4.260   3.468   8.944  0.3321  0.3004  0.5914
  267MOL0     C35176   4.372   3.454   8.924 -0.5975  0.6853  0.7428
  267MOL0     C35177   3.580   3.629   8.746  0.2755  0.3796  0.8605
  267MOL0     C35178   3.448   3.678   8.744 -0.4235 -0.1059  0.4222
  267MOL0     H35179   3.010   3.860   8.657 -0.9798 -0.0807  0.1524
  267MOL0     H35180   2.800   3.975   8.636  0.4372  0.1646  4.2659
  267MOL0     H35181   2.670   4.234   8.728 -2.3844  1.7474  0.3224
  267MOL0     H35182   2.624   4.113   8.606  1.1234 -1.1214  1.8630
  267MOL0     H35183   2.540   4.297   8.462 -2.4935 -0.7572  0.9568
  267MOL0     H35184   2.589   4.416   8.582  1.2131 -0.2926 -0.4100
  267MOL0     H35185   2.373   4.385   8.627  0.9169  0.0512 -0.6393
  267MOL0     H35186   2.431   4.283   8.749 -0.3707 -0.1022 -0.2196
  267MOL0     H35187   2.356   4.158   8.474 -1.3575 -1.6151  0.1460
  267MOL0     H35188   2.409   4.069   8.622  0.3645  0.1667  0.3565
  267MOL0     H35189   2.210   4.111   8.734 -0.6693  0.7319  0.9864
  267MOL0     H35190   2.198   4.020   8.582  1.4255  1.0148 -2.5299
  267MOL0     H35191   2.079   4.213   8.465  0.5296  0.2014  0.7795
  267MOL0     H35192   2.141   4.320   8.585  1.3144 -0.2489 -0.9950
  267MOL0     H35193   1.952   4.079   8.670  0.1052 -0.2549  1.3645
  267MOL0     H35194   1.970   4.226   8.752  4.1092 -2.5193  0.8763
  267MOL0     H35195   1.754   4.216   8.611 -1.4399  0.1205 -1.4999
  267MOL0     H35196   1.861   4.229   8.466 -2.6550 -0.9352  0.0256
  267MOL0     H35197   2.009   4.480   8.454  1.0904  0.6257  1.6900
  267MOL0     H35198   1.917   4.832   8.595 -1.9351 -1.5472  2.3444
  267MOL0     H35199   2.013   4.765   8.462  2.3761 -1.2438  1.0590
  267MOL0     H35200   2.156   4.661   8.641 -1.9079 -0.8908 -0.6920
  267MOL0     H35201   2.057   4.736   8.754  1.3073 -3.5718 -0.4363
  267MOL0     H35202   2.112   4.952   8.664  0.5064  0.2034  1.5069
  267MOL0     H35203   2.261   4.870   8.714 -0.3272 -3.7270 -0.6276
  267MOL0     H35204   2.301   4.988   8.486  0.0801  0.3722  2.2288
  267MOL0     H35205   2.160   4.919   8.432  0.3204  0.1209 -0.8411
  267MOL0     H35206   2.499   4.611   8.401  1.5275 -1.7233  1.7284
  267MOL0     H35207   2.739   4.611   8.455 -1.0698 -2.5643  2.0014
  267MOL0     H35208   3.095   4.493   8.634 -0.7343  0.9824 -0.4089
  267MOL0     H35209   3.326   4.474   8.634  0.7012 -0.2696 -1.0925
  267MOL0     H35210   3.488   4.709   8.433  0.9549 -2.3547 -0.2586
  267MOL0     H35211   3.563   4.565   8.483  1.7559 -0.0360  2.1125
  267MOL0     H35212   3.693   4.834   8.532  0.8577 -1.5514  1.2764
  267MOL0     H35213   3.698   4.739   8.381 -2.1193  3.1795 -0.6734
  267MOL0     H35214   3.906   4.710   8.530  1.5867 -2.5910 -1.6715
  267MOL0     H35215   3.828   4.563   8.476 -0.6768  1.7778 -0.0708
  267MOL0     H35216   3.825   4.669   8.757  0.8991  0.0659 -0.3182
  267MOL0     H35217   3.706   4.550   8.697  0.3192 -3.1780 -3.0727
  267MOL0     H35218   3.892   4.395   8.636  0.1164  0.3035 -0.9915
  267MOL0     H35219   3.928   4.438   8.802 -0.1932 -1.5245 -0.6630
  267MOL0     H35220   4.066   4.556   8.570 -1.1014  3.4632  1.2461
  267MOL0     H35221   4.109   4.424   8.683 -3.9846 -2.6191  1.8127
  267MOL0     H35222   4.040   4.675   8.813 -1.6874  0.8338 -2.2496
  267MOL0     H35223   4.160   4.540   8.849 -1.9550 -0.1430  0.4848
  267MOL0     H35224   4.288   4.629   8.652 -0.3095 -1.6272  1.9017
  267MOL0     H35225   4.323   4.694   8.806 -2.3261  1.6664  2.2440
  267MOL0     H35226   3.351   4.905   8.595 -0.3453  0.3491  1.3730
  267MOL0     H35227   3.093   4.911   8.548  0.3735  0.0320 -0.5169
  267MOL0     H35228   2.688   4.942   8.721 -0.4690 -1.0858  1.9125
  267MOL0     H35229   2.463   4.976   8.639  0.4749 -0.5420  0.0400
  267MOL0     H35230   3.012   4.339   8.541  2.1786  0.5876  0.3969
  267MOL0     H35231   3.228   4.210   8.575 -1.0771  2.4871  0.8089
  267MOL0     H35232   3.528   3.990   8.612 -1.1468 -0.2699 -0.2729
  267MOL0     H35233   3.746   3.881   8.601 -1.1196 -2.1009 -3.8328
  267MOL0     H35234   3.800   3.524   8.850 -0.0887 -0.7057 -0.2427
  267MOL0     H35235   3.915   3.656   8.857 -0.7537 -0.0692  1.5979
  267MOL0     H35236   3.966   3.411   8.688  1.1476 -0.6254  0.2267
  267MOL0     H35237   4.080   3.538   8.720  0.0467 -0.1865 -2.1843
  267MOL0     H35238   4.081   3.314   8.844 -0.3558 -0.9275  1.8108
  267MOL0     H35239   3.943   3.360   8.939  2.3794 -0.4630  4.9983
  267MOL0     H35240   4.093   3.592   8.972 -1.1192 -0.7256 -2.2829
  267MOL0     H35241   4.110   3.450   9.083  0.2366 -2.0283 -0.6597
  267MOL0     H35242   4.478   3.464   8.909 -0.2836  1.8988  3.1026
  267MOL0     H35243   3.585   3.523   8.766 -0.8905  0.6192  2.7779
  267MOL0     H35244   3.380   3.601   8.780  0.4538 -0.9248  0.3587
  268MOL0     O35245   8.146  11.084   0.850 -0.4542  0.7349  0.0284
  268MOL0     C35246   8.118  11.180   0.780 -0.2657  0.4437  0.1539
  268MOL0     O35247   8.129  11.308   0.813 -1.0556 -0.5589 -0.1787
  268MOL0     C35248   8.218  11.328   0.920 -0.2810 -0.4555  0.0394
  268MOL0     C35249   8.339  11.399   0.901 -0.7704  0.1025  0.3522
  268MOL0     C35250   8.425  11.409   1.010 -1.2379  0.0800  0.1445
  268MOL0     C35251   8.380  11.376   1.139 -0.0163 -0.0694 -1.0249
  268MOL0     O35252   8.457  11.394   1.247 -0.3888  0.6365  0.3438
  268MOL0     C35253   8.558  11.298   1.261 -0.9939  0.9382 -0.7040
  268MOL0     C35254   8.694  11.342   1.200  0.1453  0.0634 -0.4511
  268MOL0     C35255   8.739  11.474   1.257 -0.5018 -0.2666  0.0299
  268MOL0     C35256   8.887  11.504   1.227  0.6935  0.1792 -0.6467
  268MOL0     C35257   8.987  11.389   1.241  0.7210  0.2183 -1.1724
  268MOL0     C35258   8.983  11.316   1.378  1.1567 -1.1507  0.0011
  268MOL0     C35259   9.107  11.221   1.388  0.5294  0.7910 -0.1935
  268MOL0     C35260   9.246  11.292   1.376  0.1498  0.0164 -0.2629
  268MOL0     N35261   9.260  11.401   1.464  0.5188  0.1029  0.3467
  268MOL0     C35262   9.274  11.384   1.597  0.1070  0.0120  0.1168
  268MOL0     C35263   9.293  11.510   1.654  0.1460 -0.3335  0.6116
  268MOL0     C35264   9.302  11.551   1.806 -0.3611  0.2608  0.5548
  268MOL0     C35265   9.164  11.574   1.863 -0.2951  0.6582 -0.1294
  268MOL0     C35266   9.085  11.449   1.882  1.2477 -0.2896 -0.4919
  268MOL0     C35267   8.966  11.477   1.975  0.0848  0.4079  1.1359
  268MOL0     O35268   8.866  11.539   1.897  1.1068 -0.5532 -0.0785
  268MOL0     C35269   8.733  11.536   1.928 -0.4928  0.1760  0.4204
  268MOL0     C35270   8.677  11.486   2.041 -0.7786  1.2796  0.1795
  268MOL0     C35271   8.549  11.489   2.076  0.2219 -0.6752  0.0487
  268MOL0     C35272   8.459  11.538   1.972 -0.1701 -0.3608 -0.8375
  268MOL0     C35273   8.309  11.550   2.001  0.0369 -0.7196 -0.2462
  268MOL0     O35274   8.233  11.624   1.913 -1.1410  0.1434  0.5595
  268MOL0     C35275   8.096  11.621   1.929 -0.1615  0.4575  0.5442
  268MOL0     C35276   8.027  11.717   2.000 -0.0562  0.4936  0.3024
  268MOL0     C35277   7.883  11.714   2.013 -0.2306 -1.0019  0.9529
  268MOL0     C35278   7.811  11.622   1.945  0.0845 -0.1865 -0.2900
  268MOL0     O35279   7.671  11.615   1.949  0.0320 -0.4595  0.4639
  268MOL0     C35280   7.602  11.737   1.976  0.7357  0.8071 -0.2255
  268MOL0     C35281   7.449  11.715   1.995  0.3444 -0.5366  0.1769
  268MOL0     C35282   7.359  11.839   1.993  0.5620 -0.1505  0.5900
  268MOL0     C35283   7.381  11.923   1.867  0.5473 -0.2625 -0.1303
  268MOL0     C35284   7.251  12.002   1.837 -0.5033 -0.6983 -0.4449
  268MOL0     C35285   7.210  12.094   1.945  0.4845 -0.7316  0.6133
  268MOL0     C35286   7.093  12.178   1.896  0.0089 -0.1212 -0.8798
  268MOL0     C35287   6.959  12.096   1.903  0.7689  0.0319 -0.1748
  268MOL0    Cl35288   6.895  12.104   2.072 -0.0398  0.5638 -0.0661
  268MOL0     C35289   7.878  11.525   1.877  0.3969  0.2112 -0.4244
  268MOL0     C35290   8.021  11.528   1.868  0.6642  0.9030 -0.0278
  268MOL0     O35291   8.259  11.503   2.102  0.2178  0.2038  0.2435
  268MOL0     C35292   8.505  11.586   1.856 -0.2985  0.1480  0.8601
  268MOL0     C35293   8.644  11.585   1.837 -0.4349  0.5201 -0.5516
  268MOL0     N35294   9.301  11.600   1.546 -0.5625 -0.7637 -0.4159
  268MOL0     N35295   9.270  11.531   1.440 -0.5029 -0.6153  0.5822
  268MOL0     C35296   8.248  11.331   1.158 -0.1834  0.3469  0.0222
  268MOL0     C35297   8.169  11.302   1.046 -1.0760 -0.0887 -0.0953
  268MOL0     C35298   8.058  11.144   0.646 -0.1956 -0.9096 -0.2055
  268MOL0     C35299   8.002  11.253   0.574 -0.3906  0.5795 -0.3640
  268MOL0     C35300   7.942  11.226   0.455  0.0475 -0.3051 -0.0013
  268MOL0     C35301   7.938  11.091   0.403 -0.4955  0.3586  0.1890
  268MOL0     O35302   7.888  11.048   0.275 -0.2139 -0.0889  0.0699
  268MOL0     C35303   7.838  11.148   0.182  0.8521  0.1798 -0.0033
  268MOL0     C35304   7.955  11.211   0.105  0.6621 -0.0537 -0.4138
  268MOL0     C35305   8.031  11.104   0.028 -1.1405 -0.8580  0.7117
  268MOL0     C35306   8.165  11.153  -0.024  0.4600  0.3659 -0.0518
  268MOL0     C35307   8.155  11.258  -0.126  0.2607 -0.0346  0.3137
  268MOL0     C35308   8.168  11.329  -0.218 -0.2555 -0.2040 -0.3334
  268MOL0     C35309   7.981  10.987   0.484  0.1647 -0.4485  0.2128
  268MOL0     C35310   8.056  11.010   0.601 -0.0262  0.1399  0.5159
  268MOL0     H35311   8.386  11.429   0.808  2.1143 -1.5298  1.1598
  268MOL0     H35312   8.522  11.456   1.002 -1.8134  1.3180  0.0670
  268MOL0     H35313   8.537  11.202   1.213  1.7047 -0.0625 -0.1035
  268MOL0     H35314   8.570  11.273   1.367  2.7004  1.3153 -0.9057
  268MOL0     H35315   8.687  11.350   1.091  1.7772 -3.2030 -0.9229
  268MOL0     H35316   8.767  11.262   1.214  2.2230  1.8650 -0.5062
  268MOL0     H35317   8.736  11.475   1.367  1.6231  2.1249  0.1610
  268MOL0     H35318   8.668  11.548   1.221 -1.2102 -0.8188  0.2696
  268MOL0     H35319   8.907  11.545   1.127 -3.5961 -0.2975 -1.9108
  268MOL0     H35320   8.918  11.574   1.305 -2.2561  1.2770 -0.3453
  268MOL0     H35321   9.084  11.432   1.216  0.0258  1.3784 -1.9911
  268MOL0     H35322   8.963  11.307   1.174 -1.8206 -2.4202  2.5199
  268MOL0     H35323   8.886  11.266   1.386 -0.0994  0.6872 -2.4961
  268MOL0     H35324   8.988  11.399   1.449  1.7106  0.2036 -1.5593
  268MOL0     H35325   9.094  11.182   1.489 -3.1468 -0.0539 -0.8484
  268MOL0     H35326   9.108  11.136   1.318  2.8018 -0.5537  1.3391
  268MOL0     H35327   9.258  11.315   1.270  1.5042 -2.2393 -0.6701
  268MOL0     H35328   9.326  11.218   1.387 -0.7095 -0.7547  1.0930
  268MOL0     H35329   9.277  11.291   1.653 -0.3489  0.9835  1.8481
  268MOL0     H35330   9.353  11.647   1.825 -0.3598 -0.0705  2.3700
  268MOL0     H35331   9.353  11.475   1.866 -0.1056 -0.2675 -0.3109
  268MOL0     H35332   9.119  11.639   1.788  1.8589  0.1190 -1.9910
  268MOL0     H35333   9.179  11.630   1.956 -1.0630 -1.4449  1.3269
  268MOL0     H35334   9.053  11.416   1.782  2.7375 -0.8819 -0.8036
  268MOL0     H35335   9.161  11.382   1.924 -0.3085 -0.5281  2.1026
  268MOL0     H35336   8.999  11.531   2.065  1.4755 -2.4737  2.5059
  268MOL0     H35337   8.937  11.377   2.007  1.1228 -0.3476 -0.1685
  268MOL0     H35338   8.753  11.460   2.113 -0.4719  1.2560 -0.1496
  268MOL0     H35339   8.506  11.465   2.173 -0.3891  1.9366  0.5024
  268MOL0     H35340   8.081  11.799   2.048 -0.1123  0.4388  0.4604
  268MOL0     H35341   7.850  11.795   2.078  0.6121 -0.5335  0.8089
  268MOL0     H35342   7.623  11.816   1.903 -0.7093  1.1686 -0.2836
  268MOL0     H35343   7.634  11.774   2.074 -0.2035 -0.5687  0.6505
  268MOL0     H35344   7.445  11.666   2.093 -1.9895 -0.2226  0.2868
  268MOL0     H35345   7.416  11.648   1.915 -1.5888 -1.4144  1.6273
  268MOL0     H35346   7.380  11.902   2.080 -3.9338 -0.8108  2.4018
  268MOL0     H35347   7.253  11.818   2.004  0.7814 -1.0263  1.0852
  268MOL0     H35348   7.466  11.992   1.875  0.0687  0.4593 -1.0372
  268MOL0     H35349   7.411  11.862   1.781 -2.1803 -1.5063 -0.2956
  268MOL0     H35350   7.177  11.922   1.828 -0.4818 -0.5758 -1.9987
  268MOL0     H35351   7.270  12.060   1.746 -1.2329 -0.1350 -0.2454
  268MOL0     H35352   7.288  12.158   1.987  0.0888 -1.2760  2.2533
  268MOL0     H35353   7.161  12.028   2.018 -0.1899  0.4810  1.2909
  268MOL0     H35354   7.080  12.266   1.959 -1.5628 -2.3275  2.1227
  268MOL0     H35355   7.116  12.201   1.791  2.1533 -0.6237 -0.5514
  268MOL0     H35356   6.974  11.991   1.879 -0.4159 -0.0140 -0.7528
  268MOL0     H35357   6.873  12.122   1.841 -1.6532  1.1524  3.3791
  268MOL0     H35358   7.826  11.444   1.827 -2.0185  0.9843  0.6663
  268MOL0     H35359   8.078  11.457   1.809 -0.2029 -0.0986  0.3105
  268MOL0     H35360   8.438  11.612   1.775 -0.2469 -1.1970  0.3665
  268MOL0     H35361   8.678  11.632   1.746  2.6409  2.3087  1.3481
  268MOL0     H35362   8.207  11.326   1.258  0.6039 -1.7471  0.2922
  268MOL0     H35363   8.068  11.262   1.044 -2.3714  2.8842 -2.2060
  268MOL0     H35364   8.029  11.352   0.610  3.2619 -1.2892  2.7483
  268MOL0     H35365   7.906  11.301   0.385 -3.1881 -1.3279  0.3966
  268MOL0     H35366   7.783  11.233   0.225 -0.3582 -0.6089  0.0505
  268MOL0     H35367   7.772  11.097   0.111  0.7092 -3.1962  2.2806
  268MOL0     H35368   7.921  11.288   0.035 -0.1222 -0.1831 -0.1821
  268MOL0     H35369   8.022  11.259   0.176  0.8853  0.3319 -0.8820
  268MOL0     H35370   7.963  11.080  -0.055  0.1715  0.0829 -0.6954
  268MOL0     H35371   8.045  11.016   0.092  0.5260  0.1044  1.7441
  268MOL0     H35372   8.233  11.198   0.049 -0.2216 -0.1988  0.9542
  268MOL0     H35373   8.217  11.064  -0.063  1.6970 -0.3100  2.8870
  268MOL0     H35374   8.168  11.411  -0.287 -0.4937  0.6369  0.6206
  268MOL0     H35375   7.999  10.894   0.430  0.8780  0.3880 -1.0307
  268MOL0     H35376   8.112  10.934   0.655 -0.2648 -0.6399 -0.3232
  269MOL0     O35377   3.900   4.007   1.247  0.7200 -0.1786  0.9192
  269MOL0     C35378   3.916   4.042   1.128  0.2411 -0.2626 -0.1741
  269MOL0     O35379   3.847   4.002   1.023 -0.6355 -0.2245 -0.1215
  269MOL0     C35380   3.724   3.939   1.037  0.3685 -0.8136  0.2309
  269MOL0     C35381   3.691   3.856   0.930  0.4373 -0.3336 -0.1493
  269MOL0     C35382   3.565   3.803   0.928 -1.0050 -0.8863  1.0224
  269MOL0     C35383   3.478   3.806   1.037 -0.3178  0.8112  0.1617
  269MOL0     O35384   3.374   3.711   1.035 -0.7006 -0.1205  0.1003
  269MOL0     C35385   3.303   3.675   1.152 -0.6371  0.9193 -0.6897
  269MOL0     C35386   3.178   3.597   1.110 -0.2186  0.3795  0.1380
  269MOL0     C35387   3.104   3.674   1.007 -1.0984 -0.0926 -0.7010
  269MOL0     C35388   2.959   3.637   1.008 -0.5938  0.6472 -0.0815
  269MOL0     C35389   2.870   3.726   0.913 -0.1159 -0.1093 -0.6100
  269MOL0     C35390   2.720   3.684   0.920 -0.2050  0.7077  0.3476
  269MOL0     C35391   2.635   3.801   0.856 -0.1998  1.1251 -1.7142
  269MOL0     C35392   2.605   3.797   0.712  0.2118  0.5936  0.9469
  269MOL0     N35393   2.543   3.662   0.678  0.7280  0.2402 -0.1239
  269MOL0     C35394   2.609   3.553   0.639  0.4487 -0.1209 -0.3985
  269MOL0     C35395   2.517   3.455   0.659 -0.3632  0.9788 -0.3724
  269MOL0     C35396   2.558   3.315   0.645  0.3647  0.4726  0.2298
  269MOL0     C35397   2.439   3.224   0.662 -0.0766  0.1914 -0.4124
  269MOL0     C35398   2.454   3.140   0.793 -0.4503  0.2698  0.3394
  269MOL0     C35399   2.362   3.023   0.786  0.5523  0.8456 -0.3902
  269MOL0     O35400   2.224   3.063   0.785  0.6065 -0.0198 -0.8027
  269MOL0     C35401   2.121   2.973   0.766  0.3069 -0.3295  0.4977
  269MOL0     C35402   2.131   2.839   0.781  0.0011  0.1949 -0.7103
  269MOL0     C35403   2.017   2.760   0.780 -0.1178  0.1086 -0.4732
  269MOL0     C35404   1.885   2.817   0.774  0.3552 -0.8605  0.2027
  269MOL0     C35405   1.765   2.736   0.777  0.9085 -0.2237 -0.8107
  269MOL0     O35406   1.649   2.783   0.721 -1.3582 -0.5191 -0.0946
  269MOL0     C35407   1.536   2.707   0.729  0.5998  0.0351  0.1355
  269MOL0     C35408   1.523   2.583   0.667 -0.2983 -0.2131 -0.1445
  269MOL0     C35409   1.405   2.513   0.667  0.1791  0.1655 -0.2951
  269MOL0     C35410   1.288   2.574   0.715  0.1619 -0.2111 -0.0722
  269MOL0     O35411   1.168   2.514   0.715  0.2779 -0.2208  0.3377
  269MOL0     C35412   1.122   2.441   0.594 -0.0408 -0.9534  0.2060
  269MOL0     C35413   0.983   2.406   0.574  0.7857  0.0216 -0.6642
  269MOL0     C35414   0.928   2.313   0.680 -0.2215  0.4304  0.5629
  269MOL0     C35415   0.782   2.270   0.654 -0.2110  0.1658  0.5661
  269MOL0     C35416   0.718   2.172   0.753 -1.1494 -0.1970 -0.9805
  269MOL0     C35417   0.577   2.135   0.703 -0.4028 -0.5461 -0.0247
  269MOL0     C35418   0.491   2.082   0.815  0.5833  0.3120 -0.4481
  269MOL0     C35419   0.383   1.990   0.761 -0.2837  0.0937 -0.9106
  269MOL0    Cl35420   0.465   1.854   0.698  0.5845  0.5059 -0.1731
  269MOL0     C35421   1.293   2.692   0.789  0.0087 -1.1824 -0.5938
  269MOL0     C35422   1.422   2.748   0.797  0.4110  0.3353 -0.1738
  269MOL0     O35423   1.768   2.637   0.850 -0.0416 -0.0195 -0.2076
  269MOL0     C35424   1.877   2.953   0.746  0.2151 -0.3657 -0.6191
  269MOL0     C35425   1.992   3.032   0.735  0.3256  0.4498 -0.2535
  269MOL0     N35426   2.394   3.501   0.701 -0.2143 -0.8938  0.1117
  269MOL0     N35427   2.412   3.629   0.708 -0.2883 -0.4191 -0.4281
  269MOL0     C35428   3.507   3.880   1.151 -1.0505  0.2700  0.3370
  269MOL0     C35429   3.638   3.940   1.151  0.0031 -0.6453  0.0179
  269MOL0     C35430   4.025   4.133   1.097 -0.1391 -0.0693  0.1388
  269MOL0     C35431   4.001   4.227   0.998  0.1761  0.9566  0.2291
  269MOL0     C35432   4.102   4.322   0.972 -0.1798 -0.2956 -0.0432
  269MOL0     C35433   4.230   4.314   1.033 -0.0735 -0.3863 -0.1790
  269MOL0     O35434   4.322   4.417   1.020 -0.1377 -0.4182 -0.3651
  269MOL0     C35435   4.455   4.381   0.975 -0.1980 -0.3033  0.2033
  269MOL0     C35436   4.517   4.503   0.902  0.0072 -0.1236  0.3706
  269MOL0     C35437   4.658   4.469   0.842 -0.0851  0.2764 -0.3260
  269MOL0     C35438   4.724   4.585   0.774  0.0121  0.3524  1.0707
  269MOL0     C35439   4.847   4.542   0.709  0.2159  0.5938  0.6144
  269MOL0     C35440   4.949   4.497   0.666  0.7249  0.0545 -0.2135
  269MOL0     C35441   4.247   4.205   1.125 -0.7931 -0.4085 -0.1782
  269MOL0     C35442   4.148   4.117   1.164  0.5664  0.5420  1.0040
  269MOL0     H35443   3.759   3.829   0.850  1.9823  0.6865  0.7598
  269MOL0     H35444   3.532   3.740   0.845  0.2013 -1.7563  1.1664
  269MOL0     H35445   3.280   3.760   1.216  0.3750  0.0771  0.8723
  269MOL0     H35446   3.361   3.606   1.214 -3.1393 -0.4760  0.2178
  269MOL0     H35447   3.122   3.588   1.203 -0.1528  1.6114  0.3190
  269MOL0     H35448   3.201   3.500   1.066 -0.1234  2.0506 -3.9956
  269MOL0     H35449   3.149   3.666   0.908  1.5232  0.1648  0.3924
  269MOL0     H35450   3.114   3.781   1.025 -1.8320  0.0256 -0.9527
  269MOL0     H35451   2.960   3.535   0.968  3.8095  0.9943 -1.2795
  269MOL0     H35452   2.918   3.629   1.109  0.3669  0.2164  0.2840
  269MOL0     H35453   2.910   3.710   0.813 -0.5504  0.7873 -0.9321
  269MOL0     H35454   2.873   3.830   0.946 -2.9198 -0.9470  3.0088
  269MOL0     H35455   2.693   3.688   1.026 -4.9111  2.8761 -0.6475
  269MOL0     H35456   2.716   3.586   0.873  1.6913  1.1406 -0.8043
  269MOL0     H35457   2.539   3.781   0.905  0.3565 -0.8393 -1.3168
  269MOL0     H35458   2.660   3.902   0.891 -0.1132  0.6356 -0.2879
  269MOL0     H35459   2.689   3.815   0.645  0.4695 -1.7936  0.5538
  269MOL0     H35460   2.527   3.867   0.679  0.2754 -0.0993 -0.7634
  269MOL0     H35461   2.712   3.521   0.626  0.0164 -1.8401  0.0344
  269MOL0     H35462   2.631   3.293   0.723  0.9301 -2.2204 -0.9311
  269MOL0     H35463   2.607   3.315   0.547  0.3975 -0.0949  0.2430
  269MOL0     H35464   2.440   3.169   0.568 -1.2695 -0.0912 -0.2780
  269MOL0     H35465   2.338   3.264   0.649 -0.1277 -0.5208 -2.4224
  269MOL0     H35466   2.557   3.115   0.820 -0.5505 -0.1466  0.3353
  269MOL0     H35467   2.417   3.196   0.879 -0.6401  0.9692 -0.1851
  269MOL0     H35468   2.375   2.965   0.878 -2.4458  0.2801 -0.2307
  269MOL0     H35469   2.382   2.952   0.706  0.6345 -3.4889  3.0747
  269MOL0     H35470   2.226   2.792   0.806 -0.8854 -1.2237  0.1444
  269MOL0     H35471   2.026   2.652   0.779 -1.1944  0.0044 -0.2573
  269MOL0     H35472   1.602   2.556   0.598  0.0244  1.8395 -0.6577
  269MOL0     H35473   1.402   2.408   0.638  1.4119  0.0664 -0.1160
  269MOL0     H35474   1.180   2.350   0.578  1.5186 -0.4245  2.4428
  269MOL0     H35475   1.138   2.508   0.509 -0.3883  0.5955  1.3105
  269MOL0     H35476   0.969   2.356   0.478  2.0319  2.3534 -2.1510
  269MOL0     H35477   0.922   2.496   0.565  0.4352 -0.3804 -2.6015
  269MOL0     H35478   0.950   2.354   0.779 -2.9873  3.4186  0.0953
  269MOL0     H35479   0.997   2.228   0.684 -2.4177 -1.4473  2.8307
  269MOL0     H35480   0.725   2.363   0.648 -0.2074  0.1563  0.3786
  269MOL0     H35481   0.774   2.228   0.553 -1.9578 -1.8249  1.4683
  269MOL0     H35482   0.710   2.213   0.854 -0.1599  1.3057 -1.4824
  269MOL0     H35483   0.772   2.076   0.755 -0.1779  0.3375 -1.1544
  269MOL0     H35484   0.581   2.068   0.616 -3.1014  0.5698 -1.1411
  269MOL0     H35485   0.531   2.229   0.670  0.9892 -0.1085 -0.8379
  269MOL0     H35486   0.550   2.027   0.888  0.8672 -0.3340 -1.1446
  269MOL0     H35487   0.442   2.167   0.863 -1.1068 -0.4778 -0.6750
  269MOL0     H35488   0.316   2.031   0.685 -3.4601  1.3411  2.2464
  269MOL0     H35489   0.328   1.945   0.844  0.9073 -2.1835 -1.2733
  269MOL0     H35490   1.198   2.727   0.830 -0.8530 -1.7097 -2.0630
  269MOL0     H35491   1.440   2.849   0.832  1.1063  0.5687 -1.1673
  269MOL0     H35492   1.783   3.007   0.738  1.3884  1.5754 -2.6737
  269MOL0     H35493   1.978   3.140   0.732  2.1417  0.7630  0.9463
  269MOL0     H35494   3.452   3.892   1.243 -2.4731  1.0734 -0.5714
  269MOL0     H35495   3.664   3.996   1.240  0.0073  2.9646 -2.0546
  269MOL0     H35496   3.908   4.233   0.943  1.3190  0.6296 -1.8463
  269MOL0     H35497   4.081   4.403   0.903 -0.3799 -1.9549 -2.0378
  269MOL0     H35498   4.447   4.292   0.912  1.5648 -0.3856  0.0397
  269MOL0     H35499   4.521   4.351   1.057 -1.7205 -1.8896  0.8951
  269MOL0     H35500   4.446   4.546   0.830  0.5437  1.0735  0.5341
  269MOL0     H35501   4.543   4.585   0.969  3.1637  1.0955 -2.1070
  269MOL0     H35502   4.648   4.388   0.769 -1.5223  2.4424 -2.6767
  269MOL0     H35503   4.726   4.437   0.922  0.8577 -2.4378 -2.0702
  269MOL0     H35504   4.645   4.614   0.705  0.6994 -2.0384 -0.8603
  269MOL0     H35505   4.736   4.673   0.839  0.2954  2.0536 -1.1735
  269MOL0     H35506   5.036   4.449   0.624  0.8495  0.1960 -0.1184
  269MOL0     H35507   4.344   4.210   1.174 -0.0948  2.7266 -1.6202
  269MOL0     H35508   4.154   4.042   1.243  1.9152  0.9234  1.2893
  270MOL0     O35509   2.020   1.333   3.526  0.4862 -0.8520  0.1674
  270MOL0     C35510   2.050   1.247   3.446 -0.1497  0.4112 -0.0862
  270MOL0     O35511   1.975   1.140   3.404  0.2739 -1.0250 -0.1501
  270MOL0     C35512   1.844   1.135   3.448 -0.4246  0.2164  0.6060
  270MOL0     C35513   1.735   1.124   3.355 -0.6695  0.0269 -0.0528
  270MOL0     C35514   1.607   1.102   3.395  0.5484 -0.2064  0.6045
  270MOL0     C35515   1.580   1.091   3.538  0.3749 -0.7420 -0.8676
  270MOL0     O35516   1.455   1.070   3.587  0.0035  0.1845 -0.3735
  270MOL0     C35517   1.351   1.131   3.518  0.4797  0.4060  0.9350
  270MOL0     C35518   1.217   1.105   3.593  0.0077 -0.4335 -0.1969
  270MOL0     C35519   1.111   1.195   3.521 -1.2151  0.3783 -0.3597
  270MOL0     C35520   0.967   1.178   3.565  0.7936 -0.4925 -0.5237
  270MOL0     C35521   0.865   1.261   3.479 -0.0673  0.1397 -0.5195
  270MOL0     C35522   0.747   1.297   3.582  0.9020  0.1765  0.6010
  270MOL0     C35523   0.641   1.380   3.500  0.4348 -0.7663  0.0338
  270MOL0     C35524   0.553   1.293   3.411  0.0224  0.6245  0.3409
  270MOL0     N35525   0.440   1.363   3.340 -0.2826  0.0569 -0.9356
  270MOL0     C35526   0.338   1.426   3.403  0.7374 -0.2016  0.0741
  270MOL0     C35527   0.282   1.498   3.303  0.3823  0.4463  0.1826
  270MOL0     C35528   0.166   1.598   3.306  0.3127  0.6192 -0.4093
  270MOL0     C35529   0.042   1.517   3.273  0.7875 -0.1793  0.9772
  270MOL0     C35530   0.033   1.474   3.125 -0.9566  1.3528  0.8810
  270MOL0     C35531  -0.101   1.409   3.096  0.3848  0.1463  0.8837
  270MOL0     O35532  -0.201   1.507   3.121 -0.3212  0.4740  0.3555
  270MOL0     C35533  -0.330   1.458   3.114 -0.0827 -0.0279  0.5503
  270MOL0     C35534  -0.376   1.343   3.037 -0.8857 -0.3687  1.0634
  270MOL0     C35535  -0.509   1.314   3.013 -0.3429 -0.0701 -0.0095
  270MOL0     C35536  -0.607   1.393   3.070  1.7797 -0.8089 -0.1226
  270MOL0     C35537  -0.752   1.365   3.060 -0.3725  0.1714  0.1123
  270MOL0     O35538  -0.835   1.429   3.148  0.9418  0.5704  0.6019
  270MOL0     C35539  -0.968   1.417   3.131  0.7362 -0.1886 -0.3835
  270MOL0     C35540  -1.037   1.297   3.124 -0.0231  0.5879 -0.4810
  270MOL0     C35541  -1.174   1.296   3.108  0.2374 -0.4242  0.8581
  270MOL0     C35542  -1.244   1.421   3.082 -0.5989 -0.2802  0.4112
  270MOL0     O35543  -1.375   1.432   3.047 -0.2180  0.9999 -0.6874
  270MOL0     C35544  -1.476   1.340   3.093 -0.9761  0.2933 -0.5184
  270MOL0     C35545  -1.612   1.389   3.053 -0.0710 -0.2352 -0.2447
  270MOL0     C35546  -1.731   1.304   3.093  0.7289 -0.1963  0.2335
  270MOL0     C35547  -1.862   1.363   3.044 -0.7695  0.2698  0.4501
  270MOL0     C35548  -1.992   1.289   3.080 -0.4009  0.2869 -0.4983
  270MOL0     C35549  -2.101   1.270   2.977  0.1567  0.0120  0.4351
  270MOL0     C35550  -2.200   1.167   3.028  0.5041 -0.0639 -0.5816
  270MOL0     C35551  -2.332   1.179   2.938  0.3962  0.2438  0.6630
  270MOL0    Cl35552  -2.386   1.018   2.909  0.0378  0.8780 -0.2313
  270MOL0     C35553  -1.165   1.542   3.091  0.8491  0.0879 -0.5496
  270MOL0     C35554  -1.034   1.536   3.114 -1.0570 -0.6386  0.0056
  270MOL0     O35555  -0.787   1.300   2.965  0.3645  0.1039  0.4219
  270MOL0     C35556  -0.564   1.498   3.157 -0.5801  0.2585  0.0961
  270MOL0     C35557  -0.431   1.528   3.179  0.0601  0.8562 -0.1308
  270MOL0     N35558   0.354   1.486   3.186 -0.2247  0.1613 -0.0427
  270MOL0     N35559   0.452   1.410   3.212 -1.0076  0.2828  0.3062
  270MOL0     C35560   1.684   1.107   3.627 -1.4251  0.5215 -0.1050
  270MOL0     C35561   1.818   1.127   3.586 -0.3068 -0.0212  0.1304
  270MOL0     C35562   2.188   1.233   3.395 -0.7230  0.1267 -0.1848
  270MOL0     C35563   2.244   1.107   3.359 -0.6531  0.2151  0.4495
  270MOL0     C35564   2.375   1.098   3.296 -0.0418 -0.5144 -1.3147
  270MOL0     C35565   2.457   1.210   3.287 -0.4982  0.1341 -0.0717
  270MOL0     O35566   2.580   1.196   3.232  0.6825  0.2433  0.2108
  270MOL0     C35567   2.667   1.315   3.227  0.2231 -0.4366  0.0371
  270MOL0     C35568   2.796   1.286   3.146  0.1928  0.0085  0.1813
  270MOL0     C35569   2.750   1.266   2.995 -0.1982  0.0426  0.5245
  270MOL0     C35570   2.824   1.147   2.935  0.3184 -0.3280  0.0219
  270MOL0     C35571   2.966   1.181   2.918 -0.4364 -0.9543  0.8119
  270MOL0     C35572   3.088   1.197   2.898  0.6138 -0.1558 -0.3694
  270MOL0     C35573   2.403   1.328   3.338  1.2135 -0.0947  0.2388
  270MOL0     C35574   2.276   1.344   3.392  0.5279 -0.4524 -0.3934
  270MOL0     H35575   1.756   1.144   3.250  1.0339  4.3780  0.8929
  270MOL0     H35576   1.526   1.094   3.323  0.2648  0.7886  0.7939
  270MOL0     H35577   1.348   1.099   3.413 -1.1591 -2.3018  1.7022
  270MOL0     H35578   1.364   1.239   3.524  3.7422  0.2598 -0.9768
  270MOL0     H35579   1.222   1.147   3.694  0.7968 -0.3005 -0.2790
  270MOL0     H35580   1.196   1.000   3.612 -0.1905 -0.0983  1.6025
  270MOL0     H35581   1.124   1.169   3.415  0.2864  2.0087 -0.6187
  270MOL0     H35582   1.124   1.304   3.522  0.7499  0.2098 -1.5802
  270MOL0     H35583   0.937   1.073   3.560 -1.2943  0.1186 -3.5886
  270MOL0     H35584   0.961   1.213   3.669 -0.4237 -1.1770 -0.3413
  270MOL0     H35585   0.838   1.203   3.390  0.9098  0.5255 -1.0834
  270MOL0     H35586   0.914   1.351   3.440 -1.8697  0.8847 -1.2009
  270MOL0     H35587   0.789   1.353   3.666  1.1693 -1.4331  1.5852
  270MOL0     H35588   0.701   1.212   3.633 -0.0236 -0.7477 -1.6221
  270MOL0     H35589   0.581   1.435   3.573  1.1419  0.3465 -0.2121
  270MOL0     H35590   0.686   1.460   3.441  3.3222 -1.3833  1.2202
  270MOL0     H35591   0.519   1.203   3.464  1.6234  1.5608  3.1834
  270MOL0     H35592   0.612   1.257   3.326 -0.3372  1.0506 -0.0932
  270MOL0     H35593   0.305   1.427   3.507  3.0796 -0.7381  0.8707
  270MOL0     H35594   0.179   1.684   3.240  2.0433 -0.7055 -1.9197
  270MOL0     H35595   0.156   1.647   3.403  1.0177 -1.6478  0.8996
  270MOL0     H35596  -0.044   1.582   3.289  0.8555 -0.1061  1.0477
  270MOL0     H35597   0.041   1.431   3.340  1.2397 -2.0795 -1.3038
  270MOL0     H35598   0.032   1.559   3.056 -0.2610  0.1552 -0.6632
  270MOL0     H35599   0.113   1.407   3.095 -1.6353  1.3937 -1.2027
  270MOL0     H35600  -0.107   1.318   3.155 -0.2193 -2.2327 -2.5334
  270MOL0     H35601  -0.108   1.371   2.993  1.4319 -3.1110  1.9179
  270MOL0     H35602  -0.303   1.276   2.992 -2.2231 -0.3324 -1.3451
  270MOL0     H35603  -0.543   1.222   2.966  3.0088 -0.9782 -0.8928
  270MOL0     H35604  -0.985   1.202   3.131  1.1636  1.1704 -1.0541
  270MOL0     H35605  -1.237   1.208   3.102 -1.1092  0.3677  2.4122
  270MOL0     H35606  -1.474   1.301   3.195  1.5747 -1.8979 -1.2724
  270MOL0     H35607  -1.467   1.251   3.029 -0.8837 -0.0393 -0.0421
  270MOL0     H35608  -1.610   1.394   2.944 -0.4830 -2.2976 -0.3802
  270MOL0     H35609  -1.623   1.482   3.109  2.4864  1.2620 -2.0196
  270MOL0     H35610  -1.722   1.287   3.201 -0.9302 -2.5989  0.0708
  270MOL0     H35611  -1.732   1.201   3.054  0.3748 -0.4752  0.9560
  270MOL0     H35612  -1.869   1.468   3.071 -1.7354  0.2247  0.4179
  270MOL0     H35613  -1.852   1.374   2.935  1.1465 -2.5490  0.2122
  270MOL0     H35614  -2.036   1.351   3.159  0.0114 -0.5475  0.3925
  270MOL0     H35615  -1.971   1.192   3.124  2.8097  1.4744  0.8973
  270MOL0     H35616  -2.050   1.232   2.888 -1.6885 -0.5914 -0.4350
  270MOL0     H35617  -2.156   1.360   2.947 -2.1683 -1.9292 -1.6105
  270MOL0     H35618  -2.163   1.065   3.020  1.0944  0.1065 -0.1053
  270MOL0     H35619  -2.226   1.182   3.133  2.8062  0.5752 -0.0469
  270MOL0     H35620  -2.320   1.244   2.851 -0.5706  1.7733  1.6042
  270MOL0     H35621  -2.406   1.244   2.986  0.4232  0.6619  0.1476
  270MOL0     H35622  -1.206   1.634   3.051  3.1121  1.1232 -0.6399
  270MOL0     H35623  -0.987   1.634   3.111 -2.4063  0.0433 -0.0901
  270MOL0     H35624  -0.636   1.542   3.225  0.7492  0.9878  1.0486
  270MOL0     H35625  -0.414   1.603   3.255 -1.0198 -0.1019  1.0808
  270MOL0     H35626   1.656   1.094   3.731  0.0453 -0.9336  0.1517
  270MOL0     H35627   1.894   1.142   3.662  1.1909 -1.1825 -1.0778
  270MOL0     H35628   2.190   1.013   3.353 -2.7770  1.4304 -1.4916
  270MOL0     H35629   2.408   0.999   3.267  0.1333 -0.6639 -0.6230
  270MOL0     H35630   2.702   1.335   3.328 -2.0001  0.1866  0.7572
  270MOL0     H35631   2.617   1.402   3.183  0.1653 -0.0678  0.8339
  270MOL0     H35632   2.876   1.360   3.152  0.8919 -0.8309  2.0841
  270MOL0     H35633   2.845   1.193   3.177  1.2456 -0.4863 -2.6443
  270MOL0     H35634   2.765   1.363   2.946 -1.2108  0.2891  0.6666
  270MOL0     H35635   2.643   1.249   2.979  0.2287 -1.9347 -0.6322
  270MOL0     H35636   2.820   1.056   2.994  1.7216 -1.0117 -0.8761
  270MOL0     H35637   2.773   1.133   2.839 -2.5565 -0.5179  1.4713
  270MOL0     H35638   3.191   1.221   2.879  0.0607  0.8753 -2.2121
  270MOL0     H35639   2.453   1.423   3.321  2.9548 -0.9844  0.1439
  270MOL0     H35640   2.240   1.439   3.430 -1.2500 -0.3040 -2.2723
  271MOL0     O35641   8.122  10.719   2.574  0.2008 -0.1866 -0.1120
  271MOL0     C35642   8.154  10.743   2.459 -0.4729  0.9137  0.5298
  271MOL0     O35643   8.061  10.775   2.364  0.2262 -0.4502  0.2851
  271MOL0     C35644   7.934  10.792   2.402 -0.6960  1.1898  0.0137
  271MOL0     C35645   7.877  10.909   2.455 -0.3835  0.3734  0.5398
  271MOL0     C35646   7.736  10.908   2.487 -0.8161 -0.3516  0.0627
  271MOL0     C35647   7.650  10.795   2.464 -0.4011  0.1949  0.5081
  271MOL0     O35648   7.515  10.811   2.499 -0.3362 -0.0393 -0.6716
  271MOL0     C35649   7.409  10.738   2.434 -0.0936 -0.2306 -0.0518
  271MOL0     C35650   7.287  10.822   2.443  0.1848 -0.3494 -0.0526
  271MOL0     C35651   7.182  10.761   2.539  0.4556 -0.5537  0.2653
  271MOL0     C35652   7.119  10.632   2.486  0.0750 -0.0680  0.2820
  271MOL0     C35653   7.008  10.594   2.580  0.6563 -0.1247  0.2254
  271MOL0     C35654   6.958  10.464   2.524 -0.4606  0.4153 -0.5618
  271MOL0     C35655   6.824  10.425   2.601  0.1995  0.3279  0.2009
  271MOL0     C35656   6.699  10.504   2.557 -0.0255 -0.1224 -0.2541
  271MOL0     N35657   6.573  10.448   2.605  0.7402  0.4671 -0.2901
  271MOL0     C35658   6.526  10.445   2.741 -0.4417  0.4213 -0.7374
  271MOL0     C35659   6.402  10.405   2.725  0.1890  0.7415  0.3042
  271MOL0     C35660   6.297  10.397   2.832  0.1294 -0.3677  1.5954
  271MOL0     C35661   6.168  10.332   2.803 -0.0355  1.4334 -0.6406
  271MOL0     C35662   6.072  10.304   2.930 -0.1891 -0.5351 -0.0769
  271MOL0     C35663   5.988  10.180   2.922 -0.5856  0.0869  0.7597
  271MOL0     O35664   5.880  10.212   3.017 -0.0361 -0.4757 -0.1566
  271MOL0     C35665   5.793  10.117   3.058 -0.3072 -0.3777 -0.1008
  271MOL0     C35666   5.681  10.164   3.118  0.6660 -0.9281 -0.0043
  271MOL0     C35667   5.578  10.074   3.159  0.0026 -0.2996  0.0393
  271MOL0     C35668   5.599   9.935   3.146  0.3564 -0.7145  0.0717
  271MOL0     C35669   5.495   9.840   3.195  0.9660  0.1578 -0.5303
  271MOL0     O35670   5.373   9.880   3.249 -0.0357 -0.0362  0.3235
  271MOL0     C35671   5.278   9.784   3.279  0.6443  0.3069  1.0923
  271MOL0     C35672   5.158   9.807   3.214 -0.2660  0.0181  1.0566
  271MOL0     C35673   5.052   9.721   3.219 -0.1702  0.2018 -0.1248
  271MOL0     C35674   5.065   9.600   3.293 -0.0299  0.7716  0.1676
  271MOL0     O35675   4.968   9.499   3.295 -0.3226 -0.1060 -0.4065
  271MOL0     C35676   4.868   9.481   3.192 -0.5242 -0.2811 -0.7631
  271MOL0     C35677   4.928   9.431   3.062 -0.4742  0.7346 -0.0375
  271MOL0     C35678   4.824   9.448   2.950  0.1893 -0.2307  0.1661
  271MOL0     C35679   4.899   9.408   2.811  0.3123 -0.8971  0.1308
  271MOL0     C35680   4.808   9.436   2.693  0.0918 -1.2113 -0.5934
  271MOL0     C35681   4.879   9.444   2.565  0.5140  0.4213 -0.1843
  271MOL0     C35682   4.790   9.512   2.452 -0.1706 -0.1963  0.2145
  271MOL0     C35683   4.883   9.571   2.344 -0.6085  0.4648  0.6828
  271MOL0    Cl35684   4.991   9.691   2.426 -0.0835 -0.9045 -0.4792
  271MOL0     C35685   5.193   9.573   3.347  1.1699 -0.2689 -0.8500
  271MOL0     C35686   5.300   9.661   3.342  0.7639  0.6960 -0.5446
  271MOL0     O35687   5.525   9.720   3.183  0.5166 -0.2649 -1.0804
  271MOL0     C35688   5.712   9.885   3.077 -0.4625  1.1007 -0.3162
  271MOL0     C35689   5.811   9.977   3.051 -0.6671 -0.3412  0.5208
  271MOL0     N35690   6.371  10.372   2.599 -0.5202 -0.5100  0.0133
  271MOL0     N35691   6.468  10.402   2.529 -0.4421 -0.5088 -0.3871
  271MOL0     C35692   7.716  10.682   2.419  0.1552  0.7310  0.3223
  271MOL0     C35693   7.850  10.682   2.378 -0.1124  0.1145  0.7654
  271MOL0     C35694   8.287  10.718   2.423 -0.0639 -0.2206 -0.2154
  271MOL0     C35695   8.394  10.739   2.514  0.8771 -0.2142 -0.2241
  271MOL0     C35696   8.522  10.743   2.466 -0.9806  0.2123  0.7450
  271MOL0     C35697   8.556  10.711   2.338 -0.2750 -0.6615  0.3187
  271MOL0     O35698   8.683  10.703   2.292  0.4671 -1.1387 -0.5010
  271MOL0     C35699   8.797  10.721   2.387  1.1402  0.2616  0.0460
  271MOL0     C35700   8.915  10.715   2.290  0.2689  0.0561 -0.7901
  271MOL0     C35701   9.034  10.693   2.375 -0.6892  0.4679  0.0391
  271MOL0     C35702   9.164  10.670   2.294  0.4177  0.5293 -0.5504
  271MOL0     C35703   9.265  10.623   2.394  0.7251 -0.2157 -0.1898
  271MOL0     C35704   9.340  10.598   2.480 -1.2287 -0.5097  0.2157
  271MOL0     C35705   8.453  10.689   2.253  0.0195 -0.3546 -0.0920
  271MOL0     C35706   8.321  10.698   2.286 -0.0417 -0.6092  1.1735
  271MOL0     H35707   7.933  11.000   2.473 -0.1501  0.8006 -2.0089
  271MOL0     H35708   7.690  10.998   2.525 -2.9121 -1.7419  0.9805
  271MOL0     H35709   7.401  10.642   2.485  0.8121 -1.4132 -2.0166
  271MOL0     H35710   7.415  10.724   2.326 -0.1592  1.4097 -0.3030
  271MOL0     H35711   7.241  10.823   2.344 -1.1349  0.2384  0.5354
  271MOL0     H35712   7.306  10.922   2.483 -2.3683  0.2737 -0.2088
  271MOL0     H35713   7.118  10.846   2.561  0.9001 -0.2831  0.5365
  271MOL0     H35714   7.233  10.733   2.632  1.5446 -0.8095 -0.3836
  271MOL0     H35715   7.083  10.658   2.386  2.0665  3.7853  0.3996
  271MOL0     H35716   7.195  10.554   2.475  0.0020  0.2096 -2.9473
  271MOL0     H35717   6.925  10.666   2.575  1.2708  0.5699 -0.1662
  271MOL0     H35718   7.042  10.567   2.680 -2.5314 -3.7611  0.5654
  271MOL0     H35719   7.037  10.391   2.547 -0.4349  0.9400  1.1295
  271MOL0     H35720   6.934  10.464   2.418 -2.5329 -2.2303 -0.2101
  271MOL0     H35721   6.797  10.321   2.582  0.6067  0.3958 -0.8021
  271MOL0     H35722   6.844  10.438   2.708 -0.5831 -0.2124  0.4213
  271MOL0     H35723   6.699  10.526   2.450 -1.1184  1.1989 -0.0143
  271MOL0     H35724   6.709  10.605   2.598  2.2238 -0.3256 -0.1575
  271MOL0     H35725   6.571  10.489   2.829  0.0022  1.3888 -1.4334
  271MOL0     H35726   6.271  10.498   2.868 -0.1121 -0.7010  2.3890
  271MOL0     H35727   6.340  10.348   2.920  1.6963 -2.1159 -0.0538
  271MOL0     H35728   6.199  10.231   2.777 -1.7687 -0.0565  2.4745
  271MOL0     H35729   6.107  10.382   2.728  0.6080  4.7432  0.8402
  271MOL0     H35730   6.134  10.289   3.019  0.1947  0.5603 -0.1497
  271MOL0     H35731   6.006  10.391   2.936 -0.4009 -0.4907 -2.2045
  271MOL0     H35732   6.042  10.092   2.960  1.0345  0.3287 -0.8446
  271MOL0     H35733   5.957  10.170   2.817  3.1000  1.3646 -0.6313
  271MOL0     H35734   5.664  10.270   3.135 -1.7187 -0.8930 -2.0348
  271MOL0     H35735   5.490  10.104   3.216  0.3823  1.7223 -0.3643
  271MOL0     H35736   5.157   9.894   3.149  3.2497 -0.4766  0.1271
  271MOL0     H35737   4.960   9.732   3.163 -0.2655 -3.0305 -0.8319
  271MOL0     H35738   4.818   9.576   3.171 -0.5369  0.0350  0.5651
  271MOL0     H35739   4.798   9.403   3.220 -0.5666  0.1883  0.5202
  271MOL0     H35740   4.951   9.327   3.086 -2.2490 -0.4442 -2.9446
  271MOL0     H35741   5.023   9.482   3.045  1.9647 -2.9087  1.4402
  271MOL0     H35742   4.788   9.550   2.938 -1.9235 -0.5567  2.7719
  271MOL0     H35743   4.739   9.382   2.969  0.0179  0.9916  4.6978
  271MOL0     H35744   4.995   9.459   2.806  0.1182 -0.1227  3.0103
  271MOL0     H35745   4.919   9.300   2.813 -1.2856 -1.2090  1.2160
  271MOL0     H35746   4.750   9.526   2.715 -0.4792 -2.3122  3.0203
  271MOL0     H35747   4.721   9.370   2.679 -0.5958 -0.6448  0.8180
  271MOL0     H35748   4.902   9.342   2.532 -1.9074  0.1356 -1.1861
  271MOL0     H35749   4.969   9.504   2.583 -0.8589  3.0883 -1.6557
  271MOL0     H35750   4.734   9.426   2.415  1.0857 -0.5831 -0.8481
  271MOL0     H35751   4.720   9.591   2.484 -0.5949 -0.6529  0.4247
  271MOL0     H35752   4.823   9.628   2.272 -0.0655 -1.8361 -1.7384
  271MOL0     H35753   4.936   9.502   2.279 -3.7260  1.1281 -2.9021
  271MOL0     H35754   5.192   9.477   3.397 -0.6296  1.3690  2.6095
  271MOL0     H35755   5.397   9.630   3.381  1.6512 -0.3652 -3.3501
  271MOL0     H35756   5.729   9.781   3.054 -1.2864  1.3141 -2.0141
  271MOL0     H35757   5.909   9.944   3.018 -2.5272 -3.6622 -2.4318
  271MOL0     H35758   7.680  10.580   2.414  2.8067 -0.2550 -0.1663
  271MOL0     H35759   7.891  10.591   2.336 -1.2297 -0.2281  0.3915
  271MOL0     H35760   8.359  10.762   2.614 -1.4072 -1.0999 -0.7525
  271MOL0     H35761   8.589  10.776   2.545  1.3077 -2.0633 -0.0988
  271MOL0     H35762   8.786  10.641   2.461  3.6139  1.3602  1.7061
  271MOL0     H35763   8.779  10.806   2.455  0.7540  0.1877  0.0420
  271MOL0     H35764   8.898  10.624   2.232 -1.6072 -1.6011  2.1238
  271MOL0     H35765   8.932  10.802   2.225  2.4540 -0.1233 -0.5488
  271MOL0     H35766   9.007  10.606   2.436 -0.4227  0.0893 -0.3803
  271MOL0     H35767   9.050  10.777   2.444  2.7706  0.3142 -0.3636
  271MOL0     H35768   9.154  10.598   2.212 -1.0908  0.2379 -0.1482
  271MOL0     H35769   9.186  10.764   2.243 -2.5109  0.5129 -2.1001
  271MOL0     H35770   9.408  10.568   2.558  2.2919 -1.1167 -2.8116
  271MOL0     H35771   8.482  10.665   2.151  1.1251  0.6439 -0.0419
  271MOL0     H35772   8.248  10.684   2.206 -0.9702 -1.8323  2.1789
  272MOL0     O35773   4.692  11.199   0.109  0.7624 -0.5731 -0.2064
  272MOL0     C35774   4.763  11.303   0.101  0.7935  0.3967  0.1921
  272MOL0     O35775   4.715  11.432   0.082  0.1129  0.2235 -0.5195
  272MOL0     C35776   4.581  11.457   0.105 -0.3075  0.0544  0.2389
  272MOL0     C35777   4.539  11.569   0.031 -0.2060  0.6034  0.3332
  272MOL0     C35778   4.411  11.615   0.049  0.4697 -0.4953 -0.0609
  272MOL0     C35779   4.324  11.566   0.147  0.1528 -0.1132 -0.8407
  272MOL0     O35780   4.203  11.634   0.164 -0.7452  0.2176  0.3007
  272MOL0     C35781   4.177  11.677   0.300  0.3511  0.3164 -0.9796
  272MOL0     C35782   4.031  11.725   0.300  0.1169 -0.2662  0.0038
  272MOL0     C35783   3.938  11.614   0.258  0.8284 -0.1906 -0.2170
  272MOL0     C35784   3.786  11.651   0.234 -0.2924  0.4810  0.2069
  272MOL0     C35785   3.724  11.734   0.344  0.2688  0.0478 -0.8190
  272MOL0     C35786   3.579  11.784   0.314  0.3948 -0.0037  0.4667
  272MOL0     C35787   3.478  11.682   0.281  0.4610  0.6556 -0.3529
  272MOL0     C35788   3.358  11.742   0.219 -0.0928  0.7152  0.5352
  272MOL0     N35789   3.241  11.682   0.275  0.3011 -0.2866 -0.6352
  272MOL0     C35790   3.181  11.564   0.245 -0.8399 -1.1876 -1.0030
  272MOL0     C35791   3.063  11.571   0.303 -0.2113 -0.2377 -0.5695
  272MOL0     C35792   2.963  11.461   0.314 -0.9761 -0.3167  0.8562
  272MOL0     C35793   2.834  11.525   0.309 -0.3167  0.3762  0.2358
  272MOL0     C35794   2.730  11.441   0.382 -0.6606 -0.7004  0.0220
  272MOL0     C35795   2.590  11.487   0.350 -0.2341  0.3491 -0.4543
  272MOL0     O35796   2.571  11.615   0.424  0.6987  0.4488 -0.1879
  272MOL0     C35797   2.441  11.671   0.438 -0.0579 -0.2421  0.3432
  272MOL0     C35798   2.320  11.613   0.394  0.1918 -0.1027 -0.0914
  272MOL0     C35799   2.194  11.677   0.418  0.4966  0.6826  0.4994
  272MOL0     C35800   2.187  11.799   0.480  0.3052 -0.3269 -0.1900
  272MOL0     C35801   2.062  11.860   0.524  0.1209  0.4041  0.9212
  272MOL0     O35802   1.957  11.794   0.464 -0.2742 -0.7045  0.5253
  272MOL0     C35803   1.833  11.853   0.461 -0.4482  0.1850  0.1685
  272MOL0     C35804   1.723  11.771   0.481 -0.5460 -0.5059  0.1619
  272MOL0     C35805   1.598  11.836   0.497  0.2253  0.2178 -0.2205
  272MOL0     C35806   1.585  11.970   0.484 -0.4345  0.3824  0.7967
  272MOL0     O35807   1.464  12.014   0.516  0.2464  0.1516  0.3805
  272MOL0     C35808   1.439  12.148   0.524  0.6159 -0.2965  0.0081
  272MOL0     C35809   1.387  12.210   0.390 -0.6516  0.1031 -0.2918
  272MOL0     C35810   1.260  12.140   0.336  0.0220 -0.3468  0.9847
  272MOL0     C35811   1.133  12.205   0.405 -0.0464  0.6454 -0.4544
  272MOL0     C35812   1.007  12.144   0.350  0.1283 -0.0122 -0.6905
  272MOL0     C35813   0.887  12.226   0.397 -0.1862  0.4919  0.2813
  272MOL0     C35814   0.765  12.154   0.347  0.2901  0.4674 -0.1526
  272MOL0     C35815   0.640  12.219   0.395 -0.2001  0.6021  0.8185
  272MOL0    Cl35816   0.503  12.149   0.312  0.6852 -0.0984  0.0848
  272MOL0     C35817   1.695  12.047   0.432 -0.5194 -0.2497  0.7415
  272MOL0     C35818   1.819  11.988   0.432 -0.0178  0.1770  0.0995
  272MOL0     O35819   2.062  11.948   0.607  0.1314 -0.1976  0.5377
  272MOL0     C35820   2.306  11.854   0.527  0.4926 -0.4257  0.3558
  272MOL0     C35821   2.430  11.789   0.500 -0.3593 -0.3175 -0.4150
  272MOL0     N35822   3.062  11.680   0.392 -0.2227  0.0563  0.0547
  272MOL0     N35823   3.170  11.742   0.372  0.3852 -0.2633 -0.3250
  272MOL0     C35824   4.361  11.456   0.221 -0.3827  0.0481 -0.1907
  272MOL0     C35825   4.494  11.407   0.209 -0.5605 -0.1658 -0.3940
  272MOL0     C35826   4.907  11.274   0.116 -0.2720  0.1275 -0.3418
  272MOL0     C35827   4.990  11.381   0.082 -1.3235  0.0926  0.0729
  272MOL0     C35828   5.133  11.364   0.112  0.2237 -0.5000 -0.4602
  272MOL0     C35829   5.194  11.233   0.149  1.1868 -0.3042  0.3337
  272MOL0     O35830   5.334  11.239   0.188 -0.4071 -0.3164  0.3885
  272MOL0     C35831   5.404  11.118   0.225 -0.2825  0.9893  1.0734
  272MOL0     C35832   5.538  11.161   0.281 -0.0575 -0.6013 -0.2031
  272MOL0     C35833   5.634  11.216   0.186 -0.4940 -0.1456  0.2017
  272MOL0     C35834   5.623  11.370   0.166  0.1676 -0.5248  0.0329
  272MOL0     C35835   5.699  11.416   0.046 -0.1329  0.2655  0.3838
  272MOL0     C35836   5.768  11.452  -0.051 -0.2284 -0.2029 -0.4614
  272MOL0     C35837   5.102  11.126   0.161 -0.4043  0.4666 -0.3720
  272MOL0     C35838   4.962  11.144   0.153 -0.2298 -0.3068 -0.1065
  272MOL0     H35839   4.607  11.606  -0.045 -1.2190  0.5537 -0.6201
  272MOL0     H35840   4.374  11.699  -0.009 -0.0568  0.4902  1.6403
  272MOL0     H35841   4.242  11.762   0.326  2.0975 -0.9721 -0.9525
  272MOL0     H35842   4.184  11.602   0.379  0.3331  0.9242 -0.3939
  272MOL0     H35843   4.029  11.805   0.225 -2.1312 -0.3395 -0.0842
  272MOL0     H35844   3.991  11.765   0.394 -2.8070 -0.6358 -0.9701
  272MOL0     H35845   3.942  11.531   0.329  1.7795 -0.7933 -0.9334
  272MOL0     H35846   3.971  11.571   0.163 -0.4812  3.1021 -2.3534
  272MOL0     H35847   3.771  11.706   0.141 -3.7079 -1.8430 -0.8084
  272MOL0     H35848   3.731  11.558   0.215 -0.6797  1.1225 -1.9788
  272MOL0     H35849   3.783  11.823   0.368  0.7610 -0.9186  1.9818
  272MOL0     H35850   3.726  11.669   0.432  1.5441  0.4735 -0.5017
  272MOL0     H35851   3.589  11.861   0.237 -0.2182 -0.6955 -0.3093
  272MOL0     H35852   3.545  11.839   0.403 -0.9921 -0.1436  0.0477
  272MOL0     H35853   3.504  11.601   0.211 -0.2147  0.4972 -0.4275
  272MOL0     H35854   3.449  11.640   0.377 -0.2490  1.0093 -0.4079
  272MOL0     H35855   3.365  11.719   0.113 -0.5598 -0.3651  0.7190
  272MOL0     H35856   3.353  11.851   0.221 -0.1215  0.9154 -3.5874
  272MOL0     H35857   3.216  11.493   0.171  1.7021 -0.1605 -0.8955
  272MOL0     H35858   2.983  11.410   0.409 -2.1733  0.4071  1.5120
  272MOL0     H35859   2.972  11.389   0.232  0.1075 -0.4259  1.0530
  272MOL0     H35860   2.801  11.531   0.205 -1.0272 -1.5320  0.3164
  272MOL0     H35861   2.827  11.622   0.360 -2.9372 -0.9495  2.7102
  272MOL0     H35862   2.740  11.336   0.354 -0.7686 -0.8989  0.7156
  272MOL0     H35863   2.757  11.457   0.486 -2.2450 -2.0130  0.6862
  272MOL0     H35864   2.521  11.408   0.382  0.2642  0.2234  0.3222
  272MOL0     H35865   2.579  11.506   0.243  2.3992 -1.9375 -1.2239
  272MOL0     H35866   2.317  11.509   0.361 -1.3958 -0.3141  0.6519
  272MOL0     H35867   2.107  11.621   0.386  0.5656  1.1506 -0.5901
  272MOL0     H35868   1.753  11.669   0.502  3.0933  0.5706  0.8615
  272MOL0     H35869   1.508  11.776   0.506 -1.8257  1.8936 -5.7462
  272MOL0     H35870   1.526  12.198   0.567  0.3210 -1.4742  2.1558
  272MOL0     H35871   1.367  12.165   0.605  0.6767  3.5704 -0.5968
  272MOL0     H35872   1.464  12.213   0.312 -0.2718 -3.1954 -0.1879
  272MOL0     H35873   1.371  12.316   0.409  0.3626  0.4679 -1.3680
  272MOL0     H35874   1.259  12.032   0.352  0.3525 -0.5544 -0.2811
  272MOL0     H35875   1.260  12.165   0.229 -0.4437  1.3186  1.3434
  272MOL0     H35876   1.131  12.183   0.512 -2.2701  1.2728 -0.3169
  272MOL0     H35877   1.135  12.314   0.401 -1.2440  0.7151  0.3932
  272MOL0     H35878   1.010  12.044   0.396  0.3411  0.4575  0.3411
  272MOL0     H35879   1.011  12.132   0.242 -0.8433 -0.9840 -0.6496
  272MOL0     H35880   0.894  12.321   0.343  0.7715  0.0438 -0.4179
  272MOL0     H35881   0.884  12.229   0.506 -0.6438  1.4452  0.2532
  272MOL0     H35882   0.767  12.161   0.238  1.9250 -1.6691 -0.3289
  272MOL0     H35883   0.773  12.046   0.365  0.0224  0.1197 -2.0060
  272MOL0     H35884   0.633  12.328   0.385 -1.4292  0.3174 -3.0589
  272MOL0     H35885   0.615  12.197   0.500  0.6280 -0.2336  0.8509
  272MOL0     H35886   1.680  12.151   0.407  3.0513 -0.0882 -1.3403
  272MOL0     H35887   1.903  12.049   0.400  0.3073 -1.4611 -2.4484
  272MOL0     H35888   2.311  11.945   0.586  1.6733 -0.7740  0.8122
  272MOL0     H35889   2.523  11.840   0.522 -0.5615  1.3131 -2.9890
  272MOL0     H35890   4.288  11.413   0.289 -0.6194 -0.6614 -0.8775
  272MOL0     H35891   4.535  11.333   0.276 -0.0090  0.1171 -0.4200
  272MOL0     H35892   4.940  11.473   0.054 -5.7662 -1.4778  2.0223
  272MOL0     H35893   5.197  11.451   0.117  0.2587 -0.5786  1.0066
  272MOL0     H35894   5.408  11.054   0.136  0.0075  2.8487 -0.2992
  272MOL0     H35895   5.353  11.062   0.304  3.8576 -2.3757  1.7387
  272MOL0     H35896   5.526  11.233   0.362 -1.2298 -3.5072  2.3756
  272MOL0     H35897   5.579  11.072   0.329 -0.1754 -0.1057  0.8428
  272MOL0     H35898   5.615  11.160   0.094  1.8340  2.6469 -2.1533
  272MOL0     H35899   5.733  11.178   0.209 -0.6352 -1.3358 -1.0488
  272MOL0     H35900   5.524  11.415   0.180  0.9813  0.4179  3.8554
  272MOL0     H35901   5.664  11.419   0.255 -1.1567  0.3342  0.1994
  272MOL0     H35902   5.849  11.462  -0.120  2.0108 -2.3217  1.6558
  272MOL0     H35903   5.124  11.023   0.188  1.7838  0.7711 -0.7959
  272MOL0     H35904   4.899  11.064   0.190  0.4954 -0.5666  0.6161
  273MOL0     O35905   2.211   6.441   8.220  0.1737  0.2782  0.2189
  273MOL0     C35906   2.309   6.491   8.276 -0.2183  0.2305 -0.2924
  273MOL0     O35907   2.301   6.582   8.374 -0.0035  0.2169 -1.3182
  273MOL0     C35908   2.185   6.646   8.422  0.3368  1.0961  0.1141
  273MOL0     C35909   2.199   6.744   8.518 -0.9768 -0.4999 -0.7936
  273MOL0     C35910   2.083   6.809   8.567  0.8085  0.0479 -0.2719
  273MOL0     C35911   1.950   6.797   8.519 -0.7101  0.5256 -0.8604
  273MOL0     O35912   1.843   6.866   8.569 -0.1023 -0.0458 -0.1287
  273MOL0     C35913   1.723   6.875   8.499 -0.2315  0.1984 -0.3869
  273MOL0     C35914   1.622   6.968   8.566  0.1488 -0.2616 -0.4941
  273MOL0     C35915   1.507   6.990   8.481 -0.2647 -0.2281  0.0026
  273MOL0     C35916   1.421   7.098   8.539 -0.4555 -0.1476  0.6783
  273MOL0     C35917   1.277   7.102   8.480  0.0215 -0.2668 -0.6683
  273MOL0     C35918   1.274   7.164   8.338  0.4902 -0.1593 -0.4537
  273MOL0     C35919   1.138   7.213   8.285  0.5056 -0.8109  0.2231
  273MOL0     C35920   1.156   7.257   8.140  0.2291 -0.1419 -0.1942
  273MOL0     N35921   1.027   7.274   8.069  1.1235 -0.7953 -0.1134
  273MOL0     C35922   0.955   7.185   7.989  0.7716 -0.3438  0.1334
  273MOL0     C35923   0.836   7.245   7.946 -0.3778 -0.7222  0.3078
  273MOL0     C35924   0.724   7.189   7.856 -0.5102  1.4395  0.1256
  273MOL0     C35925   0.734   7.242   7.711 -0.3509  0.1904 -0.4761
  273MOL0     C35926   0.672   7.390   7.687  0.3414 -0.1593  0.4441
  273MOL0     C35927   0.541   7.414   7.752  0.2889 -0.1943 -0.7189
  273MOL0     O35928   0.486   7.538   7.702 -0.1996 -0.5130  0.3284
  273MOL0     C35929   0.351   7.554   7.699 -0.6646  0.3674  0.8970
  273MOL0     C35930   0.254   7.532   7.799  0.5834  0.0287 -0.1716
  273MOL0     C35931   0.121   7.541   7.774 -0.3814 -0.3833  0.2014
  273MOL0     C35932   0.062   7.588   7.650  0.0632 -0.1343 -1.1836
  273MOL0     C35933  -0.086   7.590   7.637 -0.0399 -0.4155 -0.2432
  273MOL0     O35934  -0.158   7.535   7.741 -0.6522  1.1048 -0.7227
  273MOL0     C35935  -0.295   7.539   7.754 -0.4305 -0.3150  0.2443
  273MOL0     C35936  -0.356   7.424   7.816  0.6881  0.6860  0.8443
  273MOL0     C35937  -0.498   7.412   7.826  0.4227 -0.0292 -0.0640
  273MOL0     C35938  -0.576   7.523   7.794  1.1168  0.0380  0.1503
  273MOL0     O35939  -0.711   7.525   7.797  0.2720  0.3293 -0.0540
  273MOL0     C35940  -0.786   7.421   7.870  0.4915 -0.3580  0.7042
  273MOL0     C35941  -0.934   7.449   7.817 -0.9321  0.0792  0.5904
  273MOL0     C35942  -0.944   7.436   7.662  0.9856  0.8875  0.1742
  273MOL0     C35943  -1.088   7.432   7.604 -0.7084 -0.0453 -0.6171
  273MOL0     C35944  -1.096   7.469   7.455  0.6902  0.0313 -0.2600
  273MOL0     C35945  -1.042   7.373   7.345 -0.9349  0.8088 -0.7974
  273MOL0     C35946  -1.044   7.229   7.398  0.7563 -0.0277  1.0072
  273MOL0     C35947  -0.972   7.131   7.304 -0.6278  0.4804  1.1923
  273MOL0    Cl35948  -0.800   7.173   7.258 -0.6451  0.1989  0.1853
  273MOL0     C35949  -0.517   7.638   7.740 -0.1733 -0.6140 -0.2199
  273MOL0     C35950  -0.383   7.647   7.719 -0.6316 -0.5001 -0.3543
  273MOL0     O35951  -0.132   7.650   7.536 -0.2780 -0.5296 -0.6463
  273MOL0     C35952   0.154   7.618   7.550  0.2937 -0.0862 -0.0193
  273MOL0     C35953   0.295   7.609   7.576  0.7075 -0.1314 -0.9905
  273MOL0     N35954   0.831   7.373   8.010  0.4225  0.6340  0.4616
  273MOL0     N35955   0.948   7.384   8.066  0.1475 -0.7316 -0.6834
  273MOL0     C35956   1.944   6.694   8.427  0.5673  0.5114  0.4603
  273MOL0     C35957   2.054   6.622   8.386  0.7597 -0.0325 -0.0286
  273MOL0     C35958   2.441   6.442   8.237  0.2737 -0.1949 -0.3482
  273MOL0     C35959   2.454   6.332   8.158  1.2067  0.6896 -0.1994
  273MOL0     C35960   2.578   6.291   8.119 -0.2156  0.1079  0.4088
  273MOL0     C35961   2.697   6.367   8.151 -0.5977  0.7084 -0.9368
  273MOL0     O35962   2.812   6.317   8.094 -0.2009 -0.3409 -0.3911
  273MOL0     C35963   2.930   6.405   8.096  0.1194 -0.8201 -0.3075
  273MOL0     C35964   3.040   6.343   8.011 -0.9673 -0.1505  0.0894
  273MOL0     C35965   3.041   6.195   8.015 -0.6944  0.1733  0.3551
  273MOL0     C35966   3.177   6.134   7.988 -0.2626  0.3194  0.6305
  273MOL0     C35967   3.179   5.984   8.013 -0.5091  0.1108  0.4893
  273MOL0     C35968   3.172   5.867   8.030 -0.4985  0.3030  0.2614
  273MOL0     C35969   2.678   6.483   8.228 -0.6613 -0.0229  0.3812
  273MOL0     C35970   2.555   6.508   8.270  0.2867 -1.6019 -0.2528
  273MOL0     H35971   2.298   6.772   8.556 -1.2025  0.4238 -0.8627
  273MOL0     H35972   2.091   6.877   8.651 -0.2999 -0.7835  0.5200
  273MOL0     H35973   1.681   6.774   8.497  1.9453 -0.7630  0.4971
  273MOL0     H35974   1.743   6.909   8.397  1.4661  2.7351  0.6984
  273MOL0     H35975   1.681   7.056   8.591  0.4772  0.0127 -2.1460
  273MOL0     H35976   1.596   6.922   8.662 -0.2373  1.4547  0.2687
  273MOL0     H35977   1.440   6.904   8.485  0.8935 -1.3648 -2.8498
  273MOL0     H35978   1.538   7.013   8.379  0.5897 -0.3255  0.2345
  273MOL0     H35979   1.415   7.084   8.647  1.4962 -0.1594  0.8177
  273MOL0     H35980   1.468   7.193   8.513  1.4430 -1.2009  0.0214
  273MOL0     H35981   1.212   7.157   8.550  1.1386 -0.8037  0.8526
  273MOL0     H35982   1.235   7.001   8.487  0.9388 -0.5503  1.7120
  273MOL0     H35983   1.319   7.091   8.270 -1.2450 -1.1874 -0.5421
  273MOL0     H35984   1.330   7.258   8.336 -3.7498  2.6580 -2.0693
  273MOL0     H35985   1.073   7.125   8.282 -1.2884  0.4408  0.8005
  273MOL0     H35986   1.098   7.297   8.344 -0.8800 -0.1156 -1.5918
  273MOL0     H35987   1.208   7.184   8.078 -0.5171 -1.1629  0.3614
  273MOL0     H35988   1.221   7.345   8.149  3.8417 -2.5809  0.0132
  273MOL0     H35989   1.003   7.092   7.961  1.6803  0.6461 -1.7562
  273MOL0     H35990   0.626   7.201   7.902  0.1420  0.9703  1.6961
  273MOL0     H35991   0.739   7.081   7.845 -2.3895  1.0459  0.9495
  273MOL0     H35992   0.683   7.174   7.642  0.9314  1.1221 -2.4216
  273MOL0     H35993   0.839   7.233   7.682  0.1119 -2.2343  1.6109
  273MOL0     H35994   0.729   7.477   7.721 -1.4897  0.7329  1.3719
  273MOL0     H35995   0.669   7.412   7.580 -0.2331  0.4505  0.5762
  273MOL0     H35996   0.543   7.416   7.861  1.0766 -0.0186 -0.7268
  273MOL0     H35997   0.472   7.333   7.727 -0.6622  0.0114  1.0684
  273MOL0     H35998   0.291   7.501   7.896 -0.0965  0.2928  0.1837
  273MOL0     H35999   0.063   7.519   7.863  4.4531  5.8293  5.8790
  273MOL0     H36000  -0.290   7.346   7.852  1.4535  1.2560  0.7117
  273MOL0     H36001  -0.540   7.317   7.857  0.3341  0.2114  0.5830
  273MOL0     H36002  -0.763   7.438   7.976  1.0542 -0.3874  0.5936
  273MOL0     H36003  -0.762   7.321   7.834 -0.8288 -0.0378 -1.2063
  273MOL0     H36004  -0.968   7.550   7.842 -1.3209 -0.1923  1.1654
  273MOL0     H36005  -1.008   7.387   7.868 -0.8451  0.3660  1.0736
  273MOL0     H36006  -0.893   7.341   7.641  0.1809 -0.1643  2.6417
  273MOL0     H36007  -0.879   7.509   7.613  0.9080  2.1453  1.8627
  273MOL0     H36008  -1.129   7.333   7.625  1.3435 -0.8909 -0.3810
  273MOL0     H36009  -1.132   7.511   7.667  1.0656 -0.8860  1.8470
  273MOL0     H36010  -1.038   7.561   7.450  1.3726 -0.2614  1.4076
  273MOL0     H36011  -1.202   7.484   7.434  0.7516  1.9790  0.6252
  273MOL0     H36012  -0.941   7.409   7.324 -0.2380 -2.5567 -4.5177
  273MOL0     H36013  -1.101   7.383   7.253 -1.4241 -2.2047 -0.9223
  273MOL0     H36014  -0.998   7.210   7.495  0.9423  0.3091  0.9869
  273MOL0     H36015  -1.148   7.195   7.407  0.6152  0.6928  2.2866
  273MOL0     H36016  -1.025   7.119   7.209  0.6933 -2.1750  0.6834
  273MOL0     H36017  -0.967   7.036   7.358  3.2967  0.7003  1.5688
  273MOL0     H36018  -0.591   7.710   7.706 -0.0836 -0.5896 -0.3654
  273MOL0     H36019  -0.342   7.735   7.672  1.2254 -1.1213  0.0408
  273MOL0     H36020   0.123   7.657   7.453 -0.0047  3.5416  1.3843
  273MOL0     H36021   0.360   7.628   7.492 -1.1919  0.4912 -2.3714
  273MOL0     H36022   1.850   6.676   8.375 -0.2050  0.1053  1.9362
  273MOL0     H36023   2.028   6.548   8.311 -0.9507  1.6956 -1.2220
  273MOL0     H36024   2.366   6.276   8.128 -0.5543  4.3121 -2.5120
  273MOL0     H36025   2.592   6.213   8.044  2.8351  0.4626  0.4849
  273MOL0     H36026   2.962   6.418   8.200 -3.7266 -0.7749  1.0155
  273MOL0     H36027   2.915   6.507   8.061  1.3244  0.7218  3.1805
  273MOL0     H36028   3.038   6.370   7.905  1.9109 -1.7362 -0.4931
  273MOL0     H36029   3.136   6.379   8.050 -1.2830  0.6261  0.1659
  273MOL0     H36030   2.967   6.162   7.941 -0.1893  1.3907 -0.7385
  273MOL0     H36031   3.023   6.163   8.118  2.6075  2.9285  1.9803
  273MOL0     H36032   3.205   6.150   7.883 -2.1392 -0.2642 -0.0063
  273MOL0     H36033   3.253   6.188   8.044  0.3848  3.0852 -2.5357
  273MOL0     H36034   3.186   5.764   8.056  0.6773  0.3912  0.0575
  273MOL0     H36035   2.757   6.545   8.268  0.0434 -0.8098  0.2445
  273MOL0     H36036   2.543   6.597   8.330  1.3225 -2.1816  0.8715
  274MOL0     O36037  10.014  10.982   2.524  0.3042 -0.2376  0.1195
  274MOL0     C36038  10.108  10.951   2.602  0.0661  0.2023  0.9273
  274MOL0     O36039  10.094  10.904   2.727  0.1625  0.1257  0.3210
  274MOL0     C36040   9.964  10.893   2.775  1.1238 -1.1209  0.0147
  274MOL0     C36041   9.936  10.937   2.906  0.0595  0.0502 -0.0416
  274MOL0     C36042   9.813  10.924   2.966  0.6958 -0.0357  0.3108
  274MOL0     C36043   9.721  10.844   2.904  0.3275  0.1395  0.4852
  274MOL0     O36044   9.616  10.795   2.976  0.1629  0.5045  0.0990
  274MOL0     C36045   9.503  10.885   2.987 -0.5142 -0.1247  0.1912
  274MOL0     C36046   9.415  10.829   3.099 -0.1602 -0.5057  0.1560
  274MOL0     C36047   9.274  10.885   3.114  0.6441  0.8916  0.7091
  274MOL0     C36048   9.194  10.784   3.208  0.0710  0.1000  0.4739
  274MOL0     C36049   9.044  10.811   3.214 -0.4084 -0.1178  0.6264
  274MOL0     C36050   8.980  10.728   3.317  0.8585  0.3930 -0.4741
  274MOL0     C36051   8.834  10.779   3.335 -0.2200  0.7768 -0.6902
  274MOL0     C36052   8.787  10.713   3.465  0.2249 -0.5312 -0.3520
  274MOL0     N36053   8.672  10.781   3.521  0.4221 -0.9809 -0.2907
  274MOL0     C36054   8.665  10.831   3.646  0.3270  0.0723  0.0912
  274MOL0     C36055   8.543  10.891   3.657 -0.3015  0.5703  0.6321
  274MOL0     C36056   8.479  10.972   3.770  0.7067 -0.6081 -0.0074
  274MOL0     C36057   8.337  10.911   3.816 -0.2044  0.0778  0.0561
  274MOL0     C36058   8.376  10.774   3.891  0.7142  0.1539 -0.3038
  274MOL0     C36059   8.255  10.670   3.899 -0.4922  0.1426  0.0255
  274MOL0     O36060   8.202  10.623   3.777  0.2115  0.1417  0.3716
  274MOL0     C36061   8.066  10.579   3.771 -0.3115 -0.0834  0.0859
  274MOL0     C36062   7.989  10.534   3.880  0.4674 -0.4379 -0.8755
  274MOL0     C36063   7.855  10.491   3.867 -0.5194 -0.4897 -0.7704
  274MOL0     C36064   7.796  10.486   3.742 -0.3502 -0.0538 -0.8468
  274MOL0     C36065   7.662  10.436   3.737 -0.9627  0.4313  0.3859
  274MOL0     O36066   7.610  10.393   3.854  0.2785 -0.6345  0.8389
  274MOL0     C36067   7.492  10.328   3.847 -0.1801  0.2814  0.3258
  274MOL0     C36068   7.371  10.413   3.853 -0.3766 -0.4290 -1.5872
  274MOL0     C36069   7.245  10.352   3.852  0.2889 -0.0444 -0.9669
  274MOL0     C36070   7.240  10.214   3.840 -0.5910  0.6759  0.4992
  274MOL0     O36071   7.115  10.159   3.833  0.3677 -0.5597 -0.3779
  274MOL0     C36072   7.015  10.182   3.942  0.0043 -0.4280  0.3512
  274MOL0     C36073   7.066  10.124   4.072  0.0404  1.0898 -0.6180
  274MOL0     C36074   7.096   9.975   4.076 -0.0140 -0.3771 -0.3167
  274MOL0     C36075   7.161   9.944   4.219 -0.1620  0.1635  0.6595
  274MOL0     C36076   7.081   9.948   4.337  0.1911 -0.0341 -0.4061
  274MOL0     C36077   7.173   9.961   4.464  0.2306 -0.1485 -0.1062
  274MOL0     C36078   7.096   9.939   4.598 -0.6847  0.4238  0.4915
  274MOL0     C36079   7.176   9.969   4.728  0.1585 -0.7687  0.0713
  274MOL0    Cl36080   7.061   9.966   4.876  0.2013 -0.4604 -0.2430
  274MOL0     C36081   7.347  10.134   3.818  0.4608  0.5608  0.2044
  274MOL0     C36082   7.478  10.186   3.828 -1.1162 -0.3714 -0.1038
  274MOL0     O36083   7.600  10.445   3.634  0.1853 -0.4807  0.4496
  274MOL0     C36084   7.866  10.549   3.630 -0.5310 -0.6524 -0.9166
  274MOL0     C36085   7.997  10.593   3.649  0.1485  0.4229  0.2887
  274MOL0     N36086   8.470  10.857   3.541  0.0038  1.2071 -0.5880
  274MOL0     N36087   8.547  10.790   3.470  0.0183  1.0989  1.2169
  274MOL0     C36088   9.744  10.790   2.778  0.3978 -0.1611  0.0398
  274MOL0     C36089   9.861  10.816   2.710 -0.6374  0.1284 -0.0769
  274MOL0     C36090  10.241  10.944   2.544  0.2412 -0.1602 -0.8579
  274MOL0     C36091  10.347  10.882   2.615  1.3821 -0.8172  1.0920
  274MOL0     C36092  10.473  10.876   2.562 -0.0990 -0.0502 -0.8602
  274MOL0     C36093  10.505  10.918   2.433  0.4731  0.3592  0.5527
  274MOL0     O36094  10.636  10.922   2.376 -0.0596 -0.5199 -0.1741
  274MOL0     C36095  10.731  10.818   2.416 -0.2254  0.2183  0.1390
  274MOL0     C36096  10.677  10.674   2.391 -0.4617  0.1490  0.4221
  274MOL0     C36097  10.670  10.638   2.244  0.1205 -0.3429  0.3799
  274MOL0     C36098  10.614  10.501   2.205 -0.2055  0.0913  0.3059
  274MOL0     C36099  10.702  10.385   2.247  0.2499 -0.1682  0.0262
  274MOL0     C36100  10.753  10.278   2.283  0.7472  0.3464 -0.0485
  274MOL0     C36101  10.402  10.996   2.367 -0.3362  0.3744  0.3591
  274MOL0     C36102  10.271  11.004   2.421  0.6055 -0.1560 -0.1310
  274MOL0     H36103  10.011  10.995   2.957 -0.1645 -0.0435  0.3995
  274MOL0     H36104   9.794  10.952   3.069 -0.4169  1.6332 -0.3049
  274MOL0     H36105   9.455  10.887   2.889  2.4931 -0.3450 -1.4096
  274MOL0     H36106   9.545  10.980   3.022  1.1912 -1.2817  1.4150
  274MOL0     H36107   9.466  10.842   3.194 -1.0032  0.5418  0.4858
  274MOL0     H36108   9.406  10.722   3.076 -1.4750 -0.2932 -0.4439
  274MOL0     H36109   9.220  10.896   3.020 -2.2972  0.5688  2.2458
  274MOL0     H36110   9.279  10.989   3.148 -3.8016  0.8020  2.1874
  274MOL0     H36111   9.223  10.680   3.193  1.9167  0.0619  3.4544
  274MOL0     H36112   9.238  10.789   3.309 -0.3268 -1.4646  0.7585
  274MOL0     H36113   8.997  10.789   3.118 -0.0799  0.7291  0.2622
  274MOL0     H36114   9.026  10.917   3.230  2.4102  0.3766  1.0950
  274MOL0     H36115   9.037  10.750   3.407  0.0006  1.4104 -0.1627
  274MOL0     H36116   8.996  10.620   3.307 -0.2981  0.0628  0.9378
  274MOL0     H36117   8.844  10.888   3.341  1.3898  0.7112 -1.5387
  274MOL0     H36118   8.782  10.754   3.242  3.6966  1.1526 -3.1766
  274MOL0     H36119   8.875  10.708   3.530  1.7184 -3.4877 -2.3381
  274MOL0     H36120   8.755  10.610   3.450  0.2345 -0.6279  0.2688
  274MOL0     H36121   8.750  10.841   3.713  0.8290  0.9970 -0.6731
  274MOL0     H36122   8.458  11.067   3.719 -0.3327 -0.9577 -0.2557
  274MOL0     H36123   8.536  10.978   3.863 -0.4672  0.3287  0.6890
  274MOL0     H36124   8.269  10.891   3.732  0.6258 -2.6054 -0.0560
  274MOL0     H36125   8.285  10.971   3.892  0.2431 -1.3652  1.5485
  274MOL0     H36126   8.458  10.720   3.843  0.4292 -1.4391  0.9099
  274MOL0     H36127   8.406  10.809   3.990  0.8358  2.7047 -1.1710
  274MOL0     H36128   8.181  10.715   3.965 -2.0057 -0.9102 -0.8964
  274MOL0     H36129   8.292  10.582   3.953  1.2005  0.1215 -1.0828
  274MOL0     H36130   8.038  10.529   3.977  4.0341 -0.1770 -2.4941
  274MOL0     H36131   7.795  10.464   3.953 -0.4018  2.5671  0.3798
  274MOL0     H36132   7.387  10.519   3.872  1.0830 -0.7037 -1.1140
  274MOL0     H36133   7.151  10.402   3.873 -0.0987 -0.9395 -0.5360
  274MOL0     H36134   6.912  10.159   3.916 -0.7728  2.3316  0.6615
  274MOL0     H36135   7.011  10.289   3.964  2.2312  0.1271 -1.5664
  274MOL0     H36136   7.001  10.142   4.158 -1.9225  2.6198 -2.3230
  274MOL0     H36137   7.155  10.183   4.097 -0.4119  1.4040  0.3095
  274MOL0     H36138   7.160   9.946   3.992 -1.9952 -1.2546 -1.6100
  274MOL0     H36139   7.004   9.917   4.074 -0.6294  0.4880  1.2602
  274MOL0     H36140   7.205   9.845   4.208 -1.0351  0.0813 -3.6350
  274MOL0     H36141   7.246  10.011   4.235 -1.4629  2.2989 -0.8055
  274MOL0     H36142   7.012   9.864   4.347  0.3177 -0.0297  0.6674
  274MOL0     H36143   7.022  10.040   4.330 -0.8039 -0.5514  0.8361
  274MOL0     H36144   7.219  10.060   4.467  1.3872 -0.6212 -1.2302
  274MOL0     H36145   7.266   9.903   4.457 -0.5710 -1.3014 -2.0535
  274MOL0     H36146   7.011  10.006   4.614 -0.0901  0.9592  1.5063
  274MOL0     H36147   7.075   9.832   4.599 -0.6274  0.3589 -1.3511
  274MOL0     H36148   7.223  10.066   4.717  1.2116 -0.9574  2.3096
  274MOL0     H36149   7.256   9.895   4.735  0.1708 -0.8873 -1.1386
  274MOL0     H36150   7.334  10.030   3.790  0.3783 -0.3754  3.3243
  274MOL0     H36151   7.562  10.118   3.819  0.2396  1.5513 -3.4395
  274MOL0     H36152   7.813  10.552   3.535 -2.6917  1.1992  0.2349
  274MOL0     H36153   8.051  10.623   3.560  0.1282  2.7403  0.9979
  274MOL0     H36154   9.672  10.722   2.735  0.7605  0.9213 -2.4779
  274MOL0     H36155   9.903  10.769   2.622  2.6650  2.1857  0.2421
  274MOL0     H36156  10.348  10.840   2.715 -1.2856 -1.4878  0.9107
  274MOL0     H36157  10.558  10.850   2.624  0.7963  2.5889 -0.8621
  274MOL0     H36158  10.743  10.821   2.524 -0.3844 -2.0196  0.2724
  274MOL0     H36159  10.834  10.835   2.383  0.4530  1.9538  2.8995
  274MOL0     H36160  10.751  10.608   2.437 -0.8416 -0.0377  0.7687
  274MOL0     H36161  10.578  10.666   2.437 -0.6638 -0.4092 -0.0997
  274MOL0     H36162  10.769  10.658   2.203 -0.8422  4.0070 -0.3432
  274MOL0     H36163  10.600  10.712   2.204  0.6202 -0.7383 -1.2843
  274MOL0     H36164  10.520  10.480   2.257  0.0671 -0.3450  0.6364
  274MOL0     H36165  10.592  10.488   2.098 -1.7303 -1.0494  0.7231
  274MOL0     H36166  10.805  10.186   2.302  1.3293  0.4683 -1.0193
  274MOL0     H36167  10.420  11.050   2.274 -3.0056  0.1609 -0.3837
  274MOL0     H36168  10.196  11.071   2.379  0.5340 -0.1951 -0.0674
  275MOL0     O36169   1.877   4.981   3.843 -0.4862 -0.0247 -0.4014
  275MOL0     C36170   1.849   5.083   3.911 -0.0116  0.2911 -0.6867
  275MOL0     O36171   1.794   5.201   3.861  0.1268 -0.7159  0.0070
  275MOL0     C36172   1.740   5.179   3.743 -0.5486  0.0104  1.0026
  275MOL0     C36173   1.602   5.186   3.719  0.4038 -0.5801 -0.0758
  275MOL0     C36174   1.556   5.159   3.589 -0.6312 -0.5160  0.8453
  275MOL0     C36175   1.643   5.131   3.482  0.4441  0.5060 -0.1794
  275MOL0     O36176   1.578   5.090   3.367  0.8022 -0.3075 -0.0714
  275MOL0     C36177   1.594   4.948   3.350  0.1881  0.6046  0.4830
  275MOL0     C36178   1.503   4.892   3.232 -0.3488  0.0673  0.4637
  275MOL0     C36179   1.504   4.736   3.244 -0.3765  0.2908  0.1440
  275MOL0     C36180   1.452   4.661   3.123  0.0489  0.2190 -0.3586
  275MOL0     C36181   1.297   4.659   3.120  0.7599  0.1877 -1.0057
  275MOL0     C36182   1.246   4.608   2.979 -0.0929 -0.1692  0.0531
  275MOL0     C36183   1.089   4.619   2.961  0.4481 -0.3978  0.7129
  275MOL0     C36184   1.005   4.549   3.068 -0.1594  1.0232  0.1479
  275MOL0     N36185   0.864   4.575   3.054  0.0204 -0.0822  0.5284
  275MOL0     C36186   0.764   4.485   3.086  0.0650  0.0900 -0.0567
  275MOL0     C36187   0.648   4.552   3.058 -0.4006  0.9096  0.1675
  275MOL0     C36188   0.511   4.485   3.076 -0.9685  0.0835 -0.0004
  275MOL0     C36189   0.404   4.590   3.103  0.2490  0.0840 -0.1372
  275MOL0     C36190   0.271   4.520   3.144 -0.6415 -0.3173  1.0659
  275MOL0     C36191   0.152   4.613   3.145  0.8614  0.4462 -0.3083
  275MOL0     O36192   0.046   4.543   3.207  0.2511 -0.5594  0.3085
  275MOL0     C36193  -0.070   4.605   3.228 -0.0689  0.1700 -0.1270
  275MOL0     C36194  -0.116   4.701   3.144 -0.5355 -0.3194 -0.0988
  275MOL0     C36195  -0.240   4.762   3.168  0.6292  0.0095 -0.7102
  275MOL0     C36196  -0.303   4.751   3.290  0.3223  0.2740  0.2339
  275MOL0     C36197  -0.430   4.826   3.311 -0.0481 -0.0926  1.3143
  275MOL0     O36198  -0.537   4.818   3.219 -0.6142  0.3527  0.5295
  275MOL0     C36199  -0.637   4.913   3.220  0.7697  0.9380  0.1532
  275MOL0     C36200  -0.668   4.984   3.101 -0.4628 -0.9477 -0.3779
  275MOL0     C36201  -0.761   5.087   3.104 -0.2380 -0.0510 -0.5063
  275MOL0     C36202  -0.841   5.111   3.220 -1.0107  0.4816 -0.1669
  275MOL0     O36203  -0.932   5.211   3.234 -0.0166 -0.6256  0.2499
  275MOL0     C36204  -0.974   5.292   3.119  0.2201 -0.5037 -1.0438
  275MOL0     C36205  -1.083   5.222   3.036  0.1898 -0.6601  0.2976
  275MOL0     C36206  -1.229   5.264   3.080  1.0831  0.0685  0.5956
  275MOL0     C36207  -1.338   5.230   2.979 -0.4880 -0.2351 -0.4533
  275MOL0     C36208  -1.457   5.329   2.997  0.2701 -0.1998 -0.7545
  275MOL0     C36209  -1.574   5.289   2.914 -1.1780 -0.2927 -0.8726
  275MOL0     C36210  -1.699   5.371   2.956 -0.9417 -0.1223 -0.1517
  275MOL0     C36211  -1.774   5.312   3.070  0.0462 -0.2118  0.4051
  275MOL0    Cl36212  -1.833   5.151   3.016  0.1327 -0.2137 -0.0156
  275MOL0     C36213  -0.817   5.030   3.327 -0.2012  1.2528 -0.6922
  275MOL0     C36214  -0.721   4.928   3.338  0.0850  0.3772  0.0963
  275MOL0     O36215  -0.439   4.873   3.416  0.1129  0.4761 -0.5483
  275MOL0     C36216  -0.253   4.659   3.383 -0.2632 -0.5554  0.4297
  275MOL0     C36217  -0.138   4.586   3.352  0.5739  0.3737 -0.5120
  275MOL0     N36218   0.681   4.681   3.018  0.2694 -0.1401  0.8359
  275MOL0     N36219   0.809   4.693   3.017  0.7332 -0.3913 -0.3796
  275MOL0     C36220   1.780   5.133   3.503 -0.4259 -0.8237  0.1274
  275MOL0     C36221   1.827   5.162   3.631  0.0895 -0.1065  0.4887
  275MOL0     C36222   1.859   5.057   4.057  0.2321  0.2954 -0.2442
  275MOL0     C36223   1.794   5.139   4.144 -0.0016 -0.6563  0.0716
  275MOL0     C36224   1.796   5.117   4.278  0.2159  0.0903  0.2468
  275MOL0     C36225   1.876   5.017   4.342  0.7825 -0.1588  0.7893
  275MOL0     O36226   1.892   4.997   4.477  0.8267 -0.8826 -0.6658
  275MOL0     C36227   1.788   5.052   4.574  0.3976  0.5745  0.4816
  275MOL0     C36228   1.647   4.985   4.550 -0.5548  0.1980  0.6192
  275MOL0     C36229   1.544   5.019   4.659 -0.1241 -0.6500  0.7816
  275MOL0     C36230   1.456   5.134   4.609  0.0086 -0.2109  1.1039
  275MOL0     C36231   1.515   5.263   4.573  0.1669  0.4894 -0.4296
  275MOL0     C36232   1.583   5.357   4.536 -0.5019 -0.3205  1.9981
  275MOL0     C36233   1.939   4.938   4.248  0.3558 -0.2585  0.5598
  275MOL0     C36234   1.930   4.953   4.107  0.1965 -0.3060 -0.3432
  275MOL0     H36235   1.528   5.222   3.789 -0.6411  1.4034 -2.0969
  275MOL0     H36236   1.449   5.151   3.570 -0.8713 -0.4194  2.1228
  275MOL0     H36237   1.578   4.889   3.441 -3.2268  0.4967 -0.0652
  275MOL0     H36238   1.694   4.926   3.311 -0.6685 -0.6876 -1.0802
  275MOL0     H36239   1.537   4.920   3.132  0.2300 -1.4446  0.2169
  275MOL0     H36240   1.401   4.928   3.243 -1.1625 -2.1191  0.4564
  275MOL0     H36241   1.447   4.701   3.330  1.5181  0.5187  1.5483
  275MOL0     H36242   1.609   4.706   3.255  0.2898  2.9497  2.2300
  275MOL0     H36243   1.492   4.710   3.034  4.1626 -1.1500  0.5445
  275MOL0     H36244   1.484   4.557   3.113  1.3869  0.7478 -1.9464
  275MOL0     H36245   1.260   4.761   3.135 -2.8767 -1.0793 -0.3010
  275MOL0     H36246   1.244   4.590   3.187  0.1535 -0.7335 -2.3809
  275MOL0     H36247   1.277   4.505   2.962  3.3435  0.9125 -1.1203
  275MOL0     H36248   1.290   4.677   2.906 -1.6998  2.2370  1.1955
  275MOL0     H36249   1.053   4.722   2.955  1.4906 -0.0927 -0.8951
  275MOL0     H36250   1.057   4.590   2.860 -1.4448  1.4953  0.6998
  275MOL0     H36251   1.031   4.575   3.171 -0.7272  0.1169  0.5342
  275MOL0     H36252   1.021   4.441   3.055  0.8106  1.0031  1.3157
  275MOL0     H36253   0.777   4.384   3.124 -0.2840 -0.8264 -2.2136
  275MOL0     H36254   0.521   4.419   3.163  3.6932  0.0205 -0.2981
  275MOL0     H36255   0.483   4.434   2.983 -0.4916  1.2159 -0.7908
  275MOL0     H36256   0.394   4.647   3.010 -0.2921  0.1291 -0.0549
  275MOL0     H36257   0.443   4.661   3.177  1.0432  0.9790 -1.3780
  275MOL0     H36258   0.245   4.431   3.086 -1.1757  2.0610 -2.6832
  275MOL0     H36259   0.295   4.494   3.247 -0.6801  1.6378  1.6016
  275MOL0     H36260   0.128   4.625   3.039  0.6145  1.9223 -0.1032
  275MOL0     H36261   0.172   4.708   3.194 -0.6556 -1.0790  3.6997
  275MOL0     H36262  -0.065   4.718   3.050 -0.0899  0.5105  0.2867
  275MOL0     H36263  -0.289   4.830   3.099 -1.4052 -0.4399  0.2258
  275MOL0     H36264  -0.625   4.942   3.011 -2.8427  1.4649 -2.7819
  275MOL0     H36265  -0.762   5.145   3.013 -2.7214  0.5091 -0.2035
  275MOL0     H36266  -0.893   5.309   3.047  0.3405 -0.5295 -0.9140
  275MOL0     H36267  -1.008   5.388   3.160  0.7931 -0.4840 -0.6111
  275MOL0     H36268  -1.069   5.115   3.016  1.3047 -0.1877 -1.7305
  275MOL0     H36269  -1.084   5.262   2.935 -1.9316 -0.1879  0.4634
  275MOL0     H36270  -1.230   5.372   3.102 -2.1342 -0.1252  1.9824
  275MOL0     H36271  -1.253   5.211   3.173 -0.1874 -1.3510 -0.5021
  275MOL0     H36272  -1.314   5.246   2.874 -1.3374  0.8153 -0.5134
  275MOL0     H36273  -1.374   5.127   2.991  1.1085 -0.6989  0.7425
  275MOL0     H36274  -1.429   5.432   2.976 -0.0629  0.9069  3.3642
  275MOL0     H36275  -1.488   5.327   3.102 -1.8113  1.3801 -1.2720
  275MOL0     H36276  -1.598   5.182   2.914  1.1586 -0.9757 -3.6097
  275MOL0     H36277  -1.543   5.319   2.813 -0.1136  3.3892  0.3840
  275MOL0     H36278  -1.669   5.475   2.974 -2.5644  0.7194 -1.9277
  275MOL0     H36279  -1.770   5.388   2.874 -0.2143  1.2243 -0.5372
  275MOL0     H36280  -1.863   5.372   3.089 -0.4803 -0.0794 -2.1641
  275MOL0     H36281  -1.713   5.312   3.161  0.6481 -0.2435  0.0095
  275MOL0     H36282  -0.860   5.054   3.424 -0.8583 -0.2703 -0.5856
  275MOL0     H36283  -0.692   4.891   3.435 -1.0750  0.6366  0.5533
  275MOL0     H36284  -0.294   4.644   3.482 -0.7032  0.2318  0.3807
  275MOL0     H36285  -0.100   4.513   3.423  3.2736  2.4147  0.3303
  275MOL0     H36286   1.854   5.118   3.424 -0.2983  2.7718 -0.6128
  275MOL0     H36287   1.934   5.178   3.642  0.5179  0.0322 -2.7897
  275MOL0     H36288   1.723   5.217   4.117 -0.6508 -0.9195  0.9840
  275MOL0     H36289   1.742   5.195   4.331  3.0804 -0.5519  4.5959
  275MOL0     H36290   1.790   5.161   4.567 -2.0016  0.6311 -0.0079
  275MOL0     H36291   1.812   5.026   4.677  2.2485 -1.4761 -0.3831
  275MOL0     H36292   1.609   5.029   4.457  0.4917  3.0896  1.4487
  275MOL0     H36293   1.658   4.877   4.537  1.7853  0.6784 -3.4860
  275MOL0     H36294   1.597   5.051   4.750  0.5386 -2.3292  1.0120
  275MOL0     H36295   1.486   4.928   4.678 -3.5647  1.2848  0.3102
  275MOL0     H36296   1.409   5.107   4.514  2.4218 -0.8825  0.0202
  275MOL0     H36297   1.374   5.144   4.682 -0.9837  0.8771 -0.1165
  275MOL0     H36298   1.643   5.429   4.485 -0.7000 -3.3781 -3.2040
  275MOL0     H36299   1.999   4.856   4.287  1.0307 -1.1382 -2.1088
  275MOL0     H36300   1.970   4.882   4.036  0.8180 -0.3604  0.0540
  276MOL0     O36301   2.477   1.662   5.306  0.0182 -0.1177 -0.1371
  276MOL0     C36302   2.431   1.772   5.291  0.8157 -0.0284  0.0972
  276MOL0     O36303   2.486   1.880   5.222  0.1324 -1.1569 -0.0443
  276MOL0     C36304   2.630   1.889   5.189  0.1998 -0.1362  0.7571
  276MOL0     C36305   2.680   1.810   5.082  0.0395 -0.1444  0.1189
  276MOL0     C36306   2.813   1.835   5.031  0.5622  0.3416  0.4218
  276MOL0     C36307   2.893   1.926   5.103  0.1313  1.1570 -0.6367
  276MOL0     O36308   3.027   1.942   5.068  0.3999  0.4498 -0.7565
  276MOL0     C36309   3.091   1.833   4.992  0.1456 -0.5366  0.6887
  276MOL0     C36310   3.234   1.833   5.027 -0.2402 -0.4060  0.7268
  276MOL0     C36311   3.312   1.709   4.979  0.3238  0.3496  0.3201
  276MOL0     C36312   3.462   1.710   5.015  0.0171 -0.0793 -0.7158
  276MOL0     C36313   3.543   1.822   4.949 -0.2931  1.0457 -0.3128
  276MOL0     C36314   3.686   1.834   5.006  0.0076 -0.0853  0.1118
  276MOL0     C36315   3.707   1.848   5.152 -0.1029 -0.6491  0.6842
  276MOL0     C36316   3.842   1.896   5.207 -1.1410  0.4722  0.3769
  276MOL0     N36317   3.847   1.906   5.354 -0.5955 -0.4280  0.2695
  276MOL0     C36318   3.837   1.802   5.436  1.2458  1.2422 -0.6245
  276MOL0     C36319   3.834   1.857   5.563  0.0773  0.3288 -0.3492
  276MOL0     C36320   3.835   1.775   5.693  0.0255  0.4183 -0.2722
  276MOL0     C36321   3.696   1.750   5.751  0.2437 -0.0197  0.2312
  276MOL0     C36322   3.695   1.681   5.886 -0.0717 -0.4669 -0.6227
  276MOL0     C36323   3.548   1.683   5.947 -0.6132 -0.0984  0.0789
  276MOL0     O36324   3.463   1.596   5.855 -0.4717 -0.1560 -0.0323
  276MOL0     C36325   3.328   1.583   5.889 -0.6089 -0.0428 -0.0771
  276MOL0     C36326   3.243   1.494   5.821 -0.2218 -0.0106  0.7426
  276MOL0     C36327   3.103   1.487   5.837  0.3125 -0.5936  0.4675
  276MOL0     C36328   3.040   1.567   5.928 -0.1061 -0.4862 -0.5816
  276MOL0     C36329   2.890   1.569   5.945  0.2530 -0.7427  0.2738
  276MOL0     O36330   2.813   1.542   5.838 -0.0324  0.7783  0.0952
  276MOL0     C36331   2.677   1.555   5.846 -0.6801  0.1348  0.2858
  276MOL0     C36332   2.595   1.511   5.951 -0.1857 -0.0606  0.2003
  276MOL0     C36333   2.451   1.515   5.942 -1.5820 -0.0303  0.5853
  276MOL0     C36334   2.395   1.563   5.822 -0.6211 -0.5616  0.3768
  276MOL0     O36335   2.258   1.572   5.808 -0.3425 -0.1324  0.5003
  276MOL0     C36336   2.195   1.630   5.921  0.6226 -0.9061 -0.0666
  276MOL0     C36337   2.058   1.699   5.892  0.6591  1.0953  0.2533
  276MOL0     C36338   1.992   1.732   6.028 -0.0358  0.2596 -0.9158
  276MOL0     C36339   1.845   1.802   6.015  0.1062  0.2772  0.0185
  276MOL0     C36340   1.810   1.874   6.147 -0.5031 -0.2991 -0.1401
  276MOL0     C36341   1.782   1.782   6.258  0.4292 -0.5329  0.0496
  276MOL0     C36342   1.764   1.862   6.393 -0.2703  0.2455 -0.4812
  276MOL0     C36343   1.736   1.774   6.511 -0.2610  0.3180 -0.0500
  276MOL0    Cl36344   1.586   1.680   6.481 -0.0338 -0.1773  0.1178
  276MOL0     C36345   2.475   1.587   5.709 -0.1532 -0.5689 -0.5251
  276MOL0     C36346   2.616   1.580   5.720  0.0591  0.3228  0.2144
  276MOL0     O36347   2.847   1.628   6.043 -0.1885 -0.0341  0.2930
  276MOL0     C36348   3.122   1.659   6.006  0.3670  1.1547 -0.6551
  276MOL0     C36349   3.261   1.668   5.981 -1.1084 -0.3854 -0.0282
  276MOL0     N36350   3.875   1.987   5.552 -0.2357 -1.0471  0.3001
  276MOL0     N36351   3.885   2.014   5.424  0.4321  0.3565 -0.2680
  276MOL0     C36352   2.836   2.002   5.205  0.4838  0.3151 -0.8976
  276MOL0     C36353   2.708   1.984   5.247  0.2028 -0.3804 -0.3664
  276MOL0     C36354   2.299   1.804   5.348  0.0682  0.2285 -1.0378
  276MOL0     C36355   2.223   1.696   5.406 -0.1490  0.9704 -0.6305
  276MOL0     C36356   2.100   1.731   5.455  0.3703 -0.3348  0.4354
  276MOL0     C36357   2.048   1.864   5.465 -0.0729 -0.2396  1.2557
  276MOL0     O36358   1.933   1.904   5.519 -0.2456 -0.6896  0.1889
  276MOL0     C36359   1.853   1.817   5.593 -0.8149  0.5896  0.2930
  276MOL0     C36360   1.730   1.890   5.652  1.1682  0.2447  0.7008
  276MOL0     C36361   1.601   1.887   5.560  0.0413 -0.3438  0.0041
  276MOL0     C36362   1.510   2.011   5.601 -0.9376 -0.4243  1.6628
  276MOL0     C36363   1.466   2.001   5.735  0.1334 -0.0409 -0.3520
  276MOL0     C36364   1.432   1.976   5.849 -0.5036 -0.1742  0.6191
  276MOL0     C36365   2.123   1.966   5.411  0.2420  0.1692 -0.3133
  276MOL0     C36366   2.250   1.936   5.356 -0.1189  0.0816  0.2031
  276MOL0     H36367   2.613   1.741   5.031 -2.6456  0.6915  2.2551
  276MOL0     H36368   2.847   1.781   4.943 -0.2305 -3.3967  2.2019
  276MOL0     H36369   3.087   1.858   4.886  2.0339  2.0333  1.1424
  276MOL0     H36370   3.048   1.738   5.024  0.6184 -0.7336  0.7447
  276MOL0     H36371   3.241   1.840   5.136 -1.1987 -3.1035  1.0401
  276MOL0     H36372   3.275   1.927   4.988  0.2928 -0.9598 -0.0706
  276MOL0     H36373   3.307   1.689   4.871  3.0100  0.6013  0.0819
  276MOL0     H36374   3.260   1.626   5.028  0.2016  0.9154  1.1640
  276MOL0     H36375   3.472   1.707   5.124  0.2085 -0.1063 -0.7333
  276MOL0     H36376   3.519   1.621   4.987  1.0856 -0.2409  1.7539
  276MOL0     H36377   3.503   1.921   4.973  1.5823  1.3476  1.9404
  276MOL0     H36378   3.555   1.812   4.841 -0.2074  3.0384 -0.5240
  276MOL0     H36379   3.750   1.907   4.955  1.6806 -2.1786 -0.9658
  276MOL0     H36380   3.725   1.734   4.984  2.3678  0.9036 -0.5757
  276MOL0     H36381   3.628   1.920   5.179 -0.6164 -1.4209  1.2814
  276MOL0     H36382   3.684   1.755   5.205 -4.2248  0.5864  1.4087
  276MOL0     H36383   3.862   1.991   5.157 -1.4817 -0.1257 -0.9294
  276MOL0     H36384   3.914   1.819   5.178  0.0402  1.2905  1.0613
  276MOL0     H36385   3.820   1.701   5.401  0.1503  2.2036 -3.0530
  276MOL0     H36386   3.904   1.812   5.769  1.2976 -2.5714  0.1715
  276MOL0     H36387   3.872   1.675   5.671 -0.6430  0.0373  0.2901
  276MOL0     H36388   3.645   1.688   5.677  1.9832 -1.4132  0.1384
  276MOL0     H36389   3.642   1.846   5.755 -4.1430 -2.2443  1.0425
  276MOL0     H36390   3.737   1.580   5.881  0.6894 -0.1512 -0.6774
  276MOL0     H36391   3.757   1.729   5.962 -1.2049 -0.2067  0.1657
  276MOL0     H36392   3.498   1.779   5.963 -1.5202 -0.3559 -1.0753
  276MOL0     H36393   3.553   1.639   6.047  0.1316  0.5534  0.3382
  276MOL0     H36394   3.289   1.421   5.755  1.5551 -0.7081  2.6196
  276MOL0     H36395   3.046   1.411   5.785 -0.0002 -0.3314  0.4227
  276MOL0     H36396   2.633   1.488   6.050  1.4108  2.5592  0.2927
  276MOL0     H36397   2.389   1.485   6.026  1.4224  0.3444  3.1289
  276MOL0     H36398   2.261   1.707   5.963 -1.1203  0.0449  1.0684
  276MOL0     H36399   2.171   1.558   6.000 -2.1289 -0.6291 -0.5575
  276MOL0     H36400   1.990   1.628   5.843  2.7098 -0.9097  0.1347
  276MOL0     H36401   2.066   1.788   5.829  0.8161  0.8970 -0.0100
  276MOL0     H36402   2.062   1.783   6.094  2.4090 -5.2249  1.3254
  276MOL0     H36403   1.970   1.638   6.079  0.6225  1.2276  1.2632
  276MOL0     H36404   1.861   1.878   5.938 -1.2009  0.8144  0.2526
  276MOL0     H36405   1.768   1.736   5.974  0.6554 -0.6426  0.4297
  276MOL0     H36406   1.725   1.942   6.140 -0.0210  0.4202  0.7403
  276MOL0     H36407   1.895   1.938   6.171  0.6627 -1.1931 -1.7645
  276MOL0     H36408   1.859   1.706   6.272  1.9433  0.9550  0.2617
  276MOL0     H36409   1.688   1.734   6.233 -0.3459  0.2984  1.2228
  276MOL0     H36410   1.845   1.934   6.407  0.5849 -0.7219 -0.3806
  276MOL0     H36411   1.673   1.924   6.395 -0.9958 -0.5695  4.2056
  276MOL0     H36412   1.727   1.842   6.597 -0.8816  1.2262 -0.8185
  276MOL0     H36413   1.814   1.701   6.538  0.4526  0.7041 -1.0145
  276MOL0     H36414   2.438   1.612   5.609 -0.8770 -3.2338 -0.9889
  276MOL0     H36415   2.677   1.604   5.633  0.1592 -0.8287 -0.0506
  276MOL0     H36416   3.092   1.728   6.085 -1.1859 -0.4286  0.2089
  276MOL0     H36417   3.311   1.750   6.032 -3.3497  2.0113 -1.4606
  276MOL0     H36418   2.904   2.070   5.254 -0.3472 -0.6714  1.8406
  276MOL0     H36419   2.662   2.065   5.302 -1.3968 -2.5558  1.6592
  276MOL0     H36420   2.257   1.596   5.431  1.7599  2.3768  3.2034
  276MOL0     H36421   2.031   1.659   5.497 -0.6861  1.5958  2.2372
  276MOL0     H36422   1.917   1.774   5.671 -0.2491  1.9330  0.5991
  276MOL0     H36423   1.820   1.735   5.528  1.3194 -2.2585  2.5287
  276MOL0     H36424   1.703   1.826   5.737 -1.1344  1.1592  0.7506
  276MOL0     H36425   1.757   1.992   5.682  2.6238 -0.4913  2.0443
  276MOL0     H36426   1.537   1.801   5.582 -1.9987  1.0464 -0.2041
  276MOL0     H36427   1.631   1.886   5.455  2.4841  0.4644  0.6333
  276MOL0     H36428   1.566   2.106   5.601 -1.4106 -0.0142 -1.6828
  276MOL0     H36429   1.422   2.025   5.537  0.0392  0.7354  0.4808
  276MOL0     H36430   1.398   1.967   5.950 -2.5481 -0.9910 -0.1074
  276MOL0     H36431   2.086   2.067   5.420 -2.6337 -0.6866 -1.2833
  276MOL0     H36432   2.317   2.016   5.326 -1.5765  1.2991  0.0667
  277MOL0     O36433   8.577   6.525   5.875 -1.0297  0.3819  0.0773
  277MOL0     C36434   8.559   6.419   5.943 -0.3707 -0.3879 -0.1522
  277MOL0     O36435   8.438   6.352   5.956  0.3557 -0.1673  0.1142
  277MOL0     C36436   8.321   6.415   5.924  0.7099  0.4704  0.6465
  277MOL0     C36437   8.305   6.557   5.961 -0.2272  0.3052  0.1464
  277MOL0     C36438   8.193   6.632   5.944 -0.3648  0.5183  0.6532
  277MOL0     C36439   8.090   6.572   5.865 -0.8755  1.1109 -0.5110
  277MOL0     O36440   7.983   6.647   5.816 -0.1008  0.6308  0.1581
  277MOL0     C36441   8.017   6.770   5.750  0.1718  0.7085 -0.6872
  277MOL0     C36442   7.904   6.845   5.671 -0.2941 -0.4007 -0.2514
  277MOL0     C36443   7.796   6.889   5.771 -0.4762 -0.2274  0.5150
  277MOL0     C36444   7.708   7.009   5.724  0.4552 -0.6337 -0.7906
  277MOL0     C36445   7.570   7.002   5.790  0.1261 -0.0904 -0.0620
  277MOL0     C36446   7.500   7.135   5.769 -0.3540 -0.8869 -0.7352
  277MOL0     C36447   7.373   7.149   5.853 -0.4107 -0.4493  0.5658
  277MOL0     C36448   7.267   7.044   5.818 -0.1217 -0.5387 -0.1534
  277MOL0     N36449   7.142   7.089   5.875  0.8932 -0.0142 -1.0709
  277MOL0     C36450   7.103   7.079   6.009 -1.6092  0.0548 -0.6770
  277MOL0     C36451   6.973   7.102   6.000 -0.3751 -0.6810 -0.7963
  277MOL0     C36452   6.878   7.111   6.118 -0.2352  0.3776  0.0438
  277MOL0     C36453   6.732   7.099   6.109 -0.0776  0.3961  0.2656
  277MOL0     C36454   6.673   7.062   6.240  0.9033 -0.4899  1.3543
  277MOL0     C36455   6.528   7.016   6.222  0.7440  0.1711  0.8736
  277MOL0     O36456   6.485   6.988   6.354  0.0027  0.1698 -0.5349
  277MOL0     C36457   6.355   7.005   6.395 -0.6833  0.9750 -0.1765
  277MOL0     C36458   6.252   7.032   6.312 -0.6693 -0.3044 -0.2183
  277MOL0     C36459   6.127   7.038   6.365 -0.0430 -0.3605  0.8550
  277MOL0     C36460   6.096   7.027   6.502  0.0100 -0.1789 -0.0355
  277MOL0     C36461   5.954   7.045   6.553 -0.1163  0.4615  0.2095
  277MOL0     O36462   5.940   7.021   6.690  0.4628 -0.3786 -0.5170
  277MOL0     C36463   5.817   7.052   6.732 -0.4599 -0.3050 -0.5658
  277MOL0     C36464   5.734   6.951   6.762 -0.0828 -0.3679 -0.1597
  277MOL0     C36465   5.603   6.982   6.797 -0.2974 -0.2693 -0.3253
  277MOL0     C36466   5.550   7.112   6.801  0.4775 -0.5518 -0.2500
  277MOL0     O36467   5.423   7.159   6.833  0.0683  0.5021  0.1742
  277MOL0     C36468   5.326   7.062   6.865  0.0979 -0.3124  0.2156
  277MOL0     C36469   5.190   7.127   6.885  0.4646 -0.5160 -0.1487
  277MOL0     C36470   5.139   7.176   6.738 -0.7883  0.6282 -0.5922
  277MOL0     C36471   5.005   7.249   6.752 -0.2721  0.5637  0.8445
  277MOL0     C36472   4.961   7.288   6.610  0.7014  0.4508  0.0115
  277MOL0     C36473   4.837   7.370   6.617  0.7834 -0.9925  0.4683
  277MOL0     C36474   4.786   7.377   6.468  0.2801 -0.6196  0.4049
  277MOL0     C36475   4.658   7.461   6.462 -0.2542 -0.8547  0.5919
  277MOL0    Cl36476   4.523   7.377   6.540 -0.4521  0.3207  0.1732
  277MOL0     C36477   5.642   7.216   6.794 -0.5022 -1.1262  0.3727
  277MOL0     C36478   5.778   7.188   6.761  0.0460  0.8544  0.6465
  277MOL0     O36479   5.866   7.082   6.480 -0.8278  0.4790 -0.7023
  277MOL0     C36480   6.203   7.009   6.585 -0.1778 -0.8492 -0.2653
  277MOL0     C36481   6.335   6.989   6.537 -0.2907 -0.6021  0.6692
  277MOL0     N36482   6.931   7.124   5.867  0.0156  0.4961  0.1173
  277MOL0     N36483   7.031   7.116   5.797  0.4213 -0.7265  0.3526
  277MOL0     C36484   8.093   6.431   5.839 -0.3216  0.1797 -0.0425
  277MOL0     C36485   8.208   6.361   5.863 -0.5441  0.1355 -0.0659
  277MOL0     C36486   8.692   6.360   6.001 -0.2546 -0.6507 -0.7848
  277MOL0     C36487   8.688   6.232   6.051  0.3109  0.7795 -0.2382
  277MOL0     C36488   8.802   6.176   6.114  0.0161 -0.0782  0.5739
  277MOL0     C36489   8.919   6.256   6.115  0.4669 -0.0745  0.6559
  277MOL0     O36490   9.039   6.216   6.170  0.6891  0.7275  0.0552
  277MOL0     C36491   9.061   6.069   6.193  1.0434  0.2384  1.0519
  277MOL0     C36492   9.203   6.031   6.227  0.2025  0.5404  0.1932
  277MOL0     C36493   9.246   6.058   6.378  1.0401  0.5850 -0.1863
  277MOL0     C36494   9.400   6.064   6.383  1.0683 -0.6524 -0.0643
  277MOL0     C36495   9.456   6.090   6.516 -0.0538 -0.6007 -0.5958
  277MOL0     C36496   9.488   6.109   6.638 -0.3642 -0.5339  0.1428
  277MOL0     C36497   8.913   6.393   6.082 -0.3878  0.1961 -0.6069
  277MOL0     C36498   8.804   6.442   6.019  0.4377 -0.1059 -0.8390
  277MOL0     H36499   8.383   6.604   6.020  0.4689 -1.0593  0.3729
  277MOL0     H36500   8.188   6.737   5.970  2.5390  0.4920  1.7423
  277MOL0     H36501   8.107   6.744   5.694  2.3568  0.1762  2.7764
  277MOL0     H36502   8.055   6.850   5.814  2.1813 -0.3537 -0.4918
  277MOL0     H36503   7.866   6.780   5.592 -0.1948 -3.0291  1.7503
  277MOL0     H36504   7.954   6.931   5.624 -2.6097  0.1704 -1.8260
  277MOL0     H36505   7.845   6.919   5.864 -0.1752  0.8037  0.0354
  277MOL0     H36506   7.732   6.806   5.800  0.6341 -0.9189  1.0604
  277MOL0     H36507   7.761   7.099   5.754 -0.4426  0.5252 -2.5439
  277MOL0     H36508   7.695   7.015   5.615  1.6597 -0.2486 -0.9219
  277MOL0     H36509   7.572   6.975   5.896 -0.4301 -1.2614 -0.3335
  277MOL0     H36510   7.521   6.921   5.735  2.7290 -2.5436  0.9737
  277MOL0     H36511   7.491   7.163   5.664 -4.2041  1.2589 -0.0100
  277MOL0     H36512   7.578   7.200   5.811 -0.2323 -2.4212  1.6314
  277MOL0     H36513   7.398   7.149   5.959 -1.5403  2.7340  0.9302
  277MOL0     H36514   7.338   7.251   5.834  3.2075  0.4136 -2.8710
  277MOL0     H36515   7.303   6.954   5.868  0.2136  0.1579  0.8923
  277MOL0     H36516   7.260   7.019   5.712 -2.0709 -3.8876  0.6347
  277MOL0     H36517   7.163   7.078   6.100  1.1894  0.8099 -2.3818
  277MOL0     H36518   6.879   7.218   6.141 -0.5298  0.8234 -1.9013
  277MOL0     H36519   6.927   7.061   6.203  1.3643 -0.1275 -1.1308
  277MOL0     H36520   6.710   7.014   6.045  0.9346 -1.3717  2.1279
  277MOL0     H36521   6.694   7.194   6.071 -2.4264 -0.1391  1.0979
  277MOL0     H36522   6.732   6.980   6.282  2.0848 -0.6410 -0.4901
  277MOL0     H36523   6.676   7.151   6.303  0.6956  0.8984 -0.5064
  277MOL0     H36524   6.528   6.926   6.161  1.6479  2.0367 -2.0869
  277MOL0     H36525   6.475   7.095   6.167  1.8352 -0.0477 -0.5420
  277MOL0     H36526   6.255   7.049   6.205 -3.7933 -0.2722 -0.3890
  277MOL0     H36527   6.050   7.046   6.288  1.0848  1.6525 -0.1458
  277MOL0     H36528   5.771   6.849   6.765  1.9487  0.2877 -1.0725
  277MOL0     H36529   5.542   6.895   6.817  3.5902 -2.9887  0.9299
  277MOL0     H36530   5.351   7.014   6.961  2.4331  1.4619  0.5785
  277MOL0     H36531   5.316   6.990   6.783 -0.6659  0.6445 -0.5512
  277MOL0     H36532   5.186   7.209   6.957 -0.1024 -0.0202 -0.7287
  277MOL0     H36533   5.126   7.046   6.921  1.4906 -0.8395  1.0110
  277MOL0     H36534   5.143   7.084   6.680 -1.6212 -0.5032  1.0825
  277MOL0     H36535   5.218   7.245   6.704 -3.1140  3.1428 -1.2380
  277MOL0     H36536   4.926   7.189   6.798  0.3250  0.1509  1.3485
  277MOL0     H36537   5.016   7.324   6.831  0.2980 -0.0330  1.3432
  277MOL0     H36538   4.953   7.200   6.545  0.3158  1.1028 -0.8469
  277MOL0     H36539   5.035   7.356   6.568 -0.8088  0.9756 -1.9663
  277MOL0     H36540   4.868   7.468   6.654  0.6003  0.6857 -3.3496
  277MOL0     H36541   4.765   7.332   6.689  1.0316 -0.5503  0.9592
  277MOL0     H36542   4.862   7.428   6.408 -0.8092 -0.4088 -0.8475
  277MOL0     H36543   4.768   7.275   6.434 -2.3072  0.4117 -1.6187
  277MOL0     H36544   4.630   7.475   6.357 -5.5948  1.7625  2.0551
  277MOL0     H36545   4.668   7.563   6.500 -0.8628 -0.7985  0.6014
  277MOL0     H36546   5.619   7.321   6.807  0.3342 -0.6495 -1.5607
  277MOL0     H36547   5.849   7.270   6.751  0.6682  0.1370 -1.5553
  277MOL0     H36548   6.191   7.019   6.693 -0.1028 -0.2515 -0.3064
  277MOL0     H36549   6.406   6.964   6.615  1.7467  0.6079 -0.7008
  277MOL0     H36550   8.007   6.385   5.792 -0.0523 -0.2382 -0.1272
  277MOL0     H36551   8.213   6.255   5.844 -0.5855 -0.0435  0.8603
  277MOL0     H36552   8.599   6.171   6.042  1.6052 -1.7070  2.2375
  277MOL0     H36553   8.802   6.071   6.140  0.0136 -0.7661 -1.9281
  277MOL0     H36554   9.049   6.019   6.096  2.2879  2.3035 -0.2609
  277MOL0     H36555   8.994   6.022   6.265  0.9915  0.0117  0.8562
  277MOL0     H36556   9.212   5.927   6.195 -0.2264 -0.1946  2.2807
  277MOL0     H36557   9.261   6.088   6.155  1.2731  0.1553  0.7257
  277MOL0     H36558   9.201   5.992   6.452  0.3251 -0.2411 -1.3171
  277MOL0     H36559   9.211   6.156   6.412 -1.2004 -0.2644  0.0808
  277MOL0     H36560   9.444   5.980   6.329  0.6482 -0.0004 -1.4643
  277MOL0     H36561   9.428   6.152   6.324 -1.2508  1.0270  1.1685
  277MOL0     H36562   9.511   6.124   6.741 -4.6330  0.1223  1.1821
  277MOL0     H36563   9.005   6.447   6.104 -0.7322  0.1610  1.0363
  277MOL0     H36564   8.803   6.542   5.975 -1.8158  1.6874  2.8201
  278MOL0     O36565   6.741   1.731   3.494  0.0923  0.1317 -0.0250
  278MOL0     C36566   6.771   1.613   3.470  0.4669 -0.1175  0.3347
  278MOL0     O36567   6.690   1.511   3.499  0.2318 -0.1182 -0.2588
  278MOL0     C36568   6.566   1.527   3.545  0.3240  0.6917  0.3752
  278MOL0     C36569   6.458   1.485   3.477  0.5709  0.7606 -0.3557
  278MOL0     C36570   6.331   1.507   3.527 -0.3461 -0.5840  0.6901
  278MOL0     C36571   6.307   1.569   3.647 -0.3554 -0.1813  0.2535
  278MOL0     O36572   6.178   1.573   3.693  0.0784 -1.3335 -0.0304
  278MOL0     C36573   6.116   1.702   3.678  0.8786 -0.6470  0.3312
  278MOL0     C36574   6.078   1.740   3.525  0.2950  0.3151  0.2747
  278MOL0     C36575   6.087   1.895   3.517  0.4820  0.1193 -0.0181
  278MOL0     C36576   6.233   1.929   3.490 -0.2481 -0.4025 -0.1982
  278MOL0     C36577   6.260   2.077   3.465 -0.6621  0.8121 -0.8146
  278MOL0     C36578   6.409   2.099   3.430 -0.4385 -0.0535  0.0819
  278MOL0     C36579   6.454   2.247   3.432  0.1622  0.2644  0.1205
  278MOL0     C36580   6.603   2.275   3.463  0.2034  0.2584 -0.1182
  278MOL0     N36581   6.700   2.212   3.366 -0.5125 -0.1530 -0.3249
  278MOL0     C36582   6.822   2.160   3.411  0.0474 -0.7429  0.4958
  278MOL0     C36583   6.892   2.144   3.289 -0.5949 -0.0037 -0.2874
  278MOL0     C36584   7.030   2.080   3.278  0.1872 -0.3816 -0.4227
  278MOL0     C36585   7.143   2.153   3.349  0.3772 -0.6146  0.5513
  278MOL0     C36586   7.283   2.087   3.352 -0.2757  0.2884 -0.1756
  278MOL0     C36587   7.346   2.075   3.215  0.2226  0.4885 -0.3077
  278MOL0     O36588   7.467   2.007   3.240  0.2369 -0.1147  0.0333
  278MOL0     C36589   7.579   2.072   3.199  0.9544 -0.3162  0.0786
  278MOL0     C36590   7.607   2.161   3.091 -0.2318 -0.0635  0.4566
  278MOL0     C36591   7.732   2.210   3.066 -0.7948  0.3485  0.1734
  278MOL0     C36592   7.838   2.170   3.145  0.0308 -0.6363  0.4411
  278MOL0     C36593   7.973   2.222   3.127  0.3069 -1.2363 -0.0424
  278MOL0     O36594   8.002   2.264   2.999  0.4878 -0.4133  0.4402
  278MOL0     C36595   8.122   2.313   2.956  0.2982  0.0095 -0.4335
  278MOL0     C36596   8.123   2.378   2.834  0.5049 -0.0763 -0.8325
  278MOL0     C36597   8.241   2.438   2.786 -1.1794  0.8754  0.5926
  278MOL0     C36598   8.365   2.420   2.849 -0.5681 -0.2682 -0.7952
  278MOL0     O36599   8.480   2.468   2.787  0.3300 -0.8126 -0.2423
  278MOL0     C36600   8.576   2.373   2.739 -0.3991  0.2250 -0.5878
  278MOL0     C36601   8.709   2.451   2.698 -0.0017 -0.7513 -0.2556
  278MOL0     C36602   8.807   2.360   2.630  0.4829  0.3462 -0.3989
  278MOL0     C36603   8.948   2.419   2.650 -0.5455 -0.0652 -0.0568
  278MOL0     C36604   9.044   2.335   2.567  0.2707  0.0922 -0.0261
  278MOL0     C36605   9.182   2.401   2.574  0.0766 -0.1233 -0.0492
  278MOL0     C36606   9.281   2.342   2.477 -0.6299 -0.1867  0.4452
  278MOL0     C36607   9.429   2.375   2.503 -0.1616  0.3328 -0.9501
  278MOL0    Cl36608   9.504   2.304   2.353  0.4902  0.5438  0.2924
  278MOL0     C36609   8.361   2.347   2.968  0.1651 -0.6115  0.3291
  278MOL0     C36610   8.244   2.297   3.018 -0.5484 -0.1160  0.3398
  278MOL0     O36611   8.047   2.227   3.218  0.6626 -0.2161  0.0717
  278MOL0     C36612   7.823   2.076   3.248  0.0112  0.4487 -0.0122
  278MOL0     C36613   7.697   2.030   3.271  0.1685  0.1668  0.4955
  278MOL0     N36614   6.813   2.191   3.194  0.7842 -1.2670 -0.1878
  278MOL0     N36615   6.701   2.228   3.232  0.6840  0.0170 -0.3995
  278MOL0     C36616   6.419   1.626   3.711  0.1615 -1.1754 -0.5330
  278MOL0     C36617   6.552   1.596   3.661 -0.8002  0.0822 -0.3192
  278MOL0     C36618   6.892   1.588   3.393 -0.1444 -0.7051 -0.0284
  278MOL0     C36619   6.955   1.688   3.316 -0.4580 -0.2769 -0.2212
  278MOL0     C36620   7.069   1.656   3.233  0.1570  0.4828 -0.0827
  278MOL0     C36621   7.127   1.528   3.247  1.0899  0.1139  0.1543
  278MOL0     O36622   7.224   1.489   3.168 -0.2115 -0.2790 -0.3261
  278MOL0     C36623   7.351   1.443   3.235  0.1953 -0.2118  0.3884
  278MOL0     C36624   7.465   1.474   3.145 -0.9648  0.4970 -0.8091
  278MOL0     C36625   7.492   1.627   3.125  0.3798  0.3146 -0.8942
  278MOL0     C36626   7.639   1.657   3.107  0.5867  0.5568  0.5700
  278MOL0     C36627   7.702   1.586   2.998 -0.5545 -0.0736  0.6439
  278MOL0     C36628   7.775   1.523   2.925 -0.5269 -0.2304 -0.1832
  278MOL0     C36629   7.064   1.436   3.332 -0.2825  0.2893  0.3709
  278MOL0     C36630   6.948   1.465   3.395  0.1012 -0.9542 -0.5861
  278MOL0     H36631   6.462   1.427   3.385  0.5274 -0.6239  0.4944
  278MOL0     H36632   6.244   1.490   3.464 -1.5150  4.6411  0.4950
  278MOL0     H36633   6.181   1.783   3.712  0.4815 -0.3384  0.3677
  278MOL0     H36634   6.023   1.711   3.735  0.7703 -0.7520  0.1720
  278MOL0     H36635   5.975   1.710   3.500  0.1036  0.0182  1.3354
  278MOL0     H36636   6.142   1.687   3.455 -0.2339 -0.2839  0.2237
  278MOL0     H36637   6.048   1.950   3.604 -0.6252 -1.5856  0.6182
  278MOL0     H36638   6.030   1.922   3.427  3.3320  3.1013 -1.1411
  278MOL0     H36639   6.311   1.893   3.556  1.3770  1.0640 -1.2243
  278MOL0     H36640   6.249   1.889   3.389  1.5708 -1.3125  0.4077
  278MOL0     H36641   6.224   2.128   3.555 -2.2756 -0.7504 -0.5116
  278MOL0     H36642   6.204   2.119   3.381 -1.6219  3.3247  0.9696
  278MOL0     H36643   6.436   2.059   3.332 -2.1662  0.3258 -0.5743
  278MOL0     H36644   6.473   2.042   3.498 -0.6709  0.9620  1.1791
  278MOL0     H36645   6.436   2.297   3.336 -0.2848  0.6839  0.4192
  278MOL0     H36646   6.384   2.299   3.498  0.3826 -2.8294  3.0763
  278MOL0     H36647   6.633   2.244   3.564 -0.7940  0.4688  0.2519
  278MOL0     H36648   6.620   2.383   3.459 -2.1637  0.8081  1.8013
  278MOL0     H36649   6.856   2.139   3.512 -1.8406 -1.0677  1.0889
  278MOL0     H36650   7.045   2.091   3.170 -2.9154  2.5852 -0.7047
  278MOL0     H36651   7.028   1.976   3.312  0.1418  1.0178  4.7980
  278MOL0     H36652   7.106   2.171   3.451 -0.1937  0.9176  0.0978
  278MOL0     H36653   7.148   2.253   3.305 -1.8552 -1.3145 -1.5146
  278MOL0     H36654   7.350   2.153   3.409  0.7041  1.3189 -2.4258
  278MOL0     H36655   7.272   1.989   3.399  1.6472 -0.1850 -0.6716
  278MOL0     H36656   7.368   2.177   3.184  2.5497 -0.2930 -1.4600
  278MOL0     H36657   7.284   2.026   3.140 -0.7138  1.6599 -0.3265
  278MOL0     H36658   7.522   2.193   3.031 -1.3535 -0.0353  1.9730
  278MOL0     H36659   7.754   2.281   2.988 -0.9009  0.9949  0.7187
  278MOL0     H36660   8.031   2.382   2.776  1.6942 -0.8736 -2.9191
  278MOL0     H36661   8.234   2.492   2.692  2.7562 -3.9557 -3.1133
  278MOL0     H36662   8.536   2.307   2.662 -1.0974 -2.8707  2.1912
  278MOL0     H36663   8.606   2.319   2.829  0.0555  2.4925  0.7150
  278MOL0     H36664   8.755   2.489   2.789 -2.9667  0.9976  0.6506
  278MOL0     H36665   8.699   2.539   2.634  1.9392  0.3480  0.8419
  278MOL0     H36666   8.782   2.354   2.524 -1.7871  2.0086 -0.0376
  278MOL0     H36667   8.809   2.261   2.678  0.3606 -0.5640 -2.1932
  278MOL0     H36668   8.943   2.517   2.602  0.9089  0.3427  0.5881
  278MOL0     H36669   8.969   2.418   2.757 -1.9557 -1.7969  0.2605
  278MOL0     H36670   9.001   2.338   2.467 -1.2991  1.4641  0.6558
  278MOL0     H36671   9.048   2.227   2.586  2.9851  0.2895  1.0485
  278MOL0     H36672   9.216   2.366   2.672 -2.0596  1.6256  1.3945
  278MOL0     H36673   9.162   2.508   2.564 -0.5800 -0.3210 -1.0398
  278MOL0     H36674   9.273   2.233   2.473 -1.4839 -0.1489  0.8396
  278MOL0     H36675   9.259   2.386   2.379 -1.2389  0.0410  0.6771
  278MOL0     H36676   9.454   2.304   2.582 -0.6599 -3.6385 -3.9746
  278MOL0     H36677   9.453   2.479   2.522  2.6595  0.1439 -2.8354
  278MOL0     H36678   8.454   2.336   3.024  0.5492  1.0424  0.0625
  278MOL0     H36679   8.269   2.235   3.104 -0.9289 -1.5407 -0.5430
  278MOL0     H36680   7.905   2.055   3.315  2.1037  1.1432 -2.2273
  278MOL0     H36681   7.678   1.941   3.331  1.6647 -1.0629 -0.7852
  278MOL0     H36682   6.398   1.677   3.804  0.2592 -1.8842 -0.1183
  278MOL0     H36683   6.635   1.624   3.726 -1.6061 -1.3236  1.4069
  278MOL0     H36684   6.906   1.784   3.300 -2.4480 -1.2538 -0.3493
  278MOL0     H36685   7.121   1.740   3.187  0.9066 -0.9519 -1.9916
  278MOL0     H36686   7.347   1.334   3.245 -1.0849 -0.1035  1.2049
  278MOL0     H36687   7.360   1.491   3.333 -1.6305 -0.8801  0.9063
  278MOL0     H36688   7.556   1.422   3.178 -1.2406 -0.2107 -1.1328
  278MOL0     H36689   7.449   1.429   3.046  2.0227 -1.1548 -0.6583
  278MOL0     H36690   7.457   1.678   3.215  0.6106 -3.8351  1.8249
  278MOL0     H36691   7.433   1.650   3.036 -3.8233 -3.1780  0.6439
  278MOL0     H36692   7.628   1.765   3.093 -2.2381  0.1163 -1.4650
  278MOL0     H36693   7.684   1.614   3.197 -0.4033 -2.2362 -0.1688
  278MOL0     H36694   7.842   1.479   2.854  0.3643  1.2057 -0.2895
  278MOL0     H36695   7.091   1.332   3.319  1.8735  1.0378 -2.0251
  278MOL0     H36696   6.897   1.383   3.444 -1.1032 -0.6889 -1.3437
  279MOL0     O36697   3.171   3.556   0.000 -0.2673 -0.2820 -0.0179
  279MOL0     C36698   3.237   3.665   0.023  0.5466 -0.6158  0.9650
  279MOL0     O36699   3.182   3.783   0.048  0.1222 -0.2744 -0.1749
  279MOL0     C36700   3.046   3.796   0.067  0.0377  0.6250  0.3727
  279MOL0     C36701   3.004   3.797   0.197 -1.1294 -0.1835 -0.2131
  279MOL0     C36702   2.868   3.831   0.225  0.1443 -0.4433 -0.5380
  279MOL0     C36703   2.768   3.837   0.121 -0.3790  0.2109 -0.3374
  279MOL0     O36704   2.636   3.872   0.138  0.0763  1.0219 -0.5326
  279MOL0     C36705   2.569   3.835   0.263 -0.6584  0.3619  0.6334
  279MOL0     C36706   2.429   3.867   0.246 -0.0598  0.0972  0.2605
  279MOL0     C36707   2.337   3.808   0.353 -0.0406 -1.1050  0.2374
  279MOL0     C36708   2.239   3.913   0.404  0.9900  0.4814  0.5723
  279MOL0     C36709   2.157   3.863   0.520 -0.6156 -0.2524 -0.6492
  279MOL0     C36710   2.052   3.768   0.477 -0.1519 -0.6027 -0.6789
  279MOL0     C36711   1.966   3.730   0.592 -0.3926  0.1945 -0.2897
  279MOL0     C36712   2.030   3.636   0.688 -0.3801  0.2398 -0.2672
  279MOL0     N36713   1.939   3.603   0.797 -0.0818  0.3746  0.9301
  279MOL0     C36714   1.803   3.576   0.782 -0.1020  0.1608  0.0521
  279MOL0     C36715   1.755   3.557   0.904  0.8238  0.1352  0.2842
  279MOL0     C36716   1.607   3.516   0.943 -0.2863  0.3140  0.7361
  279MOL0     C36717   1.517   3.635   0.934  0.2425 -0.2204  0.5955
  279MOL0     C36718   1.382   3.596   0.878  0.4424 -0.6765 -0.6288
  279MOL0     C36719   1.290   3.721   0.870 -1.0891  0.1329  0.9184
  279MOL0     O36720   1.156   3.686   0.839 -0.0811 -0.2379  0.5577
  279MOL0     C36721   1.057   3.780   0.854  0.1010  0.0924 -0.1738
  279MOL0     C36722   0.924   3.743   0.903 -0.3026 -0.7089  0.4680
  279MOL0     C36723   0.818   3.840   0.918 -0.2334 -0.1811  0.3312
  279MOL0     C36724   0.840   3.975   0.896 -0.3516  1.0008  0.4346
  279MOL0     C36725   0.747   4.080   0.918  0.3658 -0.5147 -0.1908
  279MOL0     O36726   0.621   4.040   0.962  0.3986 -0.0210  0.1306
  279MOL0     C36727   0.526   4.138   1.001 -0.4719  0.2980 -0.4608
  279MOL0     C36728   0.543   4.250   1.074  0.7628 -0.1105  0.3198
  279MOL0     C36729   0.442   4.344   1.097 -0.6902  0.2622  0.3038
  279MOL0     C36730   0.310   4.318   1.058 -0.4664  0.6150  0.1131
  279MOL0     O36731   0.207   4.402   1.077  0.8553 -0.3673  0.4164
  279MOL0     C36732   0.227   4.539   1.103 -0.1600 -0.3812  0.1500
  279MOL0     C36733   0.268   4.617   0.976 -0.3128  0.8278  0.4158
  279MOL0     C36734   0.154   4.679   0.901  0.6469 -0.1422 -0.0316
  279MOL0     C36735   0.108   4.813   0.965  0.4354 -0.3804  0.2512
  279MOL0     C36736  -0.028   4.864   0.900 -0.0594  0.2283  0.1824
  279MOL0     C36737  -0.066   5.005   0.970  0.1864  0.6720  0.2657
  279MOL0     C36738  -0.212   5.032   0.928  0.0924 -0.6453  0.8995
  279MOL0     C36739  -0.259   5.160   0.994  0.2093 -0.0680 -0.1853
  279MOL0    Cl36740  -0.309   5.108   1.164  0.5206 -0.1765 -0.7289
  279MOL0     C36741   0.285   4.187   1.004  0.3189  0.4272 -0.2783
  279MOL0     C36742   0.392   4.101   0.977 -0.4894 -0.0086 -0.5062
  279MOL0     O36743   0.783   4.195   0.916 -0.3721  0.8155 -0.0396
  279MOL0     C36744   0.969   4.010   0.842 -0.0403  0.1373 -0.7011
  279MOL0     C36745   1.074   3.915   0.837 -0.4994  0.2444  0.3861
  279MOL0     N36746   1.858   3.581   0.989  0.7426  0.5107 -0.0323
  279MOL0     N36747   1.965   3.607   0.923  0.5206  0.0553 -0.0788
  279MOL0     C36748   2.821   3.822  -0.011  0.8747 -0.2828 -0.2595
  279MOL0     C36749   2.957   3.810  -0.039 -0.0217 -0.0119 -0.3192
  279MOL0     C36750   3.383   3.647   0.026  0.7932  0.1120  0.1570
  279MOL0     C36751   3.457   3.756   0.072 -0.2118  0.1902  0.4047
  279MOL0     C36752   3.590   3.731   0.111 -0.1765  0.6649 -0.1472
  279MOL0     C36753   3.653   3.602   0.088  0.0277  0.8784  0.6123
  279MOL0     O36754   3.782   3.590   0.131  0.7166  0.0816 -0.3939
  279MOL0     C36755   3.868   3.485   0.080 -0.2354  0.5726 -0.5184
  279MOL0     C36756   3.913   3.503  -0.064  0.0740  0.4978 -0.4068
  279MOL0     C36757   4.016   3.614  -0.081 -0.5847  0.4341  0.3540
  279MOL0     C36758   4.162   3.579  -0.064 -0.6073  0.2136  0.6026
  279MOL0     C36759   4.209   3.574   0.074  0.9032 -0.5421 -0.5340
  279MOL0     C36760   4.240   3.575   0.189 -0.7040 -0.0187  0.2779
  279MOL0     C36761   3.575   3.499   0.028 -0.2166 -0.1921  0.2734
  279MOL0     C36762   3.436   3.519  -0.003  0.0138 -0.2082  0.3991
  279MOL0     H36763   3.083   3.799   0.272  0.3035  2.1237 -1.6691
  279MOL0     H36764   2.845   3.854   0.328  1.7091  0.4558 -0.3542
  279MOL0     H36765   2.607   3.897   0.345 -0.0144 -0.6162  1.0893
  279MOL0     H36766   2.576   3.728   0.284 -0.6203  0.1016 -0.5996
  279MOL0     H36767   2.387   3.813   0.161 -0.9577 -3.0922  2.5352
  279MOL0     H36768   2.416   3.972   0.220  1.7157 -0.3644 -2.9537
  279MOL0     H36769   2.399   3.766   0.434  2.1753  1.5776  0.0786
  279MOL0     H36770   2.278   3.727   0.310 -2.5885  0.9468 -0.3519
  279MOL0     H36771   2.294   4.004   0.427  2.3620 -0.0583 -0.4596
  279MOL0     H36772   2.169   3.941   0.325  0.3277  1.7970  1.5797
  279MOL0     H36773   2.100   3.954   0.544  1.4790  1.1014 -0.5916
  279MOL0     H36774   2.213   3.849   0.613 -1.2975  0.5768 -0.0951
  279MOL0     H36775   2.103   3.683   0.429  3.5814  0.6340  0.7056
  279MOL0     H36776   1.988   3.819   0.405 -3.4205  0.0115  2.4236
  279MOL0     H36777   1.931   3.812   0.654  1.0078  1.1582 -0.7253
  279MOL0     H36778   1.874   3.688   0.551 -0.7437  1.0826 -0.4243
  279MOL0     H36779   2.116   3.682   0.737 -1.1835  1.1318  0.3398
  279MOL0     H36780   2.063   3.545   0.638 -0.8322  0.8990 -1.8275
  279MOL0     H36781   1.745   3.574   0.690  0.2672  1.4413 -0.2260
  279MOL0     H36782   1.597   3.470   1.042 -0.7642  2.1187  1.5780
  279MOL0     H36783   1.576   3.444   0.867 -1.3185  2.3480 -0.8577
  279MOL0     H36784   1.559   3.715   0.871 -2.2049  1.1384  0.5686
  279MOL0     H36785   1.511   3.674   1.036  1.1619 -2.6641  1.6492
  279MOL0     H36786   1.383   3.557   0.775 -2.0747 -0.6157 -0.7282
  279MOL0     H36787   1.348   3.514   0.943 -0.3767  0.6153  0.6157
  279MOL0     H36788   1.329   3.785   0.790 -0.0239  1.2875  2.3171
  279MOL0     H36789   1.297   3.777   0.963 -0.2263 -2.0722  2.2466
  279MOL0     H36790   0.907   3.647   0.951  0.3608 -2.6141 -2.7528
  279MOL0     H36791   0.726   3.806   0.964 -2.1022 -1.4074 -3.8200
  279MOL0     H36792   0.645   4.278   1.100  1.4714  0.8978 -3.0480
  279MOL0     H36793   0.475   4.444   1.124  1.4029  0.3396 -2.1231
  279MOL0     H36794   0.307   4.555   1.176  0.3304  1.3972 -0.7353
  279MOL0     H36795   0.135   4.582   1.144 -0.4670 -2.3346  1.7223
  279MOL0     H36796   0.320   4.543   0.914 -0.3932 -0.3638  1.7148
  279MOL0     H36797   0.331   4.704   0.996  1.3991 -0.9879  3.8469
  279MOL0     H36798   0.074   4.605   0.897  0.9704 -0.4393 -1.9671
  279MOL0     H36799   0.178   4.708   0.798  0.6717 -2.9722 -0.9204
  279MOL0     H36800   0.101   4.806   1.074 -0.2768 -0.3739  0.2122
  279MOL0     H36801   0.183   4.889   0.941 -1.0179  1.2517  0.7128
  279MOL0     H36802  -0.089   4.777   0.926  3.2059 -3.2170 -2.5560
  279MOL0     H36803  -0.023   4.885   0.793  0.2391 -1.5976 -0.1838
  279MOL0     H36804   0.002   5.085   0.939  0.8880  0.8286  2.1111
  279MOL0     H36805  -0.064   4.990   1.078  3.3576 -2.0240  0.0026
  279MOL0     H36806  -0.223   5.031   0.819 -1.4564  2.0905  0.9436
  279MOL0     H36807  -0.273   4.953   0.971  1.7960 -2.5377 -0.0074
  279MOL0     H36808  -0.343   5.204   0.941  0.7867  0.4649 -0.6728
  279MOL0     H36809  -0.179   5.233   1.008 -0.5201  0.5168  1.1659
  279MOL0     H36810   0.182   4.164   0.981 -0.8572  2.0525  2.8083
  279MOL0     H36811   0.378   3.999   0.942 -2.7024  0.4392 -1.1058
  279MOL0     H36812   1.005   4.112   0.836  1.8076 -0.4572 -0.4479
  279MOL0     H36813   1.174   3.952   0.818  0.2211 -0.5873  2.2802
  279MOL0     H36814   2.755   3.830  -0.096  2.4874 -0.6787 -1.5899
  279MOL0     H36815   2.995   3.809  -0.141  1.7734  2.9092  0.2044
  279MOL0     H36816   3.424   3.850   0.116  0.0768  0.1995  0.6060
  279MOL0     H36817   3.657   3.811   0.141  1.7591 -0.5392 -1.0974
  279MOL0     H36818   3.801   3.399   0.093 -1.4770  1.4699 -0.8512
  279MOL0     H36819   3.954   3.477   0.147 -0.7622 -0.4262  0.0645
  279MOL0     H36820   3.942   3.403  -0.098 -1.1924  0.2016 -0.6382
  279MOL0     H36821   3.826   3.540  -0.118  1.5418 -1.1417 -4.2281
  279MOL0     H36822   3.996   3.703  -0.021  0.1558 -0.0190  1.2958
  279MOL0     H36823   4.003   3.643  -0.186  1.4857  1.8085  0.4131
  279MOL0     H36824   4.194   3.485  -0.110  2.3872  0.3003  2.3120
  279MOL0     H36825   4.221   3.663  -0.102  3.3820 -2.0414  1.2568
  279MOL0     H36826   4.279   3.591   0.287  0.0077 -0.1960  0.0288
  279MOL0     H36827   3.620   3.401   0.017 -2.1552 -1.3372  1.8597
  279MOL0     H36828   3.374   3.439  -0.041  0.1273 -0.4228  0.6662
  280MOL0     O36829   6.856   6.037   9.945  0.2797 -0.0570 -0.0210
  280MOL0     C36830   6.810   6.141   9.897  0.5799  0.7253 -0.0470
  280MOL0     O36831   6.868   6.262   9.894 -0.2531 -0.2580 -0.3190
  280MOL0     C36832   7.003   6.277   9.929 -0.1679  1.1253  0.4018
  280MOL0     C36833   7.036   6.366  10.033  0.5747  0.6692 -0.6659
  280MOL0     C36834   7.161   6.366  10.085 -0.2763  0.6137  0.4147
  280MOL0     C36835   7.265   6.303  10.017 -1.2745  0.4887 -1.2304
  280MOL0     O36836   7.391   6.332  10.068  0.4480  0.1000 -0.3216
  280MOL0     C36837   7.497   6.251  10.028 -0.3951 -1.2480  0.2738
  280MOL0     C36838   7.621   6.335  10.072 -0.1767 -0.0742  0.1058
  280MOL0     C36839   7.753   6.270  10.010 -0.1691  0.3253 -1.3762
  280MOL0     C36840   7.784   6.130  10.073  0.0905  0.8959  0.8031
  280MOL0     C36841   7.922   6.082  10.033 -0.6180  1.0136 -0.8620
  280MOL0     C36842   8.035   6.161  10.102  0.5588  0.7156  0.6161
  280MOL0     C36843   8.173   6.124  10.056 -0.0043  0.0150 -0.5161
  280MOL0     C36844   8.213   5.981  10.067  0.1791  0.0948 -0.3293
  280MOL0     N36845   8.349   5.952  10.024  0.0594  0.2603  0.4769
  280MOL0     C36846   8.412   5.821  10.015 -0.3394 -0.4055  0.1078
  280MOL0     C36847   8.528   5.851   9.945  0.0618 -0.0155 -0.5862
  280MOL0     C36848   8.655   5.778   9.915 -0.5212  0.3609 -0.2688
  280MOL0     C36849   8.776   5.801  10.009  0.3694 -0.5711 -0.0821
  280MOL0     C36850   8.746   5.773  10.154  0.2121  1.1061 -0.4560
  280MOL0     C36851   8.727   5.625  10.187  0.0301 -0.4538 -0.2868
  280MOL0     O36852   8.591   5.571  10.160  0.1030  0.6769 -0.1794
  280MOL0     C36853   8.489   5.597  10.244 -0.0962 -0.9705  0.3757
  280MOL0     C36854   8.364   5.552  10.206 -0.2719  0.3490 -0.6618
  280MOL0     C36855   8.247   5.599  10.265  0.4714 -0.1442 -0.2150
  280MOL0     C36856   8.252   5.699  10.363  1.4009  0.3986 -0.6771
  280MOL0     C36857   8.130   5.757  10.413 -0.8874 -0.8581 -0.4213
  280MOL0     O36858   8.017   5.697  10.372  0.0782 -0.2031  0.3506
  280MOL0     C36859   7.903   5.764  10.406 -0.8810  0.5835  0.2589
  280MOL0     C36860   7.807   5.808  10.308  0.1827  0.3357 -0.4977
  280MOL0     C36861   7.700   5.876  10.356  0.1526 -0.0848 -0.4346
  280MOL0     C36862   7.678   5.904  10.488 -0.4634  0.6005  0.8700
  280MOL0     O36863   7.559   5.978  10.509 -0.0667 -0.6959  0.2829
  280MOL0     C36864   7.579   6.068  10.621  0.4965 -0.9662  0.0642
  280MOL0     C36865   7.498   6.189  10.597  0.2330  0.1486 -0.2190
  280MOL0     C36866   7.355   6.171  10.539  0.5985  0.1644  0.3244
  280MOL0     C36867   7.286   6.072  10.631 -0.5410  0.0900 -0.1247
  280MOL0     C36868   7.133   6.051  10.602 -0.3349 -0.6194 -0.3867
  280MOL0     C36869   7.076   5.959  10.713  0.0500  0.2711  0.0795
  280MOL0     C36870   6.917   5.933  10.688 -0.1349 -1.0966  0.0383
  280MOL0     C36871   6.902   5.797  10.632  0.0805  0.3049 -0.4381
  280MOL0    Cl36872   6.932   5.778  10.459 -0.2222 -0.2561  0.4086
  280MOL0     C36873   7.762   5.851  10.580 -0.6282  0.5668 -0.3173
  280MOL0     C36874   7.868   5.784  10.542 -0.3570  0.1207 -0.6549
  280MOL0     O36875   8.140   5.834  10.509 -0.1959 -0.0517 -0.7360
  280MOL0     C36876   8.378   5.741  10.409  0.2365  1.1270  0.3400
  280MOL0     C36877   8.494   5.686  10.351  0.4293 -0.3128 -0.1442
  280MOL0     N36878   8.530   5.983   9.913 -0.6411 -0.3176 -0.2433
  280MOL0     N36879   8.431   6.045   9.957  0.6872 -0.2840 -0.2368
  280MOL0     C36880   7.239   6.208   9.913  0.9424 -0.5996  0.1525
  280MOL0     C36881   7.105   6.199   9.872 -0.4106 -0.1579  0.4073
  280MOL0     C36882   6.685   6.131   9.821  0.2063 -0.8810  0.0978
  280MOL0     C36883   6.643   6.241   9.747  0.8971  1.0819 -0.8259
  280MOL0     C36884   6.519   6.247   9.679 -0.7161  0.1680  0.5096
  280MOL0     C36885   6.441   6.128   9.679 -0.4986  0.7380 -0.4121
  280MOL0     O36886   6.320   6.125   9.600 -0.4534  0.2142 -0.8494
  280MOL0     C36887   6.198   6.150   9.671  0.5031 -0.1735  0.6060
  280MOL0     C36888   6.118   6.020   9.642  0.4251 -0.4403 -0.4737
  280MOL0     C36889   5.976   6.063   9.579 -0.7104  0.3895  0.2695
  280MOL0     C36890   5.865   5.964   9.592  0.2076  0.9079  0.0802
  280MOL0     C36891   5.896   5.843   9.507 -0.3340 -0.4904  0.2067
  280MOL0     C36892   5.892   5.753   9.428 -0.2791 -0.3580  0.2328
  280MOL0     C36893   6.489   6.013   9.751 -0.1360  0.7489  0.5331
  280MOL0     C36894   6.614   6.011   9.812  0.2636 -0.2372  0.2208
  280MOL0     H36895   6.957   6.430  10.073 -2.4904 -1.2653 -3.1050
  280MOL0     H36896   7.183   6.433  10.168  4.2190  0.9608 -0.7872
  280MOL0     H36897   7.490   6.235   9.920 -1.5280 -4.0951  0.6699
  280MOL0     H36898   7.485   6.153  10.076 -3.5943 -1.2434 -0.2884
  280MOL0     H36899   7.630   6.337  10.181  0.8575 -3.1069  0.1794
  280MOL0     H36900   7.604   6.438  10.039 -1.8772 -0.9619 -2.0501
  280MOL0     H36901   7.832   6.342  10.034  0.8188 -0.8766 -0.9130
  280MOL0     H36902   7.761   6.258   9.901  0.3608  0.8495 -1.3982
  280MOL0     H36903   7.767   6.134  10.181  0.4003  1.0161  0.8478
  280MOL0     H36904   7.718   6.057  10.024 -0.0007 -0.4218  2.8051
  280MOL0     H36905   7.934   6.091   9.925 -3.4717 -1.1833 -1.4702
  280MOL0     H36906   7.929   5.975  10.055  2.4552  0.6208 -3.0980
  280MOL0     H36907   8.022   6.168  10.210 -3.3282  1.6789  0.2356
  280MOL0     H36908   8.027   6.262  10.060  2.6954  1.0007  0.8087
  280MOL0     H36909   8.184   6.165   9.955 -0.4334  0.7806 -0.2524
  280MOL0     H36910   8.249   6.186  10.104  0.6624  1.9410 -3.6939
  280MOL0     H36911   8.144   5.913  10.016 -0.1707 -0.7181  1.1511
  280MOL0     H36912   8.212   5.949  10.172  4.0735  0.9138  0.1174
  280MOL0     H36913   8.374   5.725  10.048  0.2535 -0.6767  0.0227
  280MOL0     H36914   8.696   5.798   9.816  2.1811  1.1557  0.9056
  280MOL0     H36915   8.636   5.671   9.924 -0.6096  0.4445  0.6541
  280MOL0     H36916   8.813   5.904  10.006  1.7098 -1.0482 -2.7789
  280MOL0     H36917   8.865   5.746   9.977 -0.9051 -2.0948 -1.1485
  280MOL0     H36918   8.833   5.809  10.209  2.7055 -1.9294 -2.1067
  280MOL0     H36919   8.659   5.827  10.192  0.2680  2.0509 -1.5933
  280MOL0     H36920   8.762   5.615  10.290  3.2674  2.0813 -0.9683
  280MOL0     H36921   8.808   5.563  10.147 -0.5385 -3.6120  2.9358
  280MOL0     H36922   8.355   5.478  10.127  0.8316 -0.1889 -0.3080
  280MOL0     H36923   8.148   5.563  10.240 -0.7310  0.9548  2.5029
  280MOL0     H36924   7.836   5.792  10.204  1.7142  0.8397 -0.1736
  280MOL0     H36925   7.620   5.912  10.293 -1.6446  2.5020  3.0076
  280MOL0     H36926   7.682   6.105  10.620  1.1639 -2.7415 -1.0196
  280MOL0     H36927   7.543   6.044  10.721  2.1048  1.2130  1.2732
  280MOL0     H36928   7.554   6.245  10.522 -0.3918 -0.7707 -1.3982
  280MOL0     H36929   7.487   6.253  10.685 -0.2833 -0.1972 -0.0255
  280MOL0     H36930   7.367   6.127  10.439  0.7953  1.5160 -0.2749
  280MOL0     H36931   7.317   6.272  10.518  0.8307 -0.3787 -3.3297
  280MOL0     H36932   7.344   5.980  10.615 -1.9010 -0.8564  0.1982
  280MOL0     H36933   7.300   6.094  10.737 -1.2497  1.0054 -0.2114
  280MOL0     H36934   7.119   5.998  10.507  0.9043 -1.8346  0.0895
  280MOL0     H36935   7.075   6.143  10.616  0.5567  0.0258 -0.8191
  280MOL0     H36936   7.090   6.002  10.813  0.0274 -2.1742  1.2253
  280MOL0     H36937   7.130   5.864  10.704  1.1340  0.9723 -0.9804
  280MOL0     H36938   6.867   5.956  10.783 -3.5579 -1.2264 -1.5861
  280MOL0     H36939   6.870   6.001  10.617 -1.0029 -2.2620 -0.5367
  280MOL0     H36940   6.799   5.765  10.651  0.6693 -0.1404  2.5681
  280MOL0     H36941   6.963   5.727  10.690  2.8457  3.4972  0.8569
  280MOL0     H36942   7.748   5.875  10.685 -1.6440  2.4330 -0.8332
  280MOL0     H36943   7.940   5.753  10.618 -0.6801 -0.9257 -0.7640
  280MOL0     H36944   8.384   5.819  10.484  0.6717  2.5473 -1.1185
  280MOL0     H36945   8.588   5.721  10.390  0.4815 -2.2338  1.6781
  280MOL0     H36946   7.309   6.148   9.856 -0.8507 -2.3304 -0.3429
  280MOL0     H36947   7.082   6.129   9.792 -0.4702 -1.9071  1.8846
  280MOL0     H36948   6.713   6.323   9.731  1.6321  1.5448  3.4302
  280MOL0     H36949   6.480   6.333   9.626  3.0543  2.1769  0.6948
  280MOL0     H36950   6.149   6.239   9.631  0.6460  0.0011  0.8120
  280MOL0     H36951   6.209   6.169   9.778  2.1897  2.1533  0.1031
  280MOL0     H36952   6.179   5.955   9.578  1.1122  1.2029 -1.5590
  280MOL0     H36953   6.106   5.983   9.744 -0.9777 -0.2653 -0.5652
  280MOL0     H36954   5.989   6.100   9.477 -2.9497 -1.7858 -0.9106
  280MOL0     H36955   5.939   6.145   9.642  0.1290  0.4194  0.7416
  280MOL0     H36956   5.860   5.941   9.699  4.7993 -0.1814  0.2521
  280MOL0     H36957   5.765   5.998   9.562 -2.1690 -2.3520  3.3362
  280MOL0     H36958   5.883   5.684   9.346 -0.0449  1.0389 -1.0063
  280MOL0     H36959   6.441   5.916   9.745  0.2909  0.4278  1.9594
  280MOL0     H36960   6.642   5.923   9.869 -2.2767 -0.9210  0.4951
  281MOL0     O36961   6.570   0.117   8.944 -0.8006 -0.3246 -0.0392
  281MOL0     C36962   6.638   0.063   9.032 -0.1693  0.2450  0.1201
  281MOL0     O36963   6.580   0.016   9.146  0.3492  0.0260 -0.2565
  281MOL0     C36964   6.443   0.015   9.175 -0.1842  0.7049  0.2386
  281MOL0     C36965   6.393   0.058   9.298  0.2067 -1.2543 -0.2977
  281MOL0     C36966   6.250   0.071   9.319  0.6835  0.7951  0.7560
  281MOL0     C36967   6.158   0.017   9.223  0.4457  0.6637 -0.2739
  281MOL0     O36968   6.024   0.012   9.233 -0.2202 -0.0323  0.1188
  281MOL0     C36969   5.955   0.030   9.364  0.0253 -0.4371  0.0847
  281MOL0     C36970   5.798   0.032   9.363  0.9179 -0.2300  0.1543
  281MOL0     C36971   5.727  -0.097   9.328 -0.8296  0.1043  0.1412
  281MOL0     C36972   5.575  -0.074   9.368 -0.6095  0.2216 -0.3120
  281MOL0     C36973   5.479  -0.168   9.298 -0.4357  0.5268 -0.6389
  281MOL0     C36974   5.500  -0.313   9.348 -0.7610 -0.4426 -0.9319
  281MOL0     C36975   5.404  -0.416   9.290 -0.9259  0.6159  0.2521
  281MOL0     C36976   5.438  -0.554   9.346  0.7114  0.0369  0.7190
  281MOL0     N36977   5.409  -0.566   9.490  0.3772  0.1188  0.0114
  281MOL0     C36978   5.288  -0.520   9.547  0.4102  0.6228 -0.1936
  281MOL0     C36979   5.299  -0.568   9.673  0.3724  0.3429 -0.0603
  281MOL0     C36980   5.203  -0.553   9.792  0.3558 -0.1802  0.7550
  281MOL0     C36981   5.063  -0.585   9.757  0.0484 -0.2807 -0.0555
  281MOL0     C36982   4.965  -0.535   9.864 -0.1407 -0.1736 -0.5470
  281MOL0     C36983   4.827  -0.549   9.812  0.9473 -0.4550  0.1604
  281MOL0     O36984   4.738  -0.523   9.924 -0.4529 -0.2157  0.3179
  281MOL0     C36985   4.599  -0.539   9.911 -0.1922 -0.8840  0.1143
  281MOL0     C36986   4.537  -0.465  10.011  0.1320 -0.0979  0.3921
  281MOL0     C36987   4.404  -0.463  10.015  0.4929  0.6161  0.7058
  281MOL0     C36988   4.325  -0.534   9.916  0.0277 -0.3673  0.2335
  281MOL0     C36989   4.174  -0.525   9.918  0.1847  0.0290  0.3616
  281MOL0     O36990   4.104  -0.585   9.814  0.5004 -0.2536 -0.0634
  281MOL0     C36991   3.967  -0.602   9.799  1.6578  0.0388 -0.2602
  281MOL0     C36992   3.864  -0.552   9.879  0.3859 -0.0121 -0.6296
  281MOL0     C36993   3.727  -0.576   9.855 -0.6650 -0.6501  0.8380
  281MOL0     C36994   3.682  -0.662   9.745  0.5318  0.8423 -0.2471
  281MOL0     O36995   3.556  -0.685   9.700  0.3442  0.0174 -0.1179
  281MOL0     C36996   3.444  -0.616   9.770  0.6237 -0.2442 -0.2563
  281MOL0     C36997   3.309  -0.665   9.715  0.9840 -0.7629 -0.7964
  281MOL0     C36998   3.183  -0.609   9.792 -0.2986 -0.4050 -0.0550
  281MOL0     C36999   3.146  -0.676   9.925 -0.7170  0.5280  0.4707
  281MOL0     C37000   3.014  -0.609   9.971  0.7536 -0.1283  0.4328
  281MOL0     C37001   3.008  -0.463  10.010 -0.3098 -0.3792  0.2733
  281MOL0     C37002   2.940  -0.422  10.141  0.3516 -0.3543 -0.1322
  281MOL0     C37003   2.786  -0.458  10.140  0.4734 -0.3281  0.6168
  281MOL0    Cl37004   2.707  -0.358  10.008 -0.0318 -0.3445  0.0881
  281MOL0     C37005   3.780  -0.705   9.664 -0.8588  0.2120 -0.6057
  281MOL0     C37006   3.919  -0.675   9.691 -0.1136 -0.2463  0.0682
  281MOL0     O37007   4.129  -0.474  10.022  0.5522  0.6068  0.0827
  281MOL0     C37008   4.393  -0.600   9.808 -0.1713 -0.0635  1.1098
  281MOL0     C37009   4.537  -0.610   9.811  0.5228 -0.6752 -0.4592
  281MOL0     N37010   5.408  -0.650   9.685  0.6072  0.5896  0.2377
  281MOL0     N37011   5.483  -0.639   9.580 -0.1842 -0.4565  0.2882
  281MOL0     C37012   6.215  -0.033   9.103  0.5392  0.2900 -0.4200
  281MOL0     C37013   6.359  -0.036   9.088  0.4182 -0.0996  0.3732
  281MOL0     C37014   6.785   0.042   9.015 -0.5866  0.2176  0.6974
  281MOL0     C37015   6.865  -0.017   9.112  0.1285  0.1365  0.1197
  281MOL0     C37016   7.004  -0.020   9.102 -1.4962  0.3302  0.2451
  281MOL0     C37017   7.064   0.028   8.980  0.4505  0.1460 -0.1392
  281MOL0     O37018   7.197   0.031   8.948 -0.0667  0.4335  0.1134
  281MOL0     C37019   7.284  -0.023   9.057 -0.3593 -0.3434  0.0856
  281MOL0     C37020   7.427  -0.008   9.002 -0.2453 -0.4040  0.0840
  281MOL0     C37021   7.465  -0.093   8.880  0.3347 -0.9596  0.0871
  281MOL0     C37022   7.610  -0.117   8.854 -0.4676  0.2777 -0.0295
  281MOL0     C37023   7.670   0.000   8.778 -0.9067  0.5007  0.4902
  281MOL0     C37024   7.743   0.088   8.725 -0.5592  0.2239 -0.3734
  281MOL0     C37025   6.986   0.084   8.881 -0.9282 -0.4528  0.0026
  281MOL0     C37026   6.852   0.100   8.901 -0.0150  0.0337 -0.7803
  281MOL0     H37027   6.456   0.095   9.378  1.8958 -2.5025 -0.9972
  281MOL0     H37028   6.198   0.105   9.408 -2.1462  1.6725 -1.1122
  281MOL0     H37029   5.994   0.124   9.405  2.8278 -0.2807 -2.5753
  281MOL0     H37030   5.979  -0.053   9.431 -1.6959  0.2218  1.6093
  281MOL0     H37031   5.770   0.109   9.291  2.9505  1.2884  0.8917
  281MOL0     H37032   5.761   0.069   9.459  1.1663 -2.7522  1.3020
  281MOL0     H37033   5.784  -0.181   9.367  3.8766  1.8928 -2.0140
  281MOL0     H37034   5.732  -0.103   9.219 -2.0506 -1.0428  0.1263
  281MOL0     H37035   5.569  -0.095   9.475 -2.2364  0.8354 -0.2502
  281MOL0     H37036   5.535   0.027   9.354  0.7679  0.9388  0.6606
  281MOL0     H37037   5.493  -0.165   9.189  0.6378 -1.4622 -0.5912
  281MOL0     H37038   5.379  -0.134   9.328 -0.6185 -3.0278  3.7966
  281MOL0     H37039   5.497  -0.323   9.457  0.6977 -0.4692 -0.8628
  281MOL0     H37040   5.595  -0.354   9.313 -1.7495 -0.4556 -3.8043
  281MOL0     H37041   5.301  -0.381   9.304 -0.8052  2.2593 -2.3016
  281MOL0     H37042   5.411  -0.428   9.182 -0.5979  0.1399  0.3259
  281MOL0     H37043   5.542  -0.575   9.321  0.8157  2.3300 -1.0240
  281MOL0     H37044   5.392  -0.638   9.293 -1.7111  0.7136  1.6063
  281MOL0     H37045   5.207  -0.455   9.516  0.1883 -0.5826 -2.2732
  281MOL0     H37046   5.196  -0.447   9.821 -0.8743  0.8927 -2.8918
  281MOL0     H37047   5.244  -0.614   9.873 -0.6685  1.0757  2.2879
  281MOL0     H37048   5.057  -0.693   9.741 -0.1395 -0.4345  0.9358
  281MOL0     H37049   5.038  -0.549   9.657 -1.0775 -1.9873 -0.4310
  281MOL0     H37050   4.983  -0.586   9.959  1.2999  3.1115  1.1336
  281MOL0     H37051   4.980  -0.430   9.890 -0.6841 -0.3088  0.3519
  281MOL0     H37052   4.807  -0.649   9.773  2.4098 -2.3360  3.7754
  281MOL0     H37053   4.809  -0.491   9.722  1.6562 -0.7487 -0.1757
  281MOL0     H37054   4.596  -0.410  10.083  0.0986  0.9244 -0.3359
  281MOL0     H37055   4.355  -0.422  10.103 -0.8609 -2.4354  1.5011
  281MOL0     H37056   3.883  -0.492   9.967  1.1935  0.3778 -1.0612
  281MOL0     H37057   3.649  -0.532   9.916  0.0113 -0.4436  1.5739
  281MOL0     H37058   3.455  -0.507   9.781 -1.5766 -0.2418  3.3234
  281MOL0     H37059   3.432  -0.635   9.877 -2.2346  2.6870  0.0802
  281MOL0     H37060   3.330  -0.771   9.730  2.3987 -0.5649 -1.2262
  281MOL0     H37061   3.305  -0.649   9.607  2.7392 -0.6922 -0.8711
  281MOL0     H37062   3.101  -0.639   9.727 -1.0763 -1.0521  1.1901
  281MOL0     H37063   3.195  -0.500   9.799 -0.1585 -0.4226 -0.0185
  281MOL0     H37064   3.134  -0.783   9.905 -0.6159  0.8911 -1.7332
  281MOL0     H37065   3.225  -0.660   9.999  0.2973  0.0760 -0.4966
  281MOL0     H37066   3.001  -0.674  10.059 -1.1717  2.9061  2.5784
  281MOL0     H37067   2.935  -0.624   9.898  1.1805 -1.1650  0.1582
  281MOL0     H37068   2.955  -0.410   9.930  1.3266 -0.0506 -0.6394
  281MOL0     H37069   3.111  -0.425  10.019  0.6129 -2.1140 -1.9769
  281MOL0     H37070   2.977  -0.479  10.226  2.4085 -0.4186 -1.0185
  281MOL0     H37071   2.951  -0.318  10.174  3.3089 -1.6015  3.3916
  281MOL0     H37072   2.746  -0.424  10.236  0.1412 -2.9286  1.4657
  281MOL0     H37073   2.769  -0.564  10.118 -3.5294  0.5281 -1.2661
  281MOL0     H37074   3.744  -0.752   9.573  3.1385 -0.0238 -2.2841
  281MOL0     H37075   3.995  -0.710   9.621 -0.7548  3.2990 -2.6791
  281MOL0     H37076   4.331  -0.639   9.727  1.3413 -1.6109  0.6299
  281MOL0     H37077   4.585  -0.656   9.725  0.0693  1.3790 -1.8990
  281MOL0     H37078   6.149  -0.069   9.025  2.2651 -2.5600 -0.7139
  281MOL0     H37079   6.393  -0.075   8.993 -0.3035 -3.8907  1.5112
  281MOL0     H37080   6.823  -0.052   9.206  1.4342 -0.6447  0.4425
  281MOL0     H37081   7.057  -0.069   9.183 -0.8106 -1.6424 -1.3380
  281MOL0     H37082   7.264  -0.126   9.087  0.5997  0.1471  2.7263
  281MOL0     H37083   7.271   0.039   9.146 -2.1923 -0.9488  0.2702
  281MOL0     H37084   7.434   0.096   8.971 -4.3509 -0.0988 -0.3649
  281MOL0     H37085   7.491  -0.027   9.089 -1.0288 -1.5747  0.4319
  281MOL0     H37086   7.415  -0.040   8.798 -1.7809 -3.3423 -0.3119
  281MOL0     H37087   7.413  -0.189   8.889  1.1652 -1.5148 -0.9128
  281MOL0     H37088   7.660  -0.137   8.949  2.0811  0.3770 -1.2523
  281MOL0     H37089   7.617  -0.206   8.790  0.6483  0.4658 -0.1951
  281MOL0     H37090   7.804   0.166   8.685 -0.7028  0.8518  0.6006
  281MOL0     H37091   7.041   0.133   8.801  0.9798  1.3811  2.2763
  281MOL0     H37092   6.796   0.162   8.831  0.7251 -0.5484 -1.9083
  282MOL0     O37093   6.004   0.193   8.942 -0.3350 -0.4647  0.9523
  282MOL0     C37094   5.934   0.106   8.894  0.4292  0.7159  0.3321
  282MOL0     O37095   5.967   0.007   8.799  0.7850 -0.7815 -0.2236
  282MOL0     C37096   6.098  -0.004   8.758  0.3727 -0.0907  1.2660
  282MOL0     C37097   6.111  -0.119   8.670 -0.4168  0.3217 -0.2554
  282MOL0     C37098   6.230  -0.133   8.597 -0.8008  1.8895 -0.6938
  282MOL0     C37099   6.344  -0.053   8.621 -0.4213  0.1387  0.4023
  282MOL0     O37100   6.460  -0.084   8.564  0.5036 -0.6806  0.1273
  282MOL0     C37101   6.586  -0.041   8.629 -0.4150  0.0447  1.0397
  282MOL0     C37102   6.687  -0.134   8.555  0.1534 -0.4032 -0.3070
  282MOL0     C37103   6.836  -0.106   8.590 -0.0708 -0.8413  0.0487
  282MOL0     C37104   6.920  -0.223   8.543 -0.0042 -0.1596 -0.4036
  282MOL0     C37105   7.067  -0.201   8.589 -0.2398 -0.0439  0.1016
  282MOL0     C37106   7.152  -0.318   8.544  1.4985 -0.2305  1.0444
  282MOL0     C37107   7.300  -0.306   8.566  0.0526  0.5781 -0.1274
  282MOL0     C37108   7.378  -0.443   8.541  0.2443 -0.2786 -0.2736
  282MOL0     N37109   7.527  -0.417   8.557  0.3040  0.4443 -0.9491
  282MOL0     C37110   7.601  -0.328   8.482 -0.0362 -0.3988 -0.9340
  282MOL0     C37111   7.723  -0.303   8.543  0.4220 -0.1149 -0.1182
  282MOL0     C37112   7.818  -0.197   8.512  0.3164  0.1088 -0.3788
  282MOL0     C37113   7.919  -0.248   8.412  0.2217 -0.1873  1.3461
  282MOL0     C37114   8.021  -0.146   8.362  1.2249  0.4855 -0.3050
  282MOL0     C37115   8.131  -0.123   8.462  0.6180  0.7883 -0.1652
  282MOL0     O37116   8.216  -0.011   8.419  0.1521  0.3984 -0.6341
  282MOL0     C37117   8.317  -0.034   8.327 -0.2744 -0.0226 -0.2864
  282MOL0     C37118   8.346  -0.150   8.255  0.7964 -0.1680  0.8812
  282MOL0     C37119   8.461  -0.163   8.179 -0.1879 -0.6138 -0.0018
  282MOL0     C37120   8.543  -0.058   8.157 -0.5507  0.4636 -0.2856
  282MOL0     C37121   8.665  -0.057   8.074  0.1981 -0.3793 -0.2778
  282MOL0     O37122   8.735   0.057   8.070 -0.5847  0.1426 -0.6496
  282MOL0     C37123   8.843   0.075   7.986 -0.0449  1.3801  0.5486
  282MOL0     C37124   8.894  -0.003   7.879 -0.0376 -0.1145 -1.3338
  282MOL0     C37125   9.021   0.012   7.824 -0.4491  0.5717  0.0909
  282MOL0     C37126   9.104   0.106   7.888  0.5400  0.3000 -0.7757
  282MOL0     O37127   9.228   0.149   7.844  0.0354 -0.4746 -0.0686
  282MOL0     C37128   9.328   0.055   7.797  0.6004 -0.2576 -0.7931
  282MOL0     C37129   9.432   0.119   7.717 -0.4003  0.2049 -0.5119
  282MOL0     C37130   9.545   0.194   7.796 -0.6755  0.1961  0.3912
  282MOL0     C37131   9.650   0.101   7.860  0.7074  0.7824 -0.6579
  282MOL0     C37132   9.758   0.170   7.937 -0.3215  0.5350 -0.3718
  282MOL0     C37133   9.836   0.058   8.012 -1.5793 -0.6048 -0.4955
  282MOL0     C37134   9.936   0.109   8.108 -0.6049  0.1013  0.5036
  282MOL0     C37135  10.057   0.169   8.048  0.4248  0.3685  0.0585
  282MOL0    Cl37136  10.172   0.220   8.180  0.3025  0.2689  0.1499
  282MOL0     C37137   9.069   0.173   8.003  0.5758  0.9481  0.7771
  282MOL0     C37138   8.931   0.158   8.052  0.9385 -0.4325  0.1916
  282MOL0     O37139   8.691  -0.163   8.019 -0.9676 -0.2071  0.7798
  282MOL0     C37140   8.521   0.054   8.242 -0.3335 -0.2123  0.3066
  282MOL0     C37141   8.408   0.069   8.317  0.2901 -0.1793 -0.3830
  282MOL0     N37142   7.720  -0.389   8.649 -0.5524  0.3677  0.4078
  282MOL0     N37143   7.609  -0.455   8.664 -0.0457  0.5300  0.8863
  282MOL0     C37144   6.329   0.064   8.703 -0.8212 -0.1839  0.7213
  282MOL0     C37145   6.207   0.080   8.775 -0.9562 -0.4998  0.8606
  282MOL0     C37146   5.792   0.117   8.932 -0.0268  0.5148 -0.1609
  282MOL0     C37147   5.708   0.010   8.919 -0.7817 -0.3847 -0.2642
  282MOL0     C37148   5.575   0.006   8.955  0.8469 -0.2167 -0.4513
  282MOL0     C37149   5.517   0.133   9.004  1.1880  1.0768 -1.0520
  282MOL0     O37150   5.378   0.143   9.030 -0.0579  0.2055 -0.2636
  282MOL0     C37151   5.308   0.217   8.930  0.4203  0.5107 -0.0954
  282MOL0     C37152   5.259   0.343   8.993 -0.3904  0.3092 -0.9569
  282MOL0     C37153   5.163   0.431   8.913  0.1317  1.0753 -0.1733
  282MOL0     C37154   5.232   0.550   8.841 -1.1089  0.1616 -0.2632
  282MOL0     C37155   5.260   0.658   8.939  0.3302  0.0895 -0.2853
  282MOL0     C37156   5.288   0.737   9.025  1.0103 -1.1013  0.9488
  282MOL0     C37157   5.596   0.239   9.020 -0.4615 -0.3095  0.9124
  282MOL0     C37158   5.735   0.234   8.977  0.0233 -0.5810  0.0495
  282MOL0     H37159   6.033  -0.193   8.662 -0.7387  0.3922  1.7070
  282MOL0     H37160   6.247  -0.221   8.536 -1.0906  0.5747  1.0466
  282MOL0     H37161   6.582  -0.064   8.736 -2.0200 -1.2923  0.7394
  282MOL0     H37162   6.623   0.058   8.601  2.6852 -1.5867 -1.2148
  282MOL0     H37163   6.677  -0.131   8.446 -1.1298  0.8318 -0.1817
  282MOL0     H37164   6.660  -0.232   8.593 -3.6020  1.4195  2.3072
  282MOL0     H37165   6.832  -0.103   8.699 -2.4540 -1.6028  0.0353
  282MOL0     H37166   6.869  -0.013   8.542  0.2750 -1.1072 -0.2324
  282MOL0     H37167   6.878  -0.309   8.596  2.8521 -0.5256  1.5002
  282MOL0     H37168   6.906  -0.236   8.435 -0.6382 -1.2240 -0.2146
  282MOL0     H37169   7.061  -0.194   8.698 -5.4585 -2.6647  0.2814
  282MOL0     H37170   7.109  -0.106   8.553  1.8402 -1.3454 -1.1126
  282MOL0     H37171   7.133  -0.345   8.439 -0.5794 -0.4607  1.4494
  282MOL0     H37172   7.120  -0.401   8.608  1.0361  0.4609  1.7195
  282MOL0     H37173   7.329  -0.227   8.496  1.3423  1.1273  0.9926
  282MOL0     H37174   7.328  -0.270   8.665 -1.2156  3.3724 -0.6956
  282MOL0     H37175   7.351  -0.489   8.445  1.9017 -1.6114 -0.1422
  282MOL0     H37176   7.362  -0.517   8.619  0.7178 -0.8557 -0.7234
  282MOL0     H37177   7.581  -0.275   8.389  3.2357  1.8675 -0.5482
  282MOL0     H37178   7.868  -0.179   8.607  1.8614  0.0177 -1.1350
  282MOL0     H37179   7.766  -0.111   8.471 -1.1950 -0.8245 -0.4822
  282MOL0     H37180   7.863  -0.280   8.324 -0.4685 -0.4932  1.8905
  282MOL0     H37181   7.968  -0.336   8.457  1.3213 -1.3357 -1.7937
  282MOL0     H37182   8.071  -0.182   8.272 -0.3864  2.4451 -2.0921
  282MOL0     H37183   7.973  -0.049   8.347 -0.9711 -0.6846 -1.3429
  282MOL0     H37184   8.189  -0.214   8.477  2.0207  2.0190  2.5311
  282MOL0     H37185   8.081  -0.103   8.557 -0.6475  1.2565 -0.9034
  282MOL0     H37186   8.276  -0.232   8.267 -1.3619  1.0938 -1.9406
  282MOL0     H37187   8.482  -0.254   8.124  0.5545 -0.3188 -0.2177
  282MOL0     H37188   8.827  -0.082   7.848 -0.6470 -0.5031  0.8618
  282MOL0     H37189   9.043  -0.040   7.732  1.7032 -0.6090  1.2051
  282MOL0     H37190   9.300  -0.020   7.722  0.2483 -1.8600  0.8673
  282MOL0     H37191   9.364   0.001   7.885  1.1558 -0.7084 -1.2896
  282MOL0     H37192   9.379   0.200   7.666  1.9802  2.8238  0.9048
  282MOL0     H37193   9.483   0.048   7.652  3.3323 -2.0161  4.2470
  282MOL0     H37194   9.502   0.249   7.880 -0.9634 -1.8058  1.6292
  282MOL0     H37195   9.601   0.265   7.735  1.2402 -0.6038  1.1423
  282MOL0     H37196   9.596   0.035   7.928 -0.0419  1.4371 -0.6102
  282MOL0     H37197   9.698   0.035   7.787  0.6694 -0.4295  0.3867
  282MOL0     H37198   9.718   0.239   8.012 -0.3238 -3.3378  3.6326
  282MOL0     H37199   9.825   0.232   7.877  1.0789  0.8652  1.4384
  282MOL0     H37200   9.879  -0.004   7.933 -0.7966  1.2413 -1.5572
  282MOL0     H37201   9.767  -0.005   8.070 -0.4611 -0.2208  1.3380
  282MOL0     H37202   9.895   0.179   8.181 -0.7675 -0.0692  0.5755
  282MOL0     H37203   9.974   0.023   8.164  0.9089  0.8093  0.6174
  282MOL0     H37204  10.026   0.253   7.985  0.1508  0.4677  0.3226
  282MOL0     H37205  10.106   0.097   7.982  3.6245 -0.1239  2.6965
  282MOL0     H37206   9.137   0.247   8.044  2.3257 -0.1540 -0.0630
  282MOL0     H37207   8.898   0.218   8.137 -0.3914  1.0684 -1.3180
  282MOL0     H37208   8.583   0.143   8.251  2.2911 -2.0999  2.0383
  282MOL0     H37209   8.393   0.166   8.362  2.3008 -0.2440  0.5323
  282MOL0     H37210   6.412   0.133   8.710 -0.3501 -0.8916  2.8929
  282MOL0     H37211   6.199   0.162   8.846 -1.2533  2.2041 -2.0880
  282MOL0     H37212   5.756  -0.081   8.884 -1.6147 -1.2050  0.6652
  282MOL0     H37213   5.502  -0.073   8.941 -0.2543  0.6419  0.2758
  282MOL0     H37214   5.228   0.150   8.896  1.6855  0.6680 -3.7155
  282MOL0     H37215   5.374   0.227   8.844 -1.2733  1.6941 -1.3275
  282MOL0     H37216   5.204   0.319   9.084  1.0618 -0.3927 -0.2411
  282MOL0     H37217   5.342   0.403   9.031 -0.5026 -0.6197  0.8571
  282MOL0     H37218   5.078   0.470   8.970 -1.0311  1.0416 -1.8173
  282MOL0     H37219   5.126   0.369   8.831  2.1493  0.2214 -0.5027
  282MOL0     H37220   5.325   0.509   8.800 -0.5492  1.3855 -0.2448
  282MOL0     H37221   5.171   0.592   8.760 -1.5574  3.2858  1.5696
  282MOL0     H37222   5.307   0.818   9.093 -3.5169  1.5209 -0.4508
  282MOL0     H37223   5.555   0.328   9.067 -2.2097 -0.3431 -0.4220
  282MOL0     H37224   5.787   0.327   8.993 -3.1542  2.0329 -3.0643
  283MOL0     O37225   2.671  11.142   0.537  0.3586  0.8446  0.5729
  283MOL0     C37226   2.702  11.079   0.430  0.7499 -0.4534 -0.3789
  283MOL0     O37227   2.617  11.063   0.319 -0.1390 -0.3822 -0.9699
  283MOL0     C37228   2.487  11.106   0.324 -0.1961  0.1622 -0.1855
  283MOL0     C37229   2.439  11.153   0.204  0.1406 -0.1394 -0.2107
  283MOL0     C37230   2.307  11.198   0.193 -0.3583 -0.2536  0.7780
  283MOL0     C37231   2.219  11.195   0.297 -0.0013  0.6200  0.3384
  283MOL0     O37232   2.086  11.234   0.279 -1.0220  0.2963 -0.3551
  283MOL0     C37233   2.053  11.362   0.218  0.2260  0.1557 -0.2590
  283MOL0     C37234   1.979  11.354   0.077  0.3641  0.0947  0.5887
  283MOL0     C37235   1.967  11.495   0.014 -0.1899 -0.1852 -0.2912
  283MOL0     C37236   1.879  11.600   0.086 -0.0893  0.5779  0.1729
  283MOL0     C37237   1.734  11.571   0.114 -0.2800 -0.4549 -0.8573
  283MOL0     C37238   1.651  11.547  -0.016  0.3126  0.5107  0.0395
  283MOL0     C37239   1.540  11.440   0.003 -0.0524 -0.5674 -0.0935
  283MOL0     C37240   1.558  11.327  -0.105 -0.0659 -1.1535  0.8368
  283MOL0     N37241   1.440  11.244  -0.109  0.1226 -1.1079 -0.2422
  283MOL0     C37242   1.320  11.288  -0.160  0.2408 -0.3878  0.6788
  283MOL0     C37243   1.225  11.205  -0.110 -0.1730  0.4491  0.6792
  283MOL0     C37244   1.075  11.197  -0.152  0.4763 -0.1312 -0.0818
  283MOL0     C37245   0.988  11.151  -0.035  0.6399  1.0196 -0.7638
  283MOL0     C37246   0.835  11.159  -0.051  1.5220 -0.0146 -0.0407
  283MOL0     C37247   0.762  11.029  -0.001  0.4816 -0.4947 -0.9449
  283MOL0     O37248   0.793  11.007   0.144 -0.0610 -0.3065  0.2211
  283MOL0     C37249   0.696  11.050   0.235  0.5082  0.7128  0.5456
  283MOL0     C37250   0.735  11.130   0.346 -0.2337  0.3871  0.4679
  283MOL0     C37251   0.641  11.172   0.435 -0.1314  0.5277 -0.8297
  283MOL0     C37252   0.509  11.137   0.421 -0.4619  0.4053  0.1209
  283MOL0     C37253   0.402  11.175   0.513  0.0534 -0.2365 -0.3301
  283MOL0     O37254   0.276  11.165   0.473  0.2839  0.0729 -0.4209
  283MOL0     C37255   0.172  11.176   0.568 -0.5323  0.6296  0.0811
  283MOL0     C37256   0.086  11.066   0.592  0.1068  0.2030 -0.3869
  283MOL0     C37257  -0.035  11.082   0.667 -0.5539 -0.0536  0.0355
  283MOL0     C37258  -0.062  11.204   0.728 -0.3657 -0.2895 -0.2498
  283MOL0     O37259  -0.168  11.224   0.810  0.7431 -0.6027  0.0102
  283MOL0     C37260  -0.292  11.164   0.762  0.3016 -0.3966 -0.1263
  283MOL0     C37261  -0.416  11.216   0.844 -0.8405  0.0006  0.2542
  283MOL0     C37262  -0.426  11.145   0.982  0.6377 -0.0337  0.4364
  283MOL0     C37263  -0.568  11.140   1.042 -0.3159  0.2279  0.5200
  283MOL0     C37264  -0.606  11.275   1.106  0.0389 -0.3853  0.3707
  283MOL0     C37265  -0.747  11.266   1.161  0.0617  0.2863  0.8521
  283MOL0     C37266  -0.780  11.396   1.235 -1.1505  0.4608 -0.0863
  283MOL0     C37267  -0.933  11.431   1.220 -0.3931 -0.2947  0.1034
  283MOL0    Cl37268  -1.049  11.299   1.276  0.2742 -0.2556 -0.2878
  283MOL0     C37269   0.019  11.313   0.705  0.1124  0.3393 -0.7972
  283MOL0     C37270   0.137  11.297   0.626 -0.3525  0.1738  0.9723
  283MOL0     O37271   0.433  11.230   0.624 -0.0939 -0.0877  0.4320
  283MOL0     C37272   0.457  11.070   0.305 -0.0452  0.1140  0.5133
  283MOL0     C37273   0.559  11.018   0.213 -0.3219 -0.2596 -0.5526
  283MOL0     N37274   1.287  11.112  -0.032 -0.6253 -0.8915 -0.2246
  283MOL0     N37275   1.416  11.134  -0.033  0.0150 -0.2721 -0.2785
  283MOL0     C37276   2.265  11.145   0.423 -0.2055 -0.1553  0.3626
  283MOL0     C37277   2.403  11.090   0.439 -0.2016 -0.4993  0.0704
  283MOL0     C37278   2.841  11.026   0.417 -0.3858 -0.1440  0.1647
  283MOL0     C37279   2.873  10.943   0.310 -0.6920 -0.9189  0.6472
  283MOL0     C37280   3.014  10.898   0.293  0.8060  0.0896 -0.4326
  283MOL0     C37281   3.115  10.939   0.382 -0.5925 -0.1086 -1.5484
  283MOL0     O37282   3.248  10.904   0.374  0.4319 -0.2912 -0.0484
  283MOL0     C37283   3.312  10.910   0.244 -0.5522 -0.5033  0.1484
  283MOL0     C37284   3.325  11.053   0.182 -0.6156  1.0476 -0.5456
  283MOL0     C37285   3.392  11.145   0.272 -0.4877  0.5254  0.2044
  283MOL0     C37286   3.542  11.140   0.254 -0.3369 -0.5377 -0.5219
  283MOL0     C37287   3.608  11.260   0.310  0.6319  0.3511 -0.4195
  283MOL0     C37288   3.642  11.366   0.366  0.1473  0.6723 -0.5207
  283MOL0     C37289   3.070  11.012   0.494 -0.5525  0.6782  0.8514
  283MOL0     C37290   2.937  11.057   0.511  0.2652 -0.2326 -1.5688
  283MOL0     H37291   2.501  11.153   0.114  0.3105 -0.7432 -0.1011
  283MOL0     H37292   2.274  11.228   0.094  0.8735  1.3389  0.7928
  283MOL0     H37293   2.142  11.426   0.215 -0.8459  1.8776  1.9431
  283MOL0     H37294   1.985  11.416   0.284  2.2605  0.1309  2.0013
  283MOL0     H37295   1.880  11.309   0.076  0.3522  0.1167 -0.6027
  283MOL0     H37296   2.052  11.301   0.015  2.1733  1.3951  1.5073
  283MOL0     H37297   1.938  11.483  -0.090  3.0540  1.8191 -1.5710
  283MOL0     H37298   2.069  11.533   0.006  0.6006 -2.0560  0.2867
  283MOL0     H37299   1.913  11.624   0.187  0.7247  1.0250 -0.1961
  283MOL0     H37300   1.875  11.681   0.013  0.4000 -1.6880 -2.5723
  283MOL0     H37301   1.697  11.656   0.172  1.2845 -1.1805  1.3272
  283MOL0     H37302   1.718  11.479   0.171 -2.4190  0.6076  0.3574
  283MOL0     H37303   1.718  11.511  -0.095 -1.2162 -0.5745 -0.7937
  283MOL0     H37304   1.613  11.644  -0.051 -0.1668  0.4811  0.4684
  283MOL0     H37305   1.539  11.386   0.098 -0.6523 -1.9601 -0.8443
  283MOL0     H37306   1.441  11.486   0.001  0.4819  0.6591  0.9422
  283MOL0     H37307   1.644  11.266  -0.077 -2.5264 -3.3544  4.4833
  283MOL0     H37308   1.579  11.374  -0.201 -1.2337  0.0392  1.1347
  283MOL0     H37309   1.297  11.361  -0.237 -2.7121 -1.6285  0.2506
  283MOL0     H37310   1.066  11.140  -0.245  0.9568  0.7127 -0.6531
  283MOL0     H37311   1.043  11.298  -0.178  0.5717  0.2358  1.1617
  283MOL0     H37312   1.003  11.214   0.053  2.0334 -2.4452  1.6686
  283MOL0     H37313   1.014  11.049  -0.005  2.2381  1.9655  1.3514
  283MOL0     H37314   0.791  11.242   0.005  1.6845 -0.3195  0.5434
  283MOL0     H37315   0.798  11.178  -0.152 -0.5434  0.9480  0.8263
  283MOL0     H37316   0.803  10.943  -0.056  0.1254 -0.4447 -1.2962
  283MOL0     H37317   0.654  11.026  -0.020  0.2152  0.5110  0.3011
  283MOL0     H37318   0.841  11.150   0.360  0.3641 -0.1617 -2.4659
  283MOL0     H37319   0.671  11.237   0.516 -0.9183 -0.5333  0.3512
  283MOL0     H37320   0.115  10.976   0.539  3.1327  0.0362  1.3161
  283MOL0     H37321  -0.104  10.999   0.676 -0.8773 -0.0492 -1.8992
  283MOL0     H37322  -0.287  11.054   0.768 -0.5643 -0.5481 -1.6394
  283MOL0     H37323  -0.306  11.190   0.657  1.0205 -0.6872 -0.3045
  283MOL0     H37324  -0.510  11.190   0.796 -0.9388  2.0792 -0.7797
  283MOL0     H37325  -0.411  11.324   0.855 -0.1405 -0.1221  1.3506
  283MOL0     H37326  -0.359  11.182   1.059  0.8246 -3.2162  1.9799
  283MOL0     H37327  -0.393  11.041   0.971  0.6782 -0.0292  0.5266
  283MOL0     H37328  -0.641  11.124   0.963 -1.2211  3.4514  0.5517
  283MOL0     H37329  -0.575  11.060   1.116 -4.6027  1.8519  2.2033
  283MOL0     H37330  -0.613  11.356   1.033 -0.5375  0.5814  1.4610
  283MOL0     H37331  -0.535  11.320   1.176  1.2402  3.0191 -2.7045
  283MOL0     H37332  -0.771  11.184   1.229  1.4214  0.1095  1.1467
  283MOL0     H37333  -0.810  11.268   1.071  2.7236 -1.0822 -1.1690
  283MOL0     H37334  -0.767  11.380   1.342 -5.3624 -1.0152  0.3866
  283MOL0     H37335  -0.717  11.481   1.208  2.9589 -1.3394  2.6711
  283MOL0     H37336  -0.959  11.467   1.120  1.7221  0.8209 -0.0942
  283MOL0     H37337  -0.941  11.508   1.298  0.4068 -0.8166  0.7137
  283MOL0     H37338  -0.001  11.409   0.752  0.5918  0.1907 -0.2839
  283MOL0     H37339   0.209  11.377   0.617 -0.0429 -0.2016 -0.0021
  283MOL0     H37340   0.356  11.041   0.277 -0.1070  1.5176 -0.8272
  283MOL0     H37341   0.516  10.961   0.131 -0.9861  1.8782 -1.7708
  283MOL0     H37342   2.202  11.137   0.510  0.4504  0.6784  0.9304
  283MOL0     H37343   2.445  11.046   0.529 -0.0338 -4.2075 -1.6770
  283MOL0     H37344   2.803  10.914   0.232  1.3906 -2.8004 -0.6254
  283MOL0     H37345   3.033  10.831   0.209  0.6612  0.6912 -0.9478
  283MOL0     H37346   3.254  10.864   0.165  1.1155  1.0039 -2.0797
  283MOL0     H37347   3.410  10.862   0.254  0.3510  1.0970 -0.6438
  283MOL0     H37348   3.381  11.032   0.090 -0.8624 -3.7737  0.1101
  283MOL0     H37349   3.228  11.093   0.152  0.0386  2.2278 -1.1718
  283MOL0     H37350   3.369  11.132   0.378  0.6743  1.8178  0.6563
  283MOL0     H37351   3.360  11.246   0.242 -1.0550  0.1912 -0.3455
  283MOL0     H37352   3.577  11.047   0.300  0.0765 -0.4294 -0.6188
  283MOL0     H37353   3.564  11.139   0.146  0.7668 -1.2833 -0.3122
  283MOL0     H37354   3.667  11.439   0.439 -1.5736  3.8510 -2.8451
  283MOL0     H37355   3.137  11.013   0.580 -1.2849 -1.7131  1.5245
  283MOL0     H37356   2.919  11.123   0.595  0.1886 -0.0101 -1.7586
  284MOL0     O37357   8.054   1.873   1.228 -0.6778  0.0474  0.2695
  284MOL0     C37358   8.057   1.955   1.313 -0.7771  0.8687 -0.5399
  284MOL0     O37359   7.950   2.006   1.382 -0.4342  0.1442  0.1091
  284MOL0     C37360   7.831   1.988   1.327 -0.9349 -0.1777 -0.0181
  284MOL0     C37361   7.781   2.066   1.216 -0.4720 -0.2848 -0.4539
  284MOL0     C37362   7.652   2.037   1.168  0.3583  0.2217 -0.2468
  284MOL0     C37363   7.569   1.948   1.226 -0.0305  0.4064 -0.0394
  284MOL0     O37364   7.444   1.947   1.167  0.4799  0.4345 -0.7788
  284MOL0     C37365   7.353   1.841   1.202  0.1594 -0.1274 -0.5435
  284MOL0     C37366   7.234   1.860   1.098  0.1070 -0.3311 -0.0962
  284MOL0     C37367   7.109   1.779   1.137  0.0104 -0.1866 -0.5586
  284MOL0     C37368   6.991   1.797   1.043 -0.3449  0.1381  0.1923
  284MOL0     C37369   6.864   1.734   1.083 -0.3067  0.6042  0.2358
  284MOL0     C37370   6.788   1.692   0.954  0.2140 -0.6245  0.5158
  284MOL0     C37371   6.645   1.658   0.974  0.6202 -0.6375 -0.0805
  284MOL0     C37372   6.553   1.760   1.040 -0.4766 -1.4065 -0.7241
  284MOL0     N37373   6.415   1.715   1.022  0.0095  1.1037 -1.1097
  284MOL0     C37374   6.367   1.617   1.110 -0.3386  0.3032  0.0695
  284MOL0     C37375   6.262   1.573   1.043  0.8840 -0.4561 -0.4304
  284MOL0     C37376   6.175   1.457   1.087 -0.1750  0.2470  0.1449
  284MOL0     C37377   6.052   1.519   1.164 -0.0162 -0.3157 -0.3797
  284MOL0     C37378   5.948   1.564   1.060  0.0297 -0.8716  0.5646
  284MOL0     C37379   5.820   1.604   1.136 -1.5979 -0.3495  0.6333
  284MOL0     O37380   5.746   1.495   1.192  0.7642  0.1125  0.1071
  284MOL0     C37381   5.698   1.383   1.118 -0.1127 -0.7005  0.0828
  284MOL0     C37382   5.670   1.379   0.980 -0.3691 -0.4298  0.0200
  284MOL0     C37383   5.619   1.269   0.922 -0.7781  0.5509 -1.1499
  284MOL0     C37384   5.594   1.157   1.003  0.1208  0.1745  0.3420
  284MOL0     C37385   5.539   1.029   0.941  0.5440 -0.6728 -0.0375
  284MOL0     O37386   5.533   1.033   0.806 -0.5922 -0.4162  0.2433
  284MOL0     C37387   5.518   0.914   0.751  0.0117  1.1963  0.6652
  284MOL0     C37388   5.631   0.834   0.730  0.4963  0.4244  0.1096
  284MOL0     C37389   5.616   0.719   0.648  0.3803 -0.4748 -0.0486
  284MOL0     C37390   5.490   0.681   0.597 -0.4409 -0.0228  0.0831
  284MOL0     O37391   5.477   0.558   0.542  0.5818  0.2262  0.2572
  284MOL0     C37392   5.345   0.495   0.532  0.4652  0.5939 -0.6681
  284MOL0     C37393   5.376   0.362   0.463 -0.4513  0.4362 -0.3107
  284MOL0     C37394   5.278   0.252   0.507  0.1470 -0.5489  0.0803
  284MOL0     C37395   5.140   0.293   0.453  0.0704  0.2884 -0.3588
  284MOL0     C37396   5.036   0.190   0.496 -1.5395  0.5302 -0.5848
  284MOL0     C37397   4.899   0.201   0.421 -0.1970  0.9314  0.3716
  284MOL0     C37398   4.828   0.323   0.465  0.1616  0.3442 -0.5481
  284MOL0     C37399   4.685   0.312   0.420  0.0387 -0.7975  0.4002
  284MOL0    Cl37400   4.605   0.204   0.525  0.5289 -0.0604 -0.5600
  284MOL0     C37401   5.378   0.764   0.621 -0.3950  0.8366  0.2435
  284MOL0     C37402   5.392   0.885   0.691  0.3922 -0.8530  0.0675
  284MOL0     O37403   5.497   0.932   1.009  0.1531  0.1689 -0.1804
  284MOL0     C37404   5.618   1.163   1.145  0.5442 -0.3019  0.6681
  284MOL0     C37405   5.669   1.273   1.196  0.1510 -0.0521 -0.5854
  284MOL0     N37406   6.230   1.656   0.937 -1.0444 -0.9973  0.0391
  284MOL0     N37407   6.326   1.742   0.925  0.3429 -0.2117  0.7715
  284MOL0     C37408   7.618   1.865   1.325 -0.5101 -0.3304 -0.1528
  284MOL0     C37409   7.749   1.883   1.377  0.5125 -0.2358  0.2633
  284MOL0     C37410   8.186   1.991   1.376 -0.2074 -0.1364  0.1572
  284MOL0     C37411   8.306   1.965   1.320  0.6150 -0.8547 -0.1324
  284MOL0     C37412   8.428   1.986   1.380 -0.5941  0.4601  0.7149
  284MOL0     C37413   8.436   2.024   1.520  0.1088  0.0180  0.2509
  284MOL0     O37414   8.548   2.015   1.600 -0.8879 -0.0837  0.3015
  284MOL0     C37415   8.640   1.913   1.555 -0.0774 -0.6133  0.3729
  284MOL0     C37416   8.745   1.904   1.658 -0.8952 -0.3563 -0.0749
  284MOL0     C37417   8.703   1.820   1.780 -0.3705 -0.2511 -0.1240
  284MOL0     C37418   8.830   1.768   1.855 -0.1186  0.7022  0.5866
  284MOL0     C37419   8.912   1.670   1.789 -1.0191 -0.1282 -0.0604
  284MOL0     C37420   8.982   1.594   1.726  0.4827  0.4110  0.4760
  284MOL0     C37421   8.312   2.061   1.579  0.3539 -0.4821 -0.1287
  284MOL0     C37422   8.188   2.039   1.513 -0.3715  0.3700  0.3346
  284MOL0     H37423   7.833   2.154   1.180 -1.7046  1.0271  0.8302
  284MOL0     H37424   7.622   2.094   1.081 -0.9983  2.0023  1.2769
  284MOL0     H37425   7.319   1.856   1.305  0.5088 -0.9225 -0.3060
  284MOL0     H37426   7.400   1.743   1.192  0.3620 -0.3174  1.7978
  284MOL0     H37427   7.260   1.838   0.994  0.0061 -0.2797 -0.1333
  284MOL0     H37428   7.203   1.965   1.102  0.3678 -0.2898  2.4069
  284MOL0     H37429   7.085   1.801   1.241  0.1201 -0.1472 -0.5415
  284MOL0     H37430   7.134   1.673   1.143 -0.5437 -0.3092 -0.4304
  284MOL0     H37431   6.966   1.902   1.022  1.0250  0.8985  2.0937
  284MOL0     H37432   7.028   1.756   0.948 -0.9558 -1.3196  0.5536
  284MOL0     H37433   6.801   1.801   1.143  0.9141  1.1543  0.9296
  284MOL0     H37434   6.886   1.645   1.143 -1.5604 -0.3388 -0.6487
  284MOL0     H37435   6.850   1.620   0.899  0.4765  0.5515 -0.7885
  284MOL0     H37436   6.788   1.779   0.887 -1.0316 -0.0761  1.2075
  284MOL0     H37437   6.608   1.622   0.878  2.5042  2.3762 -2.1387
  284MOL0     H37438   6.644   1.573   1.043 -3.2482 -0.0433  0.8180
  284MOL0     H37439   6.566   1.865   1.012 -1.1580 -1.3237 -0.7382
  284MOL0     H37440   6.564   1.757   1.149 -1.4208  0.0782 -0.5687
  284MOL0     H37441   6.412   1.579   1.201 -2.9538  1.3313  1.9252
  284MOL0     H37442   6.241   1.397   1.150  0.9079  1.1596 -0.0802
  284MOL0     H37443   6.144   1.409   0.994  2.3952  1.3510 -1.4040
  284MOL0     H37444   6.087   1.593   1.238  1.2195  0.0892 -1.3333
  284MOL0     H37445   6.001   1.438   1.217  1.9106 -1.4609 -0.1923
  284MOL0     H37446   5.971   1.647   0.993 -0.6278 -0.3308  0.9928
  284MOL0     H37447   5.920   1.489   0.986 -1.8098  2.8058 -2.8448
  284MOL0     H37448   5.760   1.653   1.059 -1.5360 -1.4865 -0.1766
  284MOL0     H37449   5.835   1.673   1.219  0.3037  2.6379 -1.9633
  284MOL0     H37450   5.698   1.465   0.921 -2.0430 -1.7072 -2.8116
  284MOL0     H37451   5.599   1.253   0.817 -1.6641  0.3974 -0.9634
  284MOL0     H37452   5.722   0.847   0.787 -1.3918 -0.5976  3.6748
  284MOL0     H37453   5.697   0.646   0.646 -2.5934 -4.1677  0.7212
  284MOL0     H37454   5.285   0.552   0.460  1.1147 -1.2714 -2.8331
  284MOL0     H37455   5.301   0.487   0.631  4.9694 -0.8536  1.5229
  284MOL0     H37456   5.478   0.328   0.479 -1.2637 -1.4821  1.2842
  284MOL0     H37457   5.364   0.381   0.356  1.3870  4.4708  0.0259
  284MOL0     H37458   5.276   0.230   0.614 -2.8695  1.2202  0.4972
  284MOL0     H37459   5.311   0.161   0.457 -1.9650  1.0146 -4.7212
  284MOL0     H37460   5.108   0.389   0.496  1.3214  0.8204 -0.5761
  284MOL0     H37461   5.138   0.305   0.344  1.8025  1.9610 -0.2568
  284MOL0     H37462   5.030   0.181   0.605 -0.8445  0.4966 -0.5439
  284MOL0     H37463   5.070   0.095   0.455  3.7222  1.1902  1.3319
  284MOL0     H37464   4.841   0.111   0.441  0.2234  0.6548  0.3671
  284MOL0     H37465   4.907   0.208   0.312  0.9506  0.6441  0.4195
  284MOL0     H37466   4.833   0.333   0.574 -2.5067 -1.1353 -0.2126
  284MOL0     H37467   4.861   0.412   0.410 -3.8660  1.7492 -1.0343
  284MOL0     H37468   4.684   0.297   0.312  1.2110  2.0244 -0.1034
  284MOL0     H37469   4.622   0.401   0.430 -1.0060 -1.7252  2.9650
  284MOL0     H37470   5.276   0.744   0.589  0.2436  2.0840 -2.8822
  284MOL0     H37471   5.312   0.958   0.691  2.0632  1.1717 -2.4825
  284MOL0     H37472   5.590   1.079   1.207  0.9419 -1.5356 -0.7572
  284MOL0     H37473   5.698   1.279   1.300 -0.2481 -1.9576 -0.3274
  284MOL0     H37474   7.557   1.785   1.366 -0.2253  0.5712  2.2069
  284MOL0     H37475   7.776   1.807   1.450 -0.0570  0.2000  0.9280
  284MOL0     H37476   8.308   1.926   1.218  0.8118 -3.4578  0.8032
  284MOL0     H37477   8.518   1.969   1.322 -1.0615 -2.2212  0.6297
  284MOL0     H37478   8.685   1.938   1.459 -1.0669 -0.0960  0.0301
  284MOL0     H37479   8.588   1.816   1.561 -0.7041 -0.2695  0.5797
  284MOL0     H37480   8.833   1.867   1.606 -0.7094  1.0438 -0.8140
  284MOL0     H37481   8.780   2.006   1.675  1.2946 -1.3215  1.6146
  284MOL0     H37482   8.643   1.730   1.758  4.0858 -2.6599 -4.4256
  284MOL0     H37483   8.658   1.882   1.859 -1.3876 -0.3378 -0.6188
  284MOL0     H37484   8.896   1.853   1.876  1.9843  0.3532 -3.5911
  284MOL0     H37485   8.794   1.734   1.952 -2.9802 -2.9901 -1.4990
  284MOL0     H37486   9.046   1.524   1.677  1.6457 -1.1090  3.8721
  284MOL0     H37487   8.319   2.107   1.677  1.0307  0.4765 -0.6105
  284MOL0     H37488   8.095   2.058   1.567 -0.3398 -1.3218  1.0457
  285MOL0     O37489  11.295   6.498   1.703 -0.0184 -0.0400  0.9175
  285MOL0     C37490  11.194   6.554   1.741  0.9835  0.4321  0.1522
  285MOL0     O37491  11.192   6.672   1.801  0.1796  0.5460 -0.2888
  285MOL0     C37492  11.312   6.737   1.818 -0.3682 -0.2745  0.3331
  285MOL0     C37493  11.417   6.687   1.891  0.3221 -0.5553  0.1033
  285MOL0     C37494  11.531   6.763   1.914 -0.8991  0.7886  0.9263
  285MOL0     C37495  11.542   6.891   1.875  0.5117 -0.3717 -0.5409
  285MOL0     O37496  11.652   6.967   1.907  0.1615 -1.2770 -0.2993
  285MOL0     C37497  11.633   7.109   1.918  0.2238 -0.3882 -0.4204
  285MOL0     C37498  11.731   7.149   2.031 -0.2445  0.7101  0.3763
  285MOL0     C37499  11.873   7.150   1.969  0.5320 -0.7760 -0.4970
  285MOL0     C37500  11.973   7.207   2.073  0.5307  0.4016  0.8679
  285MOL0     C37501  12.103   7.244   2.009 -0.2638  0.4179  0.6101
  285MOL0     C37502  12.085   7.344   1.894  0.8035 -0.0552  0.3869
  285MOL0     C37503  12.234   7.396   1.857  0.6245  0.1018 -0.3478
  285MOL0     C37504  12.222   7.516   1.773 -0.3528 -0.5713 -0.4589
  285MOL0     N37505  12.365   7.560   1.735 -0.8865 -0.5615  0.0420
  285MOL0     C37506  12.419   7.683   1.782  0.5011  0.1501 -0.4917
  285MOL0     C37507  12.547   7.684   1.740 -0.1175  0.5205  0.1630
  285MOL0     C37508  12.651   7.788   1.768  0.3384  0.7421 -0.7112
  285MOL0     C37509  12.790   7.766   1.694  0.1745 -0.0331 -0.0141
  285MOL0     C37510  12.789   7.820   1.550 -0.0584  0.7079  0.1724
  285MOL0     C37511  12.778   7.971   1.533 -0.4542 -0.1281 -0.4428
  285MOL0     O37512  12.752   8.015   1.392 -0.4196  0.5638  0.2364
  285MOL0     C37513  12.628   7.975   1.351 -0.3685  0.1804  0.5149
  285MOL0     C37514  12.508   8.007   1.416 -0.7612 -0.1651 -0.2368
  285MOL0     C37515  12.389   7.968   1.365  0.1024  0.7287 -0.0305
  285MOL0     C37516  12.389   7.904   1.231  0.4021 -0.0359  0.2681
  285MOL0     C37517  12.259   7.878   1.166  0.1692  0.4288  0.5812
  285MOL0     O37518  12.152   7.911   1.250  0.0500 -0.3158 -0.1461
  285MOL0     C37519  12.032   7.864   1.221 -0.0456  0.0312  0.8228
  285MOL0     C37520  12.006   7.732   1.220  0.0006 -0.7728 -0.4277
  285MOL0     C37521  11.875   7.680   1.198  0.7408  0.2768  0.2946
  285MOL0     C37522  11.770   7.767   1.181  0.5710 -0.1283 -0.0987
  285MOL0     O37523  11.645   7.710   1.160 -0.5794 -0.0574  0.0164
  285MOL0     C37524  11.638   7.621   1.042 -1.1111 -0.6697 -0.7495
  285MOL0     C37525  11.492   7.594   0.998  0.0487  0.1559 -0.2748
  285MOL0     C37526  11.424   7.515   1.102  1.1399 -0.1256 -0.0709
  285MOL0     C37527  11.284   7.491   1.056  1.2519  0.4746 -0.2619
  285MOL0     C37528  11.215   7.381   1.132 -0.3558  0.8593  0.4725
  285MOL0     C37529  11.083   7.337   1.070 -0.7555 -0.2557  0.0708
  285MOL0     C37530  11.016   7.209   1.131 -0.2464  0.2677  0.4881
  285MOL0     C37531  10.956   7.220   1.259  0.1374  0.0812  0.0975
  285MOL0    Cl37532  10.808   7.321   1.269 -0.0328  0.0215  0.3211
  285MOL0     C37533  11.795   7.903   1.164 -0.5786 -0.6748  0.7057
  285MOL0     C37534  11.924   7.954   1.189 -0.8629  0.3210 -0.6440
  285MOL0     O37535  12.247   7.835   1.051 -0.3479  0.4676 -0.2683
  285MOL0     C37536  12.502   7.887   1.150 -0.8139  0.1536 -0.4741
  285MOL0     C37537  12.623   7.920   1.217  0.0533 -0.5021 -0.1878
  285MOL0     N37538  12.573   7.557   1.679  0.3472 -0.3632 -0.2056
  285MOL0     N37539  12.461   7.499   1.666 -0.2990 -0.1384  0.0544
  285MOL0     C37540  11.440   6.947   1.801 -0.4532 -0.3088  0.3065
  285MOL0     C37541  11.321   6.873   1.778 -0.4781 -0.1376 -0.1039
  285MOL0     C37542  11.070   6.468   1.726  0.0101 -0.6327  0.2485
  285MOL0     C37543  10.948   6.517   1.768 -1.0574 -0.2621  0.5092
  285MOL0     C37544  10.835   6.431   1.750 -0.7504  0.4228 -0.9080
  285MOL0     C37545  10.845   6.309   1.694  0.0415  0.9868  0.4195
  285MOL0     O37546  10.743   6.232   1.653  0.1478 -0.7499 -0.8298
  285MOL0     C37547  10.613   6.286   1.680  0.4395 -0.1597 -0.9641
  285MOL0     C37548  10.502   6.195   1.630  0.5128 -0.7582 -0.8160
  285MOL0     C37549  10.514   6.148   1.487  0.1586 -0.5290 -0.3480
  285MOL0     C37550  10.388   6.097   1.420  0.1686 -0.0959 -1.7145
  285MOL0     C37551  10.393   6.048   1.290  0.1172 -1.0296 -0.0275
  285MOL0     C37552  10.395   6.000   1.179 -0.2519  0.2413 -0.6820
  285MOL0     C37553  10.966   6.266   1.647 -0.9541 -0.3217 -0.5118
  285MOL0     C37554  11.080   6.345   1.671 -0.1719 -0.4832 -0.6070
  285MOL0     H37555  11.385   6.596   1.939  0.1724 -0.3700  0.3512
  285MOL0     H37556  11.615   6.729   1.973 -0.6870  0.6634  0.5528
  285MOL0     H37557  11.531   7.138   1.946 -0.5399 -2.9247 -0.2954
  285MOL0     H37558  11.651   7.164   1.825  1.1127 -0.0349 -0.0459
  285MOL0     H37559  11.716   7.076   2.111 -1.8755 -1.5622 -1.8065
  285MOL0     H37560  11.717   7.249   2.073 -0.8115  1.4378 -1.4488
  285MOL0     H37561  11.874   7.199   1.871  4.4282 -2.6137 -1.5529
  285MOL0     H37562  11.891   7.051   1.926 -4.3418 -1.8161 -0.7357
  285MOL0     H37563  11.937   7.293   2.129 -0.7840  0.7088 -0.4043
  285MOL0     H37564  11.980   7.125   2.146 -3.1653 -1.5037 -0.6498
  285MOL0     H37565  12.145   7.149   1.977 -0.3954  1.2876 -2.3742
  285MOL0     H37566  12.176   7.285   2.079  0.9105  1.9549 -1.4142
  285MOL0     H37567  12.030   7.436   1.917 -0.2594 -0.8471  1.1007
  285MOL0     H37568  12.037   7.292   1.811  2.5617  0.0734 -0.7646
  285MOL0     H37569  12.295   7.407   1.947 -1.0494 -2.4823  1.2295
  285MOL0     H37570  12.280   7.323   1.790 -2.9073 -0.4107 -2.5051
  285MOL0     H37571  12.171   7.593   1.830  0.5462 -0.7617  0.6335
  285MOL0     H37572  12.161   7.501   1.684 -0.3893 -0.1436 -0.5054
  285MOL0     H37573  12.382   7.759   1.850 -3.5703 -2.4898  0.5944
  285MOL0     H37574  12.666   7.791   1.876  3.9742  1.0701 -1.1201
  285MOL0     H37575  12.608   7.889   1.759 -0.1018  0.5317 -1.0560
  285MOL0     H37576  12.814   7.660   1.695 -0.8608 -0.2767 -0.3604
  285MOL0     H37577  12.869   7.815   1.752  0.8240 -0.8211 -0.2023
  285MOL0     H37578  12.883   7.794   1.502  0.4719  1.0225  1.0308
  285MOL0     H37579  12.709   7.772   1.492  0.7227  2.2123 -2.2996
  285MOL0     H37580  12.872   8.004   1.578  0.3573 -1.4800 -1.0885
  285MOL0     H37581  12.703   8.011   1.602 -1.3967 -1.0570 -0.8841
  285MOL0     H37582  12.523   8.044   1.517  2.2222 -1.4818 -0.0868
  285MOL0     H37583  12.301   7.978   1.427  0.1903  0.2361  0.1767
  285MOL0     H37584  12.078   7.655   1.243 -0.8223 -1.5515 -0.3953
  285MOL0     H37585  11.849   7.575   1.208 -1.5175  0.6445 -1.1049
  285MOL0     H37586  11.682   7.525   1.067 -2.8496 -1.3594 -0.1658
  285MOL0     H37587  11.684   7.667   0.954  0.6928 -1.7866 -0.4305
  285MOL0     H37588  11.495   7.535   0.906  0.3448 -1.8361  0.9624
  285MOL0     H37589  11.432   7.685   1.006  1.0078  0.6373  2.7026
  285MOL0     H37590  11.410   7.569   1.196 -0.6367  0.2542 -0.5095
  285MOL0     H37591  11.485   7.426   1.120  0.4969 -0.1837  2.1211
  285MOL0     H37592  11.222   7.580   1.064 -3.0788 -1.8295 -3.7249
  285MOL0     H37593  11.292   7.475   0.948  2.1560 -1.0626 -0.0066
  285MOL0     H37594  11.198   7.428   1.230  1.3362  2.7808 -0.0855
  285MOL0     H37595  11.277   7.292   1.140 -0.9532  0.5515  2.1419
  285MOL0     H37596  11.097   7.308   0.966 -2.6095 -0.5641 -0.1279
  285MOL0     H37597  11.021   7.426   1.081  0.7427  0.8230  0.0175
  285MOL0     H37598  10.937   7.175   1.063 -0.3090 -0.2263  0.8025
  285MOL0     H37599  11.101   7.141   1.139  0.5758  1.4811  3.2300
  285MOL0     H37600  11.039   7.256   1.321  0.5105 -0.5789 -0.0046
  285MOL0     H37601  10.931   7.125   1.306 -1.6421  1.9400  3.2673
  285MOL0     H37602  11.719   7.977   1.140 -1.4748 -2.3701 -2.1811
  285MOL0     H37603  11.949   8.059   1.195  0.9377 -0.1339  0.9912
  285MOL0     H37604  12.492   7.849   1.048 -1.7592 -0.1233 -0.2863
  285MOL0     H37605  12.714   7.907   1.161  0.1822 -0.0171 -0.1003
  285MOL0     H37606  11.443   7.055   1.788 -1.2471 -0.6449 -5.1145
  285MOL0     H37607  11.234   6.912   1.727 -2.1137 -2.3372  0.8432
  285MOL0     H37608  10.939   6.614   1.817  0.8935  0.2489 -0.0429
  285MOL0     H37609  10.738   6.465   1.783 -0.5958 -0.9030  1.0985
  285MOL0     H37610  10.607   6.386   1.634 -0.6698  1.5531  2.5410
  285MOL0     H37611  10.606   6.292   1.789 -2.0064 -4.7691 -0.6199
  285MOL0     H37612  10.499   6.105   1.692  0.4193 -1.3446 -1.6445
  285MOL0     H37613  10.405   6.244   1.641  0.7125 -0.8283  1.7545
  285MOL0     H37614  10.582   6.062   1.490 -0.3518 -0.9339 -0.0933
  285MOL0     H37615  10.564   6.226   1.429  3.2035 -0.7916  1.6781
  285MOL0     H37616  10.344   6.014   1.477  0.6957  1.4156  1.0201
  285MOL0     H37617  10.316   6.179   1.419 -0.1150 -0.3429 -2.8402
  285MOL0     H37618  10.383   5.951   1.084  2.8306  0.0740 -1.0640
  285MOL0     H37619  10.978   6.175   1.588 -0.0128 -0.8022  0.3801
  285MOL0     H37620  11.177   6.306   1.642  0.1960  0.8063 -1.2099
  286MOL0     O37621   3.080   5.461   0.343  0.2252  0.1325  0.3852
  286MOL0     C37622   2.992   5.420   0.262 -0.4893  0.0159 -0.1579
  286MOL0     O37623   2.859   5.405   0.292 -0.6007  0.4504  0.3103
  286MOL0     C37624   2.787   5.461   0.395  0.2382  0.1297  0.5952
  286MOL0     C37625   2.659   5.410   0.414  0.3806 -0.2402  0.3692
  286MOL0     C37626   2.573   5.469   0.517 -0.2130  0.0067 -0.7976
  286MOL0     C37627   2.628   5.577   0.595  0.2839 -0.9624 -0.6594
  286MOL0     O37628   2.537   5.643   0.683  0.1931 -0.0651 -0.4685
  286MOL0     C37629   2.588   5.657   0.818  0.2042 -0.4461 -0.0052
  286MOL0     C37630   2.458   5.674   0.900 -0.1678 -0.2562 -0.3070
  286MOL0     C37631   2.381   5.539   0.918 -0.2174  0.8225 -0.0924
  286MOL0     C37632   2.247   5.556   1.004 -0.1453 -0.9847 -0.1122
  286MOL0     C37633   2.216   5.425   1.082 -0.6024  0.7987  0.0099
  286MOL0     C37634   2.195   5.301   0.984 -0.5360  0.2336 -0.2155
  286MOL0     C37635   2.082   5.317   0.889  0.8331 -0.1319 -0.9173
  286MOL0     C37636   2.093   5.207   0.782 -0.1001  0.5478  0.1480
  286MOL0     N37637   2.004   5.223   0.668 -0.4559 -0.1644  0.1105
  286MOL0     C37638   1.873   5.267   0.661  0.8875 -0.5764 -0.2006
  286MOL0     C37639   1.854   5.297   0.533  0.2549 -0.1422 -0.2530
  286MOL0     C37640   1.738   5.348   0.459  0.1768 -0.1324  0.7900
  286MOL0     C37641   1.670   5.225   0.395 -1.5484  0.7355 -0.2703
  286MOL0     C37642   1.558   5.275   0.306 -0.2528  0.2074  0.9901
  286MOL0     C37643   1.445   5.341   0.386  0.2581 -0.2167  0.7838
  286MOL0     O37644   1.373   5.249   0.477 -0.3569  0.4942 -0.2402
  286MOL0     C37645   1.241   5.291   0.485 -0.0846 -0.2193  0.2582
  286MOL0     C37646   1.207   5.392   0.568 -0.3514 -0.7288 -0.1099
  286MOL0     C37647   1.075   5.435   0.570  0.4495 -0.2556 -0.1639
  286MOL0     C37648   0.971   5.363   0.500 -0.5779 -0.1801 -0.2640
  286MOL0     C37649   0.831   5.386   0.514 -0.0179  0.3510 -0.4484
  286MOL0     O37650   0.752   5.356   0.404 -0.3135 -0.4730  0.1777
  286MOL0     C37651   0.619   5.337   0.433 -0.9426  0.1495 -0.4681
  286MOL0     C37652   0.541   5.450   0.455 -0.5374  0.1482  0.6163
  286MOL0     C37653   0.407   5.431   0.494 -0.6231 -0.5015  0.9721
  286MOL0     C37654   0.351   5.303   0.491 -0.4794  0.8828 -1.5383
  286MOL0     O37655   0.218   5.276   0.517  0.4704  0.3339  0.1580
  286MOL0     C37656   0.119   5.381   0.500 -1.8317 -0.7682  0.0436
  286MOL0     C37657  -0.012   5.304   0.526  0.9342  0.2686 -0.8115
  286MOL0     C37658  -0.132   5.399   0.575  0.4526  0.5157 -0.4296
  286MOL0     C37659  -0.137   5.410   0.735 -0.1448  0.0684 -0.5235
  286MOL0     C37660  -0.247   5.506   0.790  0.1705 -0.0953  0.3099
  286MOL0     C37661  -0.212   5.661   0.761  0.1839  0.4485  0.4366
  286MOL0     C37662  -0.229   5.739   0.898 -0.5401 -0.1726  0.1833
  286MOL0     C37663  -0.139   5.869   0.887 -0.4527 -0.5083 -0.0696
  286MOL0    Cl37664  -0.176   5.970   0.744 -0.0615  0.0327  0.2404
  286MOL0     C37665   0.431   5.194   0.451  0.4756  0.2172  0.2892
  286MOL0     C37666   0.564   5.215   0.419  1.4058  0.0062 -0.0308
  286MOL0     O37667   0.793   5.426   0.619  0.4904  0.3225  0.2352
  286MOL0     C37668   1.013   5.256   0.416 -1.3044 -0.0463  0.8963
  286MOL0     C37669   1.147   5.222   0.405 -0.0978  0.4617  0.3575
  286MOL0     N37670   1.973   5.262   0.461  0.0162  0.2125  0.5327
  286MOL0     N37671   2.055   5.220   0.545 -0.1452  0.3884  0.7939
  286MOL0     C37672   2.761   5.611   0.588  0.4649 -0.1236 -0.5314
  286MOL0     C37673   2.839   5.558   0.483 -0.3750 -0.2657  0.5064
  286MOL0     C37674   3.043   5.370   0.130 -0.3866  0.6106  0.6390
  286MOL0     C37675   3.179   5.351   0.110 -0.9773 -0.1861  0.8515
  286MOL0     C37676   3.234   5.292  -0.006 -0.1120 -0.2424  0.7269
  286MOL0     C37677   3.150   5.273  -0.114  0.2971  0.4416  0.3310
  286MOL0     O37678   3.195   5.226  -0.234  0.9510  0.4421 -0.2554
  286MOL0     C37679   3.209   5.334  -0.327 -0.6484  0.4566  0.1357
  286MOL0     C37680   3.261   5.272  -0.460  0.1116  0.8849 -0.3831
  286MOL0     C37681   3.293   5.386  -0.563 -0.0510 -0.0426  0.3128
  286MOL0     C37682   3.196   5.454  -0.647 -0.0827  0.1115  0.5683
  286MOL0     C37683   3.135   5.363  -0.752  0.8662 -0.0241 -0.2260
  286MOL0     C37684   3.095   5.302  -0.846 -0.8432 -0.3424 -0.3556
  286MOL0     C37685   3.018   5.291  -0.099  0.0879  0.7934  0.6712
  286MOL0     C37686   2.959   5.345   0.017 -0.7158  0.9374  0.2122
  286MOL0     H37687   2.626   5.324   0.358 -0.1872  0.4514 -0.3697
  286MOL0     H37688   2.470   5.441   0.533 -1.0717  4.1317  2.5851
  286MOL0     H37689   2.638   5.754   0.814  1.8455 -1.1925  1.0992
  286MOL0     H37690   2.648   5.575   0.859 -2.6747 -1.4864  2.4546
  286MOL0     H37691   2.398   5.747   0.846 -0.2051  0.1764  0.3069
  286MOL0     H37692   2.479   5.718   0.998  2.0508 -2.7326  0.4416
  286MOL0     H37693   2.444   5.468   0.973  2.0676  1.3869 -1.8410
  286MOL0     H37694   2.357   5.484   0.827 -2.2684  2.0239 -0.3467
  286MOL0     H37695   2.276   5.640   1.067  0.2825  0.2494 -1.8841
  286MOL0     H37696   2.167   5.587   0.936 -0.1989  1.8578  1.1035
  286MOL0     H37697   2.129   5.439   1.146 -1.6506  1.0355 -1.4192
  286MOL0     H37698   2.292   5.394   1.153 -0.0996 -1.8352 -1.5492
  286MOL0     H37699   2.171   5.210   1.039 -2.7230  0.2715 -1.0364
  286MOL0     H37700   2.291   5.291   0.932  1.1110 -1.0251  2.8516
  286MOL0     H37701   1.986   5.294   0.937  1.1441  1.8750  0.8269
  286MOL0     H37702   2.075   5.414   0.839 -1.6450 -0.8059 -2.0738
  286MOL0     H37703   2.068   5.110   0.826  0.0718  1.1336  1.5856
  286MOL0     H37704   2.196   5.226   0.751 -0.1241  5.6703  2.2885
  286MOL0     H37705   1.803   5.262   0.744  1.9192 -2.3117  0.6394
  286MOL0     H37706   1.775   5.407   0.374 -1.8652 -1.2192 -0.9553
  286MOL0     H37707   1.676   5.405   0.528 -0.6299  0.6514 -0.5463
  286MOL0     H37708   1.629   5.164   0.476  1.0032 -0.0878  0.5056
  286MOL0     H37709   1.742   5.166   0.337 -0.0979  0.8455  1.3512
  286MOL0     H37710   1.609   5.342   0.236  1.4182 -3.4416 -1.6462
  286MOL0     H37711   1.530   5.196   0.235  1.7689 -0.3692  0.7780
  286MOL0     H37712   1.363   5.375   0.322 -0.6082  0.8645  2.3698
  286MOL0     H37713   1.471   5.437   0.432 -0.3475  1.3382 -1.9138
  286MOL0     H37714   1.278   5.434   0.638  0.0016 -3.3019  1.1940
  286MOL0     H37715   1.052   5.508   0.647 -0.1874  0.5783 -1.1196
  286MOL0     H37716   0.585   5.550   0.455  3.0405 -1.2287 -2.0094
  286MOL0     H37717   0.357   5.524   0.523  1.0348  0.1675  1.8275
  286MOL0     H37718   0.119   5.432   0.404  0.1532  2.2215  1.4578
  286MOL0     H37719   0.138   5.457   0.578 -2.7421  2.0465 -2.3113
  286MOL0     H37720  -0.000   5.227   0.603 -3.1777 -1.2443 -1.4768
  286MOL0     H37721  -0.040   5.267   0.427 -0.4578  1.3479 -0.8494
  286MOL0     H37722  -0.229   5.350   0.559  0.9523 -1.5611  2.0696
  286MOL0     H37723  -0.116   5.496   0.529 -0.2977  2.0366  2.2916
  286MOL0     H37724  -0.148   5.309   0.774  3.1550 -0.7017 -1.2541
  286MOL0     H37725  -0.040   5.442   0.776 -0.5897 -0.2997  0.8892
  286MOL0     H37726  -0.254   5.487   0.897 -4.3807  0.3877  0.2708
  286MOL0     H37727  -0.348   5.488   0.752 -0.4177 -1.0641  2.2235
  286MOL0     H37728  -0.292   5.694   0.694  0.7137 -0.8013 -0.8785
  286MOL0     H37729  -0.114   5.671   0.714 -0.6614  0.9007 -1.3332
  286MOL0     H37730  -0.336   5.753   0.910 -0.7808 -1.1647 -0.6137
  286MOL0     H37731  -0.194   5.684   0.986  2.5770 -0.1057 -0.8671
  286MOL0     H37732  -0.037   5.829   0.888  0.4012  1.3642 -2.5204
  286MOL0     H37733  -0.143   5.939   0.972  1.4236 -0.2520 -0.1525
  286MOL0     H37734   0.381   5.100   0.432  0.2996  0.6805 -1.7476
  286MOL0     H37735   0.615   5.123   0.391 -2.4765 -2.7466  1.0407
  286MOL0     H37736   0.935   5.201   0.365 -1.0014  2.0760 -2.1477
  286MOL0     H37737   1.172   5.128   0.358 -1.4421 -0.0524  0.6354
  286MOL0     H37738   2.803   5.680   0.661  2.0291 -0.5888 -0.9352
  286MOL0     H37739   2.937   5.600   0.463 -0.5372 -0.1308 -0.0257
  286MOL0     H37740   3.242   5.390   0.189  0.0190  4.4767 -1.8348
  286MOL0     H37741   3.335   5.252  -0.012 -0.1639 -0.3344  0.4363
  286MOL0     H37742   3.276   5.414  -0.295  0.3980 -0.4046  0.1745
  286MOL0     H37743   3.107   5.371  -0.342  0.4217  4.2837  1.2538
  286MOL0     H37744   3.349   5.210  -0.440 -2.1338 -2.6145 -0.4880
  286MOL0     H37745   3.191   5.199  -0.503 -1.4164 -0.9504  4.5239
  286MOL0     H37746   3.367   5.331  -0.622  1.6148  0.6123  1.6906
  286MOL0     H37747   3.347   5.460  -0.502  0.9830 -1.6801  1.4623
  286MOL0     H37748   3.113   5.502  -0.595 -0.8871  0.0464 -0.6261
  286MOL0     H37749   3.245   5.532  -0.706 -1.6428  1.3310  0.8447
  286MOL0     H37750   3.061   5.235  -0.923  0.0213 -0.8924 -0.2749
  286MOL0     H37751   2.961   5.274  -0.190  2.2629  1.8765 -0.9727
  286MOL0     H37752   2.853   5.356   0.033 -1.7314 -3.5476 -1.7362
  287MOL0     O37753   2.189   7.746   9.259  0.0715  0.2720 -0.0948
  287MOL0     C37754   2.160   7.653   9.190  0.3204  0.3040  0.4587
  287MOL0     O37755   2.040   7.590   9.189  0.2444  0.1885 -0.7370
  287MOL0     C37756   1.952   7.591   9.295 -0.4729 -0.8543 -0.3775
  287MOL0     C37757   1.823   7.550   9.251 -0.9527 -0.0633  0.3092
  287MOL0     C37758   1.719   7.538   9.344 -0.1792 -0.2609  0.0582
  287MOL0     C37759   1.748   7.590   9.474 -0.1252  0.4314 -0.5884
  287MOL0     O37760   1.641   7.586   9.560  0.5320 -0.0388 -0.3495
  287MOL0     C37761   1.664   7.603   9.699 -1.3397 -0.2452 -0.2017
  287MOL0     C37762   1.542   7.585   9.789  0.7993 -0.8138 -1.1359
  287MOL0     C37763   1.458   7.710   9.795 -0.0731 -0.5973 -0.2668
  287MOL0     C37764   1.337   7.691   9.889 -0.9800 -0.0466 -0.6337
  287MOL0     C37765   1.221   7.797   9.863 -0.9318  0.6135  0.8041
  287MOL0     C37766   1.227   7.925   9.943 -0.1028 -0.2274 -0.0174
  287MOL0     C37767   1.097   8.015   9.909  0.2352  0.3935  0.4350
  287MOL0     C37768   0.972   7.968   9.977 -0.4472  0.0066 -0.6944
  287MOL0     N37769   0.854   8.029   9.921  0.2146  0.3822 -0.0567
  287MOL0     C37770   0.837   8.157   9.877 -0.3677 -0.5904 -0.8706
  287MOL0     C37771   0.707   8.169   9.832  0.0738 -0.4610  0.1607
  287MOL0     C37772   0.657   8.304   9.803  0.0519 -0.3381 -0.1137
  287MOL0     C37773   0.588   8.372   9.922  0.1619  0.4261 -0.2531
  287MOL0     C37774   0.516   8.499   9.862 -0.5770  0.3603 -0.1080
  287MOL0     C37775   0.468   8.600   9.961  0.3527 -0.6488  0.3207
  287MOL0     O37776   0.392   8.692   9.885 -0.2344 -0.5684  0.5034
  287MOL0     C37777   0.312   8.783   9.950 -0.0919 -0.0557 -1.0115
  287MOL0     C37778   0.176   8.772   9.938  0.1668 -0.0596 -0.3350
  287MOL0     C37779   0.082   8.856  10.001 -0.8110 -0.9958 -0.5417
  287MOL0     C37780   0.140   8.957  10.084 -0.5799  0.3091 -0.6014
  287MOL0     C37781   0.051   9.035  10.174  0.8863  0.5140  0.2498
  287MOL0     O37782   0.109   9.132  10.250 -0.2227  0.5228  0.9968
  287MOL0     C37783   0.022   9.219  10.310  0.2491 -0.1328  0.1697
  287MOL0     C37784  -0.010   9.335  10.248 -0.1314 -0.1388 -0.1714
  287MOL0     C37785  -0.084   9.430  10.318  0.0777  0.1953 -0.0719
  287MOL0     C37786  -0.136   9.390  10.446  0.3022  0.6684  0.8067
  287MOL0     O37787  -0.216   9.473  10.516  0.3597 -0.0716 -0.3086
  287MOL0     C37788  -0.306   9.553  10.439  0.4409 -0.4825  0.1788
  287MOL0     C37789  -0.414   9.591  10.539 -0.3071  0.7523 -0.0059
  287MOL0     C37790  -0.509   9.696  10.484  0.3597 -0.1851 -0.0971
  287MOL0     C37791  -0.624   9.713  10.583 -0.1867 -0.3856 -0.4938
  287MOL0     C37792  -0.746   9.768  10.510  0.0203  0.9113 -0.5975
  287MOL0     C37793  -0.722   9.901  10.436 -0.5822  0.4607 -0.2005
  287MOL0     C37794  -0.758  10.017  10.523 -0.0666 -0.0182 -0.1519
  287MOL0     C37795  -0.736  10.144  10.441 -0.2022 -0.1509  1.2856
  287MOL0    Cl37796  -0.562  10.178  10.457 -0.1170 -0.3478 -0.1147
  287MOL0     C37797  -0.082   9.271  10.513 -0.1724  0.0542 -0.2142
  287MOL0     C37798  -0.000   9.190  10.445 -0.1916  0.3366 -0.0716
  287MOL0     O37799  -0.074   9.012  10.172 -0.3800  0.3460  0.4368
  287MOL0     C37800   0.286   8.972  10.102 -0.4907 -0.2498  0.4291
  287MOL0     C37801   0.371   8.883  10.032  0.2434  0.4397  0.3718
  287MOL0     N37802   0.650   8.045   9.851  0.4643 -0.2718 -0.3707
  287MOL0     N37803   0.738   7.963   9.906 -0.2965  0.2904 -0.6590
  287MOL0     C37804   1.876   7.628   9.518  0.7956  0.6175  0.1899
  287MOL0     C37805   1.985   7.613   9.433 -0.0068  0.7145  0.7695
  287MOL0     C37806   2.252   7.584   9.082 -0.1891 -0.4592 -0.6839
  287MOL0     C37807   2.392   7.616   9.072 -0.0125 -0.1211 -0.1042
  287MOL0     C37808   2.476   7.555   8.988  0.2868 -0.6135  0.5168
  287MOL0     C37809   2.428   7.454   8.900  0.5021  0.7100 -0.4267
  287MOL0     O37810   2.508   7.397   8.807 -0.1168 -0.0168 -0.7074
  287MOL0     C37811   2.639   7.447   8.789 -0.0746  1.1699  1.1057
  287MOL0     C37812   2.699   7.383   8.668  0.5458 -0.5069  0.1938
  287MOL0     C37813   2.704   7.235   8.657 -0.1113  0.4261  0.0172
  287MOL0     C37814   2.791   7.204   8.527 -0.2682  0.0192 -0.0833
  287MOL0     C37815   2.802   7.061   8.510 -0.7920  0.4190  0.4849
  287MOL0     C37816   2.836   6.943   8.489  0.2416 -0.0823 -0.7343
  287MOL0     C37817   2.292   7.423   8.907 -1.3548  0.4231 -0.7006
  287MOL0     C37818   2.213   7.478   9.004  0.5963 -0.8069 -0.9654
  287MOL0     H37819   1.804   7.517   9.149 -3.0239  0.1662  0.5670
  287MOL0     H37820   1.616   7.508   9.328 -0.7174  2.2877 -1.9363
  287MOL0     H37821   1.709   7.700   9.721  0.1863 -1.3206  1.6628
  287MOL0     H37822   1.721   7.518   9.737 -3.2186 -0.2972  2.7994
  287MOL0     H37823   1.577   7.555   9.889  0.4777 -1.2161 -1.1417
  287MOL0     H37824   1.468   7.509   9.760 -3.1800  0.9069  3.2292
  287MOL0     H37825   1.414   7.728   9.697 -2.0980  3.1373  1.1232
  287MOL0     H37826   1.522   7.799   9.803  1.0824 -1.4214 -0.0471
  287MOL0     H37827   1.301   7.588   9.884 -0.1665 -0.5370  2.1368
  287MOL0     H37828   1.370   7.710   9.992 -1.7556  1.1727 -0.5901
  287MOL0     H37829   1.126   7.745   9.880  1.0148 -2.7541  2.3753
  287MOL0     H37830   1.230   7.827   9.758 -1.2270  3.7961  1.5572
  287MOL0     H37831   1.321   7.975   9.920 -1.2934  2.0606 -0.1940
  287MOL0     H37832   1.235   7.893  10.047 -0.5770 -0.3458 -0.0149
  287MOL0     H37833   1.112   8.116   9.946  2.4760  0.6757 -1.0441
  287MOL0     H37834   1.087   8.004   9.800  0.3541  0.6324  0.4007
  287MOL0     H37835   0.979   7.973  10.087  3.0723  1.0355 -0.8276
  287MOL0     H37836   0.959   7.859   9.967 -1.3372  0.1599 -1.2774
  287MOL0     H37837   0.905   8.241   9.879  1.0947 -1.7278 -1.2505
  287MOL0     H37838   0.588   8.297   9.718 -1.4479 -0.1263  1.0382
  287MOL0     H37839   0.736   8.374   9.775 -0.0007 -0.2913 -0.1462
  287MOL0     H37840   0.663   8.401   9.996  1.6399 -4.1957  0.3385
  287MOL0     H37841   0.523   8.307   9.981  1.2826  0.1592  0.7315
  287MOL0     H37842   0.589   8.545   9.795  0.0864 -0.2824  0.1590
  287MOL0     H37843   0.437   8.467   9.793  1.9640  3.1273 -4.7963
  287MOL0     H37844   0.563   8.637  10.002  1.2009 -1.1617 -1.0943
  287MOL0     H37845   0.410   8.552  10.041  1.0057 -0.2070  1.0780
  287MOL0     H37846   0.135   8.682   9.892  1.3737 -1.0208  0.4056
  287MOL0     H37847  -0.026   8.852  10.002 -1.0785  2.5276  1.4041
  287MOL0     H37848   0.018   9.365  10.148 -4.3865  3.2715 -0.6601
  287MOL0     H37849  -0.109   9.528  10.278  1.4883 -0.5685 -3.1396
  287MOL0     H37850  -0.343   9.489  10.359  0.7680  0.4385 -0.7342
  287MOL0     H37851  -0.257   9.641  10.396 -1.8939  0.0194 -1.6566
  287MOL0     H37852  -0.358   9.633  10.623  1.1909 -0.7832 -0.1940
  287MOL0     H37853  -0.468   9.504  10.576  0.8843  0.0014  0.0100
  287MOL0     H37854  -0.547   9.656  10.389 -0.4235 -2.3897  1.0740
  287MOL0     H37855  -0.457   9.791  10.473 -0.0505  0.0996  0.3791
  287MOL0     H37856  -0.640   9.616  10.631 -3.6777 -0.4504 -1.5366
  287MOL0     H37857  -0.590   9.774  10.668 -0.0181 -1.9181  0.5779
  287MOL0     H37858  -0.824   9.767  10.586  0.1736 -0.5877 -0.4306
  287MOL0     H37859  -0.775   9.695  10.434  1.7351 -2.3237  1.6052
  287MOL0     H37860  -0.779   9.912  10.344 -1.4320 -1.9099 -0.0087
  287MOL0     H37861  -0.618   9.903  10.402 -0.9597  1.5536 -1.3394
  287MOL0     H37862  -0.862  10.006  10.555  0.2132 -1.0650  0.4480
  287MOL0     H37863  -0.709  10.011  10.620  1.7970 -1.8888 -1.1245
  287MOL0     H37864  -0.804  10.226  10.466  1.1902  2.2292 -1.9179
  287MOL0     H37865  -0.752  10.124  10.334  0.0720 -0.9092  1.3794
  287MOL0     H37866  -0.110   9.253  10.616 -0.8560 -2.3945 -0.7694
  287MOL0     H37867   0.048   9.104  10.492 -1.6949  1.2739  3.5447
  287MOL0     H37868   0.340   9.046  10.160 -0.3348 -1.8740  2.4799
  287MOL0     H37869   0.479   8.882  10.039  0.1711  1.5540  2.9173
  287MOL0     H37870   1.897   7.657   9.620 -2.6994  1.7851  0.6940
  287MOL0     H37871   2.089   7.623   9.462 -0.2811  3.3471  1.1038
  287MOL0     H37872   2.433   7.692   9.137  2.2961 -2.5181  1.4384
  287MOL0     H37873   2.580   7.578   9.008 -0.3348  1.5663  1.4964
  287MOL0     H37874   2.707   7.413   8.868  0.7940  0.3559  0.0268
  287MOL0     H37875   2.639   7.555   8.774  0.8703  0.8163 -2.0773
  287MOL0     H37876   2.668   7.432   8.575  2.9972 -0.1864 -0.5054
  287MOL0     H37877   2.804   7.409   8.679  0.1825  1.7178 -1.0517
  287MOL0     H37878   2.599   7.203   8.658 -0.2824  0.2589 -3.9289
  287MOL0     H37879   2.758   7.194   8.742 -0.2183  2.4825  1.1360
  287MOL0     H37880   2.742   7.253   8.442  1.1500 -0.7094 -1.3682
  287MOL0     H37881   2.881   7.265   8.532 -0.0407 -0.2297 -0.8787
  287MOL0     H37882   2.876   6.844   8.479  1.2871  0.4115 -1.6595
  287MOL0     H37883   2.252   7.347   8.841 -1.3921  1.6322 -2.1011
  287MOL0     H37884   2.110   7.447   8.998 -1.0412  3.9934 -2.5324
  288MOL0     O37885   8.558   1.276   1.939 -0.7901  0.8283  0.4011
  288MOL0     C37886   8.527   1.328   1.837 -0.0140 -0.2497 -0.4633
  288MOL0     O37887   8.559   1.283   1.716  0.0889  0.7490  0.0578
  288MOL0     C37888   8.649   1.183   1.685 -0.0882  0.5828 -0.2179
  288MOL0     C37889   8.771   1.157   1.760  0.7302 -0.2167 -0.1447
  288MOL0     C37890   8.873   1.068   1.710  0.9202 -0.1184 -0.6200
  288MOL0     C37891   8.847   0.999   1.587 -0.3474 -0.9805 -0.0989
  288MOL0     O37892   8.946   0.915   1.536 -0.2202  0.7532 -0.2117
  288MOL0     C37893   9.089   0.932   1.578 -0.1636  0.4255  0.2714
  288MOL0     C37894   9.138   1.061   1.525 -0.4561 -0.2484  1.1409
  288MOL0     C37895   9.267   1.113   1.598 -0.0244  0.8383 -0.2110
  288MOL0     C37896   9.390   1.021   1.571 -0.0285 -0.5069 -1.2158
  288MOL0     C37897   9.510   1.094   1.633  0.8566 -0.1165 -0.9813
  288MOL0     C37898   9.627   0.997   1.654 -0.2298  0.5330  0.7084
  288MOL0     C37899   9.757   1.064   1.702 -0.2893 -0.8073 -0.0113
  288MOL0     C37900   9.861   0.963   1.744 -0.1993  0.4411 -0.6434
  288MOL0     N37901   9.989   1.032   1.732 -0.5304  0.2275 -0.2988
  288MOL0     C37902  10.062   1.073   1.622  0.0960  0.6520 -0.4652
  288MOL0     C37903  10.181   1.126   1.668  0.1504  0.6237  0.1765
  288MOL0     C37904  10.288   1.194   1.588 -0.9977 -0.1546  0.3480
  288MOL0     C37905  10.280   1.344   1.613 -0.7128 -0.6160 -0.1720
  288MOL0     C37906  10.400   1.407   1.536  0.2198 -0.3009 -0.7322
  288MOL0     C37907  10.398   1.556   1.554  0.8744  1.2794  0.5312
  288MOL0     O37908  10.374   1.605   1.689  0.0565  0.0475 -0.4300
  288MOL0     C37909  10.260   1.674   1.717  0.4164 -0.7285  0.7702
  288MOL0     C37910  10.288   1.767   1.812 -0.0499  0.3508  0.0581
  288MOL0     C37911  10.193   1.853   1.854  0.3057 -0.2369 -0.4738
  288MOL0     C37912  10.058   1.846   1.808  0.6032 -0.6448 -0.1164
  288MOL0     C37913   9.956   1.951   1.852  0.4537  0.7072  1.0499
  288MOL0     O37914   9.834   1.959   1.782 -0.0878  0.6782 -0.7489
  288MOL0     C37915   9.748   2.058   1.823 -0.5928 -1.3331 -0.0441
  288MOL0     C37916   9.687   2.127   1.712 -0.6085 -0.2472  0.1162
  288MOL0     C37917   9.588   2.221   1.729 -0.4305 -0.2080 -0.0551
  288MOL0     C37918   9.524   2.236   1.854  0.1959 -0.3031 -0.4680
  288MOL0     O37919   9.442   2.347   1.871 -0.9140  0.0312  0.2417
  288MOL0     C37920   9.334   2.344   1.966 -0.2706  0.2646  0.1975
  288MOL0     C37921   9.237   2.223   1.956 -0.0851  0.9586 -0.4084
  288MOL0     C37922   9.121   2.237   2.058 -0.9816  0.2418 -0.1488
  288MOL0     C37923   9.043   2.109   2.098 -0.0545  0.1676 -0.0235
  288MOL0     C37924   8.913   2.140   2.178 -0.5485  0.3743 -1.5136
  288MOL0     C37925   8.832   2.011   2.214 -0.2996  0.3209 -0.8085
  288MOL0     C37926   8.694   2.043   2.277  0.0905 -0.1104 -0.3171
  288MOL0     C37927   8.620   1.912   2.303 -0.2722 -0.4889 -0.5025
  288MOL0    Cl37928   8.568   1.824   2.150  0.0603 -0.1979  0.5794
  288MOL0     C37929   9.580   2.159   1.965 -0.0816 -1.0227 -0.5251
  288MOL0     C37930   9.689   2.074   1.954  0.2520  0.2223 -0.2276
  288MOL0     O37931   9.989   2.036   1.934 -0.3193  0.0912  0.2338
  288MOL0     C37932  10.034   1.754   1.699  0.7141 -0.5563 -0.0157
  288MOL0     C37933  10.136   1.666   1.646 -0.1192  0.2701  0.5485
  288MOL0     N37934  10.183   1.121   1.807 -0.1295 -0.1022 -0.0012
  288MOL0     N37935  10.065   1.063   1.840 -0.2025  0.0453 -0.6988
  288MOL0     C37936   8.726   1.014   1.523  0.4067 -0.8703 -0.5036
  288MOL0     C37937   8.631   1.107   1.569 -1.2769 -0.5472  1.0073
  288MOL0     C37938   8.446   1.451   1.834 -0.3909  0.5753  0.4865
  288MOL0     C37939   8.438   1.529   1.953  0.1057  0.2543 -0.1670
  288MOL0     C37940   8.362   1.646   1.964  0.2585  1.0520  0.0338
  288MOL0     C37941   8.294   1.694   1.849 -1.0094  0.6092 -0.1038
  288MOL0     O37942   8.202   1.798   1.844 -0.5978  0.0341  0.4229
  288MOL0     C37943   8.079   1.783   1.771 -0.6669  0.4417 -0.6837
  288MOL0     C37944   7.986   1.879   1.841 -0.7015  0.6120  0.2739
  288MOL0     C37945   7.865   1.904   1.749 -0.0535 -0.3170 -0.1859
  288MOL0     C37946   7.756   1.989   1.822 -0.5501 -0.6538 -0.9033
  288MOL0     C37947   7.626   1.977   1.753 -0.6712  0.7213  1.7780
  288MOL0     C37948   7.523   1.980   1.693 -0.2686 -0.4882 -0.6374
  288MOL0     C37949   8.311   1.622   1.729  0.5392  0.6660 -0.2530
  288MOL0     C37950   8.382   1.508   1.720  1.0582  0.1124 -0.5665
  288MOL0     H37951   8.790   1.213   1.851 -1.0282  2.0116 -1.0161
  288MOL0     H37952   8.960   1.063   1.774  3.0324  0.0265 -3.3478
  288MOL0     H37953   9.151   0.849   1.542  3.6329  3.1301 -0.0174
  288MOL0     H37954   9.087   0.918   1.686 -0.0654  1.7997  0.4739
  288MOL0     H37955   9.065   1.142   1.536 -0.8392  0.1241 -2.6542
  288MOL0     H37956   9.156   1.057   1.417  2.4131 -0.6800  1.5816
  288MOL0     H37957   9.238   1.134   1.701 -0.4122  2.4309 -0.6214
  288MOL0     H37958   9.300   1.210   1.561  4.5136  0.5220  2.2297
  288MOL0     H37959   9.389   0.921   1.613 -1.2391 -0.3828 -0.9379
  288MOL0     H37960   9.398   1.012   1.462 -2.9983  1.6695 -1.7557
  288MOL0     H37961   9.500   1.144   1.730 -1.7912  0.3337 -1.4215
  288MOL0     H37962   9.538   1.166   1.555 -0.7327 -1.4063 -2.8318
  288MOL0     H37963   9.636   0.938   1.562  0.0961 -0.1209  1.1509
  288MOL0     H37964   9.603   0.930   1.737  0.8384  0.5540  1.0540
  288MOL0     H37965   9.775   1.136   1.622 -1.5033 -2.6990 -2.0964
  288MOL0     H37966   9.722   1.107   1.796 -2.0629  0.0487 -1.0027
  288MOL0     H37967   9.857   0.873   1.681 -0.5243  0.2414 -0.3403
  288MOL0     H37968   9.839   0.938   1.848 -2.6411 -0.2674 -1.2594
  288MOL0     H37969  10.043   1.070   1.515  1.3894 -1.6565 -0.6852
  288MOL0     H37970  10.277   1.171   1.481 -0.3873 -0.3200  0.3180
  288MOL0     H37971  10.384   1.153   1.619 -0.3605 -1.2535 -2.6902
  288MOL0     H37972  10.277   1.355   1.722  0.8906 -0.7326 -0.0838
  288MOL0     H37973  10.186   1.386   1.577 -0.1876  0.0994 -0.7279
  288MOL0     H37974  10.496   1.364   1.567  0.1148  0.5022  0.8674
  288MOL0     H37975  10.389   1.388   1.429  0.4441  2.5206 -1.3394
  288MOL0     H37976  10.330   1.582   1.471  2.8790  0.2520 -1.5481
  288MOL0     H37977  10.493   1.599   1.521  0.7964  0.4182 -0.9167
  288MOL0     H37978  10.385   1.769   1.860 -0.2471  2.8375  0.4606
  288MOL0     H37979  10.221   1.938   1.914 -3.4858  0.1636  0.9816
  288MOL0     H37980   9.721   2.108   1.611  1.1408 -1.5632  0.8934
  288MOL0     H37981   9.571   2.277   1.637  1.2918  0.1026 -0.2121
  288MOL0     H37982   9.264   2.426   1.945 -1.6533 -0.6627  0.9906
  288MOL0     H37983   9.382   2.356   2.064  0.4744  0.5591 -0.1925
  288MOL0     H37984   9.285   2.126   1.968 -0.2870  0.4369 -3.2768
  288MOL0     H37985   9.191   2.233   1.857  1.3314 -1.6161 -1.4256
  288MOL0     H37986   9.057   2.317   2.020 -1.4182  0.1542  0.3932
  288MOL0     H37987   9.155   2.272   2.156 -0.4307  0.9432 -0.5775
  288MOL0     H37988   9.027   2.048   2.009 -0.3094 -0.9679  0.7817
  288MOL0     H37989   9.105   2.053   2.169 -2.0799 -0.1883  1.5321
  288MOL0     H37990   8.848   2.197   2.111 -0.7969  0.7050 -0.9989
  288MOL0     H37991   8.935   2.195   2.271  2.0254  1.2331 -2.5442
  288MOL0     H37992   8.894   1.959   2.287  0.5644  0.3942 -1.4708
  288MOL0     H37993   8.811   1.945   2.129 -2.4794 -2.2123  1.5334
  288MOL0     H37994   8.724   2.093   2.370  0.7381 -0.4312 -0.3483
  288MOL0     H37995   8.634   2.115   2.221  1.5033  2.0480  0.8253
  288MOL0     H37996   8.533   1.938   2.364 -0.0796 -2.7942  0.8810
  288MOL0     H37997   8.678   1.848   2.370 -1.1987 -0.5800  0.2305
  288MOL0     H37998   9.536   2.159   2.064 -1.2801  2.6305 -0.9050
  288MOL0     H37999   9.719   2.004   2.032 -1.7896  0.3352  0.7244
  288MOL0     H38000   9.943   1.746   1.639 -0.5393  1.1980  1.5281
  288MOL0     H38001  10.123   1.590   1.570  5.3177 -2.9908  2.3446
  288MOL0     H38002   8.697   0.956   1.437  2.1080 -0.0654 -1.6808
  288MOL0     H38003   8.540   1.120   1.511  0.6853  0.8597 -1.9993
  288MOL0     H38004   8.491   1.497   2.042 -0.6017  0.6421  0.4031
  288MOL0     H38005   8.350   1.698   2.059  1.3780  1.3435  0.0325
  288MOL0     H38006   8.033   1.684   1.781 -0.8857  0.7247  2.2377
  288MOL0     H38007   8.091   1.817   1.668  3.1116  2.3908  0.2165
  288MOL0     H38008   7.949   1.844   1.938 -0.2457 -0.6844 -0.0033
  288MOL0     H38009   8.049   1.968   1.853  1.4144 -0.9380  1.2793
  288MOL0     H38010   7.820   1.809   1.717 -1.3732  0.2740 -0.1512
  288MOL0     H38011   7.888   1.957   1.656 -0.1465 -1.2700 -0.7633
  288MOL0     H38012   7.737   1.954   1.924 -0.5513 -0.9324 -0.9979
  288MOL0     H38013   7.790   2.093   1.822  0.1348 -0.8652 -0.3734
  288MOL0     H38014   7.424   1.989   1.652  0.1201  0.4515 -1.4017
  288MOL0     H38015   8.267   1.645   1.632 -0.6448 -1.1251 -0.1706
  288MOL0     H38016   8.391   1.445   1.632  0.6219 -2.6407  1.2360
  289MOL0     O38017   8.086   7.854   8.016 -0.2640 -0.2473  0.2544
  289MOL0     C38018   8.108   7.856   8.130  0.1164  0.4199  0.5094
  289MOL0     O38019   8.026   7.811   8.228 -0.6000  0.1336 -0.0470
  289MOL0     C38020   7.910   7.751   8.177  0.5661 -1.1290 -0.9072
  289MOL0     C38021   7.791   7.803   8.237 -0.2853 -0.1730  1.2933
  289MOL0     C38022   7.668   7.748   8.209 -0.3524  0.5883 -0.0163
  289MOL0     C38023   7.647   7.646   8.116 -0.9913 -0.3036  0.6720
  289MOL0     O38024   7.540   7.576   8.085 -0.4624  0.6997 -0.5862
  289MOL0     C38025   7.454   7.553   8.198 -0.2156  0.0221 -0.0022
  289MOL0     C38026   7.325   7.488   8.144 -0.0090  0.0939  0.0425
  289MOL0     C38027   7.227   7.469   8.257  0.4757  0.1301 -0.9682
  289MOL0     C38028   7.093   7.406   8.208  0.5089 -0.4517 -0.6337
  289MOL0     C38029   6.982   7.401   8.320 -0.4762 -0.5322  0.7897
  289MOL0     C38030   6.929   7.536   8.350 -0.2401 -0.1305 -0.7338
  289MOL0     C38031   6.794   7.535   8.443 -0.2918 -0.7207  0.0198
  289MOL0     C38032   6.748   7.678   8.490 -0.2952  0.5660  0.2205
  289MOL0     N38033   6.632   7.653   8.580  0.8104 -0.4600 -0.2316
  289MOL0     C38034   6.501   7.624   8.549 -0.1289  0.3623  0.3310
  289MOL0     C38035   6.446   7.584   8.667  0.2696  0.4830 -0.3420
  289MOL0     C38036   6.309   7.516   8.672  0.3803  0.3980 -0.2767
  289MOL0     C38037   6.206   7.587   8.581 -0.5770 -1.1497 -0.8166
  289MOL0     C38038   6.065   7.532   8.592  0.8343  0.3476  0.5970
  289MOL0     C38039   6.005   7.559   8.720  0.5609  0.5589  0.5674
  289MOL0     O38040   5.861   7.528   8.716  0.1984  0.1144  0.5974
  289MOL0     C38041   5.767   7.603   8.644  0.5511 -0.3434  0.6106
  289MOL0     C38042   5.648   7.544   8.600  0.1266  0.1297  0.3545
  289MOL0     C38043   5.554   7.609   8.529  1.1151 -0.0419  0.7932
  289MOL0     C38044   5.572   7.748   8.493 -0.5598  0.6043 -0.6378
  289MOL0     C38045   5.455   7.813   8.436  0.0031 -0.0574  0.8139
  289MOL0     O38046   5.337   7.744   8.426 -0.7787 -0.8583  0.2094
  289MOL0     C38047   5.222   7.797   8.383 -0.8829 -1.2252 -1.2809
  289MOL0     C38048   5.132   7.719   8.302  0.5569  0.8170 -0.3251
  289MOL0     C38049   5.005   7.771   8.274  0.1400  1.6744 -0.7951
  289MOL0     C38050   4.969   7.900   8.315 -0.1278  0.1686  0.0085
  289MOL0     O38051   4.847   7.947   8.284 -0.5003  0.2893  0.7924
  289MOL0     C38052   4.761   7.994   8.387  0.1066 -0.4357 -0.4314
  289MOL0     C38053   4.621   7.950   8.344 -0.0886  0.0142 -0.0658
  289MOL0     C38054   4.578   8.021   8.213  0.0564  0.6090 -0.5752
  289MOL0     C38055   4.436   7.966   8.167 -0.7610  0.1740 -0.3082
  289MOL0     C38056   4.421   8.003   8.016  0.3464  0.4749 -0.6293
  289MOL0     C38057   4.300   7.920   7.956  0.8769 -0.2453 -0.2073
  289MOL0     C38058   4.167   8.000   7.989 -0.5405  0.5539  0.1585
  289MOL0     C38059   4.049   7.902   8.005  0.7757 -0.2300 -0.2416
  289MOL0    Cl38060   4.057   7.801   8.142  0.1217  0.4553 -0.5473
  289MOL0     C38061   5.059   7.977   8.389  0.7436 -0.1217  0.2111
  289MOL0     C38062   5.184   7.931   8.413  0.2411  0.5826  0.9334
  289MOL0     O38063   5.474   7.928   8.394  0.9756 -0.1236 -0.4540
  289MOL0     C38064   5.699   7.798   8.521 -0.0550 -0.6246 -0.7585
  289MOL0     C38065   5.788   7.736   8.603  0.5566  0.6673  0.5334
  289MOL0     N38066   6.545   7.575   8.761  0.1243 -0.1182 -0.7845
  289MOL0     N38067   6.654   7.616   8.708 -0.1053 -0.2709  0.3910
  289MOL0     C38068   7.757   7.606   8.040  0.1227  0.0604  0.7289
  289MOL0     C38069   7.886   7.658   8.070 -0.8696 -0.2629 -0.1786
  289MOL0     C38070   8.239   7.908   8.178 -0.6493  1.0194  0.0264
  289MOL0     C38071   8.258   7.973   8.298  1.1215  0.1267  0.3759
  289MOL0     C38072   8.381   8.023   8.337  0.3457 -0.8056  0.0635
  289MOL0     C38073   8.499   7.999   8.269  0.8456  0.6297  0.3721
  289MOL0     O38074   8.624   8.060   8.297  0.0078  0.1566 -0.6376
  289MOL0     C38075   8.653   8.079   8.442 -0.0078 -1.0620 -0.4377
  289MOL0     C38076   8.793   8.133   8.463  0.2950 -0.7839 -0.0675
  289MOL0     C38077   8.905   8.031   8.441 -0.4023  0.0556  0.4213
  289MOL0     C38078   9.039   8.077   8.505 -0.4995  0.2927 -0.0574
  289MOL0     C38079   9.047   8.047   8.652 -0.5274 -0.7967  0.0351
  289MOL0     C38080   9.053   8.018   8.774  0.7008  0.1970  0.8619
  289MOL0     C38081   8.485   7.919   8.147  0.0908 -0.5623 -0.3159
  289MOL0     C38082   8.360   7.884   8.103 -0.1504 -0.3490  0.1261
  289MOL0     H38083   7.803   7.881   8.313 -1.2778  0.9813  0.3151
  289MOL0     H38084   7.577   7.786   8.256  0.5584 -0.9860  3.3780
  289MOL0     H38085   7.425   7.656   8.220  4.3974  1.8963 -1.4185
  289MOL0     H38086   7.505   7.493   8.274  0.6755  0.1180 -0.5108
  289MOL0     H38087   7.349   7.389   8.104 -1.7229 -0.6491  0.7455
  289MOL0     H38088   7.283   7.551   8.065  0.4380  0.7635  0.3286
  289MOL0     H38089   7.202   7.566   8.300  0.4361 -0.7359  1.0842
  289MOL0     H38090   7.278   7.401   8.327 -1.7800  0.0776  0.7146
  289MOL0     H38091   7.056   7.471   8.127  0.9123  0.1843 -0.3087
  289MOL0     H38092   7.110   7.308   8.162 -0.4353 -1.8078  1.7207
  289MOL0     H38093   7.028   7.375   8.416 -1.3539 -0.6923  1.1743
  289MOL0     H38094   6.902   7.332   8.295 -3.1314  2.3361  0.7912
  289MOL0     H38095   6.919   7.594   8.257  1.1834  0.4110 -0.5838
  289MOL0     H38096   7.012   7.579   8.407  1.3284 -1.5531 -1.8495
  289MOL0     H38097   6.713   7.479   8.396 -2.2416  1.8899  0.0791
  289MOL0     H38098   6.813   7.482   8.537 -0.9173 -0.4268  0.3162
  289MOL0     H38099   6.718   7.727   8.397 -0.0271 -0.3135 -0.3367
  289MOL0     H38100   6.826   7.732   8.544 -0.4428  0.2649  0.7472
  289MOL0     H38101   6.460   7.603   8.451  0.7049 -4.5797  0.7720
  289MOL0     H38102   6.274   7.512   8.776  0.4965  2.7684 -0.0979
  289MOL0     H38103   6.316   7.408   8.657  1.8617  0.4320 -0.0591
  289MOL0     H38104   6.231   7.589   8.474  0.0352 -1.0340 -0.6736
  289MOL0     H38105   6.206   7.691   8.613 -0.1275 -1.0638 -1.0806
  289MOL0     H38106   6.008   7.578   8.510  2.4347  0.8446 -0.2867
  289MOL0     H38107   6.066   7.424   8.575 -0.2344  0.8058 -3.3567
  289MOL0     H38108   6.011   7.662   8.755 -1.3047  1.7082 -2.1529
  289MOL0     H38109   6.058   7.506   8.800 -0.1647  2.3913  2.3294
  289MOL0     H38110   5.641   7.447   8.649  0.2443  1.1179  2.4170
  289MOL0     H38111   5.457   7.561   8.513  0.9566  1.0435 -1.9379
  289MOL0     H38112   5.158   7.617   8.276 -1.9362  0.2709 -0.9578
  289MOL0     H38113   4.946   7.717   8.200 -0.3934  2.5542 -1.0321
  289MOL0     H38114   4.782   8.102   8.395  3.4360 -0.9249 -0.8078
  289MOL0     H38115   4.784   7.947   8.483 -2.7708  1.6013  1.3850
  289MOL0     H38116   4.555   7.977   8.427  2.8202  3.0638  1.5150
  289MOL0     H38117   4.603   7.844   8.325 -0.1263  0.1651 -0.9030
  289MOL0     H38118   4.652   8.003   8.134  0.9283 -0.9654  0.5440
  289MOL0     H38119   4.583   8.128   8.233  1.6110  1.0498 -2.9266
  289MOL0     H38120   4.435   7.857   8.161  2.4303 -0.0524  1.2607
  289MOL0     H38121   4.370   7.998   8.248  1.7571  0.2501  1.8438
  289MOL0     H38122   4.513   7.966   7.969  0.4192 -1.4279  0.8533
  289MOL0     H38123   4.420   8.111   8.006  1.1454  0.5144 -0.3159
  289MOL0     H38124   4.303   7.819   7.997 -1.1599 -0.9716 -1.7086
  289MOL0     H38125   4.311   7.907   7.848  1.4586 -2.7994  0.0946
  289MOL0     H38126   4.173   8.067   8.075  1.9258  0.0590  0.4317
  289MOL0     H38127   4.142   8.055   7.898  1.3079  1.6888  0.2887
  289MOL0     H38128   4.049   7.827   7.926 -2.1923 -0.4610 -0.1339
  289MOL0     H38129   3.952   7.953   8.000  1.7447  2.8010  4.4427
  289MOL0     H38130   5.034   8.078   8.421  0.5363  0.3806 -1.4706
  289MOL0     H38131   5.244   7.996   8.476  0.6873  0.3466  0.7480
  289MOL0     H38132   5.719   7.903   8.504 -0.4929 -0.3575  0.3376
  289MOL0     H38133   5.881   7.783   8.633  1.6003  0.1360 -1.7169
  289MOL0     H38134   7.763   7.545   7.951 -1.0809 -0.1430  0.7692
  289MOL0     H38135   7.982   7.622   8.034  0.5871  2.3042  0.8504
  289MOL0     H38136   8.176   7.986   8.369 -1.0347 -0.5317 -1.8414
  289MOL0     H38137   8.380   8.081   8.429 -2.2798  0.9192 -0.9365
  289MOL0     H38138   8.644   7.981   8.490  3.3265 -0.9550  0.7111
  289MOL0     H38139   8.584   8.146   8.495 -0.5704 -2.6810  0.9655
  289MOL0     H38140   8.802   8.221   8.399  1.2186 -0.1243  0.9272
  289MOL0     H38141   8.802   8.161   8.569 -0.4658  0.3423 -0.2850
  289MOL0     H38142   8.914   8.018   8.333 -0.6127  1.2138  0.2514
  289MOL0     H38143   8.873   7.935   8.485 -2.3821  0.0080 -0.9639
  289MOL0     H38144   9.123   8.027   8.456 -0.0587  1.2678 -0.3219
  289MOL0     H38145   9.058   8.185   8.496  0.9754  0.1247  0.6190
  289MOL0     H38146   9.037   7.996   8.878  1.0434  2.5754  1.4617
  289MOL0     H38147   8.578   7.900   8.095  0.5690  0.4859  0.1264
  289MOL0     H38148   8.354   7.820   8.016  0.5144 -0.0197 -0.1666
  290MOL0     O38149  10.495   0.206   0.319 -0.1604  0.3269 -0.9356
  290MOL0     C38150  10.465   0.161   0.209  0.0625 -0.5338 -0.0279
  290MOL0     O38151  10.336   0.143   0.164  0.1331  0.4251  0.3644
  290MOL0     C38152  10.233   0.162   0.250  1.0245 -0.2649  0.2357
  290MOL0     C38153  10.219   0.076   0.352  0.6341 -0.4871 -0.0900
  290MOL0     C38154  10.091   0.066   0.417  0.2863 -0.5214  0.6069
  290MOL0     C38155   9.981   0.157   0.389  0.0755  0.5390  0.7730
  290MOL0     O38156   9.858   0.152   0.458 -0.5087  1.0903  0.5776
  290MOL0     C38157   9.736   0.165   0.389  1.7033  0.0367  0.0299
  290MOL0     C38158   9.613   0.102   0.462  0.4960 -0.2770 -0.7296
  290MOL0     C38159   9.589   0.157   0.600 -0.0183  0.5180 -0.8150
  290MOL0     C38160   9.460   0.108   0.660  0.5200  0.1803  0.2011
  290MOL0     C38161   9.401   0.187   0.779  0.6000  0.0379 -0.1020
  290MOL0     C38162   9.506   0.199   0.885  0.2732  0.5123 -0.0043
  290MOL0     C38163   9.466   0.266   1.017 -0.0297  0.4290  0.4291
  290MOL0     C38164   9.593   0.289   1.110  0.2942 -0.0882  0.1619
  290MOL0     N38165   9.613   0.170   1.190  0.1058 -0.0605 -0.6398
  290MOL0     C38166   9.577   0.149   1.319  0.6901 -0.2758 -0.4300
  290MOL0     C38167   9.634   0.032   1.356  0.5097 -0.5983  0.5286
  290MOL0     C38168   9.638  -0.017   1.498 -0.0045 -0.0108  1.1941
  290MOL0     C38169   9.665   0.096   1.604 -0.9861 -0.4612  0.4295
  290MOL0     C38170   9.817   0.117   1.623  0.9968 -0.1641 -0.2464
  290MOL0     C38171   9.873   0.008   1.725 -0.7095 -0.3515 -0.4371
  290MOL0     O38172  10.013   0.052   1.757 -0.7242  0.7766  0.0828
  290MOL0     C38173  10.114  -0.024   1.701 -0.1908 -0.8114 -0.0974
  290MOL0     C38174  10.110  -0.168   1.698  0.0161  0.0186 -0.1745
  290MOL0     C38175  10.224  -0.236   1.644 -0.3984  0.0569 -0.6822
  290MOL0     C38176  10.327  -0.169   1.580  0.0544 -0.6178  0.3070
  290MOL0     C38177  10.425  -0.246   1.501  1.0843  0.7427 -0.0873
  290MOL0     O38178  10.548  -0.188   1.484 -0.6285 -0.1014 -0.1468
  290MOL0     C38179  10.658  -0.264   1.448 -0.5883 -0.2248  0.5941
  290MOL0     C38180  10.765  -0.199   1.396  0.3234 -0.0111  0.3747
  290MOL0     C38181  10.884  -0.265   1.354  0.1788 -0.5168  0.1988
  290MOL0     C38182  10.894  -0.401   1.369  0.5670 -0.3503  0.2768
  290MOL0     O38183  11.003  -0.481   1.331  0.0890  0.7081 -0.1158
  290MOL0     C38184  11.134  -0.422   1.326  1.0829  0.3298  0.3285
  290MOL0     C38185  11.240  -0.526   1.364 -0.2983 -0.2311  0.5901
  290MOL0     C38186  11.222  -0.586   1.515  0.7045 -0.0859  0.2826
  290MOL0     C38187  11.308  -0.700   1.546  0.3521  0.7737  0.5790
  290MOL0     C38188  11.290  -0.774   1.682  0.2567  0.1415 -0.3384
  290MOL0     C38189  11.429  -0.818   1.727  0.2553 -0.2450  0.1742
  290MOL0     C38190  11.420  -0.909   1.848 -0.7973 -0.8054 -0.4644
  290MOL0     C38191  11.347  -0.854   1.977  0.3972 -0.1715 -0.3350
  290MOL0    Cl38192  11.443  -0.735   2.070 -0.3291 -0.3904  0.0512
  290MOL0     C38193  10.787  -0.475   1.409 -0.2376  0.0006 -1.3076
  290MOL0     C38194  10.668  -0.407   1.445  0.5887 -0.5439  0.3150
  290MOL0     O38195  10.388  -0.352   1.446  0.0756  0.1833 -0.8887
  290MOL0     C38196  10.325  -0.027   1.593  0.0294 -0.4861  0.3275
  290MOL0     C38197  10.212   0.044   1.637 -0.3982 -0.2606 -0.4127
  290MOL0     N38198   9.683  -0.025   1.233  0.1120  0.0291 -0.3630
  290MOL0     N38199   9.662   0.056   1.134  0.0080 -0.1464  0.6510
  290MOL0     C38200  10.004   0.255   0.284  0.0935 -1.5865  0.5855
  290MOL0     C38201  10.130   0.254   0.224 -0.2751 -0.3789 -0.2529
  290MOL0     C38202  10.571   0.135   0.110 -0.7226 -0.1482  0.5884
  290MOL0     C38203  10.706   0.162   0.134 -0.1873 -0.4582 -0.3024
  290MOL0     C38204  10.811   0.133   0.047 -0.2958  0.5670 -0.0929
  290MOL0     C38205  10.780   0.077  -0.082 -0.8059 -0.2153  0.8538
  290MOL0     O38206  10.875   0.071  -0.177  0.4669  0.4783  0.9800
  290MOL0     C38207  11.010   0.025  -0.154 -0.7669 -0.6014 -0.0001
  290MOL0     C38208  11.063  -0.062  -0.267 -0.2878  0.1343 -0.3688
  290MOL0     C38209  11.050   0.017  -0.397  0.1996 -0.0696  0.0699
  290MOL0     C38210  11.112  -0.064  -0.518  0.7379 -0.1095  0.6595
  290MOL0     C38211  11.253  -0.068  -0.489  0.0472 -0.2715 -0.0406
  290MOL0     C38212  11.371  -0.073  -0.453 -0.1106  0.0285  0.4275
  290MOL0     C38213  10.645   0.065  -0.114  0.6690  0.3264 -0.3575
  290MOL0     C38214  10.545   0.089  -0.022 -0.6122 -0.1490 -0.7787
  290MOL0     H38215  10.289  -0.001   0.382 -0.9097 -1.9020  0.0537
  290MOL0     H38216  10.068  -0.013   0.488  0.9946  0.7508  2.3119
  290MOL0     H38217   9.739   0.123   0.288  1.2416  2.4462 -1.0678
  290MOL0     H38218   9.707   0.269   0.373 -2.3459 -0.9841 -0.3073
  290MOL0     H38219   9.631  -0.005   0.457 -0.1061 -0.7341  3.3901
  290MOL0     H38220   9.525   0.121   0.400 -0.4354  0.5679  0.8021
  290MOL0     H38221   9.574   0.266   0.605  1.7852  0.7604  0.6066
  290MOL0     H38222   9.677   0.134   0.661 -0.9558  2.0090  1.2173
  290MOL0     H38223   9.380   0.107   0.586  0.7900 -1.0814 -0.0933
  290MOL0     H38224   9.478   0.005   0.692  2.8646 -0.4781 -2.7590
  290MOL0     H38225   9.322   0.130   0.828  1.8673 -1.7186 -0.0211
  290MOL0     H38226   9.381   0.289   0.742 -0.6294  0.1038  0.6815
  290MOL0     H38227   9.587   0.258   0.842  2.0054 -1.6642  0.1162
  290MOL0     H38228   9.547   0.098   0.897  0.8161  0.6130 -0.9846
  290MOL0     H38229   9.427   0.365   0.990  0.2868  0.2977 -0.5431
  290MOL0     H38230   9.390   0.210   1.072  0.7569  1.3005  2.5026
  290MOL0     H38231   9.587   0.366   1.187  2.0957 -0.2117  0.4513
  290MOL0     H38232   9.677   0.307   1.042  0.0856  0.3923  0.0256
  290MOL0     H38233   9.529   0.223   1.383  2.3056 -0.0727  0.6087
  290MOL0     H38234   9.707  -0.100   1.517 -0.5404 -0.2721  2.0543
  290MOL0     H38235   9.535  -0.053   1.503 -0.3545  0.4722 -1.0509
  290MOL0     H38236   9.638   0.058   1.702  4.1433 -1.2975  1.8137
  290MOL0     H38237   9.607   0.186   1.580  0.6837  0.6393  0.3127
  290MOL0     H38238   9.862   0.118   1.523  1.6674 -1.1141  0.0341
  290MOL0     H38239   9.816   0.217   1.667  0.1749 -0.3189  0.1109
  290MOL0     H38240   9.882  -0.087   1.670  4.4532  0.8149 -2.2321
  290MOL0     H38241   9.819  -0.006   1.819  1.3085 -2.3629  0.5155
  290MOL0     H38242  10.032  -0.221   1.753  0.6742 -0.7791  0.0208
  290MOL0     H38243  10.232  -0.345   1.650  3.6133  0.1523  5.7620
  290MOL0     H38244  10.760  -0.091   1.406  0.4103 -0.0042  0.3426
  290MOL0     H38245  10.962  -0.209   1.304  0.7929 -0.6019  1.0246
  290MOL0     H38246  11.139  -0.338   1.396  2.9179  2.2634 -1.9994
  290MOL0     H38247  11.145  -0.385   1.224  2.7844 -1.9709 -0.3832
  290MOL0     H38248  11.341  -0.483   1.363 -0.7280  1.1705  3.9820
  290MOL0     H38249  11.233  -0.601   1.285  0.0283  1.7101 -1.3853
  290MOL0     H38250  11.118  -0.619   1.527  0.2791  1.1338  0.1037
  290MOL0     H38251  11.229  -0.503   1.585  2.6264  0.1287 -0.1038
  290MOL0     H38252  11.298  -0.778   1.469 -2.1794  0.1190  1.4609
  290MOL0     H38253  11.413  -0.669   1.549 -0.7500  5.1539  0.2381
  290MOL0     H38254  11.208  -0.846   1.673 -0.9575  0.6743  4.1894
  290MOL0     H38255  11.255  -0.708   1.762 -2.2526  2.6413 -3.2466
  290MOL0     H38256  11.483  -0.726   1.752  0.6032 -1.1858  3.3082
  290MOL0     H38257  11.486  -0.869   1.649 -2.0587 -0.5595 -1.4301
  290MOL0     H38258  11.377  -1.005   1.817 -0.7644 -1.8088  2.2413
  290MOL0     H38259  11.524  -0.923   1.881 -1.0310  1.0897  1.2847
  290MOL0     H38260  11.328  -0.939   2.042 -1.5939  1.6273  1.5869
  290MOL0     H38261  11.249  -0.813   1.951  1.0383  2.3585  0.9605
  290MOL0     H38262  10.802  -0.582   1.423  0.6757  0.3879  1.0479
  290MOL0     H38263  10.585  -0.470   1.475 -1.1775  1.8019  0.6593
  290MOL0     H38264  10.383   0.033   1.525  1.6183 -1.1459  1.0519
  290MOL0     H38265  10.202   0.149   1.614  0.2148 -0.4056 -1.3939
  290MOL0     H38266   9.924   0.327   0.273  3.0439  2.4721  2.9314
  290MOL0     H38267  10.147   0.337   0.155 -1.6783 -0.5157 -0.7941
  290MOL0     H38268  10.740   0.212   0.224  0.6590 -0.9854 -0.3157
  290MOL0     H38269  10.910   0.160   0.082 -1.0888  2.0632  1.0765
  290MOL0     H38270  11.013  -0.031  -0.060 -0.1612  0.0950  0.4007
  290MOL0     H38271  11.080   0.109  -0.149 -2.2428  0.8310 -1.7492
  290MOL0     H38272  11.170  -0.084  -0.262  0.0256  0.4323 -3.5894
  290MOL0     H38273  11.004  -0.154  -0.273 -1.6554  0.9942 -0.3891
  290MOL0     H38274  11.092   0.118  -0.396 -1.4610  0.6555 -0.2974
  290MOL0     H38275  10.943   0.027  -0.414 -0.2407 -2.0705  1.2601
  290MOL0     H38276  11.072  -0.166  -0.519 -1.8984  0.7986  2.2235
  290MOL0     H38277  11.099  -0.007  -0.610  2.7422 -0.3857  0.1630
  290MOL0     H38278  11.477  -0.059  -0.446 -0.2070  2.1857 -1.2477
  290MOL0     H38279  10.623   0.032  -0.215 -1.0368  0.6305 -0.1273
  290MOL0     H38280  10.440   0.091  -0.050 -0.6326  0.8269 -0.6451
  291MOL0     O38281   9.195   1.200   5.472 -0.5933 -0.2229 -0.0125
  291MOL0     C38282   9.199   1.113   5.388 -0.7408 -0.4572  1.4260
  291MOL0     O38283   9.092   1.052   5.330 -0.0449 -0.3372  1.0435
  291MOL0     C38284   8.965   1.075   5.378 -0.2466 -0.2323 -0.6080
  291MOL0     C38285   8.935   1.067   5.516  0.6255 -1.0479 -0.0649
  291MOL0     C38286   8.801   1.093   5.561  0.5831  1.0635  0.0869
  291MOL0     C38287   8.693   1.117   5.464 -0.7643 -0.4073 -0.2719
  291MOL0     O38288   8.574   1.137   5.525  0.7262  0.3764 -0.4188
  291MOL0     C38289   8.460   1.113   5.436  0.3616  0.2111  0.5625
  291MOL0     C38290   8.328   1.168   5.497 -0.3347 -0.5595  0.8676
  291MOL0     C38291   8.259   1.047   5.558  0.3833 -0.3100  0.6186
  291MOL0     C38292   8.135   1.107   5.633 -0.1385  0.0601  0.8348
  291MOL0     C38293   8.092   0.997   5.726  0.7535  0.4845 -0.3365
  291MOL0     C38294   7.954   1.031   5.779  0.3517  0.9310  0.0548
  291MOL0     C38295   7.890   0.925   5.868 -0.1909  0.3393 -0.1611
  291MOL0     C38296   7.920   0.945   6.017  0.4025  0.0128 -1.2291
  291MOL0     N38297   7.850   0.856   6.110 -0.0834  0.6319  0.5306
  291MOL0     C38298   7.774   0.908   6.212  0.0290  0.4464  0.1784
  291MOL0     C38299   7.731   0.799   6.284 -0.1208  0.2311  0.7463
  291MOL0     C38300   7.644   0.789   6.413 -1.2283  0.0181 -0.3022
  291MOL0     C38301   7.500   0.758   6.385  0.0337  1.2059  0.2062
  291MOL0     C38302   7.436   0.881   6.332  0.5383 -0.0833 -0.0990
  291MOL0     C38303   7.289   0.872   6.299 -0.1895  0.5163 -0.1637
  291MOL0     O38304   7.216   0.893   6.425 -0.3441 -0.3197  0.2546
  291MOL0     C38305   7.084   0.869   6.438 -0.9784 -0.0636 -0.4387
  291MOL0     C38306   7.026   0.883   6.562  1.0939  1.1469  0.3978
  291MOL0     C38307   6.885   0.866   6.591  0.7183 -0.3077  0.1515
  291MOL0     C38308   6.807   0.827   6.478 -0.4306  0.8621 -0.6641
  291MOL0     C38309   6.662   0.797   6.503 -0.1632 -0.7544 -0.3982
  291MOL0     O38310   6.587   0.787   6.382 -0.9869  0.3295 -0.6223
  291MOL0     C38311   6.449   0.772   6.391  0.4182 -0.7745  0.6094
  291MOL0     C38312   6.366   0.870   6.446  0.2108  0.1753 -0.3364
  291MOL0     C38313   6.227   0.861   6.428 -0.2320  0.7470  0.4673
  291MOL0     C38314   6.176   0.762   6.345 -0.3977  0.3012  0.2494
  291MOL0     O38315   6.049   0.740   6.302  0.3623  0.4631  0.3122
  291MOL0     C38316   5.940   0.816   6.362  0.2925 -0.1187 -0.1860
  291MOL0     C38317   5.812   0.736   6.320 -0.5256  0.3378  0.0155
  291MOL0     C38318   5.681   0.804   6.352  0.1813 -0.3568  0.0901
  291MOL0     C38319   5.649   0.825   6.503 -0.5994  0.1823 -0.9027
  291MOL0     C38320   5.501   0.856   6.526  0.4297  0.3749  1.0214
  291MOL0     C38321   5.469   0.892   6.664 -0.6593  0.1833 -0.3031
  291MOL0     C38322   5.325   0.941   6.667  0.5528  1.4122  0.0337
  291MOL0     C38323   5.275   0.923   6.808  0.3564 -0.4650 -1.0139
  291MOL0    Cl38324   5.361   1.045   6.914 -0.1572 -0.1344  0.0042
  291MOL0     C38325   6.264   0.668   6.286  0.6822  0.3277 -0.1394
  291MOL0     C38326   6.401   0.676   6.311 -0.0920 -0.0892 -0.5389
  291MOL0     O38327   6.614   0.818   6.618  0.2289 -0.9295 -0.0518
  291MOL0     C38328   6.871   0.783   6.363 -0.8204  0.6474  0.4122
  291MOL0     C38329   7.009   0.813   6.336  0.2286  0.1078  0.0222
  291MOL0     N38330   7.752   0.688   6.204  0.5692 -0.3300  0.2223
  291MOL0     N38331   7.837   0.723   6.110  1.1904  0.8248  0.1480
  291MOL0     C38332   8.724   1.112   5.328 -0.1034  0.4158 -0.1085
  291MOL0     C38333   8.854   1.089   5.286  0.3107 -0.3786 -0.1598
  291MOL0     C38334   9.339   1.096   5.337  0.2401  0.3066 -0.3435
  291MOL0     C38335   9.447   1.073   5.427  0.0394 -0.9490  0.5327
  291MOL0     C38336   9.583   1.072   5.386 -0.0512  0.0444 -0.0043
  291MOL0     C38337   9.606   1.073   5.248  0.6442  0.2028 -0.9202
  291MOL0     O38338   9.723   1.056   5.184 -0.2803 -0.5514 -0.0851
  291MOL0     C38339   9.843   1.075   5.254  0.8113  0.0379 -1.0017
  291MOL0     C38340   9.952   1.068   5.155 -0.0690 -0.5141  0.3317
  291MOL0     C38341  10.091   1.072   5.212  0.2429  0.8675  0.3863
  291MOL0     C38342  10.175   1.023   5.093 -0.1398 -0.2539  0.2172
  291MOL0     C38343  10.160   0.875   5.084  0.5371  0.0151 -0.3193
  291MOL0     C38344  10.123   0.760   5.052  0.3655 -0.7573  0.0690
  291MOL0     C38345   9.498   1.065   5.164 -0.1178  0.6668  1.1929
  291MOL0     C38346   9.369   1.085   5.203 -0.1767  0.8402 -0.1241
  291MOL0     H38347   9.011   1.051   5.592  0.9854  0.3744 -0.1028
  291MOL0     H38348   8.791   1.098   5.669  0.0711 -2.0851  0.2601
  291MOL0     H38349   8.441   1.010   5.403 -1.1778  0.6497  0.0016
  291MOL0     H38350   8.478   1.176   5.348 -1.3395  1.8604  1.3441
  291MOL0     H38351   8.267   1.217   5.421 -1.8525 -1.7876  1.2335
  291MOL0     H38352   8.354   1.238   5.577  4.4196  0.0543 -0.9117
  291MOL0     H38353   8.320   0.991   5.629  2.0548 -0.8693 -1.1651
  291MOL0     H38354   8.230   0.971   5.485 -0.0246 -0.7391  1.2164
  291MOL0     H38355   8.161   1.195   5.693 -1.4501 -0.4115  2.1254
  291MOL0     H38356   8.058   1.131   5.558  0.5641  0.6762  0.2842
  291MOL0     H38357   8.162   0.988   5.810  1.1534  0.0056 -0.7155
  291MOL0     H38358   8.091   0.903   5.671  2.3552 -1.7173  3.0601
  291MOL0     H38359   7.877   1.074   5.714  1.6489  0.9661 -1.5294
  291MOL0     H38360   7.979   1.116   5.843  0.6748 -0.5667  1.9888
  291MOL0     H38361   7.781   0.937   5.869 -0.1876  0.3869 -0.2673
  291MOL0     H38362   7.910   0.830   5.818 -2.7399 -0.7614  0.7765
  291MOL0     H38363   7.907   1.052   6.036  1.3778 -0.1830  0.7458
  291MOL0     H38364   8.023   0.921   6.043 -0.1691 -1.5140 -0.2547
  291MOL0     H38365   7.754   1.011   6.237  0.2475  0.9472 -1.5461
  291MOL0     H38366   7.649   0.885   6.464  0.8046  0.3625 -1.0571
  291MOL0     H38367   7.679   0.715   6.486  0.5363  0.5193 -0.5908
  291MOL0     H38368   7.446   0.734   6.477 -0.9320 -1.5543 -0.9808
  291MOL0     H38369   7.487   0.671   6.320 -0.7330 -0.9344  2.9912
  291MOL0     H38370   7.457   0.976   6.383 -0.6736  1.4949 -2.3744
  291MOL0     H38371   7.484   0.894   6.234 -2.7115 -0.6074 -1.8765
  291MOL0     H38372   7.261   0.776   6.255  1.8791  0.0101 -0.5105
  291MOL0     H38373   7.265   0.949   6.225  0.8893  0.5047 -0.5480
  291MOL0     H38374   7.088   0.914   6.646  1.3392 -0.8908  1.0277
  291MOL0     H38375   6.845   0.877   6.691  1.8115 -2.3585  0.8608
  291MOL0     H38376   6.426   0.943   6.498 -3.2744  3.4849 -0.5095
  291MOL0     H38377   6.158   0.938   6.461  0.7627  0.9407  2.2526
  291MOL0     H38378   5.949   0.913   6.313  0.5914 -0.7653 -1.4880
  291MOL0     H38379   5.944   0.828   6.470  0.5278 -2.2125  0.0807
  291MOL0     H38380   5.810   0.640   6.372 -2.0836  0.4277  0.1904
  291MOL0     H38381   5.818   0.715   6.213  0.6716 -0.0659  0.1508
  291MOL0     H38382   5.600   0.746   6.307 -1.6483  2.3467 -0.3285
  291MOL0     H38383   5.673   0.899   6.298 -2.2438 -0.6755 -0.2637
  291MOL0     H38384   5.671   0.727   6.546 -1.5951 -1.5097 -3.9491
  291MOL0     H38385   5.708   0.907   6.543 -2.9883  0.6059  2.1353
  291MOL0     H38386   5.446   0.769   6.490 -2.2696  0.9208  3.4541
  291MOL0     H38387   5.477   0.936   6.456  0.8767 -0.6562 -0.3706
  291MOL0     H38388   5.537   0.967   6.704  0.3932 -0.2251 -1.2687
  291MOL0     H38389   5.492   0.799   6.718  0.6711 -0.3996 -1.7949
  291MOL0     H38390   5.320   1.044   6.630 -2.7111  0.7287 -1.7375
  291MOL0     H38391   5.255   0.883   6.608 -0.4755  1.5336  1.1023
  291MOL0     H38392   5.303   0.821   6.836 -0.2639 -0.7755 -1.4930
  291MOL0     H38393   5.167   0.930   6.819  0.6066  1.2562  0.7655
  291MOL0     H38394   6.230   0.584   6.228  1.0248  0.0109  0.1137
  291MOL0     H38395   6.472   0.602   6.276  1.1641 -0.2535  2.0555
  291MOL0     H38396   6.820   0.727   6.285  0.2883  0.2280 -0.0367
  291MOL0     H38397   7.059   0.790   6.243 -1.5341  0.8324 -1.1666
  291MOL0     H38398   8.662   1.122   5.239  1.1438 -3.1116 -1.5505
  291MOL0     H38399   8.877   1.089   5.179  2.9386 -3.1031  0.2753
  291MOL0     H38400   9.425   1.057   5.532  0.8909 -3.3725  0.3785
  291MOL0     H38401   9.655   1.069   5.467 -1.4417  1.8044  1.3677
  291MOL0     H38402   9.844   0.982   5.311  0.3264 -1.7282 -3.7100
  291MOL0     H38403   9.830   1.164   5.316 -0.3717  0.6512 -2.0903
  291MOL0     H38404   9.927   0.966   5.122 -0.0375 -0.2942 -0.3939
  291MOL0     H38405   9.938   1.147   5.081  2.4079  0.0156  0.3297
  291MOL0     H38406  10.109   1.015   5.303  1.6204 -0.3514 -0.5936
  291MOL0     H38407  10.114   1.173   5.245 -1.5510  1.6425 -0.5884
  291MOL0     H38408  10.147   1.068   4.997  1.0404 -1.7848 -0.9020
  291MOL0     H38409  10.282   1.048   5.098 -0.2563  0.0676  1.1356
  291MOL0     H38410  10.095   0.660   5.025  1.9270 -0.6493 -2.3094
  291MOL0     H38411   9.514   1.040   5.060  0.8449  0.3796  1.4037
  291MOL0     H38412   9.296   1.085   5.122  0.9154  2.3156 -1.1670
  292MOL0     O38413   3.710   4.218   8.643 -0.4584  1.3418 -0.0113
  292MOL0     C38414   3.766   4.187   8.748  0.3716  0.2528  0.1013
  292MOL0     O38415   3.718   4.210   8.879  0.3164  0.2327  0.7443
  292MOL0     C38416   3.592   4.267   8.877 -0.1269  0.5939  0.7768
  292MOL0     C38417   3.578   4.402   8.909  0.4035 -0.6274 -0.0280
  292MOL0     C38418   3.447   4.448   8.909 -0.2921  0.0951  0.2662
  292MOL0     C38419   3.335   4.367   8.895 -0.3880 -0.7778 -0.6939
  292MOL0     O38420   3.225   4.440   8.891  0.5680 -0.0909  0.7848
  292MOL0     C38421   3.096   4.371   8.905 -0.4065 -0.5234  0.2161
  292MOL0     C38422   2.988   4.483   8.916 -0.1860 -0.4002  0.1406
  292MOL0     C38423   2.854   4.402   8.922  0.5952  0.6222  0.7293
  292MOL0     C38424   2.725   4.486   8.893  0.1450 -0.4880  0.3819
  292MOL0     C38425   2.731   4.610   8.988  0.1849 -0.0372  0.5913
  292MOL0     C38426   2.712   4.566   9.128  1.3499  0.2624 -0.5755
  292MOL0     C38427   2.695   4.692   9.229 -0.2579 -0.6243  0.2491
  292MOL0     C38428   2.674   4.657   9.372 -0.6392  0.7326  0.2027
  292MOL0     N38429   2.781   4.584   9.436 -0.7630 -0.8561  0.0993
  292MOL0     C38430   2.904   4.641   9.447 -0.4839 -0.5535 -0.7178
  292MOL0     C38431   2.983   4.545   9.499 -0.5890  0.3702  0.0494
  292MOL0     C38432   3.135   4.559   9.508  0.1008 -0.0407 -0.5095
  292MOL0     C38433   3.221   4.441   9.530  0.1373  0.7775 -0.0586
  292MOL0     C38434   3.236   4.349   9.412 -0.0253 -0.0123  0.1257
  292MOL0     C38435   3.287   4.398   9.276  0.4994 -0.1517  0.4114
  292MOL0     O38436   3.396   4.490   9.281  0.0803 -0.6483 -0.6119
  292MOL0     C38437   3.527   4.440   9.255  0.7655  0.3568 -0.5624
  292MOL0     C38438   3.621   4.540   9.219  0.4396 -0.3325  0.2921
  292MOL0     C38439   3.755   4.506   9.214 -1.0386  0.4577 -0.1585
  292MOL0     C38440   3.798   4.369   9.216 -0.3690  0.4250 -0.4820
  292MOL0     C38441   3.943   4.334   9.190 -0.2596  0.3655  0.6000
  292MOL0     O38442   4.027   4.439   9.183  0.2843  0.5403  0.7507
  292MOL0     C38443   4.160   4.436   9.159 -0.9173  1.2901 -0.7986
  292MOL0     C38444   4.212   4.346   9.070 -0.1802  0.8873  0.0337
  292MOL0     C38445   4.350   4.354   9.036 -1.2854 -0.0497  0.0882
  292MOL0     C38446   4.440   4.455   9.083  0.0411  0.7701  0.0249
  292MOL0     O38447   4.571   4.456   9.071 -0.1476  0.2395 -0.2060
  292MOL0     C38448   4.624   4.442   8.947  1.0922  0.0063  0.2055
  292MOL0     C38449   4.766   4.508   8.948  0.4293  1.1762  0.2403
  292MOL0     C38450   4.756   4.660   8.982 -0.1576  1.0726 -0.1746
  292MOL0     C38451   4.902   4.716   8.983  0.8067 -0.0465  0.1456
  292MOL0     C38452   4.913   4.863   9.041 -1.0189 -0.1175 -0.6390
  292MOL0     C38453   5.053   4.920   9.007  0.1307 -0.0884 -0.4741
  292MOL0     C38454   5.164   4.853   9.086 -0.3505 -0.8239  0.0128
  292MOL0     C38455   5.282   4.804   9.007 -0.9540  0.1718 -0.4250
  292MOL0    Cl38456   5.233   4.660   8.906  0.5428 -0.4224  0.0813
  292MOL0     C38457   4.381   4.545   9.175 -0.5274  0.0701  0.3891
  292MOL0     C38458   4.249   4.531   9.214 -0.3167 -0.5767  0.3697
  292MOL0     O38459   3.981   4.219   9.184 -0.5010  0.8648 -0.5861
  292MOL0     C38460   3.703   4.273   9.240  0.4787  0.9423  0.4948
  292MOL0     C38461   3.574   4.307   9.274 -0.7347  0.0825 -0.4732
  292MOL0     N38462   2.908   4.429   9.517  0.0147  1.0005 -0.6956
  292MOL0     N38463   2.785   4.463   9.485 -0.2394  0.3094 -0.4875
  292MOL0     C38464   3.355   4.227   8.891  0.2146 -0.3857 -0.4862
  292MOL0     C38465   3.482   4.181   8.874  1.1220 -0.6187  0.5326
  292MOL0     C38466   3.894   4.120   8.736 -0.4311  1.2222  0.8724
  292MOL0     C38467   3.982   4.106   8.852  0.8542 -0.5990 -0.2630
  292MOL0     C38468   4.113   4.052   8.843  0.4952  0.2207 -0.2100
  292MOL0     C38469   4.166   4.021   8.718  0.3167 -0.4171  0.4004
  292MOL0     O38470   4.294   3.979   8.725  0.2481  0.5443  0.0807
  292MOL0     C38471   4.359   3.937   8.604  0.2496 -0.0318 -0.0588
  292MOL0     C38472   4.513   3.927   8.638  0.2320  0.3301 -0.8380
  292MOL0     C38473   4.577   4.047   8.702  0.6526  0.2235 -0.6877
  292MOL0     C38474   4.581   4.171   8.611  0.1431  0.0101  0.1304
  292MOL0     C38475   4.449   4.243   8.609 -0.6941 -0.5744  0.5144
  292MOL0     C38476   4.330   4.277   8.586  0.5976 -0.2645  0.0918
  292MOL0     C38477   4.092   4.051   8.595 -0.3096 -0.4512  0.0542
  292MOL0     C38478   3.956   4.088   8.604 -0.1765  0.3385  0.0161
  292MOL0     H38479   3.669   4.456   8.932  0.5271  0.1225 -2.0587
  292MOL0     H38480   3.434   4.556   8.913  0.2880  0.2328 -0.9882
  292MOL0     H38481   3.099   4.317   9.000 -1.8676 -0.8579  0.1103
  292MOL0     H38482   3.075   4.301   8.823  1.4792 -0.9815  0.0794
  292MOL0     H38483   2.979   4.539   8.822  0.4540  1.1232  0.9393
  292MOL0     H38484   3.008   4.560   8.992 -1.0696  1.1291 -1.1023
  292MOL0     H38485   2.843   4.345   9.014  2.9243  1.3662  1.5565
  292MOL0     H38486   2.859   4.336   8.835  0.4091  3.6437 -1.7314
  292MOL0     H38487   2.735   4.527   8.793  2.0647 -0.2262  0.6521
  292MOL0     H38488   2.628   4.437   8.910  0.3703 -0.5507  1.5893
  292MOL0     H38489   2.646   4.671   8.956  1.5446 -0.1236 -3.9480
  292MOL0     H38490   2.822   4.672   8.980 -0.3374  0.5851 -1.0479
  292MOL0     H38491   2.788   4.494   9.158  0.4283 -0.5779 -0.2112
  292MOL0     H38492   2.613   4.521   9.137  1.0955  1.1932  2.0966
  292MOL0     H38493   2.782   4.755   9.211 -1.0378 -0.6525 -5.3399
  292MOL0     H38494   2.605   4.749   9.207  0.2799  0.1331 -0.0104
  292MOL0     H38495   2.587   4.591   9.379  1.2396 -1.9093  0.2430
  292MOL0     H38496   2.660   4.748   9.430 -1.6431 -0.0174  1.1849
  292MOL0     H38497   2.938   4.739   9.416 -2.5911  0.8136  0.9704
  292MOL0     H38498   3.147   4.633   9.587 -4.4625  0.2521  0.2191
  292MOL0     H38499   3.171   4.594   9.410 -1.3363  2.4681 -0.2415
  292MOL0     H38500   3.194   4.372   9.610  1.6835  0.5296  0.2704
  292MOL0     H38501   3.315   4.492   9.549  0.4162  0.2601 -0.0262
  292MOL0     H38502   3.311   4.276   9.447 -1.1525 -1.1410  0.2527
  292MOL0     H38503   3.137   4.304   9.402 -0.3479  1.0306 -1.8527
  292MOL0     H38504   3.207   4.454   9.227 -1.1898 -0.3886  2.7188
  292MOL0     H38505   3.308   4.314   9.209 -3.7245 -0.3614 -0.9336
  292MOL0     H38506   3.591   4.643   9.229  3.1560  0.4837  1.1325
  292MOL0     H38507   3.829   4.583   9.195  2.7807 -3.0928 -1.0550
  292MOL0     H38508   4.140   4.283   9.019 -1.9385  2.4205  0.5298
  292MOL0     H38509   4.388   4.279   8.968 -2.8055 -1.9177  1.1898
  292MOL0     H38510   4.566   4.488   8.867  1.3785  0.7448  0.4082
  292MOL0     H38511   4.627   4.336   8.922  1.4839  0.4290 -1.7115
  292MOL0     H38512   4.811   4.491   8.850 -0.8743  2.2514 -0.5972
  292MOL0     H38513   4.834   4.465   9.022 -0.1666  0.8821  0.6247
  292MOL0     H38514   4.720   4.669   9.085  0.2562 -2.1804  0.3610
  292MOL0     H38515   4.689   4.713   8.914 -1.0187 -0.6269 -0.7076
  292MOL0     H38516   4.974   4.653   9.036  1.2436  1.4587  1.3982
  292MOL0     H38517   4.929   4.722   8.877  2.0713  0.4197  0.4685
  292MOL0     H38518   4.909   4.862   9.150  1.6551  1.7014 -0.4022
  292MOL0     H38519   4.840   4.927   8.990 -0.2691  0.9794 -0.3809
  292MOL0     H38520   5.056   5.027   9.026 -0.3778 -0.4445  1.9766
  292MOL0     H38521   5.053   4.897   8.900 -2.4094  0.2501 -0.6124
  292MOL0     H38522   5.205   4.925   9.157 -1.9293 -0.9402  1.0965
  292MOL0     H38523   5.128   4.770   9.146  1.7714 -0.8479  1.3242
  292MOL0     H38524   5.360   4.765   9.072 -0.2471 -2.4947 -2.6712
  292MOL0     H38525   5.328   4.883   8.947  3.7739 -2.5411 -0.8643
  292MOL0     H38526   4.449   4.621   9.212  0.8379 -0.9391  0.0142
  292MOL0     H38527   4.192   4.597   9.279  1.0879  1.2997 -0.2050
  292MOL0     H38528   3.735   4.169   9.248  1.1482  0.9881 -1.2980
  292MOL0     H38529   3.509   4.234   9.323 -0.7141 -0.1015 -0.7183
  292MOL0     H38530   3.276   4.153   8.886  0.2436 -0.5255  0.8263
  292MOL0     H38531   3.473   4.078   8.841  0.1135 -0.6724  0.9139
  292MOL0     H38532   3.929   4.110   8.947 -1.0364 -3.0941 -1.1055
  292MOL0     H38533   4.157   4.022   8.937 -0.9932 -0.8046  0.1899
  292MOL0     H38534   4.341   4.007   8.522  1.5996  0.3460 -0.0629
  292MOL0     H38535   4.338   3.838   8.564 -3.0727  0.4533  0.2314
  292MOL0     H38536   4.516   3.841   8.706 -1.4855 -0.4145 -1.6240
  292MOL0     H38537   4.566   3.913   8.544 -0.9356  1.1456 -1.6389
  292MOL0     H38538   4.683   4.024   8.714  0.4071  0.1709  1.9852
  292MOL0     H38539   4.539   4.072   8.801  1.0826  0.2643 -0.5317
  292MOL0     H38540   4.655   4.236   8.657  0.2943  1.1618 -1.6224
  292MOL0     H38541   4.619   4.151   8.510  1.2133 -3.2564  1.0425
  292MOL0     H38542   4.227   4.294   8.562  0.2590  0.3037  1.8463
  292MOL0     H38543   4.126   4.036   8.493  3.3753  2.6031  0.6221
  292MOL0     H38544   3.895   4.096   8.515  3.2442  0.3988 -2.5384
  293MOL0     O38545   2.901   7.404   1.509  0.0805 -0.0190 -0.4584
  293MOL0     C38546   2.947   7.290   1.513 -0.3700 -0.3584 -0.3101
  293MOL0     O38547   2.906   7.183   1.425 -0.3347  0.4982  0.6467
  293MOL0     C38548   2.811   7.199   1.331 -0.6379  0.2894  0.0277
  293MOL0     C38549   2.681   7.247   1.354 -0.7012  0.2997  0.3550
  293MOL0     C38550   2.591   7.269   1.242  0.6197  0.0308  0.2930
  293MOL0     C38551   2.634   7.237   1.114  0.0847  0.4442 -0.1185
  293MOL0     O38552   2.577   7.254   0.996 -0.4681  0.3561  0.4989
  293MOL0     C38553   2.442   7.280   0.979  0.5680  0.0372  0.0610
  293MOL0     C38554   2.405   7.300   0.832 -0.6028 -0.1803 -0.0023
  293MOL0     C38555   2.256   7.311   0.794  0.2905 -0.8252  0.5506
  293MOL0     C38556   2.182   7.183   0.819 -1.1148  0.5044  0.5235
  293MOL0     C38557   2.037   7.174   0.782  0.0777 -0.1377  0.2557
  293MOL0     C38558   1.979   7.028   0.822 -0.8664 -0.8406 -0.1131
  293MOL0     C38559   1.831   7.035   0.803 -0.0332 -0.5965 -0.4320
  293MOL0     C38560   1.746   6.913   0.847 -0.3322  0.3849 -0.0996
  293MOL0     N38561   1.754   6.802   0.754 -0.6671  0.3382  0.2040
  293MOL0     C38562   1.662   6.770   0.651  0.1177 -0.0760 -0.7362
  293MOL0     C38563   1.706   6.646   0.624  0.0672  1.1801  0.5152
  293MOL0     C38564   1.664   6.558   0.502 -0.0289 -0.1761  0.1021
  293MOL0     C38565   1.537   6.606   0.433 -0.2268 -0.9787 -0.4770
  293MOL0     C38566   1.467   6.512   0.337  0.2830 -0.4049  0.3636
  293MOL0     C38567   1.317   6.529   0.336  0.6212  0.2799  0.8590
  293MOL0     O38568   1.274   6.439   0.235 -0.8585  0.5106 -0.4345
  293MOL0     C38569   1.143   6.422   0.211  0.0514  0.8889 -0.3871
  293MOL0     C38570   1.108   6.319   0.126 -0.4019 -0.7709  1.8041
  293MOL0     C38571   0.974   6.311   0.084 -0.3232  0.3089 -0.6264
  293MOL0     C38572   0.876   6.378   0.151  0.1233  0.4747 -0.0956
  293MOL0     C38573   0.731   6.341   0.130  0.1680 -0.4078  0.7924
  293MOL0     O38574   0.642   6.427   0.156  0.0737 -0.3931  0.5212
  293MOL0     C38575   0.509   6.390   0.152 -0.2255  0.1366 -0.8758
  293MOL0     C38576   0.432   6.409   0.263  0.7039 -0.8729 -0.8260
  293MOL0     C38577   0.300   6.383   0.272  1.0022  0.1384  0.4529
  293MOL0     C38578   0.231   6.316   0.170 -0.1142  0.5964 -0.8345
  293MOL0     O38579   0.098   6.288   0.193  0.2068  0.5356 -0.9480
  293MOL0     C38580   0.012   6.249   0.085 -0.0011 -0.1595  0.4469
  293MOL0     C38581  -0.120   6.242   0.154  0.1605  0.1983 -0.2063
  293MOL0     C38582  -0.129   6.127   0.253  0.0874  0.7731  0.2755
  293MOL0     C38583  -0.273   6.105   0.304 -0.1926  0.6434  0.1622
  293MOL0     C38584  -0.284   5.957   0.363 -0.5669 -0.6562  0.0239
  293MOL0     C38585  -0.391   5.944   0.475  0.6328 -0.0569 -0.1711
  293MOL0     C38586  -0.536   5.975   0.426  0.1799 -0.4753 -0.2531
  293MOL0     C38587  -0.627   5.998   0.542  0.6438 -0.5497 -0.1682
  293MOL0    Cl38588  -0.778   6.053   0.474  0.0020 -0.3256  0.0868
  293MOL0     C38589   0.301   6.299   0.047 -0.5252 -0.0088  0.5933
  293MOL0     C38590   0.442   6.327   0.040 -0.2809 -0.1750 -0.5644
  293MOL0     O38591   0.708   6.225   0.103 -0.2802 -0.4975 -0.0741
  293MOL0     C38592   0.910   6.478   0.245 -0.3993 -0.3034  0.2503
  293MOL0     C38593   1.042   6.494   0.278 -0.4773 -0.0091 -0.0842
  293MOL0     N38594   1.816   6.603   0.701 -0.7257 -0.3786  0.4448
  293MOL0     N38595   1.851   6.706   0.768 -0.9676  0.8537 -0.0317
  293MOL0     C38596   2.760   7.186   1.098 -1.0628 -0.2040 -0.0136
  293MOL0     C38597   2.847   7.163   1.205 -0.4475  0.3735  0.5781
  293MOL0     C38598   3.067   7.254   1.597 -0.3212  0.2224  0.7519
  293MOL0     C38599   3.111   7.345   1.693 -0.2547 -0.9247  0.4349
  293MOL0     C38600   3.227   7.322   1.765 -0.6708 -0.4260 -0.4596
  293MOL0     C38601   3.294   7.199   1.758  0.2107  0.1876 -0.4289
  293MOL0     O38602   3.391   7.172   1.851 -0.1045  1.2406  0.0709
  293MOL0     C38603   3.518   7.119   1.802  0.2983  0.8465 -0.6852
  293MOL0     C38604   3.602   7.117   1.930 -0.3099  0.0604 -0.5105
  293MOL0     C38605   3.553   7.004   2.024  1.3636 -0.3092 -0.7556
  293MOL0     C38606   3.644   6.881   2.038  1.3025  0.4874  0.5658
  293MOL0     C38607   3.658   6.810   1.916  0.2917 -0.2179  0.6604
  293MOL0     C38608   3.673   6.756   1.810  0.5839  0.7348 -0.2144
  293MOL0     C38609   3.248   7.111   1.670  0.0784 -0.4922 -0.0035
  293MOL0     C38610   3.143   7.137   1.583 -0.4790  0.3447 -0.5626
  293MOL0     H38611   2.662   7.275   1.458  0.4064  4.5849 -0.3876
  293MOL0     H38612   2.491   7.311   1.248  0.3419 -0.5475 -0.1120
  293MOL0     H38613   2.428   7.376   1.030  2.7150  1.3197 -1.5925
  293MOL0     H38614   2.377   7.209   1.031 -2.6888 -0.0510 -3.6800
  293MOL0     H38615   2.452   7.220   0.774 -0.8845 -1.5361  1.5496
  293MOL0     H38616   2.452   7.394   0.802  0.6030 -0.4736  0.9021
  293MOL0     H38617   2.252   7.337   0.687  0.0073 -1.7376  0.3333
  293MOL0     H38618   2.213   7.394   0.851 -3.0426 -1.9288 -0.1066
  293MOL0     H38619   2.233   7.102   0.765  0.7694  1.6022  0.5506
  293MOL0     H38620   2.187   7.154   0.924 -5.3417 -0.2210  0.6905
  293MOL0     H38621   2.027   7.184   0.673  0.8290  2.4567  0.3638
  293MOL0     H38622   1.974   7.249   0.831 -0.9837 -0.4200 -0.6243
  293MOL0     H38623   2.011   6.995   0.921 -0.8852 -0.7619 -0.0802
  293MOL0     H38624   2.022   6.959   0.750 -0.2361 -0.9121  0.3203
  293MOL0     H38625   1.786   7.120   0.855 -1.5186 -0.9174 -1.1356
  293MOL0     H38626   1.799   7.067   0.703 -2.0335  0.5724  0.5357
  293MOL0     H38627   1.640   6.939   0.857 -1.1737 -1.5082 -3.0380
  293MOL0     H38628   1.782   6.874   0.943 -1.4456  0.7875  0.5004
  293MOL0     H38629   1.576   6.830   0.623  1.0243  1.0945 -1.1458
  293MOL0     H38630   1.642   6.460   0.544 -0.1939 -1.6833 -3.1591
  293MOL0     H38631   1.749   6.560   0.433 -0.2208  0.8374 -0.1353
  293MOL0     H38632   1.557   6.701   0.382  1.7768  0.2905  2.4023
  293MOL0     H38633   1.466   6.625   0.514 -0.5782 -0.2714 -0.9357
  293MOL0     H38634   1.489   6.545   0.236 -1.4068  2.6226  0.8612
  293MOL0     H38635   1.503   6.411   0.358 -1.4461 -1.5197 -1.6361
  293MOL0     H38636   1.285   6.633   0.327  1.9458  0.6525  0.2859
  293MOL0     H38637   1.269   6.492   0.427 -0.9822 -2.0208 -0.7967
  293MOL0     H38638   1.183   6.258   0.077 -1.5661 -0.6643 -0.2260
  293MOL0     H38639   0.957   6.245  -0.000 -1.2395  2.1272 -1.9174
  293MOL0     H38640   0.485   6.445   0.350 -0.0819  3.3546 -1.8993
  293MOL0     H38641   0.254   6.413   0.366  2.1217 -2.4069  1.9054
  293MOL0     H38642   0.037   6.152   0.041  1.7412  0.6252 -0.3893
  293MOL0     H38643   0.009   6.326   0.007 -3.6703 -0.9985 -0.4425
  293MOL0     H38644  -0.193   6.242   0.073 -1.3157  1.3145  1.0583
  293MOL0     H38645  -0.136   6.323   0.226  0.5203 -2.0429  2.5600
  293MOL0     H38646  -0.057   6.135   0.334 -1.6944  0.1787  1.9870
  293MOL0     H38647  -0.114   6.032   0.201  1.1218  0.5812  0.9108
  293MOL0     H38648  -0.303   6.177   0.381  0.2615  0.1335  0.8278
  293MOL0     H38649  -0.329   6.111   0.210  2.2328 -0.2423 -1.4303
  293MOL0     H38650  -0.186   5.931   0.405 -0.6863 -1.0329  0.0720
  293MOL0     H38651  -0.309   5.891   0.279 -0.2816  0.9949 -1.4193
  293MOL0     H38652  -0.363   6.000   0.565 -1.7820  1.8190 -0.4866
  293MOL0     H38653  -0.389   5.840   0.510 -0.9025 -1.1946 -3.1061
  293MOL0     H38654  -0.536   6.067   0.367  0.2587 -0.8541 -0.8623
  293MOL0     H38655  -0.581   5.899   0.361 -4.0004 -0.5194  2.3195
  293MOL0     H38656  -0.586   6.082   0.599 -1.3008  0.3744 -0.0463
  293MOL0     H38657  -0.650   5.918   0.613  0.3562  0.5124  0.9727
  293MOL0     H38658   0.255   6.252  -0.040 -0.2066  2.5799 -1.1121
  293MOL0     H38659   0.498   6.291  -0.045 -1.7765 -2.7711 -0.5610
  293MOL0     H38660   0.830   6.535   0.290 -2.0431 -1.6249 -0.8769
  293MOL0     H38661   1.054   6.572   0.352 -0.1610  0.0741 -0.2225
  293MOL0     H38662   2.783   7.159   0.995 -0.5232  3.9280 -1.1741
  293MOL0     H38663   2.949   7.132   1.185 -1.5749 -2.0317 -2.0898
  293MOL0     H38664   3.053   7.435   1.711  1.5712  0.8753 -2.0102
  293MOL0     H38665   3.263   7.405   1.824 -2.4052  0.5155 -0.6621
  293MOL0     H38666   3.566   7.195   1.739  1.5465  3.4050  2.9957
  293MOL0     H38667   3.518   7.017   1.764 -2.2266  0.4924  0.0634
  293MOL0     H38668   3.701   7.101   1.886 -0.5363  2.6146 -2.1214
  293MOL0     H38669   3.588   7.213   1.980 -0.6751  0.5443 -1.5263
  293MOL0     H38670   3.456   6.963   1.995  0.6490 -0.5764  1.7472
  293MOL0     H38671   3.542   7.042   2.126 -2.9206 -0.9386 -0.8019
  293MOL0     H38672   3.744   6.907   2.076  0.6322  3.7124  0.4017
  293MOL0     H38673   3.598   6.820   2.116  0.7960  2.0655  1.5573
  293MOL0     H38674   3.680   6.707   1.716 -3.1157 -0.9908  0.2367
  293MOL0     H38675   3.316   7.028   1.655  1.3681  0.6432 -0.5985
  293MOL0     H38676   3.132   7.063   1.503  0.4685  2.2890 -2.5914
  294MOL0     O38677   1.438   9.315  10.072  0.2036 -0.3618  0.3927
  294MOL0     C38678   1.392   9.260  10.170  1.1271 -0.4569 -0.3630
  294MOL0     O38679   1.259   9.254  10.194 -0.9885 -0.3155  0.7745
  294MOL0     C38680   1.176   9.352  10.133 -0.5963  1.0036 -0.1504
  294MOL0     C38681   1.113   9.320  10.009  0.1774 -0.1657 -0.8083
  294MOL0     C38682   1.028   9.410   9.942 -0.4749  0.1334 -0.3119
  294MOL0     C38683   1.017   9.537  10.006 -0.0624 -0.0144  1.0118
  294MOL0     O38684   0.937   9.632   9.950 -0.0681  0.3786 -0.0011
  294MOL0     C38685   0.806   9.646  10.012  0.3783  1.3923  0.0065
  294MOL0     C38686   0.772   9.795  10.021  0.2934  0.2468  0.2311
  294MOL0     C38687   0.640   9.805  10.093 -0.2560  0.2354  0.6381
  294MOL0     C38688   0.592   9.946  10.079 -0.3438  0.1031 -0.8794
  294MOL0     C38689   0.452   9.966  10.143 -0.1333 -0.2602  0.1273
  294MOL0     C38690   0.438   9.914  10.284  0.3483 -0.7893 -0.9313
  294MOL0     C38691   0.300   9.952  10.342 -0.0217 -0.5073  0.0727
  294MOL0     C38692   0.196   9.848  10.318  0.3166  1.1693 -0.8074
  294MOL0     N38693   0.065   9.875  10.375  0.0855 -0.7479  1.0495
  294MOL0     C38694   0.027   9.889  10.503  0.6629 -0.2249 -0.4546
  294MOL0     C38695  -0.109   9.910  10.494 -0.2497  0.0973  0.7722
  294MOL0     C38696  -0.209   9.928  10.606  0.5026  0.5699 -0.6212
  294MOL0     C38697  -0.285  10.060  10.604  0.0814 -0.6717  0.4498
  294MOL0     C38698  -0.191  10.174  10.633 -0.0489  1.1049  0.0594
  294MOL0     C38699  -0.246  10.306  10.586  0.0373  0.6093 -1.1368
  294MOL0     O38700  -0.160  10.423  10.586 -0.7958  0.3340  0.1350
  294MOL0     C38701  -0.032  10.424  10.534 -0.1626  0.5506 -0.2776
  294MOL0     C38702   0.004  10.336  10.435 -0.7800 -0.7326  0.1289
  294MOL0     C38703   0.133  10.331  10.388  0.1798  0.1829  0.0888
  294MOL0     C38704   0.231  10.405  10.449 -0.5857  0.3303  0.3184
  294MOL0     C38705   0.366  10.376  10.412  0.2075 -0.1555 -0.4161
  294MOL0     O38706   0.465  10.454  10.468 -0.6022 -0.3772  0.6986
  294MOL0     C38707   0.586  10.397  10.457 -0.3407  0.1198  0.0401
  294MOL0     C38708   0.623  10.304  10.553 -0.3526 -0.3801  0.7288
  294MOL0     C38709   0.754  10.264  10.571  1.0358 -0.4374  0.0164
  294MOL0     C38710   0.844  10.309  10.472 -0.4259  0.0284 -0.1000
  294MOL0     O38711   0.970  10.256  10.484  0.3598 -0.1008  0.6482
  294MOL0     C38712   1.053  10.342  10.570  0.3078  0.1406  0.5993
  294MOL0     C38713   1.183  10.245  10.585  0.3776  0.0655 -0.6669
  294MOL0     C38714   1.291  10.316  10.660  0.1268  0.3907  0.4867
  294MOL0     C38715   1.384  10.396  10.558 -0.2273  0.5047 -0.1460
  294MOL0     C38716   1.509  10.432  10.635  0.9553  0.9690 -0.0722
  294MOL0     C38717   1.607  10.312  10.628 -1.0266 -0.0463 -0.0837
  294MOL0     C38718   1.749  10.368  10.661  0.3716 -0.1089 -0.2204
  294MOL0     C38719   1.860  10.283  10.590  0.4950 -0.2380 -0.7353
  294MOL0    Cl38720   2.028  10.345  10.624  0.0359 -0.2035  0.0716
  294MOL0     C38721   0.815  10.399  10.373 -0.1222 -0.4579 -0.0916
  294MOL0     C38722   0.682  10.441  10.362  0.0093  0.5869 -0.3505
  294MOL0     O38723   0.382  10.276  10.345 -0.2734  0.0207 -0.7205
  294MOL0     C38724   0.200  10.496  10.553  0.5119 -0.4753  0.2717
  294MOL0     C38725   0.065  10.510  10.591 -0.0154 -0.1880  0.6415
  294MOL0     N38726  -0.150   9.900  10.360  0.1199  0.1818  0.8553
  294MOL0     N38727  -0.041   9.881  10.287  0.4098  0.0089 -0.0969
  294MOL0     C38728   1.095   9.574  10.116 -0.0772  0.0222 -0.1004
  294MOL0     C38729   1.162   9.474  10.187 -0.8904 -0.2302  0.1596
  294MOL0     C38730   1.482   9.207  10.271  0.3720  0.4284 -0.1854
  294MOL0     C38731   1.439   9.101  10.358 -0.1034 -0.0948 -0.7810
  294MOL0     C38732   1.533   9.054  10.458  0.6385  0.9023  0.0544
  294MOL0     C38733   1.665   9.105  10.473  0.1776  0.0751  0.3379
  294MOL0     O38734   1.742   9.045  10.568  0.3080 -0.1212 -0.0458
  294MOL0     C38735   1.872   9.090  10.603 -0.4395  0.1407  0.1635
  294MOL0     C38736   1.970   9.032  10.508 -0.6393 -0.6026  0.2407
  294MOL0     C38737   1.948   8.886  10.483  0.1239  0.1212  0.0792
  294MOL0     C38738   2.067   8.797  10.505  0.1045  1.6124  0.1298
  294MOL0     C38739   2.114   8.793  10.641 -0.0858 -0.1124 -0.5793
  294MOL0     C38740   2.155   8.784  10.759 -0.2240 -0.4592  0.1420
  294MOL0     C38741   1.700   9.214  10.392 -0.1957  0.2945 -0.3944
  294MOL0     C38742   1.615   9.261  10.291 -0.5168  0.3674  0.2419
  294MOL0     H38743   1.118   9.217   9.975  1.5168 -0.7691  1.0590
  294MOL0     H38744   0.967   9.385   9.856 -0.0869  0.1230 -0.5888
  294MOL0     H38745   0.798   9.607  10.114 -3.7476 -0.7887 -0.9433
  294MOL0     H38746   0.732   9.587   9.958  3.3191 -2.2801 -0.4017
  294MOL0     H38747   0.759   9.846   9.925  3.3278  1.9922  0.6086
  294MOL0     H38748   0.851   9.848  10.075  0.6622 -0.4770  0.4241
  294MOL0     H38749   0.663   9.786  10.198  1.2180  2.1137  0.7143
  294MOL0     H38750   0.567   9.738  10.047  1.4462 -0.9830 -0.3941
  294MOL0     H38751   0.666  10.012  10.127 -1.1530 -1.1847  2.3986
  294MOL0     H38752   0.578   9.974   9.974 -0.4433  0.1519 -0.8538
  294MOL0     H38753   0.385   9.920  10.070 -1.5353 -0.3284  1.4113
  294MOL0     H38754   0.424  10.072  10.144  2.8062  0.6883 -2.3637
  294MOL0     H38755   0.515   9.957  10.349  1.0742 -0.8082 -1.7563
  294MOL0     H38756   0.439   9.805  10.286 -0.1521 -0.8146  2.3756
  294MOL0     H38757   0.319   9.978  10.446  1.1219  1.0119 -0.4686
  294MOL0     H38758   0.274  10.053  10.308  0.5416 -0.0594  0.9254
  294MOL0     H38759   0.236   9.763  10.374 -0.6824  1.4575  0.3839
  294MOL0     H38760   0.200   9.819  10.212  0.4065 -2.2866  0.0123
  294MOL0     H38761   0.078   9.900  10.598 -0.7871 -2.2372  0.6473
  294MOL0     H38762  -0.162   9.913  10.703 -1.6081  0.7277  0.4729
  294MOL0     H38763  -0.269   9.837  10.594  1.0623  0.4888 -3.7785
  294MOL0     H38764  -0.357  10.060  10.686  2.5718  3.1949  3.0106
  294MOL0     H38765  -0.328  10.070  10.504 -3.6149 -0.5733  1.9191
  294MOL0     H38766  -0.174  10.173  10.741  1.0152  0.7743 -0.1017
  294MOL0     H38767  -0.097  10.164  10.579 -1.2071 -0.5111 -1.8341
  294MOL0     H38768  -0.339  10.321  10.643  0.2893 -1.9298  0.0868
  294MOL0     H38769  -0.278  10.302  10.482 -0.4235  0.8779 -1.0093
  294MOL0     H38770  -0.067  10.260  10.402 -3.4260  1.2222  0.9747
  294MOL0     H38771   0.162  10.252  10.320 -2.8531  0.6180 -1.9087
  294MOL0     H38772   0.537  10.270  10.610  0.1172 -0.1290  1.5949
  294MOL0     H38773   0.787  10.196  10.649  3.5047  1.2874  0.6132
  294MOL0     H38774   1.014  10.369  10.669 -2.2500  1.3146 -0.6405
  294MOL0     H38775   1.087  10.431  10.516  1.4011  1.4938  3.2881
  294MOL0     H38776   1.208  10.213  10.484  2.2372  0.1708 -0.2707
  294MOL0     H38777   1.163  10.150  10.636  2.2371 -0.4538 -0.8226
  294MOL0     H38778   1.357  10.242  10.706 -2.7061 -1.4583  1.8343
  294MOL0     H38779   1.261  10.369  10.751 -0.7069 -1.9483  1.6601
  294MOL0     H38780   1.411  10.339  10.469  3.6683  2.0151 -0.1247
  294MOL0     H38781   1.324  10.476  10.513 -2.8167 -1.9166 -1.2841
  294MOL0     H38782   1.502  10.436  10.745  1.0813 -0.7259  0.0203
  294MOL0     H38783   1.552  10.524  10.594 -0.2168  1.4367 -0.3028
  294MOL0     H38784   1.619  10.258  10.534  1.0265 -3.2534  1.8001
  294MOL0     H38785   1.580  10.232  10.698  2.7161  0.8422  2.6649
  294MOL0     H38786   1.756  10.474  10.632  1.8203 -0.6320 -1.9741
  294MOL0     H38787   1.769  10.368  10.768  0.9430 -1.4447 -0.3068
  294MOL0     H38788   1.830  10.287  10.485 -5.3295  2.4606  0.6444
  294MOL0     H38789   1.845  10.184  10.632  0.2239 -0.3899 -1.1950
  294MOL0     H38790   0.885  10.448  10.306  0.8355 -1.3612  0.2231
  294MOL0     H38791   0.669  10.506  10.276  2.6021 -1.0122 -2.1063
  294MOL0     H38792   0.267  10.555  10.615 -1.4251 -0.3160  2.3264
  294MOL0     H38793   0.035  10.591  10.656 -1.2383  1.2273 -1.5694
  294MOL0     H38794   1.098   9.673  10.159 -0.4013  0.5602 -1.2866
  294MOL0     H38795   1.231   9.499  10.267 -1.8888  0.2355  0.8970
  294MOL0     H38796   1.339   9.066  10.334 -0.0039 -0.3276 -0.8560
  294MOL0     H38797   1.508   8.974  10.526 -0.2262  0.4303 -0.7931
  294MOL0     H38798   1.895   9.045  10.700  2.1128  0.9250  0.0010
  294MOL0     H38799   1.876   9.200  10.610  0.4415  0.1136  0.1628
  294MOL0     H38800   1.955   9.078  10.410  3.1161 -0.8922 -0.6030
  294MOL0     H38801   2.072   9.054  10.540 -1.3384 -0.2999  2.4271
  294MOL0     H38802   1.924   8.876  10.376 -4.4302  0.1298  0.9125
  294MOL0     H38803   1.857   8.861  10.539 -1.5648  2.9910 -1.1203
  294MOL0     H38804   2.041   8.695  10.474 -0.5433  1.5222  0.9272
  294MOL0     H38805   2.147   8.838  10.442  1.1648  0.0395  0.3912
  294MOL0     H38806   2.198   8.796  10.857 -0.3327  4.8296 -0.1496
  294MOL0     H38807   1.796   9.264  10.399 -1.3252  2.8080 -1.2306
  294MOL0     H38808   1.645   9.336  10.218  0.3278  0.9089  1.1274
  295MOL0     O38809  10.956   0.732   5.654  0.2273  0.0727 -0.1708
  295MOL0     C38810  11.026   0.757   5.752  0.1233  0.7094  0.2712
  295MOL0     O38811  10.987   0.799   5.876  0.3252  0.5465 -0.2463
  295MOL0     C38812  10.855   0.822   5.913 -0.1352 -0.2374 -0.1370
  295MOL0     C38813  10.803   0.772   6.030  0.0648  0.4844  0.3416
  295MOL0     C38814  10.672   0.804   6.071  0.8356 -0.5972 -1.1082
  295MOL0     C38815  10.594   0.888   5.987 -0.1073 -0.5016  0.8716
  295MOL0     O38816  10.478   0.913   6.042  0.0861  0.1343 -0.5516
  295MOL0     C38817  10.366   0.958   5.969 -0.6248  0.0880  0.5893
  295MOL0     C38818  10.251   0.940   6.075  0.4503 -0.8020  0.3791
  295MOL0     C38819  10.118   1.000   6.028  0.4305 -0.1856 -0.3823
  295MOL0     C38820  10.006   0.940   6.113  0.1810 -0.1246  0.4665
  295MOL0     C38821   9.867   1.005   6.103 -1.4542  0.3886  0.1285
  295MOL0     C38822   9.795   0.997   6.231 -0.4370  0.0763  0.3397
  295MOL0     C38823   9.655   1.057   6.213 -0.4169  0.3899 -0.9796
  295MOL0     C38824   9.651   1.214   6.197  0.2104  1.1142 -0.4294
  295MOL0     N38825   9.512   1.249   6.203 -1.0250  0.2851 -0.5697
  295MOL0     C38826   9.433   1.280   6.094 -0.6003 -0.5629 -0.0140
  295MOL0     C38827   9.310   1.281   6.148  0.0996  0.6869  0.8475
  295MOL0     C38828   9.181   1.318   6.070 -0.3221  0.5777  0.7290
  295MOL0     C38829   9.072   1.229   6.113 -0.8531 -0.0401  0.0971
  295MOL0     C38830   8.974   1.237   5.998 -0.4250 -0.1334  0.6405
  295MOL0     C38831   8.833   1.207   6.047  0.3084  0.0182 -0.2824
  295MOL0     O38832   8.740   1.164   5.949  0.4380 -0.4360 -0.4250
  295MOL0     C38833   8.611   1.151   5.994  0.1795 -0.6656 -0.3099
  295MOL0     C38834   8.514   1.148   5.901  0.4024 -0.5867 -0.0630
  295MOL0     C38835   8.375   1.153   5.940 -0.2282  0.4263  0.2895
  295MOL0     C38836   8.335   1.153   6.076 -0.7625  0.1054  0.2575
  295MOL0     C38837   8.196   1.167   6.122  0.0613  0.7873  0.5342
  295MOL0     O38838   8.183   1.118   6.246  1.2560 -0.3037  0.1049
  295MOL0     C38839   8.060   1.131   6.316 -0.3789 -0.6004  0.2724
  295MOL0     C38840   7.956   1.212   6.289  0.3284 -0.4307 -0.1420
  295MOL0     C38841   7.840   1.213   6.375  0.1666 -0.2672  0.7424
  295MOL0     C38842   7.839   1.128   6.492  0.3448 -0.0899  0.5702
  295MOL0     O38843   7.721   1.117   6.577  0.4294  0.3505 -0.2376
  295MOL0     C38844   7.619   1.209   6.565  0.8163 -0.5459 -0.1219
  295MOL0     C38845   7.522   1.188   6.684  0.4944 -0.0612  1.4305
  295MOL0     C38846   7.437   1.048   6.685  0.3136  0.1957 -1.2605
  295MOL0     C38847   7.350   1.045   6.809 -0.0899 -0.3942  0.5297
  295MOL0     C38848   7.305   0.894   6.830 -0.1386 -0.3558 -0.4647
  295MOL0     C38849   7.234   0.889   6.964 -1.2290 -0.2509  0.7557
  295MOL0     C38850   7.180   0.750   6.994 -0.1571  0.3531 -0.7348
  295MOL0     C38851   7.079   0.751   7.109 -0.4818 -0.4016 -0.2836
  295MOL0    Cl38852   6.956   0.877   7.108  0.2952  0.1882  0.3299
  295MOL0     C38853   7.947   1.048   6.510  0.1252  0.1894 -0.2404
  295MOL0     C38854   8.063   1.052   6.426  0.0348  0.1866  0.5810
  295MOL0     O38855   8.111   1.199   6.036  0.3279  0.2161 -0.2791
  295MOL0     C38856   8.441   1.152   6.167 -0.1140  0.6310  0.2205
  295MOL0     C38857   8.575   1.146   6.129 -0.3834  0.2244  0.4181
  295MOL0     N38858   9.318   1.254   6.285  0.1307 -0.0381 -0.1701
  295MOL0     N38859   9.442   1.248   6.316  0.0985  0.0411 -0.2421
  295MOL0     C38860  10.652   0.951   5.882  0.1979 -0.1791  0.0233
  295MOL0     C38861  10.780   0.919   5.837  0.4072 -0.3278 -0.8233
  295MOL0     C38862  11.163   0.707   5.741 -0.3558 -0.2744 -0.4234
  295MOL0     C38863  11.267   0.765   5.819  0.9928  0.7856 -0.4245
  295MOL0     C38864  11.392   0.713   5.809  0.1341 -0.3934  0.6872
  295MOL0     C38865  11.430   0.598   5.737  0.3489 -0.5021  0.0135
  295MOL0     O38866  11.555   0.538   5.719  0.0098  0.5136 -0.2760
  295MOL0     C38867  11.667   0.594   5.786 -0.3441  0.1176  0.6465
  295MOL0     C38868  11.692   0.552   5.935 -0.3338  1.0731 -0.4608
  295MOL0     C38869  11.837   0.602   5.974 -0.4605 -0.4365 -0.8870
  295MOL0     C38870  11.883   0.532   6.106 -0.9769  0.0629 -0.1655
  295MOL0     C38871  12.016   0.580   6.160 -0.2681  0.4151  0.5954
  295MOL0     C38872  12.120   0.623   6.196 -0.0130 -0.1348 -1.2399
  295MOL0     C38873  11.328   0.532   5.674  0.6275  0.5381 -0.9201
  295MOL0     C38874  11.196   0.588   5.669  1.4174 -0.8260  0.3390
  295MOL0     H38875  10.854   0.706   6.099 -0.2197 -0.3648 -0.2305
  295MOL0     H38876  10.619   0.756   6.152  1.0448  0.4631 -0.3223
  295MOL0     H38877  10.350   0.887   5.887  0.3663 -1.2444  1.5129
  295MOL0     H38878  10.371   1.062   5.934 -2.0925 -0.1355 -0.3942
  295MOL0     H38879  10.278   0.975   6.175 -0.0706  2.8510 -0.6145
  295MOL0     H38880  10.246   0.830   6.074  0.9712 -0.8289 -0.5115
  295MOL0     H38881  10.102   0.984   5.921 -0.2301  1.4421 -0.5479
  295MOL0     H38882  10.118   1.108   6.046 -2.5963 -0.4296  1.7216
  295MOL0     H38883  10.006   0.831   6.096  3.9415 -0.4557  1.7506
  295MOL0     H38884  10.038   0.951   6.216  2.0902  1.3306 -0.2255
  295MOL0     H38885   9.811   0.953   6.025  0.9225 -1.5556 -0.4009
  295MOL0     H38886   9.883   1.109   6.072 -0.6151 -0.4289 -2.4224
  295MOL0     H38887   9.855   1.040   6.312 -0.7261 -0.5375  0.8900
  295MOL0     H38888   9.778   0.897   6.273 -1.1217  0.9929  2.3895
  295MOL0     H38889   9.615   1.005   6.125 -0.5426 -0.0339 -0.6775
  295MOL0     H38890   9.586   1.031   6.294 -0.6149  1.0389 -0.9331
  295MOL0     H38891   9.715   1.260   6.121  1.3718  1.1757  0.5611
  295MOL0     H38892   9.694   1.263   6.285 -0.2407  0.4938  0.1381
  295MOL0     H38893   9.452   1.271   5.987 -1.8154  0.7138 -0.3764
  295MOL0     H38894   9.204   1.289   5.967 -0.8286  0.9927  0.4977
  295MOL0     H38895   9.151   1.423   6.076 -0.6539  0.5882 -0.6224
  295MOL0     H38896   9.025   1.260   6.207 -0.2363  1.5493 -0.0916
  295MOL0     H38897   9.104   1.124   6.119 -2.3309 -0.5887 -0.9638
  295MOL0     H38898   8.959   1.334   5.950 -1.3832 -1.1304 -1.1649
  295MOL0     H38899   9.012   1.163   5.927  0.8748  0.3932  0.7651
  295MOL0     H38900   8.805   1.302   6.094  1.3834  0.9914 -1.5330
  295MOL0     H38901   8.837   1.133   6.128 -1.9294 -1.0230 -1.0536
  295MOL0     H38902   8.528   1.131   5.795  0.6289 -1.4725  0.0980
  295MOL0     H38903   8.308   1.158   5.855  2.9852  1.2444 -2.3826
  295MOL0     H38904   7.964   1.277   6.202 -2.4632  0.2436 -0.0070
  295MOL0     H38905   7.759   1.278   6.344  0.3803  0.4857  1.7096
  295MOL0     H38906   7.581   1.211   6.462 -0.8156  2.2272  0.4391
  295MOL0     H38907   7.654   1.313   6.566 -1.0147  0.1036  0.1326
  295MOL0     H38908   7.453   1.272   6.670  0.6361 -0.2666 -1.1178
  295MOL0     H38909   7.575   1.201   6.778  0.6819 -3.8422  2.0093
  295MOL0     H38910   7.508   0.965   6.677 -0.0724 -0.0172 -2.7844
  295MOL0     H38911   7.371   1.034   6.599 -2.1375 -3.1006  0.8920
  295MOL0     H38912   7.408   1.068   6.899  0.0036 -0.8338  0.5814
  295MOL0     H38913   7.264   1.112   6.798 -1.4543 -1.8484  1.8458
  295MOL0     H38914   7.388   0.823   6.837  0.7072  0.5174 -1.2619
  295MOL0     H38915   7.242   0.864   6.746 -2.6410 -0.2761  1.2580
  295MOL0     H38916   7.163   0.972   6.969 -0.0583  0.7213  1.8377
  295MOL0     H38917   7.311   0.900   7.040 -1.3956  1.4987  0.7116
  295MOL0     H38918   7.126   0.715   6.905 -3.2274 -0.7430  1.4167
  295MOL0     H38919   7.256   0.676   7.021 -4.4219 -2.9444  4.2063
  295MOL0     H38920   7.139   0.778   7.196  0.5571  1.9194 -1.6184
  295MOL0     H38921   7.040   0.650   7.124 -0.5912 -0.1346  1.4632
  295MOL0     H38922   7.942   0.980   6.594 -0.5342  1.0697  0.4526
  295MOL0     H38923   8.147   0.984   6.437  0.8000  1.0023 -0.1035
  295MOL0     H38924   8.415   1.166   6.271 -0.4259 -1.0607  0.3950
  295MOL0     H38925   8.651   1.171   6.203  0.0249  1.4908 -0.3947
  295MOL0     H38926  10.599   1.031   5.831  1.6803 -0.3202 -1.8763
  295MOL0     H38927  10.832   0.962   5.752 -1.3915  3.3419 -0.2698
  295MOL0     H38928  11.241   0.843   5.890  0.8571  1.4834 -1.2317
  295MOL0     H38929  11.464   0.763   5.873  0.7623 -0.6135  0.1659
  295MOL0     H38930  11.663   0.703   5.792 -0.8786  0.1801 -0.5187
  295MOL0     H38931  11.751   0.564   5.721 -0.8627 -0.5430  0.2662
  295MOL0     H38932  11.615   0.602   5.995 -1.4454  1.1931 -1.9339
  295MOL0     H38933  11.683   0.444   5.951 -2.1891  1.3123  0.4650
  295MOL0     H38934  11.831   0.710   5.990  2.2557 -0.4701  1.1754
  295MOL0     H38935  11.904   0.588   5.888  0.6187  0.1585 -0.1605
  295MOL0     H38936  11.809   0.541   6.186  0.2518 -1.0557  1.1644
  295MOL0     H38937  11.903   0.425   6.102  1.7531  0.4238  1.1997
  295MOL0     H38938  12.214   0.651   6.240 -1.6093 -0.4217  2.8565
  295MOL0     H38939  11.341   0.441   5.615  1.1565  0.6664 -1.0119
  295MOL0     H38940  11.123   0.541   5.603  0.8236  1.1451 -0.4688
  296MOL0     O38941   4.205   7.534  10.994  0.2557  0.0752 -0.3160
  296MOL0     C38942   4.183   7.661  10.987  0.8956 -0.4451 -0.9694
  296MOL0     O38943   4.061   7.717  11.013 -0.0194 -0.0136 -0.9482
  296MOL0     C38944   3.940   7.654  11.009  0.0143  0.9787 -0.6640
  296MOL0     C38945   3.915   7.521  10.959 -0.1548 -0.6144 -0.2513
  296MOL0     C38946   3.788   7.473  10.966 -1.3621 -0.6707 -0.3029
  296MOL0     C38947   3.678   7.543  11.017 -1.7163 -0.5309 -0.8575
  296MOL0     O38948   3.554   7.505  11.027 -0.4650  0.3995  0.9224
  296MOL0     C38949   3.526   7.393  11.106  0.5906 -0.5914  0.5505
  296MOL0     C38950   3.373   7.367  11.100  0.2851 -0.6765 -0.8596
  296MOL0     C38951   3.322   7.318  11.239  0.2617 -0.0940  0.7685
  296MOL0     C38952   3.368   7.173  11.267  0.0205  0.3258  0.7184
  296MOL0     C38953   3.279   7.107  11.374 -0.1059  0.0116 -0.4247
  296MOL0     C38954   3.144   7.056  11.322 -0.4129  0.5533  0.2870
  296MOL0     C38955   3.047   6.991  11.425  0.7906 -0.9738  0.7864
  296MOL0     C38956   2.982   7.095  11.516  0.4016  0.6441  0.2329
  296MOL0     N38957   2.843   7.058  11.544  0.7008 -0.0835 -0.4876
  296MOL0     C38958   2.793   6.931  11.581  0.4482 -1.0245 -0.4838
  296MOL0     C38959   2.663   6.952  11.603 -0.2310 -0.0084  0.5229
  296MOL0     C38960   2.553   6.850  11.643  0.6254  0.1935  0.2673
  296MOL0     C38961   2.523   6.856  11.793 -0.7989  0.2848 -0.0450
  296MOL0     C38962   2.434   6.745  11.832 -0.8100 -0.3771 -0.5214
  296MOL0     C38963   2.280   6.784  11.844 -0.9592 -1.0074 -0.9940
  296MOL0     O38964   2.240   6.843  11.722 -0.2890  0.1089  0.0212
  296MOL0     C38965   2.107   6.846  11.688  0.5680 -1.1636 -0.3931
  296MOL0     C38966   1.993   6.830  11.770  0.6027  0.1384 -0.2163
  296MOL0     C38967   1.862   6.864  11.718 -0.5837 -0.6889 -0.1827
  296MOL0     C38968   1.849   6.897  11.577 -0.5489 -1.0851 -0.0170
  296MOL0     C38969   1.713   6.916  11.518 -0.9910  0.4028 -0.3498
  296MOL0     O38970   1.617   6.944  11.614 -0.3338 -0.4738 -0.0967
  296MOL0     C38971   1.481   6.953  11.578  0.2493 -0.4866  0.9330
  296MOL0     C38972   1.423   6.991  11.456  0.3178  0.1834 -0.5695
  296MOL0     C38973   1.291   7.028  11.461  0.1794  0.4629  0.1168
  296MOL0     C38974   1.205   7.030  11.573 -0.4910 -0.1417  0.5492
  296MOL0     O38975   1.068   7.059  11.568  0.3748  0.7870 -0.3700
  296MOL0     C38976   1.008   7.123  11.459  0.0454 -0.0575 -0.4387
  296MOL0     C38977   0.888   7.186  11.535 -0.7950  0.3086 -0.6233
  296MOL0     C38978   0.805   7.263  11.426 -0.2611 -0.0151 -0.2785
  296MOL0     C38979   0.677   7.343  11.456  0.7378 -0.1385 -0.9238
  296MOL0     C38980   0.626   7.408  11.323 -0.2637  0.3069  0.2809
  296MOL0     C38981   0.496   7.489  11.356  0.7276  0.3576 -0.9148
  296MOL0     C38982   0.427   7.535  11.230 -0.3713 -0.2973 -0.5652
  296MOL0     C38983   0.284   7.590  11.254 -0.2453  0.7448  1.2548
  296MOL0    Cl38984   0.197   7.593  11.097  0.3467  0.0346 -0.2116
  296MOL0     C38985   1.262   6.980  11.693 -0.3267 -1.2271 -0.1442
  296MOL0     C38986   1.400   6.948  11.693  1.0476 -0.6711  0.1078
  296MOL0     O38987   1.694   6.899  11.396 -0.1762 -0.1999  0.0571
  296MOL0     C38988   1.967   6.913  11.499 -0.5615  0.1385 -0.4601
  296MOL0     C38989   2.089   6.886  11.554  0.1854  0.0710 -0.1928
  296MOL0     N38990   2.637   7.085  11.582  0.5126 -0.8638 -0.2153
  296MOL0     N38991   2.743   7.150  11.541 -0.3880 -0.3172 -0.5062
  296MOL0     C38992   3.707   7.679  11.057  0.2241  0.0239  0.9624
  296MOL0     C38993   3.833   7.738  11.045  0.6431  0.1734 -0.2330
  296MOL0     C38994   4.297   7.751  10.989  0.8068  0.4191  1.1253
  296MOL0     C38995   4.429   7.712  10.985  0.1847  0.1207 -0.0876
  296MOL0     C38996   4.542   7.799  10.989  0.1944  0.1319  0.2146
  296MOL0     C38997   4.516   7.936  11.004  0.3101  0.9289  0.6420
  296MOL0     O38998   4.617   8.023  11.020  0.4595 -0.2864 -0.4184
  296MOL0     C38999   4.755   7.994  11.034  0.2647  0.2205  0.1412
  296MOL0     C39000   4.835   7.983  10.896  0.3570 -0.1975 -0.2851
  296MOL0     C39001   4.958   7.910  10.912 -0.2893 -0.0938  0.7600
  296MOL0     C39002   5.043   7.967  11.024 -0.4713 -0.0897  0.1069
  296MOL0     C39003   5.190   7.972  11.007  0.3501  0.7207  0.1334
  296MOL0     C39004   5.303   7.984  10.971 -0.0294  0.1097  0.2826
  296MOL0     C39005   4.385   7.976  11.031 -0.2846  0.0294  0.2608
  296MOL0     C39006   4.279   7.893  11.012  0.0532  0.5837  0.6556
  296MOL0     H39007   3.993   7.457  10.919  2.3998  0.4334  2.6514
  296MOL0     H39008   3.771   7.373  10.927  2.0464 -1.8486  0.7870
  296MOL0     H39009   3.560   7.411  11.209  0.7657  4.7010 -0.1754
  296MOL0     H39010   3.578   7.308  11.061 -0.2154  0.1000 -1.8269
  296MOL0     H39011   3.366   7.295  11.018  1.0898 -0.0097 -1.5314
  296MOL0     H39012   3.331   7.462  11.064 -0.9122 -0.6215  0.6068
  296MOL0     H39013   3.213   7.319  11.228  0.4291 -2.5162 -2.6542
  296MOL0     H39014   3.353   7.387  11.318  0.0975  0.4663  0.3512
  296MOL0     H39015   3.360   7.115  11.175 -4.9541 -0.4087  1.3446
  296MOL0     H39016   3.469   7.180  11.310 -1.2641  0.4834  4.0193
  296MOL0     H39017   3.251   7.181  11.451  0.7080 -1.7108  1.6300
  296MOL0     H39018   3.341   7.029  11.418 -0.5425 -0.2912 -0.3456
  296MOL0     H39019   3.162   6.976  11.250  0.0916  2.6247 -2.0206
  296MOL0     H39020   3.087   7.129  11.264 -1.5645 -1.5243 -1.3664
  296MOL0     H39021   2.957   6.946  11.381 -2.1786  1.2778  3.9555
  296MOL0     H39022   3.099   6.915  11.483  0.2793 -0.6105  1.7453
  296MOL0     H39023   3.000   7.198  11.482 -0.5470  0.8623  0.3559
  296MOL0     H39024   3.032   7.096  11.613  0.3518 -2.2973  0.3538
  296MOL0     H39025   2.837   6.832  11.587  0.5527 -0.9460  0.0493
  296MOL0     H39026   2.582   6.750  11.611  0.1602 -0.6743  2.4373
  296MOL0     H39027   2.462   6.889  11.594 -0.8888 -1.1381  1.9068
  296MOL0     H39028   2.489   6.950  11.836 -0.8269 -0.0847  0.7731
  296MOL0     H39029   2.618   6.848  11.848 -0.1839 -0.4550 -1.1530
  296MOL0     H39030   2.431   6.664  11.759 -0.3203 -0.5969 -0.2973
  296MOL0     H39031   2.459   6.706  11.931 -2.2246  1.8456  0.8219
  296MOL0     H39032   2.270   6.864  11.917 -0.8238 -1.6626 -0.2444
  296MOL0     H39033   2.227   6.695  11.877 -2.5652  0.1740 -0.2577
  296MOL0     H39034   1.999   6.799  11.873  4.0670  1.4178  0.0772
  296MOL0     H39035   1.778   6.878  11.786 -2.2532 -0.5729 -2.1447
  296MOL0     H39036   1.479   7.013  11.366 -0.3391 -2.1014 -1.6095
  296MOL0     H39037   1.250   7.051  11.364 -0.5910 -4.0086 -0.8086
  296MOL0     H39038   0.982   7.051  11.381  0.6307  1.2899 -1.9409
  296MOL0     H39039   1.066   7.206  11.417  0.3340  0.5098  1.0128
  296MOL0     H39040   0.919   7.259  11.611 -0.6960 -0.1052 -0.2620
  296MOL0     H39041   0.826   7.106  11.577  0.0905  0.6367  1.4140
  296MOL0     H39042   0.782   7.190  11.348  1.3660 -0.7708 -0.0933
  296MOL0     H39043   0.879   7.330  11.381 -4.0485  5.7637  0.8846
  296MOL0     H39044   0.610   7.275  11.509  0.5955  1.9989  1.8919
  296MOL0     H39045   0.694   7.422  11.530 -0.2966 -1.2190  0.5389
  296MOL0     H39046   0.593   7.344  11.240 -1.2983  3.1056 -1.6376
  296MOL0     H39047   0.701   7.478  11.284 -0.5584  0.9868  0.9089
  296MOL0     H39048   0.517   7.573  11.423 -2.9470  2.2164 -1.8092
  296MOL0     H39049   0.422   7.431  11.412  1.7844 -1.3558 -1.2359
  296MOL0     H39050   0.492   7.611  11.185  0.7748 -0.4513  0.7815
  296MOL0     H39051   0.426   7.457  11.154 -0.7996  0.1383 -1.0160
  296MOL0     H39052   0.277   7.693  11.292 -0.9008  1.1439  0.1124
  296MOL0     H39053   0.222   7.521  11.312  0.4487 -1.7269 -0.7715
  296MOL0     H39054   1.198   6.973  11.780  3.0152  0.1033  2.6353
  296MOL0     H39055   1.441   6.931  11.792  2.2316  0.9288 -0.0690
  296MOL0     H39056   1.953   6.929  11.392  0.0842  1.5406 -0.3625
  296MOL0     H39057   2.182   6.889  11.499 -0.5814  1.2741 -1.5046
  296MOL0     H39058   3.624   7.739  11.090  1.0296  1.8669 -0.1699
  296MOL0     H39059   3.850   7.845  11.056  3.0087 -0.2016  0.4078
  296MOL0     H39060   4.464   7.610  10.996  3.4525  0.9025 -2.1238
  296MOL0     H39061   4.641   7.754  10.986 -1.0861 -3.0641  0.9206
  296MOL0     H39062   4.772   7.914  11.107  2.4078  1.8228  1.5065
  296MOL0     H39063   4.788   8.085  11.084 -1.5610  0.3218  1.2385
  296MOL0     H39064   4.772   7.936  10.820  1.8750 -0.0465 -1.6988
  296MOL0     H39065   4.862   8.085  10.868 -0.5239 -0.1845 -1.1207
  296MOL0     H39066   5.007   7.904  10.815  2.3863 -0.0772  2.0281
  296MOL0     H39067   4.926   7.810  10.941  2.9964 -1.2430  0.7924
  296MOL0     H39068   5.014   8.072  11.035  2.0546  0.9306 -1.8025
  296MOL0     H39069   5.022   7.904  11.110  0.2983 -0.7207 -0.1512
  296MOL0     H39070   5.402   7.995  10.930 -1.0741  3.5845 -1.6869
  296MOL0     H39071   4.373   8.082  11.052 -2.1865 -0.0707 -0.1178
  296MOL0     H39072   4.176   7.927  11.017 -0.0947 -0.0033  2.3177
  297MOL0     O39073   9.907   1.945   9.994  0.6579 -0.4830  0.8644
  297MOL0     C39074   9.951   2.011   9.898 -0.8827 -0.2453 -0.3672
  297MOL0     O39075   9.883   2.072   9.793  0.0850  0.3216  0.2845
  297MOL0     C39076   9.747   2.070   9.812  0.0070 -0.3538 -0.5124
  297MOL0     C39077   9.689   2.126   9.926  0.1554  0.0550  0.2839
  297MOL0     C39078   9.557   2.115   9.946  1.0111  0.1266  0.1547
  297MOL0     C39079   9.487   2.033   9.847  0.2016 -0.1569 -0.1037
  297MOL0     O39080   9.348   2.050   9.861 -0.5060  0.3502 -0.1293
  297MOL0     C39081   9.279   1.929   9.859 -0.3852  0.0678  1.0812
  297MOL0     C39082   9.142   1.959   9.919 -0.4682  0.5428 -0.3067
  297MOL0     C39083   9.061   2.056   9.845 -0.8499 -0.8295  0.2771
  297MOL0     C39084   8.908   2.057   9.897 -0.2165 -0.1855 -0.0594
  297MOL0     C39085   8.908   2.105  10.046 -0.0686  0.6743 -0.0895
  297MOL0     C39086   8.776   2.167  10.088 -0.4807  0.5372 -0.0055
  297MOL0     C39087   8.779   2.245  10.220  0.8894  0.4725  0.1962
  297MOL0     C39088   8.811   2.158  10.344  0.2461  0.3388 -0.0594
  297MOL0     N39089   8.711   2.162  10.456 -0.8990  0.6964  0.4605
  297MOL0     C39090   8.584   2.110  10.447 -0.2060 -0.3170 -0.4587
  297MOL0     C39091   8.527   2.141  10.562 -0.0988  0.2943 -0.4507
  297MOL0     C39092   8.391   2.088  10.608  0.7201  0.8136 -0.4176
  297MOL0     C39093   8.279   2.162  10.534  0.1491 -0.8770  0.3001
  297MOL0     C39094   8.278   2.318  10.561  0.2195 -0.7180  0.0872
  297MOL0     C39095   8.295   2.354  10.708  0.5189 -0.3366 -0.0917
  297MOL0     O39096   8.192   2.286  10.786  0.0553 -0.1244  0.2646
  297MOL0     C39097   8.053   2.332  10.782  0.0910  1.1133  0.3511
  297MOL0     C39098   7.962   2.234  10.835 -0.0424 -0.4931  0.1941
  297MOL0     C39099   7.832   2.261  10.840  0.3162  0.4195 -0.3240
  297MOL0     C39100   7.779   2.382  10.800  1.1580 -0.3296  0.6324
  297MOL0     C39101   7.634   2.405  10.798  1.1870 -0.5242  0.6154
  297MOL0     O39102   7.602   2.524  10.730 -0.0671 -0.1649 -0.1700
  297MOL0     C39103   7.473   2.543  10.676 -0.5202 -0.8647 -0.3845
  297MOL0     C39104   7.427   2.678  10.670 -0.0573 -0.2701 -0.2240
  297MOL0     C39105   7.308   2.721  10.623 -0.1790 -1.6143 -0.0162
  297MOL0     C39106   7.227   2.632  10.568  0.2214  0.8617  0.5766
  297MOL0     O39107   7.099   2.670  10.534 -0.6591  0.0703  0.5905
  297MOL0     C39108   7.057   2.803  10.568  0.3330  0.0166 -0.4383
  297MOL0     C39109   6.915   2.835  10.518  0.4273  0.5713  0.0371
  297MOL0     C39110   6.817   2.746  10.577  0.0390  0.1545 -0.0125
  297MOL0     C39111   6.671   2.778  10.546 -0.1229  0.3021  0.3609
  297MOL0     C39112   6.571   2.668  10.593 -0.1093 -0.6562  0.0689
  297MOL0     C39113   6.529   2.695  10.739  0.6070  0.3455 -0.0463
  297MOL0     C39114   6.441   2.566  10.782 -0.4285 -1.0494 -0.3153
  297MOL0     C39115   6.393   2.555  10.925 -0.0847 -0.1001  0.4647
  297MOL0    Cl39116   6.506   2.630  11.037  0.4583 -0.3541 -0.4784
  297MOL0     C39117   7.270   2.498  10.554 -0.3222 -0.5573  0.6393
  297MOL0     C39118   7.390   2.451  10.612 -0.5871  0.0157  0.5448
  297MOL0     O39119   7.546   2.327  10.839 -0.2410  0.0661 -0.5646
  297MOL0     C39120   7.867   2.485  10.765 -0.2613  0.2961  0.0472
  297MOL0     C39121   8.009   2.461  10.752 -0.1013  0.5929  0.2650
  297MOL0     N39122   8.629   2.192  10.643 -0.3514 -0.3878  0.1627
  297MOL0     N39123   8.736   2.192  10.588  0.0020  0.0425 -0.0106
  297MOL0     C39124   9.545   1.972   9.733 -0.1100 -0.7305 -0.5713
  297MOL0     C39125   9.680   1.986   9.725 -0.2874  0.3166  0.6231
  297MOL0     C39126  10.099   2.003   9.886 -0.4543 -0.3135  0.0046
  297MOL0     C39127  10.157   2.078   9.787 -0.7023  0.2515  0.3327
  297MOL0     C39128  10.291   2.078   9.768 -0.1822 -0.1567  0.4278
  297MOL0     C39129  10.379   2.015   9.864 -1.2210 -1.4533 -0.0183
  297MOL0     O39130  10.517   2.041   9.846  0.2748  0.1486  0.8649
  297MOL0     C39131  10.613   1.990   9.949  0.3497 -0.4620  0.0336
  297MOL0     C39132  10.620   2.078  10.076 -0.4767  0.0847  0.2664
  297MOL0     C39133  10.667   2.221  10.044  0.6536 -0.1206 -0.2376
  297MOL0     C39134  10.687   2.312  10.159  1.1626 -0.0019  0.7484
  297MOL0     C39135  10.569   2.312  10.253  0.2662  0.1240 -0.5911
  297MOL0     C39136  10.477   2.286  10.325  1.4330  0.4875 -0.0205
  297MOL0     C39137  10.317   1.948   9.966  0.2168 -0.9069 -0.2061
  297MOL0     C39138  10.177   1.935   9.976  0.1298  0.0030 -1.0535
  297MOL0     H39139   9.757   2.186   9.987 -0.8218  1.0438  0.4297
  297MOL0     H39140   9.508   2.144  10.038  1.1034 -0.4776  0.3974
  297MOL0     H39141   9.336   1.852   9.913 -1.9552 -1.8330  0.1429
  297MOL0     H39142   9.268   1.890   9.758 -2.7357 -0.2761  1.3958
  297MOL0     H39143   9.156   2.001  10.020 -0.5741 -0.8728  0.3215
  297MOL0     H39144   9.082   1.868   9.916  2.0483 -1.1988 -0.9373
  297MOL0     H39145   9.053   2.026   9.740 -1.0315  0.7972 -0.1954
  297MOL0     H39146   9.103   2.157   9.840 -0.5802 -1.0088 -1.3140
  297MOL0     H39147   8.847   2.128   9.840  3.1929  0.9872 -2.5536
  297MOL0     H39148   8.858   1.960   9.888 -1.1828 -0.0142  2.3845
  297MOL0     H39149   8.984   2.183  10.056  1.5999 -1.1036  2.1463
  297MOL0     H39150   8.944   2.024  10.110  0.8042  1.0701 -0.0645
  297MOL0     H39151   8.707   2.083  10.103 -0.8594  0.3936 -2.2729
  297MOL0     H39152   8.734   2.230  10.009 -2.7565 -0.4870  0.3189
  297MOL0     H39153   8.855   2.323  10.208 -1.2563  2.9488  1.6869
  297MOL0     H39154   8.682   2.287  10.245  0.9364 -0.4803  2.1933
  297MOL0     H39155   8.907   2.200  10.376 -0.1127  0.1342  1.3263
  297MOL0     H39156   8.823   2.053  10.313 -0.6960  0.4141 -0.7098
  297MOL0     H39157   8.543   2.060  10.360  0.6518 -0.1941 -0.9464
  297MOL0     H39158   8.381   2.091  10.716  0.7825 -3.3266 -0.1490
  297MOL0     H39159   8.372   1.985  10.578  0.1075  0.6757  0.4428
  297MOL0     H39160   8.184   2.114  10.558  0.7278 -2.3780 -0.3372
  297MOL0     H39161   8.307   2.149  10.429  1.9063 -0.6142  0.7026
  297MOL0     H39162   8.355   2.368  10.502  1.7069 -2.2925  0.6120
  297MOL0     H39163   8.185   2.358  10.520 -0.1925  0.5516  2.1073
  297MOL0     H39164   8.286   2.460  10.733 -0.5783 -0.4673  0.1241
  297MOL0     H39165   8.399   2.327  10.729  0.6705  1.1986  1.4167
  297MOL0     H39166   7.993   2.132  10.856  0.5486 -0.4994 -0.6528
  297MOL0     H39167   7.763   2.193  10.888 -0.8374  0.3572 -1.9774
  297MOL0     H39168   7.499   2.743  10.718 -0.7327 -1.3626  2.4640
  297MOL0     H39169   7.282   2.826  10.631 -4.3104 -2.5028  0.7975
  297MOL0     H39170   7.125   2.873  10.518  3.6904 -0.3818  3.1554
  297MOL0     H39171   7.071   2.811  10.676 -0.0425  1.7186 -0.4899
  297MOL0     H39172   6.915   2.837  10.409  0.6007  0.1409  0.0237
  297MOL0     H39173   6.886   2.940  10.530  0.5460  1.1373 -3.6557
  297MOL0     H39174   6.832   2.718  10.682  1.1161 -2.5564 -0.7805
  297MOL0     H39175   6.840   2.648  10.534  2.5264 -0.1952  1.8913
  297MOL0     H39176   6.644   2.876  10.588  0.1791  1.0605 -1.1485
  297MOL0     H39177   6.658   2.776  10.438  0.7108 -0.6458  0.2649
  297MOL0     H39178   6.614   2.569  10.578  3.9689  0.8720  0.4715
  297MOL0     H39179   6.477   2.682  10.538 -0.6263  1.3302  1.3555
  297MOL0     H39180   6.478   2.791  10.744  0.8878  0.4967 -0.0442
  297MOL0     H39181   6.621   2.686  10.798 -0.2230 -0.6800  1.1713
  297MOL0     H39182   6.354   2.554  10.716 -1.2833 -0.3351  0.6487
  297MOL0     H39183   6.499   2.475  10.762  1.7469  0.3675 -0.7086
  297MOL0     H39184   6.381   2.448  10.945 -0.7395 -0.5138 -1.8312
  297MOL0     H39185   6.294   2.600  10.922 -0.0033  0.0968  0.6866
  297MOL0     H39186   7.195   2.438  10.504 -0.1499  0.5099 -0.9797
  297MOL0     H39187   7.409   2.346  10.631  3.0399  0.3497 -0.5543
  297MOL0     H39188   7.840   2.584  10.729  1.8847  1.2887  0.9597
  297MOL0     H39189   8.072   2.537  10.707  0.2755 -0.3344 -0.8018
  297MOL0     H39190   9.491   1.918   9.655 -1.3635  1.0037 -0.9497
  297MOL0     H39191   9.721   1.950   9.630 -0.9790  1.7634 -0.2481
  297MOL0     H39192  10.095   2.129   9.714  0.7918  0.3973 -0.8866
  297MOL0     H39193  10.323   2.132   9.679 -1.8304  2.1835  1.1356
  297MOL0     H39194  10.713   1.979   9.907  1.8335  1.7545  2.6942
  297MOL0     H39195  10.590   1.886   9.976 -1.6963 -0.1102 -0.1375
  297MOL0     H39196  10.537   2.074  10.147  0.0841  0.0335  0.9315
  297MOL0     H39197  10.693   2.026  10.138 -0.3566 -1.2126 -0.9207
  297MOL0     H39198  10.604   2.268   9.969 -4.0085 -1.7705  2.2208
  297MOL0     H39199  10.764   2.204   9.995  0.1223 -1.8622 -0.7802
  297MOL0     H39200  10.776   2.278  10.213  1.2506 -2.5506 -0.7974
  297MOL0     H39201  10.710   2.412  10.122  0.9447  0.2222  1.2141
  297MOL0     H39202  10.396   2.271  10.394  1.5605  1.9120  0.4760
  297MOL0     H39203  10.378   1.907  10.046 -0.4246 -3.4234 -0.8971
  297MOL0     H39204  10.130   1.896  10.065 -1.0131  0.1331 -1.5757
  298MOL0     O39205   8.800  10.879   1.395 -0.1720 -0.9447 -0.3298
  298MOL0     C39206   8.717  10.886   1.311  0.6772 -1.0569 -0.2966
  298MOL0     O39207   8.740  10.881   1.173 -0.9401  0.7056 -0.7607
  298MOL0     C39208   8.866  10.850   1.124  0.1106  0.2257 -0.7191
  298MOL0     C39209   8.881  10.766   1.016  0.0365  1.7475 -0.3241
  298MOL0     C39210   9.000  10.735   0.958 -0.1761 -0.3655 -0.3126
  298MOL0     C39211   9.116  10.787   1.013 -0.6884  0.1895  0.2740
  298MOL0     O39212   9.230  10.726   0.976 -0.0068 -0.1409  0.5643
  298MOL0     C39213   9.352  10.779   1.019 -0.1984 -0.0532 -0.4280
  298MOL0     C39214   9.389  10.916   0.960  0.2714  0.7684 -0.5682
  298MOL0     C39215   9.537  10.939   0.985  0.5080 -0.2454 -0.8346
  298MOL0     C39216   9.560  11.071   0.914  0.0081 -0.0317 -1.1849
  298MOL0     C39217   9.710  11.087   0.914 -1.0846 -0.3941 -0.7527
  298MOL0     C39218   9.749  11.197   0.824 -0.2059 -0.6647  0.1889
  298MOL0     C39219   9.900  11.223   0.807  0.3227 -1.1434 -0.6507
  298MOL0     C39220   9.966  11.306   0.922  0.1300 -0.9372  0.1006
  298MOL0     N39221  10.103  11.328   0.881 -1.0094 -1.1253 -0.3564
  298MOL0     C39222  10.209  11.236   0.860  0.1755  0.0080  0.0149
  298MOL0     C39223  10.310  11.308   0.800  0.2416 -0.5120  0.4030
  298MOL0     C39224  10.434  11.242   0.745 -0.0176 -0.5678  0.4637
  298MOL0     C39225  10.436  11.236   0.594  0.9357 -0.2219 -0.5398
  298MOL0     C39226  10.565  11.164   0.565 -0.2907  0.6131 -0.5041
  298MOL0     C39227  10.579  11.130   0.414  0.6786  0.1334  0.5546
  298MOL0     O39228  10.710  11.082   0.403  0.6787 -0.7991 -0.9982
  298MOL0     C39229  10.777  11.065   0.286 -0.1263  0.0230 -0.4334
  298MOL0     C39230  10.707  11.063   0.167  0.2569 -0.1840  0.5720
  298MOL0     C39231  10.775  11.042   0.042 -0.9631 -0.0134  0.4880
  298MOL0     C39232  10.915  11.018   0.043 -0.3485 -0.6569 -0.8221
  298MOL0     C39233  10.989  10.963  -0.079  0.4407  0.1727 -0.0504
  298MOL0     O39234  11.124  10.970  -0.080 -0.1483  0.1797  0.0373
  298MOL0     C39235  11.189  10.882  -0.153  0.0370 -1.0499  0.0706
  298MOL0     C39236  11.254  10.924  -0.270 -0.5113  1.1421  0.2299
  298MOL0     C39237  11.339  10.831  -0.331  0.5184 -0.0818  0.1772
  298MOL0     C39238  11.363  10.703  -0.279  0.8658  0.2122 -0.5753
  298MOL0     O39239  11.451  10.630  -0.349  0.5308 -0.0611  0.0224
  298MOL0     C39240  11.487  10.503  -0.288  0.6689  0.3770  0.3236
  298MOL0     C39241  11.601  10.443  -0.368  0.2165 -0.4408  0.9872
  298MOL0     C39242  11.734  10.518  -0.352  0.0388  1.0720  0.5555
  298MOL0     C39243  11.832  10.456  -0.449 -0.1617 -0.1248  0.0089
  298MOL0     C39244  11.946  10.553  -0.478  0.2212 -0.5742  0.3250
  298MOL0     C39245  12.050  10.546  -0.370 -1.0359 -0.5328  0.0897
  298MOL0     C39246  12.170  10.641  -0.387  0.3027 -0.4364  0.6937
  298MOL0     C39247  12.260  10.651  -0.269 -0.3999  0.0267 -0.2027
  298MOL0    Cl39248  12.383  10.778  -0.308  0.1763 -0.3198  0.0214
  298MOL0     C39249  11.274  10.658  -0.171 -0.7879 -0.3867 -0.4913
  298MOL0     C39250  11.196  10.758  -0.110  0.6141  0.9837 -0.9235
  298MOL0     O39251  10.919  10.918  -0.171  0.5370 -0.2856  0.0036
  298MOL0     C39252  10.985  11.030   0.171  0.2716  0.0538  0.1267
  298MOL0     C39253  10.914  11.050   0.295  0.7993  0.0626 -0.4802
  298MOL0     N39254  10.267  11.438   0.785 -0.6917  0.4235 -0.2598
  298MOL0     N39255  10.145  11.449   0.835 -0.1223 -0.1664 -0.0041
  298MOL0     C39256   9.107  10.875   1.116 -0.2004 -0.1499 -1.0480
  298MOL0     C39257   8.987  10.909   1.177  0.1246  0.9063  0.3530
  298MOL0     C39258   8.572  10.896   1.355 -0.4199  0.3114 -0.0988
  298MOL0     C39259   8.532  10.848   1.485  0.2620  0.4685  0.3185
  298MOL0     C39260   8.396  10.864   1.526 -0.5570  0.3259  0.5168
  298MOL0     C39261   8.296  10.903   1.428 -1.2547  0.6724 -0.0249
  298MOL0     O39262   8.166  10.887   1.458 -0.0662 -0.4179 -0.2351
  298MOL0     C39263   8.059  10.937   1.377  0.1549  1.0480  0.5869
  298MOL0     C39264   8.026  10.829   1.270 -0.5476  0.8732 -0.9860
  298MOL0     C39265   7.930  10.876   1.159  0.0129 -0.1553 -0.1998
  298MOL0     C39266   7.891  10.747   1.074 -0.4484 -1.2311  0.4780
  298MOL0     C39267   7.883  10.803   0.937  0.1020  0.7307 -0.2532
  298MOL0     C39268   7.872  10.838   0.823  0.3159 -0.1787  0.4894
  298MOL0     C39269   8.337  10.947   1.302  0.5890  0.4564 -0.1475
  298MOL0     C39270   8.473  10.939   1.261  0.5416  0.7649  0.0299
  298MOL0     H39271   8.800  10.727   0.956  0.9041 -1.9460  0.6935
  298MOL0     H39272   9.004  10.664   0.877 -4.2848 -0.8817 -0.2901
  298MOL0     H39273   9.429  10.715   0.974  1.6572  1.8062 -0.0233
  298MOL0     H39274   9.351  10.757   1.126 -1.2694 -4.5638 -1.1419
  298MOL0     H39275   9.334  10.995   1.012 -1.4717  0.2478 -1.5442
  298MOL0     H39276   9.359  10.908   0.855 -1.9335 -1.4918  0.1507
  298MOL0     H39277   9.602  10.859   0.948 -0.4979 -1.1454 -0.6873
  298MOL0     H39278   9.557  10.938   1.093  0.2468 -2.2686 -0.7740
  298MOL0     H39279   9.521  11.065   0.812 -1.4879 -1.5958 -0.5795
  298MOL0     H39280   9.512  11.157   0.961  0.3082 -0.7652  0.5342
  298MOL0     H39281   9.753  10.998   0.867 -2.0185 -0.3727 -1.6878
  298MOL0     H39282   9.730  11.106   1.019 -1.3184  0.1385 -0.8042
  298MOL0     H39283   9.701  11.290   0.854 -0.6741 -1.7117  3.0273
  298MOL0     H39284   9.711  11.187   0.722  1.9800  0.4781 -0.8093
  298MOL0     H39285   9.957  11.132   0.786  0.4010 -0.8311 -1.9151
  298MOL0     H39286   9.898  11.287   0.718  1.3864  0.1824  0.2388
  298MOL0     H39287   9.973  11.250   1.015  2.1650  0.1422  0.6478
  298MOL0     H39288   9.911  11.400   0.937 -1.3251 -2.1136  2.6675
  298MOL0     H39289  10.202  11.128   0.864 -2.1111 -0.0486 -2.5990
  298MOL0     H39290  10.426  11.142   0.788 -1.4826 -0.1927  1.1313
  298MOL0     H39291  10.527  11.290   0.778  0.3035 -0.6165 -0.3500
  298MOL0     H39292  10.430  11.337   0.554 -1.3033  0.0359  0.3136
  298MOL0     H39293  10.358  11.168   0.558  1.8533 -1.5259 -0.1590
  298MOL0     H39294  10.642  11.234   0.598 -0.2589  1.5422 -2.3974
  298MOL0     H39295  10.582  11.071   0.620  0.3263  2.7094  3.1801
  298MOL0     H39296  10.556  11.218   0.354 -0.2708 -1.6072 -1.8089
  298MOL0     H39297  10.510  11.050   0.383  2.4607 -1.5532  0.7768
  298MOL0     H39298  10.604  11.097   0.167 -0.3052 -1.6362  3.2824
  298MOL0     H39299  10.717  11.041  -0.049 -1.0187 -1.1855  0.5283
  298MOL0     H39300  11.236  11.019  -0.319 -0.2938 -0.1590 -2.5409
  298MOL0     H39301  11.382  10.846  -0.429 -0.7806 -0.9425 -0.5680
  298MOL0     H39302  11.403  10.434  -0.293 -0.2545  1.4971  0.1681
  298MOL0     H39303  11.519  10.509  -0.184  1.4732  0.0942  0.1028
  298MOL0     H39304  11.550  10.443  -0.465 -2.0572 -1.1489  2.1179
  298MOL0     H39305  11.617  10.338  -0.342  0.4507 -0.2222  1.7282
  298MOL0     H39306  11.777  10.507  -0.252  0.2191 -0.5365  0.3283
  298MOL0     H39307  11.722  10.625  -0.374 -0.6074  0.8782 -0.0709
  298MOL0     H39308  11.866  10.362  -0.405  0.6869 -1.0415 -2.4480
  298MOL0     H39309  11.786  10.431  -0.545 -1.1315 -1.0070  0.6834
  298MOL0     H39310  11.899  10.651  -0.469 -1.6412 -1.1900 -1.8001
  298MOL0     H39311  11.985  10.531  -0.578 -0.0967 -3.4183  0.7317
  298MOL0     H39312  12.092  10.446  -0.384 -0.3575 -0.3486  0.7658
  298MOL0     H39313  12.023  10.558  -0.264 -0.0014  0.5747  0.2520
  298MOL0     H39314  12.216  10.618  -0.483 -2.0469 -0.7239 -0.4336
  298MOL0     H39315  12.115  10.736  -0.390 -0.1772 -0.6901  1.3330
  298MOL0     H39316  12.305  10.553  -0.250 -0.9178  0.2344  2.5073
  298MOL0     H39317  12.198  10.677  -0.182  0.1715  0.6265  0.0318
  298MOL0     H39318  11.275  10.557  -0.131 -0.0429  0.0030  0.4871
  298MOL0     H39319  11.143  10.741  -0.017 -1.8794  0.7673 -2.2934
  298MOL0     H39320  11.091  11.010   0.179  0.8140  1.9427 -1.6796
  298MOL0     H39321  10.969  11.063   0.388  1.0864  0.1793 -0.6653
  298MOL0     H39322   9.199  10.913   1.160 -1.9252  1.7283  1.1934
  298MOL0     H39323   8.983  10.986   1.253 -1.4719  0.8693  0.3534
  298MOL0     H39324   8.600  10.793   1.550 -1.5569 -2.9539 -0.4382
  298MOL0     H39325   8.352  10.841   1.622  1.2798  0.0574  1.3426
  298MOL0     H39326   8.095  11.028   1.328  1.4236  1.0892  1.5365
  298MOL0     H39327   7.977  10.960   1.445 -1.8315 -0.2780 -1.2347
  298MOL0     H39328   8.121  10.789   1.233 -1.5570 -2.1098 -0.6383
  298MOL0     H39329   7.988  10.742   1.325  1.9404 -0.4234 -1.1794
  298MOL0     H39330   7.989  10.951   1.105 -2.7681  1.2728 -1.4599
  298MOL0     H39331   7.846  10.932   1.200 -0.3919 -1.1888  0.4227
  298MOL0     H39332   7.969  10.671   1.075 -3.0455 -4.2512 -1.9622
  298MOL0     H39333   7.796  10.705   1.108  1.1153 -3.8457  1.9732
  298MOL0     H39334   7.862  10.882   0.726  0.8482 -0.9520  0.0787
  298MOL0     H39335   8.264  10.987   1.233 -1.5168  0.6580  2.0576
  298MOL0     H39336   8.491  10.976   1.161 -0.6443  1.4068  0.0371
  299MOL0     O39337   3.501   2.074   6.051  0.1301  0.3546 -0.0155
  299MOL0     C39338   3.536   2.117   5.941 -1.1463 -0.8130 -0.9975
  299MOL0     O39339   3.458   2.129   5.837 -0.5328 -0.1043  0.4067
  299MOL0     C39340   3.331   2.077   5.825  0.6966  0.3449 -0.8029
  299MOL0     C39341   3.235   2.094   5.920  0.0039  1.3085  0.3333
  299MOL0     C39342   3.104   2.052   5.903  0.1327  0.0646 -0.1623
  299MOL0     C39343   3.075   2.005   5.777  0.1254 -0.4110  1.6113
  299MOL0     O39344   2.943   1.976   5.755 -0.4592 -0.2591  0.1302
  299MOL0     C39345   2.898   1.927   5.631  0.4112  0.1965  0.5206
  299MOL0     C39346   2.741   1.927   5.625  0.0618  1.1557 -0.4129
  299MOL0     C39347   2.664   2.054   5.645 -1.0440 -0.9765 -0.2052
  299MOL0     C39348   2.511   2.035   5.641  0.3817  0.1689  0.1228
  299MOL0     C39349   2.441   2.173   5.648 -0.8100  0.6923 -0.1400
  299MOL0     C39350   2.292   2.161   5.644 -0.0096 -0.5982 -0.5803
  299MOL0     C39351   2.230   2.047   5.734  0.8680  0.4953  0.2991
  299MOL0     C39352   2.099   2.071   5.808  0.3731 -0.6972  0.1235
  299MOL0     N39353   2.100   2.186   5.901  1.0715  0.7918  0.4720
  299MOL0     C39354   2.208   2.250   5.946 -0.2324 -0.5082 -0.4065
  299MOL0     C39355   2.167   2.343   6.031 -0.1162 -0.4494 -0.1154
  299MOL0     C39356   2.254   2.424   6.123 -0.4210  0.8046  0.3094
  299MOL0     C39357   2.347   2.510   6.041 -0.4683 -0.1965  0.7818
  299MOL0     C39358   2.458   2.576   6.130  0.0938 -0.4764 -0.0941
  299MOL0     C39359   2.550   2.663   6.048  0.7493  0.3396 -0.4765
  299MOL0     O39360   2.639   2.702   6.147 -0.1516 -0.2546 -0.1594
  299MOL0     C39361   2.758   2.755   6.121  0.0188  0.3894 -0.3918
  299MOL0     C39362   2.811   2.817   6.234 -1.4493 -0.0789  0.2535
  299MOL0     C39363   2.923   2.894   6.219 -1.4501  0.6194  0.3286
  299MOL0     C39364   2.991   2.904   6.097 -0.1396 -0.3102 -0.1162
  299MOL0     C39365   3.117   2.982   6.101  1.1289  0.6262  0.1809
  299MOL0     O39366   3.209   2.928   6.015  0.1410 -0.5651 -0.5814
  299MOL0     C39367   3.326   3.005   5.991 -0.0145  0.8205  0.0704
  299MOL0     C39368   3.406   2.940   5.892  0.2266  1.0918  0.4053
  299MOL0     C39369   3.534   2.988   5.862 -0.0922  0.4089 -0.4111
  299MOL0     C39370   3.576   3.104   5.918  0.2203  0.1031  0.5806
  299MOL0     O39371   3.701   3.146   5.898  0.0865 -0.0698 -0.2654
  299MOL0     C39372   3.703   3.256   5.808 -0.7929 -0.1636 -0.3673
  299MOL0     C39373   3.831   3.258   5.724  0.4056  0.5075  0.7652
  299MOL0     C39374   3.833   3.151   5.614  0.7145 -1.1908 -0.3672
  299MOL0     C39375   3.947   3.161   5.519  0.2897  0.3077  0.0041
  299MOL0     C39376   4.080   3.153   5.576 -0.1872  0.6904  0.0422
  299MOL0     C39377   4.186   3.156   5.463  0.4561  0.8104  0.0515
  299MOL0     C39378   4.331   3.134   5.508 -0.7925 -0.1072  0.3386
  299MOL0     C39379   4.432   3.155   5.392 -0.5527  0.0076  0.3185
  299MOL0    Cl39380   4.455   3.335   5.362 -0.0317  0.2325 -0.0674
  299MOL0     C39381   3.488   3.176   6.002 -0.4932 -0.8538 -0.1115
  299MOL0     C39382   3.362   3.132   6.039  0.2538 -0.3467  0.0508
  299MOL0     O39383   3.135   3.062   6.197  0.0453  0.2827  1.0739
  299MOL0     C39384   2.936   2.844   5.984 -0.0597 -0.6099  0.2260
  299MOL0     C39385   2.817   2.772   5.997 -0.2543 -0.6168 -0.1225
  299MOL0     N39386   2.033   2.352   6.017 -0.0788  0.5590  0.5271
  299MOL0     N39387   1.994   2.253   5.944 -0.4653 -0.0083  0.0512
  299MOL0     C39388   3.170   1.982   5.681  0.6741  0.2205  0.2198
  299MOL0     C39389   3.299   2.017   5.707  0.9197  0.7220 -0.0399
  299MOL0     C39390   3.678   2.156   5.930  0.4496 -0.0047 -0.5692
  299MOL0     C39391   3.733   2.237   5.828  0.3304 -0.4964  0.4040
  299MOL0     C39392   3.870   2.253   5.805  0.5559  0.9433 -0.0547
  299MOL0     C39393   3.959   2.182   5.893  0.3796 -0.8896  0.0421
  299MOL0     O39394   4.094   2.193   5.857  0.3445 -0.5628  0.1002
  299MOL0     C39395   4.123   2.088   5.768  0.3692 -0.1188  0.1604
  299MOL0     C39396   4.242   2.121   5.690  0.2872 -0.1195  0.2638
  299MOL0     C39397   4.220   2.254   5.602  0.0704  0.7970 -0.3070
  299MOL0     C39398   4.337   2.265   5.500  0.0597 -0.4400  0.1574
  299MOL0     C39399   4.475   2.273   5.544  0.4409  0.6300 -0.2586
  299MOL0     C39400   4.591   2.297   5.556 -0.0488 -0.3183 -1.2314
  299MOL0     C39401   3.907   2.122   6.007  0.5783  0.0522  0.1269
  299MOL0     C39402   3.773   2.098   6.017 -0.0983  0.1644 -0.1088
  299MOL0     H39403   3.253   2.145   6.014 -3.0797 -0.5031  2.0770
  299MOL0     H39404   3.029   2.072   5.979  0.3367  0.8436 -0.1631
  299MOL0     H39405   2.927   1.823   5.614  0.5831  0.7529 -3.5121
  299MOL0     H39406   2.933   1.986   5.546  0.7892 -3.3365 -2.0055
  299MOL0     H39407   2.707   1.856   5.701  2.8311  1.7591  1.5590
  299MOL0     H39408   2.717   1.891   5.525  2.5135 -1.2970 -0.2242
  299MOL0     H39409   2.705   2.118   5.565 -0.5361 -1.7047 -0.5376
  299MOL0     H39410   2.705   2.096   5.737 -0.0722 -0.8167 -0.6985
  299MOL0     H39411   2.480   1.983   5.550  0.6055 -2.6734  1.5479
  299MOL0     H39412   2.473   1.981   5.729  0.1929  0.6651  0.3536
  299MOL0     H39413   2.480   2.236   5.567 -0.4961  3.2835  1.8735
  299MOL0     H39414   2.462   2.221   5.744 -0.7703 -3.8689  2.4295
  299MOL0     H39415   2.266   2.135   5.541  0.2008 -0.1508 -0.7502
  299MOL0     H39416   2.260   2.262   5.670  0.7729 -0.7802  1.2739
  299MOL0     H39417   2.225   1.957   5.672  1.9566  0.3120  0.4686
  299MOL0     H39418   2.301   2.031   5.816 -0.6299  0.2374  1.5924
  299MOL0     H39419   2.085   1.983   5.872 -0.2736  0.3804  1.5341
  299MOL0     H39420   2.011   2.080   5.743  1.6080  0.0006 -1.5123
  299MOL0     H39421   2.306   2.219   5.912 -0.5435  0.1332 -2.0126
  299MOL0     H39422   2.302   2.351   6.189 -1.3952 -0.8116 -0.7104
  299MOL0     H39423   2.190   2.487   6.185 -0.3127 -0.7483  2.0749
  299MOL0     H39424   2.301   2.590   5.982  0.9662  0.5296  0.5822
  299MOL0     H39425   2.403   2.442   5.976  2.2237  3.8271 -1.6131
  299MOL0     H39426   2.400   2.633   6.203  0.2745  0.5332 -0.7140
  299MOL0     H39427   2.510   2.493   6.179  0.6909 -1.4217 -2.2213
  299MOL0     H39428   2.487   2.745   6.013 -0.5107 -0.3044  0.2186
  299MOL0     H39429   2.588   2.606   5.963 -0.4934  0.9255 -1.4478
  299MOL0     H39430   2.762   2.807   6.330  0.1311 -0.6165  1.0393
  299MOL0     H39431   2.962   2.941   6.308  1.1955 -0.1458 -0.3585
  299MOL0     H39432   3.374   2.844   5.851 -1.4407  2.0563 -0.7071
  299MOL0     H39433   3.601   2.940   5.792  1.4539  1.1106  0.5402
  299MOL0     H39434   3.713   3.349   5.865  2.2029 -0.0845 -0.8809
  299MOL0     H39435   3.617   3.258   5.740  0.6301 -2.8364 -2.4719
  299MOL0     H39436   3.920   3.238   5.785  1.0261 -1.2431 -0.6280
  299MOL0     H39437   3.841   3.360   5.686  1.1917  0.9608  2.1064
  299MOL0     H39438   3.739   3.158   5.558  1.1338  0.0458 -0.9564
  299MOL0     H39439   3.847   3.053   5.661  1.8861 -0.9654 -0.2131
  299MOL0     H39440   3.939   3.066   5.466  2.3352 -0.7943  1.5147
  299MOL0     H39441   3.944   3.247   5.452  2.8277  1.7933  1.6332
  299MOL0     H39442   4.074   3.066   5.642 -0.1653  0.3593 -0.3873
  299MOL0     H39443   4.092   3.236   5.646 -0.3388  0.5088  0.2866
  299MOL0     H39444   4.185   3.255   5.417  0.4362  0.9966  0.4452
  299MOL0     H39445   4.165   3.085   5.383 -1.0935  0.4025  0.7721
  299MOL0     H39446   4.351   3.201   5.592  1.9212 -1.6596  1.0711
  299MOL0     H39447   4.342   3.038   5.560 -0.9854  1.0189  2.5681
  299MOL0     H39448   4.384   3.114   5.303 -0.4597  0.1482  0.2028
  299MOL0     H39449   4.521   3.096   5.417 -1.2391 -1.7265 -1.1256
  299MOL0     H39450   3.529   3.272   6.031 -0.8882  0.7667 -4.2626
  299MOL0     H39451   3.298   3.190   6.104 -1.6171 -1.5735 -0.6181
  299MOL0     H39452   2.991   2.835   5.891 -3.0742 -0.1276 -1.7604
  299MOL0     H39453   2.773   2.723   5.910 -0.7861  1.5980 -1.1736
  299MOL0     H39454   3.145   1.929   5.589 -0.9608  1.4623 -0.0988
  299MOL0     H39455   3.369   1.994   5.627  0.6002 -2.1027  0.4017
  299MOL0     H39456   3.664   2.295   5.768  0.8257 -1.4882 -1.1679
  299MOL0     H39457   3.912   2.314   5.726  1.3251 -0.2236 -0.5641
  299MOL0     H39458   4.040   2.056   5.704  1.4288  0.1344 -1.4032
  299MOL0     H39459   4.147   1.996   5.821 -0.0786 -0.7150 -0.6560
  299MOL0     H39460   4.332   2.136   5.749  1.2254  1.1135 -1.4067
  299MOL0     H39461   4.251   2.043   5.614 -1.5639  0.0583 -0.1975
  299MOL0     H39462   4.222   2.344   5.664  1.5692  1.2156 -0.8974
  299MOL0     H39463   4.118   2.245   5.565  0.1464 -0.3016 -0.2738
  299MOL0     H39464   4.337   2.176   5.437 -0.6963 -0.2891 -0.0666
  299MOL0     H39465   4.315   2.337   5.421  0.3377 -0.3380  0.1709
  299MOL0     H39466   4.694   2.322   5.574 -1.2917  2.5189  4.0357
  299MOL0     H39467   3.968   2.074   6.082  2.6645 -0.5767 -1.8814
  299MOL0     H39468   3.740   2.046   6.107 -0.3831 -1.2348 -0.9910
  300MOL0     O39469   4.254   7.621   9.394 -0.0525  0.0931  0.4245
  300MOL0     C39470   4.344   7.534   9.393  0.3600  0.3353  0.3376
  300MOL0     O39471   4.316   7.398   9.360  0.4742 -0.0263 -0.0670
  300MOL0     C39472   4.179   7.366   9.331  0.3776  0.2804  0.4702
  300MOL0     C39473   4.120   7.260   9.394  0.3552 -0.3851  0.4896
  300MOL0     C39474   3.995   7.217   9.364 -0.1516 -0.2992  0.1509
  300MOL0     C39475   3.918   7.286   9.275 -0.4007 -0.1093 -0.2575
  300MOL0     O39476   3.800   7.229   9.231 -0.4315  0.2680  0.3680
  300MOL0     C39477   3.722   7.295   9.128  0.2584 -0.5121 -0.4362
  300MOL0     C39478   3.576   7.239   9.117 -0.4716  0.0721  0.2492
  300MOL0     C39479   3.472   7.322   9.200 -0.5666 -0.2504  0.0907
  300MOL0     C39480   3.335   7.301   9.151 -0.0178  0.3618 -0.2091
  300MOL0     C39481   3.238   7.397   9.214 -0.0235 -0.9024 -0.3824
  300MOL0     C39482   3.091   7.344   9.220 -0.7928  0.1145  0.4984
  300MOL0     C39483   2.995   7.449   9.281 -0.0705 -0.5090  1.7949
  300MOL0     C39484   2.862   7.376   9.313 -0.0165  0.2039 -0.0809
  300MOL0     N39485   2.764   7.465   9.375 -0.9486  0.2589 -0.0974
  300MOL0     C39486   2.634   7.470   9.338  1.1076  1.0947  0.0556
  300MOL0     C39487   2.581   7.572   9.416  0.2688 -0.6351 -0.5055
  300MOL0     C39488   2.434   7.614   9.424  0.8806  0.4022 -0.2140
  300MOL0     C39489   2.379   7.607   9.568  0.3239 -0.4986 -0.4591
  300MOL0     C39490   2.363   7.463   9.614  0.1176  0.4667 -0.5962
  300MOL0     C39491   2.248   7.435   9.716 -0.0609 -0.8530 -0.1494
  300MOL0     O39492   2.257   7.528   9.831 -1.0282  0.7124  0.0358
  300MOL0     C39493   2.135   7.568   9.889 -0.6655 -0.0352 -0.3295
  300MOL0     C39494   2.127   7.694   9.944  0.4954 -0.1830 -0.3325
  300MOL0     C39495   2.015   7.733  10.023 -0.6385  0.0782 -0.7191
  300MOL0     C39496   1.901   7.657  10.039 -0.0789  0.2286 -0.0749
  300MOL0     C39497   1.793   7.707  10.124  0.4115 -0.4778 -0.4334
  300MOL0     O39498   1.809   7.820  10.197  0.9084 -0.2761  0.5932
  300MOL0     C39499   1.702   7.883  10.255 -0.2796  0.2354  0.5321
  300MOL0     C39500   1.644   7.978  10.169 -0.1075 -0.3663 -1.0108
  300MOL0     C39501   1.521   8.038  10.217 -0.3237  0.4184  0.5716
  300MOL0     C39502   1.473   8.000  10.348  0.2784  0.4666 -0.6404
  300MOL0     O39503   1.356   8.062  10.388 -0.0349 -0.0018  0.6166
  300MOL0     C39504   1.255   7.969  10.418 -0.8380 -0.7983 -0.5828
  300MOL0     C39505   1.135   8.052  10.463 -0.9918  0.2675  0.2972
  300MOL0     C39506   1.049   8.080  10.346 -0.2557  0.6872 -0.4543
  300MOL0     C39507   0.921   8.153  10.390 -0.2167 -0.7762 -0.9471
  300MOL0     C39508   0.827   8.165  10.267 -0.5978 -0.8021 -0.4731
  300MOL0     C39509   0.748   8.298  10.268  0.2711 -0.4968 -0.6349
  300MOL0     C39510   0.651   8.307  10.396 -0.7296  0.3861  0.4472
  300MOL0     C39511   0.519   8.385  10.362  0.0559 -0.1632  0.7481
  300MOL0    Cl39512   0.418   8.305  10.240  0.1231 -0.5885 -0.2200
  300MOL0     C39513   1.547   7.911  10.434 -0.3405 -0.1854 -0.4681
  300MOL0     C39514   1.661   7.848  10.380 -0.0780  0.7641 -0.0010
  300MOL0     O39515   1.687   7.647  10.110 -0.1502  0.6732 -0.0782
  300MOL0     C39516   1.905   7.532   9.979 -0.5463  0.1641 -0.3428
  300MOL0     C39517   2.020   7.479   9.908  0.0719 -0.1590 -0.4752
  300MOL0     N39518   2.682   7.625   9.495  0.9924 -0.2770  1.2749
  300MOL0     N39519   2.786   7.558   9.469 -0.2395 -0.0330  0.3295
  300MOL0     C39520   3.974   7.395   9.204  1.5206  0.0485  0.3005
  300MOL0     C39521   4.106   7.432   9.226 -0.0042  0.2355  0.8606
  300MOL0     C39522   4.475   7.580   9.436  0.8330 -0.4968 -0.3291
  300MOL0     C39523   4.584   7.523   9.357  0.1109  0.3261  1.1790
  300MOL0     C39524   4.712   7.558   9.394 -0.0698  0.5684  0.3424
  300MOL0     C39525   4.739   7.644   9.498  0.4618 -0.7449  0.2200
  300MOL0     O39526   4.868   7.673   9.536  0.1905  0.3764 -0.6712
  300MOL0     C39527   4.982   7.617   9.465 -0.1750 -0.3203 -0.0115
  300MOL0     C39528   4.997   7.676   9.326  0.5116 -0.5686  0.2807
  300MOL0     C39529   5.111   7.785   9.322  0.9697  0.0905  0.1527
  300MOL0     C39530   5.243   7.727   9.273 -0.4825 -0.6858 -0.3185
  300MOL0     C39531   5.305   7.651   9.372 -0.1851  0.6806 -0.8439
  300MOL0     C39532   5.358   7.577   9.455 -0.6111  0.3854  0.4762
  300MOL0     C39533   4.629   7.709   9.568 -0.1097  0.2257  0.6901
  300MOL0     C39534   4.498   7.676   9.536  0.1111  1.1412  0.2543
  300MOL0     H39535   4.171   7.208   9.474  0.2518  1.4488  1.8064
  300MOL0     H39536   3.957   7.121   9.397 -0.9377 -0.0016  0.1365
  300MOL0     H39537   3.773   7.282   9.032  0.6809 -0.8333 -0.1748
  300MOL0     H39538   3.711   7.401   9.154 -0.0541 -0.4256 -0.9090
  300MOL0     H39539   3.571   7.136   9.154 -0.9117  0.1024  0.2786
  300MOL0     H39540   3.549   7.242   9.011 -0.0165  0.5644  0.1449
  300MOL0     H39541   3.506   7.426   9.195  5.5053 -1.6905  2.7214
  300MOL0     H39542   3.478   7.282   9.301 -1.9244  1.8920  1.1021
  300MOL0     H39543   3.319   7.315   9.044 -0.6986  1.0599 -0.0271
  300MOL0     H39544   3.300   7.202   9.183 -0.1043  0.6925  0.7691
  300MOL0     H39545   3.249   7.493   9.163 -0.6657 -1.8324 -2.3577
  300MOL0     H39546   3.269   7.408   9.319  0.6416  1.8217 -0.7796
  300MOL0     H39547   3.086   7.261   9.291 -4.5002  1.4898  2.1380
  300MOL0     H39548   3.057   7.308   9.123  2.6791 -3.6133  0.4146
  300MOL0     H39549   3.040   7.493   9.371  2.1950 -2.1626  1.5519
  300MOL0     H39550   2.983   7.534   9.213  0.8103 -0.9621  1.0647
  300MOL0     H39551   2.877   7.288   9.377  1.2719  0.1369 -0.4480
  300MOL0     H39552   2.822   7.348   9.215  0.1330  1.1110 -0.4042
  300MOL0     H39553   2.580   7.409   9.266  3.4084  1.8037 -2.4746
  300MOL0     H39554   2.373   7.562   9.349 -1.0211  0.1535  1.4393
  300MOL0     H39555   2.426   7.721   9.403 -3.6869  0.5107  0.9954
  300MOL0     H39556   2.284   7.659   9.554  2.0290  2.5346 -1.7500
  300MOL0     H39557   2.434   7.658   9.647  0.0501  0.1178 -0.6614
  300MOL0     H39558   2.353   7.391   9.532  1.7107 -3.9695  2.7361
  300MOL0     H39559   2.457   7.442   9.667 -0.4035 -0.1177  0.1010
  300MOL0     H39560   2.244   7.330   9.744  1.2606 -1.0987 -0.8006
  300MOL0     H39561   2.158   7.458   9.658  1.4836  2.3320 -1.5103
  300MOL0     H39562   2.199   7.775   9.942  0.8594 -0.4300  1.2136
  300MOL0     H39563   1.991   7.832  10.061 -2.9010 -1.1182  1.2361
  300MOL0     H39564   1.691   8.000  10.074 -1.0792  0.6689 -1.2692
  300MOL0     H39565   1.476   8.116  10.156  2.6394  2.0951  0.3225
  300MOL0     H39566   1.283   7.908  10.504  0.0583 -1.5519 -1.4008
  300MOL0     H39567   1.222   7.909  10.333 -3.6434 -0.1692 -0.0530
  300MOL0     H39568   1.161   8.141  10.520 -0.9480  0.6738 -0.3546
  300MOL0     H39569   1.082   7.980  10.527 -0.5584 -3.0721 -2.7520
  300MOL0     H39570   1.013   7.983  10.311 -0.8278  1.4068 -1.9913
  300MOL0     H39571   1.107   8.121  10.263 -0.4848  2.0133  0.0069
  300MOL0     H39572   0.857   8.100  10.461 -0.0969  0.5893  0.2087
  300MOL0     H39573   0.936   8.258  10.417  1.8818 -1.5255  1.1575
  300MOL0     H39574   0.766   8.075  10.254  0.2890 -0.9852 -5.5606
  300MOL0     H39575   0.894   8.168  10.180  2.0432 -0.6142  1.4501
  300MOL0     H39576   0.693   8.310  10.174  0.5951 -0.3563 -0.8054
  300MOL0     H39577   0.811   8.386  10.257 -0.4441  0.1374  0.1450
  300MOL0     H39578   0.637   8.204  10.430  3.3581 -0.5024 -0.0525
  300MOL0     H39579   0.703   8.362  10.475  1.0052 -1.6397  0.8108
  300MOL0     H39580   0.542   8.486  10.328 -0.2437 -0.7972 -1.5409
  300MOL0     H39581   0.452   8.383  10.449 -1.9960  0.5487 -0.7269
  300MOL0     H39582   1.508   7.888  10.532  1.5328 -1.1086  0.1158
  300MOL0     H39583   1.713   7.761  10.421 -0.9005  0.8808  1.3227
  300MOL0     H39584   1.821   7.463   9.975 -0.9361  0.6768 -2.4504
  300MOL0     H39585   2.008   7.377   9.874  2.7646 -1.4912  2.1279
  300MOL0     H39586   3.926   7.448   9.122 -0.0044 -3.0805 -0.9916
  300MOL0     H39587   4.145   7.513   9.165  2.0345 -0.8481  0.6235
  300MOL0     H39588   4.565   7.466   9.266  0.5317  2.8249 -0.5690
  300MOL0     H39589   4.784   7.484   9.360 -0.4453  0.2459  0.2376
  300MOL0     H39590   4.973   7.508   9.455 -2.4931 -0.0933 -1.1956
  300MOL0     H39591   5.069   7.639   9.527 -0.2500 -0.0423 -0.0026
  300MOL0     H39592   5.021   7.596   9.255  0.2304 -0.2869 -0.1434
  300MOL0     H39593   4.910   7.733   9.291 -0.1273 -1.8553 -0.2895
  300MOL0     H39594   5.125   7.838   9.417 -1.5247  0.2221  0.4957
  300MOL0     H39595   5.082   7.854   9.243 -1.0567  0.0919  0.8518
  300MOL0     H39596   5.218   7.672   9.182 -0.8237  0.5910 -1.0244
  300MOL0     H39597   5.301   7.814   9.240 -2.5357 -0.3343 -3.3804
  300MOL0     H39598   5.420   7.514   9.515  2.9029  0.9427 -2.1706
  300MOL0     H39599   4.646   7.777   9.651  0.2341 -1.4111  2.0276
  300MOL0     H39600   4.412   7.728   9.576 -0.9244  0.5818 -1.1519
  301MOL0     O39601   7.195   5.538   6.591  0.3563 -0.3770 -0.2883
  301MOL0     C39602   7.078   5.509   6.570  0.0135  0.8255  0.9088
  301MOL0     O39603   7.011   5.539   6.461 -0.6487  0.0710  0.4828
  301MOL0     C39604   7.089   5.557   6.348 -0.4368 -0.2021 -0.2699
  301MOL0     C39605   7.084   5.667   6.274 -0.0794 -1.0659 -0.0395
  301MOL0     C39606   7.177   5.691   6.168 -0.1256 -0.1197  0.7006
  301MOL0     C39607   7.251   5.579   6.121  0.0789 -0.8688  0.3172
  301MOL0     O39608   7.310   5.590   6.004  0.8759 -0.2635  0.4801
  301MOL0     C39609   7.430   5.527   5.966  0.0283  0.0129 -0.2920
  301MOL0     C39610   7.448   5.578   5.822  0.2412 -0.5578  0.0881
  301MOL0     C39611   7.338   5.527   5.727 -0.1668  0.1437 -0.6619
  301MOL0     C39612   7.387   5.544   5.579 -0.4125  0.7135  0.5707
  301MOL0     C39613   7.317   5.441   5.487  0.3738  0.3424  0.2481
  301MOL0     C39614   7.167   5.458   5.466 -0.7612 -0.7810  0.0593
  301MOL0     C39615   7.093   5.328   5.434 -0.3833  0.2084  0.5062
  301MOL0     C39616   7.137   5.261   5.297  0.9653  0.4690  0.7312
  301MOL0     N39617   7.072   5.128   5.282 -0.4989  0.1927  0.9684
  301MOL0     C39618   6.939   5.094   5.303 -0.6674 -1.0846 -1.0264
  301MOL0     C39619   6.936   4.957   5.319 -0.5975 -0.2351 -0.4583
  301MOL0     C39620   6.815   4.869   5.344  0.0521  0.3632  0.2119
  301MOL0     C39621   6.684   4.950   5.367  0.3498 -0.0027  0.2027
  301MOL0     C39622   6.548   4.867   5.377 -0.1103 -0.5912 -0.0219
  301MOL0     C39623   6.454   4.930   5.478  0.2130  0.0400 -0.1915
  301MOL0     O39624   6.439   4.829   5.578  0.4507  0.4629  0.9335
  301MOL0     C39625   6.353   4.850   5.682 -0.4846  0.1103  0.6234
  301MOL0     C39626   6.340   4.737   5.766  0.5573 -0.1400 -0.7229
  301MOL0     C39627   6.250   4.732   5.869 -0.4078 -0.6459  0.2170
  301MOL0     C39628   6.161   4.842   5.885  0.2613  0.5047  1.1499
  301MOL0     C39629   6.051   4.829   5.991 -0.0044 -0.1504 -0.3872
  301MOL0     O39630   5.932   4.899   5.965 -0.0392  0.2913 -0.4133
  301MOL0     C39631   5.836   4.901   6.056  0.2690  0.3403 -0.4541
  301MOL0     C39632   5.860   4.924   6.201  0.1107  0.1634  0.8721
  301MOL0     C39633   5.760   4.900   6.301 -0.3947 -0.3597  0.4105
  301MOL0     C39634   5.629   4.898   6.255  0.1918 -0.3640 -0.5757
  301MOL0     O39635   5.522   4.878   6.343 -0.5137  0.0931  0.0526
  301MOL0     C39636   5.492   4.992   6.411 -0.7668 -0.7164  1.5294
  301MOL0     C39637   5.344   4.999   6.436 -0.3482  0.6671  0.1647
  301MOL0     C39638   5.256   5.010   6.306 -0.3654  0.3251  0.7352
  301MOL0     C39639   5.112   5.051   6.348 -0.6981  0.4039 -0.0867
  301MOL0     C39640   5.007   5.054   6.242  0.1544 -0.6348 -0.0841
  301MOL0     C39641   4.877   5.091   6.303  0.6300  0.6814 -0.7283
  301MOL0     C39642   4.850   5.241   6.276  0.0284 -0.8752  0.2788
  301MOL0     C39643   4.735   5.295   6.353  0.7248  0.3174 -0.9557
  301MOL0    Cl39644   4.591   5.195   6.325  0.1261 -0.1876  0.6730
  301MOL0     C39645   5.600   4.872   6.113  0.1359 -0.3765 -0.0241
  301MOL0     C39646   5.703   4.877   6.017  1.3028  0.0979 -0.0450
  301MOL0     O39647   6.069   4.758   6.085 -0.3322  0.3947 -0.9084
  301MOL0     C39648   6.183   4.954   5.805  0.0555 -0.4610  0.5499
  301MOL0     C39649   6.279   4.961   5.705  0.1374 -0.1088 -0.1215
  301MOL0     N39650   7.065   4.913   5.287  0.9602  1.0167  0.1712
  301MOL0     N39651   7.146   5.014   5.276 -0.3995  0.0302  0.0060
  301MOL0     C39652   7.255   5.467   6.200 -0.3900 -0.4761 -0.1581
  301MOL0     C39653   7.182   5.456   6.306  1.0175 -0.2272 -0.1088
  301MOL0     C39654   6.999   5.469   6.691  0.3895 -0.9912  0.1246
  301MOL0     C39655   7.061   5.389   6.791  0.1305  0.2902 -0.3853
  301MOL0     C39656   6.997   5.369   6.914  0.2584 -0.1268 -0.5201
  301MOL0     C39657   6.864   5.398   6.936 -0.1338 -0.4515 -0.1071
  301MOL0     O39658   6.818   5.358   7.065  0.6597 -0.0916 -0.5153
  301MOL0     C39659   6.701   5.429   7.111  0.7630  0.4441  0.2078
  301MOL0     C39660   6.656   5.364   7.244 -0.2777 -0.7123  0.4853
  301MOL0     C39661   6.619   5.221   7.237  0.6931  0.2744 -0.2056
  301MOL0     C39662   6.535   5.171   7.353 -0.8361  0.2513  0.1735
  301MOL0     C39663   6.601   5.177   7.484 -0.5389 -0.5259  0.2019
  301MOL0     C39664   6.650   5.168   7.592 -1.1216 -0.1748  0.3624
  301MOL0     C39665   6.797   5.472   6.832  0.7844  0.1504  0.8255
  301MOL0     C39666   6.861   5.507   6.706 -0.6686  0.4029 -0.3544
  301MOL0     H39667   7.028   5.741   6.329 -1.0703 -2.7256  1.3055
  301MOL0     H39668   7.173   5.787   6.117  2.0885 -0.5787 -0.4687
  301MOL0     H39669   7.406   5.421   5.972 -1.7252  0.4101  0.2619
  301MOL0     H39670   7.519   5.549   6.025  0.7700 -3.1636 -0.0785
  301MOL0     H39671   7.542   5.550   5.775 -0.2667  1.7322 -2.5889
  301MOL0     H39672   7.446   5.688   5.823 -0.9715 -0.5667  0.9125
  301MOL0     H39673   7.241   5.575   5.740 -0.4607  0.1721 -2.6453
  301MOL0     H39674   7.321   5.421   5.751 -0.8290  0.8834  2.6600
  301MOL0     H39675   7.364   5.644   5.540  1.9207  2.4009  3.1308
  301MOL0     H39676   7.495   5.532   5.574 -0.5523 -0.3048 -0.4900
  301MOL0     H39677   7.334   5.341   5.529  2.4810  0.5397 -0.0273
  301MOL0     H39678   7.351   5.437   5.384 -0.8407 -2.6993 -0.1570
  301MOL0     H39679   7.148   5.538   5.393 -1.4946 -1.0051  0.0047
  301MOL0     H39680   7.132   5.512   5.555  2.1272  3.1172 -0.8580
  301MOL0     H39681   7.118   5.257   5.513  3.4448 -0.5430 -1.1706
  301MOL0     H39682   6.987   5.357   5.435  0.2906  3.0670 -0.3967
  301MOL0     H39683   7.245   5.246   5.302  0.6551 -1.9804  1.2866
  301MOL0     H39684   7.109   5.318   5.207 -0.9903  0.6975  1.4275
  301MOL0     H39685   6.864   5.169   5.324 -0.1338 -1.0831  1.1431
  301MOL0     H39686   6.825   4.798   5.427 -2.6765 -0.7236 -0.2972
  301MOL0     H39687   6.806   4.803   5.258 -1.4493  1.3743 -0.4425
  301MOL0     H39688   6.659   5.025   5.292 -2.3820 -1.2370 -0.2336
  301MOL0     H39689   6.699   4.996   5.465 -2.2815 -1.8005  1.5774
  301MOL0     H39690   6.491   4.889   5.286 -0.2411 -0.9616 -0.0306
  301MOL0     H39691   6.570   4.763   5.400  3.2060 -0.3711 -1.6548
  301MOL0     H39692   6.362   4.958   5.427  1.6384  2.0353 -1.8476
  301MOL0     H39693   6.512   5.021   5.498  2.5276  0.3376 -6.1480
  301MOL0     H39694   6.407   4.654   5.744 -0.7876 -1.3857 -0.2588
  301MOL0     H39695   6.254   4.645   5.935  1.0260 -1.1622 -0.5192
  301MOL0     H39696   5.965   4.928   6.228 -0.0297 -1.7664  1.8623
  301MOL0     H39697   5.775   4.892   6.408  0.4099 -0.9475  0.2694
  301MOL0     H39698   5.527   5.077   6.351 -0.4371 -2.5568 -1.0129
  301MOL0     H39699   5.533   4.985   6.512  1.4861 -1.1490  0.6365
  301MOL0     H39700   5.328   5.086   6.501  1.7099  1.8108 -0.7650
  301MOL0     H39701   5.314   4.914   6.497 -0.2182 -1.4561 -2.5542
  301MOL0     H39702   5.248   4.915   6.253 -3.8820  1.4222 -1.0696
  301MOL0     H39703   5.299   5.074   6.228  2.1360 -2.2470 -0.1364
  301MOL0     H39704   5.085   4.974   6.420 -1.3434 -1.7957 -2.5383
  301MOL0     H39705   5.102   5.148   6.398  1.1279  1.3076 -1.3642
  301MOL0     H39706   5.010   4.966   6.179  0.8978  0.5643 -1.8038
  301MOL0     H39707   5.043   5.136   6.178  0.1072  2.0871  3.0684
  301MOL0     H39708   4.866   5.070   6.410 -0.2151  1.8476 -0.5675
  301MOL0     H39709   4.800   5.032   6.255  0.4062  0.0957  0.3137
  301MOL0     H39710   4.926   5.313   6.308 -0.8903  0.7650 -1.0379
  301MOL0     H39711   4.826   5.268   6.173 -1.0392  0.0736  0.7522
  301MOL0     H39712   4.699   5.396   6.332  1.0922  0.1513 -2.5117
  301MOL0     H39713   4.762   5.296   6.459 -1.4624 -0.7708 -0.3233
  301MOL0     H39714   5.496   4.855   6.090 -0.1183  1.1320 -0.0502
  301MOL0     H39715   5.676   4.861   5.913 -0.8431  3.1205 -0.0735
  301MOL0     H39716   6.116   5.040   5.803  0.5902 -0.0521 -0.6932
  301MOL0     H39717   6.291   5.048   5.642  2.0932 -2.2120 -2.8768
  301MOL0     H39718   7.313   5.381   6.169 -0.2414 -0.6805  0.6567
  301MOL0     H39719   7.196   5.367   6.366  3.2272 -0.6733 -1.2047
  301MOL0     H39720   7.159   5.343   6.777  1.1918  2.1549  0.5012
  301MOL0     H39721   7.054   5.332   6.999  0.4330  1.5132  0.1168
  301MOL0     H39722   6.615   5.413   7.045  1.7078 -1.9623 -0.5199
  301MOL0     H39723   6.726   5.536   7.115  1.9088  0.1532  1.4825
  301MOL0     H39724   6.738   5.384   7.313  3.3121 -2.1797 -2.9274
  301MOL0     H39725   6.568   5.417   7.283  0.3257 -0.7194  1.9041
  301MOL0     H39726   6.706   5.155   7.231 -1.5679 -3.3628  2.4126
  301MOL0     H39727   6.565   5.208   7.143 -1.6259 -0.3345  1.1299
  301MOL0     H39728   6.443   5.230   7.358 -0.0378  1.4331  1.6047
  301MOL0     H39729   6.510   5.065   7.347 -3.2290  0.6830  1.3284
  301MOL0     H39730   6.693   5.146   7.688  2.2669 -1.1197 -1.2371
  301MOL0     H39731   6.699   5.515   6.850 -0.5375 -1.6526 -1.4909
  301MOL0     H39732   6.807   5.569   6.634 -0.5014 -2.0873 -2.7617
  302MOL0     O39733   2.538   5.185  10.893  0.5501 -1.3922  0.2105
  302MOL0     C39734   2.481   5.083  10.913  0.4476  0.3336 -0.6272
  302MOL0     O39735   2.535   4.976  10.969 -0.5433 -0.6476 -0.0963
  302MOL0     C39736   2.674   4.965  10.985  0.0088 -0.1622 -0.4200
  302MOL0     C39737   2.752   4.888  10.897  0.3447  0.1075  0.8617
  302MOL0     C39738   2.882   4.867  10.925  0.2639  0.3338  0.1365
  302MOL0     C39739   2.942   4.905  11.047  0.6516 -0.1758  0.4434
  302MOL0     O39740   3.071   4.892  11.085 -0.3547 -0.9233  0.0930
  302MOL0     C39741   3.172   4.876  10.985 -0.3579  0.1620  0.7246
  302MOL0     C39742   3.294   4.814  11.057  0.2838  0.3817  0.3474
  302MOL0     C39743   3.404   4.799  10.952 -0.2368  1.3342 -0.6054
  302MOL0     C39744   3.535   4.787  11.035 -0.4729 -0.8855 -0.6806
  302MOL0     C39745   3.657   4.777  10.949 -0.2633  0.4839 -0.6767
  302MOL0     C39746   3.787   4.740  11.028  0.1607 -0.0015 -0.1433
  302MOL0     C39747   3.896   4.670  10.939  0.0356 -0.8223  0.1250
  302MOL0     C39748   4.030   4.672  11.026 -0.1281  0.4337  0.3647
  302MOL0     N39749   4.150   4.646  10.945  0.7286 -0.5353  0.6151
  302MOL0     C39750   4.258   4.728  10.933  0.1749  0.0480  0.4159
  302MOL0     C39751   4.326   4.691  10.822 -0.1920  0.1185  0.2627
  302MOL0     C39752   4.455   4.750  10.774 -0.1240 -0.3990  1.0376
  302MOL0     C39753   4.567   4.667  10.829 -0.3727 -0.1168  0.1057
  302MOL0     C39754   4.699   4.707  10.774 -0.3785 -0.5826 -0.2154
  302MOL0     C39755   4.818   4.617  10.813  0.7836  0.1742 -0.3273
  302MOL0     O39756   4.933   4.668  10.752  0.0235 -0.3191 -0.9122
  302MOL0     C39757   5.058   4.628  10.789 -0.3191 -0.8654  0.3930
  302MOL0     C39758   5.095   4.577  10.916  0.3444  0.5028 -0.7408
  302MOL0     C39759   5.232   4.550  10.946  0.0959  0.1280 -0.5358
  302MOL0     C39760   5.335   4.581  10.855 -0.0858 -0.1659 -0.1088
  302MOL0     C39761   5.481   4.560  10.890 -0.4399  1.2417 -0.4068
  302MOL0     O39762   5.502   4.462  10.984 -0.3007 -0.0890 -0.1116
  302MOL0     C39763   5.624   4.450  11.034 -0.9724  0.8660  0.8603
  302MOL0     C39764   5.701   4.349  10.979 -0.2994 -0.2457  0.3264
  302MOL0     C39765   5.837   4.325  11.020 -0.2734 -1.0885  0.1148
  302MOL0     C39766   5.888   4.405  11.125  0.5092  0.2385  0.6394
  302MOL0     O39767   6.017   4.404  11.172  0.0639 -0.1108 -0.0020
  302MOL0     C39768   6.093   4.515  11.115 -0.3039 -1.0893 -1.0927
  302MOL0     C39769   6.219   4.554  11.212  0.1194 -0.7617 -0.7258
  302MOL0     C39770   6.340   4.468  11.193 -0.7340  1.0041  0.8476
  302MOL0     C39771   6.383   4.473  11.048 -0.9885  0.2623 -0.3197
  302MOL0     C39772   6.533   4.418  11.044 -0.7193 -0.1947 -0.0776
  302MOL0     C39773   6.580   4.351  10.915  0.7186  1.0812  0.2927
  302MOL0     C39774   6.729   4.343  10.917  0.0251  0.6000  0.6227
  302MOL0     C39775   6.781   4.431  10.801 -0.1990  0.4938 -0.2213
  302MOL0    Cl39776   6.950   4.407  10.785  0.1193 -0.1023  0.2111
  302MOL0     C39777   5.799   4.497  11.192 -0.3053 -0.8887  0.6492
  302MOL0     C39778   5.672   4.521  11.142  1.0099  0.0122  0.0074
  302MOL0     O39779   5.571   4.628  10.838  0.4063  0.1643 -0.3021
  302MOL0     C39780   5.295   4.629  10.730 -0.2358  0.3145  0.5423
  302MOL0     C39781   5.160   4.665  10.699 -0.6248 -0.3099  0.4351
  302MOL0     N39782   4.258   4.575  10.776  0.3548 -0.1416 -0.0628
  302MOL0     N39783   4.155   4.552  10.847  0.6569  0.2154 -0.4031
  302MOL0     C39784   2.858   4.966  11.140  0.0045 -0.5379  0.2360
  302MOL0     C39785   2.726   5.005  11.110  0.0996 -0.1240  0.5708
  302MOL0     C39786   2.339   5.072  10.886  0.2600 -0.2783  0.2744
  302MOL0     C39787   2.263   4.962  10.922  0.8462 -0.2162 -0.0647
  302MOL0     C39788   2.124   4.962  10.892 -0.4194  0.0592 -0.1584
  302MOL0     C39789   2.056   5.077  10.836  0.2570  0.5845  0.2354
  302MOL0     O39790   1.921   5.083  10.812  0.2399 -0.3782  0.4952
  302MOL0     C39791   1.844   4.979  10.863  0.0170  0.0601  0.5134
  302MOL0     C39792   1.697   5.016  10.838 -0.5700  0.9244  0.4495
  302MOL0     C39793   1.660   4.987  10.689 -0.7902 -0.1483  0.3490
  302MOL0     C39794   1.515   5.024  10.643 -0.7617 -1.3506  0.9206
  302MOL0     C39795   1.503   5.025  10.494  0.0268 -0.1621  0.0210
  302MOL0     C39796   1.497   5.056  10.377  0.8506  1.2253  0.1595
  302MOL0     C39797   2.138   5.174  10.798  0.8053  0.8471  0.2435
  302MOL0     C39798   2.277   5.178  10.820  0.0564  0.3455  0.6513
  302MOL0     H39799   2.707   4.857  10.803 -0.6475 -0.3207  1.4644
  302MOL0     H39800   2.945   4.817  10.852  0.7055 -0.7323  1.2144
  302MOL0     H39801   3.195   4.972  10.939  1.0838  0.6428  2.3290
  302MOL0     H39802   3.150   4.808  10.903  1.0935  1.6690 -1.0065
  302MOL0     H39803   3.264   4.720  11.105 -2.3334  1.0075  0.0935
  302MOL0     H39804   3.326   4.883  11.136 -0.2871  2.3093 -1.0367
  302MOL0     H39805   3.405   4.884  10.882  0.3446  1.6733 -0.1958
  302MOL0     H39806   3.379   4.705  10.903 -1.3428 -1.4147  4.5491
  302MOL0     H39807   3.552   4.875  11.098 -3.6931 -1.1811  0.7826
  302MOL0     H39808   3.526   4.704  11.106  0.6257 -1.5533 -1.2984
  302MOL0     H39809   3.675   4.874  10.901  1.9290 -0.4589 -1.8992
  302MOL0     H39810   3.637   4.688  10.888 -0.3739 -0.4163  0.6307
  302MOL0     H39811   3.747   4.670  11.103 -2.3482  0.6850 -0.7414
  302MOL0     H39812   3.824   4.827  11.082  1.5907 -0.6721  0.0061
  302MOL0     H39813   3.872   4.565  10.920 -2.7268 -0.6446  2.0227
  302MOL0     H39814   3.908   4.723  10.844  1.8153  1.9405  1.7467
  302MOL0     H39815   4.026   4.588  11.096 -1.9260  0.0271 -0.1836
  302MOL0     H39816   4.048   4.763  11.085  1.8640 -0.7377  1.7010
  302MOL0     H39817   4.274   4.824  10.981 -0.3703 -0.3101  1.3407
  302MOL0     H39818   4.456   4.857  10.800 -4.1622 -0.6056  2.7637
  302MOL0     H39819   4.460   4.741  10.665 -1.3519  1.4482  0.7837
  302MOL0     H39820   4.542   4.565  10.799 -0.1846  0.0324 -0.5773
  302MOL0     H39821   4.566   4.677  10.938 -0.0569 -1.1493  0.2141
  302MOL0     H39822   4.689   4.712  10.665 -1.5023  0.9368 -0.0737
  302MOL0     H39823   4.717   4.802  10.825 -1.3907 -1.0612  1.0739
  302MOL0     H39824   4.806   4.517  10.769  1.7658  0.0831 -0.4209
  302MOL0     H39825   4.829   4.611  10.922 -1.3025 -1.8496 -0.1482
  302MOL0     H39826   5.017   4.564  10.990 -0.2175  1.9490 -1.0384
  302MOL0     H39827   5.257   4.510  11.045  3.7738 -0.0916 -1.3984
  302MOL0     H39828   5.662   4.289  10.897 -1.2687  1.4542 -0.4917
  302MOL0     H39829   5.905   4.253  10.977  1.1266  0.5026 -0.4341
  302MOL0     H39830   6.038   4.607  11.094  0.4191 -0.2676  0.4309
  302MOL0     H39831   6.129   4.484  11.016 -0.1220  0.5136 -1.5519
  302MOL0     H39832   6.187   4.543  11.316 -2.0589  0.3763 -1.2277
  302MOL0     H39833   6.233   4.659  11.186  1.4279 -1.0005 -1.0337
  302MOL0     H39834   6.340   4.370  11.243  1.5505  0.5962  0.1740
  302MOL0     H39835   6.420   4.520  11.246  1.9337 -0.4176 -1.5366
  302MOL0     H39836   6.327   4.396  10.993  1.2238 -3.1249  1.7583
  302MOL0     H39837   6.365   4.571  11.003 -3.5645  1.7039  3.2928
  302MOL0     H39838   6.547   4.339  11.118  0.4581 -0.3559 -0.4518
  302MOL0     H39839   6.598   4.499  11.078 -0.5315 -0.1852 -0.4514
  302MOL0     H39840   6.540   4.405  10.828  2.4803  0.7580 -0.7601
  302MOL0     H39841   6.541   4.250  10.897  2.8927 -0.1135  1.8029
  302MOL0     H39842   6.773   4.373  11.012  0.6755 -0.8942  0.8054
  302MOL0     H39843   6.771   4.244  10.902  0.6077  1.3673 -4.4987
  302MOL0     H39844   6.768   4.533  10.840 -1.8659 -0.4384  1.8752
  302MOL0     H39845   6.730   4.413  10.706  0.5304  0.4970 -0.6196
  302MOL0     H39846   5.831   4.566  11.269 -0.8934  0.3824 -0.2214
  302MOL0     H39847   5.616   4.606  11.180 -1.1554 -1.8963  1.4265
  302MOL0     H39848   5.374   4.654  10.660 -0.3001 -0.1068  0.3183
  302MOL0     H39849   5.126   4.716  10.610 -2.1468 -0.3693  0.9509
  302MOL0     H39850   2.896   4.991  11.238  1.3005 -1.3436 -0.0413
  302MOL0     H39851   2.668   5.060  11.184  0.6065  1.3278 -0.0595
  302MOL0     H39852   2.321   4.879  10.962  0.8838  0.0767  0.4926
  302MOL0     H39853   2.077   4.870  10.925 -0.1354  1.0959  3.5573
  302MOL0     H39854   1.859   4.975  10.971  1.2584 -0.5316  0.3335
  302MOL0     H39855   1.874   4.888  10.810 -1.0784  1.4954 -2.8741
  302MOL0     H39856   1.626   4.955  10.895  3.2705 -1.2563  3.4191
  302MOL0     H39857   1.676   5.120  10.865  0.3617  1.6757 -1.5366
  302MOL0     H39858   1.669   4.878  10.678 -0.6260  0.0502 -1.9578
  302MOL0     H39859   1.726   5.033  10.615 -3.2191 -0.5566 -2.2304
  302MOL0     H39860   1.460   4.938  10.682 -1.9756 -0.2754  1.6629
  302MOL0     H39861   1.479   5.117  10.688 -2.9623 -1.9202  0.4652
  302MOL0     H39862   1.496   5.077  10.272 -1.2979 -2.5523 -0.7681
  302MOL0     H39863   2.102   5.260  10.743 -1.3656 -0.5474 -0.6519
  302MOL0     H39864   2.332   5.253  10.765  1.3823 -1.7991 -1.1663
  303MOL0     O39865   4.803   5.534   3.234 -0.2770 -1.2613 -1.0873
  303MOL0     C39866   4.902   5.481   3.281 -0.7352  0.0018  0.5694
  303MOL0     O39867   4.913   5.423   3.395  0.3106 -0.4249 -0.5205
  303MOL0     C39868   4.806   5.447   3.484  0.9707 -0.5426  0.4946
  303MOL0     C39869   4.667   5.409   3.465 -0.2850 -0.4217  0.2004
  303MOL0     C39870   4.579   5.435   3.569  0.3582 -0.3061  1.4141
  303MOL0     C39871   4.625   5.502   3.689 -0.3132 -0.2350  1.0809
  303MOL0     O39872   4.541   5.535   3.799 -0.4987  0.1009 -0.0323
  303MOL0     C39873   4.401   5.505   3.781  0.7788 -0.1672 -0.0034
  303MOL0     C39874   4.328   5.559   3.901 -0.1435 -0.1984 -0.2688
  303MOL0     C39875   4.179   5.520   3.913  0.9732  0.4323 -0.4795
  303MOL0     C39876   4.156   5.405   4.011  0.9211  0.6940  0.8199
  303MOL0     C39877   4.008   5.356   4.018  0.4822  0.9169  0.2641
  303MOL0     C39878   3.909   5.466   4.005  0.1166 -0.1712 -0.2933
  303MOL0     C39879   3.758   5.438   4.004 -0.0470 -0.0903  0.3398
  303MOL0     C39880   3.704   5.355   4.122 -0.2503  0.0769 -0.4531
  303MOL0     N39881   3.706   5.423   4.256  0.1598 -0.4658 -0.6875
  303MOL0     C39882   3.619   5.515   4.315  0.2017 -0.1391  0.0844
  303MOL0     C39883   3.663   5.528   4.441  0.4651 -0.2984  0.2234
  303MOL0     C39884   3.594   5.611   4.547 -1.1654  0.2313  0.5940
  303MOL0     C39885   3.556   5.524   4.671 -0.4071  0.1256  0.6344
  303MOL0     C39886   3.427   5.448   4.629 -0.1369  0.2062 -0.2625
  303MOL0     C39887   3.394   5.340   4.735  0.0776  0.3223 -0.5447
  303MOL0     O39888   3.289   5.248   4.694 -0.1393 -0.4185 -0.4205
  303MOL0     C39889   3.156   5.298   4.689 -0.0460  0.0657  0.5096
  303MOL0     C39890   3.111   5.419   4.735 -0.3362  0.6983  0.0143
  303MOL0     C39891   2.981   5.463   4.707  0.0253 -0.4632  0.0844
  303MOL0     C39892   2.884   5.379   4.648 -0.2334 -0.0330  0.2870
  303MOL0     C39893   2.750   5.413   4.614  1.0209 -0.0913  0.7335
  303MOL0     O39894   2.715   5.544   4.631 -0.1902 -0.0383  0.0609
  303MOL0     C39895   2.586   5.595   4.613 -0.3729  0.6133 -0.3586
  303MOL0     C39896   2.471   5.518   4.636  0.6181 -0.1298  0.8459
  303MOL0     C39897   2.343   5.569   4.614 -0.4139  0.2317 -1.2667
  303MOL0     C39898   2.321   5.709   4.580 -0.0978 -1.0875  0.4734
  303MOL0     O39899   2.197   5.755   4.542  0.5812 -0.8477 -0.1815
  303MOL0     C39900   2.165   5.899   4.546  0.0978 -0.0155 -0.3822
  303MOL0     C39901   2.165   5.969   4.685 -0.0372 -0.3803  0.8158
  303MOL0     C39902   2.087   6.111   4.678  0.1638  0.8199 -0.5931
  303MOL0     C39903   2.108   6.189   4.807  0.2719  0.0303 -1.0162
  303MOL0     C39904   2.081   6.334   4.782 -0.0283 -0.9660  0.3945
  303MOL0     C39905   2.087   6.414   4.917  0.3370  0.2134 -0.0461
  303MOL0     C39906   1.976   6.390   5.019 -0.2533 -0.3767 -1.0564
  303MOL0     C39907   1.993   6.474   5.144  0.3462  0.0512 -0.7781
  303MOL0    Cl39908   1.850   6.447   5.248  0.4084 -0.6898  0.0867
  303MOL0     C39909   2.438   5.781   4.561 -0.2952  0.6013 -0.2104
  303MOL0     C39910   2.567   5.726   4.575  0.2630  0.6263  0.5436
  303MOL0     O39911   2.676   5.322   4.562  0.0362 -0.7981  0.7894
  303MOL0     C39912   2.933   5.249   4.612  0.1741 -0.6212 -0.6530
  303MOL0     C39913   3.063   5.205   4.633  0.2975  0.4232  0.8363
  303MOL0     N39914   3.783   5.457   4.450 -0.0354  0.1658 -0.1188
  303MOL0     N39915   3.801   5.392   4.350 -0.9153  0.4737  0.8053
  303MOL0     C39916   4.762   5.542   3.699 -0.1653  0.7574  0.4138
  303MOL0     C39917   4.849   5.509   3.601 -0.0567 -0.1893 -0.7179
  303MOL0     C39918   5.024   5.490   3.192 -0.0994  0.8686 -0.6297
  303MOL0     C39919   5.137   5.411   3.219 -0.6756  0.1644  0.3548
  303MOL0     C39920   5.252   5.410   3.133 -0.9616 -0.9176 -0.6730
  303MOL0     C39921   5.249   5.472   3.007  0.4350 -0.2310 -0.1244
  303MOL0     O39922   5.345   5.469   2.909  0.0832 -0.5384  0.2929
  303MOL0     C39923   5.471   5.399   2.932  0.7113 -0.9355  0.0444
  303MOL0     C39924   5.561   5.465   3.039  0.0903  0.6113 -0.8482
  303MOL0     C39925   5.686   5.381   3.049  0.7524 -0.2679 -0.2015
  303MOL0     C39926   5.671   5.248   3.107 -0.4412 -0.2599  0.5556
  303MOL0     C39927   5.805   5.193   3.131 -0.0522 -0.3353 -0.1710
  303MOL0     C39928   5.899   5.129   3.174  0.0428 -0.0623 -0.7435
  303MOL0     C39929   5.139   5.555   2.985 -0.5077 -0.4643  0.9154
  303MOL0     C39930   5.028   5.570   3.071 -0.0711  0.1790  0.0135
  303MOL0     H39931   4.641   5.358   3.373  0.8583 -1.0074  0.1906
  303MOL0     H39932   4.475   5.410   3.556  0.2126  0.1297  1.7235
  303MOL0     H39933   4.388   5.397   3.777  0.2417 -0.2734  2.5559
  303MOL0     H39934   4.359   5.558   3.696  2.7025  1.5466  0.0259
  303MOL0     H39935   4.339   5.666   3.917 -1.2764 -0.0648 -0.3142
  303MOL0     H39936   4.376   5.515   3.989  0.2977  2.8771  1.1348
  303MOL0     H39937   4.113   5.500   3.828 -2.7938 -0.6035  2.3959
  303MOL0     H39938   4.131   5.603   3.967  1.0967 -0.6266  1.3359
  303MOL0     H39939   4.217   5.318   3.984 -1.2282 -0.1429 -1.8603
  303MOL0     H39940   4.193   5.443   4.106  0.4996  0.6891  0.9866
  303MOL0     H39941   3.997   5.299   4.111  0.5899 -1.5742 -1.1794
  303MOL0     H39942   3.991   5.294   3.930  0.1333  0.4962  0.6260
  303MOL0     H39943   3.927   5.523   3.914  0.1670  0.2000 -0.0537
  303MOL0     H39944   3.917   5.537   4.088 -2.7150 -0.8697  0.6962
  303MOL0     H39945   3.705   5.534   4.002 -1.0757 -0.6091  1.4947
  303MOL0     H39946   3.738   5.387   3.909 -0.1290 -0.3733  0.5102
  303MOL0     H39947   3.764   5.265   4.135  0.0636  0.2980 -0.3336
  303MOL0     H39948   3.598   5.337   4.101  0.0112 -3.8615  0.8625
  303MOL0     H39949   3.530   5.560   4.272  0.3206 -1.0140 -1.1254
  303MOL0     H39950   3.504   5.651   4.499 -2.2050 -1.8441  0.7300
  303MOL0     H39951   3.661   5.694   4.573 -0.9605  0.2363  0.0712
  303MOL0     H39952   3.542   5.590   4.757 -1.1003  2.4030 -1.1198
  303MOL0     H39953   3.638   5.454   4.689 -0.2177  0.1502 -0.0833
  303MOL0     H39954   3.347   5.521   4.618  1.0823  1.3898 -1.6749
  303MOL0     H39955   3.437   5.393   4.535 -2.8796 -0.5342 -0.2031
  303MOL0     H39956   3.369   5.385   4.832 -1.8694  0.8331 -1.2547
  303MOL0     H39957   3.483   5.278   4.746  0.8266  1.1489 -1.7216
  303MOL0     H39958   3.182   5.486   4.782 -0.2774 -0.0075  0.9721
  303MOL0     H39959   2.955   5.567   4.725 -1.8491 -0.4769 -2.1499
  303MOL0     H39960   2.463   5.413   4.664  0.6565 -0.8768 -1.7210
  303MOL0     H39961   2.257   5.505   4.629 -1.1507  1.4455  0.0735
  303MOL0     H39962   2.064   5.904   4.502 -1.8045  1.5838  3.6845
  303MOL0     H39963   2.233   5.942   4.471 -0.2756  0.1137 -0.6527
  303MOL0     H39964   2.267   5.982   4.721 -0.4714  0.2238  1.8652
  303MOL0     H39965   2.114   5.909   4.760  0.9053 -1.2492  0.7785
  303MOL0     H39966   1.980   6.096   4.664  0.4693 -3.1570  0.3174
  303MOL0     H39967   2.124   6.173   4.595  0.5457  2.4566  0.7440
  303MOL0     H39968   2.042   6.144   4.882 -0.9707  0.5069 -1.7831
  303MOL0     H39969   2.204   6.182   4.858 -0.4182 -1.4187  0.1914
  303MOL0     H39970   1.983   6.336   4.734  0.7594 -4.3975 -1.7096
  303MOL0     H39971   2.155   6.362   4.707  0.5218  0.0405  1.2959
  303MOL0     H39972   2.087   6.521   4.896  2.3749  0.0612 -0.9768
  303MOL0     H39973   2.181   6.381   4.961  0.3596  0.0631 -0.2063
  303MOL0     H39974   1.883   6.410   4.966  0.3009  1.5075 -1.3955
  303MOL0     H39975   1.970   6.282   5.037  0.6932 -0.5003 -1.4646
  303MOL0     H39976   1.998   6.580   5.115 -1.5555 -0.0180 -1.4904
  303MOL0     H39977   2.088   6.446   5.190  1.3934  0.1873 -2.7592
  303MOL0     H39978   2.438   5.888   4.546  0.1732  0.5375 -0.6841
  303MOL0     H39979   2.651   5.792   4.555  2.1578 -1.0678  2.5032
  303MOL0     H39980   2.873   5.187   4.547  1.2361  1.1049 -3.4703
  303MOL0     H39981   3.079   5.100   4.611 -2.0882  0.3911 -1.3548
  303MOL0     H39982   4.788   5.584   3.795  0.3902  1.0641  0.1336
  303MOL0     H39983   4.955   5.533   3.598  0.6750 -3.1365 -2.4057
  303MOL0     H39984   5.145   5.349   3.308 -2.9495  0.3302  0.7165
  303MOL0     H39985   5.335   5.348   3.166 -0.1240  0.5915  0.1404
  303MOL0     H39986   5.509   5.401   2.829 -1.7740 -0.6152 -0.9255
  303MOL0     H39987   5.455   5.295   2.963  0.7968 -1.2335 -0.8818
  303MOL0     H39988   5.579   5.567   3.003 -0.1701  1.1085  0.3692
  303MOL0     H39989   5.527   5.468   3.143  1.3876 -1.8500 -0.2762
  303MOL0     H39990   5.752   5.443   3.110  1.0387  0.1529 -0.9146
  303MOL0     H39991   5.713   5.381   2.943  1.7265  2.7263 -0.0541
  303MOL0     H39992   5.614   5.264   3.198  0.0977 -1.7897  1.2072
  303MOL0     H39993   5.614   5.181   3.041  1.3330  1.2391 -2.7193
  303MOL0     H39994   5.992   5.082   3.200 -0.4315  0.0760  1.4449
  303MOL0     H39995   5.145   5.616   2.895  0.5494  0.8970  1.8650
  303MOL0     H39996   4.938   5.625   3.047  0.6442  0.9857 -0.8933
  304MOL0     O39997   4.960   3.636   1.888 -0.1802 -0.1780  0.3197
  304MOL0     C39998   4.969   3.669   2.003 -0.1564  0.2260  0.6616
  304MOL0     O39999   4.861   3.691   2.090  0.5011  0.7326  0.2567
  304MOL0     C40000   4.731   3.702   2.044  0.5738 -0.4781 -0.1156
  304MOL0     C40001   4.638   3.767   2.125  0.5122 -0.4842  0.6958
  304MOL0     C40002   4.494   3.768   2.097 -0.0952 -0.2387 -0.5947
  304MOL0     C40003   4.453   3.681   1.997  0.9995  0.4529 -0.5118
  304MOL0     O40004   4.322   3.697   1.964 -0.8200  0.0958 -0.4404
  304MOL0     C40005   4.240   3.576   1.936  0.2720 -0.8532 -0.2473
  304MOL0     C40006   4.144   3.599   1.822  0.3047 -0.3540  0.6171
  304MOL0     C40007   4.094   3.470   1.765 -0.2008 -0.5549 -0.0917
  304MOL0     C40008   3.953   3.434   1.823  0.6439 -0.1874  0.6462
  304MOL0     C40009   3.925   3.346   1.942 -0.8928 -1.3075 -0.2893
  304MOL0     C40010   3.781   3.318   1.971  0.2005  0.5698  0.6282
  304MOL0     C40011   3.730   3.192   1.894  0.1017 -0.1517 -0.2730
  304MOL0     C40012   3.588   3.162   1.935 -0.2064  0.3029 -0.5428
  304MOL0     N40013   3.534   3.030   1.888 -0.2486  0.3020  0.5767
  304MOL0     C40014   3.528   2.991   1.760  0.0963 -0.2910 -0.9440
  304MOL0     C40015   3.520   2.857   1.755 -0.1164  0.1686 -0.2404
  304MOL0     C40016   3.510   2.767   1.634 -0.5649 -0.6979  0.7333
  304MOL0     C40017   3.377   2.710   1.618 -0.2374  0.4532 -0.4633
  304MOL0     C40018   3.307   2.698   1.487  0.2523  0.8191  0.6226
  304MOL0     C40019   3.162   2.680   1.520  0.7522 -0.2078 -0.5632
  304MOL0     O40020   3.082   2.662   1.402 -0.2398  0.2387  0.3130
  304MOL0     C40021   3.110   2.556   1.317 -1.0518 -0.3005 -0.0043
  304MOL0     C40022   3.078   2.429   1.350  0.4319 -0.0171 -0.9623
  304MOL0     C40023   3.128   2.327   1.261  0.3779 -0.1549 -0.6632
  304MOL0     C40024   3.220   2.354   1.152  0.3157  0.6048 -0.1995
  304MOL0     C40025   3.278   2.244   1.070 -0.4282  1.0394 -0.9768
  304MOL0     O40026   3.383   2.270   0.995 -0.4281 -0.2112  0.6100
  304MOL0     C40027   3.458   2.173   0.940  0.3625  0.3146 -0.1698
  304MOL0     C40028   3.387   2.087   0.852  0.1287 -0.8203  0.8372
  304MOL0     C40029   3.459   1.990   0.793  0.3116 -0.0046  0.0230
  304MOL0     C40030   3.593   1.968   0.827 -0.5765  0.1519 -0.4988
  304MOL0     O40031   3.661   1.863   0.781  0.0227 -0.0712 -0.6913
  304MOL0     C40032   3.599   1.772   0.684  0.9056 -0.6202  0.7459
  304MOL0     C40033   3.695   1.648   0.678 -0.0504  0.0978  0.8127
  304MOL0     C40034   3.627   1.535   0.606  0.0455 -0.4877  0.8393
  304MOL0     C40035   3.738   1.439   0.567  0.0087 -0.3955 -1.0113
  304MOL0     C40036   3.729   1.345   0.449 -0.2455  0.4203 -0.3787
  304MOL0     C40037   3.600   1.256   0.446  0.2066  0.5146  1.4740
  304MOL0     C40038   3.614   1.146   0.539 -0.5386  0.6836 -1.1977
  304MOL0     C40039   3.514   1.033   0.500  1.0689  0.4099  0.3355
  304MOL0    Cl40040   3.571   0.937   0.357  0.1789  0.3524  0.0491
  304MOL0     C40041   3.660   2.043   0.922  0.4113 -0.3889 -0.7446
  304MOL0     C40042   3.587   2.155   0.975  0.2368  0.0331 -1.2111
  304MOL0     O40043   3.229   2.129   1.089  0.1548 -0.2313 -0.3647
  304MOL0     C40044   3.252   2.483   1.128 -0.2919  0.8715  0.4135
  304MOL0     C40045   3.191   2.586   1.206 -0.4674  0.9036  0.7215
  304MOL0     N40046   3.519   2.811   1.881 -0.9424  0.7182  0.0890
  304MOL0     N40047   3.525   2.915   1.960  0.1718  0.1973 -0.0883
  304MOL0     C40048   4.546   3.607   1.929 -0.1162 -1.0442  0.5602
  304MOL0     C40049   4.679   3.622   1.943  0.4452 -0.0819  0.0547
  304MOL0     C40050   5.112   3.694   2.049 -0.1897  0.5402 -0.1664
  304MOL0     C40051   5.218   3.617   2.009 -0.0531 -0.2048 -0.0271
  304MOL0     C40052   5.343   3.662   2.036 -0.7842 -0.2136 -0.0915
  304MOL0     C40053   5.358   3.781   2.106  0.4379 -1.0457  0.8933
  304MOL0     O40054   5.477   3.836   2.155 -0.5884 -0.1954  0.8154
  304MOL0     C40055   5.595   3.787   2.097  0.8164 -0.0474 -0.1384
  304MOL0     C40056   5.720   3.836   2.158 -0.5308 -0.0777 -0.7777
  304MOL0     C40057   5.846   3.795   2.074  0.1372  0.0381  0.0644
  304MOL0     C40058   5.984   3.849   2.111 -0.0029  0.5259 -0.1232
  304MOL0     C40059   5.984   3.907   2.242  0.0406  0.7307 -0.5894
  304MOL0     C40060   5.993   3.951   2.356 -0.3503 -0.0189 -0.3542
  304MOL0     C40061   5.252   3.857   2.136  0.7857  0.6550  0.1490
  304MOL0     C40062   5.125   3.816   2.118 -0.3548 -0.6438  0.0397
  304MOL0     H40063   4.664   3.820   2.216  0.2049  0.2339  0.3675
  304MOL0     H40064   4.420   3.827   2.150  0.3747 -0.0090 -0.1944
  304MOL0     H40065   4.185   3.542   2.025 -0.6527 -1.5817 -1.0829
  304MOL0     H40066   4.310   3.499   1.904  1.9277  0.5952 -0.2777
  304MOL0     H40067   4.190   3.656   1.741 -0.8118 -0.3732 -0.0620
  304MOL0     H40068   4.064   3.663   1.861 -0.1406 -1.0292  0.8248
  304MOL0     H40069   4.164   3.387   1.775  1.2915  0.7881  1.2365
  304MOL0     H40070   4.079   3.495   1.659  0.1838  2.9050  0.5223
  304MOL0     H40071   3.896   3.526   1.842  0.4238 -0.1512 -0.1475
  304MOL0     H40072   3.911   3.384   1.736  0.8433 -0.7568  0.8741
  304MOL0     H40073   3.952   3.385   2.040 -0.4375 -0.2422 -0.8251
  304MOL0     H40074   3.990   3.258   1.934 -0.7423 -1.5020  2.2197
  304MOL0     H40075   3.715   3.403   1.952 -1.6521 -1.0018 -0.4738
  304MOL0     H40076   3.763   3.287   2.074 -0.8749 -0.9723  0.0358
  304MOL0     H40077   3.737   3.214   1.787  1.1261  0.2658 -0.1315
  304MOL0     H40078   3.797   3.109   1.922 -1.3077 -0.9740  0.7573
  304MOL0     H40079   3.523   3.236   1.886  1.7103  0.9316 -2.2763
  304MOL0     H40080   3.580   3.161   2.044 -0.3543 -1.4414 -0.5441
  304MOL0     H40081   3.533   3.049   1.668  1.3940  0.3378 -0.5107
  304MOL0     H40082   3.588   2.691   1.623  1.1385  1.2459 -1.6746
  304MOL0     H40083   3.537   2.825   1.545  1.3737 -2.7374 -0.1134
  304MOL0     H40084   3.309   2.760   1.688 -2.5413 -3.7656  0.7166
  304MOL0     H40085   3.387   2.612   1.666  0.1637  0.9796  0.5554
  304MOL0     H40086   3.319   2.787   1.425 -0.4993  0.7339  0.3483
  304MOL0     H40087   3.333   2.609   1.428  0.1055  1.1554  0.0490
  304MOL0     H40088   3.111   2.757   1.579 -1.2701 -1.7285 -0.1813
  304MOL0     H40089   3.156   2.581   1.566  0.9108  0.4087  0.8226
  304MOL0     H40090   3.021   2.401   1.438  1.9412  2.8790  1.0699
  304MOL0     H40091   3.117   2.222   1.285 -0.8334  0.0302 -0.3167
  304MOL0     H40092   3.282   2.102   0.831  0.5149  0.3617 -0.3801
  304MOL0     H40093   3.405   1.919   0.731 -0.8454  1.7791 -1.0849
  304MOL0     H40094   3.581   1.819   0.587 -0.7159 -1.6132  0.5220
  304MOL0     H40095   3.505   1.730   0.721 -0.5583 -1.0281 -2.9466
  304MOL0     H40096   3.734   1.619   0.776  0.2434 -2.6023 -0.0267
  304MOL0     H40097   3.778   1.691   0.619  0.4473 -1.8283  0.0411
  304MOL0     H40098   3.569   1.570   0.520 -2.8032 -3.0936  1.4823
  304MOL0     H40099   3.550   1.495   0.673 -2.2775  0.1441 -1.3003
  304MOL0     H40100   3.819   1.506   0.536  0.3170 -0.8617 -1.2278
  304MOL0     H40101   3.776   1.386   0.654  0.6633 -0.7257 -1.4854
  304MOL0     H40102   3.816   1.278   0.452  0.8728  1.8580  0.9897
  304MOL0     H40103   3.729   1.410   0.361  0.1226 -0.0396 -0.7235
  304MOL0     H40104   3.581   1.222   0.344 -2.8658 -0.6841  2.3156
  304MOL0     H40105   3.510   1.316   0.463 -0.6930 -0.3375 -0.0916
  304MOL0     H40106   3.713   1.099   0.544 -0.6256  0.4889 -1.2638
  304MOL0     H40107   3.590   1.169   0.643 -1.0420  0.8183 -1.3408
  304MOL0     H40108   3.413   1.071   0.478  1.8476  1.7653 -1.1705
  304MOL0     H40109   3.512   0.961   0.582  1.5249  1.7803  1.6024
  304MOL0     H40110   3.765   2.021   0.942  0.7644 -0.4100 -2.4477
  304MOL0     H40111   3.629   2.221   1.050 -0.3461 -0.7694 -0.1459
  304MOL0     H40112   3.325   2.510   1.052  1.2406 -1.1555  1.0617
  304MOL0     H40113   3.216   2.689   1.182  1.8310  0.2177 -0.0552
  304MOL0     H40114   4.521   3.553   1.838  1.1013  0.8598 -0.9737
  304MOL0     H40115   4.745   3.561   1.883  0.6463  0.3506 -0.1743
  304MOL0     H40116   5.190   3.524   1.961  0.6763 -1.1244  1.3033
  304MOL0     H40117   5.424   3.590   2.034  0.1580  0.4089  4.6912
  304MOL0     H40118   5.589   3.818   1.992 -1.1228  2.3443  0.5659
  304MOL0     H40119   5.608   3.679   2.089  1.4906 -0.0525  0.8296
  304MOL0     H40120   5.716   3.945   2.166  0.5625 -0.0707 -0.1396
  304MOL0     H40121   5.740   3.792   2.256 -0.8955  1.6233  0.0820
  304MOL0     H40122   5.825   3.823   1.970 -0.1019  4.1152  1.0450
  304MOL0     H40123   5.851   3.686   2.076 -1.9514 -0.1107 -0.7870
  304MOL0     H40124   6.043   3.760   2.128 -1.0003  0.1655  1.6975
  304MOL0     H40125   6.020   3.930   2.046  0.5936  0.2471 -0.1423
  304MOL0     H40126   6.011   3.981   2.457  0.7869 -0.8237 -0.2945
  304MOL0     H40127   5.265   3.944   2.199  0.9817  0.2040  0.7420
  304MOL0     H40128   5.038   3.879   2.134  1.2347  1.0534  3.0372
  305MOL0     O40129   1.281   2.555   9.796  0.2100  0.7768  0.3089
  305MOL0     C40130   1.309   2.660   9.853 -0.2785 -0.6268  0.1687
  305MOL0     O40131   1.429   2.678   9.931 -0.4102  0.0013  0.3608
  305MOL0     C40132   1.502   2.573   9.974  0.0252  0.1470  0.0073
  305MOL0     C40133   1.525   2.452   9.906  0.5992 -0.0808 -0.1443
  305MOL0     C40134   1.594   2.348   9.966 -0.0092 -0.3510 -0.3423
  305MOL0     C40135   1.658   2.366  10.094 -0.1431  0.7384 -0.2686
  305MOL0     O40136   1.749   2.276  10.144 -0.1347  0.0194  0.1525
  305MOL0     C40137   1.708   2.139  10.142 -0.1360  0.3676  0.6717
  305MOL0     C40138   1.562   2.116  10.203  0.0344  1.1548  0.0095
  305MOL0     C40139   1.529   2.180  10.337 -0.0877 -0.7327  0.0240
  305MOL0     C40140   1.387   2.146  10.392  0.5384 -0.3582 -0.8036
  305MOL0     C40141   1.382   2.132  10.542  0.0943  0.8975 -0.0795
  305MOL0     C40142   1.237   2.134  10.610  0.4739 -0.3162  0.2006
  305MOL0     C40143   1.136   2.046  10.532  0.1126  0.6176  0.6515
  305MOL0     C40144   1.024   1.999  10.602  0.5606 -0.2077  0.4899
  305MOL0     N40145   0.942   2.111  10.641 -0.5906 -0.3609 -0.3573
  305MOL0     C40146   0.848   2.152  10.551  0.0525 -0.3780  0.2710
  305MOL0     C40147   0.794   2.255  10.604  0.6001  0.5876  0.5592
  305MOL0     C40148   0.695   2.353  10.543 -0.3035 -0.3724 -0.0815
  305MOL0     C40149   0.573   2.321  10.624  0.8775  0.8680  1.7089
  305MOL0     C40150   0.449   2.403  10.565 -0.6453  0.2858  0.1400
  305MOL0     C40151   0.321   2.351  10.604  0.5108  0.4967  0.6005
  305MOL0     O40152   0.216   2.444  10.577 -0.1034 -0.5716 -0.5678
  305MOL0     C40153   0.094   2.423  10.631  0.4939  0.8447  0.2193
  305MOL0     C40154  -0.006   2.496  10.565 -0.6325  0.1891 -0.1013
  305MOL0     C40155  -0.132   2.494  10.610  0.0934  0.1028  0.4431
  305MOL0     C40156  -0.171   2.417  10.721 -0.8030  1.1189  0.3147
  305MOL0     C40157  -0.309   2.420  10.775 -0.0976 -0.3727  0.0272
  305MOL0     O40158  -0.381   2.527  10.740  0.4426 -0.6751  0.1918
  305MOL0     C40159  -0.511   2.503  10.752 -0.9719 -0.7985  0.3877
  305MOL0     C40160  -0.571   2.401  10.684  0.6282 -0.4092  0.7082
  305MOL0     C40161  -0.711   2.378  10.697  0.2840 -0.1950 -0.1678
  305MOL0     C40162  -0.786   2.458  10.785 -0.1199 -0.6776 -0.3991
  305MOL0     O40163  -0.922   2.431  10.787  0.1964  0.7071 -0.0698
  305MOL0     C40164  -0.993   2.473  10.899  0.0066  0.7215 -0.1843
  305MOL0     C40165  -1.138   2.423  10.894 -0.0051  0.0604 -0.7560
  305MOL0     C40166  -1.182   2.323  11.005  1.1151 -0.2956  0.2588
  305MOL0     C40167  -1.320   2.277  10.976 -0.0291 -0.4401  0.5595
  305MOL0     C40168  -1.424   2.383  11.023 -0.5632  0.1191  0.0617
  305MOL0     C40169  -1.570   2.359  10.998  0.8795 -0.4459 -0.6952
  305MOL0     C40170  -1.662   2.491  11.020 -0.3543  0.2155 -0.1980
  305MOL0     C40171  -1.796   2.462  10.946  1.2910  0.6805  0.1410
  305MOL0    Cl40172  -1.879   2.340  11.043  0.5239  0.3797 -0.2055
  305MOL0     C40173  -0.721   2.560  10.859 -0.1863 -0.2512  0.4907
  305MOL0     C40174  -0.589   2.583  10.836  0.3260 -0.3485 -0.3042
  305MOL0     O40175  -0.337   2.338  10.865  0.5181  0.5448  0.2955
  305MOL0     C40176  -0.076   2.337  10.782 -2.1507  0.0785  0.4827
  305MOL0     C40177   0.058   2.338  10.737 -0.2170 -0.0632  0.1453
  305MOL0     N40178   0.853   2.282  10.726 -0.0482  0.2122 -0.8631
  305MOL0     N40179   0.945   2.197  10.752  0.0460  0.4484 -0.2888
  305MOL0     C40180   1.631   2.480  10.163  0.7121 -0.1139 -0.4258
  305MOL0     C40181   1.555   2.583  10.100 -0.3980  0.1821 -0.7339
  305MOL0     C40182   1.214   2.775   9.858 -0.0570  0.2379 -0.4006
  305MOL0     C40183   1.237   2.899   9.933 -0.3926 -0.8753  0.0793
  305MOL0     C40184   1.134   2.999   9.942  0.8732  1.0141 -0.2529
  305MOL0     C40185   1.016   2.978   9.865 -0.4000  0.0393  0.5902
  305MOL0     O40186   0.896   3.052   9.871 -0.6952  0.2077  0.3607
  305MOL0     C40187   0.879   3.169   9.960 -0.6463  0.7850 -0.2485
  305MOL0     C40188   0.794   3.269   9.888  0.9701 -0.1117 -0.6161
  305MOL0     C40189   0.785   3.378   9.994  0.0828 -0.5552 -0.0680
  305MOL0     C40190   0.687   3.489   9.936  0.3991  0.1748 -0.1985
  305MOL0     C40191   0.743   3.556   9.823  0.4041  0.3125  0.3645
  305MOL0     C40192   0.785   3.642   9.736 -1.7657 -0.2958 -1.3733
  305MOL0     C40193   1.009   2.869   9.775 -0.4957 -1.9075 -0.3891
  305MOL0     C40194   1.105   2.773   9.768  0.6256  0.1512 -0.1644
  305MOL0     H40195   1.491   2.439   9.804 -2.3525  1.7028  0.5105
  305MOL0     H40196   1.613   2.258   9.909 -0.8253 -1.7002  1.4109
  305MOL0     H40197   1.769   2.077  10.207 -1.8582 -0.4918  1.5490
  305MOL0     H40198   1.712   2.111  10.036  1.7288  1.6711  0.3446
  305MOL0     H40199   1.547   2.011  10.229 -0.0917  1.3085  0.5657
  305MOL0     H40200   1.490   2.144  10.127  0.5331 -2.2802 -1.9198
  305MOL0     H40201   1.537   2.289  10.338  1.1550 -0.8125  1.4762
  305MOL0     H40202   1.602   2.136  10.406 -1.4024 -1.5573  0.9211
  305MOL0     H40203   1.325   2.232  10.365  0.6043 -0.8121 -2.5112
  305MOL0     H40204   1.346   2.053  10.352 -0.3980 -1.9520  3.4059
  305MOL0     H40205   1.444   2.213  10.581 -0.8549  2.1695 -1.1604
  305MOL0     H40206   1.419   2.035  10.578 -1.3236 -0.6682 -2.5120
  305MOL0     H40207   1.201   2.238  10.603 -0.8012 -0.6392  1.5547
  305MOL0     H40208   1.225   2.105  10.714  1.3041  2.2427  1.0784
  305MOL0     H40209   1.103   2.096  10.440 -2.2498 -0.9341  0.5543
  305MOL0     H40210   1.193   1.959  10.498  0.2803  1.0431 -0.1923
  305MOL0     H40211   1.065   1.953  10.692 -0.2568  0.3613  1.1657
  305MOL0     H40212   0.977   1.919  10.544  0.9470 -1.0516  1.3129
  305MOL0     H40213   0.824   2.100  10.459  0.2594 -0.9833  0.5550
  305MOL0     H40214   0.675   2.334  10.437  0.4147  0.1575 -0.3193
  305MOL0     H40215   0.726   2.457  10.549  0.5466 -0.4839 -1.8267
  305MOL0     H40216   0.586   2.331  10.732  4.4681 -0.4368  1.5126
  305MOL0     H40217   0.554   2.214  10.606 -0.1766  1.5068 -1.5533
  305MOL0     H40218   0.455   2.510  10.588  0.5421  0.9037 -2.5867
  305MOL0     H40219   0.448   2.391  10.456 -0.1705 -0.6825  0.2370
  305MOL0     H40220   0.321   2.348  10.714 -0.9057 -0.6530  0.5954
  305MOL0     H40221   0.307   2.251  10.562  1.4296  1.3561 -1.9235
  305MOL0     H40222   0.017   2.551  10.474  2.0863 -1.3025 -0.4671
  305MOL0     H40223  -0.214   2.545  10.560  0.8637  0.2934 -0.6487
  305MOL0     H40224  -0.516   2.331  10.623  2.1967 -0.7507  2.4096
  305MOL0     H40225  -0.756   2.296  10.641 -5.2020 -0.1746  3.3762
  305MOL0     H40226  -0.980   2.581  10.912  0.5410  0.8417 -1.5181
  305MOL0     H40227  -0.950   2.420  10.984 -1.7882  0.3448  0.5232
  305MOL0     H40228  -1.149   2.368  10.801  1.9981  0.2172 -1.1285
  305MOL0     H40229  -1.202   2.512  10.893  2.6231  2.1062 -3.1154
  305MOL0     H40230  -1.164   2.361  11.106  0.9607  0.4877  0.0008
  305MOL0     H40231  -1.116   2.235  11.004  0.6218 -0.7072  1.7229
  305MOL0     H40232  -1.331   2.269  10.868 -4.0805  1.1991  0.6916
  305MOL0     H40233  -1.344   2.183  11.026 -1.3742  0.5431  1.8537
  305MOL0     H40234  -1.395   2.483  10.990  0.7367  0.4858  2.1035
  305MOL0     H40235  -1.411   2.391  11.132 -1.7483 -0.7547  0.2858
  305MOL0     H40236  -1.604   2.286  11.073 -2.3530 -0.0300 -1.5946
  305MOL0     H40237  -1.586   2.307  10.903 -2.0172 -0.1063 -0.4834
  305MOL0     H40238  -1.676   2.513  11.126  0.2033 -1.0097  0.1457
  305MOL0     H40239  -1.622   2.584  10.977 -2.3835  0.5926 -1.4073
  305MOL0     H40240  -1.789   2.418  10.846  1.3088 -3.5508  1.8127
  305MOL0     H40241  -1.856   2.553  10.950 -1.1474 -0.8587  3.1804
  305MOL0     H40242  -0.779   2.618  10.930 -0.8835  0.6830 -0.8038
  305MOL0     H40243  -0.528   2.667  10.869 -0.5859  0.6635 -1.1104
  305MOL0     H40244  -0.099   2.285  10.874  0.8307 -2.2228  0.0758
  305MOL0     H40245   0.129   2.281  10.795  0.6273 -0.5240 -1.2911
  305MOL0     H40246   1.653   2.477  10.270  0.7544 -2.8024 -0.4515
  305MOL0     H40247   1.541   2.657  10.177  1.8902  0.8293 -0.8535
  305MOL0     H40248   1.327   2.895   9.995  0.1132  0.4365 -0.5160
  305MOL0     H40249   1.156   3.075  10.016  0.1230 -1.5222  2.7781
  305MOL0     H40250   0.970   3.229   9.972 -1.5089  2.1607 -0.4458
  305MOL0     H40251   0.840   3.137  10.057 -0.5554  1.4784  0.0195
  305MOL0     H40252   0.843   3.302   9.795 -0.4102 -0.1871 -1.3919
  305MOL0     H40253   0.698   3.223   9.866  1.2458 -1.4497  0.8236
  305MOL0     H40254   0.884   3.418  10.019 -0.5622  1.8338 -1.0117
  305MOL0     H40255   0.738   3.346  10.087  1.4575  2.4702  1.8351
  305MOL0     H40256   0.583   3.457   9.920  1.1900 -1.4261 -2.6450
  305MOL0     H40257   0.686   3.565  10.015  1.2294 -0.5191  0.4977
  305MOL0     H40258   0.827   3.722   9.679 -0.0844  1.4030  1.9250
  305MOL0     H40259   0.918   2.870   9.715  0.1603 -2.8545 -1.4427
  305MOL0     H40260   1.088   2.686   9.706  0.2043  0.9145 -1.1597
  306MOL0     O40261   0.269   9.768  10.774 -0.4615  0.0645 -0.0754
  306MOL0     C40262   0.349   9.855  10.735  0.1079  0.2378 -0.6088
  306MOL0     O40263   0.338   9.983  10.762  0.2233  0.4024  0.5130
  306MOL0     C40264   0.230  10.039  10.821  0.2011  0.2167  0.6586
  306MOL0     C40265   0.173  10.158  10.783  0.1778  0.1611  1.0591
  306MOL0     C40266   0.063  10.214  10.851 -0.0252 -0.0820 -0.4339
  306MOL0     C40267   0.001  10.153  10.959  0.8133  0.3390 -0.1846
  306MOL0     O40268  -0.109  10.207  11.009  0.2174  0.2067  0.5113
  306MOL0     C40269  -0.214  10.121  11.062  0.7653 -1.2671 -0.4618
  306MOL0     C40270  -0.314  10.220  11.122  0.2988 -0.6821  0.8660
  306MOL0     C40271  -0.400  10.309  11.022 -0.2853 -0.2294  0.5555
  306MOL0     C40272  -0.336  10.442  10.992 -0.0406 -0.1877  0.1697
  306MOL0     C40273  -0.427  10.522  10.912 -0.9570 -0.2183  0.4398
  306MOL0     C40274  -0.356  10.655  10.877  0.8834  1.3768  0.5763
  306MOL0     C40275  -0.461  10.758  10.839 -0.1394  0.4169 -1.2825
  306MOL0     C40276  -0.386  10.887  10.817  0.3342 -0.6987 -0.3388
  306MOL0     N40277  -0.471  10.993  10.759 -0.8724  0.0996  0.4516
  306MOL0     C40278  -0.544  11.084  10.834  0.0065  0.2245 -0.7762
  306MOL0     C40279  -0.579  11.187  10.756 -0.5958  0.1958  0.0193
  306MOL0     C40280  -0.674  11.298  10.800 -0.4124 -0.7937 -0.9882
  306MOL0     C40281  -0.798  11.316  10.708  0.0677 -0.2896  0.0304
  306MOL0     C40282  -0.859  11.460  10.724  0.0727  0.3430 -0.0206
  306MOL0     C40283  -0.895  11.506  10.860  0.2589  0.2718 -0.5110
  306MOL0     O40284  -0.989  11.617  10.837 -0.5291  0.2330 -0.0497
  306MOL0     C40285  -1.086  11.645  10.918 -0.6158  0.4896 -0.5871
  306MOL0     C40286  -1.112  11.584  11.050 -0.0422  0.1927  0.3634
  306MOL0     C40287  -1.222  11.642  11.134  0.1186  0.2567  0.2004
  306MOL0     C40288  -1.293  11.752  11.096 -0.4502  0.6421  0.5629
  306MOL0     C40289  -1.416  11.804  11.162 -1.0162 -0.2180 -0.6822
  306MOL0     O40290  -1.470  11.722  11.250  0.1109  0.0328  0.9285
  306MOL0     C40291  -1.575  11.747  11.331 -0.2953  0.9176 -0.3688
  306MOL0     C40292  -1.554  11.824  11.443 -0.1006 -0.3004 -0.5772
  306MOL0     C40293  -1.649  11.837  11.544  1.0002 -0.5890  0.6735
  306MOL0     C40294  -1.765  11.769  11.533  0.8270 -0.1411  0.0742
  306MOL0     O40295  -1.845  11.790  11.635  0.2392 -0.0763  0.7293
  306MOL0     C40296  -1.971  11.719  11.649  0.1956 -0.3275 -0.1492
  306MOL0     C40297  -2.056  11.795  11.754  0.2205  0.2095 -0.5615
  306MOL0     C40298  -2.178  11.712  11.798  0.1998  0.2534  0.0599
  306MOL0     C40299  -2.274  11.787  11.892  0.1274 -0.5079  0.3974
  306MOL0     C40300  -2.367  11.682  11.968  0.4572 -0.0492  0.8122
  306MOL0     C40301  -2.315  11.649  12.117  0.0442 -0.8853 -1.1779
  306MOL0     C40302  -2.366  11.751  12.218 -0.1734  1.1028  0.4654
  306MOL0     C40303  -2.269  11.766  12.331 -0.0523  0.1377 -0.0987
  306MOL0    Cl40304  -2.116  11.850  12.277  0.5671 -0.6780  0.0038
  306MOL0     C40305  -1.796  11.687  11.423 -0.3851 -0.8434 -0.5468
  306MOL0     C40306  -1.693  11.665  11.326 -0.8201  0.2762 -0.1487
  306MOL0     O40307  -1.455  11.915  11.130 -0.4193 -0.3661  0.3930
  306MOL0     C40308  -1.258  11.807  10.966 -0.9813  0.2247  0.9257
  306MOL0     C40309  -1.164  11.751  10.875 -0.2190 -0.5891 -0.0151
  306MOL0     N40310  -0.516  11.154  10.628 -0.3867 -0.2397 -0.1746
  306MOL0     N40311  -0.455  11.037  10.634 -0.3767  0.0399 -0.4117
  306MOL0     C40312   0.061  10.036  10.999  0.5592 -0.3076  0.5187
  306MOL0     C40313   0.177   9.981  10.945 -0.4102 -0.0826  0.0357
  306MOL0     C40314   0.471   9.805  10.671  0.0316 -0.5258  0.5881
  306MOL0     C40315   0.573   9.897  10.645  0.0135  0.1485  0.1837
  306MOL0     C40316   0.685   9.861  10.572  0.2895  0.8749  0.3161
  306MOL0     C40317   0.697   9.725  10.536  0.2684  0.2813  0.1912
  306MOL0     O40318   0.796   9.685  10.450  0.0738 -0.3508 -0.0561
  306MOL0     C40319   0.833   9.551  10.406 -0.2125 -0.0650  1.0935
  306MOL0     C40320   0.923   9.466  10.496  0.1440 -0.8271  0.0423
  306MOL0     C40321   0.939   9.327  10.436  0.7820 -0.4072  0.0520
  306MOL0     C40322   1.047   9.259  10.513  0.2221  1.2870 -0.0309
  306MOL0     C40323   0.978   9.183  10.627  0.7511 -0.7944 -0.5336
  306MOL0     C40324   0.909   9.126  10.714 -0.1836 -0.1629 -0.5813
  306MOL0     C40325   0.611   9.623  10.583  0.5425 -0.8310 -0.8091
  306MOL0     C40326   0.494   9.666  10.644  0.4537  0.2893  0.7726
  306MOL0     H40327   0.221  10.202  10.696  0.5933 -2.5529 -0.2099
  306MOL0     H40328   0.018  10.305  10.811 -3.3400 -1.2028  0.3847
  306MOL0     H40329  -0.180  10.043  11.130 -0.7532 -1.1462  0.4791
  306MOL0     H40330  -0.256  10.061  10.981 -2.8340 -1.3904  1.2925
  306MOL0     H40331  -0.256  10.280  11.192 -1.2195 -1.4635  2.8901
  306MOL0     H40332  -0.380  10.162  11.187 -2.0494 -0.2621 -0.9924
  306MOL0     H40333  -0.494  10.333  11.072  0.2969 -0.0657  1.5877
  306MOL0     H40334  -0.424  10.257  10.928  3.2911 -0.9581 -0.1183
  306MOL0     H40335  -0.311  10.495  11.085  0.6724  0.7542 -0.5276
  306MOL0     H40336  -0.242  10.421  10.940  0.9607  0.0715  1.7880
  306MOL0     H40337  -0.519  10.531  10.971  0.4783 -0.3752  2.8182
  306MOL0     H40338  -0.445  10.481  10.812  1.5395  0.5665 -0.3938
  306MOL0     H40339  -0.285  10.637  10.796 -1.0433  1.7306 -1.2944
  306MOL0     H40340  -0.288  10.687  10.956 -1.0847 -2.5658  4.2673
  306MOL0     H40341  -0.521  10.721  10.756 -1.2789 -2.0282  0.5385
  306MOL0     H40342  -0.529  10.771  10.924  1.1097  0.4825 -0.2580
  306MOL0     H40343  -0.299  10.857  10.759 -0.4063 -1.5512 -1.0410
  306MOL0     H40344  -0.350  10.921  10.914  0.4109  1.9992 -1.2249
  306MOL0     H40345  -0.573  11.069  10.937  0.5132  0.1591 -0.6395
  306MOL0     H40346  -0.617  11.391  10.809 -1.1943 -0.1301 -2.6231
  306MOL0     H40347  -0.707  11.272  10.901  3.3557  4.6901  2.2152
  306MOL0     H40348  -0.873  11.241  10.734 -2.3364  1.1836 -2.1232
  306MOL0     H40349  -0.783  11.281  10.606  0.2461 -2.1296  0.6426
  306MOL0     H40350  -0.793  11.536  10.683  0.3345  1.0635  1.6741
  306MOL0     H40351  -0.950  11.472  10.664  0.1156  0.4294 -0.0670
  306MOL0     H40352  -0.809  11.544  10.916 -1.2247  2.1029  0.5996
  306MOL0     H40353  -0.950  11.428  10.913  1.1746  0.0734  0.1719
  306MOL0     H40354  -1.060  11.493  11.080  1.4631  0.6369 -0.7653
  306MOL0     H40355  -1.250  11.592  11.226 -0.6209  0.5179  0.1255
  306MOL0     H40356  -1.455  11.867  11.456 -0.1326 -0.0224 -1.2359
  306MOL0     H40357  -1.620  11.904  11.624 -0.9356  0.9440  0.1846
  306MOL0     H40358  -1.951  11.613  11.668  1.0716 -0.0920  0.2823
  306MOL0     H40359  -2.030  11.726  11.557  0.6374  1.1684 -0.3495
  306MOL0     H40360  -2.093  11.888  11.711 -0.8545  0.0347 -0.0381
  306MOL0     H40361  -1.989  11.821  11.836  1.2255  1.5399 -1.7504
  306MOL0     H40362  -2.149  11.613  11.835 -0.2619 -1.4201 -3.6232
  306MOL0     H40363  -2.233  11.682  11.708 -2.2799  0.7131  1.3177
  306MOL0     H40364  -2.215  11.839  11.967 -2.1116  2.2705  0.3952
  306MOL0     H40365  -2.332  11.868  11.845 -2.3438 -3.1013 -1.3701
  306MOL0     H40366  -2.378  11.592  11.907 -2.4092 -0.2206  1.4446
  306MOL0     H40367  -2.466  11.725  11.985  0.3712 -0.0006  0.2082
  306MOL0     H40368  -2.205  11.651  12.117  0.0652  1.3905  0.0232
  306MOL0     H40369  -2.341  11.545  12.138  1.0807 -0.3901  3.7482
  306MOL0     H40370  -2.370  11.855  12.184 -0.7214  1.0446  0.3441
  306MOL0     H40371  -2.463  11.732  12.265  1.2805  2.1789  4.2754
  306MOL0     H40372  -2.234  11.670  12.372  0.5321 -0.5684 -2.1230
  306MOL0     H40373  -2.315  11.825  12.410  0.8188  1.5470 -0.6150
  306MOL0     H40374  -1.891  11.636  11.409  0.8827 -4.1632  1.5639
  306MOL0     H40375  -1.708  11.595  11.244 -0.5469  0.4716 -0.3664
  306MOL0     H40376  -1.309  11.895  10.929  2.3318  2.8189  1.9869
  306MOL0     H40377  -1.139  11.793  10.778  0.7284 -2.1417 -0.4815
  306MOL0     H40378   0.014   9.979  11.078 -0.0808  0.8701  1.0017
  306MOL0     H40379   0.206   9.886  10.989 -1.1542 -0.2803  0.1142
  306MOL0     H40380   0.567   9.999  10.682 -0.5758 -0.2416  1.1955
  306MOL0     H40381   0.753   9.935  10.532 -1.4731  2.3744 -0.0418
  306MOL0     H40382   0.880   9.565  10.308 -1.5004  1.0975  0.5949
  306MOL0     H40383   0.741   9.498  10.382 -0.3755  0.3834  0.7026
  306MOL0     H40384   1.014   9.519  10.525 -0.6287 -0.5158  2.0919
  306MOL0     H40385   0.863   9.465  10.588 -2.9411  2.0520 -1.7075
  306MOL0     H40386   0.963   9.334  10.329 -0.0651 -0.6121 -0.1582
  306MOL0     H40387   0.845   9.277  10.460  1.1712  0.0925  3.0083
  306MOL0     H40388   1.097   9.193  10.441  3.5380  2.7787  0.6771
  306MOL0     H40389   1.123   9.332  10.544  1.0263 -0.1900  1.5860
  306MOL0     H40390   0.830   9.104  10.783  0.5285 -0.4919  0.1549
  306MOL0     H40391   0.627   9.517  10.563  0.2655 -0.8954 -0.6898
  306MOL0     H40392   0.413   9.596  10.665  0.4674  0.4680  1.4384
  307MOL0     O40393   2.797   2.581   1.088  0.3523  0.4040 -1.1884
  307MOL0     C40394   2.769   2.468   1.082  0.3486 -0.0039 -0.5021
  307MOL0     O40395   2.678   2.394   1.160 -0.5132  0.0155 -0.4215
  307MOL0     C40396   2.653   2.434   1.282 -0.2779  0.0055 -0.0608
  307MOL0     C40397   2.593   2.323   1.346  0.0828 -0.5836 -0.3251
  307MOL0     C40398   2.565   2.338   1.483 -0.7499 -0.5547  0.7279
  307MOL0     C40399   2.597   2.466   1.554  0.2274 -0.2746  0.6828
  307MOL0     O40400   2.582   2.468   1.696  0.1239 -0.6228  0.4016
  307MOL0     C40401   2.640   2.370   1.782 -0.0371  0.3847 -0.6999
  307MOL0     C40402   2.776   2.309   1.747  0.9423 -1.7972  0.2598
  307MOL0     C40403   2.905   2.399   1.741  0.1174 -0.5243 -1.5254
  307MOL0     C40404   2.933   2.481   1.868  0.4483  0.2641  0.2657
  307MOL0     C40405   3.082   2.513   1.902 -0.5418  0.7708  0.1804
  307MOL0     C40406   3.096   2.598   2.022 -0.0004 -0.3947  0.4069
  307MOL0     C40407   3.246   2.622   2.048 -0.0308 -0.1445 -0.2188
  307MOL0     C40408   3.274   2.700   2.183 -0.3995  0.5818  0.0859
  307MOL0     N40409   3.211   2.826   2.192  0.3656 -0.3835 -0.2489
  307MOL0     C40410   3.215   2.938   2.107 -0.7591  0.1846 -0.6502
  307MOL0     C40411   3.163   3.032   2.180  0.4544  0.1872  0.5785
  307MOL0     C40412   3.148   3.173   2.145 -0.3052  1.1973  0.8276
  307MOL0     C40413   3.274   3.250   2.180 -0.3906  0.5847  0.5700
  307MOL0     C40414   3.296   3.263   2.328 -0.0137  0.2478 -0.4030
  307MOL0     C40415   3.426   3.337   2.354  0.5600 -0.2365  0.2155
  307MOL0     O40416   3.523   3.233   2.330  0.3688 -0.5200 -1.1103
  307MOL0     C40417   3.652   3.276   2.334  0.8596  0.4487  0.6151
  307MOL0     C40418   3.738   3.172   2.326 -0.7141 -0.7600  0.2422
  307MOL0     C40419   3.880   3.193   2.334  0.0343 -0.2007 -0.0440
  307MOL0     C40420   3.922   3.326   2.350 -0.1249 -0.1211 -1.0859
  307MOL0     C40421   4.068   3.346   2.375  0.3046  0.0199  0.7320
  307MOL0     O40422   4.111   3.471   2.341 -0.4662 -0.1989 -0.1704
  307MOL0     C40423   4.231   3.506   2.395 -0.2629  0.3662  1.0970
  307MOL0     C40424   4.244   3.521   2.531 -0.3202 -1.2493  0.2166
  307MOL0     C40425   4.369   3.542   2.584 -0.1563 -0.4063  0.0034
  307MOL0     C40426   4.477   3.543   2.503 -0.4536 -0.2725  0.9893
  307MOL0     O40427   4.602   3.569   2.554 -0.5191  0.8660 -0.1065
  307MOL0     C40428   4.625   3.669   2.648 -0.4463 -0.4026 -0.0311
  307MOL0     C40429   4.774   3.672   2.678 -0.3258  1.0044 -0.5668
  307MOL0     C40430   4.818   3.783   2.768 -0.1800 -0.7905  0.9105
  307MOL0     C40431   4.963   3.765   2.810 -0.7230 -0.0084 -1.1763
  307MOL0     C40432   5.021   3.898   2.859 -0.3927  0.0505  0.2884
  307MOL0     C40433   5.174   3.892   2.877  0.3943  0.4217 -0.5873
  307MOL0     C40434   5.206   4.042   2.896  1.1198 -0.3992 -0.1598
  307MOL0     C40435   5.357   4.065   2.915 -0.0168 -0.4450 -0.1706
  307MOL0    Cl40436   5.385   4.238   2.920 -0.4211  0.5590  0.6205
  307MOL0     C40437   4.468   3.540   2.361 -0.1783  0.6318 -0.2110
  307MOL0     C40438   4.339   3.512   2.309  0.7002  0.2178  0.1915
  307MOL0     O40439   4.134   3.252   2.420  0.1937  0.0031 -0.8118
  307MOL0     C40440   3.829   3.431   2.350  0.0898 -0.0733 -0.2335
  307MOL0     C40441   3.695   3.405   2.333  0.9953 -0.6012 -0.5809
  307MOL0     N40442   3.125   2.986   2.305  0.1785 -0.4374  0.7784
  307MOL0     N40443   3.155   2.864   2.315  0.0904  0.0226  0.5436
  307MOL0     C40444   2.657   2.567   1.487  0.0591 -0.7269  0.7453
  307MOL0     C40445   2.684   2.557   1.349  0.4378  0.0778  0.1378
  307MOL0     C40446   2.852   2.393   0.980  0.0508 -0.1462  0.7438
  307MOL0     C40447   2.866   2.256   0.995  0.3694 -0.3398  0.5373
  307MOL0     C40448   2.934   2.180   0.906 -0.5704  0.2102 -0.1233
  307MOL0     C40449   3.017   2.250   0.818  1.2796 -0.3345  0.2676
  307MOL0     O40450   3.080   2.209   0.710  0.0249  0.4518  0.3563
  307MOL0     C40451   3.022   2.099   0.636 -1.3332 -0.6990 -0.2990
  307MOL0     C40452   3.050   2.111   0.486 -0.4815 -0.0324  1.5835
  307MOL0     C40453   3.192   2.106   0.438 -0.2150 -0.0574  0.9245
  307MOL0     C40454   3.266   2.244   0.420  0.8886  0.4578  0.0527
  307MOL0     C40455   3.409   2.212   0.384 -0.7171  0.5962  0.1373
  307MOL0     C40456   3.524   2.178   0.373  0.9665 -0.3259  0.4796
  307MOL0     C40457   3.014   2.392   0.811 -0.8555  0.6232 -0.4675
  307MOL0     C40458   2.929   2.464   0.887  0.1137  0.6622  0.0204
  307MOL0     H40459   2.568   2.228   1.301 -3.5020 -0.3752  0.9202
  307MOL0     H40460   2.511   2.262   1.537 -0.3846 -1.8000 -0.6047
  307MOL0     H40461   2.579   2.279   1.789  1.0719 -0.3573 -0.3057
  307MOL0     H40462   2.625   2.415   1.880 -5.3514  0.7122 -1.3713
  307MOL0     H40463   2.769   2.260   1.649  1.4684 -0.3685 -0.5187
  307MOL0     H40464   2.799   2.244   1.832  3.4443 -1.0161  0.2822
  307MOL0     H40465   2.891   2.465   1.655 -2.2419  0.2197 -0.6475
  307MOL0     H40466   2.986   2.326   1.730  1.0812 -0.2315  2.2289
  307MOL0     H40467   2.872   2.571   1.859  0.5487  0.1160 -2.5414
  307MOL0     H40468   2.900   2.411   1.946  0.9130 -0.6658 -0.3626
  307MOL0     H40469   3.123   2.567   1.816  0.3267  1.0639  0.7638
  307MOL0     H40470   3.137   2.419   1.893  0.8034  1.7177 -4.1106
  307MOL0     H40471   3.050   2.549   2.108 -2.4415  0.8525 -0.0898
  307MOL0     H40472   3.045   2.694   2.008  0.1277 -0.6127 -1.8393
  307MOL0     H40473   3.292   2.523   2.043  0.2615  0.0701 -3.2110
  307MOL0     H40474   3.291   2.689   1.974  1.2325  3.2539  3.2525
  307MOL0     H40475   3.382   2.716   2.190  0.1275 -2.4244  0.0710
  307MOL0     H40476   3.236   2.640   2.265  2.0605 -0.1354  0.8020
  307MOL0     H40477   3.257   2.953   2.008  0.2685  2.6272  0.0755
  307MOL0     H40478   3.059   3.210   2.195 -0.8665  0.0071  0.7191
  307MOL0     H40479   3.136   3.180   2.036  2.6119 -1.6397  0.1569
  307MOL0     H40480   3.264   3.347   2.132 -3.4646  0.4205  0.7165
  307MOL0     H40481   3.360   3.198   2.137 -2.3563 -1.4300 -1.1377
  307MOL0     H40482   3.212   3.310   2.379  0.5885  2.4592 -1.3086
  307MOL0     H40483   3.303   3.163   2.371 -3.6822  1.0101  2.4189
  307MOL0     H40484   3.427   3.368   2.458 -0.1866  0.2680  0.0842
  307MOL0     H40485   3.434   3.427   2.291  2.1195  0.0470  0.7821
  307MOL0     H40486   3.690   3.076   2.312  0.2261 -1.1798 -0.2444
  307MOL0     H40487   3.947   3.108   2.330 -0.0947 -0.3278  0.3768
  307MOL0     H40488   4.159   3.526   2.598 -1.8484  1.3836 -1.7268
  307MOL0     H40489   4.367   3.553   2.692  1.3589 -2.2145  0.2569
  307MOL0     H40490   4.571   3.657   2.743  1.8430 -1.9562  1.1695
  307MOL0     H40491   4.592   3.767   2.612  1.1624  0.6977  1.3871
  307MOL0     H40492   4.830   3.689   2.586 -0.3282  0.0736 -0.7453
  307MOL0     H40493   4.812   3.578   2.719  2.9971  2.5316  0.1871
  307MOL0     H40494   4.765   3.801   2.862  4.1925 -0.7277  3.6743
  307MOL0     H40495   4.808   3.869   2.701  0.8487 -1.3320  0.0428
  307MOL0     H40496   4.971   3.692   2.892 -3.1169  0.3291 -0.5597
  307MOL0     H40497   5.021   3.739   2.721  0.1155  1.5928 -1.1392
  307MOL0     H40498   4.972   3.919   2.954 -1.0206 -0.6140  0.1254
  307MOL0     H40499   4.992   3.970   2.782  2.3137  0.8992 -0.0540
  307MOL0     H40500   5.235   3.848   2.797  0.5417  0.2068 -0.3561
  307MOL0     H40501   5.205   3.838   2.967  1.7737  0.1035 -1.2329
  307MOL0     H40502   5.172   4.097   2.808 -0.4167 -0.0941  0.5840
  307MOL0     H40503   5.146   4.080   2.980  0.8775  3.2508 -1.7777
  307MOL0     H40504   5.405   4.024   2.826 -1.5791 -1.0346 -0.7853
  307MOL0     H40505   5.408   4.015   2.998 -0.5212  0.6086  0.7925
  307MOL0     H40506   4.550   3.536   2.291  1.2331  1.5440  1.3299
  307MOL0     H40507   4.321   3.498   2.203  0.1984  1.9916  0.0037
  307MOL0     H40508   3.874   3.530   2.357  0.8299 -0.1213 -2.9847
  307MOL0     H40509   3.636   3.496   2.327  3.5483  1.1771 -0.5254
  307MOL0     H40510   2.691   2.654   1.543 -2.4601 -0.6571  2.3465
  307MOL0     H40511   2.741   2.641   1.310  1.6350  0.0481  1.6722
  307MOL0     H40512   2.803   2.210   1.070  0.1743  1.8387  1.7957
  307MOL0     H40513   2.937   2.074   0.928  0.2696  0.1458 -0.4930
  307MOL0     H40514   2.913   2.108   0.645 -1.2800  1.0763 -1.1024
  307MOL0     H40515   3.045   2.006   0.688 -0.0722  0.2214  0.8666
  307MOL0     H40516   3.003   2.024   0.439 -0.3728 -0.1013  1.6007
  307MOL0     H40517   2.995   2.200   0.457  2.4488  1.6458  0.7429
  307MOL0     H40518   3.193   2.061   0.338 -1.3575 -0.1081  0.9262
  307MOL0     H40519   3.244   2.049   0.516 -0.5758  1.0890  2.0413
  307MOL0     H40520   3.210   2.301   0.345 -0.5356 -1.7193 -0.6047
  307MOL0     H40521   3.272   2.294   0.517 -0.0309 -1.2605  1.0271
  307MOL0     H40522   3.622   2.138   0.354  0.3000 -0.4347 -3.8480
  307MOL0     H40523   3.075   2.436   0.733 -0.5708 -0.6912 -1.0203
  307MOL0     H40524   2.934   2.573   0.882  1.0387  0.6967  1.2187
  308MOL0     O40525   8.574   7.031   0.664  0.0643 -0.3660 -0.2521
  308MOL0     C40526   8.622   6.917   0.674  0.2384 -1.2667 -0.7257
  308MOL0     O40527   8.587   6.826   0.761  0.1177 -0.3710 -0.2922
  308MOL0     C40528   8.470   6.827   0.841  0.0424  0.4256 -0.1218
  308MOL0     C40529   8.348   6.895   0.802  0.3192  0.1580  0.5521
  308MOL0     C40530   8.231   6.891   0.878  0.9279 -0.2611 -0.8870
  308MOL0     C40531   8.228   6.835   1.002  0.1535 -0.8524  0.1496
  308MOL0     O40532   8.111   6.835   1.064 -0.5433 -0.1107  0.5337
  308MOL0     C40533   8.070   6.714   1.120  1.0434  0.7326 -0.5519
  308MOL0     C40534   8.023   6.737   1.271  0.2531 -0.0071  0.3087
  308MOL0     C40535   7.873   6.775   1.270 -0.5873 -0.3019  0.0991
  308MOL0     C40536   7.861   6.925   1.248 -0.3104  0.4440  0.1296
  308MOL0     C40537   7.737   6.984   1.318  0.3248 -0.5239  0.1836
  308MOL0     C40538   7.758   7.014   1.463  0.1198 -0.2125 -1.3951
  308MOL0     C40539   7.645   7.095   1.527  0.1191 -0.0815  0.4304
  308MOL0     C40540   7.641   7.096   1.683 -0.4093  0.1911  1.5238
  308MOL0     N40541   7.750   7.181   1.743 -0.5764 -0.0588 -0.0444
  308MOL0     C40542   7.871   7.134   1.764  0.2288  0.6326 -0.3945
  308MOL0     C40543   7.936   7.218   1.852 -0.1824  0.4889 -0.0799
  308MOL0     C40544   8.082   7.214   1.889  0.4305  0.5620  0.1111
  308MOL0     C40545   8.096   7.150   2.022  0.5681  0.4478  0.1367
  308MOL0     C40546   8.246   7.096   2.050  0.4659 -0.2784 -0.6144
  308MOL0     C40547   8.340   7.215   2.058  1.3607 -0.0722 -0.3441
  308MOL0     O40548   8.478   7.180   2.083  0.0987  0.2953 -0.1559
  308MOL0     C40549   8.561   7.125   1.985  0.8819  0.4391 -0.0324
  308MOL0     C40550   8.683   7.087   2.021 -0.1444  0.0065 -0.0113
  308MOL0     C40551   8.776   7.060   1.917  0.2772  1.1919  0.2044
  308MOL0     C40552   8.752   7.081   1.782 -0.3616  0.3869  0.2554
  308MOL0     C40553   8.846   7.045   1.672 -0.4528  0.4788 -0.4753
  308MOL0     O40554   8.844   7.108   1.550 -0.4950 -0.2307 -0.0925
  308MOL0     C40555   8.927   7.075   1.448 -0.2874 -0.3599  0.6450
  308MOL0     C40556   8.952   6.938   1.409  0.4902  0.6442 -1.0059
  308MOL0     C40557   9.043   6.917   1.304  0.5854  0.1041  0.7713
  308MOL0     C40558   9.109   7.015   1.233  0.6049 -0.3365  0.3303
  308MOL0     O40559   9.193   6.980   1.135 -1.2411 -0.6509  0.1409
  308MOL0     C40560   9.280   7.074   1.082 -0.2697  0.8774  1.5110
  308MOL0     C40561   9.207   7.170   0.973 -0.0328  0.1783 -0.7610
  308MOL0     C40562   9.288   7.287   0.911 -0.3354  0.4270 -0.0453
  308MOL0     C40563   9.392   7.250   0.807 -0.2025 -0.1693 -0.0659
  308MOL0     C40564   9.324   7.221   0.675  0.0634 -0.1374  0.7553
  308MOL0     C40565   9.419   7.224   0.556  0.1708 -0.5670  0.9410
  308MOL0     C40566   9.510   7.107   0.532  0.5048  0.4924  0.2988
  308MOL0     C40567   9.631   7.144   0.446  0.7077  0.1215 -0.6387
  308MOL0    Cl40568   9.730   6.988   0.417 -0.1648 -0.0268 -0.0929
  308MOL0     C40569   9.082   7.153   1.271  0.0362  0.3447  0.4557
  308MOL0     C40570   8.995   7.180   1.378 -0.1423 -0.0968  0.2812
  308MOL0     O40571   8.933   6.956   1.698  0.0464  0.0784  0.4266
  308MOL0     C40572   8.622   7.121   1.747  0.3824  0.3029 -0.6004
  308MOL0     C40573   8.530   7.145   1.849 -1.4831 -0.4441  0.0063
  308MOL0     N40574   7.847   7.317   1.889  0.1485 -0.6482 -0.2794
  308MOL0     N40575   7.744   7.298   1.809 -0.0887  0.0069 -0.4797
  308MOL0     C40576   8.356   6.781   1.045 -0.1243 -0.9929  0.0055
  308MOL0     C40577   8.468   6.768   0.970 -0.1595  0.6107  0.3637
  308MOL0     C40578   8.744   6.884   0.598 -0.3051 -0.4663  0.0690
  308MOL0     C40579   8.810   6.757   0.602  0.0872 -0.4599  0.1021
  308MOL0     C40580   8.918   6.743   0.517 -0.0537 -0.0687  0.6285
  308MOL0     C40581   8.982   6.851   0.441  0.4698 -0.7109 -0.7172
  308MOL0     O40582   9.094   6.820   0.361 -0.0985 -1.0880 -0.6250
  308MOL0     C40583   9.157   6.925   0.299 -0.6875  0.1997  0.8551
  308MOL0     C40584   9.096   6.971   0.170  0.1215  0.1126  0.5142
  308MOL0     C40585   9.137   7.107   0.125  0.1164  0.0926 -0.5665
  308MOL0     C40586   9.295   7.124   0.115  0.4639  0.1161 -0.2209
  308MOL0     C40587   9.360   7.012   0.047 -0.0732  0.0334  0.0713
  308MOL0     C40588   9.423   6.912   0.007  0.3371 -0.0872 -0.7365
  308MOL0     C40589   8.920   6.972   0.446 -0.5145 -0.7486  0.5428
  308MOL0     C40590   8.805   6.992   0.520  0.1733 -0.4456 -0.2147
  308MOL0     H40591   8.348   6.946   0.706  2.9319  0.2069  0.5085
  308MOL0     H40592   8.141   6.946   0.851  1.4924  0.4135 -1.4273
  308MOL0     H40593   8.144   6.634   1.119  2.5381  1.9529  2.0871
  308MOL0     H40594   7.980   6.688   1.063 -1.7909  3.0309  2.4785
  308MOL0     H40595   8.085   6.796   1.339  4.3718 -1.8478 -1.5071
  308MOL0     H40596   8.027   6.636   1.312  1.8200 -1.4771 -3.0306
  308MOL0     H40597   7.827   6.736   1.361 -3.2630 -3.0016 -2.1873
  308MOL0     H40598   7.820   6.721   1.190  1.7259  0.2815 -1.9763
  308MOL0     H40599   7.954   6.968   1.286  0.5520  0.0374 -1.4401
  308MOL0     H40600   7.849   6.938   1.140  0.2157 -0.8351 -0.1015
  308MOL0     H40601   7.657   6.910   1.311  1.2550 -1.5571  0.2325
  308MOL0     H40602   7.710   7.079   1.271 -2.5961 -2.4124 -2.3815
  308MOL0     H40603   7.856   7.057   1.481  0.3005 -1.5117  1.1618
  308MOL0     H40604   7.755   6.914   1.508 -0.3289  0.1788 -0.5313
  308MOL0     H40605   7.644   7.196   1.485 -1.1676 -1.3352 -2.9980
  308MOL0     H40606   7.555   7.044   1.493  0.4710 -1.4847  1.5258
  308MOL0     H40607   7.654   6.991   1.710 -0.5251 -1.4544 -3.6049
  308MOL0     H40608   7.541   7.119   1.720 -0.7546  1.0007  0.1983
  308MOL0     H40609   7.903   7.040   1.719  0.6140  1.0847 -1.0919
  308MOL0     H40610   8.115   7.318   1.886 -0.5262  0.8881  0.4596
  308MOL0     H40611   8.126   7.157   1.806  0.6589 -0.9031  1.1942
  308MOL0     H40612   8.029   7.063   2.020  0.8653  0.2174 -2.0330
  308MOL0     H40613   8.055   7.206   2.106 -1.7767 -2.6198  1.2461
  308MOL0     H40614   8.247   7.047   2.148 -1.1316 -0.3794 -0.6153
  308MOL0     H40615   8.282   7.024   1.976  1.0040  0.7118 -1.3405
  308MOL0     H40616   8.307   7.280   2.139 -1.3767 -0.2400 -1.2296
  308MOL0     H40617   8.339   7.273   1.964  1.4333 -1.2143 -1.0684
  308MOL0     H40618   8.712   7.078   2.125 -0.8919 -2.8245  0.0412
  308MOL0     H40619   8.874   7.031   1.955 -0.2452  1.3187  1.7355
  308MOL0     H40620   8.892   6.859   1.455  2.6881  0.0503  1.0354
  308MOL0     H40621   9.064   6.814   1.276 -0.3835 -0.3345  1.6134
  308MOL0     H40622   9.362   7.021   1.033 -0.8960 -0.4122  1.8048
  308MOL0     H40623   9.318   7.130   1.167 -1.2480 -2.0340  4.0630
  308MOL0     H40624   9.128   7.220   1.029  0.7117 -0.8156  1.2661
  308MOL0     H40625   9.172   7.106   0.892 -0.8139 -2.4742  1.5163
  308MOL0     H40626   9.336   7.338   0.995  1.9891 -2.6197  0.6918
  308MOL0     H40627   9.214   7.349   0.861 -0.0257 -0.5240 -1.7639
  308MOL0     H40628   9.469   7.328   0.813  1.0023 -1.2081 -1.4961
  308MOL0     H40629   9.447   7.158   0.827 -0.3003 -0.2627 -0.2287
  308MOL0     H40630   9.240   7.289   0.653  0.2344 -0.0695  0.2918
  308MOL0     H40631   9.279   7.121   0.677  0.7876 -0.4611  0.9162
  308MOL0     H40632   9.464   7.324   0.551 -2.1463  0.4959 -1.0597
  308MOL0     H40633   9.360   7.230   0.464 -0.2433  0.4945  1.2521
  308MOL0     H40634   9.535   7.056   0.625  1.4511 -0.0162 -0.2232
  308MOL0     H40635   9.458   7.025   0.481  0.2545 -0.0488  1.3951
  308MOL0     H40636   9.684   7.215   0.509  0.8332 -0.6370  0.1333
  308MOL0     H40637   9.600   7.187   0.350  1.2276 -0.4054 -1.0537
  308MOL0     H40638   9.124   7.243   1.229 -0.8496  0.2043 -0.8380
  308MOL0     H40639   8.981   7.285   1.400 -0.4300  0.6478 -2.9207
  308MOL0     H40640   8.604   7.145   1.642  2.3148  1.5497 -0.7036
  308MOL0     H40641   8.440   7.198   1.819 -0.1563  2.1322  0.3414
  308MOL0     H40642   8.357   6.763   1.152 -1.8048 -2.8987 -0.2466
  308MOL0     H40643   8.548   6.714   1.020 -1.1337 -0.0207  1.2752
  308MOL0     H40644   8.761   6.675   0.652 -0.4224  1.5383  3.1827
  308MOL0     H40645   8.969   6.648   0.530  1.4755  0.5552 -0.5682
  308MOL0     H40646   9.260   6.898   0.273 -1.7559 -0.4269 -3.5919
  308MOL0     H40647   9.160   7.015   0.362 -1.2980  1.6124 -1.0121
  308MOL0     H40648   9.124   6.904   0.088 -0.8576 -0.3114  0.5132
  308MOL0     H40649   8.987   6.964   0.169 -0.0749  2.3381 -0.2474
  308MOL0     H40650   9.097   7.187   0.188  2.5164  1.7963 -1.0609
  308MOL0     H40651   9.094   7.118   0.025  0.0935 -0.3157 -0.6022
  308MOL0     H40652   9.316   7.216   0.060 -3.6608  0.5782 -1.3847
  308MOL0     H40653   9.340   7.149   0.212 -1.2483  5.3670 -0.4579
  308MOL0     H40654   9.470   6.824  -0.032 -0.9142 -0.5042 -1.3716
  308MOL0     H40655   8.948   7.051   0.377  0.2979 -3.9470 -3.1485
  308MOL0     H40656   8.759   7.090   0.512  1.6162  0.2656 -0.0810
  309MOL0     O40657   9.925   0.103   2.757  0.4788 -0.5536 -0.0344
  309MOL0     C40658  10.000   0.023   2.802  0.3421  0.4291  1.2876
  309MOL0     O40659   9.989  -0.051   2.912  0.4021  0.5082 -0.4079
  309MOL0     C40660   9.864  -0.046   2.978  0.6092 -0.5231 -0.9662
  309MOL0     C40661   9.741  -0.082   2.909  0.0125 -0.4708 -0.1172
  309MOL0     C40662   9.616  -0.095   2.981 -0.5198  0.8470  0.2601
  309MOL0     C40663   9.621  -0.089   3.116  0.6228  0.3246 -0.9175
  309MOL0     O40664   9.510  -0.088   3.198  0.2410 -0.0161  0.2439
  309MOL0     C40665   9.399  -0.009   3.154  1.5629 -0.5592 -0.7956
  309MOL0     C40666   9.270  -0.081   3.169  0.4016 -0.4513 -0.3969
  309MOL0     C40667   9.148   0.011   3.196 -0.4002  0.0407 -0.2772
  309MOL0     C40668   9.022  -0.079   3.200  0.0007  1.1401  0.1061
  309MOL0     C40669   8.893   0.001   3.202 -0.5777 -0.7711  0.2292
  309MOL0     C40670   8.770  -0.080   3.155 -0.1375  0.4605  0.7037
  309MOL0     C40671   8.761  -0.212   3.233  0.1494  0.9598 -0.4495
  309MOL0     C40672   8.725  -0.187   3.378 -0.3022 -0.0386 -0.4011
  309MOL0     N40673   8.606  -0.114   3.419  0.4385 -0.4847 -0.1723
  309MOL0     C40674   8.473  -0.155   3.434 -0.7793 -0.7504 -0.5531
  309MOL0     C40675   8.409  -0.044   3.473 -0.2490 -0.4859 -0.8725
  309MOL0     C40676   8.266  -0.038   3.500  0.6474  0.5246 -0.4580
  309MOL0     C40677   8.215  -0.144   3.593  0.4686  0.7872 -0.4772
  309MOL0     C40678   8.062  -0.123   3.623 -0.1511 -0.3203  0.8403
  309MOL0     C40679   7.981  -0.222   3.696  0.5510 -0.2849 -0.0213
  309MOL0     O40680   7.848  -0.168   3.735  0.8778  0.2281 -0.0375
  309MOL0     C40681   7.758  -0.261   3.792 -0.4269  0.2935  0.5217
  309MOL0     C40682   7.622  -0.245   3.769 -0.8550  0.1072  0.6751
  309MOL0     C40683   7.533  -0.333   3.811  0.6548  0.0793 -0.0108
  309MOL0     C40684   7.572  -0.447   3.886 -0.8688  0.0633  0.4627
  309MOL0     C40685   7.466  -0.527   3.953  0.1605 -0.6600 -0.0109
  309MOL0     O40686   7.339  -0.499   3.936  0.4728  0.6775 -0.4816
  309MOL0     C40687   7.235  -0.577   3.986 -0.6993  0.1872 -0.1223
  309MOL0     C40688   7.104  -0.554   3.935  0.1703  0.6037  0.0134
  309MOL0     C40689   6.995  -0.628   3.975  0.1037 -0.4031  0.1495
  309MOL0     C40690   7.010  -0.732   4.066  0.0873  0.3483 -0.9898
  309MOL0     O40691   6.911  -0.812   4.116  0.4399  0.7460 -1.4486
  309MOL0     C40692   6.770  -0.769   4.109  0.8975  0.1616 -0.6803
  309MOL0     C40693   6.702  -0.890   4.042  0.3004  0.7953 -0.1847
  309MOL0     C40694   6.672  -0.856   3.897 -0.5880  0.8318  0.2688
  309MOL0     C40695   6.624  -0.720   3.853  0.0017 -0.2255  0.2669
  309MOL0     C40696   6.586  -0.715   3.703  0.1902  0.1564 -0.2005
  309MOL0     C40697   6.434  -0.723   3.681 -0.1617 -0.7368  0.8783
  309MOL0     C40698   6.401  -0.722   3.527 -0.3812 -0.5112  0.1642
  309MOL0     C40699   6.250  -0.700   3.505 -0.0753 -0.5436 -0.1174
  309MOL0    Cl40700   6.185  -0.545   3.583 -0.4053 -0.0529 -0.1015
  309MOL0     C40701   7.136  -0.755   4.130  0.6892 -1.0731  0.4221
  309MOL0     C40702   7.247  -0.681   4.090  0.3287  0.7492  0.2992
  309MOL0     O40703   7.512  -0.591   4.048 -0.4018  0.3543  0.4995
  309MOL0     C40704   7.711  -0.466   3.915  0.6392  0.5516 -0.1723
  309MOL0     C40705   7.798  -0.367   3.865  0.3985 -0.1519 -0.4466
  309MOL0     N40706   8.498   0.059   3.492 -0.3003 -0.2085 -0.5915
  309MOL0     N40707   8.616   0.017   3.465  0.2186  0.8642 -0.3964
  309MOL0     C40708   9.744  -0.072   3.177 -0.0484 -0.8116 -0.0290
  309MOL0     C40709   9.860  -0.048   3.118 -0.1154 -0.1551  0.2625
  309MOL0     C40710  10.121  -0.000   2.717 -0.1547 -0.0626 -0.2740
  309MOL0     C40711  10.222  -0.088   2.772  0.7469 -0.6587  0.4374
  309MOL0     C40712  10.345  -0.100   2.710 -0.2977 -0.5753 -0.2260
  309MOL0     C40713  10.372  -0.022   2.601 -0.7449 -0.3969  0.6961
  309MOL0     O40714  10.504  -0.035   2.548  0.0220 -0.3712 -0.0336
  309MOL0     C40715  10.561   0.077   2.471  0.3253 -0.7477 -0.2406
  309MOL0     C40716  10.703   0.037   2.438 -0.1436  0.8493 -0.6402
  309MOL0     C40717  10.700  -0.064   2.317 -0.3540  0.2620  0.6824
  309MOL0     C40718  10.839  -0.118   2.278  0.1017 -0.3020 -0.3799
  309MOL0     C40719  10.929  -0.035   2.199  0.2821  0.9694  0.3020
  309MOL0     C40720  11.003   0.030   2.125 -0.1355 -0.2327 -1.0097
  309MOL0     C40721  10.266   0.074   2.548  0.1719  0.2142 -0.8171
  309MOL0     C40722  10.152   0.091   2.615 -0.2930  0.3660 -0.3613
  309MOL0     H40723   9.726  -0.090   2.802 -2.3048  1.7366 -0.0438
  309MOL0     H40724   9.519  -0.098   2.932 -2.3045  3.2684  3.2670
  309MOL0     H40725   9.407   0.039   3.056  3.3587  0.8705 -0.0297
  309MOL0     H40726   9.406   0.075   3.224 -0.6083  0.6638 -1.9605
  309MOL0     H40727   9.279  -0.158   3.245  3.9705 -0.2606 -0.4641
  309MOL0     H40728   9.255  -0.137   3.076  2.5939  0.0086 -1.1094
  309MOL0     H40729   9.151   0.081   3.112  0.5289 -0.2836 -0.5325
  309MOL0     H40730   9.160   0.053   3.297  1.2057 -2.4086  0.6387
  309MOL0     H40731   9.024  -0.146   3.113  2.5952  2.6504 -1.1192
  309MOL0     H40732   9.027  -0.150   3.283 -0.5981 -0.0277 -0.8228
  309MOL0     H40733   8.921   0.089   3.144  2.4700 -1.0949  1.0102
  309MOL0     H40734   8.872   0.042   3.301 -0.4771  1.1504 -0.5049
  309MOL0     H40735   8.783  -0.108   3.050 -0.8998 -0.6454  0.8850
  309MOL0     H40736   8.677  -0.022   3.157  0.7716  2.3024 -2.7695
  309MOL0     H40737   8.692  -0.279   3.180  0.9866  0.2372 -0.6434
  309MOL0     H40738   8.858  -0.262   3.221  0.0091  0.6910 -0.4876
  309MOL0     H40739   8.819  -0.152   3.423 -0.5669 -1.0372  1.0226
  309MOL0     H40740   8.707  -0.281   3.432 -1.0617  0.3237 -0.0017
  309MOL0     H40741   8.433  -0.254   3.413  0.2613 -1.6525  1.3298
  309MOL0     H40742   8.215  -0.044   3.404 -2.3217  0.6971  0.9841
  309MOL0     H40743   8.239   0.064   3.532  2.4446  1.8757 -2.9387
  309MOL0     H40744   8.264  -0.127   3.690 -1.8874 -0.2146  0.9619
  309MOL0     H40745   8.230  -0.246   3.557  1.0858 -0.1611  2.2149
  309MOL0     H40746   8.055  -0.032   3.683 -0.5835  0.1664  0.0597
  309MOL0     H40747   8.012  -0.101   3.529  1.9461  1.2902  0.0233
  309MOL0     H40748   8.047  -0.255   3.776  2.6764 -0.0560 -1.6075
  309MOL0     H40749   7.959  -0.305   3.629 -2.1659  1.1796 -1.1176
  309MOL0     H40750   7.585  -0.154   3.723  0.3059 -0.7305 -2.1851
  309MOL0     H40751   7.431  -0.316   3.780 -0.5564 -3.5559  1.4591
  309MOL0     H40752   7.087  -0.470   3.869  0.6175  2.6785  2.3820
  309MOL0     H40753   6.898  -0.619   3.927  0.4824  0.0643 -0.5368
  309MOL0     H40754   6.749  -0.676   4.057  0.1327 -0.4519 -1.5052
  309MOL0     H40755   6.730  -0.753   4.210 -0.2688 -5.2387  0.0240
  309MOL0     H40756   6.608  -0.913   4.094  0.4613 -1.5357 -0.7968
  309MOL0     H40757   6.755  -0.985   4.056 -1.7261 -0.1613  1.4872
  309MOL0     H40758   6.598  -0.927   3.860 -0.5956  0.8765  0.1995
  309MOL0     H40759   6.765  -0.878   3.843 -1.8448  0.4075 -1.8101
  309MOL0     H40760   6.543  -0.705   3.926  1.8599  2.9407  1.9187
  309MOL0     H40761   6.693  -0.636   3.867  2.5874 -2.2340  0.1198
  309MOL0     H40762   6.642  -0.793   3.651  1.1865  1.5724 -1.3406
  309MOL0     H40763   6.612  -0.618   3.659 -0.7545 -0.2435 -1.7021
  309MOL0     H40764   6.396  -0.633   3.729  0.5271 -0.8829  1.7248
  309MOL0     H40765   6.393  -0.816   3.721  2.2314 -2.5346 -0.5921
  309MOL0     H40766   6.444  -0.635   3.477 -2.4682  1.4371  1.5445
  309MOL0     H40767   6.444  -0.814   3.487  1.9882  1.7232 -2.9124
  309MOL0     H40768   6.192  -0.790   3.526 -1.3246  0.1172 -0.6713
  309MOL0     H40769   6.232  -0.683   3.398  1.6444  0.9589 -0.2069
  309MOL0     H40770   7.152  -0.823   4.213  0.0095  0.7700  2.1407
  309MOL0     H40771   7.340  -0.688   4.145  0.2569  0.1060  0.3424
  309MOL0     H40772   7.754  -0.548   3.971  2.1524  0.6162 -1.1999
  309MOL0     H40773   7.905  -0.375   3.878  0.3887 -0.5530 -0.5999
  309MOL0     H40774   9.736  -0.049   3.283 -2.2816  2.1270 -0.7075
  309MOL0     H40775   9.948  -0.024   3.177  0.0429  0.6313 -0.2755
  309MOL0     H40776  10.204  -0.150   2.860  0.8635 -1.2255  0.0716
  309MOL0     H40777  10.423  -0.172   2.732 -0.3212 -1.3321 -2.3808
  309MOL0     H40778  10.557   0.163   2.537  2.5423 -0.2602 -0.6636
  309MOL0     H40779  10.513   0.111   2.378 -0.8474  1.6971  1.1583
  309MOL0     H40780  10.771   0.121   2.423  3.5820 -2.2003 -2.5645
  309MOL0     H40781  10.745  -0.015   2.524 -0.4605  0.6751 -0.5874
  309MOL0     H40782  10.662  -0.019   2.225  1.3230 -1.0472 -0.7093
  309MOL0     H40783  10.649  -0.152   2.358  0.5845  0.9046  3.4709
  309MOL0     H40784  10.886  -0.138   2.375  1.0238  2.2265 -0.2243
  309MOL0     H40785  10.835  -0.210   2.219  2.4119 -2.4303  2.5094
  309MOL0     H40786  11.079   0.095   2.085  0.0105  1.7072  2.0916
  309MOL0     H40787  10.292   0.131   2.460 -0.5252  0.1805 -1.0478
  309MOL0     H40788  10.085   0.167   2.576  1.0801  0.2824 -3.0582
  310MOL0     O40789   6.122  10.047   6.391  0.3612  0.0275  1.0978
  310MOL0     C40790   6.134   9.927   6.425  0.8622 -0.5392  0.7675
  310MOL0     O40791   6.039   9.833   6.448  0.3328 -0.5274  0.3219
  310MOL0     C40792   5.908   9.871   6.458 -0.8442 -0.1692 -0.4138
  310MOL0     C40793   5.868   9.967   6.548  0.6170  0.5123  0.7247
  310MOL0     C40794   5.736  10.007   6.558 -0.8545  0.3916 -1.3442
  310MOL0     C40795   5.642   9.966   6.461  0.4343  0.2321 -0.9607
  310MOL0     O40796   5.512  10.007   6.471 -0.2807  0.3407  0.3378
  310MOL0     C40797   5.414   9.900   6.496  0.9601  0.8065  0.6162
  310MOL0     C40798   5.276   9.954   6.533 -0.3299  0.0943 -0.4757
  310MOL0     C40799   5.277  10.010   6.681 -0.1948 -0.7254  0.9714
  310MOL0     C40800   5.139  10.032   6.729 -0.2526  0.6767 -0.4531
  310MOL0     C40801   5.142  10.088   6.879 -0.7418 -0.3132 -0.1001
  310MOL0     C40802   5.003  10.169   6.905  0.3154 -0.3160 -1.2273
  310MOL0     C40803   4.988  10.195   7.057 -0.9385 -0.4869 -0.2176
  310MOL0     C40804   4.995  10.077   7.144 -0.1965  1.1257 -1.3127
  310MOL0     N40805   4.874   9.991   7.116  0.6482 -0.1868  0.2874
  310MOL0     C40806   4.877   9.870   7.047  0.0236 -0.0797 -0.1580
  310MOL0     C40807   4.752   9.828   7.068 -1.1201 -0.3600 -0.5586
  310MOL0     C40808   4.715   9.706   6.997  0.4876 -0.0220  0.5395
  310MOL0     C40809   4.569   9.655   7.021 -0.4797  0.1284 -0.7069
  310MOL0     C40810   4.575   9.565   7.140  1.2673  0.1961  0.1580
  310MOL0     C40811   4.431   9.516   7.190 -0.5435  0.5003 -0.8761
  310MOL0     O40812   4.365   9.439   7.086 -0.4264  0.3931 -0.0859
  310MOL0     C40813   4.234   9.414   7.084 -0.0546  0.3111  0.0800
  310MOL0     C40814   4.163   9.396   7.206  0.8068 -0.1241  0.6015
  310MOL0     C40815   4.026   9.381   7.213  0.5060  0.4038 -0.0762
  310MOL0     C40816   3.948   9.361   7.096 -0.7483  0.2835  0.2033
  310MOL0     C40817   3.804   9.353   7.106 -0.1881  0.7035  0.4426
  310MOL0     O40818   3.749   9.339   7.231 -0.0104 -0.3583  0.3175
  310MOL0     C40819   3.612   9.369   7.252  0.1302 -0.6633  1.2467
  310MOL0     C40820   3.527   9.270   7.212  0.0373 -0.1170  0.0968
  310MOL0     C40821   3.392   9.281   7.250  0.1614  0.2912  0.0948
  310MOL0     C40822   3.342   9.406   7.288 -0.1980 -0.6280  0.4883
  310MOL0     O40823   3.212   9.431   7.328  0.2078  0.1811  0.6207
  310MOL0     C40824   3.111   9.354   7.259 -0.2639 -0.5869 -0.4799
  310MOL0     C40825   2.974   9.415   7.267  0.4738 -0.0005  0.1069
  310MOL0     C40826   2.959   9.543   7.190  0.4576  0.1292  0.2856
  310MOL0     C40827   2.816   9.590   7.189  0.0085 -0.1476  0.2984
  310MOL0     C40828   2.735   9.526   7.076  0.5420 -0.1338 -0.3552
  310MOL0     C40829   2.585   9.573   7.077 -0.0893  0.8592 -0.3090
  310MOL0     C40830   2.504   9.501   6.972  0.4937 -0.0563  0.4353
  310MOL0     C40831   2.368   9.564   6.951 -0.1434  0.2585 -0.4069
  310MOL0    Cl40832   2.262   9.464   6.835 -0.0920 -0.2010 -0.6461
  310MOL0     C40833   3.437   9.506   7.319  0.4221  0.4041  0.0774
  310MOL0     C40834   3.575   9.493   7.300  0.6971 -0.6326  0.3017
  310MOL0     O40835   3.740   9.354   7.001  0.3302  0.0961 -0.7062
  310MOL0     C40836   4.017   9.374   6.975 -0.8644 -0.1273  1.4310
  310MOL0     C40837   4.158   9.400   6.974 -0.5531 -0.2424 -0.8517
  310MOL0     N40838   4.679   9.923   7.139 -0.0183  0.2187  0.2873
  310MOL0     N40839   4.755  10.010   7.175  0.4892 -0.1436 -0.2554
  310MOL0     C40840   5.686   9.877   6.360 -0.4428  0.0040  0.9027
  310MOL0     C40841   5.814   9.830   6.352 -0.3533  0.1937 -0.0635
  310MOL0     C40842   6.274   9.892   6.433  0.1293 -0.2860 -0.1520
  310MOL0     C40843   6.308   9.759   6.466 -0.3592  0.7378 -0.1863
  310MOL0     C40844   6.440   9.720   6.496  0.3384  0.3836 -0.5542
  310MOL0     C40845   6.545   9.825   6.498  0.0005  0.2536 -0.3015
  310MOL0     O40846   6.671   9.780   6.546  0.1634  0.0871 -0.0019
  310MOL0     C40847   6.777   9.882   6.554 -0.5492  0.2016  0.3868
  310MOL0     C40848   6.915   9.813   6.574  0.2314  0.0251 -0.8567
  310MOL0     C40849   6.917   9.727   6.699 -0.8738  0.5563  0.0957
  310MOL0     C40850   6.904   9.803   6.832  0.0970 -0.4584 -0.2280
  310MOL0     C40851   7.026   9.861   6.867 -0.3919 -0.0239 -0.1865
  310MOL0     C40852   7.125   9.910   6.902 -0.7347 -0.4303  0.5643
  310MOL0     C40853   6.508   9.961   6.468 -0.3019 -0.7300 -0.0461
  310MOL0     C40854   6.374   9.993   6.437 -0.3281  0.0967 -0.5564
  310MOL0     H40855   5.938  10.011   6.618  1.7938  1.9769 -1.2664
  310MOL0     H40856   5.703  10.069   6.641 -2.3305 -3.1284  0.9245
  310MOL0     H40857   5.447   9.823   6.567  0.4313  0.8454  0.9083
  310MOL0     H40858   5.387   9.850   6.402  0.1596 -0.5631  1.5448
  310MOL0     H40859   5.198   9.878   6.518  0.3692 -0.3033 -2.3185
  310MOL0     H40860   5.242  10.039   6.472  0.5895 -0.9288 -2.5114
  310MOL0     H40861   5.333  10.102   6.700  0.6487 -1.1888  0.7891
  310MOL0     H40862   5.323   9.936   6.747 -0.8960 -0.9309  1.2325
  310MOL0     H40863   5.099  10.112   6.666  1.8034  1.6633 -0.5828
  310MOL0     H40864   5.068   9.949   6.734 -2.5636  2.5467  3.6101
  310MOL0     H40865   5.233  10.147   6.893 -0.0408  0.1794 -5.0026
  310MOL0     H40866   5.135  10.004   6.948 -1.4328 -2.3097 -2.4447
  310MOL0     H40867   4.915  10.112   6.874 -0.7791  1.7779 -2.1553
  310MOL0     H40868   5.012  10.268   6.859 -0.8670 -0.0045 -0.8355
  310MOL0     H40869   5.069  10.260   7.093 -0.7753 -0.4460 -0.6559
  310MOL0     H40870   4.896  10.253   7.063 -0.8521 -0.3545 -0.1724
  310MOL0     H40871   4.973  10.117   7.244  1.4671  2.2126 -1.3559
  310MOL0     H40872   5.083  10.014   7.161 -2.3158 -1.2475  2.2503
  310MOL0     H40873   4.955   9.826   6.986 -0.8056  0.5215 -1.6881
  310MOL0     H40874   4.786   9.626   7.019  0.9369  0.1884 -0.1088
  310MOL0     H40875   4.729   9.711   6.888 -1.2725  0.4240  0.3063
  310MOL0     H40876   4.538   9.603   6.930  1.0065  0.6418 -1.5523
  310MOL0     H40877   4.500   9.739   7.034  0.9340  1.6710 -2.4103
  310MOL0     H40878   4.628   9.474   7.110 -0.6032 -0.7814 -0.3858
  310MOL0     H40879   4.632   9.605   7.224  1.5145 -3.1902  1.8069
  310MOL0     H40880   4.364   9.597   7.219 -1.2199  0.8922 -3.2893
  310MOL0     H40881   4.430   9.447   7.275 -1.4335  1.7330  0.1425
  310MOL0     H40882   4.228   9.380   7.292  2.3563 -2.3376 -0.8637
  310MOL0     H40883   3.976   9.374   7.309 -2.8339  1.4853 -1.5744
  310MOL0     H40884   3.569   9.190   7.151 -1.2459 -1.5956  1.0904
  310MOL0     H40885   3.326   9.196   7.239 -0.6873  0.9473  0.0056
  310MOL0     H40886   3.106   9.250   7.291  0.2938 -1.5496 -3.2209
  310MOL0     H40887   3.141   9.333   7.155 -0.5793  3.2286 -1.5017
  310MOL0     H40888   2.954   9.435   7.373  0.2191 -1.1576  0.2980
  310MOL0     H40889   2.898   9.342   7.237  2.3171 -1.0837 -2.3102
  310MOL0     H40890   2.996   9.515   7.091  3.0553  0.6631  1.0218
  310MOL0     H40891   3.023   9.620   7.233  1.1804  0.0565 -0.6223
  310MOL0     H40892   2.772   9.562   7.285 -0.7704 -1.0754 -0.3018
  310MOL0     H40893   2.821   9.699   7.190  3.8604 -0.1659  0.4668
  310MOL0     H40894   2.733   9.420   7.105 -1.0486 -0.3698 -1.1769
  310MOL0     H40895   2.782   9.543   6.979 -0.0153  0.5231 -0.5208
  310MOL0     H40896   2.594   9.681   7.065  2.1126  0.9434  1.3517
  310MOL0     H40897   2.544   9.556   7.177  1.9134  2.4301  0.8576
  310MOL0     H40898   2.565   9.502   6.881 -0.8291  0.2375 -0.4799
  310MOL0     H40899   2.501   9.394   6.994 -0.1460  0.4646  3.1514
  310MOL0     H40900   2.390   9.665   6.914 -2.2223  1.2428  0.8295
  310MOL0     H40901   2.323   9.565   7.051  1.6999  0.2326  0.4648
  310MOL0     H40902   3.405   9.598   7.367  1.4022 -0.6210  2.8939
  310MOL0     H40903   3.636   9.579   7.327  2.8958 -1.8366 -0.5162
  310MOL0     H40904   3.966   9.359   6.881  1.5629 -0.4685  0.0900
  310MOL0     H40905   4.202   9.425   6.878 -1.8316 -1.5209 -1.8012
  310MOL0     H40906   5.617   9.845   6.282  1.8085 -0.2321 -1.1092
  310MOL0     H40907   5.842   9.773   6.264  1.6683  2.2306 -0.8538
  310MOL0     H40908   6.235   9.683   6.490  0.0015  0.9373  1.7061
  310MOL0     H40909   6.467   9.621   6.531 -2.8821 -0.0190  1.1681
  310MOL0     H40910   6.757   9.965   6.622 -0.7823  2.0033 -1.7563
  310MOL0     H40911   6.775   9.930   6.456  0.0293  0.1539  0.3462
  310MOL0     H40912   6.935   9.745   6.491 -0.5199 -2.1526  0.6583
  310MOL0     H40913   6.997   9.883   6.593 -1.1986  0.9418  2.8102
  310MOL0     H40914   7.011   9.673   6.685 -1.2507  0.5809 -3.3524
  310MOL0     H40915   6.833   9.661   6.678  0.3564 -0.8037 -0.7824
  310MOL0     H40916   6.825   9.877   6.818 -0.8160 -1.6985 -2.2144
  310MOL0     H40917   6.866   9.734   6.908 -1.3099 -1.1840 -1.5091
  310MOL0     H40918   7.222   9.947   6.931 -1.0088  0.2562  0.6118
  310MOL0     H40919   6.581  10.039   6.483 -0.4738 -0.8989  1.9630
  310MOL0     H40920   6.361  10.098   6.416  1.0416  0.7326  1.4399
  311MOL0     O40921   0.210   0.166  10.987 -0.1487  0.2024 -0.2748
  311MOL0     C40922   0.221   0.280  11.037 -0.2884 -0.2154  0.7567
  311MOL0     O40923   0.332   0.365  11.034 -0.1088 -0.4395  0.4045
  311MOL0     C40924   0.458   0.322  11.018 -0.0064  0.7931 -0.5785
  311MOL0     C40925   0.558   0.411  10.967 -0.3050  1.0062  0.4686
  311MOL0     C40926   0.693   0.375  10.974  0.6240 -0.5713  0.2907
  311MOL0     C40927   0.730   0.250  11.025  0.1893  0.5896 -0.4588
  311MOL0     O40928   0.865   0.216  11.030 -0.1240 -0.3742  0.9794
  311MOL0     C40929   0.924   0.217  10.902  0.5058  1.0301  0.0264
  311MOL0     C40930   0.927   0.072  10.847 -0.2974 -1.1995  0.0551
  311MOL0     C40931   0.973   0.068  10.697 -0.1477  0.0285 -0.2476
  311MOL0     C40932   1.101   0.155  10.649  0.8834 -0.0992  0.0553
  311MOL0     C40933   1.237   0.127  10.728  1.3254 -0.3858 -0.8643
  311MOL0     C40934   1.357   0.198  10.671  1.4087  0.0697  0.1685
  311MOL0     C40935   1.344   0.346  10.694  0.2866 -0.7098  0.0476
  311MOL0     C40936   1.476   0.405  10.671  0.4426 -0.0708  0.2817
  311MOL0     N40937   1.482   0.549  10.694 -0.0557  0.3102  0.1866
  311MOL0     C40938   1.571   0.618  10.786  0.2469  0.6898  0.2044
  311MOL0     C40939   1.551   0.743  10.754 -1.4179 -0.3313  0.5970
  311MOL0     C40940   1.617   0.856  10.829 -0.6881  0.1496  0.2707
  311MOL0     C40941   1.527   0.897  10.952 -0.0424  0.7018  0.0871
  311MOL0     C40942   1.410   0.999  10.930  0.5419 -0.0841 -0.1591
  311MOL0     C40943   1.325   1.005  11.057  0.5375  1.4577 -0.4462
  311MOL0     O40944   1.207   1.077  11.029 -0.1661  0.0530 -0.6541
  311MOL0     C40945   1.088   1.075  11.100 -0.0417  0.0425 -0.3915
  311MOL0     C40946   0.979   1.154  11.053  0.1983  0.5474 -0.6327
  311MOL0     C40947   0.866   1.159  11.136  0.5392  0.1852  0.3194
  311MOL0     C40948   0.855   1.105  11.265 -0.3654  0.3841  0.8832
  311MOL0     C40949   0.722   1.111  11.335  0.1264  0.0287  0.6246
  311MOL0     O40950   0.619   1.146  11.252  0.3544 -0.0636  1.0157
  311MOL0     C40951   0.507   1.196  11.308  0.4998  0.2340 -0.4790
  311MOL0     C40952   0.459   1.319  11.254 -0.5479 -0.2542 -0.0432
  311MOL0     C40953   0.339   1.376  11.300 -1.0352  0.2530 -0.3623
  311MOL0     C40954   0.268   1.316  11.404 -0.3993 -0.1376  0.2159
  311MOL0     O40955   0.153   1.384  11.440  0.5400 -0.9355 -0.2991
  311MOL0     C40956   0.074   1.327  11.544 -0.2790  0.1785  0.6447
  311MOL0     C40957  -0.058   1.405  11.566  0.4947  0.2035 -0.6327
  311MOL0     C40958  -0.142   1.338  11.672  0.4331  0.0581  0.1530
  311MOL0     C40959  -0.274   1.396  11.657 -0.4473 -0.5236 -0.1928
  311MOL0     C40960  -0.366   1.346  11.771 -1.0135  0.3758 -0.2840
  311MOL0     C40961  -0.509   1.369  11.737  0.4918  0.5126 -0.0510
  311MOL0     C40962  -0.601   1.351  11.848  0.3888  0.3041  0.3529
  311MOL0     C40963  -0.662   1.209  11.871  0.2567 -0.7467 -0.0063
  311MOL0    Cl40964  -0.731   1.185  12.038  0.3104  0.3631 -0.2388
  311MOL0     C40965   0.317   1.187  11.460  1.3677  0.6810 -1.2565
  311MOL0     C40966   0.434   1.126  11.408  0.0453  1.0102  0.9476
  311MOL0     O40967   0.713   1.068  11.452 -0.6322  0.3961  0.1396
  311MOL0     C40968   0.966   1.040  11.319 -0.7816 -0.3001 -0.1391
  311MOL0     C40969   1.079   1.030  11.230 -0.0362 -0.5201 -0.4061
  311MOL0     N40970   1.457   0.758  10.660  0.1390 -0.4919 -0.3719
  311MOL0     N40971   1.419   0.642  10.616 -1.9082 -0.0326  0.3339
  311MOL0     C40972   0.631   0.159  11.068  0.1909  0.3155  0.7135
  311MOL0     C40973   0.497   0.194  11.060 -0.0533 -0.0903 -0.0935
  311MOL0     C40974   0.096   0.353  11.071 -0.1254  0.3525  0.1982
  311MOL0     C40975  -0.025   0.280  11.078  0.3652  0.4325  0.2132
  311MOL0     C40976  -0.150   0.348  11.102 -0.5034  0.4831  0.1371
  311MOL0     C40977  -0.148   0.483  11.133 -0.3882 -0.0256 -0.4677
  311MOL0     O40978  -0.261   0.551  11.170  0.8920 -0.4495  0.8470
  311MOL0     C40979  -0.350   0.490  11.262 -0.1424  0.3186 -0.2582
  311MOL0     C40980  -0.426   0.594  11.339  0.2060 -1.4081 -0.7332
  311MOL0     C40981  -0.560   0.542  11.396 -1.0682  0.9105  0.5610
  311MOL0     C40982  -0.646   0.657  11.448 -0.5183  0.5324  0.9652
  311MOL0     C40983  -0.757   0.610  11.541  0.5568  0.1742  0.4503
  311MOL0     C40984  -0.837   0.555  11.612  1.2345 -0.3653  0.0849
  311MOL0     C40985  -0.024   0.553  11.131  0.3376  0.0619  0.4782
  311MOL0     C40986   0.087   0.489  11.102 -0.2635  0.5043  0.5385
  311MOL0     H40987   0.521   0.504  10.926  1.3562  0.0484 -3.7353
  311MOL0     H40988   0.758   0.460  10.954 -2.6557  1.8647 -1.0140
  311MOL0     H40989   1.027   0.251  10.914  1.7652 -2.0255 -1.1010
  311MOL0     H40990   0.873   0.280  10.828 -0.1069 -0.1458 -0.6010
  311MOL0     H40991   0.832   0.019  10.854 -0.6096 -1.0223 -2.2658
  311MOL0     H40992   0.998   0.012  10.904  1.0788  3.4327  3.9663
  311MOL0     H40993   0.897   0.121  10.639 -1.1125  0.5532  1.4030
  311MOL0     H40994   0.991  -0.036  10.670  1.7815 -0.1311  1.4007
  311MOL0     H40995   1.117   0.149  10.541  0.1950  0.3188 -0.0764
  311MOL0     H40996   1.085   0.257  10.687  3.6736  0.0464  1.0256
  311MOL0     H40997   1.244   0.019  10.735  0.8431 -0.3194  1.6202
  311MOL0     H40998   1.217   0.155  10.832 -1.1446 -2.7533 -0.6044
  311MOL0     H40999   1.375   0.161  10.570  0.0505 -1.3583  0.4205
  311MOL0     H41000   1.436   0.166  10.739  0.8311 -1.8918 -0.0164
  311MOL0     H41001   1.266   0.398  10.637 -0.2932 -2.5140 -0.8793
  311MOL0     H41002   1.316   0.372  10.797  0.3653  3.1265 -0.7365
  311MOL0     H41003   1.507   0.376  10.570  3.4239 -0.5252  1.2224
  311MOL0     H41004   1.548   0.365  10.742  0.5515 -1.2200 -0.4633
  311MOL0     H41005   1.622   0.583  10.875  2.0289 -0.9011 -1.3592
  311MOL0     H41006   1.628   0.928  10.747 -0.4570 -1.4617 -1.1911
  311MOL0     H41007   1.714   0.821  10.864 -0.8760 -1.5234 -0.7478
  311MOL0     H41008   1.593   0.950  11.021 -1.0707  2.1641 -0.0066
  311MOL0     H41009   1.493   0.802  10.996 -0.8808 -0.0885 -2.1316
  311MOL0     H41010   1.437   1.096  10.886 -1.9294  0.7615  0.0753
  311MOL0     H41011   1.349   0.956  10.850 -0.5517 -0.6578  0.9602
  311MOL0     H41012   1.384   1.051  11.137 -0.0096  2.9772 -0.8813
  311MOL0     H41013   1.297   0.906  11.093  4.3616  0.4690  0.2621
  311MOL0     H41014   0.979   1.193  10.952  0.4593  0.8351 -0.5209
  311MOL0     H41015   0.780   1.215  11.101  0.7758 -0.6752 -1.7700
  311MOL0     H41016   0.514   1.361  11.171 -0.4463 -0.9319 -0.3199
  311MOL0     H41017   0.308   1.470  11.256 -1.8051  1.2931  2.1931
  311MOL0     H41018   0.129   1.326  11.639  2.7567  0.5248 -0.9791
  311MOL0     H41019   0.048   1.223  11.526 -0.0759 -0.3414  3.0194
  311MOL0     H41020  -0.113   1.404  11.471 -4.8363 -2.1707  2.0632
  311MOL0     H41021  -0.040   1.510  11.590  0.6327  0.6123 -2.3705
  311MOL0     H41022  -0.089   1.352  11.767 -0.1546  2.3773  0.1883
  311MOL0     H41023  -0.151   1.230  11.657 -0.6501  0.1243  0.2418
  311MOL0     H41024  -0.274   1.505  11.659 -1.4149 -0.5102  2.2087
  311MOL0     H41025  -0.318   1.358  11.564 -2.8082 -0.3357  0.7871
  311MOL0     H41026  -0.330   1.385  11.866 -1.6194  0.6067 -0.1411
  311MOL0     H41027  -0.352   1.238  11.765  1.3856  0.5210  1.4107
  311MOL0     H41028  -0.536   1.289  11.668  3.0963 -2.4228  2.0210
  311MOL0     H41029  -0.531   1.469  11.698 -2.1286  0.0596  0.1407
  311MOL0     H41030  -0.542   1.372  11.938 -0.3743  1.7830  0.5294
  311MOL0     H41031  -0.680   1.426  11.841  0.1503  0.2101  1.7386
  311MOL0     H41032  -0.586   1.131  11.859 -0.9386 -2.5988  3.2061
  311MOL0     H41033  -0.742   1.185  11.800 -1.6394  3.2036  0.5023
  311MOL0     H41034   0.261   1.142  11.542  1.5449  1.9365 -0.4178
  311MOL0     H41035   0.465   1.028  11.441  2.0046  1.7190  1.3405
  311MOL0     H41036   0.953   0.995  11.417 -0.2611 -1.6869 -0.6710
  311MOL0     H41037   1.171   0.985  11.268  1.5174  2.1104 -0.8481
  311MOL0     H41038   0.649   0.062  11.114 -2.8015 -0.0577  1.3234
  311MOL0     H41039   0.415   0.131  11.093  0.8776 -0.2902  1.9934
  311MOL0     H41040  -0.030   0.173  11.055 -0.4901  0.5800 -0.3528
  311MOL0     H41041  -0.240   0.288  11.113  1.0419 -1.7278  1.5057
  311MOL0     H41042  -0.291   0.442  11.341 -0.3061  0.8162  0.1714
  311MOL0     H41043  -0.429   0.427  11.220 -1.4828  0.5186  1.8286
  311MOL0     H41044  -0.363   0.625  11.423  0.3931 -2.7923 -0.3354
  311MOL0     H41045  -0.449   0.680  11.275 -0.1698 -0.8540  0.1234
  311MOL0     H41046  -0.546   0.476  11.482  1.7642  0.3737 -0.2249
  311MOL0     H41047  -0.604   0.478  11.318  0.0785 -0.9437  1.3728
  311MOL0     H41048  -0.584   0.730  11.502 -2.0315  0.0381  3.5691
  311MOL0     H41049  -0.685   0.715  11.364  2.0841  1.8005  0.5500
  311MOL0     H41050  -0.923   0.513  11.660  0.6856  0.3695 -0.2324
  311MOL0     H41051  -0.026   0.658  11.158 -1.7798 -0.7374  4.0043
  311MOL0     H41052   0.178   0.548  11.105  2.2629 -3.1372  0.7645
  312MOL0     O41053   7.212   1.377   2.483  0.9156 -0.5168  0.4900
  312MOL0     C41054   7.300   1.358   2.567  0.1035  0.8777 -0.4692
  312MOL0     O41055   7.277   1.351   2.702 -0.3261  0.2072 -0.2672
  312MOL0     C41056   7.148   1.340   2.758 -0.3110 -0.4648 -0.6390
  312MOL0     C41057   7.036   1.288   2.703 -0.1660 -0.6028 -0.1837
  312MOL0     C41058   6.907   1.320   2.751 -1.1467  0.4263  0.8488
  312MOL0     C41059   6.884   1.388   2.867  0.6659  0.3376 -0.6819
  312MOL0     O41060   6.745   1.392   2.910 -0.9314  0.2634  0.2119
  312MOL0     C41061   6.721   1.465   3.035 -0.3988  1.1509 -0.1237
  312MOL0     C41062   6.599   1.409   3.116 -0.6104 -1.5306  0.4683
  312MOL0     C41063   6.484   1.411   3.016  0.6494 -0.5073  0.3804
  312MOL0     C41064   6.355   1.376   3.101 -0.3153 -0.2596  0.0624
  312MOL0     C41065   6.234   1.462   3.084  0.1410 -0.7588  0.0377
  312MOL0     C41066   6.118   1.424   3.176 -0.3454  0.2514  0.5197
  312MOL0     C41067   5.997   1.507   3.136 -0.2490  0.2734 -0.5230
  312MOL0     C41068   5.869   1.440   3.180  1.0482 -0.2480  0.2874
  312MOL0     N41069   5.757   1.522   3.119 -0.3170 -0.0038  0.5286
  312MOL0     C41070   5.707   1.646   3.166  0.8134 -0.2238 -0.5465
  312MOL0     C41071   5.613   1.688   3.076  0.3137  0.7327  1.3120
  312MOL0     C41072   5.524   1.810   3.058 -0.3222 -0.3989  0.2377
  312MOL0     C41073   5.382   1.764   3.073 -0.5007 -0.4864 -0.2527
  312MOL0     C41074   5.349   1.752   3.219  0.3730 -0.2648 -0.6635
  312MOL0     C41075   5.202   1.709   3.225 -0.2034  0.5354  0.0105
  312MOL0     O41076   5.114   1.821   3.220 -0.1379  0.3118  0.9022
  312MOL0     C41077   4.992   1.802   3.164  0.7696  1.2603 -0.1205
  312MOL0     C41078   4.877   1.761   3.225 -0.7644 -0.1861 -0.3249
  312MOL0     C41079   4.752   1.751   3.160 -0.4609 -0.5752 -0.8341
  312MOL0     C41080   4.740   1.792   3.023 -0.9725  0.0337  0.0538
  312MOL0     C41081   4.604   1.796   2.955 -1.6635  0.2012  0.3672
  312MOL0     O41082   4.593   1.854   2.834  0.0586 -0.2577 -0.3482
  312MOL0     C41083   4.474   1.854   2.765 -0.3163 -0.3615 -0.0747
  312MOL0     C41084   4.454   1.756   2.666 -0.4202  0.1160  0.2104
  312MOL0     C41085   4.334   1.764   2.593  0.1038  0.0667 -0.4661
  312MOL0     C41086   4.228   1.850   2.620 -0.2390 -0.3862  1.0179
  312MOL0     O41087   4.113   1.840   2.545 -0.4494 -0.1221 -0.0895
  312MOL0     C41088   3.984   1.857   2.610 -0.6931 -0.0891  0.1696
  312MOL0     C41089   3.882   1.861   2.502 -0.1365  0.0353 -0.6284
  312MOL0     C41090   3.739   1.865   2.553  0.8432  0.6944 -0.0733
  312MOL0     C41091   3.691   1.718   2.568  0.0172  0.5324  0.5079
  312MOL0     C41092   3.580   1.686   2.666  0.1773 -0.1622  0.3913
  312MOL0     C41093   3.530   1.545   2.675 -0.0109  0.4826  0.2504
  312MOL0     C41094   3.401   1.543   2.753  0.7812 -0.5902 -0.0814
  312MOL0     C41095   3.317   1.420   2.710 -0.6202 -0.5613 -0.0123
  312MOL0    Cl41096   3.421   1.287   2.753  0.4514 -0.2622  0.2830
  312MOL0     C41097   4.251   1.946   2.721 -0.1946  0.1651  0.2573
  312MOL0     C41098   4.373   1.951   2.795 -0.2622 -0.5861  0.1679
  312MOL0     O41099   4.508   1.746   3.012 -0.0788 -0.0409 -0.1384
  312MOL0     C41100   4.860   1.835   2.961  0.5414  0.7836 -0.2821
  312MOL0     C41101   4.982   1.838   3.028 -0.3337 -0.8024  0.8975
  312MOL0     N41102   5.623   1.587   2.973  0.4142 -0.1094 -0.3959
  312MOL0     N41103   5.697   1.491   3.000 -0.0755  0.4604 -0.3845
  312MOL0     C41104   7.006   1.436   2.935 -0.0812 -0.2705 -0.2721
  312MOL0     C41105   7.129   1.417   2.870  0.4909  0.1360  0.6553
  312MOL0     C41106   7.446   1.376   2.522  0.3039  0.1686  0.4615
  312MOL0     C41107   7.556   1.382   2.614 -0.2323  0.2731  0.9702
  312MOL0     C41108   7.685   1.377   2.568  0.1038 -0.0868  0.0946
  312MOL0     C41109   7.707   1.392   2.432  0.4970  0.2021  0.0645
  312MOL0     O41110   7.827   1.413   2.361  0.3693  0.5743 -0.0402
  312MOL0     C41111   7.948   1.426   2.429  0.6981 -0.5187 -0.7417
  312MOL0     C41112   7.972   1.566   2.478 -0.0262  0.6120 -0.4506
  312MOL0     C41113   7.977   1.676   2.369  0.2688  0.1341  0.9033
  312MOL0     C41114   8.071   1.648   2.249  0.2413  0.1633 -0.3387
  312MOL0     C41115   8.213   1.632   2.296  0.2194  0.1639  0.8496
  312MOL0     C41116   8.324   1.596   2.334 -0.2412  0.0804 -0.4916
  312MOL0     C41117   7.601   1.393   2.338  0.4461  1.1008 -0.5059
  312MOL0     C41118   7.473   1.395   2.385 -0.1787 -0.3716 -0.1452
  312MOL0     H41119   7.051   1.232   2.611 -0.7667 -1.2180  0.0898
  312MOL0     H41120   6.831   1.281   2.684  0.1255 -1.2361  0.3026
  312MOL0     H41121   6.696   1.570   3.018 -0.8867  0.9844 -0.4774
  312MOL0     H41122   6.795   1.457   3.115 -0.0120 -1.5059 -0.6475
  312MOL0     H41123   6.575   1.477   3.198  0.0733  0.1522 -0.6944
  312MOL0     H41124   6.623   1.307   3.149  2.5542 -0.4203  1.9821
  312MOL0     H41125   6.508   1.336   2.940 -0.5021 -0.8059  0.2886
  312MOL0     H41126   6.466   1.516   2.990  0.0725 -0.1769  2.0148
  312MOL0     H41127   6.326   1.274   3.074 -0.2420 -0.0368 -0.9048
  312MOL0     H41128   6.387   1.374   3.206  2.4184 -0.5790 -0.6978
  312MOL0     H41129   6.199   1.440   2.983  1.1729 -0.1497 -0.4670
  312MOL0     H41130   6.249   1.570   3.088 -0.5870 -0.6664  0.3193
  312MOL0     H41131   6.136   1.445   3.282  5.5841 -0.5675  0.0112
  312MOL0     H41132   6.093   1.318   3.165 -2.5156  0.9495 -2.5050
  312MOL0     H41133   5.995   1.611   3.169 -1.5489  0.5247 -1.3264
  312MOL0     H41134   5.988   1.509   3.027  0.2831 -2.6115 -0.7103
  312MOL0     H41135   5.861   1.436   3.289 -2.2609  1.0344  0.2233
  312MOL0     H41136   5.849   1.339   3.143  0.3979  0.2072 -0.6536
  312MOL0     H41137   5.746   1.699   3.253  1.9611 -3.1360  0.8439
  312MOL0     H41138   5.535   1.850   2.956  0.0224  0.8683  0.7535
  312MOL0     H41139   5.551   1.881   3.136 -0.9124 -0.8219  0.8330
  312MOL0     H41140   5.365   1.675   3.013 -0.7257  0.4591 -1.6265
  312MOL0     H41141   5.324   1.843   3.024  2.5183  1.3417 -1.1328
  312MOL0     H41142   5.412   1.678   3.268 -1.2357 -1.2420  0.0165
  312MOL0     H41143   5.358   1.842   3.281  0.3262 -0.8446  0.1974
  312MOL0     H41144   5.192   1.644   3.312 -0.4999  0.9466  0.2829
  312MOL0     H41145   5.180   1.654   3.132 -0.9112  0.6122  0.1286
  312MOL0     H41146   4.885   1.739   3.331 -1.6250 -0.5082 -0.3131
  312MOL0     H41147   4.671   1.695   3.207  2.1883 -1.3636  3.3117
  312MOL0     H41148   4.520   1.673   2.642 -0.2409  0.0130  1.0568
  312MOL0     H41149   4.313   1.690   2.517 -0.1353  0.6029 -0.9254
  312MOL0     H41150   3.986   1.946   2.674 -1.0386  0.0526 -0.0112
  312MOL0     H41151   3.964   1.769   2.672 -2.7651  0.1644 -0.0821
  312MOL0     H41152   3.898   1.778   2.433 -3.1081 -2.5756  1.5602
  312MOL0     H41153   3.904   1.957   2.455 -1.1946  0.2567 -0.6853
  312MOL0     H41154   3.677   1.913   2.477  0.5458  0.5493  0.0792
  312MOL0     H41155   3.726   1.923   2.645  1.0191  0.6892 -0.0451
  312MOL0     H41156   3.669   1.681   2.467  0.9406  0.4791  0.3176
  312MOL0     H41157   3.776   1.655   2.597 -2.1182 -1.8740  1.9528
  312MOL0     H41158   3.497   1.745   2.626  0.5409  1.6877  2.1988
  312MOL0     H41159   3.615   1.726   2.762 -0.0117 -0.6901  0.6826
  312MOL0     H41160   3.604   1.476   2.717  2.9602 -0.4039 -5.4716
  312MOL0     H41161   3.509   1.505   2.576  3.2209 -0.0572 -0.3245
  312MOL0     H41162   3.415   1.543   2.862  1.5364  0.6957 -0.1560
  312MOL0     H41163   3.327   1.618   2.724 -1.6479 -3.4034 -1.6816
  312MOL0     H41164   3.301   1.421   2.601  0.8263 -1.9899 -0.2778
  312MOL0     H41165   3.219   1.422   2.758  0.3631  1.7021  2.0656
  312MOL0     H41166   4.173   2.018   2.744 -1.3593 -0.2757 -1.9520
  312MOL0     H41167   4.397   2.019   2.876  1.6939 -1.1588  0.1193
  312MOL0     H41168   4.856   1.860   2.855  0.7880  0.0856 -0.4564
  312MOL0     H41169   5.072   1.884   2.988 -1.3701 -1.3149 -2.3749
  312MOL0     H41170   7.000   1.489   3.030 -0.4174  1.8744 -1.4246
  312MOL0     H41171   7.218   1.469   2.903  0.3378 -0.7602  2.6320
  312MOL0     H41172   7.538   1.380   2.721 -1.0458 -5.0883  1.0073
  312MOL0     H41173   7.761   1.360   2.644  1.0434  0.3128 -0.7306
  312MOL0     H41174   8.020   1.403   2.351 -0.3487 -2.5810 -1.1678
  312MOL0     H41175   7.968   1.367   2.519 -1.9074 -1.3459 -0.6202
  312MOL0     H41176   7.889   1.605   2.538  1.9515  0.2922  2.7225
  312MOL0     H41177   8.069   1.557   2.527 -0.9956  1.0902  1.6701
  312MOL0     H41178   8.021   1.766   2.414  0.4315  0.9713 -0.8370
  312MOL0     H41179   7.881   1.704   2.325 -0.8004  2.4889  4.2637
  312MOL0     H41180   8.032   1.559   2.198 -0.6653  1.3788 -1.8437
  312MOL0     H41181   8.078   1.727   2.173  2.2018 -0.9361 -1.3915
  312MOL0     H41182   8.419   1.558   2.367 -0.9105  0.5611  2.2419
  312MOL0     H41183   7.629   1.410   2.234 -0.3705 -0.1565 -0.9468
  312MOL0     H41184   7.394   1.401   2.311 -0.5278  2.8713  0.3183
  313MOL0     O41185   7.218   6.692   6.982  0.0087 -0.0591  0.5131
  313MOL0     C41186   7.272   6.725   7.085 -0.4797 -0.3693 -0.1533
  313MOL0     O41187   7.233   6.682   7.206  0.0346 -0.9606 -0.3126
  313MOL0     C41188   7.156   6.580   7.249 -0.8051  0.6183 -0.3904
  313MOL0     C41189   7.062   6.516   7.162 -0.1508  0.1761  0.2953
  313MOL0     C41190   6.974   6.421   7.215  0.4541  0.5951  0.3181
  313MOL0     C41191   6.962   6.389   7.354  0.0560 -0.4748 -0.7978
  313MOL0     O41192   6.871   6.300   7.385 -0.0074  0.2506  0.3241
  313MOL0     C41193   6.838   6.267   7.520 -0.2410  0.6482  0.0794
  313MOL0     C41194   6.727   6.173   7.526 -0.0929 -0.5760 -0.4372
  313MOL0     C41195   6.590   6.224   7.474  1.0286 -0.7171 -1.7029
  313MOL0     C41196   6.475   6.121   7.504 -0.7396 -0.0452  0.9953
  313MOL0     C41197   6.443   6.081   7.648  0.3091 -0.1651  0.5347
  313MOL0     C41198   6.306   6.004   7.660 -0.1056  0.2589 -0.3821
  313MOL0     C41199   6.271   5.979   7.804  0.0456 -0.3969  0.2336
  313MOL0     C41200   6.166   5.872   7.827  0.1601  0.0429 -0.3413
  313MOL0     N41201   6.031   5.901   7.783  0.1793 -0.0253  0.3316
  313MOL0     C41202   5.982   5.833   7.674  0.2413  0.7345  0.1156
  313MOL0     C41203   5.848   5.855   7.682  1.2844  0.0606 -0.4335
  313MOL0     C41204   5.744   5.817   7.576  0.1320 -0.0869  0.7927
  313MOL0     C41205   5.768   5.913   7.455 -0.8595 -0.8415 -0.4317
  313MOL0     C41206   5.671   5.896   7.330  0.0392 -0.3403 -0.8879
  313MOL0     C41207   5.527   5.930   7.355 -0.3651 -0.0874 -0.5279
  313MOL0     O41208   5.518   5.992   7.480  0.5967  0.4006 -0.1645
  313MOL0     C41209   5.400   5.992   7.543  0.5564  0.1937 -0.3264
  313MOL0     C41210   5.273   5.999   7.490  0.7847  0.0682 -0.6647
  313MOL0     C41211   5.165   6.014   7.572 -0.8075  0.0785  0.9276
  313MOL0     C41212   5.176   6.014   7.709  0.8072 -0.6312 -0.8583
  313MOL0     C41213   5.043   6.019   7.789  0.1625 -0.2428  0.2882
  313MOL0     O41214   4.931   6.052   7.716 -0.4649  0.3465 -0.0173
  313MOL0     C41215   4.802   6.027   7.767 -0.2078 -0.3817  0.1744
  313MOL0     C41216   4.755   5.972   7.887 -0.0556  0.0065 -0.4726
  313MOL0     C41217   4.619   5.985   7.914  0.0559  0.2636  0.5336
  313MOL0     C41218   4.531   6.044   7.822  0.3648  0.2300  0.2114
  313MOL0     O41219   4.396   6.037   7.851 -0.1718 -0.4247 -0.1636
  313MOL0     C41220   4.343   6.163   7.893  1.4227 -0.1616 -0.2893
  313MOL0     C41221   4.322   6.170   8.043  0.3297 -0.0159 -0.1942
  313MOL0     C41222   4.189   6.105   8.088 -0.2081 -0.6237  1.3562
  313MOL0     C41223   4.183   6.168   8.233 -0.1676  0.1130 -0.2171
  313MOL0     C41224   4.044   6.144   8.289 -0.1250 -0.3436 -0.0128
  313MOL0     C41225   3.974   6.010   8.278  0.4312 -0.2946  0.4044
  313MOL0     C41226   3.837   6.005   8.337  0.4342  0.0727 -0.3605
  313MOL0     C41227   3.840   6.026   8.489  0.7871  0.7729 -0.5071
  313MOL0    Cl41228   3.672   6.051   8.554  0.4139  0.8413  0.1528
  313MOL0     C41229   4.578   6.093   7.700  0.2933 -0.1163  0.1760
  313MOL0     C41230   4.712   6.094   7.684  0.8175 -0.3654  0.9541
  313MOL0     O41231   5.057   5.988   7.905  0.4341  0.2790  0.2763
  313MOL0     C41232   5.307   6.008   7.764 -0.4113 -0.5114 -0.4597
  313MOL0     C41233   5.414   6.006   7.677 -0.0762  0.4155 -0.1811
  313MOL0     N41234   5.819   5.941   7.787  0.1087 -0.2385 -0.1205
  313MOL0     N41235   5.933   5.961   7.854 -0.0827  0.7199 -0.4143
  313MOL0     C41236   7.048   6.464   7.440 -0.5274  0.2438 -0.6763
  313MOL0     C41237   7.132   6.569   7.383  0.7469  0.1011 -0.4795
  313MOL0     C41238   7.398   6.798   7.080  1.0935 -0.3119  0.4472
  313MOL0     C41239   7.478   6.824   7.189  0.4347 -0.1437 -0.8384
  313MOL0     C41240   7.600   6.907   7.177  0.3087 -0.4487  0.1686
  313MOL0     C41241   7.637   6.962   7.047 -0.1929 -0.4372  0.8943
  313MOL0     O41242   7.742   7.062   7.024 -0.4201  0.8046  1.1706
  313MOL0     C41243   7.795   7.125   7.141 -0.0736 -0.1276  0.4510
  313MOL0     C41244   7.876   7.242   7.095  0.0820 -0.3405 -0.1210
  313MOL0     C41245   8.001   7.198   7.017  0.2616 -0.0060 -0.5360
  313MOL0     C41246   8.093   7.310   6.970 -0.5554 -0.5212 -0.5939
  313MOL0     C41247   8.225   7.252   6.914  0.1600 -1.0571 -0.9812
  313MOL0     C41248   8.318   7.201   6.860 -0.7617  0.1983  0.1284
  313MOL0     C41249   7.549   6.936   6.937 -0.4600  0.5257 -0.3839
  313MOL0     C41250   7.436   6.856   6.952 -0.2852  0.3011  0.2680
  313MOL0     H41251   7.044   6.541   7.058 -1.3897  1.3263  0.7591
  313MOL0     H41252   6.904   6.378   7.144  0.3616  0.1962  0.6519
  313MOL0     H41253   6.808   6.357   7.574 -0.0632 -0.6191  2.3796
  313MOL0     H41254   6.921   6.216   7.569 -1.1758 -0.1557  0.8555
  313MOL0     H41255   6.721   6.153   7.633  1.1050  3.4462  0.5499
  313MOL0     H41256   6.756   6.081   7.474  0.1975  0.9852 -3.2641
  313MOL0     H41257   6.601   6.245   7.367  0.4864 -1.4728 -1.9160
  313MOL0     H41258   6.570   6.312   7.535 -0.9414 -0.8024 -2.1380
  313MOL0     H41259   6.381   6.171   7.477 -0.4691 -1.0638 -2.2200
  313MOL0     H41260   6.498   6.031   7.446 -1.2644  1.4267 -1.6507
  313MOL0     H41261   6.442   6.167   7.715 -3.4989 -1.1409  2.0002
  313MOL0     H41262   6.525   6.019   7.683 -0.1225 -0.4289  1.0933
  313MOL0     H41263   6.310   5.910   7.604 -2.2514 -1.0655  1.5383
  313MOL0     H41264   6.215   6.055   7.627 -1.2845 -1.2424  0.4512
  313MOL0     H41265   6.364   5.940   7.847  1.2721 -0.0996 -1.9967
  313MOL0     H41266   6.243   6.069   7.860 -1.7801 -0.1708 -0.9475
  313MOL0     H41267   6.144   5.849   7.931 -1.3078 -0.0820 -0.6597
  313MOL0     H41268   6.207   5.783   7.778  0.5532 -0.4948  0.9209
  313MOL0     H41269   6.042   5.787   7.597 -0.7964  1.5081 -1.1995
  313MOL0     H41270   5.646   5.830   7.622 -0.7081 -0.6103 -0.7480
  313MOL0     H41271   5.747   5.711   7.549 -1.1253 -0.1780  0.9292
  313MOL0     H41272   5.863   5.884   7.408  0.5282 -0.4449  1.9837
  313MOL0     H41273   5.778   6.021   7.465 -1.5349 -0.8433  0.3032
  313MOL0     H41274   5.703   5.963   7.250  0.6620 -0.3275 -0.6329
  313MOL0     H41275   5.680   5.789   7.309  2.2558 -0.1726 -0.9696
  313MOL0     H41276   5.465   5.840   7.357 -1.5064  0.6970  0.9615
  313MOL0     H41277   5.487   5.994   7.276 -1.3723  1.7142  1.3581
  313MOL0     H41278   5.247   5.994   7.385  0.5287 -2.4172 -0.5520
  313MOL0     H41279   5.064   6.023   7.534 -0.9871  2.2167  1.7948
  313MOL0     H41280   4.820   5.918   7.954 -0.3987  0.5947  0.3491
  313MOL0     H41281   4.573   5.929   7.995 -0.9330 -2.6639 -1.8417
  313MOL0     H41282   4.253   6.190   7.836  0.9210 -0.0338  0.5553
  313MOL0     H41283   4.416   6.242   7.871 -1.8932  3.2681 -0.0884
  313MOL0     H41284   4.324   6.278   8.061 -0.2324  0.5428 -2.9405
  313MOL0     H41285   4.408   6.116   8.082  0.1090  0.6043  1.1952
  313MOL0     H41286   4.189   5.996   8.090 -0.5782 -0.6884 -0.6224
  313MOL0     H41287   4.104   6.144   8.032  0.5277  1.2338  1.4475
  313MOL0     H41288   4.266   6.131   8.295 -1.1934 -0.3629  0.9027
  313MOL0     H41289   4.202   6.275   8.229  1.2749 -0.1476 -2.3171
  313MOL0     H41290   3.992   6.211   8.220  2.6404  2.5373  0.4840
  313MOL0     H41291   4.027   6.191   8.386 -2.4558  0.8321 -0.9043
  313MOL0     H41292   4.033   5.932   8.329 -0.2603 -1.2715 -0.2491
  313MOL0     H41293   3.960   5.983   8.173  0.0935  1.1230  0.0715
  313MOL0     H41294   3.763   6.082   8.312 -3.0210 -2.7658  0.3162
  313MOL0     H41295   3.791   5.911   8.307  1.5690 -0.6842  0.2132
  313MOL0     H41296   3.902   6.110   8.521  2.6885 -0.1455 -1.5773
  313MOL0     H41297   3.879   5.930   8.525 -0.4511 -0.8443 -3.1041
  313MOL0     H41298   4.514   6.132   7.621  1.6726  2.1838  0.0997
  313MOL0     H41299   4.758   6.148   7.601 -0.4065 -1.1984 -0.2911
  313MOL0     H41300   5.330   6.026   7.868 -0.0163  0.3089 -0.6800
  313MOL0     H41301   5.513   6.009   7.721  0.0167 -0.7018 -0.2984
  313MOL0     H41302   7.034   6.456   7.547  1.4725 -0.4727 -0.4192
  313MOL0     H41303   7.184   6.638   7.449 -3.0381 -1.1053  4.2985
  313MOL0     H41304   7.429   6.806   7.285 -0.2384  1.6652 -0.8070
  313MOL0     H41305   7.657   6.933   7.266 -1.1855 -1.4988  1.4914
  313MOL0     H41306   7.871   7.062   7.189  3.2729  0.2150 -3.8178
  313MOL0     H41307   7.722   7.152   7.218  2.5025  3.9803  1.7713
  313MOL0     H41308   7.819   7.312   7.033 -0.1821  1.0807  1.6212
  313MOL0     H41309   7.901   7.294   7.189 -0.3577 -0.8634  0.2907
  313MOL0     H41310   7.972   7.136   6.931 -0.4512 -2.6676  1.4795
  313MOL0     H41311   8.062   7.140   7.087  1.7375  2.2798  0.1751
  313MOL0     H41312   8.049   7.361   6.883  0.5970 -2.3122 -2.3261
  313MOL0     H41313   8.125   7.380   7.048 -0.5711 -0.2151 -0.8596
  313MOL0     H41314   8.405   7.150   6.825  1.1782  2.1003  1.8870
  313MOL0     H41315   7.575   6.992   6.847 -0.5297  2.8454  0.9732
  313MOL0     H41316   7.378   6.850   6.861  3.7132 -0.0160 -2.5437
  314MOL0     O41317   0.075   0.363   8.943  0.2707  0.0706  0.2114
  314MOL0     C41318   0.094   0.450   8.863  0.5010 -0.0215 -0.1441
  314MOL0     O41319  -0.009   0.521   8.816 -1.0749 -0.5513  0.5261
  314MOL0     C41320  -0.133   0.512   8.862 -0.2014  0.6663  0.5902
  314MOL0     C41321  -0.177   0.570   8.989 -0.7824  0.1831 -0.3088
  314MOL0     C41322  -0.309   0.570   9.025  0.4273  0.0303  0.7341
  314MOL0     C41323  -0.404   0.520   8.934 -0.7751  0.5445  0.7472
  314MOL0     O41324  -0.542   0.497   8.950 -0.5175  0.1411  0.0891
  314MOL0     C41325  -0.596   0.504   9.084 -0.7442 -0.5390 -0.6204
  314MOL0     C41326  -0.733   0.432   9.083  0.4461  0.7284 -0.1709
  314MOL0     C41327  -0.838   0.497   8.992 -0.8552 -0.6742 -0.3392
  314MOL0     C41328  -0.956   0.407   8.967  0.0374  0.2902  0.2987
  314MOL0     C41329  -1.046   0.444   8.850  1.0851  0.2247  0.3809
  314MOL0     C41330  -1.150   0.338   8.841 -0.4596  0.6874  0.2437
  314MOL0     C41331  -1.247   0.361   8.722  0.5527  0.1980 -0.0371
  314MOL0     C41332  -1.372   0.271   8.721 -0.2471 -0.1427  0.2573
  314MOL0     N41333  -1.483   0.330   8.808 -0.2386  0.1047  0.9229
  314MOL0     C41334  -1.545   0.454   8.793 -0.1538 -0.0315  0.8936
  314MOL0     C41335  -1.637   0.461   8.889 -2.1413  0.6670 -0.3761
  314MOL0     C41336  -1.737   0.570   8.922 -0.2362  0.0977 -0.1361
  314MOL0     C41337  -1.868   0.516   8.980  0.5703 -0.1905 -0.1557
  314MOL0     C41338  -1.945   0.442   8.869  0.1108  0.2824 -1.3095
  314MOL0     C41339  -1.985   0.527   8.750 -1.5943  0.1687  0.0410
  314MOL0     O41340  -2.061   0.642   8.793 -0.2181  0.7321 -0.1363
  314MOL0     C41341  -2.187   0.626   8.850 -0.2875 -0.1869  0.3021
  314MOL0     C41342  -2.304   0.614   8.775 -0.0553 -0.5586  0.2347
  314MOL0     C41343  -2.425   0.603   8.844  0.2534  0.5154  0.1937
  314MOL0     C41344  -2.441   0.618   8.976  0.8289 -0.2537 -0.1574
  314MOL0     C41345  -2.565   0.634   9.043 -0.1470  0.4414 -0.6886
  314MOL0     O41346  -2.564   0.644   9.177 -0.0465 -0.5108  0.1802
  314MOL0     C41347  -2.680   0.678   9.249 -0.3027 -0.0978 -0.6615
  314MOL0     C41348  -2.766   0.572   9.303 -0.8760 -0.2944  0.0650
  314MOL0     C41349  -2.852   0.605   9.405 -0.2463 -0.0427  0.3784
  314MOL0     C41350  -2.850   0.737   9.460 -0.8671  0.2061 -0.0487
  314MOL0     O41351  -2.935   0.774   9.564  0.0353 -0.1820  0.7270
  314MOL0     C41352  -3.073   0.731   9.548 -0.1281  0.5704 -0.1978
  314MOL0     C41353  -3.145   0.769   9.690  0.4680  0.8120 -0.3261
  314MOL0     C41354  -3.284   0.818   9.671 -1.2289  0.2683  0.5101
  314MOL0     C41355  -3.363   0.825   9.805  0.5604 -1.0292 -0.3522
  314MOL0     C41356  -3.507   0.873   9.781  0.1209  0.2853 -0.6645
  314MOL0     C41357  -3.521   1.004   9.706 -0.2427 -0.3453  0.0433
  314MOL0     C41358  -3.660   1.067   9.722  0.0819  0.5150  0.8538
  314MOL0     C41359  -3.661   1.204   9.663  0.0745 -0.9290  0.5194
  314MOL0    Cl41360  -3.582   1.325   9.773 -0.0345 -0.0895  0.0318
  314MOL0     C41361  -2.765   0.837   9.404  0.1782  0.9967 -0.9851
  314MOL0     C41362  -2.678   0.810   9.300 -1.3766  0.7035 -0.3880
  314MOL0     O41363  -2.666   0.621   8.976  0.5323 -0.3046 -0.1142
  314MOL0     C41364  -2.328   0.623   9.049 -0.0183  0.6586 -0.2634
  314MOL0     C41365  -2.200   0.613   8.990 -0.1381 -1.0730 -1.2781
  314MOL0     N41366  -1.626   0.347   8.975  0.5337  0.7042  0.3390
  314MOL0     N41367  -1.531   0.274   8.924  0.4941  0.4096 -0.1074
  314MOL0     C41368  -0.360   0.446   8.820  0.3183 -0.3007  0.4795
  314MOL0     C41369  -0.228   0.444   8.781 -0.5823  0.9475  0.3132
  314MOL0     C41370   0.234   0.484   8.827  1.1864  1.2716  0.0644
  314MOL0     C41371   0.266   0.596   8.749  0.3352  0.5608 -0.1246
  314MOL0     C41372   0.404   0.617   8.720  0.1822 -0.5434 -0.5576
  314MOL0     C41373   0.512   0.542   8.768 -0.2876 -1.1272 -0.0737
  314MOL0     O41374   0.641   0.562   8.724  0.1961  0.1191  0.0147
  314MOL0     C41375   0.749   0.515   8.813 -0.1960  1.1516  0.1625
  314MOL0     C41376   0.876   0.540   8.734 -0.1272 -0.2456 -0.0676
  314MOL0     C41377   0.939   0.678   8.760 -0.7264  0.2763  0.1340
  314MOL0     C41378   1.073   0.703   8.689  0.5024 -0.0518 -0.3114
  314MOL0     C41379   1.190   0.631   8.740  0.1478  0.9819  0.5780
  314MOL0     C41380   1.297   0.601   8.790 -1.2662  0.1087  0.9092
  314MOL0     C41381   0.482   0.441   8.863  1.3700 -0.3137  0.3113
  314MOL0     C41382   0.340   0.404   8.877 -0.7929  0.0750  0.4914
  314MOL0     H41383  -0.107   0.615   9.058 -3.0287  0.5384  1.8968
  314MOL0     H41384  -0.348   0.608   9.119  1.1956 -1.4116  1.6790
  314MOL0     H41385  -0.596   0.611   9.108  0.9234 -0.8835  1.0765
  314MOL0     H41386  -0.531   0.457   9.157 -1.1159  0.3342  0.2893
  314MOL0     H41387  -0.775   0.431   9.184 -1.2559 -1.8037 -0.8133
  314MOL0     H41388  -0.739   0.326   9.056 -1.9523  1.8473 -5.1976
  314MOL0     H41389  -0.786   0.498   8.896  0.5309 -1.1754  0.3767
  314MOL0     H41390  -0.857   0.601   9.019  1.8013 -0.0271 -0.6539
  314MOL0     H41391  -0.914   0.307   8.953 -2.3982 -0.5253 -1.9859
  314MOL0     H41392  -1.009   0.394   9.061  1.5070 -0.9535  0.9820
  314MOL0     H41393  -0.983   0.451   8.762  2.0430 -0.0968  1.0292
  314MOL0     H41394  -1.104   0.536   8.863 -0.4607 -0.3110 -2.0842
  314MOL0     H41395  -1.202   0.326   8.937  1.5367 -0.6858  1.2247
  314MOL0     H41396  -1.102   0.240   8.829  1.3392  1.7375 -1.8043
  314MOL0     H41397  -1.277   0.465   8.711 -2.1516 -0.7692 -3.4810
  314MOL0     H41398  -1.195   0.341   8.628 -1.2212  1.5147 -1.3687
  314MOL0     H41399  -1.347   0.180   8.775 -1.2380  1.2261  3.2678
  314MOL0     H41400  -1.404   0.266   8.617 -0.7159  0.9657  0.3298
  314MOL0     H41401  -1.533   0.530   8.716  2.7253  1.0910  2.3207
  314MOL0     H41402  -1.769   0.631   8.836 -1.2785  2.0046  1.5166
  314MOL0     H41403  -1.685   0.636   8.992  1.5969 -0.7789 -0.6290
  314MOL0     H41404  -1.918   0.606   9.017 -1.4340 -1.2985 -0.0265
  314MOL0     H41405  -1.856   0.448   9.064 -1.8243 -1.4245 -0.7054
  314MOL0     H41406  -1.876   0.364   8.836  1.0830  1.1309 -1.2988
  314MOL0     H41407  -2.030   0.382   8.903  0.5282  0.0512 -0.6636
  314MOL0     H41408  -2.025   0.464   8.670 -1.1526 -0.5105  0.3455
  314MOL0     H41409  -1.904   0.572   8.692 -2.2605  1.6923  0.2453
  314MOL0     H41410  -2.300   0.608   8.667 -3.4367  0.8963 -0.0984
  314MOL0     H41411  -2.512   0.588   8.781  2.0521 -0.2034 -2.2926
  314MOL0     H41412  -2.765   0.465   9.283 -2.2622 -0.0830 -1.3520
  314MOL0     H41413  -2.913   0.525   9.445 -1.7913 -0.3201 -2.2561
  314MOL0     H41414  -3.097   0.626   9.529  2.7096 -0.3173  0.7564
  314MOL0     H41415  -3.119   0.794   9.471 -0.3485  2.2015  1.1964
  314MOL0     H41416  -3.096   0.852   9.743 -2.3459  2.0696  0.5087
  314MOL0     H41417  -3.143   0.684   9.759  1.6181 -0.6124 -2.0199
  314MOL0     H41418  -3.334   0.751   9.599 -0.0791 -1.2618  1.0669
  314MOL0     H41419  -3.274   0.917   9.627  2.5943 -0.7892 -1.4707
  314MOL0     H41420  -3.357   0.729   9.857  2.7110  0.3026  2.0970
  314MOL0     H41421  -3.317   0.900   9.869 -0.6304  0.3304 -1.0405
  314MOL0     H41422  -3.551   0.892   9.879  2.9741 -0.3276  0.8327
  314MOL0     H41423  -3.557   0.796   9.722 -0.5655 -0.0180  0.2881
  314MOL0     H41424  -3.481   0.995   9.605 -0.7613  1.0053 -0.3040
  314MOL0     H41425  -3.459   1.078   9.758 -1.2111  2.1496 -2.1214
  314MOL0     H41426  -3.730   1.008   9.662 -2.6125  3.1308  1.1652
  314MOL0     H41427  -3.693   1.061   9.827 -0.7127 -0.9365  0.5458
  314MOL0     H41428  -3.762   1.241   9.645  0.7542  3.8959  4.4924
  314MOL0     H41429  -3.601   1.195   9.572  0.5378  2.7394  0.2827
  314MOL0     H41430  -2.772   0.940   9.438 -0.8957  0.3467  0.9168
  314MOL0     H41431  -2.613   0.886   9.258 -0.3352 -0.7641 -1.5200
  314MOL0     H41432  -2.340   0.629   9.156 -1.2999  1.9898 -0.4398
  314MOL0     H41433  -2.123   0.591   9.063 -0.3461  0.8142 -0.4310
  314MOL0     H41434  -0.430   0.398   8.752 -1.2108  1.4443  0.7604
  314MOL0     H41435  -0.199   0.399   8.687 -1.8886 -0.8334  0.7017
  314MOL0     H41436   0.179   0.651   8.715  1.1939  1.6340 -0.6602
  314MOL0     H41437   0.426   0.705   8.661 -1.4487  1.5045  1.7235
  314MOL0     H41438   0.735   0.406   8.819 -0.8158  0.9339 -3.2529
  314MOL0     H41439   0.756   0.559   8.913  0.7379 -1.6288  1.4412
  314MOL0     H41440   0.952   0.462   8.740 -1.2173 -1.5352 -1.9728
  314MOL0     H41441   0.849   0.539   8.628 -4.1202  1.6230  0.7530
  314MOL0     H41442   0.940   0.695   8.868 -1.8679 -0.9593  0.3589
  314MOL0     H41443   0.861   0.743   8.718 -1.6429 -1.6066 -1.2567
  314MOL0     H41444   1.050   0.686   8.583  0.2069  2.2390 -0.6717
  314MOL0     H41445   1.090   0.811   8.701  1.6907 -0.1712 -0.7462
  314MOL0     H41446   1.401   0.597   8.815  0.0773  1.3712 -3.5142
  314MOL0     H41447   0.546   0.376   8.922 -1.0977 -3.6708 -0.4088
  314MOL0     H41448   0.309   0.328   8.948  0.5922 -2.5201 -1.5241
  315MOL0     O41449   1.252   0.974   2.007 -0.6604 -0.6068 -0.1650
  315MOL0     C41450   1.348   0.949   2.076  0.8965 -0.2451  1.6180
  315MOL0     O41451   1.343   0.908   2.196  0.7350 -0.9840  0.2879
  315MOL0     C41452   1.233   0.904   2.271  0.3704 -0.5069  0.2488
  315MOL0     C41453   1.213   0.795   2.355 -0.4613  0.2312  0.0243
  315MOL0     C41454   1.090   0.773   2.413  0.1116 -0.1472  0.4391
  315MOL0     C41455   0.991   0.873   2.417 -0.2609  0.5679 -0.2051
  315MOL0     O41456   0.893   0.841   2.510 -0.8912 -1.3218  1.1992
  315MOL0     C41457   0.777   0.925   2.517  0.1937  0.5044 -0.2045
  315MOL0     C41458   0.645   0.848   2.556  0.5734  0.0805 -0.3390
  315MOL0     C41459   0.547   0.911   2.646  0.3693  0.5540 -0.3027
  315MOL0     C41460   0.402   0.847   2.638 -0.4720 -0.0904  0.4526
  315MOL0     C41461   0.292   0.903   2.725  0.0322 -0.9400  0.2348
  315MOL0     C41462   0.149   0.856   2.690 -0.0325  0.3401 -0.6032
  315MOL0     C41463   0.045   0.904   2.788 -0.6741 -0.6285 -0.6497
  315MOL0     C41464  -0.091   0.877   2.737  0.5807  0.2667  0.6176
  315MOL0     N41465  -0.193   0.903   2.830  0.8153  0.1010  0.0466
  315MOL0     C41466  -0.277   0.815   2.886 -0.0692  0.6935 -0.5382
  315MOL0     C41467  -0.366   0.883   2.949 -0.1497 -0.4793  0.0352
  315MOL0     C41468  -0.474   0.826   3.028  0.6017 -1.2837 -0.3121
  315MOL0     C41469  -0.614   0.895   3.009 -0.1511  0.1471  0.0469
  315MOL0     C41470  -0.728   0.807   3.050  0.0243 -0.7286 -0.3980
  315MOL0     C41471  -0.854   0.874   3.022  0.7096 -0.2327 -0.0589
  315MOL0     O41472  -0.961   0.810   3.097  0.4978 -0.5046  0.6638
  315MOL0     C41473  -1.088   0.832   3.052 -0.1986 -0.1076  0.6689
  315MOL0     C41474  -1.185   0.746   3.099 -0.3787  0.0090  1.2784
  315MOL0     C41475  -1.320   0.749   3.061 -0.7266 -0.1913  0.5220
  315MOL0     C41476  -1.366   0.856   2.980  0.4926  0.3771  0.2837
  315MOL0     C41477  -1.511   0.879   2.950 -0.3695 -0.9566  1.4880
  315MOL0     O41478  -1.557   1.005   2.916  0.0285  0.9071  0.3295
  315MOL0     C41479  -1.672   1.019   2.845  0.3603  0.2359 -0.4211
  315MOL0     C41480  -1.795   0.968   2.888  1.1396 -0.4415 -0.1445
  315MOL0     C41481  -1.913   0.998   2.817  0.9561 -0.1491  0.1792
  315MOL0     C41482  -1.895   1.078   2.701  0.0197 -0.7392 -0.8381
  315MOL0     O41483  -2.010   1.098   2.627 -0.2279 -0.3760 -0.2451
  315MOL0     C41484  -2.011   1.146   2.495 -0.1050  0.4452  0.6618
  315MOL0     C41485  -2.021   1.301   2.493  0.9730 -0.4225  0.6351
  315MOL0     C41486  -2.149   1.361   2.558  0.4798 -0.1058  0.2750
  315MOL0     C41487  -2.145   1.515   2.542  0.0481  0.6054 -0.1609
  315MOL0     C41488  -2.234   1.579   2.651  0.1230 -0.2531  0.1040
  315MOL0     C41489  -2.247   1.731   2.610 -0.3579 -0.5046 -1.1229
  315MOL0     C41490  -2.349   1.793   2.703 -0.4339 -0.6153  0.5247
  315MOL0     C41491  -2.355   1.948   2.659  0.8416  0.1861 -0.0180
  315MOL0    Cl41492  -2.406   2.030   2.807 -0.1334  0.3571  0.3163
  315MOL0     C41493  -1.770   1.124   2.658 -0.3567  0.3420  0.3377
  315MOL0     C41494  -1.657   1.086   2.723  0.7223 -0.5257  0.2890
  315MOL0     O41495  -1.581   0.780   2.951 -0.0767  0.6627 -0.0666
  315MOL0     C41496  -1.275   0.941   2.925  0.2733 -0.6028  0.7521
  315MOL0     C41497  -1.139   0.932   2.957 -0.5236  0.9685 -0.6478
  315MOL0     N41498  -0.351   1.020   2.920 -0.6369 -0.2382 -0.5904
  315MOL0     N41499  -0.246   1.028   2.854  0.6216 -0.5078  0.8719
  315MOL0     C41500   1.014   0.989   2.344  0.5989  0.2978  0.0751
  315MOL0     C41501   1.126   0.999   2.268  0.6597 -0.1107  0.8686
  315MOL0     C41502   1.478   0.965   2.015 -1.0900  1.2577 -0.1715
  315MOL0     C41503   1.599   0.975   2.093 -0.7819 -1.0409  0.1922
  315MOL0     C41504   1.728   0.983   2.033  0.8215  1.0416 -0.9598
  315MOL0     C41505   1.745   0.966   1.896  0.9227  0.1105 -1.3378
  315MOL0     O41506   1.867   0.955   1.842  0.3817 -0.4931 -0.4210
  315MOL0     C41507   1.881   0.907   1.707  0.0270 -0.5001 -0.3302
  315MOL0     C41508   2.026   0.931   1.653 -0.1657  0.0618 -0.3371
  315MOL0     C41509   2.055   0.838   1.529 -0.1118  0.3772 -0.6320
  315MOL0     C41510   2.185   0.877   1.450 -0.3083 -0.5707  0.7257
  315MOL0     C41511   2.304   0.846   1.542  0.4170  0.5856 -0.0225
  315MOL0     C41512   2.407   0.820   1.603 -0.4687 -0.1399 -0.7232
  315MOL0     C41513   1.627   0.945   1.823  0.6524 -0.4684 -0.2521
  315MOL0     C41514   1.494   0.945   1.878  0.0429  0.4392  0.4832
  315MOL0     H41515   1.291   0.720   2.352  0.4972  1.2020 -0.1235
  315MOL0     H41516   1.075   0.687   2.478 -0.9664  2.1208  3.3665
  315MOL0     H41517   0.752   0.971   2.421  1.3518  0.5366 -0.5029
  315MOL0     H41518   0.804   1.012   2.578  2.5959  1.2889 -2.2440
  315MOL0     H41519   0.662   0.747   2.593 -2.6746 -0.0579  1.1347
  315MOL0     H41520   0.590   0.832   2.463  2.7505 -0.8168 -1.5588
  315MOL0     H41521   0.544   1.019   2.628  0.0259 -0.0492 -4.9119
  315MOL0     H41522   0.588   0.894   2.746 -2.7883  0.3395  1.0843
  315MOL0     H41523   0.373   0.852   2.533 -1.9664  1.7678  0.9108
  315MOL0     H41524   0.404   0.743   2.673 -3.0471 -0.4008 -0.1279
  315MOL0     H41525   0.297   1.012   2.720  1.1025 -0.9912 -0.0109
  315MOL0     H41526   0.302   0.868   2.828 -2.0032 -2.5957 -0.0694
  315MOL0     H41527   0.145   0.748   2.680  0.7597  0.3063 -0.6044
  315MOL0     H41528   0.134   0.901   2.591  0.6153  0.5270 -0.6185
  315MOL0     H41529   0.055   0.850   2.883  2.2788 -0.5724 -0.8248
  315MOL0     H41530   0.059   1.012   2.800  4.9807 -0.9015 -1.8414
  315MOL0     H41531  -0.093   0.769   2.718  0.2702  0.8018 -3.1482
  315MOL0     H41532  -0.110   0.929   2.643 -0.9638 -2.5891 -0.7883
  315MOL0     H41533  -0.275   0.707   2.879 -1.0658  0.6643 -0.4469
  315MOL0     H41534  -0.451   0.838   3.134 -1.3010  0.1344 -0.0251
  315MOL0     H41535  -0.485   0.720   3.002 -0.5286 -1.0846 -0.6885
  315MOL0     H41536  -0.637   0.909   2.903 -3.4983  1.2656  0.7817
  315MOL0     H41537  -0.608   0.996   3.052  0.3762 -0.9430  2.7233
  315MOL0     H41538  -0.735   0.711   2.998  2.6444  0.0519 -2.4558
  315MOL0     H41539  -0.714   0.789   3.157  2.5699  3.6980  0.2829
  315MOL0     H41540  -0.881   0.872   2.916 -4.0888  2.0524  0.8810
  315MOL0     H41541  -0.852   0.978   3.057  0.7699 -0.2844  0.0930
  315MOL0     H41542  -1.162   0.663   3.166 -0.1504 -1.3272 -0.3760
  315MOL0     H41543  -1.392   0.694   3.123  0.1445  1.1107  2.8081
  315MOL0     H41544  -1.813   0.897   2.968  0.0472 -2.2086 -1.8606
  315MOL0     H41545  -2.013   0.963   2.842  2.2305 -2.2059  2.8502
  315MOL0     H41546  -2.097   1.099   2.447 -2.0010  2.3496  2.0454
  315MOL0     H41547  -1.923   1.102   2.447  0.7924 -0.2243  2.7704
  315MOL0     H41548  -2.028   1.327   2.386  0.1115  0.3778  0.8738
  315MOL0     H41549  -1.928   1.340   2.534  0.6468  0.4272  0.5938
  315MOL0     H41550  -2.166   1.323   2.659 -1.9158 -2.1977 -0.8040
  315MOL0     H41551  -2.225   1.324   2.489  1.9264 -1.2576 -0.7518
  315MOL0     H41552  -2.044   1.556   2.548  1.6215 -3.0453  1.5314
  315MOL0     H41553  -2.192   1.516   2.443 -2.5241 -2.0620  0.8733
  315MOL0     H41554  -2.185   1.567   2.748 -0.1137  0.0300  0.2621
  315MOL0     H41555  -2.327   1.520   2.651  2.4811 -4.3814 -0.6736
  315MOL0     H41556  -2.286   1.742   2.509 -2.2897 -0.2536 -0.3818
  315MOL0     H41557  -2.148   1.776   2.625 -0.2978 -1.2315  1.1305
  315MOL0     H41558  -2.450   1.751   2.703 -1.2007  1.0786 -1.3009
  315MOL0     H41559  -2.308   1.787   2.805  1.6768  2.5419  0.0312
  315MOL0     H41560  -2.415   1.977   2.572  0.8377 -0.8405 -0.3683
  315MOL0     H41561  -2.252   1.981   2.652  1.3892 -0.8785  2.0317
  315MOL0     H41562  -1.766   1.187   2.570 -1.6375  0.3441  0.2614
  315MOL0     H41563  -1.562   1.130   2.695  0.9113 -1.1334 -0.0371
  315MOL0     H41564  -1.304   1.022   2.859  0.0315 -0.0553  1.5280
  315MOL0     H41565  -1.078   1.007   2.908  1.2095 -0.0062 -0.0744
  315MOL0     H41566   0.936   1.063   2.332 -1.3188 -2.0282 -3.4992
  315MOL0     H41567   1.135   1.089   2.208 -0.4301 -1.4443 -1.4183
  315MOL0     H41568   1.609   0.977   2.201  1.8573  0.5942  0.0057
  315MOL0     H41569   1.816   0.994   2.095  0.2333  0.2135  0.0596
  315MOL0     H41570   1.811   0.957   1.640 -1.0098 -1.5088 -0.0204
  315MOL0     H41571   1.860   0.800   1.713  0.5790 -0.9097 -3.7034
  315MOL0     H41572   2.042   1.034   1.619 -1.4974  0.2434 -0.4675
  315MOL0     H41573   2.091   0.907   1.737 -0.4242  0.2405 -0.0842
  315MOL0     H41574   1.968   0.845   1.463 -0.2873 -1.1488 -0.6060
  315MOL0     H41575   2.068   0.732   1.552 -1.5462 -0.0353 -1.5700
  315MOL0     H41576   2.199   0.828   1.354  4.5500 -0.2466  1.0009
  315MOL0     H41577   2.178   0.979   1.410  0.4800 -1.4068 -1.6840
  315MOL0     H41578   2.499   0.803   1.654 -0.8849  1.4789  0.6809
  315MOL0     H41579   1.624   0.934   1.715 -1.3792  5.0540 -1.1340
  315MOL0     H41580   1.425   0.913   1.800  2.1847 -2.1116 -0.5080
  316MOL0     O41581   7.419   2.931   3.194  0.2524 -0.5462  0.0622
  316MOL0     C41582   7.352   3.015   3.253  0.6479 -0.0972  0.2044
  316MOL0     O41583   7.398   3.126   3.314 -0.6097  0.6619 -0.4247
  316MOL0     C41584   7.532   3.147   3.312 -0.4081 -0.5665  0.9570
  316MOL0     C41585   7.599   3.163   3.427  0.1052 -0.0727 -0.7587
  316MOL0     C41586   7.733   3.189   3.437 -0.0555  0.6373 -0.3069
  316MOL0     C41587   7.806   3.210   3.321  0.2228  0.3232 -0.0484
  316MOL0     O41588   7.938   3.246   3.323 -0.4233  0.3837  0.8394
  316MOL0     C41589   8.017   3.125   3.314  0.0317  0.7603  0.2331
  316MOL0     C41590   8.165   3.150   3.290  0.4098  0.4008  0.4282
  316MOL0     C41591   8.224   3.243   3.393  0.0537  0.7637 -0.1692
  316MOL0     C41592   8.235   3.164   3.529 -0.9740 -0.4075 -0.4232
  316MOL0     C41593   8.314   3.041   3.534 -0.7862 -1.1136  1.3527
  316MOL0     C41594   8.452   3.048   3.472  0.5321  0.3713 -0.5084
  316MOL0     C41595   8.560   3.133   3.549  1.2286  0.3601  0.4729
  316MOL0     C41596   8.700   3.088   3.532  0.2858 -0.1114  0.1540
  316MOL0     N41597   8.714   2.988   3.632  0.2197  0.4514 -0.6976
  316MOL0     C41598   8.680   2.857   3.628  0.0118 -0.6144 -0.9537
  316MOL0     C41599   8.672   2.829   3.764  0.5828 -0.8073 -0.4506
  316MOL0     C41600   8.639   2.691   3.827  0.7870 -0.7721 -0.4965
  316MOL0     C41601   8.549   2.608   3.731 -1.0196 -0.3583 -0.0470
  316MOL0     C41602   8.418   2.664   3.727  0.7056 -0.9273 -0.0478
  316MOL0     C41603   8.356   2.619   3.595 -0.9401  0.4387 -0.3452
  316MOL0     O41604   8.255   2.698   3.530  0.5714 -0.1768 -0.2734
  316MOL0     C41605   8.141   2.736   3.592 -0.5300  0.4586  0.1792
  316MOL0     C41606   8.097   2.683   3.714  0.2306  0.6966 -0.6255
  316MOL0     C41607   7.971   2.712   3.769 -0.5301  0.1825 -0.1314
  316MOL0     C41608   7.877   2.786   3.693  0.6091 -0.2874 -0.4268
  316MOL0     C41609   7.732   2.802   3.736 -0.7461  0.4256  0.0121
  316MOL0     O41610   7.638   2.836   3.644 -0.5066 -0.4460 -0.7594
  316MOL0     C41611   7.509   2.867   3.680  0.1210 -0.1576  0.5998
  316MOL0     C41612   7.414   2.881   3.577 -0.3188  0.1634  0.6009
  316MOL0     C41613   7.279   2.897   3.598 -1.1541 -0.3709  0.0997
  316MOL0     C41614   7.231   2.893   3.728 -0.3459 -0.0273 -0.2271
  316MOL0     O41615   7.091   2.899   3.730 -0.5676  0.1515  0.3669
  316MOL0     C41616   7.039   2.953   3.854 -0.4555 -0.1826  0.7323
  316MOL0     C41617   6.894   3.004   3.815 -0.6463  0.5165 -0.9812
  316MOL0     C41618   6.897   3.123   3.718  0.4021  0.2436 -0.6557
  316MOL0     C41619   6.773   3.158   3.645  0.2521  0.6269  0.0925
  316MOL0     C41620   6.681   3.228   3.729  0.4726  0.0942  0.4414
  316MOL0     C41621   6.556   3.272   3.645 -0.6563  0.8927 -0.0440
  316MOL0     C41622   6.448   3.178   3.607 -0.3807 -0.0896 -0.2404
  316MOL0     C41623   6.467   3.105   3.475 -0.5343 -0.2316 -0.5952
  316MOL0    Cl41624   6.354   2.975   3.468  0.1838 -0.0703  0.0523
  316MOL0     C41625   7.322   2.882   3.829 -0.4260  0.2435 -0.9070
  316MOL0     C41626   7.463   2.882   3.807 -0.9802  0.7209 -0.1313
  316MOL0     O41627   7.713   2.766   3.848  0.0211 -0.0504  0.3329
  316MOL0     C41628   7.925   2.845   3.568 -0.5516  0.6202 -0.3743
  316MOL0     C41629   8.056   2.824   3.524  0.2699  0.2128 -0.0999
  316MOL0     N41630   8.707   2.932   3.845  0.1390 -0.0448 -0.2578
  316MOL0     N41631   8.736   3.024   3.762 -0.6707 -0.7756 -1.2906
  316MOL0     C41632   7.739   3.199   3.196 -0.8600  0.1515 -0.4591
  316MOL0     C41633   7.600   3.173   3.193  0.5037 -1.0055  0.8325
  316MOL0     C41634   7.198   3.004   3.248  1.0968 -0.4514 -0.2220
  316MOL0     C41635   7.107   3.083   3.317  0.1647  0.5001 -0.7237
  316MOL0     C41636   6.967   3.072   3.306  0.4319  0.3932  0.1625
  316MOL0     C41637   6.908   2.987   3.210 -0.4570 -0.0865  0.4424
  316MOL0     O41638   6.775   2.989   3.217  0.1491 -0.3125  0.0186
  316MOL0     C41639   6.711   2.891   3.148 -0.8487 -1.3759  0.0478
  316MOL0     C41640   6.558   2.893   3.171 -0.3673  0.3891  0.4604
  316MOL0     C41641   6.503   3.012   3.089 -0.6760 -0.0220  0.2136
  316MOL0     C41642   6.348   3.012   3.087 -0.4140 -0.6922  0.0356
  316MOL0     C41643   6.302   2.886   3.025 -0.4078  0.7084 -0.5559
  316MOL0     C41644   6.259   2.781   2.971  0.8937  0.3454 -0.2297
  316MOL0     C41645   7.000   2.908   3.137 -0.2371  1.2182  0.5719
  316MOL0     C41646   7.141   2.917   3.155  0.1514 -1.6995  0.9329
  316MOL0     H41647   7.547   3.135   3.518  1.7371 -2.4905 -0.4510
  316MOL0     H41648   7.795   3.186   3.526 -0.3928 -1.1533 -0.1005
  316MOL0     H41649   7.987   3.063   3.229 -0.7396  0.9944  0.3334
  316MOL0     H41650   8.004   3.073   3.409  0.9072 -1.6793 -0.8880
  316MOL0     H41651   8.183   3.202   3.195  0.5105 -0.5156 -0.0595
  316MOL0     H41652   8.218   3.055   3.299 -0.3658  0.1121  2.4142
  316MOL0     H41653   8.169   3.335   3.414 -1.5894  0.3899 -2.4583
  316MOL0     H41654   8.327   3.273   3.370 -0.0192  0.7834 -0.4761
  316MOL0     H41655   8.280   3.230   3.604  0.9720 -0.5069 -1.4647
  316MOL0     H41656   8.135   3.133   3.563 -2.0434  1.2931 -1.8386
  316MOL0     H41657   8.264   2.963   3.476  0.7000 -1.7555  0.8877
  316MOL0     H41658   8.331   3.004   3.636  3.0263  1.4376  1.8238
  316MOL0     H41659   8.439   3.075   3.367  1.7225 -1.2665 -1.1096
  316MOL0     H41660   8.483   2.944   3.462 -1.0664 -0.1095 -0.6738
  316MOL0     H41661   8.552   3.234   3.509  1.7115  0.9461  1.7981
  316MOL0     H41662   8.523   3.146   3.651 -2.4801 -0.3740 -0.6119
  316MOL0     H41663   8.768   3.171   3.549  0.1330  0.3276 -1.2658
  316MOL0     H41664   8.708   3.041   3.433  0.0385 -0.4140  0.2771
  316MOL0     H41665   8.665   2.779   3.553  0.4833 -0.8975 -0.7573
  316MOL0     H41666   8.591   2.710   3.924 -1.1772  0.9224 -1.6916
  316MOL0     H41667   8.732   2.639   3.849  0.2217 -1.0784  1.2909
  316MOL0     H41668   8.541   2.502   3.756 -5.2812 -0.0105  0.8408
  316MOL0     H41669   8.606   2.603   3.638  0.5400 -1.5939  0.9314
  316MOL0     H41670   8.364   2.621   3.812  0.9183 -1.2515 -0.0750
  316MOL0     H41671   8.419   2.773   3.728  0.7543 -0.9288  0.0977
  316MOL0     H41672   8.310   2.521   3.608 -0.9290  0.4237 -0.4184
  316MOL0     H41673   8.433   2.603   3.519 -2.1955 -0.4634 -1.4831
  316MOL0     H41674   8.152   2.599   3.755 -1.5200 -0.2012 -0.0104
  316MOL0     H41675   7.948   2.666   3.864 -1.5643 -2.6054 -1.6385
  316MOL0     H41676   7.434   2.884   3.470 -2.1295 -2.5947  0.0859
  316MOL0     H41677   7.225   2.906   3.504 -0.2602 -0.0232 -0.3885
  316MOL0     H41678   7.097   3.040   3.884 -0.4869 -0.5706  1.9736
  316MOL0     H41679   7.038   2.873   3.929 -0.1112 -1.0985 -0.2027
  316MOL0     H41680   6.851   3.049   3.905 -1.6772  0.6274 -1.5257
  316MOL0     H41681   6.829   2.923   3.782  0.2014  0.0653 -1.5843
  316MOL0     H41682   6.973   3.096   3.644  2.9139  0.4329  1.6873
  316MOL0     H41683   6.945   3.210   3.762  2.4938 -1.1129 -0.0707
  316MOL0     H41684   6.809   3.228   3.569  0.4188 -0.2570 -0.6591
  316MOL0     H41685   6.723   3.068   3.609  0.5938  0.1148  0.8627
  316MOL0     H41686   6.722   3.323   3.763 -0.6932 -0.3477  3.4348
  316MOL0     H41687   6.652   3.177   3.822  2.2393 -1.6713  0.0901
  316MOL0     H41688   6.577   3.329   3.555 -3.3797  0.8093 -0.8370
  316MOL0     H41689   6.508   3.354   3.699  1.8981  4.2719 -2.5096
  316MOL0     H41690   6.435   3.101   3.684 -1.2720  1.8484  1.6188
  316MOL0     H41691   6.362   3.246   3.610  0.2903  0.7555  0.0542
  316MOL0     H41692   6.566   3.058   3.473 -0.5050 -0.2910  0.9189
  316MOL0     H41693   6.447   3.181   3.400 -1.2692 -1.4873 -1.7145
  316MOL0     H41694   7.288   2.882   3.933 -0.3915  1.5798 -0.8735
  316MOL0     H41695   7.521   2.873   3.899 -1.0232  5.0800  0.5671
  316MOL0     H41696   7.867   2.901   3.495 -0.0797  0.2921 -1.0106
  316MOL0     H41697   8.088   2.865   3.429  0.9669 -0.3368 -0.1161
  316MOL0     H41698   7.796   3.219   3.106  0.6711  1.4113  0.7478
  316MOL0     H41699   7.548   3.175   3.097 -4.5819  4.2671  3.0495
  316MOL0     H41700   7.139   3.151   3.395  2.2912 -1.6732  0.4545
  316MOL0     H41701   6.895   3.133   3.360 -0.5035 -0.8435  0.3495
  316MOL0     H41702   6.752   2.800   3.192  0.0697 -2.6800 -3.2023
  316MOL0     H41703   6.725   2.909   3.040  1.4789  3.1392  0.8355
  316MOL0     H41704   6.526   2.797   3.131 -0.0230 -0.3586  1.8979
  316MOL0     H41705   6.512   2.877   3.269 -1.6423  0.0767 -0.1757
  316MOL0     H41706   6.544   3.009   2.987  1.2349 -0.5837  0.9564
  316MOL0     H41707   6.537   3.106   3.135 -0.3628 -1.0203  2.1273
  316MOL0     H41708   6.310   3.028   3.188  3.6532 -2.2685  2.0198
  316MOL0     H41709   6.315   3.090   3.017  0.5285 -0.1149  0.2231
  316MOL0     H41710   6.221   2.689   2.932  1.8066  0.1016 -0.5764
  316MOL0     H41711   6.958   2.827   3.077  4.0888 -0.6476 -0.2845
  316MOL0     H41712   7.195   2.842   3.098 -2.3365 -3.7993  1.1235
  317MOL0     O41713   1.136   9.109   0.415  0.0646 -0.4455  0.5290
  317MOL0     C41714   1.200   9.206   0.460 -0.3506  1.1504  0.4135
  317MOL0     O41715   1.157   9.291   0.563  0.0477 -0.2954  1.1192
  317MOL0     C41716   1.045   9.269   0.630 -0.2387 -0.4661 -0.1035
  317MOL0     C41717   0.991   9.143   0.654  0.1287 -0.1095  0.1887
  317MOL0     C41718   0.886   9.116   0.741 -0.2996  0.6389 -0.1506
  317MOL0     C41719   0.848   9.220   0.826  0.0512  0.4790 -0.2789
  317MOL0     O41720   0.747   9.187   0.909 -0.2219 -0.3070  0.1944
  317MOL0     C41721   0.743   9.264   1.023 -0.4070 -0.2703 -0.5948
  317MOL0     C41722   0.642   9.193   1.123 -0.0449  0.1754 -0.4338
  317MOL0     C41723   0.518   9.133   1.070  0.1476  0.5151  0.9600
  317MOL0     C41724   0.414   9.114   1.190  0.1155  0.6435  0.1165
  317MOL0     C41725   0.291   9.058   1.128 -0.2338 -0.6458  0.6517
  317MOL0     C41726   0.181   9.059   1.238 -0.0654  0.2311 -0.2555
  317MOL0     C41727   0.045   8.985   1.200 -0.0038 -0.0611  0.0166
  317MOL0     C41728  -0.034   8.956   1.324  0.1661 -0.2309 -0.4070
  317MOL0     N41729  -0.173   8.919   1.299  0.3170 -0.3091 -0.8133
  317MOL0     C41730  -0.218   8.834   1.200  0.1749  0.0459  0.9710
  317MOL0     C41731  -0.354   8.848   1.202 -0.7587 -0.1230 -0.1677
  317MOL0     C41732  -0.430   8.764   1.106  0.5547 -0.3846 -0.3015
  317MOL0     C41733  -0.582   8.784   1.110 -0.1888 -0.0101  0.3563
  317MOL0     C41734  -0.660   8.676   1.035 -0.0377 -1.2478 -0.4249
  317MOL0     C41735  -0.805   8.724   1.023  0.6315 -0.5031  0.3223
  317MOL0     O41736  -0.878   8.629   0.952  0.2468  0.2084  0.5281
  317MOL0     C41737  -1.017   8.640   0.972  0.0120 -0.0674  0.7505
  317MOL0     C41738  -1.082   8.523   0.944  0.5385 -0.1648  0.6872
  317MOL0     C41739  -1.220   8.519   0.954 -0.3846 -1.1581 -0.6482
  317MOL0     C41740  -1.293   8.629   1.005 -1.2244 -0.3136 -0.5499
  317MOL0     C41741  -1.437   8.615   1.029 -0.5260 -0.7612 -0.7723
  317MOL0     O41742  -1.495   8.716   1.108  0.6516  0.1991  0.2436
  317MOL0     C41743  -1.625   8.684   1.152 -0.6353 -0.4313  0.6646
  317MOL0     C41744  -1.654   8.571   1.223  0.5875 -0.4788 -0.3913
  317MOL0     C41745  -1.783   8.559   1.275 -0.5335  1.1375  0.4030
  317MOL0     C41746  -1.875   8.661   1.278  1.5875 -0.0623 -0.1259
  317MOL0     O41747  -1.998   8.644   1.333 -0.3992  0.9652  0.7002
  317MOL0     C41748  -2.002   8.656   1.474  0.2276  0.3352 -0.1729
  317MOL0     C41749  -2.138   8.719   1.516 -0.8869 -0.5636 -0.0401
  317MOL0     C41750  -2.145   8.721   1.668 -0.0706 -0.5009  0.1018
  317MOL0     C41751  -2.298   8.747   1.694  0.0271 -0.5061  0.9082
  317MOL0     C41752  -2.312   8.745   1.851  0.8069 -0.3137  0.8573
  317MOL0     C41753  -2.470   8.746   1.887 -0.2909  0.8361 -0.0257
  317MOL0     C41754  -2.524   8.596   1.907  0.1864  0.2219 -1.1934
  317MOL0     C41755  -2.674   8.592   1.930  0.3291  0.8291  0.1371
  317MOL0    Cl41756  -2.726   8.428   1.946  0.0518  0.2427  0.0348
  317MOL0     C41757  -1.833   8.779   1.215 -0.3892 -0.1236 -0.6494
  317MOL0     C41758  -1.716   8.792   1.150 -0.3337 -0.0088 -0.2268
  317MOL0     O41759  -1.496   8.526   0.965 -0.8420  0.3505  0.1022
  317MOL0     C41760  -1.224   8.753   1.022  0.2209  0.2274  0.0186
  317MOL0     C41761  -1.089   8.759   1.007  0.3015 -0.1779  0.5124
  317MOL0     N41762  -0.391   8.934   1.305  0.3100  0.6452  0.6135
  317MOL0     N41763  -0.285   8.983   1.351 -0.3060  0.2787  0.4674
  317MOL0     C41764   0.899   9.346   0.804  0.8120  0.2493  0.4551
  317MOL0     C41765   0.994   9.376   0.708 -0.5156  0.2575  0.2595
  317MOL0     C41766   1.331   9.237   0.394 -0.1676  0.2947  0.2692
  317MOL0     C41767   1.399   9.350   0.445  0.2983  0.3706  0.3665
  317MOL0     C41768   1.524   9.385   0.391  0.2485 -0.2165 -0.5608
  317MOL0     C41769   1.576   9.307   0.289 -0.1270  0.4902 -0.1678
  317MOL0     O41770   1.691   9.340   0.225  0.2945  0.6036  0.0799
  317MOL0     C41771   1.749   9.471   0.234  0.7285 -0.0342 -0.9247
  317MOL0     C41772   1.873   9.464   0.150 -0.0339  0.1635 -0.4436
  317MOL0     C41773   1.853   9.454   0.001 -0.0109  1.1953 -0.8587
  317MOL0     C41774   1.983   9.452  -0.076  0.2545  0.0389  0.0770
  317MOL0     C41775   2.050   9.574  -0.077  0.0068 -1.5147 -0.6426
  317MOL0     C41776   2.103   9.686  -0.098 -0.2186 -0.4479 -0.5168
  317MOL0     C41777   1.518   9.194   0.240 -0.2639 -0.5948  1.0258
  317MOL0     C41778   1.387   9.168   0.288 -0.5404  0.7097 -0.1400
  317MOL0     H41779   1.030   9.057   0.599 -0.5762  0.1135 -0.6879
  317MOL0     H41780   0.858   9.013   0.760  1.8515 -0.6035 -3.0138
  317MOL0     H41781   0.704   9.365   1.005  1.1757  0.6226  0.7001
  317MOL0     H41782   0.837   9.279   1.077  0.2100 -2.7096 -0.8781
  317MOL0     H41783   0.615   9.268   1.197  1.2997  0.0341  0.2248
  317MOL0     H41784   0.697   9.120   1.184 -2.4470 -1.7793 -0.4871
  317MOL0     H41785   0.544   9.037   1.026  3.0666  1.4377  0.4432
  317MOL0     H41786   0.479   9.197   0.990  1.4461 -1.9957 -1.8916
  317MOL0     H41787   0.451   9.036   1.258 -2.0504 -1.4928 -1.0161
  317MOL0     H41788   0.383   9.206   1.242 -1.6555  0.4210 -0.4705
  317MOL0     H41789   0.309   8.956   1.093  2.9501 -1.2692  3.6227
  317MOL0     H41790   0.253   9.116   1.042  1.0596 -2.3223 -1.1259
  317MOL0     H41791   0.149   9.160   1.266  1.7475  0.4857  1.0338
  317MOL0     H41792   0.210   9.003   1.327  0.7156 -0.4038 -0.9004
  317MOL0     H41793   0.014   9.053   1.120  2.3492  0.9441 -0.1362
  317MOL0     H41794   0.070   8.888   1.155 -1.8573  0.7294 -2.9814
  317MOL0     H41795  -0.028   9.039   1.396  4.0647 -0.9482  0.3610
  317MOL0     H41796   0.018   8.882   1.386  2.2532  1.3826 -0.0991
  317MOL0     H41797  -0.165   8.776   1.126 -1.6072 -1.5032  0.8316
  317MOL0     H41798  -0.404   8.662   1.136  0.3453 -0.0332  1.1303
  317MOL0     H41799  -0.394   8.782   1.004  0.2502  0.6607 -0.2338
  317MOL0     H41800  -0.595   8.885   1.071  0.2110  0.5405  1.5779
  317MOL0     H41801  -0.600   8.775   1.218  2.2091  0.4032  0.8520
  317MOL0     H41802  -0.609   8.666   0.939  2.2697  2.8734  0.1534
  317MOL0     H41803  -0.672   8.586   1.095 -0.9940  0.1874  1.6648
  317MOL0     H41804  -0.807   8.822   0.973  2.4495 -0.5667  0.0556
  317MOL0     H41805  -0.845   8.727   1.124 -2.7153  1.1832 -0.8903
  317MOL0     H41806  -1.017   8.443   0.910  0.3570 -1.0653  2.3215
  317MOL0     H41807  -1.270   8.429   0.918  1.7464 -1.3090 -3.5285
  317MOL0     H41808  -1.590   8.484   1.233 -0.9726 -1.4095  2.4447
  317MOL0     H41809  -1.799   8.457   1.311  0.4349 -0.0261 -2.2201
  317MOL0     H41810  -1.924   8.715   1.522  0.5700 -0.7451  0.6372
  317MOL0     H41811  -1.984   8.551   1.499  0.2838  0.7737  1.7368
  317MOL0     H41812  -2.222   8.663   1.474 -0.9077  0.0607 -0.8801
  317MOL0     H41813  -2.154   8.823   1.484 -1.3727 -1.0374 -1.3920
  317MOL0     H41814  -2.075   8.797   1.704  0.5526 -1.0248  0.0149
  317MOL0     H41815  -2.127   8.628   1.723 -1.8291  0.5053  2.5508
  317MOL0     H41816  -2.339   8.840   1.653  1.1456  0.4745  1.9705
  317MOL0     H41817  -2.349   8.658   1.654  0.5218  0.6750 -2.7334
  317MOL0     H41818  -2.260   8.830   1.896  1.5098 -1.0498  1.4457
  317MOL0     H41819  -2.265   8.653   1.886 -1.1918 -1.3179  1.0836
  317MOL0     H41820  -2.533   8.793   1.811 -0.1226  0.1373 -0.6052
  317MOL0     H41821  -2.469   8.802   1.982  0.8932  2.6500 -1.0444
  317MOL0     H41822  -2.487   8.552   1.813  2.1504 -0.9829  0.0761
  317MOL0     H41823  -2.483   8.540   1.991 -2.1868 -0.8404 -0.6757
  317MOL0     H41824  -2.731   8.638   1.849  0.1134  2.2979  1.0877
  317MOL0     H41825  -2.705   8.650   2.017 -0.8939  1.8815 -0.9518
  317MOL0     H41826  -1.884   8.874   1.229  1.2902  0.8338 -0.6458
  317MOL0     H41827  -1.690   8.891   1.112 -3.2052  0.3449 -1.5792
  317MOL0     H41828  -1.287   8.836   1.050 -2.7048 -2.1183  0.8826
  317MOL0     H41829  -1.033   8.852   1.015  0.4943 -0.1056 -1.2492
  317MOL0     H41830   0.871   9.421   0.877  0.4789 -1.8893  2.6723
  317MOL0     H41831   1.047   9.470   0.700 -1.5095  1.2316  3.5019
  317MOL0     H41832   1.362   9.406   0.531 -1.3813  0.5414 -0.4199
  317MOL0     H41833   1.572   9.478   0.419  1.7435 -1.5772  1.7404
  317MOL0     H41834   1.770   9.508   0.335  1.4985 -2.3659 -0.1642
  317MOL0     H41835   1.676   9.526   0.173 -1.6943 -2.6001 -0.5579
  317MOL0     H41836   1.929   9.558   0.164 -1.8429  0.7504  4.8662
  317MOL0     H41837   1.942   9.386   0.185  1.1086  0.2377 -2.3791
  317MOL0     H41838   1.792   9.540  -0.029  0.9851  2.4250  0.4380
  317MOL0     H41839   1.794   9.369  -0.032  0.9155  0.2111 -0.0445
  317MOL0     H41840   2.058   9.382  -0.040  2.2307  1.3595 -1.2774
  317MOL0     H41841   1.958   9.422  -0.179 -0.1602  0.5060  0.0373
  317MOL0     H41842   2.165   9.773  -0.114  1.9424 -1.8435 -0.1746
  317MOL0     H41843   1.563   9.144   0.155 -0.9747  0.2743  0.1136
  317MOL0     H41844   1.330   9.088   0.242  0.8874  0.0237 -0.7968
  318MOL0     O41845   6.076   4.846   8.023 -0.0878 -0.3809 -0.2756
  318MOL0     C41846   6.107   4.949   7.967  0.3001 -0.2548  0.1043
  318MOL0     O41847   6.021   5.050   7.921 -0.1943 -0.2680  0.1620
  318MOL0     C41848   5.890   5.025   7.905 -0.0820  0.0006  0.0996
  318MOL0     C41849   5.806   5.120   7.967  0.1845  0.3869 -0.1769
  318MOL0     C41850   5.670   5.081   7.998 -1.0744 -0.0452 -0.2344
  318MOL0     C41851   5.619   4.953   7.963  0.2153  0.5064  0.2501
  318MOL0     O41852   5.490   4.914   7.996 -0.0339 -0.0923  0.0859
  318MOL0     C41853   5.379   5.000   7.947  0.2889 -0.1826  0.3190
  318MOL0     C41854   5.246   4.958   8.007  0.3121  0.4465  0.1911
  318MOL0     C41855   5.119   5.040   7.963 -0.5820  0.0123 -0.0406
  318MOL0     C41856   4.984   4.962   7.989 -0.8958 -0.6986  0.5627
  318MOL0     C41857   4.863   5.048   7.960  0.4216 -0.0617  0.4021
  318MOL0     C41858   4.726   4.975   7.958 -0.1543  0.4234 -0.5492
  318MOL0     C41859   4.697   4.912   8.088  0.2931  0.4683 -1.0046
  318MOL0     C41860   4.551   4.928   8.131 -0.6815  0.0235 -0.1049
  318MOL0     N41861   4.466   4.860   8.034 -0.1229  0.9147 -0.8404
  318MOL0     C41862   4.427   4.723   8.048  0.8630 -0.1759 -0.3131
  318MOL0     C41863   4.322   4.717   7.972 -0.8885  0.3732 -0.0311
  318MOL0     C41864   4.241   4.596   7.938  0.3692 -0.0873 -1.0593
  318MOL0     C41865   4.325   4.487   7.870 -0.3199  0.1867  0.0072
  318MOL0     C41866   4.411   4.546   7.750  0.0786 -0.0540 -0.1978
  318MOL0     C41867   4.340   4.621   7.646 -0.4474 -0.4681  0.0946
  318MOL0     O41868   4.234   4.545   7.590  0.2218  0.3119  0.1759
  318MOL0     C41869   4.129   4.618   7.534 -0.9058 -0.8207  0.2366
  318MOL0     C41870   4.055   4.713   7.602  0.5757  0.4376 -0.7592
  318MOL0     C41871   3.961   4.774   7.536 -0.2497 -0.0722  0.5241
  318MOL0     C41872   3.911   4.732   7.412 -0.5847 -0.7838 -0.6081
  318MOL0     C41873   3.810   4.800   7.332  0.6466  0.1361  0.2340
  318MOL0     O41874   3.745   4.724   7.239  0.5899 -0.9000  0.0334
  318MOL0     C41875   3.660   4.796   7.154  0.1014  0.5298  0.8671
  318MOL0     C41876   3.540   4.843   7.203 -0.3812 -0.4302  0.6166
  318MOL0     C41877   3.454   4.921   7.124  0.6833 -0.2999 -0.7035
  318MOL0     C41878   3.476   4.953   6.993  0.2110 -0.4299 -0.1684
  318MOL0     O41879   3.384   5.029   6.926 -0.5280  0.4593  1.3585
  318MOL0     C41880   3.408   5.077   6.795  0.6578 -0.6788  0.3430
  318MOL0     C41881   3.282   5.160   6.756  0.3276 -0.1424  0.4095
  318MOL0     C41882   3.146   5.099   6.789 -0.4289  0.1330 -0.1720
  318MOL0     C41883   3.017   5.182   6.756  0.1781  0.1236  0.6179
  318MOL0     C41884   2.999   5.186   6.596  0.0169  0.0607  0.5747
  318MOL0     C41885   2.952   5.311   6.515  0.7037 -0.2372 -0.0260
  318MOL0     C41886   2.800   5.328   6.531 -0.4914 -0.2803 -0.1374
  318MOL0     C41887   2.757   5.361   6.673  0.0390 -0.7877 -0.0133
  318MOL0    Cl41888   2.592   5.424   6.685  0.7261 -0.1640 -0.0459
  318MOL0     C41889   3.598   4.904   6.942 -0.9507 -0.2756  0.1931
  318MOL0     C41890   3.687   4.823   7.024 -0.2841  0.3625  0.3191
  318MOL0     O41891   3.793   4.919   7.356 -0.6249  0.7091  0.7103
  318MOL0     C41892   3.976   4.625   7.350 -0.0122  0.4268  0.9565
  318MOL0     C41893   4.084   4.564   7.413  0.4827  0.7388  0.5786
  318MOL0     N41894   4.294   4.837   7.918 -0.7707 -0.3755 -0.5169
  318MOL0     N41895   4.382   4.923   7.948  0.2916  0.4386 -0.4873
  318MOL0     C41896   5.704   4.866   7.895 -0.1161  0.7480 -0.1457
  318MOL0     C41897   5.837   4.897   7.865 -0.1208  0.9704 -0.5152
  318MOL0     C41898   6.248   4.988   7.974  0.2312 -0.5007  0.0911
  318MOL0     C41899   6.338   4.914   8.046  0.4535  0.8755  0.4583
  318MOL0     C41900   6.472   4.940   8.029  0.2400  0.6633  0.1911
  318MOL0     C41901   6.515   5.042   7.938  0.4546 -0.6156 -0.7930
  318MOL0     O41902   6.640   5.092   7.929  0.0544  0.0813  0.4886
  318MOL0     C41903   6.750   5.030   8.004  0.2861  0.5138  0.0943
  318MOL0     C41904   6.846   4.981   7.899 -0.6432 -0.2668  0.3749
  318MOL0     C41905   6.947   4.879   7.952  0.2548 -0.0784  0.1609
  318MOL0     C41906   7.030   4.939   8.077  0.1527  0.4312  0.4009
  318MOL0     C41907   7.160   4.889   8.081 -0.2667 -0.6683  0.0941
  318MOL0     C41908   7.278   4.855   8.075  0.2841  0.7299 -0.3551
  318MOL0     C41909   6.419   5.115   7.869 -0.6565 -0.0309 -0.8552
  318MOL0     C41910   6.285   5.082   7.885  0.3471  0.6588 -0.6825
  318MOL0     H41911   5.845   5.207   8.019  0.3284 -0.2220  0.7563
  318MOL0     H41912   5.606   5.149   8.053 -3.3789 -1.8022 -0.6202
  318MOL0     H41913   5.369   4.994   7.839 -2.9760 -0.6002  0.5376
  318MOL0     H41914   5.388   5.102   7.984  0.3791  0.0754 -0.4113
  318MOL0     H41915   5.253   4.976   8.114  0.6179 -0.2441  0.2876
  318MOL0     H41916   5.233   4.851   7.988  1.6242 -0.2730  2.8798
  318MOL0     H41917   5.128   5.076   7.860 -0.8106 -4.4206 -1.8338
  318MOL0     H41918   5.130   5.132   8.021 -0.9493  0.3218 -0.4569
  318MOL0     H41919   4.979   4.893   7.904 -0.5401  0.4406 -0.3996
  318MOL0     H41920   4.982   4.912   8.086 -1.6388  0.9174  1.4170
  318MOL0     H41921   4.875   5.096   7.863 -1.0018 -4.4082 -2.2360
  318MOL0     H41922   4.862   5.121   8.041 -2.2593  1.3205 -0.7447
  318MOL0     H41923   4.728   4.902   7.877 -0.2570  2.6364 -2.6718
  318MOL0     H41924   4.650   5.050   7.935  0.1754  0.2073 -2.4775
  318MOL0     H41925   4.724   4.806   8.083 -4.9841 -1.5900  3.4015
  318MOL0     H41926   4.764   4.961   8.160  0.4178 -1.0997  0.0039
  318MOL0     H41927   4.528   5.034   8.121 -4.3741 -0.6405 -0.2147
  318MOL0     H41928   4.545   4.892   8.234  0.9300  3.6927  1.4470
  318MOL0     H41929   4.464   4.640   8.106  2.8087  1.3528  0.7686
  318MOL0     H41930   4.173   4.624   7.858  1.4730  0.5025 -1.8187
  318MOL0     H41931   4.191   4.564   8.030  0.1041  0.5098 -0.9908
  318MOL0     H41932   4.254   4.416   7.827  1.2040  0.2163 -2.7807
  318MOL0     H41933   4.391   4.446   7.947 -1.0826  2.5261  2.0692
  318MOL0     H41934   4.487   4.616   7.785 -2.2184  2.2513  0.5383
  318MOL0     H41935   4.449   4.449   7.717  0.9863 -0.0529  0.8009
  318MOL0     H41936   4.403   4.645   7.561 -1.8742 -2.5766 -1.6935
  318MOL0     H41937   4.315   4.717   7.691  1.2288 -0.4833  1.1194
  318MOL0     H41938   4.092   4.744   7.699 -2.2618 -3.1631  1.7301
  318MOL0     H41939   3.907   4.860   7.575 -2.8064 -2.2697  2.1759
  318MOL0     H41940   3.508   4.820   7.304  0.0459 -2.6014  0.3032
  318MOL0     H41941   3.356   4.954   7.155  0.3196 -1.0170 -1.0818
  318MOL0     H41942   3.433   4.989   6.734 -0.2061 -1.4334  1.0523
  318MOL0     H41943   3.483   5.156   6.789  1.3523 -1.3572 -0.2415
  318MOL0     H41944   3.286   5.173   6.648 -1.5030 -2.8909 -0.0737
  318MOL0     H41945   3.286   5.261   6.798  1.5592  0.1752 -0.4103
  318MOL0     H41946   3.139   5.076   6.896 -1.0054 -0.5642 -0.3435
  318MOL0     H41947   3.140   5.002   6.737  3.8625 -0.3931 -0.0815
  318MOL0     H41948   2.929   5.133   6.799  1.8261 -2.2000  1.5248
  318MOL0     H41949   3.029   5.284   6.795  0.9242 -0.4062  1.8141
  318MOL0     H41950   2.914   5.119   6.584 -2.1641  2.6731  0.2672
  318MOL0     H41951   3.091   5.146   6.554 -1.7227 -1.6867 -1.8065
  318MOL0     H41952   2.979   5.295   6.411  1.2912  0.5038  0.0064
  318MOL0     H41953   3.014   5.397   6.539  0.5464  0.1158 -0.8567
  318MOL0     H41954   2.764   5.405   6.462 -5.2141 -2.9812 -1.1923
  318MOL0     H41955   2.744   5.242   6.491  0.5417 -0.4800 -1.2351
  318MOL0     H41956   2.818   5.442   6.713 -1.5725  0.1561  0.6193
  318MOL0     H41957   2.761   5.280   6.747  0.6683  1.3457  2.4276
  318MOL0     H41958   3.630   4.940   6.845 -0.0761 -2.1176 -0.2409
  318MOL0     H41959   3.779   4.795   6.974  0.3878  0.5479  1.4137
  318MOL0     H41960   3.938   4.586   7.256 -0.0496  2.6662 -0.0314
  318MOL0     H41961   4.118   4.468   7.377 -2.9171 -0.4069 -0.0040
  318MOL0     H41962   5.671   4.768   7.864  1.1866  0.7318 -1.5497
  318MOL0     H41963   5.894   4.810   7.833 -3.2727 -1.6946  0.5746
  318MOL0     H41964   6.316   4.824   8.103  1.8296  0.9471  1.1609
  318MOL0     H41965   6.538   4.880   8.091 -0.5416  0.7086  1.1009
  318MOL0     H41966   6.718   4.951   8.072  0.9475  1.1271  1.1500
  318MOL0     H41967   6.808   5.109   8.053  0.4507  0.2356  0.3517
  318MOL0     H41968   6.798   4.943   7.808  1.6229 -0.6575 -0.7136
  318MOL0     H41969   6.910   5.063   7.866  0.7137 -1.0798  0.9366
  318MOL0     H41970   7.025   4.856   7.879 -0.2832 -0.2000 -0.3785
  318MOL0     H41971   6.893   4.791   7.988 -2.2480  1.9228  1.7211
  318MOL0     H41972   7.032   5.047   8.056 -0.5055  0.0966 -1.7184
  318MOL0     H41973   6.980   4.915   8.171 -2.6725  0.5072 -0.9601
  318MOL0     H41974   7.375   4.816   8.054 -0.1741  0.1468 -1.4977
  318MOL0     H41975   6.446   5.202   7.811 -1.0624  0.8803  0.2666
  318MOL0     H41976   6.216   5.148   7.833  0.0404  0.7691 -0.1407
  319MOL0     O41977   9.159   0.755   6.968 -0.0151 -0.3545  0.2143
  319MOL0     C41978   9.239   0.663   7.003 -0.4023  0.0904 -0.8717
  319MOL0     O41979   9.218   0.567   7.098 -0.0702 -0.0334 -0.3309
  319MOL0     C41980   9.091   0.548   7.138  0.0904  0.7258  0.7556
  319MOL0     C41981   8.989   0.493   7.054  0.2738 -0.0658 -0.2240
  319MOL0     C41982   8.873   0.437   7.110  0.2295  0.3269 -1.0245
  319MOL0     C41983   8.849   0.448   7.247  0.3412  0.8565 -0.7616
  319MOL0     O41984   8.736   0.414   7.315  1.2807 -0.5702  0.0327
  319MOL0     C41985   8.644   0.327   7.247 -0.2833  0.0689  0.6883
  319MOL0     C41986   8.519   0.306   7.335 -0.5727  1.2763  0.3659
  319MOL0     C41987   8.420   0.423   7.325  0.6079 -0.4937  0.5551
  319MOL0     C41988   8.356   0.449   7.188 -0.3648  0.3964  0.4935
  319MOL0     C41989   8.318   0.601   7.168 -0.9982  0.3094 -0.5944
  319MOL0     C41990   8.195   0.624   7.267 -0.1622  0.2617 -0.0782
  319MOL0     C41991   8.160   0.772   7.290 -0.8815 -0.7803 -0.5123
  319MOL0     C41992   8.076   0.790   7.424  0.5216  0.1145  0.4076
  319MOL0     N41993   8.057   0.933   7.436 -0.1853  0.1545 -0.3147
  319MOL0     C41994   7.943   0.998   7.431  0.4977  0.2193 -0.3775
  319MOL0     C41995   7.974   1.129   7.455  0.2515 -0.2814  0.2048
  319MOL0     C41996   7.866   1.229   7.462  0.1044  0.7531 -1.0450
  319MOL0     C41997   7.816   1.256   7.329  0.7874  0.5813 -0.0629
  319MOL0     C41998   7.711   1.360   7.320  0.2229  0.2922 -0.2117
  319MOL0     C41999   7.654   1.383   7.178  0.1772 -0.0980  0.5525
  319MOL0     O42000   7.538   1.293   7.164 -0.7367  0.3694  0.3804
  319MOL0     C42001   7.420   1.316   7.225 -0.3465 -0.2672 -0.5331
  319MOL0     C42002   7.389   1.427   7.304 -0.0777 -0.1451  0.0480
  319MOL0     C42003   7.265   1.450   7.355  0.7306 -0.5031 -0.1988
  319MOL0     C42004   7.161   1.355   7.343 -0.3306  0.6054 -0.2337
  319MOL0     C42005   7.023   1.391   7.402 -0.5036  0.9077  0.2257
  319MOL0     O42006   6.925   1.290   7.391 -0.3754  0.3574 -0.2597
  319MOL0     C42007   6.794   1.301   7.436  0.2378 -0.7735  0.2891
  319MOL0     C42008   6.699   1.371   7.360  0.1304  0.6212 -0.1147
  319MOL0     C42009   6.570   1.383   7.422 -0.7867 -0.0162  0.4334
  319MOL0     C42010   6.533   1.318   7.538 -0.5596 -0.4873 -0.0789
  319MOL0     O42011   6.409   1.329   7.594  0.2789 -0.0572  0.1128
  319MOL0     C42012   6.378   1.232   7.700  0.4268 -0.3400 -0.0417
  319MOL0     C42013   6.224   1.219   7.720 -0.0928  0.4970  0.0794
  319MOL0     C42014   6.180   1.073   7.756  0.2065 -0.1723  0.6052
  319MOL0     C42015   6.202   1.040   7.903  0.4810 -0.4865  1.0885
  319MOL0     C42016   6.137   0.915   7.957 -0.5413  0.0632 -0.9366
  319MOL0     C42017   6.128   0.924   8.107 -0.0169 -0.6236 -0.3234
  319MOL0     C42018   6.022   0.824   8.149  0.3973  0.2669 -0.6548
  319MOL0     C42019   5.994   0.812   8.302 -0.3691 -0.8713 -0.2006
  319MOL0    Cl42020   6.129   0.720   8.377  0.1841 -0.1716 -0.4717
  319MOL0     C42021   6.637   1.241   7.598  0.1214 -0.5092  0.0008
  319MOL0     C42022   6.760   1.228   7.549  0.2878 -0.8254  0.2574
  319MOL0     O42023   7.007   1.497   7.458  0.0739 -0.5925  0.2244
  319MOL0     C42024   7.195   1.239   7.266  0.6581  0.0491  0.0077
  319MOL0     C42025   7.326   1.221   7.215  0.1085 -0.1049  0.1196
  319MOL0     N42026   8.112   1.140   7.474 -0.5665 -0.4102 -0.2570
  319MOL0     N42027   8.160   1.024   7.455  0.0622  0.1045 -0.3434
  319MOL0     C42028   8.949   0.507   7.321 -0.0951  0.4532 -0.5968
  319MOL0     C42029   9.069   0.561   7.266  1.2172  0.4623 -0.2380
  319MOL0     C42030   9.377   0.679   6.956 -0.1991 -0.5618  0.4066
  319MOL0     C42031   9.445   0.803   6.918 -0.2844  0.7045 -0.0387
  319MOL0     C42032   9.587   0.801   6.907 -0.6064  0.1220  0.5489
  319MOL0     C42033   9.659   0.681   6.892 -0.3407  0.1807 -0.1091
  319MOL0     O42034   9.792   0.668   6.866 -0.0911  0.3288  0.4687
  319MOL0     C42035   9.865   0.795   6.857  0.1380 -0.1885 -0.4768
  319MOL0     C42036  10.011   0.743   6.848  0.1390  0.5058 -0.0437
  319MOL0     C42037  10.096   0.870   6.856 -0.5043 -0.0097  0.7433
  319MOL0     C42038  10.244   0.829   6.850  1.0078 -0.1100 -0.2358
  319MOL0     C42039  10.322   0.948   6.873  0.4481 -0.5011  0.3724
  319MOL0     C42040  10.384   1.048   6.895 -0.4206 -0.7859 -0.5933
  319MOL0     C42041   9.592   0.559   6.920 -0.0615  0.5093 -0.5304
  319MOL0     C42042   9.455   0.559   6.950 -0.7721 -0.6016 -0.2295
  319MOL0     H42043   9.007   0.467   6.950  0.3051 -1.4752  0.1149
  319MOL0     H42044   8.818   0.374   7.041  2.2988  0.7188 -3.1729
  319MOL0     H42045   8.692   0.229   7.248  0.2677  0.2702 -1.3965
  319MOL0     H42046   8.606   0.361   7.150 -2.8733  0.5343  1.7550
  319MOL0     H42047   8.550   0.280   7.436 -1.5475 -1.8093 -0.0217
  319MOL0     H42048   8.479   0.212   7.294  1.6377  0.8918 -1.0538
  319MOL0     H42049   8.472   0.511   7.364 -0.8197 -0.9280  3.8626
  319MOL0     H42050   8.330   0.406   7.385 -1.9408  3.1327 -1.8565
  319MOL0     H42051   8.431   0.426   7.111 -2.2139 -0.8049 -1.0285
  319MOL0     H42052   8.281   0.371   7.172  2.2127 -1.9421 -1.3138
  319MOL0     H42053   8.288   0.627   7.067 -0.0890  0.4506 -0.8309
  319MOL0     H42054   8.399   0.669   7.196 -2.0340  1.2292  0.2997
  319MOL0     H42055   8.217   0.578   7.364 -0.8957  0.8736  0.3841
  319MOL0     H42056   8.110   0.572   7.223  0.2710  1.5604 -2.6077
  319MOL0     H42057   8.251   0.833   7.292  0.0897 -2.1909  0.0414
  319MOL0     H42058   8.107   0.815   7.204  3.3310  0.9090 -2.5657
  319MOL0     H42059   8.137   0.744   7.502  0.8766 -0.9387 -0.4494
  319MOL0     H42060   7.985   0.728   7.427  1.2837 -1.0846 -0.2471
  319MOL0     H42061   7.840   0.966   7.417  0.6155  0.6554 -2.5739
  319MOL0     H42062   7.907   1.319   7.508 -0.0143  2.4062 -3.9796
  319MOL0     H42063   7.794   1.176   7.526  2.2682 -2.6071 -1.1404
  319MOL0     H42064   7.780   1.164   7.283 -1.5326  1.4142 -0.0104
  319MOL0     H42065   7.896   1.298   7.267  0.9539 -1.1677 -1.1098
  319MOL0     H42066   7.633   1.352   7.397  0.7835  0.3147  0.3653
  319MOL0     H42067   7.759   1.454   7.351  2.0762 -1.4510  2.6861
  319MOL0     H42068   7.717   1.334   7.104 -1.2254 -1.0104 -0.0787
  319MOL0     H42069   7.641   1.489   7.156  0.7518 -0.1178  0.1009
  319MOL0     H42070   7.470   1.497   7.322  0.7017 -0.4156 -2.1213
  319MOL0     H42071   7.255   1.536   7.420  1.1055 -2.3363  2.4535
  319MOL0     H42072   6.728   1.409   7.262  0.5838 -0.2481 -0.3303
  319MOL0     H42073   6.498   1.433   7.358  2.1897  0.6394 -2.6777
  319MOL0     H42074   6.414   1.265   7.797  1.8091  0.7274 -0.8839
  319MOL0     H42075   6.433   1.139   7.683  1.0141 -0.1377  0.7564
  319MOL0     H42076   6.193   1.229   7.616 -0.6639 -0.0863  0.1856
  319MOL0     H42077   6.181   1.300   7.779 -1.3359  0.2292 -0.4236
  319MOL0     H42078   6.238   1.004   7.693  0.7715 -0.9601  1.9558
  319MOL0     H42079   6.075   1.060   7.729  1.1684 -1.4600 -3.1933
  319MOL0     H42080   6.308   1.028   7.927  0.8147  0.5698  0.2364
  319MOL0     H42081   6.170   1.137   7.941  0.9880  0.7459 -1.4005
  319MOL0     H42082   6.182   0.819   7.929 -1.0409 -0.1247 -1.1051
  319MOL0     H42083   6.036   0.921   7.917 -1.4981 -0.1644  1.2950
  319MOL0     H42084   6.102   1.024   8.140 -0.7840 -1.0355  0.3537
  319MOL0     H42085   6.231   0.908   8.140  0.5646  2.1989 -0.5601
  319MOL0     H42086   5.924   0.844   8.105 -1.5076 -2.3611  1.9580
  319MOL0     H42087   6.047   0.723   8.116  0.7925  0.3066 -0.4862
  319MOL0     H42088   5.895   0.770   8.322 -0.7478  0.5575  1.1654
  319MOL0     H42089   6.000   0.909   8.352  0.0012  0.2702 -2.3568
  319MOL0     H42090   6.629   1.200   7.698  2.3414 -1.3968 -0.1240
  319MOL0     H42091   6.839   1.164   7.586  1.4943 -0.4855 -1.5785
  319MOL0     H42092   7.123   1.160   7.245  5.0861 -4.2896 -0.6258
  319MOL0     H42093   7.354   1.127   7.169 -1.7876 -0.1692 -1.0157
  319MOL0     H42094   8.930   0.520   7.427  1.6910  2.0641 -0.4206
  319MOL0     H42095   9.147   0.596   7.333  1.4743  1.8458 -1.2124
  319MOL0     H42096   9.392   0.898   6.907 -3.7472 -1.2705 -2.4243
  319MOL0     H42097   9.635   0.898   6.892  2.3076 -1.5668 -2.6473
  319MOL0     H42098   9.852   0.865   6.940  0.9236  2.0368 -2.1241
  319MOL0     H42099   9.836   0.856   6.771 -1.2835 -1.6128 -1.0615
  319MOL0     H42100  10.034   0.675   6.930  2.2220  2.6628  1.3219
  319MOL0     H42101  10.032   0.690   6.754  0.7205 -0.8714  0.8379
  319MOL0     H42102  10.079   0.934   6.943 -1.2286 -2.0702  2.1938
  319MOL0     H42103  10.072   0.927   6.766 -1.2421 -0.6576  0.5074
  319MOL0     H42104  10.270   0.753   6.925  0.0529  0.5514  0.7985
  319MOL0     H42105  10.274   0.788   6.753  1.3521 -1.7659  0.5362
  319MOL0     H42106  10.444   1.136   6.903  0.3273 -1.3121 -0.1978
  319MOL0     H42107   9.643   0.464   6.922  0.6725  0.8953 -0.8276
  319MOL0     H42108   9.411   0.463   6.976 -0.7650 -0.8965 -1.2525
  320MOL0     O42109   3.501   0.232   4.105  0.3053  0.1653 -0.4280
  320MOL0     C42110   3.419   0.213   4.016  0.3744  0.6100  0.1694
  320MOL0     O42111   3.297   0.163   4.034  1.2724 -0.3688  0.0125
  320MOL0     C42112   3.246   0.119   4.157 -0.0369 -0.2149 -0.0879
  320MOL0     C42113   3.304   0.011   4.215  0.0041 -0.4098 -0.0424
  320MOL0     C42114   3.227  -0.062   4.311 -0.5952 -1.2302 -0.1715
  320MOL0     C42115   3.099  -0.020   4.347  0.6088  0.2818 -0.3505
  320MOL0     O42116   3.020  -0.099   4.429  0.4399 -0.2985  0.2760
  320MOL0     C42117   2.979  -0.041   4.555  0.8995  0.4289  0.4589
  320MOL0     C42118   2.823  -0.049   4.555 -0.0621 -0.1702 -0.5649
  320MOL0     C42119   2.757  -0.185   4.516 -0.1673  0.1338  0.6630
  320MOL0     C42120   2.610  -0.159   4.501 -0.7057 -0.7421 -0.2171
  320MOL0     C42121   2.518  -0.269   4.474  0.4136 -1.1002 -0.1719
  320MOL0     C42122   2.508  -0.369   4.581  0.5097  0.4403 -0.5054
  320MOL0     C42123   2.364  -0.424   4.598  0.4045  0.1385 -0.5005
  320MOL0     C42124   2.354  -0.536   4.691 -0.5050 -0.8022  0.2717
  320MOL0     N42125   2.217  -0.578   4.731 -0.6243 -0.0761  0.2814
  320MOL0     C42126   2.137  -0.556   4.845  0.7545  0.6144  0.0013
  320MOL0     C42127   2.014  -0.576   4.809  0.3356  0.4383 -0.7267
  320MOL0     C42128   1.879  -0.549   4.882  0.6122  0.9010  0.3819
  320MOL0     C42129   1.852  -0.404   4.907 -0.4356  0.3586 -0.2039
  320MOL0     C42130   1.919  -0.340   5.028 -0.8700 -0.3321  0.3103
  320MOL0     C42131   1.920  -0.184   5.016 -0.5274 -0.2462 -0.5891
  320MOL0     O42132   2.010  -0.128   5.110 -0.7367  0.9212  0.2775
  320MOL0     C42133   2.142  -0.111   5.081  0.4798  0.8701  0.2171
  320MOL0     C42134   2.215  -0.040   5.176  0.9011  0.3167  0.0575
  320MOL0     C42135   2.349  -0.034   5.152 -0.0600  0.5712 -0.8033
  320MOL0     C42136   2.422  -0.098   5.058 -0.4138  0.2071  0.4266
  320MOL0     C42137   2.571  -0.094   5.055 -0.2040  1.5837  0.6392
  320MOL0     O42138   2.625  -0.025   5.159 -0.3149  1.0953  0.0225
  320MOL0     C42139   2.759  -0.008   5.144  0.1508 -0.1850  0.2215
  320MOL0     C42140   2.841  -0.087   5.226 -1.1627 -0.0091  0.1729
  320MOL0     C42141   2.977  -0.057   5.228 -0.5349 -0.2727 -0.6945
  320MOL0     C42142   3.029   0.041   5.139  0.5499  0.6934  0.1882
  320MOL0     O42143   3.162   0.072   5.115  0.0905  0.2559  0.1005
  320MOL0     C42144   3.267   0.011   5.189  0.3244 -0.0692  0.2440
  320MOL0     C42145   3.403   0.057   5.131 -0.1201 -0.2023  0.2249
  320MOL0     C42146   3.512  -0.005   5.220  0.0979  0.4230  0.4676
  320MOL0     C42147   3.655   0.029   5.173 -1.2829  0.7285  0.0393
  320MOL0     C42148   3.757   0.094   5.270  0.3687  0.0200  0.0546
  320MOL0     C42149   3.905   0.087   5.234 -0.2566 -0.0893  1.4729
  320MOL0     C42150   3.967  -0.054   5.227 -1.1590  0.3273 -0.0903
  320MOL0     C42151   4.124  -0.028   5.205  1.3648 -0.8779  0.6031
  320MOL0    Cl42152   4.192  -0.192   5.211 -0.3703  0.1369  0.0994
  320MOL0     C42153   2.943   0.108   5.052 -0.8379 -0.4209  0.9959
  320MOL0     C42154   2.809   0.083   5.054  0.3516  0.1346  0.0248
  320MOL0     O42155   2.632  -0.147   4.965  0.1755  0.3664  0.4598
  320MOL0     C42156   2.346  -0.163   4.962 -0.3843 -0.3630 -0.6830
  320MOL0     C42157   2.202  -0.167   4.969  0.0335 -0.4505  0.0616
  320MOL0     N42158   2.014  -0.604   4.677 -0.3084 -0.0557 -0.4981
  320MOL0     N42159   2.131  -0.610   4.633  0.1060  0.2960 -0.0608
  320MOL0     C42160   3.031   0.080   4.276 -0.1805  0.2628  0.3409
  320MOL0     C42161   3.111   0.162   4.197 -0.5892 -0.1938 -0.0219
  320MOL0     C42162   3.446   0.291   3.894  0.3516 -0.3342  0.0943
  320MOL0     C42163   3.547   0.391   3.889 -0.8967  0.1361  0.5741
  320MOL0     C42164   3.579   0.459   3.774  0.3516 -0.2873  0.0943
  320MOL0     C42165   3.504   0.445   3.660 -0.0425  0.2071 -0.0915
  320MOL0     O42166   3.538   0.509   3.546 -0.2795  0.5769  0.1021
  320MOL0     C42167   3.458   0.622   3.506 -0.0843  0.5893  0.3141
  320MOL0     C42168   3.346   0.675   3.605  0.6238  0.8888  0.1447
  320MOL0     C42169   3.266   0.789   3.546  0.6688  0.2353  0.5118
  320MOL0     C42170   3.336   0.929   3.542  0.1097  0.0476 -0.4021
  320MOL0     C42171   3.339   0.973   3.678  0.1503  0.2197  0.2280
  320MOL0     C42172   3.319   1.004   3.793 -0.3962  0.0505  0.7252
  320MOL0     C42173   3.407   0.342   3.662  0.8123 -0.1144  0.4989
  320MOL0     C42174   3.372   0.263   3.778 -0.5509  0.4214 -0.2246
  320MOL0     H42175   3.407  -0.018   4.197  0.4237  1.4805 -0.8696
  320MOL0     H42176   3.269  -0.153   4.353 -1.3303 -1.1987  0.6588
  320MOL0     H42177   2.997   0.065   4.576  0.4889  0.4961  0.4800
  320MOL0     H42178   3.015  -0.102   4.639 -1.9251  1.0625  2.2838
  320MOL0     H42179   2.779   0.023   4.486 -0.3997 -0.7296 -0.9375
  320MOL0     H42180   2.807  -0.022   4.660  2.5219 -2.4784  0.5394
  320MOL0     H42181   2.791  -0.253   4.595  2.9855  1.0506  0.2536
  320MOL0     H42182   2.801  -0.211   4.420 -0.4504  3.0639 -0.3653
  320MOL0     H42183   2.586  -0.122   4.601  0.9186 -1.7409  0.5979
  320MOL0     H42184   2.598  -0.086   4.420  1.2205  3.0553  2.6254
  320MOL0     H42185   2.552  -0.311   4.379  2.1350 -0.1115 -0.0263
  320MOL0     H42186   2.417  -0.231   4.455  1.1445  1.0408 -0.0636
  320MOL0     H42187   2.540  -0.320   4.674  0.3983  1.1777 -0.8510
  320MOL0     H42188   2.579  -0.449   4.559  1.8966  1.3182  0.5471
  320MOL0     H42189   2.311  -0.341   4.644  1.0907  0.4157 -0.2050
  320MOL0     H42190   2.325  -0.454   4.500  3.4735 -3.0355 -0.9412
  320MOL0     H42191   2.416  -0.516   4.779 -1.2423 -0.3297  0.6925
  320MOL0     H42192   2.416  -0.612   4.642  0.9110  0.4022  0.1171
  320MOL0     H42193   2.168  -0.520   4.943  0.6483  1.5177 -0.2841
  320MOL0     H42194   1.885  -0.603   4.977  0.4418 -0.2595 -0.2518
  320MOL0     H42195   1.795  -0.601   4.836  0.8095  1.2262 -0.3491
  320MOL0     H42196   1.743  -0.393   4.909 -0.8745 -2.9327  0.2812
  320MOL0     H42197   1.870  -0.344   4.817 -1.6532  1.6986  0.4041
  320MOL0     H42198   1.851  -0.359   5.111  0.8010 -1.1170  1.5638
  320MOL0     H42199   2.017  -0.385   5.048 -1.7610 -1.4810  2.4072
  320MOL0     H42200   1.821  -0.158   5.053 -1.2031 -3.1491 -0.0886
  320MOL0     H42201   1.953  -0.154   4.916  2.3483 -2.3648 -0.4244
  320MOL0     H42202   2.168  -0.009   5.269  2.3493  0.6704  0.7009
  320MOL0     H42203   2.410   0.021   5.224 -0.3043 -1.3512  0.9736
  320MOL0     H42204   2.808  -0.165   5.294 -1.0527 -0.8476 -0.6983
  320MOL0     H42205   3.047  -0.113   5.289 -0.4202 -0.1873 -0.7458
  320MOL0     H42206   3.262  -0.098   5.175 -0.9208  0.3441 -4.2274
  320MOL0     H42207   3.270   0.037   5.295  2.7332 -0.7347  0.4013
  320MOL0     H42208   3.410   0.166   5.136 -2.1792 -0.0213  0.1645
  320MOL0     H42209   3.412   0.022   5.028 -0.1605 -0.7693  0.4094
  320MOL0     H42210   3.495  -0.112   5.228  0.5205  0.0815 -2.2222
  320MOL0     H42211   3.494   0.023   5.324 -2.6997  0.1877  0.1205
  320MOL0     H42212   3.707  -0.063   5.146 -0.1942  1.7013 -1.3265
  320MOL0     H42213   3.666   0.093   5.085 -0.6752  2.6907  1.4692
  320MOL0     H42214   3.751   0.044   5.367 -2.6330  0.3488  0.1178
  320MOL0     H42215   3.738   0.202   5.274  2.7920  0.6090 -2.0096
  320MOL0     H42216   3.959   0.147   5.308  1.0099 -0.1957  0.6638
  320MOL0     H42217   3.912   0.143   5.140  3.0525 -1.7923  0.5372
  320MOL0     H42218   3.946  -0.102   5.323 -0.5552 -1.3460 -0.7578
  320MOL0     H42219   3.936  -0.121   5.146 -0.0939 -2.2759  1.5325
  320MOL0     H42220   4.174   0.026   5.286 -0.8859 -0.4716  1.7814
  320MOL0     H42221   4.125   0.018   5.106 -1.4982 -0.8253  0.5133
  320MOL0     H42222   2.996   0.181   4.991  2.0407 -0.8846  2.7422
  320MOL0     H42223   2.740   0.143   4.995  0.2786  0.0220 -0.0044
  320MOL0     H42224   2.393  -0.218   4.881 -1.0547  0.5886 -1.7401
  320MOL0     H42225   2.147  -0.226   4.897  1.3488  0.4871 -1.7900
  320MOL0     H42226   2.925   0.092   4.293 -0.6958 -2.0174 -0.8262
  320MOL0     H42227   3.052   0.235   4.143  0.0591  0.4565  0.1325
  320MOL0     H42228   3.611   0.420   3.972 -0.4174  1.1235 -0.1118
  320MOL0     H42229   3.646   0.544   3.767 -0.8960  0.7963  0.8727
  320MOL0     H42230   3.411   0.602   3.409 -3.4357 -0.7168  2.0346
  320MOL0     H42231   3.529   0.703   3.486  1.1643 -0.3829  0.6953
  320MOL0     H42232   3.275   0.600   3.639 -0.6498  2.2883  0.6419
  320MOL0     H42233   3.388   0.720   3.695 -2.7710  0.5504  2.0515
  320MOL0     H42234   3.173   0.796   3.603  1.1807  0.0571  1.3748
  320MOL0     H42235   3.243   0.766   3.441 -0.8128  2.9112  0.1381
  320MOL0     H42236   3.440   0.916   3.508  0.4192  2.8674 -0.7720
  320MOL0     H42237   3.285   1.005   3.482 -0.4380  0.8856  1.0824
  320MOL0     H42238   3.301   1.011   3.899 -0.7603 -1.3473  0.7750
  320MOL0     H42239   3.352   0.324   3.570 -1.6905 -0.8885  2.0399
  320MOL0     H42240   3.296   0.186   3.774  0.4607 -0.7543  1.6624
  321MOL0     O42241   5.606   6.560   8.048 -0.5117 -0.3986  0.0253
  321MOL0     C42242   5.551   6.462   7.988 -0.5382 -0.0436 -1.7817
  321MOL0     O42243   5.609   6.401   7.876 -0.0594  0.1405  0.1163
  321MOL0     C42244   5.725   6.452   7.823  0.1204  0.0245 -0.1888
  321MOL0     C42245   5.741   6.586   7.795 -1.1101  1.1453  0.4411
  321MOL0     C42246   5.874   6.630   7.774 -0.0940 -0.2521  0.5104
  321MOL0     C42247   5.984   6.537   7.749 -0.4149  0.2900  0.8117
  321MOL0     O42248   6.111   6.576   7.706  0.6875 -0.2353 -0.8355
  321MOL0     C42249   6.147   6.713   7.728 -0.4176 -0.9566  0.3784
  321MOL0     C42250   6.292   6.742   7.688 -0.1090 -0.8702  0.2222
  321MOL0     C42251   6.387   6.673   7.777 -0.0290  0.3425 -0.1844
  321MOL0     C42252   6.532   6.696   7.725  0.4557  0.7246 -0.0743
  321MOL0     C42253   6.648   6.670   7.827  0.7768  0.3526  0.1116
  321MOL0     C42254   6.644   6.762   7.951  0.6594  0.5455  0.4054
  321MOL0     C42255   6.753   6.707   8.039  0.9867  0.6234  0.7123
  321MOL0     C42256   6.792   6.797   8.150 -0.3230  0.5272 -0.0102
  321MOL0     N42257   6.680   6.835   8.234 -0.3856 -0.0239 -0.4058
  321MOL0     C42258   6.620   6.749   8.327 -0.1608 -0.1897 -0.0551
  321MOL0     C42259   6.496   6.798   8.353  1.4855  0.0153 -0.5468
  321MOL0     C42260   6.390   6.720   8.429  0.1506 -0.1636  0.0284
  321MOL0     C42261   6.315   6.621   8.338  0.3500 -0.7175  0.4008
  321MOL0     C42262   6.195   6.681   8.259  0.4684  0.4013  0.2227
  321MOL0     C42263   6.220   6.797   8.165  0.3891 -0.1659 -0.4783
  321MOL0     O42264   6.097   6.804   8.083 -0.0536 -0.5388 -0.2293
  321MOL0     C42265   5.987   6.876   8.127 -0.2696  0.5423  0.7801
  321MOL0     C42266   5.992   7.008   8.169 -0.6729  0.3784 -0.0369
  321MOL0     C42267   5.880   7.084   8.198 -0.0248  0.5892 -0.1946
  321MOL0     C42268   5.750   7.039   8.165 -1.2079 -0.2417  0.0074
  321MOL0     C42269   5.627   7.111   8.181 -0.2009 -0.0906  0.6504
  321MOL0     O42270   5.517   7.037   8.183  0.6308 -0.3113  0.3881
  321MOL0     C42271   5.401   7.106   8.227 -0.2768  0.4695 -0.6305
  321MOL0     C42272   5.391   7.164   8.357  0.8974 -0.2496  0.0704
  321MOL0     C42273   5.270   7.216   8.398 -0.5547 -0.0663 -0.3472
  321MOL0     C42274   5.153   7.202   8.318 -0.5621  0.8218  0.1159
  321MOL0     O42275   5.040   7.252   8.367 -0.3100  0.1954 -0.6664
  321MOL0     C42276   4.956   7.152   8.414  0.3192  0.3388  0.3692
  321MOL0     C42277   4.818   7.209   8.444 -0.8892  0.0889 -0.0388
  321MOL0     C42278   4.713   7.095   8.482  0.9499  0.4024  0.4399
  321MOL0     C42279   4.573   7.167   8.522  1.0713  0.1042 -0.4371
  321MOL0     C42280   4.441   7.088   8.522 -0.4908 -0.5186  0.7114
  321MOL0     C42281   4.451   6.948   8.590  1.0318 -0.0431 -1.6750
  321MOL0     C42282   4.327   6.857   8.591  0.8723  1.2359 -0.2042
  321MOL0     C42283   4.275   6.822   8.450  0.4782 -0.0074 -0.7084
  321MOL0    Cl42284   4.388   6.713   8.355 -0.3060 -0.0846 -0.2090
  321MOL0     C42285   5.157   7.147   8.195 -0.4194 -0.4652  0.1484
  321MOL0     C42286   5.280   7.097   8.151 -1.0054 -0.5765  0.0886
  321MOL0     O42287   5.629   7.237   8.179 -0.0719 -0.1544 -0.3019
  321MOL0     C42288   5.743   6.901   8.124 -0.9947 -0.2659  0.0180
  321MOL0     C42289   5.862   6.829   8.107  0.6619  0.3335  0.0394
  321MOL0     N42290   6.485   6.917   8.287  0.3719  0.3007  0.6739
  321MOL0     N42291   6.591   6.936   8.215  0.3826 -1.0501 -0.0955
  321MOL0     C42292   5.950   6.402   7.763 -0.9991  0.0096 -0.7059
  321MOL0     C42293   5.829   6.355   7.803 -0.1645 -0.3180 -0.1853
  321MOL0     C42294   5.414   6.426   8.039 -0.0325 -0.2893  0.2838
  321MOL0     C42295   5.361   6.470   8.156  0.0574 -0.1625 -0.4338
  321MOL0     C42296   5.237   6.427   8.200 -0.3267 -0.7626 -0.0116
  321MOL0     C42297   5.161   6.339   8.126 -0.0917 -0.4027  0.0656
  321MOL0     O42298   5.040   6.302   8.173 -0.9409 -0.0997 -0.1218
  321MOL0     C42299   4.964   6.195   8.125  0.2730 -1.0051  0.2540
  321MOL0     C42300   4.831   6.201   8.200 -0.2617 -0.2418  0.1096
  321MOL0     C42301   4.733   6.315   8.168  0.4072 -0.5050  0.2601
  321MOL0     C42302   4.708   6.335   8.016  0.3297 -0.8708 -0.1936
  321MOL0     C42303   4.622   6.453   7.990 -0.8763  0.5605  0.6772
  321MOL0     C42304   4.547   6.549   7.980 -0.0099  0.6420  0.2577
  321MOL0     C42305   5.210   6.295   8.003  1.1673 -0.1199 -0.5381
  321MOL0     C42306   5.339   6.343   7.961 -0.1085  0.4908 -0.1931
  321MOL0     H42307   5.659   6.647   7.831 -1.3062  1.2046 -0.1043
  321MOL0     H42308   5.882   6.737   7.758 -0.9008 -0.6104 -2.8710
  321MOL0     H42309   6.135   6.736   7.834 -0.0038 -1.8601  0.6288
  321MOL0     H42310   6.080   6.787   7.683 -1.6351 -3.1583 -1.6473
  321MOL0     H42311   6.312   6.849   7.691 -2.4609 -0.3896  0.1256
  321MOL0     H42312   6.313   6.703   7.587 -0.1202  1.5746 -0.7853
  321MOL0     H42313   6.367   6.567   7.797 -0.3304 -0.1996 -2.9991
  321MOL0     H42314   6.376   6.731   7.869 -0.5396 -1.9479  1.2806
  321MOL0     H42315   6.549   6.623   7.645 -0.3671  2.0043 -1.4643
  321MOL0     H42316   6.548   6.796   7.685  0.7008  0.4405 -0.6958
  321MOL0     H42317   6.740   6.684   7.770  0.0252 -1.3532 -1.6339
  321MOL0     H42318   6.642   6.562   7.845 -0.2477  0.5740  1.2324
  321MOL0     H42319   6.548   6.760   8.004  1.1504  3.3649  1.5946
  321MOL0     H42320   6.670   6.862   7.916  0.9774 -0.2928 -1.9293
  321MOL0     H42321   6.727   6.613   8.087 -0.3307  0.3545 -0.4463
  321MOL0     H42322   6.832   6.698   7.964 -2.6308 -0.0651 -3.3773
  321MOL0     H42323   6.834   6.887   8.105  0.6647  1.1213  1.9466
  321MOL0     H42324   6.869   6.741   8.204 -1.5620 -1.9701 -0.6788
  321MOL0     H42325   6.661   6.653   8.356  1.8608  0.6736  0.1423
  321MOL0     H42326   6.320   6.794   8.467 -1.7481 -1.0089 -1.6058
  321MOL0     H42327   6.444   6.666   8.507  0.1935  0.9274  0.7684
  321MOL0     H42328   6.290   6.532   8.397  2.0910 -3.3963 -2.5714
  321MOL0     H42329   6.376   6.587   8.254 -2.3140  0.3869 -2.1315
  321MOL0     H42330   6.154   6.600   8.198 -0.6746 -0.5787  2.1907
  321MOL0     H42331   6.122   6.692   8.340  0.4522  2.0099  0.0050
  321MOL0     H42332   6.305   6.783   8.098 -0.0921  0.9341 -1.3694
  321MOL0     H42333   6.236   6.893   8.215 -2.9872  0.5108 -0.4256
  321MOL0     H42334   6.086   7.055   8.196 -0.2151  0.2983 -1.4206
  321MOL0     H42335   5.876   7.188   8.227  1.6924  0.2084  1.5684
  321MOL0     H42336   5.484   7.175   8.412  2.0925  0.3595 -2.0026
  321MOL0     H42337   5.253   7.259   8.496 -0.9015 -2.3968  0.6803
  321MOL0     H42338   4.998   7.106   8.504  0.5497  0.6461  0.4213
  321MOL0     H42339   4.949   7.078   8.335  2.9091 -2.1686  2.2919
  321MOL0     H42340   4.787   7.269   8.358  0.6279  4.1570  1.9678
  321MOL0     H42341   4.826   7.272   8.532  0.4646 -0.8744  0.5716
  321MOL0     H42342   4.738   7.032   8.568 -2.9974  0.3725  1.7810
  321MOL0     H42343   4.686   7.033   8.396 -2.0827 -0.8798  2.1263
  321MOL0     H42344   4.587   7.202   8.625 -2.1530  1.8985 -0.4907
  321MOL0     H42345   4.560   7.261   8.467  0.5990 -0.5617 -1.4918
  321MOL0     H42346   4.404   7.085   8.419 -0.4549  2.1244  0.5636
  321MOL0     H42347   4.366   7.153   8.568 -0.1878 -0.7718  1.5820
  321MOL0     H42348   4.483   6.967   8.693 -3.6774 -1.9109  0.4423
  321MOL0     H42349   4.531   6.885   8.551 -1.0568 -3.3422 -1.0820
  321MOL0     H42350   4.341   6.766   8.650 -0.5528 -0.0492 -1.7263
  321MOL0     H42351   4.247   6.911   8.643  2.4149  3.4228  0.0027
  321MOL0     H42352   4.245   6.909   8.391 -0.6216  1.2397  1.5813
  321MOL0     H42353   4.184   6.769   8.480  1.3340  0.6702  3.7322
  321MOL0     H42354   5.084   7.144   8.115 -0.1354 -1.1058 -0.0912
  321MOL0     H42355   5.286   7.055   8.050  2.6086 -0.1849 -0.0201
  321MOL0     H42356   5.648   6.854   8.101 -1.8080  1.6761 -0.8032
  321MOL0     H42357   5.849   6.724   8.081 -0.2489  0.5352 -0.3535
  321MOL0     H42358   6.031   6.333   7.742 -1.3879 -0.7170  0.1405
  321MOL0     H42359   5.800   6.255   7.835  1.0035 -1.6479 -2.9774
  321MOL0     H42360   5.429   6.517   8.226 -0.3737 -0.2708  0.0681
  321MOL0     H42361   5.200   6.471   8.292 -4.1112  3.1225 -2.9797
  321MOL0     H42362   5.009   6.095   8.129  0.7656 -0.7994 -0.0371
  321MOL0     H42363   4.944   6.221   8.020  0.1328  0.1692  0.5623
  321MOL0     H42364   4.775   6.109   8.183 -1.2381  0.2910  0.3782
  321MOL0     H42365   4.863   6.210   8.304  1.8536 -1.0659 -0.4229
  321MOL0     H42366   4.773   6.406   8.212 -1.5378  0.4925  0.0549
  321MOL0     H42367   4.637   6.304   8.218 -0.6891  1.1978 -1.3704
  321MOL0     H42368   4.803   6.351   7.964 -0.9575  1.6004 -2.0465
  321MOL0     H42369   4.656   6.248   7.974 -0.7021 -0.9907  1.2732
  321MOL0     H42370   4.477   6.631   7.975  0.2506  0.8832  0.5233
  321MOL0     H42371   5.177   6.220   7.931  2.6542 -4.2383  2.7146
  321MOL0     H42372   5.377   6.297   7.869 -2.4982  1.0902 -1.5601
  322MOL0     O42373  10.873   3.441   2.453 -0.0740 -0.2441  1.3088
  322MOL0     C42374  10.980   3.390   2.416 -0.2732  0.4028  0.1713
  322MOL0     O42375  11.034   3.279   2.465  0.1155  0.7835 -0.0160
  322MOL0     C42376  10.971   3.213   2.569  0.2491 -0.5356  0.4122
  322MOL0     C42377  10.928   3.263   2.692 -0.4807 -0.3502  0.3306
  322MOL0     C42378  10.864   3.174   2.783  0.5309 -0.1707 -0.4457
  322MOL0     C42379  10.845   3.040   2.766 -0.8222  0.9631  0.9966
  322MOL0     O42380  10.796   2.961   2.864  0.1704 -0.5187 -0.5502
  322MOL0     C42381  10.714   2.856   2.822 -0.6246 -0.1812 -0.3612
  322MOL0     C42382  10.613   2.818   2.940  0.5670 -0.4898  0.1811
  322MOL0     C42383  10.488   2.745   2.882 -0.1373 -0.2098 -0.8546
  322MOL0     C42384  10.383   2.702   2.985 -0.3210 -0.0836  0.4065
  322MOL0     C42385  10.284   2.614   2.917  0.6503  0.1377 -0.5243
  322MOL0     C42386  10.324   2.463   2.906 -0.4255  0.3181 -0.0216
  322MOL0     C42387  10.253   2.380   2.809  0.4575 -0.2689  0.7155
  322MOL0     C42388  10.099   2.381   2.854 -0.7495  0.6092  0.2673
  322MOL0     N42389  10.016   2.269   2.796 -1.0007 -0.1834 -0.1198
  322MOL0     C42390  10.065   2.191   2.689  0.0522 -0.2987 -0.1659
  322MOL0     C42391   9.956   2.115   2.655 -0.0179  0.5442  0.8072
  322MOL0     C42392   9.956   2.006   2.543 -0.3378 -0.2951 -1.1689
  322MOL0     C42393   9.896   2.060   2.422 -0.4473 -0.6414  0.7683
  322MOL0     C42394   9.742   2.064   2.433 -0.3375 -0.2011 -0.3014
  322MOL0     C42395   9.677   1.965   2.535 -0.6964 -0.0277 -1.3502
  322MOL0     O42396   9.541   1.996   2.527  0.2182 -0.4766 -0.1359
  322MOL0     C42397   9.464   1.941   2.627 -0.2779 -0.5276  0.1692
  322MOL0     C42398   9.381   2.017   2.712  0.1638 -0.4079  1.2875
  322MOL0     C42399   9.306   1.969   2.818  0.3918  1.7419  0.1520
  322MOL0     C42400   9.315   1.830   2.855 -0.2595  0.3761  0.6715
  322MOL0     C42401   9.236   1.770   2.969 -0.3186  0.1998 -0.0390
  322MOL0     O42402   9.177   1.865   3.049  0.6278 -0.0637  0.0315
  322MOL0     C42403   9.059   1.843   3.123  0.1448 -0.4782 -0.1114
  322MOL0     C42404   8.979   1.723   3.106  0.0488 -0.0281 -0.2131
  322MOL0     C42405   8.856   1.703   3.179 -0.2394 -0.5485  0.1193
  322MOL0     C42406   8.799   1.798   3.259 -0.7909 -0.5167  0.2263
  322MOL0     O42407   8.679   1.778   3.312 -0.0466  0.5963 -0.2483
  322MOL0     C42408   8.629   1.878   3.402  0.5622 -0.2587 -0.2401
  322MOL0     C42409   8.484   1.856   3.427 -0.6316 -1.1139 -0.7045
  322MOL0     C42410   8.419   1.847   3.289 -0.8766 -0.9271  0.3550
  322MOL0     C42411   8.266   1.846   3.292  0.1360  0.0709 -0.5045
  322MOL0     C42412   8.212   1.843   3.154  0.0666 -0.4056 -0.0954
  322MOL0     C42413   8.190   1.702   3.098 -0.5636 -0.0118 -0.6312
  322MOL0     C42414   8.135   1.708   2.952 -0.5204  0.1167  0.1725
  322MOL0     C42415   8.102   1.563   2.906  0.4482 -0.1247  0.0596
  322MOL0    Cl42416   8.252   1.467   2.868  0.1694 -0.5243  0.0755
  322MOL0     C42417   8.894   1.907   3.293  0.6410  0.0188  0.9334
  322MOL0     C42418   9.020   1.928   3.224  0.4142 -0.8946  0.4163
  322MOL0     O42419   9.246   1.650   2.985  0.0401  0.4689  0.1111
  322MOL0     C42420   9.396   1.755   2.770 -0.1708  0.0509  0.2799
  322MOL0     C42421   9.467   1.806   2.663  0.4503 -1.1792 -0.1641
  322MOL0     N42422   9.863   2.145   2.752  0.6544  0.2732 -0.1053
  322MOL0     N42423   9.887   2.249   2.827  0.3023  0.1418  0.9481
  322MOL0     C42424  10.905   2.986   2.653 -0.5895  0.5926  0.3902
  322MOL0     C42425  10.962   3.080   2.561  1.1225  0.4671  0.1847
  322MOL0     C42426  11.062   3.458   2.317  0.3725 -0.4556  0.7460
  322MOL0     C42427  11.191   3.413   2.288  0.1058 -1.3348  0.3048
  322MOL0     C42428  11.269   3.472   2.185 -0.9274 -0.0050  0.0625
  322MOL0     C42429  11.223   3.581   2.115 -0.3445 -0.7762 -0.2740
  322MOL0     O42430  11.310   3.633   2.023 -0.0812 -0.3218  0.1564
  322MOL0     C42431  11.273   3.753   1.957 -0.0291 -0.3764  0.8093
  322MOL0     C42432  11.391   3.820   1.885 -0.0898 -0.3386 -0.0797
  322MOL0     C42433  11.526   3.784   1.962 -0.4201 -0.1029 -0.2330
  322MOL0     C42434  11.645   3.857   1.912 -1.0443  0.2215 -0.4564
  322MOL0     C42435  11.652   3.999   1.941 -0.3452 -0.3515 -0.4198
  322MOL0     C42436  11.661   4.123   1.950 -0.5499 -0.0697 -0.3776
  322MOL0     C42437  11.091   3.627   2.135 -0.0833  0.5291 -0.4955
  322MOL0     C42438  11.012   3.563   2.239  0.7985  0.2869  0.7718
  322MOL0     H42439  10.938   3.369   2.716 -1.3222  0.1150 -1.2197
  322MOL0     H42440  10.825   3.211   2.878  3.1711 -2.4144  1.6874
  322MOL0     H42441  10.771   2.768   2.790 -1.0042 -0.9236  0.9398
  322MOL0     H42442  10.644   2.896   2.749 -0.2439  2.4782  0.6139
  322MOL0     H42443  10.579   2.906   2.996  2.1688 -0.2434  0.8151
  322MOL0     H42444  10.661   2.747   3.009  0.3627 -2.2342 -1.4056
  322MOL0     H42445  10.517   2.672   2.806 -0.7265 -0.5830 -0.7309
  322MOL0     H42446  10.443   2.828   2.827  0.1126  0.6251  0.1586
  322MOL0     H42447  10.427   2.644   3.066  2.6501  4.8828  2.8732
  322MOL0     H42448  10.344   2.786   3.043 -0.5568 -0.2721  0.5237
  322MOL0     H42449  10.251   2.657   2.822 -0.7849  1.0859  0.3591
  322MOL0     H42450  10.198   2.600   2.982 -0.8982 -0.3961 -2.5716
  322MOL0     H42451  10.311   2.411   3.002  0.6603 -1.8171 -0.9799
  322MOL0     H42452  10.431   2.462   2.886 -0.0085  2.9074  1.6288
  322MOL0     H42453  10.277   2.415   2.708  1.6778  0.9924  1.4131
  322MOL0     H42454  10.299   2.281   2.817 -1.5005 -1.4711 -1.5903
  322MOL0     H42455  10.057   2.479   2.830  0.5300  1.3788  1.0014
  322MOL0     H42456  10.109   2.367   2.962 -1.0444 -0.8801  0.1219
  322MOL0     H42457  10.163   2.193   2.642  0.5555 -1.2870  0.7973
  322MOL0     H42458   9.896   1.919   2.573 -2.7344  1.7535  0.4482
  322MOL0     H42459  10.059   1.971   2.539 -0.4143 -0.8334  0.5925
  322MOL0     H42460   9.925   1.999   2.336  0.7311  1.4983 -0.4494
  322MOL0     H42461   9.931   2.157   2.385 -2.2479 -0.4460 -0.5150
  322MOL0     H42462   9.718   2.164   2.470 -0.2622  1.0166 -3.3195
  322MOL0     H42463   9.685   2.063   2.340 -3.0736  2.5055  1.1334
  322MOL0     H42464   9.704   1.977   2.640 -0.1428 -0.9114 -1.3894
  322MOL0     H42465   9.703   1.862   2.509  1.6423  0.2182 -0.2178
  322MOL0     H42466   9.371   2.125   2.700 -2.2982 -0.3759  2.9752
  322MOL0     H42467   9.256   2.043   2.880 -1.9373  1.2623 -1.0603
  322MOL0     H42468   9.015   1.637   3.051 -0.0512 -1.6035  2.0571
  322MOL0     H42469   8.804   1.609   3.171  1.2494 -1.3592 -0.5522
  322MOL0     H42470   8.652   1.980   3.372  1.6038  0.5038  2.8486
  322MOL0     H42471   8.694   1.866   3.489 -0.2868  2.3999  0.8329
  322MOL0     H42472   8.449   1.950   3.473  1.3121 -0.9197  0.5180
  322MOL0     H42473   8.469   1.771   3.494  0.7510 -0.1177  0.9818
  322MOL0     H42474   8.447   1.754   3.239 -0.6684  0.1983 -1.7029
  322MOL0     H42475   8.454   1.931   3.229 -2.2053  1.1231  2.2579
  322MOL0     H42476   8.224   1.757   3.340  2.2883 -0.0281  1.3941
  322MOL0     H42477   8.241   1.936   3.348  0.0086 -1.7398  2.5347
  322MOL0     H42478   8.277   1.890   3.079  0.4519  0.3645  0.7071
  322MOL0     H42479   8.122   1.905   3.153 -0.0254 -0.4977 -1.9160
  322MOL0     H42480   8.119   1.659   3.170 -1.1226  2.9388  0.7225
  322MOL0     H42481   8.283   1.646   3.105 -1.8225 -2.0045  1.6514
  322MOL0     H42482   8.047   1.774   2.945 -0.9829 -0.3586  1.3234
  322MOL0     H42483   8.218   1.746   2.892  1.5219  0.8057  3.2303
  322MOL0     H42484   8.029   1.565   2.825 -0.5894 -1.9979  0.8758
  322MOL0     H42485   8.049   1.510   2.986  1.9316  0.9672  1.8403
  322MOL0     H42486   8.879   1.991   3.360  3.9113  1.0452  0.5774
  322MOL0     H42487   9.081   2.016   3.240 -0.2367 -0.7905  2.7937
  322MOL0     H42488   9.387   1.649   2.788 -3.4755  0.2032  0.1765
  322MOL0     H42489   9.524   1.732   2.608  0.3138 -1.5546  0.1914
  322MOL0     H42490  10.897   2.879   2.631 -2.2031  0.6975  0.3190
  322MOL0     H42491  11.016   3.035   2.478 -2.3330 -2.4231 -0.7496
  322MOL0     H42492  11.228   3.333   2.352 -3.6231 -3.4811  0.0577
  322MOL0     H42493  11.366   3.431   2.161 -0.0240  0.8047  2.0564
  322MOL0     H42494  11.232   3.820   2.033  0.2524 -1.9542  2.4307
  322MOL0     H42495  11.202   3.724   1.878  0.0282 -2.1606  1.3776
  322MOL0     H42496  11.395   3.759   1.794  3.2196 -0.2261 -0.1614
  322MOL0     H42497  11.369   3.927   1.877  0.4806 -0.3214 -2.1360
  322MOL0     H42498  11.552   3.681   1.939  1.9904  0.0402  1.4957
  322MOL0     H42499  11.515   3.783   2.071  0.6383 -0.7551 -0.1249
  322MOL0     H42500  11.733   3.805   1.952  0.4687  1.0025 -2.5620
  322MOL0     H42501  11.658   3.860   1.804  1.9538  0.4906 -0.1719
  322MOL0     H42502  11.682   4.227   1.941  0.7281 -0.4756 -2.7656
  322MOL0     H42503  11.040   3.704   2.079 -2.7168 -1.5424 -1.1014
  322MOL0     H42504  10.907   3.577   2.258  0.2376 -1.2050 -0.8819
  323MOL0     O42505   6.621   5.303   6.335 -0.5605 -0.0924 -0.1104
  323MOL0     C42506   6.677   5.374   6.255 -0.9087 -0.0804 -0.4167
  323MOL0     O42507   6.660   5.512   6.239  0.5123 -0.1854 -0.3423
  323MOL0     C42508   6.537   5.560   6.290  0.4798  0.2467  0.0752
  323MOL0     C42509   6.537   5.664   6.386  0.0156  0.4536 -0.0103
  323MOL0     C42510   6.410   5.712   6.425 -0.1060  0.5241 -0.9376
  323MOL0     C42511   6.285   5.660   6.387 -0.3957  0.2463 -0.4480
  323MOL0     O42512   6.176   5.722   6.438  0.1441 -0.2412 -0.0022
  323MOL0     C42513   6.049   5.679   6.401 -0.2458  0.1217  0.2511
  323MOL0     C42514   5.936   5.771   6.464 -0.2859 -0.3748  0.0787
  323MOL0     C42515   5.954   5.919   6.423 -0.6420  0.6836  0.1300
  323MOL0     C42516   5.844   6.000   6.480  0.0622 -0.4344  0.2262
  323MOL0     C42517   5.866   6.146   6.451 -0.4037  0.3625  0.3014
  323MOL0     C42518   5.764   6.247   6.499 -0.4887 -0.9971 -0.1791
  323MOL0     C42519   5.631   6.251   6.425 -0.5766  0.5629  0.3542
  323MOL0     C42520   5.543   6.362   6.487  0.7596  1.1154  0.0879
  323MOL0     N42521   5.404   6.350   6.444 -0.4747 -0.0457 -0.2344
  323MOL0     C42522   5.338   6.441   6.363 -0.0630 -0.4982 -1.6884
  323MOL0     C42523   5.215   6.397   6.368 -0.3881 -0.2904  0.9587
  323MOL0     C42524   5.091   6.455   6.310 -0.1538 -0.3890 -0.1718
  323MOL0     C42525   5.099   6.609   6.329 -0.0814 -0.4089  0.3243
  323MOL0     C42526   4.975   6.683   6.267  0.5458  0.3347  0.1504
  323MOL0     C42527   4.941   6.812   6.340 -0.0745 -0.6285  0.5960
  323MOL0     O42528   4.837   6.803   6.442  0.6702 -0.7260  0.5474
  323MOL0     C42529   4.707   6.788   6.396  0.3140  0.3461  0.1759
  323MOL0     C42530   4.637   6.674   6.434 -0.4703  0.8760 -0.6016
  323MOL0     C42531   4.497   6.663   6.401 -1.7204  0.3656 -0.0984
  323MOL0     C42532   4.442   6.755   6.313  0.2566 -0.6143  0.3460
  323MOL0     C42533   4.305   6.735   6.268 -0.5173  0.3650  0.1568
  323MOL0     O42534   4.247   6.618   6.286  0.0148  0.3089 -0.6188
  323MOL0     C42535   4.122   6.597   6.232 -0.0852 -0.0666 -0.6748
  323MOL0     C42536   4.023   6.539   6.318  0.1292 -0.7157  0.5251
  323MOL0     C42537   3.888   6.539   6.279 -0.4478 -0.4036 -0.6097
  323MOL0     C42538   3.849   6.584   6.155 -0.2294  0.0706  0.1733
  323MOL0     O42539   3.717   6.592   6.109 -0.0612 -0.4532 -1.3992
  323MOL0     C42540   3.618   6.570   6.210  0.2084 -0.9423 -0.0509
  323MOL0     C42541   3.496   6.611   6.130 -1.0360 -0.1127 -0.4754
  323MOL0     C42542   3.374   6.585   6.205  0.2160 -0.7893 -0.4551
  323MOL0     C42543   3.250   6.635   6.126  0.7208 -0.1560  0.2689
  323MOL0     C42544   3.123   6.648   6.214 -0.7193  1.3351 -0.3609
  323MOL0     C42545   3.021   6.704   6.126  0.2962  0.3510 -1.0755
  323MOL0     C42546   2.878   6.717   6.194 -0.0951  0.0917 -0.0996
  323MOL0     C42547   2.783   6.600   6.154 -0.0496 -0.4021  0.3780
  323MOL0    Cl42548   2.620   6.632   6.215 -0.5061 -0.2037 -0.0875
  323MOL0     C42549   3.957   6.633   6.069 -0.3328 -0.4324  0.0452
  323MOL0     C42550   4.085   6.633   6.109 -0.2159 -0.2161  0.2060
  323MOL0     O42551   4.241   6.838   6.232 -0.5244  0.3899  0.7501
  323MOL0     C42552   4.517   6.859   6.273 -0.0876  0.0703  0.4131
  323MOL0     C42553   4.643   6.877   6.321 -0.8518  0.0392 -0.1729
  323MOL0     N42554   5.204   6.296   6.455  0.2314 -0.4646 -0.0244
  323MOL0     N42555   5.320   6.270   6.509  1.0593 -0.9791 -0.4538
  323MOL0     C42556   6.288   5.565   6.282 -0.5198  0.3546  0.5272
  323MOL0     C42557   6.412   5.511   6.234 -0.0466 -0.1419  0.6630
  323MOL0     C42558   6.780   5.308   6.166 -0.0359  0.3678  0.4393
  323MOL0     C42559   6.816   5.174   6.192 -0.7378 -0.2255  0.1136
  323MOL0     C42560   6.878   5.099   6.092 -0.7517 -0.1184  0.2354
  323MOL0     C42561   6.928   5.169   5.979  0.0968  0.6235 -0.6946
  323MOL0     O42562   6.995   5.088   5.896  0.1226 -0.4959  0.1157
  323MOL0     C42563   7.067   5.149   5.787  0.1075 -0.0919 -0.2196
  323MOL0     C42564   7.178   5.073   5.714 -0.0673 -0.3023  0.2600
  323MOL0     C42565   7.288   5.002   5.800 -0.6934  0.3224  0.5774
  323MOL0     C42566   7.405   4.951   5.710  0.4498  0.2447  0.1896
  323MOL0     C42567   7.502   5.068   5.681 -0.4516  0.0232  0.6383
  323MOL0     C42568   7.577   5.160   5.644 -0.3684 -0.1705  0.1469
  323MOL0     C42569   6.915   5.308   5.965  1.0753 -0.9593  0.3979
  323MOL0     C42570   6.836   5.373   6.058 -0.1836  0.6790  0.0013
  323MOL0     H42571   6.631   5.697   6.428 -0.0714 -0.7698  1.2490
  323MOL0     H42572   6.416   5.778   6.511 -3.4515 -2.1432  1.6484
  323MOL0     H42573   6.029   5.576   6.432 -1.6269 -0.5680 -2.5608
  323MOL0     H42574   6.031   5.685   6.293 -0.2996  0.9794  0.2963
  323MOL0     H42575   5.941   5.769   6.573 -2.0645  3.3557  0.3915
  323MOL0     H42576   5.846   5.736   6.414 -0.2694  3.4035 -3.0271
  323MOL0     H42577   5.960   5.930   6.314 -0.7544  0.0256  0.0545
  323MOL0     H42578   6.046   5.951   6.473 -1.7617  0.6835  2.3040
  323MOL0     H42579   5.753   5.975   6.424  1.2971 -0.5380 -1.8448
  323MOL0     H42580   5.834   5.984   6.587 -1.3391 -0.6029  0.0883
  323MOL0     H42581   5.870   6.165   6.343 -2.9458  0.1413  0.1186
  323MOL0     H42582   5.959   6.173   6.502 -1.5391  1.5735  1.7994
  323MOL0     H42583   5.815   6.343   6.490  0.6817 -1.4708  1.0364
  323MOL0     H42584   5.738   6.228   6.604 -0.1003  0.5695  0.2399
  323MOL0     H42585   5.642   6.280   6.320 -0.8974  0.1148  0.1933
  323MOL0     H42586   5.581   6.154   6.425  0.4687 -0.0020 -0.7552
  323MOL0     H42587   5.587   6.458   6.457  1.3497  0.7576 -0.2183
  323MOL0     H42588   5.540   6.349   6.596  3.3364 -3.1344 -0.1105
  323MOL0     H42589   5.390   6.524   6.316  3.1678 -0.8369  0.8993
  323MOL0     H42590   4.997   6.413   6.345 -0.0342 -3.9110 -3.5337
  323MOL0     H42591   5.096   6.437   6.203  0.1684 -0.0887 -0.2097
  323MOL0     H42592   5.190   6.656   6.290 -0.8737  0.0256 -1.0386
  323MOL0     H42593   5.088   6.626   6.437 -2.2532  2.8048 -0.2772
  323MOL0     H42594   5.010   6.715   6.169 -0.5275  0.7215 -0.1162
  323MOL0     H42595   4.898   6.608   6.251  2.0139 -1.7187  2.0372
  323MOL0     H42596   4.906   6.885   6.266 -1.9834 -2.4629 -0.4204
  323MOL0     H42597   5.030   6.851   6.391  0.1723 -0.3419 -0.0520
  323MOL0     H42598   4.689   6.588   6.475 -0.9006  0.2916 -1.2536
  323MOL0     H42599   4.458   6.564   6.424 -0.8233 -0.3625 -1.5891
  323MOL0     H42600   4.049   6.499   6.415  1.3843 -2.2331 -0.3950
  323MOL0     H42601   3.820   6.487   6.347  1.5246 -3.2507 -0.6586
  323MOL0     H42602   3.624   6.615   6.309 -2.3622 -2.8078  1.0649
  323MOL0     H42603   3.603   6.463   6.229 -0.8413 -1.2645 -2.2914
  323MOL0     H42604   3.481   6.561   6.034 -3.2714  0.3545 -0.4263
  323MOL0     H42605   3.508   6.720   6.120 -1.9084  0.2853  2.1681
  323MOL0     H42606   3.370   6.627   6.306 -0.0396  0.6130 -1.0325
  323MOL0     H42607   3.379   6.477   6.223  0.0286 -0.9346 -1.2472
  323MOL0     H42608   3.282   6.730   6.082  1.4090 -1.8095 -3.1219
  323MOL0     H42609   3.227   6.571   6.040 -2.5481  3.1276 -1.5683
  323MOL0     H42610   3.139   6.720   6.295  1.1914  1.0013 -0.3947
  323MOL0     H42611   3.084   6.553   6.250 -0.7956  1.6576  0.4187
  323MOL0     H42612   3.008   6.640   6.038  2.6207 -1.8475  0.0286
  323MOL0     H42613   3.057   6.801   6.090 -0.7661  1.7168  1.3607
  323MOL0     H42614   2.884   6.723   6.303  1.4571 -0.6512 -0.1266
  323MOL0     H42615   2.838   6.815   6.169  1.5413  0.7807 -0.0743
  323MOL0     H42616   2.806   6.503   6.202  1.7033 -0.2610 -0.0948
  323MOL0     H42617   2.786   6.586   6.046 -1.9611 -0.7082  0.3291
  323MOL0     H42618   3.939   6.672   5.970 -1.1836 -2.4451 -0.6592
  323MOL0     H42619   4.154   6.674   6.036  0.2785 -3.7961 -1.5326
  323MOL0     H42620   4.467   6.933   6.212  0.7838  0.7848  0.5433
  323MOL0     H42621   4.701   6.967   6.303 -1.2366  0.1350 -0.9519
  323MOL0     H42622   6.194   5.523   6.247 -1.3381  1.5908  1.1583
  323MOL0     H42623   6.417   5.432   6.159  1.4451  0.2634  0.3097
  323MOL0     H42624   6.764   5.136   6.280 -2.6048  0.9371 -0.4363
  323MOL0     H42625   6.902   4.994   6.098 -0.3567 -0.1191 -1.0893
  323MOL0     H42626   7.104   5.249   5.811 -0.4038  0.1365 -0.3761
  323MOL0     H42627   6.989   5.169   5.712 -2.2286 -3.2724  1.1359
  323MOL0     H42628   7.129   5.003   5.645  2.1685  1.0498 -2.9564
  323MOL0     H42629   7.238   5.140   5.652 -0.2065  2.2449  2.6686
  323MOL0     H42630   7.248   4.913   5.850 -0.3727 -0.3945 -0.3922
  323MOL0     H42631   7.337   5.058   5.879  2.5315 -4.4077  2.4136
  323MOL0     H42632   7.456   4.867   5.758  0.3949  1.3677  2.3458
  323MOL0     H42633   7.360   4.922   5.614 -0.1209  4.6797 -1.0868
  323MOL0     H42634   7.647   5.235   5.612  0.8159 -1.1306  0.3930
  323MOL0     H42635   6.962   5.365   5.886 -1.7655 -1.5505 -1.8800
  323MOL0     H42636   6.817   5.480   6.053 -0.5793  0.5421 -3.1895
  324MOL0     O42637   0.592   1.639   2.097  0.4416  0.0394 -0.3707
  324MOL0     C42638   0.587   1.728   2.183 -0.0332  1.1240  0.0349
  324MOL0     O42639   0.688   1.810   2.206 -0.3747  0.2087  0.1585
  324MOL0     C42640   0.797   1.832   2.120  0.5974 -0.1227  0.1491
  324MOL0     C42641   0.911   1.888   2.180 -0.6702  0.5836  0.7410
  324MOL0     C42642   1.030   1.904   2.105 -0.0047 -0.3560  0.2996
  324MOL0     C42643   1.034   1.865   1.975  0.4218  0.2057 -0.6778
  324MOL0     O42644   1.149   1.882   1.916  0.0697 -0.3137 -0.3790
  324MOL0     C42645   1.220   1.756   1.904  0.8652 -0.4794 -0.0488
  324MOL0     C42646   1.364   1.767   1.866 -0.1083  0.2669  0.9200
  324MOL0     C42647   1.442   1.838   1.980  0.1591  1.6161 -0.3279
  324MOL0     C42648   1.592   1.844   1.946 -0.0020 -0.0218  0.2679
  324MOL0     C42649   1.685   1.892   2.054 -0.8234  1.1852 -0.0039
  324MOL0     C42650   1.814   1.959   1.989 -0.2827  1.7750  0.6224
  324MOL0     C42651   1.906   1.843   1.945  0.0256  0.8150 -0.3236
  324MOL0     C42652   2.030   1.888   1.863  0.0038 -0.0922 -0.5962
  324MOL0     N42653   2.113   1.767   1.840 -0.5846  0.3893 -0.1599
  324MOL0     C42654   2.153   1.716   1.719 -1.0011 -0.1230 -0.1124
  324MOL0     C42655   2.257   1.631   1.740 -0.3558 -0.2754 -0.5769
  324MOL0     C42656   2.341   1.570   1.637  0.3464  0.3036  0.8694
  324MOL0     C42657   2.247   1.487   1.547  0.0909 -1.1224  0.5453
  324MOL0     C42658   2.309   1.358   1.490  0.1190 -0.3160  0.5279
  324MOL0     C42659   2.437   1.389   1.404 -0.3604  0.1964 -0.7737
  324MOL0     O42660   2.507   1.270   1.373 -0.4782 -0.9214 -0.2115
  324MOL0     C42661   2.647   1.272   1.357 -1.0733  0.0767  1.0984
  324MOL0     C42662   2.720   1.179   1.427 -0.0929 -0.1890 -0.2605
  324MOL0     C42663   2.855   1.172   1.427 -0.1305  0.1820  0.0442
  324MOL0     C42664   2.925   1.263   1.353 -0.1813  0.2173 -0.4409
  324MOL0     C42665   3.067   1.245   1.321  0.6429  0.7762 -0.5109
  324MOL0     O42666   3.120   1.340   1.239 -0.5458  0.1318 -0.1591
  324MOL0     C42667   3.254   1.343   1.213  0.4311  0.0141 -0.0100
  324MOL0     C42668   3.348   1.348   1.316 -0.6884  0.4054  0.3812
  324MOL0     C42669   3.485   1.364   1.290 -0.1538 -0.5464  0.0957
  324MOL0     C42670   3.525   1.382   1.161  0.2266 -0.7142 -0.0433
  324MOL0     O42671   3.655   1.426   1.150  0.5287 -0.0610 -0.5977
  324MOL0     C42672   3.723   1.393   1.029  0.1795 -0.2882  0.1167
  324MOL0     C42673   3.859   1.466   1.030 -0.1911  0.2367  0.5777
  324MOL0     C42674   3.968   1.401   0.939 -0.5679 -0.1291 -0.2961
  324MOL0     C42675   4.027   1.273   1.004  0.8337 -0.3586 -0.3790
  324MOL0     C42676   4.110   1.189   0.897 -0.9197 -0.0413 -0.0381
  324MOL0     C42677   4.237   1.257   0.831 -0.8199 -0.1999  0.3320
  324MOL0     C42678   4.313   1.172   0.733  0.5721  0.1255  0.7422
  324MOL0     C42679   4.445   1.241   0.692  0.3172  0.7718  0.2757
  324MOL0    Cl42680   4.489   1.234   0.517  0.0821  0.0447 -0.4410
  324MOL0     C42681   3.435   1.354   1.055 -0.0527 -0.5197 -0.4048
  324MOL0     C42682   3.296   1.347   1.081  0.2085 -0.1151  0.6918
  324MOL0     O42683   3.126   1.155   1.379 -0.0407  0.5866 -0.0809
  324MOL0     C42684   2.859   1.369   1.291 -0.6286 -0.1394 -0.5320
  324MOL0     C42685   2.722   1.365   1.281  0.4144 -0.3570  0.3362
  324MOL0     N42686   2.274   1.625   1.879  0.4250 -0.0423 -0.0030
  324MOL0     N42687   2.195   1.713   1.932  0.4641 -0.5281 -0.1245
  324MOL0     C42688   0.917   1.823   1.908 -0.1990 -0.2040 -0.6068
  324MOL0     C42689   0.802   1.816   1.981  1.0598 -0.2444  0.1962
  324MOL0     C42690   0.473   1.744   2.264  0.5939  0.1988 -1.3344
  324MOL0     C42691   0.373   1.648   2.268 -0.4784  0.0843  0.4705
  324MOL0     C42692   0.261   1.661   2.361  0.1789 -0.0415 -0.6432
  324MOL0     C42693   0.254   1.765   2.458 -0.6888  0.4267  0.3758
  324MOL0     O42694   0.159   1.750   2.559  0.3643  0.8168 -0.1823
  324MOL0     C42695   0.134   1.866   2.646  0.1874  0.0103  0.5470
  324MOL0     C42696   0.016   1.827   2.737 -0.6535  0.6421 -1.1557
  324MOL0     C42697  -0.125   1.851   2.683  0.0074 -0.9597 -1.1794
  324MOL0     C42698  -0.237   1.792   2.773  0.0637 -0.1936 -0.1623
  324MOL0     C42699  -0.300   1.893   2.860  0.3345 -0.2907  0.3080
  324MOL0     C42700  -0.368   1.957   2.940  0.5572  0.0118  0.0815
  324MOL0     C42701   0.361   1.862   2.443  0.0226  0.5981 -0.8643
  324MOL0     C42702   0.465   1.851   2.352  0.0628  0.5409  0.2436
  324MOL0     H42703   0.905   1.906   2.287 -1.2910  0.8876  0.6589
  324MOL0     H42704   1.122   1.936   2.153  2.4392 -1.6628 -3.0941
  324MOL0     H42705   1.165   1.709   1.821  0.1292 -0.1383  0.2346
  324MOL0     H42706   1.214   1.694   1.994  1.7692 -0.7681 -0.1793
  324MOL0     H42707   1.361   1.825   1.774  1.3128 -2.0081 -0.6672
  324MOL0     H42708   1.405   1.668   1.846 -0.0277  0.7851 -1.9049
  324MOL0     H42709   1.438   1.789   2.078  0.0413  1.4562 -0.4120
  324MOL0     H42710   1.393   1.934   1.995 -1.6603  0.7031 -0.2372
  324MOL0     H42711   1.617   1.742   1.916  0.0911  0.8614 -3.0741
  324MOL0     H42712   1.605   1.892   1.848 -2.2321 -1.5199 -0.8597
  324MOL0     H42713   1.722   1.813   2.120 -0.8183 -0.6569 -2.1369
  324MOL0     H42714   1.638   1.966   2.120  0.3403  1.6476  0.3302
  324MOL0     H42715   1.866   2.015   2.066  0.3449 -0.1527  1.6828
  324MOL0     H42716   1.779   2.024   1.908  0.7500 -1.2178 -2.4551
  324MOL0     H42717   1.942   1.789   2.033  1.7312  2.8914  0.3387
  324MOL0     H42718   1.849   1.774   1.883 -0.1017  2.6523 -2.3532
  324MOL0     H42719   2.086   1.972   1.905  0.3808 -0.8993  0.5616
  324MOL0     H42720   1.987   1.929   1.771 -3.9480  1.4620  1.6622
  324MOL0     H42721   2.109   1.752   1.626  0.2564 -1.2586 -1.1847
  324MOL0     H42722   2.412   1.502   1.685 -2.1898 -2.5452  0.8844
  324MOL0     H42723   2.390   1.647   1.577  1.2438 -0.7120  0.2655
  324MOL0     H42724   2.231   1.552   1.460  2.2028  0.2018  1.0495
  324MOL0     H42725   2.154   1.468   1.601 -0.6366  1.7995  0.5213
  324MOL0     H42726   2.348   1.282   1.558  0.9489 -0.8104 -0.4557
  324MOL0     H42727   2.247   1.323   1.407 -1.5094  1.6684  0.8385
  324MOL0     H42728   2.500   1.457   1.462 -0.7743  0.7759 -0.9848
  324MOL0     H42729   2.411   1.443   1.312  0.5438  0.3113 -0.9637
  324MOL0     H42730   2.656   1.105   1.473 -1.5729  1.6925  0.8908
  324MOL0     H42731   2.911   1.083   1.453  1.4495  0.5694 -1.8093
  324MOL0     H42732   3.318   1.341   1.420  2.6639  0.3806  1.4678
  324MOL0     H42733   3.560   1.385   1.366 -0.8056 -0.3267  0.6906
  324MOL0     H42734   3.665   1.421   0.940 -1.5898  1.0647  1.6128
  324MOL0     H42735   3.736   1.284   1.028 -1.3387 -0.4951 -0.4974
  324MOL0     H42736   3.899   1.469   1.132 -2.7572 -2.6380  1.8316
  324MOL0     H42737   3.842   1.573   1.011 -1.1162  0.2483  1.4030
  324MOL0     H42738   4.054   1.468   0.929  1.3714 -2.3272  0.6973
  324MOL0     H42739   3.928   1.367   0.843  1.2470 -1.6826 -0.5530
  324MOL0     H42740   4.097   1.306   1.082  2.6212  0.1342 -2.0928
  324MOL0     H42741   3.946   1.215   1.049 -0.6985  1.3973 -0.7577
  324MOL0     H42742   4.048   1.156   0.813 -2.2803 -2.2391  1.6917
  324MOL0     H42743   4.147   1.094   0.938 -1.7852 -0.5803 -0.4617
  324MOL0     H42744   4.302   1.286   0.914 -2.3308  3.1349  0.5215
  324MOL0     H42745   4.210   1.356   0.791  2.5019 -0.3923 -2.9645
  324MOL0     H42746   4.336   1.078   0.784 -0.1433  0.6909  2.1765
  324MOL0     H42747   4.249   1.149   0.648  0.3245  0.5868  0.7988
  324MOL0     H42748   4.526   1.204   0.755  0.5572  1.4937  0.3974
  324MOL0     H42749   4.438   1.346   0.721  2.4935 -0.1082  4.9455
  324MOL0     H42750   3.465   1.353   0.951 -2.2836  0.0428 -1.1140
  324MOL0     H42751   3.233   1.348   0.993  1.2161 -1.3138 -0.0819
  324MOL0     H42752   2.915   1.432   1.223 -0.2699 -0.1593 -0.2593
  324MOL0     H42753   2.667   1.439   1.223 -1.2550 -0.6379  1.4874
  324MOL0     H42754   0.925   1.817   1.800  0.3438  0.1592 -0.5912
  324MOL0     H42755   0.706   1.793   1.935  1.4575 -2.3097  0.3225
  324MOL0     H42756   0.384   1.563   2.201 -0.9006 -1.0509  1.7842
  324MOL0     H42757   0.179   1.590   2.358 -0.8265  1.0322  0.4007
  324MOL0     H42758   0.111   1.948   2.576 -2.5334 -2.1056 -1.2195
  324MOL0     H42759   0.213   1.899   2.715 -1.4464  2.4079  1.3954
  324MOL0     H42760   0.030   1.721   2.758  2.1403  1.3635  1.3990
  324MOL0     H42761   0.023   1.877   2.834  1.4090  2.2469 -2.0394
  324MOL0     H42762  -0.145   1.824   2.579 -1.8655  0.1227 -1.1458
  324MOL0     H42763  -0.127   1.960   2.694  1.0134 -1.1818  2.4329
  324MOL0     H42764  -0.320   1.760   2.710  1.6661 -0.2431 -2.4177
  324MOL0     H42765  -0.202   1.705   2.829  2.8182 -0.1072 -1.5418
  324MOL0     H42766  -0.413   2.020   3.014 -1.6301 -0.5557 -0.6680
  324MOL0     H42767   0.368   1.924   2.531 -0.7412 -4.6296  3.3979
  324MOL0     H42768   0.546   1.923   2.363  0.3134  0.0975  1.5358
  325MOL0     O42769   1.818   5.980   5.370 -0.7290 -0.0027 -0.0167
  325MOL0     C42770   1.891   6.063   5.432 -0.0697  0.6314  0.1902
  325MOL0     O42771   1.860   6.112   5.557  0.4368 -0.5737 -0.2604
  325MOL0     C42772   1.720   6.100   5.586 -0.0112  0.3036 -0.2687
  325MOL0     C42773   1.674   6.020   5.695  0.0642  0.3344  0.3567
  325MOL0     C42774   1.535   6.003   5.725 -0.2684  0.1660 -0.1091
  325MOL0     C42775   1.445   6.070   5.639  0.9262  0.1257  0.4335
  325MOL0     O42776   1.312   6.065   5.661 -0.0384  0.1777  1.0963
  325MOL0     C42777   1.281   6.116   5.792  0.0073 -0.4090  1.6261
  325MOL0     C42778   1.147   6.194   5.786 -0.1248 -0.2216  0.1501
  325MOL0     C42779   1.029   6.104   5.744 -0.1937  0.6625  0.3110
  325MOL0     C42780   0.895   6.141   5.808  0.5019 -0.7525  0.6541
  325MOL0     C42781   0.780   6.072   5.726  0.4085  0.5763  0.7643
  325MOL0     C42782   0.643   6.103   5.789 -0.0446 -0.8624  0.0307
  325MOL0     C42783   0.518   6.074   5.704  0.3993 -0.4151 -0.1817
  325MOL0     C42784   0.385   6.119   5.765 -0.9858  0.2580  0.6362
  325MOL0     N42785   0.265   6.079   5.688 -0.8806 -0.2463  0.1489
  325MOL0     C42786   0.204   6.160   5.593  0.3188  0.8864  0.0619
  325MOL0     C42787   0.089   6.095   5.564 -0.0330  0.3848 -1.1073
  325MOL0     C42788  -0.030   6.137   5.499 -0.2202  0.0588 -0.1116
  325MOL0     C42789  -0.082   6.266   5.566 -0.1692 -1.5103 -0.3446
  325MOL0     C42790  -0.197   6.323   5.480  0.4163 -0.4480  0.0088
  325MOL0     C42791  -0.326   6.240   5.492  0.1278  0.1094 -0.4335
  325MOL0     O42792  -0.415   6.263   5.387  0.0973  0.2528 -0.1328
  325MOL0     C42793  -0.537   6.208   5.395  0.5285 -0.7392 -1.0299
  325MOL0     C42794  -0.616   6.218   5.286  0.6033 -0.1559 -0.2709
  325MOL0     C42795  -0.756   6.186   5.292 -0.1389 -0.4618 -0.1094
  325MOL0     C42796  -0.807   6.134   5.410 -0.5436  0.4666  0.0712
  325MOL0     C42797  -0.950   6.098   5.414  0.1433  0.2684 -1.1323
  325MOL0     O42798  -1.018   6.093   5.303  0.6179 -0.2331  0.1914
  325MOL0     C42799  -1.153   6.040   5.304 -0.0945 -0.0257  1.1784
  325MOL0     C42800  -1.230   6.091   5.200  0.3473  0.7857 -0.0856
  325MOL0     C42801  -1.361   6.043   5.177  0.3650 -0.5233  0.2142
  325MOL0     C42802  -1.414   5.932   5.254 -0.5879  0.4315  0.5347
  325MOL0     O42803  -1.539   5.868   5.225  0.1789  0.0876 -0.6404
  325MOL0     C42804  -1.606   5.915   5.109  0.5668  0.4206  0.0118
  325MOL0     C42805  -1.740   5.849   5.070  0.2804  0.1710 -0.1087
  325MOL0     C42806  -1.794   5.919   4.940 -0.5251 -0.6384 -0.7342
  325MOL0     C42807  -1.922   5.853   4.896  0.2572  0.2709  0.6509
  325MOL0     C42808  -2.047   5.904   4.967 -0.4583 -0.4316  0.1199
  325MOL0     C42809  -2.161   5.825   4.917 -0.5368  0.3680 -0.4770
  325MOL0     C42810  -2.289   5.879   4.974  0.1470 -0.8005  0.3111
  325MOL0     C42811  -2.418   5.801   4.945  0.6156 -0.2621 -1.4680
  325MOL0    Cl42812  -2.553   5.902   4.899 -0.0336 -0.0392 -0.4132
  325MOL0     C42813  -1.336   5.892   5.360  0.9111  0.3168 -1.1729
  325MOL0     C42814  -1.211   5.936   5.384  0.3903 -0.6420  0.2633
  325MOL0     O42815  -1.000   6.070   5.533 -0.0125  0.0884 -1.2792
  325MOL0     C42816  -0.726   6.120   5.515  0.4385  1.0642 -0.3610
  325MOL0     C42817  -0.588   6.145   5.513  0.6685 -0.1039 -1.0315
  325MOL0     N42818   0.079   5.981   5.640 -0.1166  0.3503  0.4176
  325MOL0     N42819   0.189   5.965   5.709 -0.2477 -0.0378  0.5352
  325MOL0     C42820   1.489   6.149   5.531  0.5739  0.2955  0.3786
  325MOL0     C42821   1.627   6.168   5.514 -0.4351 -0.7091  0.3611
  325MOL0     C42822   2.018   6.104   5.383  0.2383 -0.6141 -0.1302
  325MOL0     C42823   2.069   6.226   5.435  0.0832  0.0426  0.3802
  325MOL0     C42824   2.188   6.273   5.388  0.1142 -0.5759  0.7577
  325MOL0     C42825   2.263   6.200   5.298 -0.2543  0.4153  0.0616
  325MOL0     O42826   2.386   6.249   5.265  0.1410 -0.2989 -0.3140
  325MOL0     C42827   2.508   6.163   5.289  0.5548 -0.1428 -0.0157
  325MOL0     C42828   2.635   6.239   5.259 -0.3277  0.8050 -0.2426
  325MOL0     C42829   2.750   6.176   5.335 -0.3956 -0.6480  0.5165
  325MOL0     C42830   2.890   6.216   5.289 -0.4249 -0.0734  0.7831
  325MOL0     C42831   2.935   6.179   5.147  0.0919  0.7953  0.8136
  325MOL0     C42832   2.985   6.132   5.042 -0.1245 -0.0947 -0.1908
  325MOL0     C42833   2.215   6.085   5.238 -0.1274  0.6148  0.2815
  325MOL0     C42834   2.094   6.039   5.283  1.0507 -0.4108  0.5307
  325MOL0     H42835   1.750   5.976   5.759  1.0210  2.0055  0.4225
  325MOL0     H42836   1.513   5.931   5.804 -0.0561 -0.4275 -0.5792
  325MOL0     H42837   1.354   6.187   5.832  1.6692 -0.2992 -1.3596
  325MOL0     H42838   1.266   6.026   5.853 -3.6352 -0.2585  1.1849
  325MOL0     H42839   1.140   6.289   5.732  0.4171  1.3021  2.6350
  325MOL0     H42840   1.111   6.210   5.888  0.4760  3.2305 -0.0738
  325MOL0     H42841   1.048   5.999   5.771 -3.6754 -0.7491 -1.9846
  325MOL0     H42842   1.015   6.101   5.635  0.6493 -0.5071  0.2033
  325MOL0     H42843   0.893   6.105   5.912  0.0580  1.0828  1.3197
  325MOL0     H42844   0.876   6.248   5.795 -4.9644 -1.4923 -0.1026
  325MOL0     H42845   0.800   5.966   5.709 -1.5780  0.0623  1.2770
  325MOL0     H42846   0.783   6.122   5.629 -0.8172  4.1563  2.3856
  325MOL0     H42847   0.639   6.205   5.829 -2.6579 -0.0950 -1.9119
  325MOL0     H42848   0.648   6.039   5.878  2.1135  0.6432  1.0810
  325MOL0     H42849   0.534   6.151   5.628 -1.3221 -0.6921 -0.8768
  325MOL0     H42850   0.508   5.971   5.669 -0.6830 -0.8570  1.3141
  325MOL0     H42851   0.385   6.228   5.752 -1.1476  0.1024 -0.7347
  325MOL0     H42852   0.382   6.080   5.867 -0.1341  1.2472  1.0644
  325MOL0     H42853   0.241   6.258   5.564 -0.9096  0.6289 -2.6345
  325MOL0     H42854  -0.092   6.048   5.517 -1.0118  0.3793 -1.1492
  325MOL0     H42855  -0.010   6.145   5.392 -2.6388  0.1815 -0.6276
  325MOL0     H42856   0.001   6.336   5.555  0.4204 -2.1957 -0.3265
  325MOL0     H42857  -0.117   6.248   5.668 -1.4596 -1.8122 -0.8238
  325MOL0     H42858  -0.224   6.421   5.519 -0.1734  0.3896 -2.3682
  325MOL0     H42859  -0.171   6.330   5.374 -3.3424 -0.1629 -1.0271
  325MOL0     H42860  -0.380   6.264   5.584 -0.1685  3.3700 -1.3294
  325MOL0     H42861  -0.296   6.135   5.489  2.6043  0.7066  0.9495
  325MOL0     H42862  -0.559   6.250   5.199 -0.6992  0.2860 -1.0069
  325MOL0     H42863  -0.806   6.198   5.197  0.7555 -0.8414 -0.6391
  325MOL0     H42864  -1.198   6.185   5.155  2.1773  0.1450 -0.2200
  325MOL0     H42865  -1.422   6.090   5.100 -0.4138 -1.1522  0.4379
  325MOL0     H42866  -1.550   5.892   5.018 -2.1039  1.7059 -2.1137
  325MOL0     H42867  -1.620   6.023   5.119  1.2081  0.3872  1.5415
  325MOL0     H42868  -1.817   5.870   5.144 -0.9484  1.8337 -1.7584
  325MOL0     H42869  -1.731   5.741   5.063 -4.3560 -0.3100 -1.7260
  325MOL0     H42870  -1.712   5.901   4.870  2.1860 -2.3903  2.6002
  325MOL0     H42871  -1.810   6.027   4.952 -0.3814 -0.8386  1.8963
  325MOL0     H42872  -1.943   5.864   4.789  0.7409 -0.1774  0.5032
  325MOL0     H42873  -1.916   5.747   4.923  1.2937 -0.6816 -2.8046
  325MOL0     H42874  -2.061   6.012   4.959 -2.2769 -0.6524 -0.1695
  325MOL0     H42875  -2.037   5.881   5.073  1.3104 -1.9438 -0.3121
  325MOL0     H42876  -2.139   5.722   4.945  2.9520  1.1846  0.2675
  325MOL0     H42877  -2.175   5.832   4.809 -2.4004  0.4417 -0.2639
  325MOL0     H42878  -2.283   5.885   5.083  0.6762  1.3801  0.2078
  325MOL0     H42879  -2.288   5.981   4.935  3.8715 -1.2844 -1.3078
  325MOL0     H42880  -2.453   5.748   5.034 -0.1874  1.0422 -0.9716
  325MOL0     H42881  -2.409   5.722   4.870 -2.4983 -1.0140 -1.1658
  325MOL0     H42882  -1.382   5.822   5.430  1.1369  0.5098 -0.8283
  325MOL0     H42883  -1.147   5.886   5.456 -0.7400  0.0796  1.8152
  325MOL0     H42884  -0.770   6.079   5.606  2.7770 -2.6276 -0.6906
  325MOL0     H42885  -0.531   6.127   5.604  1.5644 -0.9619 -1.7405
  325MOL0     H42886   1.426   6.215   5.473  0.1853 -1.0363 -0.7858
  325MOL0     H42887   1.664   6.241   5.444  1.5719 -1.3012  0.7588
  325MOL0     H42888   2.024   6.282   5.516 -3.9999 -0.2538 -1.4542
  325MOL0     H42889   2.234   6.361   5.432  2.5404  0.1788 -2.8400
  325MOL0     H42890   2.502   6.062   5.246 -1.9244 -0.8867  1.8925
  325MOL0     H42891   2.506   6.144   5.397 -0.2359 -0.3310 -0.0611
  325MOL0     H42892   2.661   6.223   5.154  0.1255  2.3468 -0.3985
  325MOL0     H42893   2.619   6.345   5.283 -1.4158  0.4488  0.7129
  325MOL0     H42894   2.746   6.067   5.344 -1.6166 -0.9783 -2.7461
  325MOL0     H42895   2.739   6.206   5.439 -0.7114 -2.7475  1.1317
  325MOL0     H42896   2.890   6.325   5.300 -2.3355 -0.1645  2.1151
  325MOL0     H42897   2.960   6.174   5.362 -2.2516 -2.0024  1.5451
  325MOL0     H42898   3.024   6.079   4.956 -0.9918 -1.7687  0.4037
  325MOL0     H42899   2.264   6.029   5.159 -1.8929 -0.4532 -0.1076
  325MOL0     H42900   2.049   5.948   5.244 -0.4458  0.1696  0.8510
  326MOL0     O42901   3.019   9.641   0.198 -0.4009 -0.0974 -1.0460
  326MOL0     C42902   3.070   9.756   0.207  0.0664 -0.2703  0.2564
  326MOL0     O42903   3.002   9.876   0.218  0.1183 -0.0630 -0.5558
  326MOL0     C42904   2.878   9.898   0.153  0.1363  0.3013  0.0842
  326MOL0     C42905   2.824   9.829   0.038  0.3055  0.6023 -0.2747
  326MOL0     C42906   2.698   9.857  -0.014 -0.4115 -0.8608 -0.2906
  326MOL0     C42907   2.626   9.975   0.036 -0.2067 -0.0113  0.1137
  326MOL0     O42908   2.512  10.022  -0.020 -0.6307 -0.2645 -0.2390
  326MOL0     C42909   2.464  10.004  -0.154  0.0345  0.3556 -0.2816
  326MOL0     C42910   2.372  10.117  -0.196 -0.2413  0.2968 -0.8331
  326MOL0     C42911   2.236  10.091  -0.125  0.4684  0.0205 -1.2233
  326MOL0     C42912   2.151  10.211  -0.119 -0.4882  0.1088 -0.3910
  326MOL0     C42913   2.048  10.212  -0.010  0.2993  0.5668 -0.2086
  326MOL0     C42914   1.937  10.099  -0.044 -0.8898  0.1465 -0.3658
  326MOL0     C42915   1.848  10.065   0.073 -0.0838  1.0456  0.7826
  326MOL0     C42916   1.725   9.994   0.031 -0.3583  0.1221  0.0236
  326MOL0     N42917   1.658   9.929   0.148 -0.4974  0.2854 -0.6157
  326MOL0     C42918   1.567   9.993   0.237 -0.4451  0.1122 -0.5855
  326MOL0     C42919   1.526   9.894   0.314 -1.1316 -0.3308 -0.0835
  326MOL0     C42920   1.426   9.921   0.432 -0.9288  0.6096  0.6558
  326MOL0     C42921   1.280   9.890   0.377 -1.2480  0.0545  1.0630
  326MOL0     C42922   1.174   9.913   0.479 -1.1012 -0.8836 -0.5361
  326MOL0     C42923   1.167   9.800   0.588  0.6145 -0.4137  0.4334
  326MOL0     O42924   1.103   9.856   0.693  2.0784  0.3045 -0.0359
  326MOL0     C42925   0.964   9.862   0.717  0.3610  0.0430 -1.1405
  326MOL0     C42926   0.921   9.922   0.830 -1.4079  0.8752 -0.3490
  326MOL0     C42927   0.794   9.959   0.843 -0.3549  0.7229 -0.1424
  326MOL0     C42928   0.694   9.906   0.759  0.1214 -0.1388  0.2503
  326MOL0     C42929   0.552   9.926   0.791 -0.1396  0.2326  0.3728
  326MOL0     O42930   0.455   9.891   0.704 -0.7915  0.9676  0.8049
  326MOL0     C42931   0.326   9.874   0.746  0.4875 -0.5339 -1.3288
  326MOL0     C42932   0.235   9.880   0.650 -0.3682 -0.8314  0.0280
  326MOL0     C42933   0.100   9.863   0.681  0.2007 -0.5342  0.0118
  326MOL0     C42934   0.059   9.817   0.804  0.6392 -0.2392 -0.2617
  326MOL0     O42935  -0.081   9.800   0.830 -0.0345 -0.0562 -0.7858
  326MOL0     C42936  -0.115   9.824   0.974 -0.4061 -0.0667  0.6021
  326MOL0     C42937  -0.260   9.831   1.006  0.5257  1.0509 -0.3361
  326MOL0     C42938  -0.324   9.964   0.972  0.0175  0.9116  0.4268
  326MOL0     C42939  -0.278  10.088   1.037 -0.4444  1.1149 -0.8145
  326MOL0     C42940  -0.267  10.199   0.934 -0.3116 -0.1186 -0.4078
  326MOL0     C42941  -0.272  10.332   1.013 -1.2457 -0.5974 -0.4385
  326MOL0     C42942  -0.130  10.360   1.061 -0.6138  0.4449 -0.1057
  326MOL0     C42943  -0.141  10.457   1.188 -0.0400 -0.0755  0.1680
  326MOL0    Cl42944  -0.159  10.354   1.335  0.2455  0.0160 -0.1058
  326MOL0     C42945   0.161   9.802   0.903  0.1679 -0.7241 -0.8994
  326MOL0     C42946   0.295   9.846   0.876  0.1816  0.0071 -0.1290
  326MOL0     O42947   0.532   9.994   0.893 -0.0709  0.5868 -0.4504
  326MOL0     C42948   0.731   9.844   0.644  0.0732  0.2990 -0.2372
  326MOL0     C42949   0.866   9.824   0.624 -0.1425  0.0453 -0.2898
  326MOL0     N42950   1.572   9.774   0.275 -0.1382 -0.6974 -0.3759
  326MOL0     N42951   1.651   9.791   0.176 -1.1714 -0.3778  0.5744
  326MOL0     C42952   2.677  10.047   0.140  0.0942  0.8560  0.7009
  326MOL0     C42953   2.802  10.003   0.193  1.3654 -0.6583 -0.6109
  326MOL0     C42954   3.214   9.757   0.244 -0.6288  0.2681 -0.1998
  326MOL0     C42955   3.289   9.644   0.240  0.2680  0.8089 -0.7599
  326MOL0     C42956   3.426   9.653   0.229 -0.1091 -0.2927  0.8539
  326MOL0     C42957   3.493   9.775   0.252 -0.4874  1.0697  0.0012
  326MOL0     O42958   3.629   9.782   0.266 -0.0123 -0.1570 -0.1993
  326MOL0     C42959   3.681   9.683   0.350  0.7690  0.0641  0.7858
  326MOL0     C42960   3.806   9.739   0.411  0.3082 -0.4578  0.0791
  326MOL0     C42961   3.907   9.794   0.301  0.1581  0.8635  0.3794
  326MOL0     C42962   4.032   9.832   0.374  0.3245  0.3750 -0.1268
  326MOL0     C42963   4.152   9.832   0.290 -0.3107  0.4190 -0.8474
  326MOL0     C42964   4.252   9.844   0.217  0.2259 -0.7886 -0.2576
  326MOL0     C42965   3.419   9.890   0.288  0.3877  1.2425 -0.6947
  326MOL0     C42966   3.277   9.885   0.280 -0.2014  0.6256 -0.9294
  326MOL0     H42967   2.890   9.764  -0.018  0.3682  0.6033 -0.2009
  326MOL0     H42968   2.650   9.805  -0.096  0.5154 -2.5150  0.1887
  326MOL0     H42969   2.417   9.906  -0.164 -1.3324  0.6148  2.6794
  326MOL0     H42970   2.553  10.012  -0.217  0.3960 -0.1411  0.1637
  326MOL0     H42971   2.363  10.114  -0.305 -2.2035  0.0252 -0.7036
  326MOL0     H42972   2.421  10.209  -0.160 -0.9013 -0.1178  1.2987
  326MOL0     H42973   2.252  10.065  -0.020 -2.5840 -1.0562 -0.9264
  326MOL0     H42974   2.181  10.008  -0.171 -0.2967 -0.8847  1.1940
  326MOL0     H42975   2.219  10.296  -0.110  0.7048 -0.6720 -1.5274
  326MOL0     H42976   2.106  10.229  -0.217  2.7986  0.5823 -1.9585
  326MOL0     H42977   2.001  10.310  -0.001  1.6654  1.0504  3.1649
  326MOL0     H42978   2.097  10.207   0.088 -2.7968  0.1513  1.4541
  326MOL0     H42979   1.981  10.007  -0.082  2.1785  0.4748  1.9391
  326MOL0     H42980   1.868  10.141  -0.118  1.4477 -0.2319 -2.8818
  326MOL0     H42981   1.902   9.982   0.120 -0.5596 -0.4152 -1.1148
  326MOL0     H42982   1.826  10.150   0.139 -0.2735  0.9501  0.8443
  326MOL0     H42983   1.753   9.907  -0.028 -1.0600  1.2706 -2.1237
  326MOL0     H42984   1.656  10.063  -0.018 -0.8366 -1.4573 -1.6411
  326MOL0     H42985   1.542  10.099   0.244  2.4437  0.9817 -1.6349
  326MOL0     H42986   1.431  10.024   0.468  0.0330  1.3927 -1.5381
  326MOL0     H42987   1.443   9.836   0.498  2.3164 -2.6250 -3.7533
  326MOL0     H42988   1.277   9.783   0.352  2.5281 -0.2674  1.4160
  326MOL0     H42989   1.256   9.956   0.292 -0.7020  0.6232  1.3491
  326MOL0     H42990   1.194  10.006   0.533  1.3852 -0.9313 -1.2853
  326MOL0     H42991   1.072   9.932   0.444 -0.4944  2.7080 -0.6328
  326MOL0     H42992   1.271   9.780   0.614  0.9401 -1.1346 -1.2935
  326MOL0     H42993   1.116   9.710   0.552  0.8007 -0.5731  0.5676
  326MOL0     H42994   0.996   9.946   0.905  0.1251 -0.0890 -1.5166
  326MOL0     H42995   0.768  10.014   0.932 -0.5465 -1.1021  0.9963
  326MOL0     H42996   0.280   9.917   0.558  1.0101 -3.3315 -0.3831
  326MOL0     H42997   0.025   9.884   0.604 -1.2725  1.8821  1.9534
  326MOL0     H42998  -0.077   9.922   1.004 -1.8174 -0.4961  4.3840
  326MOL0     H42999  -0.068   9.749   1.038 -0.5377 -0.6243  0.0556
  326MOL0     H43000  -0.269   9.816   1.114  0.2911  3.3767  0.0294
  326MOL0     H43001  -0.315   9.753   0.952  1.0088 -0.7483  1.6319
  326MOL0     H43002  -0.431   9.960   0.992  0.0284 -0.2325  0.3022
  326MOL0     H43003  -0.320   9.973   0.863  0.4251  0.1554  0.3707
  326MOL0     H43004  -0.353  10.124   1.108  1.2537  2.5141  0.3546
  326MOL0     H43005  -0.187  10.070   1.095 -0.3161  0.2885 -1.2567
  326MOL0     H43006  -0.348  10.187   0.862  0.3907  0.2659 -1.2800
  326MOL0     H43007  -0.174  10.211   0.877  0.7253  5.4620  1.7838
  326MOL0     H43008  -0.339  10.344   1.098  0.4238  2.2050  0.6091
  326MOL0     H43009  -0.292  10.414   0.944  2.9471  2.6157  1.6761
  326MOL0     H43010  -0.072  10.274   1.096 -1.7359 -1.5953 -2.9011
  326MOL0     H43011  -0.070  10.416   0.988 -1.4380  4.8391  2.2431
  326MOL0     H43012  -0.224  10.529   1.185 -0.7831 -0.7418  2.4868
  326MOL0     H43013  -0.046  10.512   1.191  0.4996 -1.0097  1.0525
  326MOL0     H43014   0.145   9.781   1.009  3.9618  0.6000  0.1092
  326MOL0     H43015   0.372   9.823   0.949 -0.3250  0.8513  0.7045
  326MOL0     H43016   0.657   9.827   0.567 -0.4657  1.0238  0.1029
  326MOL0     H43017   0.901   9.769   0.537 -1.5228  2.2860 -2.3835
  326MOL0     H43018   2.628  10.133   0.184 -2.2893 -1.8250  3.8389
  326MOL0     H43019   2.853  10.061   0.269  0.3485  0.0411 -0.4478
  326MOL0     H43020   3.245   9.546   0.220  1.1659 -0.3088  2.2160
  326MOL0     H43021   3.489   9.569   0.201 -0.6868 -1.1773  2.1085
  326MOL0     H43022   3.718   9.601   0.289  3.6903  2.5342 -1.1062
  326MOL0     H43023   3.601   9.662   0.422 -0.9105  1.8112 -0.4558
  326MOL0     H43024   3.774   9.820   0.477  0.1492  0.4211 -1.0650
  326MOL0     H43025   3.847   9.655   0.469  2.5240  2.7972  3.7301
  326MOL0     H43026   3.868   9.882   0.249 -0.3376  1.7756  2.1993
  326MOL0     H43027   3.919   9.713   0.230 -1.0329  0.9445  0.0630
  326MOL0     H43028   4.014   9.932   0.413  0.7602 -0.2072  1.6385
  326MOL0     H43029   4.051   9.770   0.462  0.7722  2.3700  1.2253
  326MOL0     H43030   4.332   9.861   0.147  0.4621  0.2001  0.2411
  326MOL0     H43031   3.461   9.983   0.326  1.8330 -0.1333  1.3050
  326MOL0     H43032   3.225   9.973   0.318 -0.7610 -0.4339  0.8442
  327MOL0     O43033   7.173   3.396   9.557  0.4774  0.1449 -0.2176
  327MOL0     C43034   7.282   3.382   9.506  0.3757  0.1541  0.5690
  327MOL0     O43035   7.397   3.342   9.566 -0.4785  0.2306 -1.1508
  327MOL0     C43036   7.397   3.344   9.701 -0.2145  0.1496  0.4412
  327MOL0     C43037   7.313   3.276   9.786  0.5484  1.1824  0.3711
  327MOL0     C43038   7.324   3.281   9.926  0.3375  0.0974 -0.1397
  327MOL0     C43039   7.438   3.335   9.988 -0.3606  0.4026  0.5846
  327MOL0     O43040   7.454   3.330  10.125  0.5013 -0.1450  0.1858
  327MOL0     C43041   7.534   3.423  10.203  0.0739 -0.7637  0.5809
  327MOL0     C43042   7.549   3.380  10.353 -0.0620 -0.0258  0.6530
  327MOL0     C43043   7.441   3.426  10.439  0.0018  0.0393  0.7574
  327MOL0     C43044   7.472   3.392  10.582  0.9747  0.4577  0.9528
  327MOL0     C43045   7.373   3.469  10.669 -0.2051 -0.4694  0.5798
  327MOL0     C43046   7.372   3.405  10.810  0.4020  0.0180  1.0399
  327MOL0     C43047   7.277   3.464  10.910  0.0384 -0.5835 -0.5034
  327MOL0     C43048   7.298   3.414  11.053  0.0777  0.1362  0.9248
  327MOL0     N43049   7.202   3.474  11.140 -0.1423  0.0749  0.0581
  327MOL0     C43050   7.070   3.474  11.115  0.6387 -0.6580  0.3880
  327MOL0     C43051   7.020   3.566  11.200 -0.5666 -0.2493 -0.7098
  327MOL0     C43052   6.892   3.645  11.206 -1.2512  0.1377 -0.4973
  327MOL0     C43053   6.778   3.548  11.264 -0.2740 -0.5094 -0.8117
  327MOL0     C43054   6.742   3.574  11.412  0.0113 -0.2025  1.1187
  327MOL0     C43055   6.621   3.487  11.464 -0.5930 -0.4493 -0.1129
  327MOL0     O43056   6.507   3.528  11.382 -0.4876 -0.4241 -0.2372
  327MOL0     C43057   6.393   3.535  11.452 -0.7904  0.0964 -0.4713
  327MOL0     C43058   6.373   3.638  11.543  0.6077 -0.2898  0.8037
  327MOL0     C43059   6.253   3.657  11.612 -0.1232 -0.6212  0.3078
  327MOL0     C43060   6.143   3.564  11.604 -1.2559 -0.1277 -0.1134
  327MOL0     C43061   6.033   3.573  11.708  0.3768 -0.1516  0.3073
  327MOL0     O43062   5.930   3.491  11.688  0.4795 -0.5738  0.0925
  327MOL0     C43063   5.817   3.483  11.757  0.7064 -0.0439 -0.4123
  327MOL0     C43064   5.698   3.441  11.696 -0.1836 -0.0577 -0.0142
  327MOL0     C43065   5.569   3.443  11.752 -1.2275  0.6883 -0.8106
  327MOL0     C43066   5.564   3.481  11.882 -0.6424  0.2161 -0.0695
  327MOL0     O43067   5.443   3.462  11.937  1.2709 -0.1274 -0.1216
  327MOL0     C43068   5.382   3.581  11.997  0.5785  0.4420  0.5278
  327MOL0     C43069   5.230   3.553  12.000 -0.1451  0.7207 -0.0163
  327MOL0     C43070   5.174   3.549  11.852  0.1817 -0.4273 -0.3108
  327MOL0     C43071   5.029   3.510  11.854  0.6781 -0.5981 -0.1603
  327MOL0     C43072   4.954   3.561  11.721  1.1747  0.6925  1.3161
  327MOL0     C43073   4.796   3.530  11.749 -0.2619  0.3057 -0.0530
  327MOL0     C43074   4.720   3.586  11.632  0.8345  0.1487 -0.2049
  327MOL0     C43075   4.571   3.583  11.654 -0.5655 -0.4961 -0.0044
  327MOL0    Cl43076   4.520   3.436  11.742  0.4191 -0.1283 -0.4042
  327MOL0     C43077   5.678   3.526  11.950 -0.7534  0.1635  0.3617
  327MOL0     C43078   5.800   3.525  11.889  0.6821  0.6728  0.1692
  327MOL0     O43079   6.058   3.629  11.813 -0.1272 -0.5029  0.3741
  327MOL0     C43080   6.164   3.471  11.505  0.1536  0.1543 -0.3642
  327MOL0     C43081   6.277   3.467  11.422  0.7255  0.8703  0.5252
  327MOL0     N43082   7.121   3.593  11.303 -0.2716 -0.0677 -0.4512
  327MOL0     N43083   7.230   3.536  11.258 -0.7827 -0.6398  0.5212
  327MOL0     C43084   7.537   3.382   9.905 -0.3145  0.8786  0.0405
  327MOL0     C43085   7.508   3.398   9.765 -0.7094 -0.3724 -0.3328
  327MOL0     C43086   7.290   3.406   9.363  0.9385 -0.1896  1.1176
  327MOL0     C43087   7.189   3.379   9.270  0.3238 -0.2666 -0.1932
  327MOL0     C43088   7.206   3.398   9.135 -1.3045  1.0180 -0.0497
  327MOL0     C43089   7.323   3.444   9.087 -0.2805 -0.4197 -0.4775
  327MOL0     O43090   7.354   3.471   8.959  0.3988 -0.2133 -0.3186
  327MOL0     C43091   7.479   3.507   8.900 -0.6919  0.5300 -0.8707
  327MOL0     C43092   7.516   3.647   8.928  0.0751  0.0704 -0.2315
  327MOL0     C43093   7.664   3.691   8.909 -0.3595  0.5906 -0.1542
  327MOL0     C43094   7.762   3.612   9.003  0.4778  0.1030 -0.2452
  327MOL0     C43095   7.899   3.617   8.972  0.0244 -0.2645  0.3998
  327MOL0     C43096   8.020   3.626   8.950 -0.1630  1.1123  0.1342
  327MOL0     C43097   7.426   3.459   9.182 -0.8612 -0.0325  0.9261
  327MOL0     C43098   7.416   3.434   9.312  0.2624 -0.0929 -0.1305
  327MOL0     H43099   7.223   3.225   9.753 -0.2480  2.3259  0.7138
  327MOL0     H43100   7.241   3.233   9.977 -0.4673  0.1166 -1.4011
  327MOL0     H43101   7.502   3.527  10.194 -0.4396 -0.9409  0.3276
  327MOL0     H43102   7.635   3.412  10.161  0.6747 -1.0982  2.0558
  327MOL0     H43103   7.641   3.432  10.382  1.1063 -1.6124 -0.0470
  327MOL0     H43104   7.567   3.272  10.359  1.8550  0.1704 -0.8351
  327MOL0     H43105   7.355   3.372  10.400 -0.5021  1.0258  0.4615
  327MOL0     H43106   7.414   3.532  10.441 -0.8969 -0.1870  2.0216
  327MOL0     H43107   7.451   3.286  10.599 -1.2817  0.5690 -0.6851
  327MOL0     H43108   7.574   3.411  10.615  1.2524  1.7040 -0.5024
  327MOL0     H43109   7.272   3.465  10.627 -0.2177  0.1732  0.5461
  327MOL0     H43110   7.398   3.575  10.677 -0.7154  0.0010 -2.7787
  327MOL0     H43111   7.473   3.417  10.851  1.2444 -3.7659  0.5079
  327MOL0     H43112   7.342   3.300  10.807  0.1248 -0.1940  5.5188
  327MOL0     H43113   7.288   3.573  10.905 -0.6611 -0.4058  1.3805
  327MOL0     H43114   7.178   3.425  10.886  0.7064 -1.5241 -1.9343
  327MOL0     H43115   7.396   3.441  11.094  1.8657  2.3756 -3.9853
  327MOL0     H43116   7.287   3.306  11.061 -2.8466  0.0720 -1.7417
  327MOL0     H43117   7.015   3.433  11.032 -0.3502 -0.5298  0.9612
  327MOL0     H43118   6.866   3.696  11.113  2.1680 -0.1230 -1.7587
  327MOL0     H43119   6.910   3.728  11.275  2.0813 -1.2463  0.5159
  327MOL0     H43120   6.815   3.445  11.258  1.9924 -0.0574  2.4989
  327MOL0     H43121   6.699   3.574  11.194 -0.7934 -0.0114 -0.0458
  327MOL0     H43122   6.829   3.546  11.472  0.1291 -0.6936  0.7282
  327MOL0     H43123   6.728   3.682  11.420 -3.0642 -0.3110 -1.1230
  327MOL0     H43124   6.614   3.506  11.572  0.9250  0.2486 -0.1190
  327MOL0     H43125   6.650   3.386  11.435 -0.6132 -0.4141 -0.2567
  327MOL0     H43126   6.454   3.700  11.580  1.3282 -1.3133  0.9612
  327MOL0     H43127   6.261   3.731  11.692  3.5530 -2.6572  2.0885
  327MOL0     H43128   5.705   3.409  11.592 -2.0648 -1.5618  0.2495
  327MOL0     H43129   5.472   3.416  11.710 -1.5113  3.1637 -1.9311
  327MOL0     H43130   5.405   3.669  11.936  2.5650  0.8509  1.7663
  327MOL0     H43131   5.435   3.603  12.090  0.1095 -0.7613  1.0938
  327MOL0     H43132   5.178   3.638  12.045 -1.2424  0.4463 -0.7274
  327MOL0     H43133   5.211   3.458  12.049  0.9904 -0.1277 -1.1424
  327MOL0     H43134   5.222   3.468  11.796 -0.6171 -0.7682 -0.5013
  327MOL0     H43135   5.186   3.649  11.808 -0.6564 -0.4784 -0.6643
  327MOL0     H43136   5.021   3.401  11.853  0.7255 -0.6008 -1.3289
  327MOL0     H43137   4.975   3.559  11.935 -2.4388 -1.9249 -1.3053
  327MOL0     H43138   4.986   3.507  11.632 -1.3448 -2.9361  2.3929
  327MOL0     H43139   4.962   3.668  11.697 -1.9237  0.8273  0.4583
  327MOL0     H43140   4.770   3.575  11.845  2.2529  3.1807 -0.5523
  327MOL0     H43141   4.782   3.422  11.753 -1.7127  0.4795  0.0071
  327MOL0     H43142   4.750   3.685  11.597  1.8723  0.3362  1.1235
  327MOL0     H43143   4.742   3.528  11.542  4.5325  1.2868 -0.1986
  327MOL0     H43144   4.522   3.602  11.558 -1.6396  1.7726  0.9151
  327MOL0     H43145   4.547   3.665  11.722 -4.1969 -2.5627  1.5083
  327MOL0     H43146   5.672   3.578  12.045  3.2996 -0.8123  1.3487
  327MOL0     H43147   5.883   3.553  11.953  0.9756 -0.8524  0.4973
  327MOL0     H43148   6.082   3.401  11.489  0.9146 -0.7705 -0.3056
  327MOL0     H43149   6.277   3.392  11.344 -0.6188 -0.7337  1.9755
  327MOL0     H43150   7.633   3.418   9.942  0.1868  1.8015 -2.0060
  327MOL0     H43151   7.584   3.450   9.709  2.6508 -0.9564  3.2774
  327MOL0     H43152   7.093   3.341   9.301  0.2626 -1.1713 -1.4214
  327MOL0     H43153   7.135   3.366   9.059  0.7860  0.3942 -1.8518
  327MOL0     H43154   7.468   3.488   8.793  3.3216  3.5002 -2.0550
  327MOL0     H43155   7.555   3.438   8.939 -0.1334 -1.1263 -4.5371
  327MOL0     H43156   7.456   3.696   8.851 -0.2959  1.1226  0.7018
  327MOL0     H43157   7.472   3.679   9.023  1.0852 -1.0446  0.6598
  327MOL0     H43158   7.685   3.794   8.938 -1.8036  0.4241  1.7093
  327MOL0     H43159   7.683   3.673   8.803 -2.3133  2.1306 -0.8442
  327MOL0     H43160   7.755   3.655   9.103 -1.2884  3.5016 -1.6592
  327MOL0     H43161   7.744   3.505   8.998  3.9811 -0.5346 -3.9022
  327MOL0     H43162   8.124   3.642   8.926  0.3590 -0.3759  1.2691
  327MOL0     H43163   7.529   3.471   9.149 -0.2319 -1.4529  2.2494
  327MOL0     H43164   7.508   3.445   9.368  0.3107  0.3137 -0.2907
  328MOL0     O43165  10.045   1.466   3.921 -0.8484  0.1042 -0.3128
  328MOL0     C43166  10.051   1.459   4.045  0.9207 -0.3214  0.9469
  328MOL0     O43167   9.951   1.462   4.129  0.2198  0.4092  0.3210
  328MOL0     C43168   9.817   1.474   4.096 -0.6009  0.7148  0.4380
  328MOL0     C43169   9.743   1.469   4.210  0.4371  0.4572  0.3286
  328MOL0     C43170   9.602   1.472   4.200 -0.2716 -0.0903 -0.4813
  328MOL0     C43171   9.536   1.456   4.081 -1.3555 -0.4545  0.4267
  328MOL0     O43172   9.404   1.437   4.095 -0.6309  0.1333  0.6052
  328MOL0     C43173   9.334   1.402   3.978  0.2873 -0.2674  0.8761
  328MOL0     C43174   9.183   1.381   4.009 -0.5880 -0.0490  0.7268
  328MOL0     C43175   9.124   1.518   4.031 -0.2323  0.4989  0.2239
  328MOL0     C43176   8.970   1.520   4.024 -0.2172 -0.8949  0.0633
  328MOL0     C43177   8.924   1.627   4.130 -0.0478 -0.0178  0.9514
  328MOL0     C43178   8.779   1.619   4.148  0.1821 -0.1712 -0.1175
  328MOL0     C43179   8.729   1.712   4.253 -0.2007  0.6746 -0.2471
  328MOL0     C43180   8.605   1.670   4.338 -0.0293  0.3307 -0.3164
  328MOL0     N43181   8.482   1.660   4.258 -0.3121  0.0055  0.6040
  328MOL0     C43182   8.450   1.559   4.181  0.3865 -0.6383 -0.8548
  328MOL0     C43183   8.338   1.593   4.118 -0.1694 -0.7098 -0.2658
  328MOL0     C43184   8.255   1.502   4.028  0.6478 -0.4706  0.3390
  328MOL0     C43185   8.349   1.435   3.923  0.0111 -0.1763  0.4050
  328MOL0     C43186   8.269   1.324   3.836 -0.9091 -0.9895  0.6345
  328MOL0     C43187   8.143   1.380   3.772 -0.7964  0.6283  0.0150
  328MOL0     O43188   8.112   1.302   3.664 -0.1026  0.2912  0.0269
  328MOL0     C43189   7.976   1.284   3.624 -0.1519  0.0555 -0.2839
  328MOL0     C43190   7.961   1.178   3.535 -0.2128  0.2545 -0.3774
  328MOL0     C43191   7.847   1.149   3.464  0.2122 -0.9135 -0.4393
  328MOL0     C43192   7.729   1.235   3.487 -0.6863  0.0767 -0.2500
  328MOL0     C43193   7.600   1.204   3.428  0.4358  0.8036 -0.6963
  328MOL0     O43194   7.599   1.103   3.333  0.0323 -0.6985  0.1292
  328MOL0     C43195   7.480   1.074   3.275  0.7204  0.3267  0.0566
  328MOL0     C43196   7.462   1.100   3.137 -0.7089 -0.0230 -1.1095
  328MOL0     C43197   7.365   1.035   3.070  0.0331  0.1964  0.2077
  328MOL0     C43198   7.269   0.955   3.137  0.5922 -0.5200 -0.4923
  328MOL0     O43199   7.179   0.875   3.073  0.5513  0.1722 -0.6461
  328MOL0     C43200   7.105   0.929   2.965  0.7919  0.4733 -0.3975
  328MOL0     C43201   7.018   1.041   3.019  0.4782 -0.9444  0.3660
  328MOL0     C43202   6.916   0.988   3.117 -0.2336 -0.2891  0.5075
  328MOL0     C43203   6.823   1.102   3.165  0.3200 -0.3339 -0.3739
  328MOL0     C43204   6.709   1.049   3.248 -0.3453 -0.5063  0.7416
  328MOL0     C43205   6.616   0.969   3.157 -0.8921  0.6230  0.0561
  328MOL0     C43206   6.481   0.989   3.204 -0.5811  0.5048  0.3263
  328MOL0     C43207   6.384   0.896   3.134  0.4429 -0.3741 -0.8609
  328MOL0    Cl43208   6.383   0.912   2.962 -0.0763  0.5259 -0.0015
  328MOL0     C43209   7.277   0.947   3.279 -0.8923  0.2345  0.2635
  328MOL0     C43210   7.380   1.009   3.340 -0.6871  0.0562  0.5934
  328MOL0     O43211   7.499   1.260   3.472  0.2555 -0.1060  0.2382
  328MOL0     C43212   7.742   1.333   3.582 -0.1846 -0.0659 -0.1532
  328MOL0     C43213   7.854   1.350   3.657 -0.2509  0.1554 -0.6404
  328MOL0     N43214   8.296   1.719   4.157 -1.3793  0.0274  0.5690
  328MOL0     N43215   8.390   1.752   4.234  0.2959  0.1789  0.1914
  328MOL0     C43216   9.609   1.453   3.959  0.1698  0.2300 -1.1710
  328MOL0     C43217   9.751   1.459   3.964 -0.1298  0.9765 -0.8028
  328MOL0     C43218  10.192   1.433   4.096 -0.3004 -0.1270  0.0232
  328MOL0     C43219  10.285   1.373   4.020  0.5981 -0.0738 -0.8594
  328MOL0     C43220  10.425   1.377   4.065  0.5284 -0.7885 -0.2540
  328MOL0     C43221  10.453   1.395   4.208  0.6537  1.4405  0.1019
  328MOL0     O43222  10.570   1.366   4.265  0.2341 -0.2421 -0.2770
  328MOL0     C43223  10.653   1.263   4.195 -0.9920 -0.4687 -0.2411
  328MOL0     C43224  10.771   1.233   4.284 -0.7209  0.3571 -0.7035
  328MOL0     C43225  10.732   1.183   4.421 -0.3246  0.2415 -0.3825
  328MOL0     C43226  10.747   1.307   4.513  1.0238 -0.4037  0.2244
  328MOL0     C43227  10.701   1.272   4.645  0.7200  0.2623 -0.4816
  328MOL0     C43228  10.642   1.238   4.744 -0.4841 -0.4933 -0.7508
  328MOL0     C43229  10.345   1.440   4.285 -0.0769  0.0551  0.0948
  328MOL0     C43230  10.219   1.463   4.228  0.7768  0.3492 -0.4861
  328MOL0     H43231   9.790   1.455   4.307  1.5019  2.7295  0.2236
  328MOL0     H43232   9.550   1.463   4.294 -1.8513  2.1901 -1.0536
  328MOL0     H43233   9.379   1.318   3.924 -0.2908 -0.7274  1.0949
  328MOL0     H43234   9.342   1.493   3.917 -3.0355  0.3704  1.1911
  328MOL0     H43235   9.167   1.312   4.094  0.7199  0.2898  1.2663
  328MOL0     H43236   9.143   1.339   3.916  0.5062 -0.0248  0.2384
  328MOL0     H43237   9.157   1.591   3.957 -3.6575  1.7870 -0.2495
  328MOL0     H43238   9.149   1.567   4.125 -4.8500 -1.9737  3.1684
  328MOL0     H43239   8.930   1.537   3.923  1.0975 -2.2446 -0.7139
  328MOL0     H43240   8.928   1.425   4.056  0.4353 -1.4657 -0.7355
  328MOL0     H43241   8.959   1.728   4.106 -1.1694  0.1894  0.1516
  328MOL0     H43242   8.980   1.596   4.219  0.9315  0.6808  0.5991
  328MOL0     H43243   8.758   1.515   4.172 -2.3159 -0.4815 -3.0327
  328MOL0     H43244   8.727   1.634   4.052 -1.2487 -1.3083  0.4444
  328MOL0     H43245   8.804   1.727   4.332  0.0107 -2.5493  0.2746
  328MOL0     H43246   8.715   1.808   4.203  0.1501  0.7843 -0.1355
  328MOL0     H43247   8.593   1.738   4.423  1.4874  0.7136 -0.3995
  328MOL0     H43248   8.625   1.574   4.388  0.0356 -0.2325 -1.3938
  328MOL0     H43249   8.503   1.465   4.176 -1.4923 -1.6935 -2.0404
  328MOL0     H43250   8.175   1.555   3.975 -0.2612 -1.3310  0.8076
  328MOL0     H43251   8.205   1.418   4.079 -0.6382  0.1388  0.1372
  328MOL0     H43252   8.433   1.379   3.965  0.1573 -0.2602  0.0051
  328MOL0     H43253   8.387   1.516   3.860 -0.1988  1.6828  2.5160
  328MOL0     H43254   8.339   1.289   3.760 -3.0809 -1.8322 -1.0609
  328MOL0     H43255   8.255   1.229   3.888  1.0271 -0.9003  1.4264
  328MOL0     H43256   8.161   1.485   3.748  2.2300  0.7996  2.3139
  328MOL0     H43257   8.063   1.370   3.845 -0.1215 -2.1201  0.4962
  328MOL0     H43258   8.051   1.121   3.516 -0.8148 -2.1692  3.1323
  328MOL0     H43259   7.850   1.070   3.390  1.5850 -0.8781 -0.4413
  328MOL0     H43260   7.541   1.166   3.102 -2.4047  2.2541 -0.7947
  328MOL0     H43261   7.361   1.052   2.962  0.1886 -0.0508  0.1628
  328MOL0     H43262   7.050   0.849   2.915  0.6381 -1.4855  2.6566
  328MOL0     H43263   7.167   0.981   2.891 -3.5216  4.4024 -1.7810
  328MOL0     H43264   6.961   1.086   2.937 -0.9908 -0.0244  1.8393
  328MOL0     H43265   7.077   1.119   3.068  0.4779 -0.7753  0.1026
  328MOL0     H43266   6.964   0.960   3.211 -2.2238  0.5129  1.8093
  328MOL0     H43267   6.867   0.897   3.081  1.0547 -0.7688 -0.0886
  328MOL0     H43268   6.884   1.163   3.233  3.6801 -1.0875 -2.4777
  328MOL0     H43269   6.784   1.149   3.075 -0.6285  0.4793  0.4356
  328MOL0     H43270   6.660   1.137   3.290  2.9738  2.9569 -1.9130
  328MOL0     H43271   6.741   0.980   3.327 -1.7131 -1.0857  0.8206
  328MOL0     H43272   6.647   0.864   3.167  1.2016  0.8058 -3.0821
  328MOL0     H43273   6.629   0.997   3.052 -1.6386 -0.0025 -0.2117
  328MOL0     H43274   6.474   0.958   3.308  1.1338 -1.8742 -0.1682
  328MOL0     H43275   6.447   1.092   3.191  0.4133  0.9374  1.0564
  328MOL0     H43276   6.283   0.904   3.175  1.0843 -0.3658  0.8056
  328MOL0     H43277   6.427   0.796   3.148  3.7843  1.0371 -0.1245
  328MOL0     H43278   7.227   0.870   3.337  2.0377 -1.4205  0.7830
  328MOL0     H43279   7.398   0.993   3.446  0.6878 -0.9354  0.2388
  328MOL0     H43280   7.663   1.403   3.606  2.1433  2.1451  1.6860
  328MOL0     H43281   7.866   1.442   3.713  5.9153  1.0646 -2.7390
  328MOL0     H43282   9.564   1.433   3.863 -1.2933 -0.1223 -0.4298
  328MOL0     H43283   9.817   1.431   3.882 -0.0471  0.3763 -0.5340
  328MOL0     H43284  10.266   1.353   3.915 -1.9872 -1.2510 -0.2591
  328MOL0     H43285  10.509   1.349   4.003  1.4434 -1.2176  1.1358
  328MOL0     H43286  10.696   1.290   4.098 -0.7379 -3.7385 -1.1544
  328MOL0     H43287  10.591   1.176   4.173 -3.6709  2.1966 -5.0727
  328MOL0     H43288  10.826   1.153   4.234 -1.5373 -1.8656  1.6963
  328MOL0     H43289  10.845   1.313   4.285  1.2667 -1.3471  1.4760
  328MOL0     H43290  10.804   1.105   4.450  1.3253  2.2255  1.1662
  328MOL0     H43291  10.636   1.130   4.420  0.9962 -2.3437  0.1745
  328MOL0     H43292  10.855   1.327   4.509  1.7481 -3.7518 -2.6870
  328MOL0     H43293  10.685   1.390   4.479  0.3762 -0.0754  2.0825
  328MOL0     H43294  10.580   1.195   4.820 -0.0284 -2.0487 -1.2216
  328MOL0     H43295  10.365   1.463   4.389  0.7732 -0.6464  0.0914
  328MOL0     H43296  10.139   1.504   4.288  0.2902 -0.7463 -0.3681
  329MOL0     O43297   5.071   8.240   3.828 -1.1457  0.4724 -0.1315
  329MOL0     C43298   5.116   8.348   3.817 -0.1376 -0.8474  1.3096
  329MOL0     O43299   5.046   8.468   3.819 -0.5805  0.2644  0.6273
  329MOL0     C43300   4.918   8.461   3.849  0.3112 -0.0997  0.1271
  329MOL0     C43301   4.833   8.465   3.743 -0.2824 -0.0743 -0.0048
  329MOL0     C43302   4.692   8.470   3.763 -0.0256 -0.2111 -0.1022
  329MOL0     C43303   4.643   8.447   3.893  0.3733 -0.4860 -0.4529
  329MOL0     O43304   4.511   8.458   3.920 -0.5293  0.6158 -0.3886
  329MOL0     C43305   4.414   8.417   3.822 -0.0271  0.5062 -0.7266
  329MOL0     C43306   4.285   8.406   3.891  0.0695  0.1995 -0.5255
  329MOL0     C43307   4.177   8.367   3.796 -1.4454  0.4959  0.1554
  329MOL0     C43308   4.036   8.369   3.869 -0.2521  0.1752 -0.1349
  329MOL0     C43309   3.909   8.323   3.786 -0.2799 -0.1436 -0.4501
  329MOL0     C43310   3.791   8.280   3.871  1.1494 -0.4407 -0.7301
  329MOL0     C43311   3.658   8.235   3.794  0.2476  0.3728 -0.2848
  329MOL0     C43312   3.574   8.135   3.873  0.5857 -0.3646  0.5532
  329MOL0     N43313   3.474   8.074   3.788 -0.0465 -0.3786  0.8626
  329MOL0     C43314   3.472   7.940   3.756  0.0053  0.8900 -0.2545
  329MOL0     C43315   3.351   7.913   3.703  0.3923 -0.6235 -0.2611
  329MOL0     C43316   3.314   7.786   3.634 -0.4688  1.1918 -0.0593
  329MOL0     C43317   3.372   7.670   3.710 -0.3807  0.2854  0.1605
  329MOL0     C43318   3.317   7.638   3.845  0.1381  0.2881 -0.1844
  329MOL0     C43319   3.176   7.587   3.829  0.4622 -0.4090 -0.3703
  329MOL0     O43320   3.079   7.681   3.782 -0.0032  0.1703  0.0122
  329MOL0     C43321   2.952   7.628   3.765 -0.0883 -0.5897  0.1749
  329MOL0     C43322   2.900   7.502   3.769 -0.6314  0.2008 -1.1062
  329MOL0     C43323   2.768   7.480   3.741  0.4259 -0.3034  1.2076
  329MOL0     C43324   2.671   7.581   3.706  0.2518 -0.3955  0.0975
  329MOL0     C43325   2.525   7.550   3.677  0.5422 -0.6816 -0.1010
  329MOL0     O43326   2.447   7.658   3.631  0.1866 -0.3427 -0.2872
  329MOL0     C43327   2.330   7.634   3.589  0.3442  0.0785 -0.5298
  329MOL0     C43328   2.300   7.685   3.460  0.9430 -0.2048  0.1469
  329MOL0     C43329   2.180   7.655   3.404  0.0601 -0.5781  0.4779
  329MOL0     C43330   2.081   7.577   3.466 -0.5504 -0.1745  0.3682
  329MOL0     O43331   1.961   7.534   3.416 -0.2862  0.0984  0.4305
  329MOL0     C43332   1.909   7.579   3.290 -0.2698  0.1527  0.4099
  329MOL0     C43333   1.815   7.471   3.238  0.0672 -0.7170  0.8622
  329MOL0     C43334   1.906   7.362   3.170  0.1956 -0.4751 -0.3916
  329MOL0     C43335   1.809   7.262   3.119  0.0331  0.7861 -0.5405
  329MOL0     C43336   1.861   7.152   3.022  0.2429  0.6844 -0.7166
  329MOL0     C43337   1.953   7.047   3.099  0.2284 -0.3265 -0.7117
  329MOL0     C43338   1.992   6.920   3.016  0.0069 -0.1065 -0.1419
  329MOL0     C43339   2.044   6.800   3.095  0.0166 -0.3905  0.0667
  329MOL0    Cl43340   2.134   6.847   3.252  0.7080 -0.0104  0.1031
  329MOL0     C43341   2.109   7.532   3.601  0.4043 -0.5043 -0.0336
  329MOL0     C43342   2.233   7.556   3.658  0.8703 -0.5063  0.0560
  329MOL0     O43343   2.493   7.434   3.700  0.1056 -0.4043  0.2862
  329MOL0     C43344   2.731   7.703   3.686  0.2754 -0.1267 -0.2263
  329MOL0     C43345   2.864   7.724   3.723  0.0736 -1.2866 -0.3609
  329MOL0     N43346   3.272   8.025   3.710  0.6648 -0.1237 -0.1748
  329MOL0     N43347   3.352   8.119   3.748  0.6288  0.3499  0.4378
  329MOL0     C43348   4.730   8.440   4.002 -0.2550  0.1229  0.0497
  329MOL0     C43349   4.870   8.449   3.978  0.5465  0.5803  0.1666
  329MOL0     C43350   5.268   8.363   3.816  0.7219 -0.3230  0.5429
  329MOL0     C43351   5.342   8.473   3.886 -0.1340  0.4082  0.3342
  329MOL0     C43352   5.484   8.480   3.877 -0.1516  0.2397  0.2039
  329MOL0     C43353   5.562   8.373   3.826 -1.0903  0.1969 -0.4489
  329MOL0     O43354   5.703   8.380   3.854  0.5796  0.0978  0.6866
  329MOL0     C43355   5.786   8.295   3.784  0.1126  0.2809  0.5790
  329MOL0     C43356   5.925   8.358   3.796 -0.2149  0.3311 -0.4007
  329MOL0     C43357   6.036   8.283   3.716  0.5089 -0.2727 -0.4231
  329MOL0     C43358   6.165   8.364   3.724  0.1582 -0.0685  0.3165
  329MOL0     C43359   6.266   8.303   3.636 -0.1630 -0.8101  0.7131
  329MOL0     C43360   6.359   8.271   3.570  0.5558 -0.4238  0.3180
  329MOL0     C43361   5.491   8.263   3.785 -0.1083  0.3302  0.2798
  329MOL0     C43362   5.350   8.260   3.770 -1.0780  0.7045  0.2775
  329MOL0     H43363   4.880   8.484   3.647  0.4744 -2.6428 -0.2060
  329MOL0     H43364   4.640   8.484   3.669  2.6004  1.7625 -1.3764
  329MOL0     H43365   4.434   8.314   3.787  0.0703 -0.3678  1.7384
  329MOL0     H43366   4.414   8.469   3.725  2.2516  0.4148 -0.8396
  329MOL0     H43367   4.256   8.502   3.934  0.1043 -0.7572  1.7654
  329MOL0     H43368   4.293   8.336   3.975  1.4074 -0.9709 -1.5677
  329MOL0     H43369   4.201   8.264   3.770  0.1048  0.2475  2.2376
  329MOL0     H43370   4.181   8.427   3.705  0.8772  1.1636  0.6202
  329MOL0     H43371   4.051   8.315   3.963 -2.8137  1.1157  0.9056
  329MOL0     H43372   4.019   8.471   3.907  0.2670  0.5325 -0.8361
  329MOL0     H43373   3.938   8.243   3.718 -0.0773  0.7475 -1.4578
  329MOL0     H43374   3.880   8.396   3.710  1.0743 -2.3243 -3.2265
  329MOL0     H43375   3.754   8.363   3.932 -4.0550 -2.3534 -0.7932
  329MOL0     H43376   3.811   8.193   3.935  0.0395 -0.1001  0.1232
  329MOL0     H43377   3.602   8.319   3.754 -1.4117 -0.8953 -0.7358
  329MOL0     H43378   3.690   8.167   3.714 -0.8164 -2.4161  1.5152
  329MOL0     H43379   3.529   8.184   3.960 -1.8696  1.8259 -1.8083
  329MOL0     H43380   3.635   8.058   3.922 -2.7233 -4.6648 -1.4732
  329MOL0     H43381   3.549   7.865   3.775 -1.5603 -0.9984 -1.0681
  329MOL0     H43382   3.360   7.788   3.535  1.8367  4.1905  0.9052
  329MOL0     H43383   3.205   7.778   3.627 -0.2634 -1.3285 -1.5112
  329MOL0     H43384   3.481   7.680   3.710 -0.4516  1.1773 -0.2143
  329MOL0     H43385   3.353   7.582   3.648  0.3568  0.4844 -0.3576
  329MOL0     H43386   3.383   7.563   3.888  0.3939  0.0944 -0.9010
  329MOL0     H43387   3.312   7.730   3.904 -4.5100  1.8948 -2.5686
  329MOL0     H43388   3.124   7.559   3.921 -1.4315 -0.0114 -1.2793
  329MOL0     H43389   3.177   7.524   3.739  2.4752  1.4408 -1.7167
  329MOL0     H43390   2.966   7.417   3.782 -2.1240 -0.9476 -0.6883
  329MOL0     H43391   2.723   7.381   3.739  0.8694 -0.5160 -0.6606
  329MOL0     H43392   2.380   7.736   3.406  2.1454 -0.5524  1.5373
  329MOL0     H43393   2.159   7.684   3.302  1.5545  0.1231  0.3327
  329MOL0     H43394   1.987   7.609   3.220 -0.2741 -0.9736 -0.0880
  329MOL0     H43395   1.852   7.671   3.303 -0.1207  0.4953 -1.1691
  329MOL0     H43396   1.751   7.507   3.157 -1.2096 -3.3382  0.5976
  329MOL0     H43397   1.743   7.427   3.308 -0.3364 -5.1093 -1.8799
  329MOL0     H43398   1.965   7.325   3.254 -0.8859 -1.7197 -0.1466
  329MOL0     H43399   1.974   7.396   3.092 -1.0791  1.7531 -0.6157
  329MOL0     H43400   1.760   7.223   3.208 -0.2804  2.9231  0.2850
  329MOL0     H43401   1.730   7.305   3.056 -1.4144 -0.2369  0.5218
  329MOL0     H43402   1.923   7.192   2.941 -0.6516 -0.0596 -1.7992
  329MOL0     H43403   1.778   7.095   2.980  2.1099 -2.1217 -0.8030
  329MOL0     H43404   1.886   7.012   3.179 -0.7608  2.6257 -0.1286
  329MOL0     H43405   2.045   7.094   3.133 -0.9338  2.6170 -1.3090
  329MOL0     H43406   1.899   6.885   2.971  0.8115 -1.2593 -0.9788
  329MOL0     H43407   2.054   6.962   2.936  1.6137 -2.7844 -0.4148
  329MOL0     H43408   2.103   6.733   3.032 -1.6850 -3.1219  1.1674
  329MOL0     H43409   1.953   6.746   3.124 -1.7188  1.9141 -0.7880
  329MOL0     H43410   2.032   7.472   3.648  0.5229 -0.8656 -0.3066
  329MOL0     H43411   2.231   7.530   3.763 -2.1261 -0.0119  0.2212
  329MOL0     H43412   2.669   7.782   3.644 -0.1889  0.4814  1.5079
  329MOL0     H43413   2.911   7.820   3.706  0.8598 -1.7260 -0.6697
  329MOL0     H43414   4.704   8.441   4.107  2.1736  1.3194  0.7236
  329MOL0     H43415   4.931   8.427   4.065 -0.6803 -0.6254  0.7624
  329MOL0     H43416   5.288   8.552   3.937 -2.6114  1.6342 -3.7608
  329MOL0     H43417   5.538   8.569   3.908  0.6193 -1.1218  3.1335
  329MOL0     H43418   5.755   8.301   3.680 -0.5836  0.7327  0.8058
  329MOL0     H43419   5.775   8.190   3.811 -0.9927  0.2865  0.1862
  329MOL0     H43420   5.927   8.461   3.759  2.3809  0.8715  0.9369
  329MOL0     H43421   5.962   8.360   3.900  2.3653  1.9683 -1.2414
  329MOL0     H43422   6.013   8.272   3.610  2.1960 -2.1508 -0.6538
  329MOL0     H43423   6.044   8.183   3.760  0.2590 -0.2272 -0.2718
  329MOL0     H43424   6.150   8.467   3.690 -1.3377 -0.9850 -2.1172
  329MOL0     H43425   6.212   8.356   3.822  1.4993  2.2317 -0.0816
  329MOL0     H43426   6.445   8.244   3.512 -0.5594  1.8242 -2.5781
  329MOL0     H43427   5.546   8.180   3.744 -2.9090 -1.7851  0.5306
  329MOL0     H43428   5.305   8.173   3.722  0.0486  1.6419 -2.6663
  330MOL0     O43429   2.396  10.734   2.579 -0.1623 -0.5357 -0.8308
  330MOL0     C43430   2.338  10.785   2.678  0.0794  0.2850  0.2117
  330MOL0     O43431   2.399  10.815   2.795 -0.8567  0.4412  0.2310
  330MOL0     C43432   2.530  10.785   2.808  0.0397  0.3768  0.1777
  330MOL0     C43433   2.623  10.864   2.740  0.6106 -0.1261 -1.0155
  330MOL0     C43434   2.766  10.844   2.761  0.3478 -0.5307 -0.1907
  330MOL0     C43435   2.812  10.735   2.842  0.5511  0.4367 -0.3316
  330MOL0     O43436   2.945  10.721   2.848 -0.0542 -0.0778 -0.2318
  330MOL0     C43437   3.000  10.600   2.895  0.1312 -0.1796 -0.6071
  330MOL0     C43438   3.145  10.577   2.850 -0.1237  0.0292 -0.4100
  330MOL0     C43439   3.241  10.701   2.845  0.3591  0.4299 -0.3655
  330MOL0     C43440   3.388  10.673   2.812  0.6588 -0.1289  0.1783
  330MOL0     C43441   3.460  10.800   2.793  0.2670  0.2575 -0.4637
  330MOL0     C43442   3.599  10.780   2.726  0.1814 -0.0645  0.3258
  330MOL0     C43443   3.675  10.914   2.699 -0.4598  0.6677 -0.3886
  330MOL0     C43444   3.805  10.887   2.626 -1.0411  1.0201  0.1672
  330MOL0     N43445   3.777  10.825   2.496  0.5686 -0.1480 -0.3635
  330MOL0     C43446   3.711  10.880   2.397  0.2817 -1.0840  0.0163
  330MOL0     C43447   3.701  10.786   2.305  0.6766  0.4869 -0.5478
  330MOL0     C43448   3.648  10.796   2.161 -0.7588  0.1004  0.1708
  330MOL0     C43449   3.501  10.810   2.168 -0.1590  0.5482  0.3669
  330MOL0     C43450   3.438  10.765   2.034  0.7153  0.5971  0.9529
  330MOL0     C43451   3.294  10.808   2.026 -0.2014 -0.5822 -0.1208
  330MOL0     O43452   3.240  10.736   1.913  0.3049 -0.2977 -0.2461
  330MOL0     C43453   3.109  10.741   1.894  1.2177 -0.5220  1.6374
  330MOL0     C43454   3.059  10.715   1.762 -0.0516  1.6023  0.0458
  330MOL0     C43455   2.922  10.719   1.741  0.1564  0.7763  0.6204
  330MOL0     C43456   2.833  10.758   1.838 -0.4861  0.0535  0.2225
  330MOL0     C43457   2.682  10.762   1.825 -0.3376 -0.6228  0.2551
  330MOL0     O43458   2.606  10.793   1.940 -0.3024 -0.6641  1.0727
  330MOL0     C43459   2.473  10.782   1.935  0.3186 -1.5173  0.6200
  330MOL0     C43460   2.422  10.860   2.041  0.2239 -1.1279  0.4744
  330MOL0     C43461   2.275  10.870   2.056 -0.8222  0.3839  1.0346
  330MOL0     C43462   2.194  10.795   1.973  0.2586  0.2144  0.2075
  330MOL0     O43463   2.056  10.797   1.991 -0.1389 -0.2016  0.2021
  330MOL0     C43464   1.992  10.670   1.984  0.0454  0.5367 -0.7603
  330MOL0     C43465   1.849  10.670   2.044  0.0787 -0.8702  0.8985
  330MOL0     C43466   1.750  10.698   1.936 -0.1897 -0.5481 -0.2837
  330MOL0     C43467   1.632  10.788   1.981 -0.0797 -0.5005 -0.6049
  330MOL0     C43468   1.517  10.782   1.877  0.4528  0.2515 -0.6879
  330MOL0     C43469   1.384  10.797   1.934 -0.0960 -0.8152  0.6616
  330MOL0     C43470   1.347  10.944   1.972 -0.5605  0.8473  0.0420
  330MOL0     C43471   1.195  10.951   2.007 -0.1891  0.5176  0.0573
  330MOL0    Cl43472   1.173  10.906   2.183 -0.1132  0.1331  0.2363
  330MOL0     C43473   2.248  10.725   1.865  0.0892  0.8295  1.0617
  330MOL0     C43474   2.390  10.715   1.842 -0.7681  0.7080 -1.2138
  330MOL0     O43475   2.643  10.751   1.711  0.1265 -0.3980  0.3761
  330MOL0     C43476   2.890  10.789   1.961  0.2195  0.2563  0.2396
  330MOL0     C43477   3.023  10.789   1.989  0.0983 -0.9167 -0.5462
  330MOL0     N43478   3.762  10.672   2.356  0.4420  0.3882  0.3550
  330MOL0     N43479   3.802  10.696   2.474 -0.0500  0.2094  0.6467
  330MOL0     C43480   2.715  10.656   2.913 -0.0792  0.2005 -0.5255
  330MOL0     C43481   2.575  10.686   2.900  0.0720  0.0694 -0.0747
  330MOL0     C43482   2.196  10.829   2.651  0.1106 -0.1085  0.3941
  330MOL0     C43483   2.131  10.783   2.536 -0.7440  1.6177 -0.5210
  330MOL0     C43484   1.999  10.833   2.507 -1.0104  0.0129  0.3695
  330MOL0     C43485   1.935  10.910   2.602 -0.2810 -0.0365 -0.9098
  330MOL0     O43486   1.802  10.920   2.582  0.2563  0.1267 -0.4349
  330MOL0     C43487   1.748  11.052   2.615 -0.0780 -0.1120  0.6918
  330MOL0     C43488   1.625  11.038   2.687  0.4574 -0.0370 -0.8006
  330MOL0     C43489   1.628  10.986   2.840 -0.0180 -1.1979  0.7545
  330MOL0     C43490   1.503  10.907   2.891 -0.6455 -0.5131  0.0319
  330MOL0     C43491   1.470  10.908   3.032  1.0634  0.0929  1.0474
  330MOL0     C43492   1.446  10.897   3.146  0.4607  0.2745 -1.0704
  330MOL0     C43493   1.995  10.959   2.719  0.0995 -0.0714 -0.1517
  330MOL0     C43494   2.132  10.918   2.742 -0.4253  0.0022  0.6337
  330MOL0     H43495   2.587  10.943   2.675 -2.5211  0.1184  0.8108
  330MOL0     H43496   2.838  10.904   2.706 -1.8609  1.8099 -0.7127
  330MOL0     H43497   2.941  10.509   2.888  0.0791 -0.7906  4.2765
  330MOL0     H43498   3.013  10.621   3.002 -0.8034 -0.7888 -0.3677
  330MOL0     H43499   3.123  10.548   2.746  0.3467 -0.0841 -0.4836
  330MOL0     H43500   3.191  10.494   2.904 -1.6128 -1.0448 -0.7272
  330MOL0     H43501   3.251  10.741   2.947  1.9103  3.9300 -1.7190
  330MOL0     H43502   3.192  10.773   2.778 -0.3762 -0.6880 -1.0602
  330MOL0     H43503   3.425  10.612   2.895  0.9842 -2.7953 -1.8056
  330MOL0     H43504   3.400  10.629   2.713  1.4460 -0.0064  0.2188
  330MOL0     H43505   3.466  10.850   2.890 -0.6271 -0.6281  0.0764
  330MOL0     H43506   3.392  10.865   2.738  0.0920  1.5241  1.1891
  330MOL0     H43507   3.571  10.742   2.627  2.3731  1.5392 -0.9982
  330MOL0     H43508   3.658  10.710   2.786 -1.7433 -0.9427  1.3213
  330MOL0     H43509   3.608  10.974   2.638 -2.6177  1.5898  2.6513
  330MOL0     H43510   3.698  10.957   2.797 -1.3794 -1.9241  1.0826
  330MOL0     H43511   3.878  10.824   2.678 -2.5640 -0.6955  0.3272
  330MOL0     H43512   3.860  10.981   2.626  0.1470  0.3405 -0.2421
  330MOL0     H43513   3.691  10.985   2.375  1.2997 -0.9692 -0.3893
  330MOL0     H43514   3.666  10.701   2.111  0.0448  2.2667 -4.1518
  330MOL0     H43515   3.690  10.868   2.091 -1.2909  0.1390 -0.1201
  330MOL0     H43516   3.483  10.917   2.183  2.1041  1.0931 -0.4754
  330MOL0     H43517   3.472  10.752   2.256  1.6037 -0.3332  0.3998
  330MOL0     H43518   3.507  10.801   1.957  0.7235  1.3245  1.2949
  330MOL0     H43519   3.435  10.656   2.040 -0.5500  0.4686 -1.2670
  330MOL0     H43520   3.278  10.915   2.010 -0.1621 -0.7891 -1.7132
  330MOL0     H43521   3.247  10.779   2.120 -1.1242  0.5444 -0.2170
  330MOL0     H43522   3.119  10.679   1.679 -0.7022 -3.6684  1.5392
  330MOL0     H43523   2.883  10.707   1.640 -0.1798  0.7269  0.7531
  330MOL0     H43524   2.488  10.902   2.116  0.1326 -2.3645  1.2773
  330MOL0     H43525   2.224  10.927   2.133 -0.4830 -1.9943  3.1871
  330MOL0     H43526   2.044  10.594   2.044 -4.1094 -3.0712 -1.2089
  330MOL0     H43527   1.998  10.628   1.883  1.8899 -1.6742  0.1769
  330MOL0     H43528   1.860  10.759   2.105 -1.2287 -0.2105  0.2077
  330MOL0     H43529   1.823  10.584   2.107 -0.1350 -1.0640  0.5506
  330MOL0     H43530   1.713  10.607   1.889 -0.2880 -0.7358  0.1545
  330MOL0     H43531   1.809  10.753   1.862  0.3294  1.4766  1.5377
  330MOL0     H43532   1.603  10.748   2.078  0.7895 -0.4725 -0.3179
  330MOL0     H43533   1.672  10.890   1.987 -3.3001  1.1896 -3.6319
  330MOL0     H43534   1.521  10.691   1.815 -0.5964 -1.0282  1.0434
  330MOL0     H43535   1.519  10.856   1.797 -0.4684 -1.2453 -2.1662
  330MOL0     H43536   1.390  10.731   2.021  1.6889 -1.1518  0.3236
  330MOL0     H43537   1.310  10.761   1.862  1.5259 -0.0576 -1.4765
  330MOL0     H43538   1.407  10.976   2.058  1.1373 -4.8270  1.4342
  330MOL0     H43539   1.361  11.005   1.882  2.4088 -0.5846 -0.5754
  330MOL0     H43540   1.138  10.880   1.946  1.2331 -0.4475 -0.2013
  330MOL0     H43541   1.161  11.054   1.993 -0.0809  0.4097 -1.0720
  330MOL0     H43542   2.186  10.658   1.805  1.4409  1.6981 -1.4631
  330MOL0     H43543   2.429  10.655   1.761 -0.9598  1.3379 -1.7771
  330MOL0     H43544   2.830  10.819   2.046 -0.2112 -0.9552  0.3736
  330MOL0     H43545   3.050  10.810   2.092 -0.1364  2.0055 -0.9977
  330MOL0     H43546   2.769  10.595   2.985  3.3454  3.4765  0.0102
  330MOL0     H43547   2.494  10.632   2.949  0.1644  0.8944  1.0129
  330MOL0     H43548   2.174  10.707   2.472 -2.1499 -0.0673  0.4219
  330MOL0     H43549   1.945  10.823   2.414  0.0827 -0.8038 -0.1929
  330MOL0     H43550   1.720  11.086   2.515 -1.6234 -1.9212  0.4598
  330MOL0     H43551   1.820  11.120   2.663  3.0778 -2.9807  0.4398
  330MOL0     H43552   1.563  11.128   2.682  0.1896 -0.2767 -2.4894
  330MOL0     H43553   1.561  10.962   2.643  0.1104 -1.8055  2.4380
  330MOL0     H43554   1.634  11.073   2.907  0.2607 -2.6837  2.7452
  330MOL0     H43555   1.721  10.931   2.851  0.1094 -1.8374 -2.5493
  330MOL0     H43556   1.412  10.949   2.849 -0.4483 -0.9548 -0.8709
  330MOL0     H43557   1.510  10.804   2.855  1.3384 -0.7873  1.0473
  330MOL0     H43558   1.418  10.897   3.250  2.0756 -2.8130 -0.5157
  330MOL0     H43559   1.942  11.011   2.799 -0.1212 -1.2259  0.4692
  330MOL0     H43560   2.190  10.938   2.832  0.0283 -2.6442  1.0236
  331MOL0     O43561   0.552   7.047   3.239 -0.1320  0.6084  0.5782
  331MOL0     C43562   0.617   6.976   3.162 -0.3766  0.4687 -0.2881
  331MOL0     O43563   0.557   6.897   3.066 -0.3923  0.5246  0.1370
  331MOL0     C43564   0.435   6.926   3.024 -0.1253 -0.1879  0.9609
  331MOL0     C43565   0.361   6.825   2.969 -0.3179 -0.3640 -0.2098
  331MOL0     C43566   0.237   6.859   2.911 -0.3128 -0.0522  0.5673
  331MOL0     C43567   0.185   6.985   2.890  0.3827 -0.3322  0.3423
  331MOL0     O43568   0.076   7.034   2.827 -0.0365 -0.1271  0.3621
  331MOL0     C43569  -0.018   6.936   2.781  0.0908  0.5852  0.6612
  331MOL0     C43570  -0.117   7.004   2.684 -0.3156 -0.4617 -1.2359
  331MOL0     C43571  -0.220   6.905   2.631  0.4230  0.1613  0.3389
  331MOL0     C43572  -0.266   6.939   2.485 -0.0895  0.4636  0.4331
  331MOL0     C43573  -0.354   6.822   2.426 -0.4830  0.3699 -0.0421
  331MOL0     C43574  -0.418   6.865   2.291 -0.8898  0.0763  0.1412
  331MOL0     C43575  -0.555   6.944   2.303  0.4576 -0.1812 -0.2063
  331MOL0     C43576  -0.590   7.022   2.168  0.9731  0.1089  0.5224
  331MOL0     N43577  -0.593   6.939   2.047 -0.3205 -0.1264 -0.3152
  331MOL0     C43578  -0.584   6.989   1.916 -0.3722  1.0431 -0.7905
  331MOL0     C43579  -0.571   6.876   1.841  0.2357 -0.9482  0.3126
  331MOL0     C43580  -0.538   6.883   1.696 -0.8526 -0.0293  0.7908
  331MOL0     C43581  -0.659   6.916   1.614  0.1459 -0.7162 -0.4466
  331MOL0     C43582  -0.632   6.912   1.466  0.7393 -0.8400  0.4173
  331MOL0     C43583  -0.748   6.941   1.376  0.3541  0.0487 -0.1486
  331MOL0     O43584  -0.694   6.996   1.259  0.6447 -0.2533  0.3713
  331MOL0     C43585  -0.766   7.025   1.148 -0.6574 -0.7960 -0.2626
  331MOL0     C43586  -0.898   7.005   1.153  0.5815  0.1353  1.2356
  331MOL0     C43587  -0.982   7.021   1.039 -0.1824  0.1893 -0.3225
  331MOL0     C43588  -0.922   7.055   0.914 -0.0074 -0.4772  0.3043
  331MOL0     C43589  -1.006   7.074   0.792  0.0525  0.8425 -0.9287
  331MOL0     O43590  -0.943   7.051   0.670  0.9188 -0.6159 -0.0727
  331MOL0     C43591  -1.028   7.069   0.562 -0.5262  0.0602 -0.5623
  331MOL0     C43592  -1.002   7.165   0.474 -0.0549 -0.2040 -0.2118
  331MOL0     C43593  -1.082   7.189   0.363  0.1977  0.4289  0.8505
  331MOL0     C43594  -1.198   7.110   0.342  0.5289  0.1617 -0.6732
  331MOL0     O43595  -1.286   7.129   0.237  0.5530 -0.2900 -0.2490
  331MOL0     C43596  -1.262   7.229   0.140 -0.4780 -0.1179 -0.1807
  331MOL0     C43597  -1.376   7.229   0.033 -1.0276  0.9743  0.6494
  331MOL0     C43598  -1.355   7.342  -0.073  0.0733 -0.1869  0.5286
  331MOL0     C43599  -1.371   7.481  -0.014 -0.3569  0.4300  0.3596
  331MOL0     C43600  -1.299   7.590  -0.090 -0.1152 -0.8436  0.4669
  331MOL0     C43601  -1.334   7.728  -0.031 -0.2107  0.0293  0.5053
  331MOL0     C43602  -1.485   7.762  -0.056 -0.2662 -0.1207 -0.8136
  331MOL0     C43603  -1.506   7.910  -0.022 -0.9601  0.0294  0.1945
  331MOL0    Cl43604  -1.675   7.949  -0.020  0.4011 -0.1849 -0.4510
  331MOL0     C43605  -1.218   7.010   0.434 -0.0557  0.7627 -0.5934
  331MOL0     C43606  -1.138   6.984   0.544  0.8401 -0.1348 -0.0790
  331MOL0     O43607  -1.127   7.105   0.812  0.4355  0.8842 -0.6037
  331MOL0     C43608  -0.783   7.079   0.912 -0.1969  0.0828  0.1301
  331MOL0     C43609  -0.707   7.068   1.022 -0.7696  0.2073 -0.5844
  331MOL0     N43610  -0.580   6.765   1.925  0.0698  0.1934  0.5796
  331MOL0     N43611  -0.607   6.801   2.045  0.5414 -0.0565 -0.4424
  331MOL0     C43612   0.260   7.086   2.941 -0.3783  0.1756 -0.8169
  331MOL0     C43613   0.385   7.060   3.000  0.2339  0.4511 -0.1340
  331MOL0     C43614   0.762   6.962   3.164  0.2739 -0.7721 -0.6337
  331MOL0     C43615   0.832   6.931   3.048 -0.0902 -0.1860 -0.5282
  331MOL0     C43616   0.970   6.928   3.044 -0.4349 -0.5867 -0.3161
  331MOL0     C43617   1.048   6.960   3.160 -0.7542  0.0234  0.4250
  331MOL0     O43618   1.183   6.965   3.171 -0.6285  0.4093  0.1265
  331MOL0     C43619   1.250   7.048   3.072  0.3879  0.0773  0.2286
  331MOL0     C43620   1.412   7.032   3.077  0.1645  0.1466  0.1652
  331MOL0     C43621   1.449   6.887   3.019 -0.1172  0.7889 -0.0795
  331MOL0     C43622   1.594   6.871   2.953  0.7282 -0.8612 -0.4327
  331MOL0     C43623   1.603   6.964   2.837 -0.4550 -0.7038 -0.3690
  331MOL0     C43624   1.608   7.041   2.739 -0.1658  0.3555 -0.0292
  331MOL0     C43625   0.974   6.986   3.277  0.2388  0.2082 -0.0517
  331MOL0     C43626   0.837   6.992   3.279 -0.1716 -0.3397 -0.3726
  331MOL0     H43627   0.397   6.722   2.969 -0.6561 -0.4832 -0.5462
  331MOL0     H43628   0.198   6.766   2.870 -2.4482  1.3067 -0.6875
  331MOL0     H43629  -0.072   6.884   2.860 -0.9333 -1.1724 -1.1342
  331MOL0     H43630   0.035   6.864   2.719 -4.7452 -1.8867 -1.1099
  331MOL0     H43631  -0.064   7.058   2.605  0.8872  0.4487  0.1272
  331MOL0     H43632  -0.167   7.079   2.747 -0.1694 -0.7658 -0.7509
  331MOL0     H43633  -0.306   6.894   2.698 -1.4763 -0.9316 -2.0659
  331MOL0     H43634  -0.175   6.806   2.619  1.0221  0.5527 -0.8993
  331MOL0     H43635  -0.318   7.035   2.484  1.9028  1.6347 -1.5717
  331MOL0     H43636  -0.180   6.942   2.416  1.0097 -1.4744  1.6252
  331MOL0     H43637  -0.423   6.786   2.503  0.6508 -0.5462  0.5713
  331MOL0     H43638  -0.283   6.740   2.408 -2.2734 -1.7194  1.7258
  331MOL0     H43639  -0.424   6.769   2.238  0.2854  0.2882 -0.4177
  331MOL0     H43640  -0.347   6.926   2.234 -1.2277  0.2822 -0.0574
  331MOL0     H43641  -0.630   6.870   2.333 -1.7870  0.5688 -3.4187
  331MOL0     H43642  -0.554   7.017   2.384  0.0369  0.9707 -1.2181
  331MOL0     H43643  -0.521   7.104   2.149 -1.0065  1.8885  0.7008
  331MOL0     H43644  -0.687   7.072   2.164  1.5802  1.2486 -2.4389
  331MOL0     H43645  -0.570   7.096   1.909 -1.3558  1.5237  2.6195
  331MOL0     H43646  -0.494   6.788   1.667 -2.2861 -1.6160  3.4461
  331MOL0     H43647  -0.467   6.965   1.676 -3.1903  2.0881  0.7002
  331MOL0     H43648  -0.678   7.020   1.641  1.1515 -0.3642 -1.0258
  331MOL0     H43649  -0.736   6.844   1.645 -0.7131 -1.0750 -3.1429
  331MOL0     H43650  -0.553   6.980   1.432  1.3619 -1.7277  0.0688
  331MOL0     H43651  -0.604   6.816   1.423 -1.2707 -0.4588 -1.9753
  331MOL0     H43652  -0.828   6.995   1.426  0.2046 -1.7627  1.6981
  331MOL0     H43653  -0.788   6.844   1.347  0.0647 -0.3112  1.4064
  331MOL0     H43654  -0.954   6.963   1.237 -0.4401  2.8811  2.0218
  331MOL0     H43655  -1.084   6.989   1.058 -1.1614  4.4268  3.2993
  331MOL0     H43656  -0.910   7.220   0.482 -0.0553 -0.4332  1.8929
  331MOL0     H43657  -1.057   7.274   0.300 -1.2858  1.8971  2.1366
  331MOL0     H43658  -1.172   7.204   0.082 -0.7781 -1.6851  0.0025
  331MOL0     H43659  -1.253   7.320   0.199 -0.8292 -1.1535  1.5127
  331MOL0     H43660  -1.476   7.227   0.078  0.0127 -2.1736  3.1794
  331MOL0     H43661  -1.372   7.130  -0.013  1.5507  1.2996  0.0163
  331MOL0     H43662  -1.423   7.329  -0.158 -4.1546  1.6248  3.3391
  331MOL0     H43663  -1.255   7.327  -0.115  0.0280 -0.3536  0.4786
  331MOL0     H43664  -1.471   7.516   0.015  0.6018  3.4438  0.3897
  331MOL0     H43665  -1.321   7.483   0.084 -1.6819  0.4111  1.0663
  331MOL0     H43666  -1.317   7.600  -0.197 -2.6434 -1.9373  0.7175
  331MOL0     H43667  -1.192   7.568  -0.084  0.3368  0.9838 -0.4082
  331MOL0     H43668  -1.274   7.805  -0.080  2.3532 -3.3776 -2.1915
  331MOL0     H43669  -1.315   7.737   0.077 -0.5777 -0.4312  0.6153
  331MOL0     H43670  -1.527   7.725  -0.150 -2.0701 -2.2775  0.7135
  331MOL0     H43671  -1.545   7.708   0.018  1.8426 -0.1718  0.9652
  331MOL0     H43672  -1.453   7.963  -0.102 -0.9207  0.7220  0.6647
  331MOL0     H43673  -1.448   7.922   0.070  0.0535 -1.7349 -0.1895
  331MOL0     H43674  -1.297   6.937   0.419  0.0036  0.2055  1.4647
  331MOL0     H43675  -1.159   6.909   0.619  1.2682  1.0403  1.2709
  331MOL0     H43676  -0.748   7.102   0.813 -2.7945  3.7905 -0.1500
  331MOL0     H43677  -0.599   7.075   1.021 -0.8188  1.3372  0.1087
  331MOL0     H43678   0.213   7.184   2.934 -0.6745  0.1224  0.1946
  331MOL0     H43679   0.444   7.146   3.031 -2.7874  1.5640  3.2158
  331MOL0     H43680   0.783   6.927   2.951  2.5110  2.4900 -2.1156
  331MOL0     H43681   1.026   6.914   2.953  2.9270 -3.7743  1.9930
  331MOL0     H43682   1.217   7.150   3.092  3.6869  1.0440  1.4303
  331MOL0     H43683   1.224   7.014   2.972 -1.1838 -0.9827  0.9565
  331MOL0     H43684   1.462   7.106   3.013  3.0528 -2.6336 -1.0520
  331MOL0     H43685   1.449   7.049   3.178 -0.5300  0.7134  0.3308
  331MOL0     H43686   1.371   6.871   2.945  0.3596 -1.6712 -0.1104
  331MOL0     H43687   1.442   6.801   3.086  0.8130  0.4522 -0.3892
  331MOL0     H43688   1.665   6.894   3.033 -1.3067 -0.5748  1.4026
  331MOL0     H43689   1.610   6.770   2.914  0.5506 -1.1077  0.1243
  331MOL0     H43690   1.597   7.113   2.660  2.3602  0.1339 -0.6956
  331MOL0     H43691   1.031   6.998   3.368 -1.3471  0.4592  0.9492
  331MOL0     H43692   0.778   7.008   3.368  0.6380 -1.9129  0.4771
  332MOL0     O43693   2.118   2.279   3.149  0.3428 -0.6868  0.4750
  332MOL0     C43694   2.169   2.289   3.261 -0.9335  0.2878 -1.3005
  332MOL0     O43695   2.097   2.316   3.377 -0.4624 -0.6837 -0.4897
  332MOL0     C43696   1.957   2.341   3.365 -0.4387  0.7670 -0.6749
  332MOL0     C43697   1.904   2.407   3.265 -0.0541 -0.8834 -0.7206
  332MOL0     C43698   1.768   2.430   3.252 -0.6020  0.1549 -0.3514
  332MOL0     C43699   1.683   2.377   3.348  0.6138  0.3058  0.3916
  332MOL0     O43700   1.552   2.423   3.347  0.0362 -0.3344 -0.2882
  332MOL0     C43701   1.475   2.421   3.472  0.4059 -0.7068  0.1907
  332MOL0     C43702   1.326   2.450   3.421 -0.3414 -0.3015  0.2497
  332MOL0     C43703   1.226   2.466   3.530  0.0418 -0.1207 -0.2955
  332MOL0     C43704   1.083   2.509   3.484 -0.4739 -0.9371 -0.0212
  332MOL0     C43705   0.981   2.517   3.610 -0.2878  0.1453  0.4156
  332MOL0     C43706   1.032   2.598   3.719 -0.6809 -1.0013 -0.3108
  332MOL0     C43707   1.072   2.742   3.690  1.2276 -0.7516  0.2350
  332MOL0     C43708   1.077   2.829   3.813  0.6143 -0.6926 -0.3611
  332MOL0     N43709   0.953   2.856   3.878  0.5336 -0.0426  0.3725
  332MOL0     C43710   0.840   2.905   3.819  0.1444  0.5724  1.3454
  332MOL0     C43711   0.749   2.898   3.909  0.3585  0.1869 -0.1185
  332MOL0     C43712   0.620   2.975   3.895  0.8366  0.3085 -0.2990
  332MOL0     C43713   0.559   3.008   4.039 -0.0307  0.3117 -0.0877
  332MOL0     C43714   0.488   2.891   4.101  0.2643  0.9877 -0.4400
  332MOL0     C43715   0.404   2.933   4.228  0.3430 -0.6357  0.4592
  332MOL0     O43716   0.284   2.986   4.186 -0.4188  0.3500 -0.3075
  332MOL0     C43717   0.181   2.985   4.279 -0.1591  0.4517  0.7518
  332MOL0     C43718   0.067   3.032   4.217 -0.4881  0.5146 -1.2735
  332MOL0     C43719  -0.046   3.062   4.288  1.3060 -0.7670 -0.1698
  332MOL0     C43720  -0.049   3.038   4.434 -0.8713 -0.3941  0.2653
  332MOL0     C43721  -0.176   3.065   4.515  0.2148 -0.7907  0.1920
  332MOL0     O43722  -0.177   3.045   4.650  0.1635  0.2513  0.8414
  332MOL0     C43723  -0.298   3.053   4.708 -0.1682 -0.0704 -0.4132
  332MOL0     C43724  -0.351   3.178   4.741  0.7902 -0.2682 -1.4977
  332MOL0     C43725  -0.473   3.194   4.813 -0.1606 -0.0410  0.3391
  332MOL0     C43726  -0.534   3.079   4.866  0.1791  0.2677 -0.5107
  332MOL0     O43727  -0.657   3.086   4.918 -0.6488 -0.0725 -0.5814
  332MOL0     C43728  -0.764   3.162   4.868  0.6184  0.0638  0.6573
  332MOL0     C43729  -0.890   3.073   4.864 -0.0181 -0.4344  0.3638
  332MOL0     C43730  -1.011   3.154   4.924  0.2805 -0.7563  0.2752
  332MOL0     C43731  -1.139   3.058   4.917 -0.3245 -0.1993 -0.1068
  332MOL0     C43732  -1.254   3.109   5.004  1.3615  0.3238  0.2365
  332MOL0     C43733  -1.382   3.012   4.999  0.0873  0.4375 -0.3443
  332MOL0     C43734  -1.510   3.079   5.054  0.4220  0.3520 -0.1357
  332MOL0     C43735  -1.591   2.988   5.150  0.1024 -0.1539  0.3704
  332MOL0    Cl43736  -1.513   2.947   5.297  0.1746  0.2903  0.0071
  332MOL0     C43737  -0.479   2.954   4.834  0.9548  0.0067  0.3636
  332MOL0     C43738  -0.370   2.943   4.746  0.3499 -0.8318 -0.0295
  332MOL0     O43739  -0.275   3.091   4.449  0.0290  0.1751 -0.8117
  332MOL0     C43740   0.068   2.986   4.491  0.1854  0.0030 -1.4765
  332MOL0     C43741   0.180   2.973   4.418 -0.1812 -0.4235  0.0604
  332MOL0     N43742   0.804   2.843   4.021 -0.4631  0.9897  0.0206
  332MOL0     N43743   0.932   2.825   4.008 -0.2647 -0.5557 -0.2040
  332MOL0     C43744   1.740   2.291   3.442 -0.2932 -0.3007  0.2805
  332MOL0     C43745   1.879   2.275   3.451 -0.1305 -0.8064 -0.7600
  332MOL0     C43746   2.316   2.252   3.281 -0.1432  0.5017  1.0695
  332MOL0     C43747   2.378   2.174   3.182 -0.0660 -0.1158  0.5502
  332MOL0     C43748   2.506   2.142   3.202 -0.7272  1.3484 -0.7264
  332MOL0     C43749   2.581   2.182   3.308 -0.5551 -0.0467 -0.8055
  332MOL0     O43750   2.717   2.162   3.322 -0.4547 -0.0945  0.5933
  332MOL0     C43751   2.784   2.103   3.213  0.4378  0.1466 -0.0605
  332MOL0     C43752   2.929   2.098   3.245 -0.7060 -0.3482  0.0734
  332MOL0     C43753   2.995   2.007   3.147 -0.8645  0.3012  0.0761
  332MOL0     C43754   3.153   1.987   3.171 -0.8709 -0.6830  0.5926
  332MOL0     C43755   3.228   2.108   3.139 -0.5523 -0.3622  0.9545
  332MOL0     C43756   3.308   2.193   3.096 -0.6217 -0.4827  0.2157
  332MOL0     C43757   2.517   2.250   3.408  0.0895  0.1942 -0.3206
  332MOL0     C43758   2.381   2.283   3.400 -0.4421  0.0003  0.4299
  332MOL0     H43759   1.982   2.451   3.204  1.4716 -2.8044 -0.2212
  332MOL0     H43760   1.728   2.501   3.181 -1.1061  1.3758  1.1069
  332MOL0     H43761   1.507   2.514   3.521  0.4888 -0.8254  0.3599
  332MOL0     H43762   1.484   2.329   3.530  0.6763  3.0325  7.1340
  332MOL0     H43763   1.291   2.375   3.350  1.6878 -0.4582 -0.6804
  332MOL0     H43764   1.332   2.545   3.367 -0.3695  0.0940  0.9357
  332MOL0     H43765   1.258   2.544   3.600 -1.8694 -1.2584  1.9524
  332MOL0     H43766   1.221   2.369   3.579 -0.0460  1.1461  2.3645
  332MOL0     H43767   1.107   2.609   3.448  0.9387 -1.4520 -0.5816
  332MOL0     H43768   1.054   2.435   3.408  0.2316 -1.6707  0.4055
  332MOL0     H43769   0.977   2.417   3.654  3.0474 -0.4548 -0.3901
  332MOL0     H43770   0.883   2.544   3.570  0.5854  1.7491 -0.7820
  332MOL0     H43771   1.117   2.549   3.767  1.0193  3.4416  1.8025
  332MOL0     H43772   0.949   2.609   3.790 -1.6548 -0.7806 -1.4516
  332MOL0     H43773   1.164   2.734   3.632  2.0105  0.7715  1.2177
  332MOL0     H43774   0.998   2.786   3.623  1.6542 -0.9684 -0.3840
  332MOL0     H43775   1.126   2.922   3.784  1.0415 -0.5050  0.9156
  332MOL0     H43776   1.136   2.775   3.887 -1.4003  0.0477  1.9215
  332MOL0     H43777   0.829   2.952   3.722 -1.1386 -0.6564  0.8424
  332MOL0     H43778   0.549   2.917   3.833  2.3064 -0.6328 -1.1640
  332MOL0     H43779   0.641   3.068   3.842  1.3861  0.1232 -0.4050
  332MOL0     H43780   0.485   3.088   4.026  0.8780  0.9426 -1.6413
  332MOL0     H43781   0.636   3.046   4.106 -1.0283 -1.9210  2.5131
  332MOL0     H43782   0.417   2.848   4.030  0.1324 -1.2970  0.9868
  332MOL0     H43783   0.567   2.825   4.137 -1.3224 -0.9499 -0.3298
  332MOL0     H43784   0.462   3.018   4.265  1.1152  0.0013 -2.0078
  332MOL0     H43785   0.390   2.860   4.308 -1.9319  1.5181  2.2009
  332MOL0     H43786   0.070   3.056   4.111  0.5596 -2.0295 -1.9059
  332MOL0     H43787  -0.137   3.091   4.237 -1.1965 -3.9631  2.0535
  332MOL0     H43788  -0.301   3.271   4.718  0.2485  0.4724  0.1187
  332MOL0     H43789  -0.507   3.294   4.838  4.7503  1.1461  3.8122
  332MOL0     H43790  -0.742   3.198   4.767  0.5763 -2.5950 -0.3898
  332MOL0     H43791  -0.778   3.256   4.922 -0.6899  1.4220 -1.8446
  332MOL0     H43792  -0.877   2.981   4.921  0.4739  1.0075  2.6905
  332MOL0     H43793  -0.903   3.059   4.756 -2.6217 -0.1108  0.5888
  332MOL0     H43794  -1.035   3.244   4.866 -2.1024 -0.7551  1.1771
  332MOL0     H43795  -0.998   3.191   5.026 -0.9657 -1.0620  0.5651
  332MOL0     H43796  -1.177   3.053   4.815 -0.9471  2.0864 -0.0559
  332MOL0     H43797  -1.112   2.956   4.945 -1.5380 -0.8511 -1.1726
  332MOL0     H43798  -1.287   3.205   4.964 -0.8684  0.0205  1.1848
  332MOL0     H43799  -1.215   3.122   5.105  2.2245 -0.0509 -0.0441
  332MOL0     H43800  -1.361   2.921   5.056  1.4771  2.1255  1.9996
  332MOL0     H43801  -1.400   2.987   4.894  3.2133  0.5477 -1.0077
  332MOL0     H43802  -1.493   3.170   5.112 -3.1303  0.0402  1.6778
  332MOL0     H43803  -1.568   3.095   4.962 -0.4312 -2.6230 -0.2164
  332MOL0     H43804  -1.606   2.897   5.090  4.2757  1.0933 -3.1328
  332MOL0     H43805  -1.687   3.033   5.177  0.4379  1.8306 -1.5161
  332MOL0     H43806  -0.537   2.864   4.849  0.1037  0.7895  2.1129
  332MOL0     H43807  -0.335   2.844   4.721 -1.3042 -1.6748  0.8775
  332MOL0     H43808   0.074   2.966   4.597  3.1942 -1.1252 -1.7477
  332MOL0     H43809   0.267   2.936   4.472 -0.5477 -2.0286 -0.3870
  332MOL0     H43810   1.681   2.217   3.494 -1.0641 -0.6308 -1.0147
  332MOL0     H43811   1.923   2.193   3.508 -0.6392 -2.6020 -2.8238
  332MOL0     H43812   2.345   2.134   3.087  1.2606 -2.3537  0.9527
  332MOL0     H43813   2.557   2.080   3.130  0.5013  0.2712  1.0094
  332MOL0     H43814   2.765   2.157   3.120 -1.7621 -1.3829 -0.5659
  332MOL0     H43815   2.744   2.002   3.208  1.7690 -0.4266  0.2491
  332MOL0     H43816   2.966   2.201   3.246  0.7516 -0.7808 -2.3059
  332MOL0     H43817   2.950   2.068   3.348 -1.0702 -0.5590  0.0893
  332MOL0     H43818   2.978   2.048   3.047  0.9064  0.2401 -0.2807
  332MOL0     H43819   2.943   1.911   3.146 -2.8493  1.2934 -2.2731
  332MOL0     H43820   3.181   1.958   3.273  1.1640  1.6954  0.7855
  332MOL0     H43821   3.193   1.913   3.102 -1.1806 -0.0643 -0.2643
  332MOL0     H43822   3.370   2.274   3.066 -1.3680 -0.0762 -0.2496
  332MOL0     H43823   2.566   2.288   3.497 -1.3220 -0.8269  0.9450
  332MOL0     H43824   2.347   2.350   3.478 -0.7687  0.0385  0.2612
  333MOL0     O43825   7.071   0.554   5.763  0.7045 -0.2545  0.1485
  333MOL0     C43826   7.174   0.496   5.751  0.0218  0.1153  0.8909
  333MOL0     O43827   7.187   0.358   5.753  0.4972 -0.0002 -0.1270
  333MOL0     C43828   7.074   0.282   5.735 -0.8806 -0.2087  0.2384
  333MOL0     C43829   7.038   0.202   5.837 -0.4219 -0.3466  0.5451
  333MOL0     C43830   6.929   0.117   5.816 -0.0906  0.7350 -0.1033
  333MOL0     C43831   6.862   0.103   5.695  0.1244  0.4883  0.0532
  333MOL0     O43832   6.760   0.015   5.679 -1.1407  0.6391  0.0257
  333MOL0     C43833   6.656   0.040   5.582 -0.1124 -0.6199 -0.4927
  333MOL0     C43834   6.570   0.150   5.640 -0.3424  0.3166 -0.5441
  333MOL0     C43835   6.423   0.163   5.594 -0.3173 -0.1502  0.5686
  333MOL0     C43836   6.415   0.238   5.455  0.6141  0.6920 -0.2251
  333MOL0     C43837   6.286   0.319   5.449  0.6219 -0.4059 -0.0777
  333MOL0     C43838   6.158   0.250   5.492 -0.7393  0.6503  0.0245
  333MOL0     C43839   6.026   0.307   5.442  0.1321  0.1039  0.1289
  333MOL0     C43840   5.902   0.230   5.473  0.3056  0.2556 -0.9451
  333MOL0     N43841   5.779   0.308   5.444 -0.1577  0.5539  0.4076
  333MOL0     C43842   5.757   0.418   5.355 -0.4640  0.4037 -0.3555
  333MOL0     C43843   5.625   0.459   5.365  0.3066 -1.1011 -0.1888
  333MOL0     C43844   5.551   0.545   5.267 -0.3594 -0.1570  0.3824
  333MOL0     C43845   5.572   0.701   5.304 -0.0593 -0.0235 -0.1598
  333MOL0     C43846   5.520   0.794   5.191  0.0994  0.1230  0.7571
  333MOL0     C43847   5.390   0.761   5.127  1.0252 -0.3803  0.3801
  333MOL0     O43848   5.366   0.844   5.017  0.7030 -0.7334 -0.3702
  333MOL0     C43849   5.243   0.821   4.943  0.0785 -0.2508 -0.2243
  333MOL0     C43850   5.121   0.776   4.996  0.6301 -1.0199  0.5136
  333MOL0     C43851   5.004   0.775   4.915 -0.1723  0.7074 -0.0876
  333MOL0     C43852   5.015   0.815   4.786 -0.5678  1.1474 -0.2971
  333MOL0     C43853   4.888   0.816   4.691  0.4372 -0.2470 -0.5572
  333MOL0     O43854   4.908   0.831   4.561 -0.3076  0.2367  0.3026
  333MOL0     C43855   4.809   0.788   4.465 -0.2601 -0.3693 -0.3816
  333MOL0     C43856   4.811   0.850   4.341 -0.1590  0.6546 -0.3641
  333MOL0     C43857   4.708   0.834   4.250  0.1308 -1.2922 -0.4511
  333MOL0     C43858   4.597   0.751   4.267 -0.6236 -0.3736 -0.3305
  333MOL0     O43859   4.496   0.729   4.177 -0.3585 -0.2275  0.2977
  333MOL0     C43860   4.479   0.833   4.071  0.5009 -0.0599  0.1942
  333MOL0     C43861   4.344   0.818   3.998 -0.4240  0.3546  0.3959
  333MOL0     C43862   4.343   0.783   3.856  0.6432  0.2651 -1.1867
  333MOL0     C43863   4.201   0.794   3.799 -0.2175  0.0443  0.6832
  333MOL0     C43864   4.201   0.745   3.651  0.1823 -0.2271  0.5629
  333MOL0     C43865   4.057   0.725   3.593 -0.1459 -0.4167  0.7742
  333MOL0     C43866   3.957   0.851   3.618  0.0755  0.5622  0.2296
  333MOL0     C43867   3.834   0.845   3.528  0.1200  0.2486 -1.4590
  333MOL0    Cl43868   3.721   0.965   3.582 -0.0145 -0.0011  0.2460
  333MOL0     C43869   4.599   0.688   4.395  0.2870  0.1775 -0.8532
  333MOL0     C43870   4.695   0.709   4.496 -0.2211 -0.0667 -0.2241
  333MOL0     O43871   4.780   0.819   4.751 -0.6201 -0.7783  0.3351
  333MOL0     C43872   5.132   0.871   4.739  0.4063 -0.0484  0.8894
  333MOL0     C43873   5.240   0.876   4.816 -0.0381 -0.7066  0.2239
  333MOL0     N43874   5.573   0.382   5.469 -0.8253 -0.0653  0.1630
  333MOL0     N43875   5.668   0.301   5.517 -0.1598  0.6152 -0.0300
  333MOL0     C43876   6.903   0.187   5.585  0.0205  0.3875 -0.1195
  333MOL0     C43877   7.010   0.283   5.613 -0.6805  0.7207 -0.5645
  333MOL0     C43878   7.293   0.571   5.718 -0.0415 -0.5914  0.2591
  333MOL0     C43879   7.294   0.719   5.711 -0.3109  0.0825 -0.5822
  333MOL0     C43880   7.411   0.790   5.664 -0.0587  0.5817  0.8759
  333MOL0     C43881   7.517   0.720   5.598 -0.1905  0.1125 -0.1334
  333MOL0     O43882   7.627   0.791   5.551  0.8328 -0.1417  0.7120
  333MOL0     C43883   7.733   0.721   5.476 -0.2389 -0.2608  0.4629
  333MOL0     C43884   7.834   0.826   5.430  0.6020  0.0948 -0.3034
  333MOL0     C43885   7.772   0.921   5.322 -0.1131  0.2953  0.5749
  333MOL0     C43886   7.889   1.006   5.263  0.5740 -0.3919 -0.3749
  333MOL0     C43887   7.983   0.919   5.198 -0.0862 -0.1089 -0.3816
  333MOL0     C43888   8.068   0.850   5.136  0.0970  0.1541 -0.4471
  333MOL0     C43889   7.510   0.581   5.608 -0.1387 -0.4589 -0.4919
  333MOL0     C43890   7.410   0.508   5.678  0.1186 -0.1954  0.5969
  333MOL0     H43891   7.086   0.188   5.933  2.6278 -1.4581 -1.0251
  333MOL0     H43892   6.911   0.045   5.896  0.8588 -0.7809 -1.1857
  333MOL0     H43893   6.587  -0.043   5.566 -3.0128  1.7527 -1.1438
  333MOL0     H43894   6.694   0.071   5.484 -1.2357  0.4078 -0.6274
  333MOL0     H43895   6.620   0.247   5.626 -0.8952  0.4095 -2.0501
  333MOL0     H43896   6.563   0.129   5.747 -1.4322  0.8915 -0.4969
  333MOL0     H43897   6.381   0.236   5.664  3.3133 -0.4455  3.2756
  333MOL0     H43898   6.367   0.070   5.609  2.3018 -2.2181 -1.3994
  333MOL0     H43899   6.503   0.304   5.449  1.3675  0.0023  2.2697
  333MOL0     H43900   6.425   0.172   5.368  1.8468 -0.3755  0.6876
  333MOL0     H43901   6.270   0.353   5.347 -0.4418 -1.7088 -0.3770
  333MOL0     H43902   6.297   0.409   5.510 -1.7509  0.7722 -1.2894
  333MOL0     H43903   6.156   0.244   5.601 -0.5957  1.2784  0.0679
  333MOL0     H43904   6.170   0.147   5.458  1.0118  0.5994  0.6747
  333MOL0     H43905   6.001   0.401   5.492 -4.6918  0.4365 -2.3527
  333MOL0     H43906   6.023   0.325   5.335 -4.0481 -0.5199 -0.0281
  333MOL0     H43907   5.894   0.219   5.582 -0.3665  3.1049 -0.6236
  333MOL0     H43908   5.903   0.132   5.424 -1.9319 -1.4418  2.0239
  333MOL0     H43909   5.818   0.450   5.271  2.6704 -0.0771  1.5856
  333MOL0     H43910   5.444   0.524   5.270 -0.7216  1.5550  0.5800
  333MOL0     H43911   5.584   0.524   5.165 -1.0135  4.0327 -0.8955
  333MOL0     H43912   5.676   0.724   5.329 -0.2482 -1.0488  1.7719
  333MOL0     H43913   5.513   0.719   5.394 -0.2486  1.1979 -0.5044
  333MOL0     H43914   5.511   0.897   5.225  3.7152  0.6119  0.6522
  333MOL0     H43915   5.596   0.809   5.113  1.4055 -0.9242  1.7842
  333MOL0     H43916   5.307   0.770   5.197 -0.3799 -1.3293 -1.1037
  333MOL0     H43917   5.393   0.661   5.083  2.6815  0.4072 -1.4742
  333MOL0     H43918   5.103   0.756   5.101 -0.9640  1.8628  0.8918
  333MOL0     H43919   4.916   0.730   4.959 -1.0621 -0.3556 -2.7422
  333MOL0     H43920   4.898   0.911   4.318  0.1967 -0.2511 -1.4938
  333MOL0     H43921   4.714   0.902   4.165  1.5308 -3.6043 -2.3048
  333MOL0     H43922   4.552   0.798   3.997  1.1676  0.1922  0.7217
  333MOL0     H43923   4.498   0.936   4.100 -2.1189  0.1265  1.5034
  333MOL0     H43924   4.290   0.911   4.016 -2.0245 -0.5614  0.5098
  333MOL0     H43925   4.299   0.729   4.043  3.4505 -1.4907  1.0605
  333MOL0     H43926   4.380   0.681   3.838 -1.8232 -1.1160  0.9251
  333MOL0     H43927   4.412   0.853   3.807  3.0822 -2.3114 -1.6927
  333MOL0     H43928   4.132   0.729   3.854 -1.3178  0.0481 -0.6603
  333MOL0     H43929   4.172   0.899   3.811  0.3662  0.7691 -3.2115
  333MOL0     H43930   4.244   0.644   3.658 -2.1840 -1.2651  1.1303
  333MOL0     H43931   4.259   0.815   3.591  1.5888 -2.0197 -0.2493
  333MOL0     H43932   3.996   0.638   3.618  0.1850 -1.0981 -0.6434
  333MOL0     H43933   4.073   0.728   3.485  1.1055 -0.2256  0.9509
  333MOL0     H43934   3.936   0.865   3.724  2.9386 -0.2157  0.9977
  333MOL0     H43935   4.008   0.943   3.589 -2.6734  2.5008  1.1826
  333MOL0     H43936   3.780   0.750   3.529 -0.2657  0.4678 -1.2491
  333MOL0     H43937   3.859   0.858   3.422 -0.7192  0.8524 -1.5977
  333MOL0     H43938   4.517   0.616   4.396  1.1455 -0.9553  2.7234
  333MOL0     H43939   4.685   0.661   4.593 -0.4862 -0.1609 -0.2952
  333MOL0     H43940   5.144   0.907   4.637  0.8910  1.6508  1.4977
  333MOL0     H43941   5.329   0.927   4.781 -1.1599  0.2825 -1.2867
  333MOL0     H43942   6.868   0.175   5.483 -0.5281  1.3038 -0.0558
  333MOL0     H43943   7.046   0.338   5.527 -1.1686 -1.8391 -2.5360
  333MOL0     H43944   7.201   0.772   5.731  0.5878  1.1741  0.8848
  333MOL0     H43945   7.406   0.898   5.666  1.0736  0.6500  2.0715
  333MOL0     H43946   7.700   0.664   5.389  1.6970  1.9999 -1.9112
  333MOL0     H43947   7.778   0.656   5.552 -1.3230  0.8482  2.0986
  333MOL0     H43948   7.860   0.894   5.511 -2.3927  2.5272 -1.1893
  333MOL0     H43949   7.927   0.775   5.404  1.4932 -0.7512  3.8223
  333MOL0     H43950   7.691   0.982   5.362  1.4521  1.9007  1.4493
  333MOL0     H43951   7.735   0.855   5.242  3.7753  0.0053 -1.2266
  333MOL0     H43952   7.851   1.072   5.185  1.8525  0.5165 -0.2592
  333MOL0     H43953   7.929   1.069   5.343  0.4488 -0.6213 -0.1273
  333MOL0     H43954   8.155   0.822   5.081 -0.9150 -0.6293 -1.7258
  333MOL0     H43955   7.595   0.522   5.575 -0.1049 -1.4999  1.3346
  333MOL0     H43956   7.408   0.399   5.675 -0.2666 -0.1841  0.3343
  334MOL0     O43957   3.956  11.038   9.346 -0.4726 -0.8423  0.4222
  334MOL0     C43958   3.924  11.002   9.461 -0.5657 -0.2837  0.0279
  334MOL0     O43959   4.015  10.981   9.559 -0.7986 -0.0278  0.0637
  334MOL0     C43960   4.153  10.969   9.521  0.1560 -0.3476 -0.0356
  334MOL0     C43961   4.193  10.888   9.416 -1.2150  0.4129  0.6883
  334MOL0     C43962   4.328  10.878   9.392 -0.1894 -0.1717 -0.2296
  334MOL0     C43963   4.426  10.951   9.461  0.4875  0.3499  0.1099
  334MOL0     O43964   4.556  10.922   9.427 -0.1835  0.1071  0.1353
  334MOL0     C43965   4.650  11.030   9.438  0.5227 -0.0098  0.2727
  334MOL0     C43966   4.783  10.979   9.375  0.6266 -0.5921  1.0911
  334MOL0     C43967   4.889  11.093   9.385 -0.1595 -0.5990  0.5319
  334MOL0     C43968   5.006  11.073   9.285  0.2189  0.8191 -0.3194
  334MOL0     C43969   5.107  11.189   9.266 -0.2912 -0.4839  0.9172
  334MOL0     C43970   5.044  11.326   9.222 -0.5315 -0.0976  0.7288
  334MOL0     C43971   4.994  11.330   9.070 -1.0286  0.0953 -0.8269
  334MOL0     C43972   4.915  11.450   9.026  0.2625  0.1320 -0.4245
  334MOL0     N43973   4.785  11.446   9.089  0.5224 -0.0262  0.0374
  334MOL0     C43974   4.721  11.560   9.132  0.7016 -0.0367  0.0988
  334MOL0     C43975   4.587  11.526   9.145 -0.2211 -0.2165 -0.1251
  334MOL0     C43976   4.473  11.604   9.193 -0.0477  0.1210  0.4872
  334MOL0     C43977   4.334  11.565   9.123 -0.0946  0.9349  0.6384
  334MOL0     C43978   4.222  11.642   9.191 -0.1833  0.5238 -0.0851
  334MOL0     C43979   4.088  11.624   9.116  0.6744  0.5007  0.2616
  334MOL0     O43980   4.029  11.494   9.117  0.8639 -0.3009  0.4238
  334MOL0     C43981   3.891  11.476   9.127 -0.1381 -0.0876  0.5645
  334MOL0     C43982   3.793  11.569   9.084 -0.9180 -0.8608  0.2424
  334MOL0     C43983   3.653  11.553   9.111  0.5081 -0.0666  0.0245
  334MOL0     C43984   3.613  11.430   9.170 -0.0937  0.8679 -0.2345
  334MOL0     C43985   3.478  11.405   9.225 -1.2474  0.5658  0.5067
  334MOL0     O43986   3.397  11.512   9.208  0.4647 -0.3756 -0.2124
  334MOL0     C43987   3.257  11.515   9.239 -0.4145  0.2773  0.8187
  334MOL0     C43988   3.182  11.602   9.165  0.0545 -0.5339  0.1580
  334MOL0     C43989   3.039  11.596   9.192  0.5832 -0.0264 -0.6014
  334MOL0     C43990   2.980  11.523   9.292 -0.1836 -0.2353  0.7798
  334MOL0     O43991   2.848  11.536   9.318 -0.4542 -0.2342 -0.4867
  334MOL0     C43992   2.774  11.436   9.384  0.3370 -0.2694  0.1782
  334MOL0     C43993   2.630  11.477   9.420 -0.6551  0.5661  0.0753
  334MOL0     C43994   2.542  11.529   9.299  0.2050  0.3202  0.1354
  334MOL0     C43995   2.407  11.552   9.360 -0.3730  1.3748 -0.2471
  334MOL0     C43996   2.319  11.621   9.254 -0.6834 -0.5971 -0.5373
  334MOL0     C43997   2.185  11.658   9.313 -0.5026 -0.2536  0.4160
  334MOL0     C43998   2.185  11.766   9.422  0.5328  0.1132 -0.3718
  334MOL0     C43999   2.040  11.779   9.468 -0.7962 -0.2575 -0.2878
  334MOL0    Cl44000   1.993  11.632   9.560  0.0029 -0.1450 -0.2966
  334MOL0     C44001   3.061  11.439   9.361 -0.1695 -0.0530  0.0105
  334MOL0     C44002   3.197  11.426   9.328  0.4491  0.1203  0.8710
  334MOL0     O44003   3.449  11.281   9.245 -0.6172 -0.3703  0.4701
  334MOL0     C44004   3.711  11.330   9.207 -0.4719  0.2864 -0.6029
  334MOL0     C44005   3.847  11.362   9.194 -0.9212 -0.2242 -0.1209
  334MOL0     N44006   4.576  11.392   9.104 -0.0335 -0.0669 -0.0358
  334MOL0     N44007   4.689  11.347   9.064 -0.0595 -0.0539  0.2931
  334MOL0     C44008   4.373  11.034   9.564  0.2679  0.1854  0.2398
  334MOL0     C44009   4.233  11.040   9.601 -0.4305  0.3416  0.0358
  334MOL0     C44010   3.781  11.012   9.493  0.9476  0.7298 -0.4611
  334MOL0     C44011   3.751  10.999   9.629  0.9611  0.7481  0.1835
  334MOL0     C44012   3.633  11.028   9.687  0.2006  0.3311  0.5057
  334MOL0     C44013   3.519  11.053   9.608  1.1042  0.2157  0.1835
  334MOL0     O44014   3.407  11.088   9.681  0.7222  0.3228 -0.4158
  334MOL0     C44015   3.290  11.137   9.615  0.0945 -0.1574  0.5371
  334MOL0     C44016   3.186  11.155   9.709 -0.0032 -0.6231  0.1716
  334MOL0     C44017   3.051  11.212   9.653 -0.1044  0.5258  0.4936
  334MOL0     C44018   2.933  11.130   9.702  0.1931 -0.2913 -0.3787
  334MOL0     C44019   2.813  11.190   9.653 -0.2217 -0.6859  0.5678
  334MOL0     C44020   2.700  11.227   9.652  0.4702 -0.2646  0.4381
  334MOL0     C44021   3.533  11.056   9.468  0.0620  0.3654  0.4675
  334MOL0     C44022   3.660  11.025   9.411  0.6289 -0.3637 -0.0164
  334MOL0     H44023   4.120  10.833   9.357  0.5367  0.9132 -2.1700
  334MOL0     H44024   4.375  10.819   9.314  0.9092  0.9879 -0.4758
  334MOL0     H44025   4.672  11.037   9.545 -0.2027 -0.5572  0.4671
  334MOL0     H44026   4.613  11.129   9.411 -1.5141 -1.1770 -1.5374
  334MOL0     H44027   4.752  10.973   9.270 -0.0195  2.4190  1.0313
  334MOL0     H44028   4.826  10.886   9.413  0.7384 -0.6373  0.8590
  334MOL0     H44029   4.918  11.118   9.487  1.4499 -0.6151  0.1008
  334MOL0     H44030   4.833  11.184   9.359  0.5471  0.1415  1.5400
  334MOL0     H44031   5.067  10.986   9.312 -0.7363 -0.0341 -0.8402
  334MOL0     H44032   4.962  11.047   9.188 -2.9042  1.0738  0.8888
  334MOL0     H44033   5.176  11.158   9.187 -0.8625 -1.4199  0.7634
  334MOL0     H44034   5.167  11.205   9.355 -0.4358 -2.7044  1.4721
  334MOL0     H44035   5.116  11.406   9.240 -1.5425  0.6013  1.7692
  334MOL0     H44036   4.962  11.354   9.288  0.3248  1.3048  1.2439
  334MOL0     H44037   5.079  11.315   9.003 -0.5929  1.2374 -0.5552
  334MOL0     H44038   4.931  11.241   9.065  0.5854 -1.4443  2.7288
  334MOL0     H44039   4.898  11.445   8.918  0.9841 -2.4523 -0.4898
  334MOL0     H44040   4.954  11.552   9.036  0.6057 -0.1375  1.2814
  334MOL0     H44041   4.756  11.660   9.154  1.7461 -0.4033  0.1760
  334MOL0     H44042   4.496  11.711   9.186 -0.8544  0.3118  0.6914
  334MOL0     H44043   4.465  11.590   9.302 -1.7355  2.7452  0.7895
  334MOL0     H44044   4.317  11.457   9.128 -1.0532  1.0526  0.1578
  334MOL0     H44045   4.332  11.599   9.019 -2.8482 -2.0891 -0.4781
  334MOL0     H44046   4.202  11.589   9.285 -0.4551 -0.9083 -0.9122
  334MOL0     H44047   4.242  11.744   9.223 -1.0336  0.1771  1.7178
  334MOL0     H44048   4.094  11.653   9.010  1.5870  1.4391  0.5555
  334MOL0     H44049   4.023  11.697   9.165  0.5924 -0.8169  2.2424
  334MOL0     H44050   3.833  11.656   9.032 -3.0177 -0.6488 -1.1175
  334MOL0     H44051   3.583  11.627   9.074  2.9020  1.3672 -1.8944
  334MOL0     H44052   3.219  11.674   9.092  0.2417 -0.5736  0.2140
  334MOL0     H44053   2.972  11.649   9.125 -0.6635 -0.6411  0.1322
  334MOL0     H44054   2.828  11.412   9.476 -1.8067 -0.6657  1.4142
  334MOL0     H44055   2.772  11.357   9.309  1.1858 -0.2140  0.0871
  334MOL0     H44056   2.637  11.572   9.475  2.5304  1.3219 -1.3879
  334MOL0     H44057   2.574  11.399   9.472 -0.7520 -0.2630 -1.2209
  334MOL0     H44058   2.518  11.468   9.212 -0.3374  0.9265 -0.1490
  334MOL0     H44059   2.591  11.614   9.251 -3.2412  2.8073  0.6177
  334MOL0     H44060   2.358  11.458   9.387 -0.6111  0.7620 -2.5975
  334MOL0     H44061   2.424  11.609   9.452 -0.2186 -1.4824  1.6374
  334MOL0     H44062   2.297  11.565   9.163  0.6405  1.8139 -2.4527
  334MOL0     H44063   2.371  11.711   9.222  2.5935 -2.1251  0.0772
  334MOL0     H44064   2.138  11.565   9.346 -1.7246  0.0205 -0.5017
  334MOL0     H44065   2.126  11.687   9.225  2.3360  2.7673 -0.7044
  334MOL0     H44066   2.248  11.755   9.511 -1.2339  0.2259  0.9477
  334MOL0     H44067   2.199  11.867   9.384 -1.5382  1.4580  2.1466
  334MOL0     H44068   1.971  11.785   9.383 -0.0804 -0.2429 -0.8783
  334MOL0     H44069   2.032  11.871   9.527 -3.3118  0.8038 -2.1263
  334MOL0     H44070   3.024  11.384   9.447  1.5770  1.6695  1.9785
  334MOL0     H44071   3.259  11.356   9.382 -0.2520 -1.9732 -0.8944
  334MOL0     H44072   3.690  11.246   9.273  1.5543 -0.5470 -0.9472
  334MOL0     H44073   3.921  11.306   9.249  1.4895 -1.0634 -3.8116
  334MOL0     H44074   4.441  11.086   9.632  0.9369 -1.8492  1.1920
  334MOL0     H44075   4.200  11.098   9.686 -0.1783 -1.8011  1.6844
  334MOL0     H44076   3.825  10.969   9.703 -0.0577  3.7181  2.6463
  334MOL0     H44077   3.615  11.013   9.793 -0.2855  0.3693  0.4283
  334MOL0     H44078   3.249  11.073   9.537 -1.8546 -1.1079  2.2573
  334MOL0     H44079   3.314  11.233   9.569  1.2314 -0.3491  0.6799
  334MOL0     H44080   3.183  11.060   9.763 -0.0806 -0.2221  0.8750
  334MOL0     H44081   3.214  11.236   9.777  1.5773  0.8433 -2.0582
  334MOL0     H44082   3.051  11.184   9.547  1.6947  0.4576  0.4890
  334MOL0     H44083   3.040  11.321   9.666 -2.0676  0.8405 -2.6297
  334MOL0     H44084   2.933  11.025   9.673  0.1021 -0.5289  0.4378
  334MOL0     H44085   2.927  11.131   9.812 -0.4066 -0.8738 -0.4024
  334MOL0     H44086   2.599  11.263   9.644 -0.2622 -2.4692 -1.3682
  334MOL0     H44087   3.463  11.069   9.385 -0.0020 -2.9553 -0.1535
  334MOL0     H44088   3.666  11.031   9.303  1.1272 -3.1409 -0.2378
  335MOL0     O44089   3.828   4.669   0.098  0.5693 -0.1534 -0.1560
  335MOL0     C44090   3.858   4.551   0.095 -0.3961 -0.9285 -0.3547
  335MOL0     O44091   3.774   4.444   0.120  0.0963 -0.2965 -0.7550
  335MOL0     C44092   3.643   4.474   0.156 -0.5771  0.5627  0.0842
  335MOL0     C44093   3.596   4.451   0.285  0.8578 -0.1645  1.2801
  335MOL0     C44094   3.460   4.480   0.319 -0.7127 -0.3242  0.5354
  335MOL0     C44095   3.369   4.533   0.224 -0.4597  0.4412 -0.4121
  335MOL0     O44096   3.244   4.575   0.272 -0.7244 -0.2235  0.6151
  335MOL0     C44097   3.142   4.602   0.173 -0.9200 -0.5433  0.6307
  335MOL0     C44098   3.010   4.611   0.241 -0.0173  0.4714  0.0650
  335MOL0     C44099   2.882   4.553   0.175 -0.4218  0.1367 -0.1649
  335MOL0     C44100   2.857   4.609   0.038  0.6583  0.2308  0.0227
  335MOL0     C44101   2.734   4.543  -0.030 -0.2977 -0.6492  0.2993
  335MOL0     C44102   2.609   4.562   0.052  0.3296  0.4946 -0.2673
  335MOL0     C44103   2.485   4.540  -0.028  0.1719 -0.2076  0.3754
  335MOL0     C44104   2.458   4.659  -0.115 -0.0830 -0.4342  0.0398
  335MOL0     N44105   2.336   4.640  -0.196 -0.1859 -0.6249  0.3558
  335MOL0     C44106   2.311   4.538  -0.286  0.3206 -0.1983  0.0580
  335MOL0     C44107   2.181   4.565  -0.327 -0.3270  0.1422  0.1853
  335MOL0     C44108   2.110   4.474  -0.434 -1.0130  0.1142 -0.1600
  335MOL0     C44109   1.975   4.536  -0.484  0.2952 -0.0722 -0.3203
  335MOL0     C44110   1.901   4.457  -0.590 -0.3130  0.1571  0.1087
  335MOL0     C44111   1.790   4.544  -0.654 -0.0112 -0.0566 -0.6180
  335MOL0     O44112   1.713   4.478  -0.755 -0.1251  0.8060 -0.1577
  335MOL0     C44113   1.580   4.500  -0.752 -0.0544  0.1037  0.4915
  335MOL0     C44114   1.502   4.417  -0.673  0.2568  0.5524  0.0601
  335MOL0     C44115   1.360   4.416  -0.669  0.6146 -0.0261  0.6568
  335MOL0     C44116   1.290   4.521  -0.737 -0.3166 -0.3211  0.4374
  335MOL0     C44117   1.147   4.536  -0.713 -0.6110  0.1125 -0.0039
  335MOL0     O44118   1.084   4.651  -0.759 -0.2509 -0.4957  0.3598
  335MOL0     C44119   0.948   4.653  -0.769  0.2045  0.1044 -0.7296
  335MOL0     C44120   0.888   4.759  -0.708  0.8098  0.7473 -0.2611
  335MOL0     C44121   0.755   4.772  -0.708  0.8008 -0.5743 -0.5607
  335MOL0     C44122   0.667   4.692  -0.790  0.0541 -0.1361 -0.3926
  335MOL0     O44123   0.529   4.709  -0.803  0.6070  0.0901 -0.5423
  335MOL0     C44124   0.463   4.776  -0.688  0.5528 -0.7074  0.7084
  335MOL0     C44125   0.324   4.721  -0.673 -0.8055  0.2536 -1.0840
  335MOL0     C44126   0.251   4.800  -0.567  0.4467 -1.1022  0.5253
  335MOL0     C44127   0.118   4.733  -0.514 -0.4240 -1.0146  0.5997
  335MOL0     C44128   0.003   4.766  -0.601  0.1904 -0.4293 -0.0305
  335MOL0     C44129  -0.063   4.904  -0.590 -0.1502  0.3313 -0.2584
  335MOL0     C44130  -0.177   4.922  -0.688  0.6200 -0.3855  0.4960
  335MOL0     C44131  -0.253   5.049  -0.681  1.0985 -0.4148 -0.7053
  335MOL0    Cl44132  -0.399   5.032  -0.576  0.0347  0.4783  0.1116
  335MOL0     C44133   0.733   4.588  -0.861  0.5031  0.5550  0.0767
  335MOL0     C44134   0.874   4.567  -0.857 -0.6440 -0.6368 -0.8722
  335MOL0     O44135   1.092   4.444  -0.647 -0.1586 -0.3985 -0.6240
  335MOL0     C44136   1.374   4.612  -0.816 -0.2286 -0.1064 -0.4337
  335MOL0     C44137   1.519   4.603  -0.827  0.0971 -0.3373  0.3162
  335MOL0     N44138   2.133   4.677  -0.256 -0.2303 -0.4268  0.8962
  335MOL0     N44139   2.226   4.722  -0.181  0.9163  0.5142 -0.5628
  335MOL0     C44140   3.422   4.553   0.094  0.8654  0.3045  0.5527
  335MOL0     C44141   3.556   4.527   0.059 -0.1458 -0.8438  0.0278
  335MOL0     C44142   3.996   4.508   0.058 -0.3907  0.5772 -0.6332
  335MOL0     C44143   4.097   4.608   0.032  0.5119 -0.2552 -1.0241
  335MOL0     C44144   4.233   4.566   0.020 -0.1030  0.2017  0.2801
  335MOL0     C44145   4.260   4.433   0.012 -0.4179  0.5705 -0.4327
  335MOL0     O44146   4.392   4.396  -0.010  0.1096  0.4021  0.0980
  335MOL0     C44147   4.412   4.360  -0.146 -0.8479  0.5687  0.5725
  335MOL0     C44148   4.506   4.464  -0.210 -0.2321  0.0795 -0.4231
  335MOL0     C44149   4.647   4.466  -0.142 -0.3826  0.2354  0.5298
  335MOL0     C44150   4.727   4.330  -0.128  0.0268  0.2546  0.9804
  335MOL0     C44151   4.869   4.353  -0.089  0.6494  0.1262 -0.2642
  335MOL0     C44152   4.972   4.378  -0.038 -0.4454 -0.7956 -0.6969
  335MOL0     C44153   4.163   4.339   0.024 -0.3296  0.0867 -0.1490
  335MOL0     C44154   4.039   4.377   0.047  0.3289  0.8980 -0.2278
  335MOL0     H44155   3.667   4.416   0.360 -0.4878  1.8754  3.6540
  335MOL0     H44156   3.430   4.450   0.419 -2.0907  0.7588  0.4868
  335MOL0     H44157   3.128   4.522   0.100 -2.5317  0.2736  0.0088
  335MOL0     H44158   3.163   4.699   0.128  0.9616 -0.8347  0.7740
  335MOL0     H44159   2.975   4.713   0.262 -0.9272  0.4426 -1.1611
  335MOL0     H44160   3.031   4.570   0.340 -1.1741  2.5599  1.2586
  335MOL0     H44161   2.802   4.570   0.247 -0.0417 -2.6460  1.0536
  335MOL0     H44162   2.892   4.444   0.168  1.4991  0.2807 -0.4140
  335MOL0     H44163   2.852   4.718   0.034  5.5183  0.6410 -1.2804
  335MOL0     H44164   2.936   4.582  -0.033 -0.1704  1.4353 -1.4017
  335MOL0     H44165   2.754   4.438  -0.050  0.6779  0.0420 -3.0453
  335MOL0     H44166   2.729   4.584  -0.131  0.5508  1.1493  0.9228
  335MOL0     H44167   2.606   4.655   0.111 -1.3197  0.8992 -0.9384
  335MOL0     H44168   2.610   4.488   0.132 -1.8444  1.7358  1.0135
  335MOL0     H44169   2.496   4.456  -0.097  2.4671  2.1213 -2.4065
  335MOL0     H44170   2.404   4.515   0.040  0.6083 -2.2740  0.2136
  335MOL0     H44171   2.536   4.687  -0.187 -0.3151  3.2718  1.0344
  335MOL0     H44172   2.455   4.754  -0.060 -0.6707  0.0611 -0.8292
  335MOL0     H44173   2.370   4.454  -0.321 -3.1146 -3.2535  0.9653
  335MOL0     H44174   2.092   4.378  -0.386  2.3930 -1.0911 -1.0120
  335MOL0     H44175   2.173   4.447  -0.519 -1.3343  0.6925 -0.5930
  335MOL0     H44176   1.995   4.630  -0.535  2.1966 -0.3869 -0.2317
  335MOL0     H44177   1.906   4.546  -0.399 -1.4105 -0.4917 -1.5889
  335MOL0     H44178   1.976   4.406  -0.651  2.9565  1.9568  2.2913
  335MOL0     H44179   1.848   4.378  -0.536 -2.2091  0.7094 -0.8592
  335MOL0     H44180   1.837   4.629  -0.703 -0.7580  1.4717  1.1515
  335MOL0     H44181   1.727   4.589  -0.576 -0.4286  1.9078 -2.0118
  335MOL0     H44182   1.559   4.350  -0.609 -1.7403 -1.4175 -0.1017
  335MOL0     H44183   1.309   4.360  -0.591  1.0832 -0.5622  0.5884
  335MOL0     H44184   0.959   4.822  -0.654  1.1303  0.2027 -0.0379
  335MOL0     H44185   0.711   4.863  -0.666 -0.6099 -1.9798  1.1813
  335MOL0     H44186   0.451   4.883  -0.708  2.3254 -0.4616  0.8035
  335MOL0     H44187   0.528   4.777  -0.600  0.8940  3.1580  0.5748
  335MOL0     H44188   0.327   4.616  -0.641 -1.4147  0.4396 -0.3799
  335MOL0     H44189   0.268   4.724  -0.766  2.2511  1.1654 -3.0264
  335MOL0     H44190   0.237   4.904  -0.597  1.2464 -0.1426  3.1508
  335MOL0     H44191   0.322   4.814  -0.484  0.1523  2.0797  0.3573
  335MOL0     H44192   0.121   4.624  -0.516 -0.4503 -1.0078 -0.0083
  335MOL0     H44193   0.100   4.767  -0.411 -3.1563  0.9414 -0.3942
  335MOL0     H44194  -0.079   4.695  -0.588 -1.2525  0.9532 -1.1690
  335MOL0     H44195   0.035   4.749  -0.704 -0.3512  2.3361 -0.7274
  335MOL0     H44196   0.011   4.981  -0.611  0.8076 -1.0341 -2.2402
  335MOL0     H44197  -0.089   4.918  -0.485 -1.1168 -0.8762 -0.3136
  335MOL0     H44198  -0.129   4.911  -0.785 -0.1122  1.7224 -0.1733
  335MOL0     H44199  -0.253   4.843  -0.682  1.1794 -0.8379  2.1534
  335MOL0     H44200  -0.278   5.084  -0.782 -0.9965 -2.0909 -0.8357
  335MOL0     H44201  -0.187   5.130  -0.648  0.1546  0.3747 -0.6659
  335MOL0     H44202   0.671   4.516  -0.913 -0.2730 -2.1304  4.2364
  335MOL0     H44203   0.923   4.489  -0.914 -2.6259 -2.6476  0.0477
  335MOL0     H44204   1.340   4.706  -0.859  2.9217  1.3472 -0.0188
  335MOL0     H44205   1.580   4.680  -0.874 -0.7240 -0.7411 -1.5233
  335MOL0     H44206   3.356   4.602   0.023  1.0757 -0.0652  0.0979
  335MOL0     H44207   3.593   4.548  -0.041  2.8725 -2.9994  0.5543
  335MOL0     H44208   4.069   4.712   0.039 -0.4690 -0.6065  0.8392
  335MOL0     H44209   4.319   4.631   0.009  0.1359 -0.1911 -0.1940
  335MOL0     H44210   4.323   4.345  -0.208  0.1012 -0.4084 -0.5984
  335MOL0     H44211   4.462   4.263  -0.154 -2.2882 -0.1069 -0.9099
  335MOL0     H44212   4.524   4.454  -0.317  0.0076  1.1561 -0.5021
  335MOL0     H44213   4.461   4.563  -0.197 -3.9953 -1.4867 -0.3437
  335MOL0     H44214   4.624   4.517  -0.048 -0.1081 -1.5363  1.6097
  335MOL0     H44215   4.712   4.529  -0.204  1.0014  0.0819  1.7845
  335MOL0     H44216   4.681   4.263  -0.055  1.1475 -0.1288  1.3591
  335MOL0     H44217   4.714   4.282  -0.226 -0.9869  3.9853 -0.9124
  335MOL0     H44218   5.058   4.405   0.020 -1.9725 -1.6087  2.1204
  335MOL0     H44219   4.188   4.234   0.016 -2.3656 -0.3504 -1.6617
  335MOL0     H44220   3.968   4.296   0.060  2.9305 -1.6782 -1.2470
  336MOL0     O44221   5.133   0.835   6.361 -0.2033 -0.5897 -0.1776
  336MOL0     C44222   5.083   0.940   6.335 -0.5962  0.7534 -0.1909
  336MOL0     O44223   4.965   0.989   6.377 -0.0210  1.1636 -0.9369
  336MOL0     C44224   4.883   0.920   6.474  0.4209 -0.0849  0.2041
  336MOL0     C44225   4.756   0.982   6.493  0.3428  0.1063  0.4122
  336MOL0     C44226   4.662   0.931   6.580  0.5794 -0.2258 -0.3283
  336MOL0     C44227   4.682   0.809   6.639  0.1972 -0.4226 -0.0533
  336MOL0     O44228   4.591   0.740   6.713  0.4170 -0.1912 -0.2710
  336MOL0     C44229   4.451   0.788   6.711 -0.0471 -0.2243 -0.0502
  336MOL0     C44230   4.351   0.690   6.777  0.2998  0.4957 -0.4246
  336MOL0     C44231   4.206   0.738   6.759 -0.1484 -0.6903  1.1300
  336MOL0     C44232   4.115   0.630   6.802  0.3305  0.9413  0.7759
  336MOL0     C44233   3.967   0.649   6.774 -0.2624 -0.1824  0.0723
  336MOL0     C44234   3.907   0.784   6.823  0.3639  0.3392 -0.4396
  336MOL0     C44235   3.753   0.799   6.787  0.0519 -0.9110  0.3343
  336MOL0     C44236   3.649   0.767   6.894 -0.6151 -0.0693  0.2860
  336MOL0     N44237   3.618   0.883   6.971 -0.2575 -0.8310 -0.2496
  336MOL0     C44238   3.507   0.904   7.052  0.2379  0.7038 -0.7820
  336MOL0     C44239   3.533   1.003   7.134  0.2004  0.2410 -0.4327
  336MOL0     C44240   3.456   1.046   7.259  0.0464  0.5382  0.1986
  336MOL0     C44241   3.305   1.034   7.251 -0.2914 -0.0008 -2.0318
  336MOL0     C44242   3.245   1.136   7.157  0.3541 -1.1249  0.1680
  336MOL0     C44243   3.095   1.120   7.169  0.5861  0.2618 -0.0070
  336MOL0     O44244   3.061   0.989   7.121  0.0132 -1.1690 -0.3351
  336MOL0     C44245   2.927   0.972   7.103  0.3714  0.4161  0.7645
  336MOL0     C44246   2.883   0.858   7.027  0.6678 -0.9755 -0.1539
  336MOL0     C44247   2.753   0.817   7.006  0.3654  0.0398  0.1946
  336MOL0     C44248   2.653   0.898   7.061  0.0596  0.0052  0.1373
  336MOL0     C44249   2.509   0.879   7.037 -0.0416  0.5901  0.5337
  336MOL0     O44250   2.422   0.915   7.133 -0.4569 -0.3079  0.4290
  336MOL0     C44251   2.290   0.866   7.136 -0.2445  0.0155  0.8340
  336MOL0     C44252   2.227   0.776   7.041 -0.0232 -1.0310  0.1881
  336MOL0     C44253   2.106   0.723   7.070  0.8704  0.2731 -0.0103
  336MOL0     C44254   2.033   0.759   7.184  0.2328  0.2281  0.3307
  336MOL0     O44255   1.906   0.705   7.205 -0.2616 -0.4152 -0.9391
  336MOL0     C44256   1.849   0.598   7.121 -1.0835 -0.5956  0.4488
  336MOL0     C44257   1.735   0.519   7.184 -0.2436  0.3958 -0.8295
  336MOL0     C44258   1.637   0.482   7.071  0.8214 -0.3299  0.2687
  336MOL0     C44259   1.546   0.362   7.112  0.1510 -0.5198  0.0603
  336MOL0     C44260   1.469   0.323   6.982 -0.9025  0.4939  0.1628
  336MOL0     C44261   1.336   0.248   6.994  0.4723 -0.5057 -0.6707
  336MOL0     C44262   1.358   0.102   7.027  0.0199 -0.0797 -0.4711
  336MOL0     C44263   1.225   0.024   7.043  0.3840  1.2278  0.5744
  336MOL0    Cl44264   1.130  -0.003   6.896  0.4125  0.0286  0.0422
  336MOL0     C44265   2.100   0.841   7.287  0.2793  0.7279  0.2926
  336MOL0     C44266   2.222   0.894   7.253  0.3343 -0.4829  0.2041
  336MOL0     O44267   2.478   0.832   6.928 -0.2550  0.7455  0.8224
  336MOL0     C44268   2.682   1.016   7.136  0.3622  0.1292 -0.3060
  336MOL0     C44269   2.815   1.050   7.157  0.0593  0.6052 -0.4812
  336MOL0     N44270   3.652   1.055   7.097  0.2438 -0.3203  0.2168
  336MOL0     N44271   3.706   0.983   7.003  0.3172  1.0049  0.5610
  336MOL0     C44272   4.807   0.740   6.615 -0.0679 -0.5595 -0.4092
  336MOL0     C44273   4.914   0.797   6.541  0.4743  0.4817  0.1393
  336MOL0     C44274   5.159   1.030   6.247  0.5120 -0.8978 -0.3676
  336MOL0     C44275   5.111   1.161   6.215  0.4659  0.7284 -0.5478
  336MOL0     C44276   5.184   1.233   6.123  0.1387 -0.2284 -0.2908
  336MOL0     C44277   5.299   1.176   6.057  0.4712 -0.2879  0.0405
  336MOL0     O44278   5.372   1.255   5.971 -0.0893  0.2465  0.0238
  336MOL0     C44279   5.306   1.330   5.866  1.1527 -0.3089 -0.0699
  336MOL0     C44280   5.383   1.382   5.744  0.2741  0.2515  0.0944
  336MOL0     C44281   5.521   1.450   5.762 -1.0773  0.1053 -0.4926
  336MOL0     C44282   5.570   1.502   5.625  0.1014  0.3166  0.7406
  336MOL0     C44283   5.646   1.626   5.645 -0.8245 -0.3310 -0.4079
  336MOL0     C44284   5.699   1.726   5.686 -0.0633  0.7719 -0.4005
  336MOL0     C44285   5.343   1.053   6.095  0.1941 -0.3000  0.2800
  336MOL0     C44286   5.277   0.989   6.197 -0.2413 -0.1867 -0.1580
  336MOL0     H44287   4.731   1.079   6.451 -1.1703 -0.0951  0.7873
  336MOL0     H44288   4.573   0.990   6.599 -0.5550 -2.8306  3.7143
  336MOL0     H44289   4.426   0.788   6.605  1.0090 -0.8536 -0.3082
  336MOL0     H44290   4.443   0.890   6.749 -2.1484 -1.8950  4.8367
  336MOL0     H44291   4.381   0.650   6.874  1.4917 -0.3588 -1.1221
  336MOL0     H44292   4.358   0.594   6.725 -1.2957 -0.4626  1.0005
  336MOL0     H44293   4.185   0.765   6.655 -1.5297  1.0967  1.8223
  336MOL0     H44294   4.184   0.836   6.801 -3.3014  0.0255 -1.7577
  336MOL0     H44295   4.144   0.534   6.758  2.1382  1.6886  0.2540
  336MOL0     H44296   4.144   0.609   6.906  1.2381 -0.7038  0.2431
  336MOL0     H44297   3.916   0.557   6.805 -1.5593 -0.7183 -3.2016
  336MOL0     H44298   3.966   0.657   6.665  0.3246  3.6939  0.2235
  336MOL0     H44299   3.962   0.872   6.787 -0.0153  0.3371 -1.0435
  336MOL0     H44300   3.924   0.792   6.930  0.5478 -3.2981 -0.0885
  336MOL0     H44301   3.737   0.900   6.750  0.7910 -1.0208 -0.3192
  336MOL0     H44302   3.738   0.740   6.696  0.9802  0.6908 -0.8915
  336MOL0     H44303   3.694   0.701   6.969 -1.7806 -0.2089  0.8746
  336MOL0     H44304   3.556   0.727   6.853 -1.8081  2.3364  0.4369
  336MOL0     H44305   3.423   0.838   7.068  0.9877 -0.1352 -0.2050
  336MOL0     H44306   3.483   1.150   7.278  1.6502  0.1891 -0.0840
  336MOL0     H44307   3.501   0.995   7.344  2.2030 -0.3334 -1.3730
  336MOL0     H44308   3.261   1.058   7.348 -0.5106  0.1170 -2.1579
  336MOL0     H44309   3.290   0.926   7.239  0.6265 -0.6705  1.6001
  336MOL0     H44310   3.279   1.233   7.193  3.9886 -2.3430  0.4425
  336MOL0     H44311   3.280   1.123   7.054 -0.6339  0.9419 -0.4863
  336MOL0     H44312   3.041   1.192   7.106 -1.0341 -1.4169 -0.6319
  336MOL0     H44313   3.072   1.147   7.273  1.3940  0.5089  0.1115
  336MOL0     H44314   2.960   0.804   6.973 -0.3810 -0.9243 -1.8056
  336MOL0     H44315   2.730   0.743   6.930  4.2481 -0.2062 -0.9551
  336MOL0     H44316   2.272   0.747   6.946  0.1808 -0.9027  0.2459
  336MOL0     H44317   2.059   0.657   6.997 -0.7693  2.3175 -0.9008
  336MOL0     H44318   1.923   0.523   7.092  0.3508  1.1758 -0.6695
  336MOL0     H44319   1.820   0.643   7.026  4.1043 -1.6725 -2.0056
  336MOL0     H44320   1.681   0.586   7.252  0.3448 -0.9918  1.1112
  336MOL0     H44321   1.762   0.433   7.246  0.2586  2.3507  1.8506
  336MOL0     H44322   1.693   0.460   6.980 -0.0520  0.9934 -0.6316
  336MOL0     H44323   1.575   0.571   7.054  2.5623  0.7001 -0.9083
  336MOL0     H44324   1.609   0.278   7.143  3.9095  1.4208 -1.6030
  336MOL0     H44325   1.481   0.395   7.194 -2.1448  0.8651 -2.1811
  336MOL0     H44326   1.540   0.261   6.926  0.0506  1.4480  0.2830
  336MOL0     H44327   1.453   0.410   6.917  0.1014  1.8389  1.6563
  336MOL0     H44328   1.275   0.263   6.905  0.3139 -0.0654 -0.4904
  336MOL0     H44329   1.280   0.294   7.076  2.8681 -0.9665  1.3639
  336MOL0     H44330   1.408   0.063   6.938  0.3279  0.5748 -0.5943
  336MOL0     H44331   1.418   0.095   7.118  0.1618 -0.2983 -0.5804
  336MOL0     H44332   1.156   0.075   7.111 -1.5424  2.5699 -2.1997
  336MOL0     H44333   1.250  -0.077   7.076 -3.1305 -0.5195 -1.4414
  336MOL0     H44334   2.063   0.863   7.387  0.9893  3.4003  0.0389
  336MOL0     H44335   2.273   0.951   7.330  0.8147  0.0225 -0.4645
  336MOL0     H44336   2.605   1.088   7.162 -1.2219 -2.2557  2.1957
  336MOL0     H44337   2.818   1.141   7.216 -0.3234  0.7632 -0.7005
  336MOL0     H44338   4.822   0.641   6.657 -2.8247 -0.6399  0.6161
  336MOL0     H44339   5.010   0.747   6.532  0.7365  1.1527 -0.9559
  336MOL0     H44340   5.014   1.193   6.251 -0.2411 -0.0105 -1.7215
  336MOL0     H44341   5.149   1.328   6.085 -0.9858 -0.7112 -0.4997
  336MOL0     H44342   5.266   1.419   5.916 -2.7614 -1.4483 -0.8905
  336MOL0     H44343   5.216   1.281   5.828  1.3487 -0.6893 -0.0479
  336MOL0     H44344   5.397   1.305   5.668  1.3119 -0.9459  1.4496
  336MOL0     H44345   5.316   1.455   5.699 -0.7122 -1.0051 -0.5352
  336MOL0     H44346   5.593   1.375   5.794 -0.2023  0.9814 -0.3518
  336MOL0     H44347   5.519   1.525   5.842  1.6543 -2.7290  2.5131
  336MOL0     H44348   5.626   1.432   5.562 -0.9008 -0.4556  0.6720
  336MOL0     H44349   5.477   1.536   5.578 -0.8895 -1.0419  1.6538
  336MOL0     H44350   5.734   1.825   5.705  3.2867 -0.7156  2.2731
  336MOL0     H44351   5.436   1.023   6.046  0.1649 -0.5472  0.3724
  336MOL0     H44352   5.326   0.901   6.239  1.0141  0.7949  0.5323
  337MOL0     O44353   4.629   2.991   4.537 -0.7587  0.2278 -0.4371
  337MOL0     C44354   4.725   3.064   4.548 -0.7951  0.2917 -0.0724
  337MOL0     O44355   4.736   3.179   4.623  0.6273  0.3245  0.2109
  337MOL0     C44356   4.625   3.220   4.676 -0.2932 -0.1033 -0.3838
  337MOL0     C44357   4.522   3.289   4.607 -0.0082 -0.3806 -0.1064
  337MOL0     C44358   4.404   3.322   4.669 -0.1908 -0.3128 -0.7772
  337MOL0     C44359   4.390   3.303   4.806 -0.2585 -0.6996 -0.5310
  337MOL0     O44360   4.264   3.338   4.863 -0.0234 -0.6044  0.0915
  337MOL0     C44361   4.254   3.353   5.005 -0.5892 -0.2508  0.0272
  337MOL0     C44362   4.130   3.423   5.055  1.0412  0.4517 -0.0143
  337MOL0     C44363   4.006   3.338   5.025 -0.3997  0.1803 -0.0541
  337MOL0     C44364   3.879   3.415   5.051 -0.0939 -0.1977 -0.1250
  337MOL0     C44365   3.742   3.333   5.037 -1.1649  0.2386 -0.9340
  337MOL0     C44366   3.737   3.229   5.150  0.5027 -0.6714  0.6860
  337MOL0     C44367   3.595   3.166   5.157 -1.2500 -0.3719 -0.5645
  337MOL0     C44368   3.610   3.053   5.257 -0.3329  0.6609 -0.9184
  337MOL0     N44369   3.484   3.034   5.325  0.3020 -0.6522 -0.6245
  337MOL0     C44370   3.433   3.125   5.422 -0.6064  0.0524 -0.3219
  337MOL0     C44371   3.309   3.078   5.450 -0.6202  0.7969  0.6020
  337MOL0     C44372   3.211   3.143   5.543 -0.6017 -0.0561 -0.4906
  337MOL0     C44373   3.108   3.219   5.466  0.5518  0.7644  0.0167
  337MOL0     C44374   2.999   3.135   5.386 -0.5734 -0.1105 -0.4153
  337MOL0     C44375   2.934   3.034   5.487 -0.6675 -0.6373  0.4141
  337MOL0     O44376   2.804   2.995   5.444  0.3788  0.1131 -0.2819
  337MOL0     C44377   2.690   3.070   5.485  0.2717 -0.5253  0.9542
  337MOL0     C44378   2.690   3.202   5.528  0.0749 -0.4931  0.2003
  337MOL0     C44379   2.573   3.266   5.571  0.7723  0.3010  0.8473
  337MOL0     C44380   2.449   3.205   5.556  0.9630  0.8587 -0.4864
  337MOL0     C44381   2.313   3.268   5.594 -0.3355  0.4154 -0.0174
  337MOL0     O44382   2.193   3.207   5.579  0.0930 -0.3183 -0.4074
  337MOL0     C44383   2.082   3.271   5.623  0.8143 -0.5451 -0.2357
  337MOL0     C44384   1.984   3.332   5.541  0.6668  0.1984  0.4522
  337MOL0     C44385   1.859   3.361   5.586 -0.7655 -0.4190 -0.5247
  337MOL0     C44386   1.820   3.344   5.720  0.1379  0.4351  0.0315
  337MOL0     O44387   1.697   3.384   5.762 -0.2298  0.2512 -0.2777
  337MOL0     C44388   1.589   3.302   5.717  0.0186 -0.2512  0.5328
  337MOL0     C44389   1.483   3.293   5.834 -0.4702  0.1947  0.2726
  337MOL0     C44390   1.369   3.194   5.806 -0.4741  0.3283  0.3034
  337MOL0     C44391   1.270   3.222   5.698 -0.9991 -0.7094 -0.0239
  337MOL0     C44392   1.194   3.091   5.659 -0.3043 -0.6182 -0.0667
  337MOL0     C44393   1.113   3.024   5.777 -0.1153 -0.0509  0.4480
  337MOL0     C44394   0.980   3.089   5.801  0.2593  0.0470  0.1767
  337MOL0     C44395   0.891   3.010   5.906  0.1892  0.2796  0.1366
  337MOL0    Cl44396   0.747   3.093   5.936 -0.2653  0.2710 -0.1602
  337MOL0     C44397   1.905   3.269   5.795  0.6684  0.1790 -0.1553
  337MOL0     C44398   2.036   3.237   5.753 -0.0172 -1.0458  0.1314
  337MOL0     O44399   2.331   3.377   5.642 -0.5914  0.0215  0.1941
  337MOL0     C44400   2.453   3.067   5.512 -0.9624  0.2380  0.0513
  337MOL0     C44401   2.569   3.010   5.470  0.0114  1.0280  0.1742
  337MOL0     N44402   3.290   2.946   5.386 -0.5508  0.4325 -0.3158
  337MOL0     N44403   3.397   2.934   5.313 -0.1733 -1.5071  0.0598
  337MOL0     C44404   4.497   3.249   4.878  0.6225 -0.0138 -0.2000
  337MOL0     C44405   4.611   3.201   4.811  0.7181  0.3977  0.0882
  337MOL0     C44406   4.860   3.022   4.497  0.3951  0.2211 -0.1375
  337MOL0     C44407   4.858   2.935   4.388 -0.9191  0.0831 -0.1242
  337MOL0     C44408   4.977   2.885   4.339  0.3943 -0.4855 -0.6110
  337MOL0     C44409   5.104   2.932   4.381  0.4304  0.0888 -0.3208
  337MOL0     O44410   5.212   2.869   4.329 -0.2105  0.4820 -0.3599
  337MOL0     C44411   5.348   2.913   4.366  0.6200 -0.6439  0.3207
  337MOL0     C44412   5.457   2.837   4.284 -0.0889  0.1980 -0.0048
  337MOL0     C44413   5.435   2.683   4.284  0.4067 -0.3777 -0.0132
  337MOL0     C44414   5.535   2.605   4.193  0.6957 -0.4169 -0.1671
  337MOL0     C44415   5.675   2.569   4.236 -0.0923  0.3778 -0.1482
  337MOL0     C44416   5.788   2.555   4.278  0.9844 -0.2858  0.3059
  337MOL0     C44417   5.106   3.029   4.489  0.7192  0.1518 -0.3795
  337MOL0     C44418   4.981   3.067   4.549  0.0209  0.8252  0.9300
  337MOL0     H44419   4.548   3.297   4.501 -0.3508 -0.5681 -0.2032
  337MOL0     H44420   4.323   3.368   4.613 -1.6166 -3.5589 -1.6185
  337MOL0     H44421   4.348   3.395   5.042  0.2936 -2.7753  0.8943
  337MOL0     H44422   4.257   3.254   5.051 -1.3516 -0.4966 -0.4247
  337MOL0     H44423   4.117   3.522   5.009  2.0551 -0.0840 -1.5219
  337MOL0     H44424   4.135   3.431   5.164 -1.2151 -2.6676  0.4763
  337MOL0     H44425   4.004   3.242   5.078 -3.7877 -1.0477 -2.0580
  337MOL0     H44426   4.003   3.313   4.919  1.2982 -1.0075  0.1298
  337MOL0     H44427   3.881   3.450   5.155 -0.0645 -2.7090  0.8024
  337MOL0     H44428   3.881   3.491   4.973  0.3562 -0.0503  0.0284
  337MOL0     H44429   3.747   3.271   4.947  1.7744  0.7407 -1.2193
  337MOL0     H44430   3.655   3.397   5.052 -0.2360  0.9949  2.0718
  337MOL0     H44431   3.762   3.264   5.251 -0.5263  0.0833  0.6926
  337MOL0     H44432   3.812   3.153   5.126 -1.6044 -4.0499  3.7291
  337MOL0     H44433   3.524   3.240   5.195 -0.7335 -0.2781  0.2698
  337MOL0     H44434   3.556   3.146   5.057 -1.1837 -2.3969 -0.2283
  337MOL0     H44435   3.686   3.074   5.333 -1.7643 -1.8179  1.3635
  337MOL0     H44436   3.645   2.968   5.198  0.2899  1.2867 -1.4662
  337MOL0     H44437   3.483   3.215   5.455  1.4239 -0.8756 -0.7494
  337MOL0     H44438   3.269   3.216   5.600 -0.6876 -1.7601  1.9467
  337MOL0     H44439   3.170   3.074   5.617  0.0529  0.5709  0.4728
  337MOL0     H44440   3.158   3.283   5.393  2.3813  1.6977  1.9845
  337MOL0     H44441   3.060   3.293   5.531 -2.9369 -0.2867 -1.0958
  337MOL0     H44442   2.929   3.210   5.349 -1.1622 -0.5818 -0.2717
  337MOL0     H44443   3.037   3.077   5.302  2.6668  0.4604  0.5375
  337MOL0     H44444   2.929   3.079   5.587  1.6937  1.9530 -0.5112
  337MOL0     H44445   2.996   2.945   5.492 -0.0166 -0.2121  0.0925
  337MOL0     H44446   2.786   3.254   5.532 -0.9315  1.4817 -0.0085
  337MOL0     H44447   2.565   3.368   5.608  0.8759  1.4427 -2.0428
  337MOL0     H44448   1.988   3.333   5.433 -2.2648 -1.3885  0.2185
  337MOL0     H44449   1.793   3.411   5.516 -0.4561 -1.9700 -1.9964
  337MOL0     H44450   1.613   3.198   5.692  2.1455 -0.2350  2.1701
  337MOL0     H44451   1.537   3.358   5.639 -1.7597  1.0942  2.5557
  337MOL0     H44452   1.444   3.394   5.851 -0.6334  0.6527 -2.3854
  337MOL0     H44453   1.526   3.249   5.924 -0.3674  0.8523  0.5519
  337MOL0     H44454   1.323   3.159   5.899  2.1145 -3.0688  0.5354
  337MOL0     H44455   1.412   3.097   5.777 -0.2268  0.8946 -1.3400
  337MOL0     H44456   1.199   3.298   5.731  0.0830 -0.0895  0.8986
  337MOL0     H44457   1.328   3.263   5.615 -2.3448  2.0077  0.2578
  337MOL0     H44458   1.273   3.020   5.635  1.0766  1.0952 -0.8385
  337MOL0     H44459   1.130   3.093   5.571 -0.5396 -4.3057 -0.1306
  337MOL0     H44460   1.160   3.013   5.875 -4.0471  1.3433  2.7074
  337MOL0     H44461   1.089   2.922   5.746  2.0491 -0.1190 -1.2537
  337MOL0     H44462   0.977   3.196   5.825  1.8890  0.1899 -0.1225
  337MOL0     H44463   0.939   3.089   5.699 -0.8433  0.3373  0.5994
  337MOL0     H44464   0.952   2.995   5.996 -0.1544  1.9793  0.6813
  337MOL0     H44465   0.874   2.910   5.864  0.1850  0.1404  0.4645
  337MOL0     H44466   1.876   3.240   5.895 -0.2201  1.8270  0.1088
  337MOL0     H44467   2.099   3.170   5.811  1.1305 -0.1236 -0.0044
  337MOL0     H44468   2.362   3.009   5.498 -0.1878 -0.5619 -1.9777
  337MOL0     H44469   2.570   2.914   5.419 -2.7393  1.4149 -0.7665
  337MOL0     H44470   4.496   3.255   4.987  0.3820  0.3080 -0.2172
  337MOL0     H44471   4.682   3.148   4.875 -1.6702 -0.5942  2.0873
  337MOL0     H44472   4.761   2.897   4.357 -0.2219 -1.3769 -0.6322
  337MOL0     H44473   4.976   2.805   4.265 -1.4805  1.0148 -2.3417
  337MOL0     H44474   5.355   2.904   4.475  2.2985 -0.4252  0.2576
  337MOL0     H44475   5.363   3.018   4.342  0.8794 -0.7958 -0.1799
  337MOL0     H44476   5.468   2.881   4.184  0.3422 -0.5920 -0.3196
  337MOL0     H44477   5.553   2.850   4.335  0.6767 -3.4862 -0.2425
  337MOL0     H44478   5.337   2.674   4.237  0.1291  0.4561  0.3664
  337MOL0     H44479   5.423   2.644   4.386 -0.0991  0.1963  0.1568
  337MOL0     H44480   5.483   2.517   4.153 -2.2461  0.8270  0.6486
  337MOL0     H44481   5.558   2.676   4.113  1.3425  0.0497  0.4296
  337MOL0     H44482   5.889   2.551   4.312  0.8480 -2.1647  0.6005
  337MOL0     H44483   5.197   3.076   4.525 -0.5841  0.7825  2.3612
  337MOL0     H44484   4.980   3.133   4.636 -3.9137  0.9582  0.9373
  338MOL0     O44485   2.652   3.803  10.109  0.0342  0.4664 -0.3110
  338MOL0     C44486   2.619   3.816   9.991  0.3565  0.0260 -0.3257
  338MOL0     O44487   2.699   3.790   9.879 -0.3926 -0.1641 -0.0733
  338MOL0     C44488   2.835   3.750   9.893 -0.2977  0.0298  0.2844
  338MOL0     C44489   2.922   3.791   9.996 -1.8307 -0.3971  0.6850
  338MOL0     C44490   3.054   3.757   9.984 -0.5054  0.0668 -0.0557
  338MOL0     C44491   3.099   3.675   9.881  0.6980 -0.4086 -0.2025
  338MOL0     O44492   3.227   3.625   9.874 -0.1233 -0.4781 -0.0391
  338MOL0     C44493   3.336   3.710   9.931 -0.4564  0.2085  0.5057
  338MOL0     C44494   3.468   3.631   9.910  0.0455 -0.2543  0.1750
  338MOL0     C44495   3.474   3.550   9.775 -0.4133  0.0960 -0.1617
  338MOL0     C44496   3.621   3.506   9.754  0.3247 -0.0276 -0.1181
  338MOL0     C44497   3.715   3.622   9.716 -0.4404 -0.5554  0.1432
  338MOL0     C44498   3.847   3.588   9.654  0.7238 -0.4092  0.1136
  338MOL0     C44499   3.954   3.687   9.699 -0.3052  0.1332 -0.9297
  338MOL0     C44500   4.090   3.674   9.627 -0.3091  0.3124  0.1380
  338MOL0     N44501   4.090   3.698   9.479 -1.0396 -0.2244 -0.0935
  338MOL0     C44502   4.028   3.808   9.422  0.2274 -0.2228  0.5198
  338MOL0     C44503   4.005   3.778   9.291 -0.0338  1.5570 -0.5468
  338MOL0     C44504   3.937   3.852   9.182  0.4874  0.5889 -0.0554
  338MOL0     C44505   3.804   3.788   9.146  0.1969 -0.3667 -0.1053
  338MOL0     C44506   3.721   3.866   9.039 -0.4761  0.0256 -0.3615
  338MOL0     C44507   3.578   3.807   9.036  0.0279 -0.2918 -0.0225
  338MOL0     O44508   3.516   3.864   9.148  0.0532 -0.2280 -0.0612
  338MOL0     C44509   3.382   3.886   9.137  0.2800 -0.6918 -0.8440
  338MOL0     C44510   3.328   4.018   9.120  0.7812  0.5563 -0.0282
  338MOL0     C44511   3.186   4.033   9.122 -0.1788  0.9946 -0.0683
  338MOL0     C44512   3.100   3.924   9.130 -0.2621 -0.3745 -0.3011
  338MOL0     C44513   2.950   3.939   9.134  0.0353  0.6395 -0.5857
  338MOL0     O44514   2.887   4.059   9.146  0.6651 -1.0068 -0.4436
  338MOL0     C44515   2.753   4.065   9.114  0.2766  0.6201 -0.2439
  338MOL0     C44516   2.698   4.020   8.992  0.7162 -0.3900 -0.8172
  338MOL0     C44517   2.559   4.035   8.974 -0.1368 -0.5346 -0.7526
  338MOL0     C44518   2.475   4.106   9.064  0.1679 -0.6276 -0.6763
  338MOL0     O44519   2.344   4.120   9.028 -1.1378  0.4329 -0.2440
  338MOL0     C44520   2.242   4.167   9.113 -0.1638  0.6662 -0.0183
  338MOL0     C44521   2.099   4.154   9.052 -0.2228  0.2883  0.4373
  338MOL0     C44522   1.996   4.148   9.170  0.8392  0.0043  0.5497
  338MOL0     C44523   1.863   4.213   9.131  0.4371 -0.2953 -0.6477
  338MOL0     C44524   1.788   4.113   9.052 -0.2924  1.0218  0.2230
  338MOL0     C44525   1.652   4.166   9.003 -0.9189  0.4581 -0.8615
  338MOL0     C44526   1.547   4.179   9.109 -0.1935  0.2647 -0.4399
  338MOL0     C44527   1.479   4.318   9.106  0.7614 -0.5446  1.0265
  338MOL0    Cl44528   1.410   4.358   8.937 -0.3716  0.1288  0.2756
  338MOL0     C44529   2.531   4.149   9.185  0.6962  0.2999  0.4167
  338MOL0     C44530   2.669   4.128   9.205  0.6737  0.6369 -0.0989
  338MOL0     O44531   2.893   3.828   9.117  0.3789 -0.5764 -0.1586
  338MOL0     C44532   3.159   3.791   9.144 -0.0824 -0.0841 -0.0491
  338MOL0     C44533   3.295   3.771   9.152 -0.5989 -0.2004  0.1384
  338MOL0     N44534   4.038   3.648   9.272  0.8732 -0.0763  0.1896
  338MOL0     N44535   4.092   3.604   9.383  0.3215 -0.1678  0.6819
  338MOL0     C44536   3.014   3.635   9.782 -0.0745  0.2644  0.4261
  338MOL0     C44537   2.884   3.680   9.784  0.0811  0.2517  0.4768
  338MOL0     C44538   2.479   3.852   9.967  0.3821  0.4718  0.2743
  338MOL0     C44539   2.423   3.872   9.838  0.3897 -0.4483  0.3042
  338MOL0     C44540   2.280   3.889   9.822 -0.3037 -0.2089  0.9789
  338MOL0     C44541   2.194   3.903   9.928 -0.3595  0.2498 -0.7242
  338MOL0     O44542   2.067   3.931   9.914 -0.4164 -0.3830 -0.3817
  338MOL0     C44543   2.005   3.971   9.791 -0.1659  0.3025  1.1142
  338MOL0     C44544   1.918   4.090   9.815 -0.8940  0.3660  0.0645
  338MOL0     C44545   1.818   4.105   9.700  0.4655  0.3309 -0.1560
  338MOL0     C44546   1.765   4.247   9.711  0.4110  0.3498  0.6314
  338MOL0     C44547   1.674   4.261   9.602 -1.4029 -0.2378  0.0276
  338MOL0     C44548   1.598   4.285   9.513  0.4782  0.2541  0.3712
  338MOL0     C44549   2.251   3.884  10.063  0.1470 -0.2616  0.1772
  338MOL0     C44550   2.389   3.855  10.074  0.4920  0.5196 -0.0009
  338MOL0     H44551   2.897   3.856  10.079 -0.0962  2.9398 -1.1977
  338MOL0     H44552   3.121   3.793  10.062  1.3366 -1.5292 -0.8184
  338MOL0     H44553   3.328   3.723  10.039  0.8189  2.0011  0.4421
  338MOL0     H44554   3.334   3.810   9.885  1.9277  0.3918  0.6594
  338MOL0     H44555   3.467   3.557   9.990  0.2130  0.9669  1.3239
  338MOL0     H44556   3.553   3.699   9.919 -0.3770  0.3469 -0.2519
  338MOL0     H44557   3.437   3.602   9.686 -3.4908 -1.5467  0.0144
  338MOL0     H44558   3.408   3.463   9.783  1.8953 -1.7928 -0.6284
  338MOL0     H44559   3.664   3.453   9.840 -3.5222 -0.6516  1.6247
  338MOL0     H44560   3.626   3.437   9.669  1.0694 -2.0076  1.4427
  338MOL0     H44561   3.737   3.699   9.791  3.9929 -0.1737 -1.2973
  338MOL0     H44562   3.657   3.663   9.633 -2.5324 -0.7834  1.3967
  338MOL0     H44563   3.835   3.590   9.545  1.2603 -0.5599  0.0484
  338MOL0     H44564   3.871   3.481   9.659 -1.7543 -1.1043 -1.0958
  338MOL0     H44565   3.921   3.791   9.687  0.3247  0.7537  1.9409
  338MOL0     H44566   3.974   3.665   9.804  0.5938  0.2482 -1.0692
  338MOL0     H44567   4.126   3.571   9.637 -0.4781  0.0273 -1.8577
  338MOL0     H44568   4.169   3.734   9.674 -1.7013  0.2576  2.6991
  338MOL0     H44569   3.989   3.900   9.464  0.3124 -0.6577  1.5810
  338MOL0     H44570   4.006   3.846   9.097  1.5793 -0.5983  0.8753
  338MOL0     H44571   3.919   3.957   9.207  1.1158  1.3139 -2.3283
  338MOL0     H44572   3.744   3.781   9.238  1.0419 -1.0344  0.4047
  338MOL0     H44573   3.823   3.686   9.112 -0.0545  0.0984 -1.7093
  338MOL0     H44574   3.725   3.970   9.074  4.1297 -0.5147  1.4284
  338MOL0     H44575   3.781   3.850   8.949 -0.4645 -2.8987  0.0795
  338MOL0     H44576   3.578   3.698   9.044  0.4981 -0.2337  0.8546
  338MOL0     H44577   3.529   3.836   8.943  2.1715  3.3373 -0.2348
  338MOL0     H44578   3.399   4.098   9.102 -0.0172  0.5262 -4.2962
  338MOL0     H44579   3.139   4.130   9.109  0.1100  0.8960 -2.1386
  338MOL0     H44580   2.764   3.973   8.919  1.5864 -4.8474  2.3610
  338MOL0     H44581   2.506   4.006   8.883 -1.1046 -1.2827  0.0318
  338MOL0     H44582   2.267   4.267   9.149 -0.0461  1.3760 -1.9295
  338MOL0     H44583   2.240   4.102   9.201 -1.2716  0.5015 -0.1543
  338MOL0     H44584   2.093   4.061   8.994  1.2751  1.7546 -2.2605
  338MOL0     H44585   2.077   4.240   8.988  1.1221 -0.0360 -0.4878
  338MOL0     H44586   2.036   4.200   9.258  1.9668 -3.0693  1.9861
  338MOL0     H44587   1.974   4.044   9.194 -0.4057  0.0708 -0.2140
  338MOL0     H44588   1.815   4.231   9.228 -1.0152 -3.7582 -0.5948
  338MOL0     H44589   1.874   4.315   9.091  0.6788  0.6947  1.7708
  338MOL0     H44590   1.766   4.019   9.104 -2.0727 -0.2685 -2.6168
  338MOL0     H44591   1.837   4.077   8.962  1.3036 -3.4405  2.5991
  338MOL0     H44592   1.611   4.096   8.930 -1.6204  0.2575 -0.2893
  338MOL0     H44593   1.659   4.256   8.941  1.5865  1.4389  0.6854
  338MOL0     H44594   1.475   4.097   9.108 -2.2896  1.9995  0.7071
  338MOL0     H44595   1.596   4.171   9.207  1.7036  1.5396 -1.2205
  338MOL0     H44596   1.550   4.395   9.138 -1.8787  1.4233  2.5932
  338MOL0     H44597   1.393   4.316   9.174 -1.5874  4.0260 -1.3160
  338MOL0     H44598   2.474   4.218   9.247  1.1645  1.7006 -0.6558
  338MOL0     H44599   2.697   4.167   9.302 -2.5481 -0.0045  1.2109
  338MOL0     H44600   3.088   3.711   9.156 -2.0347  1.9180  3.3712
  338MOL0     H44601   3.320   3.667   9.172 -1.9275 -0.3809  0.9591
  338MOL0     H44602   3.048   3.567   9.704 -0.8022  1.4301 -0.9732
  338MOL0     H44603   2.802   3.659   9.715  1.7956  0.6320 -1.7976
  338MOL0     H44604   2.485   3.862   9.750  0.4406 -0.7366  0.3740
  338MOL0     H44605   2.240   3.885   9.721 -1.4477 -1.3348  1.4568
  338MOL0     H44606   1.954   3.883   9.750  2.8043 -0.5266 -1.1764
  338MOL0     H44607   2.083   4.003   9.722  2.1156  3.3020  4.7232
  338MOL0     H44608   1.865   4.081   9.910 -0.1755 -0.8923  0.3626
  338MOL0     H44609   1.983   4.179   9.816  1.7694 -1.3935 -1.6609
  338MOL0     H44610   1.727   4.044   9.700  0.0218  0.9729  0.8225
  338MOL0     H44611   1.872   4.096   9.605 -0.7489  1.8187 -1.0192
  338MOL0     H44612   1.718   4.264   9.809 -2.2508 -1.2509 -0.2533
  338MOL0     H44613   1.850   4.313   9.694  2.8886 -2.7977 -0.1787
  338MOL0     H44614   1.532   4.324   9.438  1.2047 -0.3750 -0.6106
  338MOL0     H44615   2.177   3.873  10.141 -2.2983  0.4416 -1.8906
  338MOL0     H44616   2.417   3.819  10.173 -1.4065  0.4531  0.5482
  339MOL0     O44617   5.574   2.736   3.614  0.2379  0.7749 -0.1068
  339MOL0     C44618   5.588   2.659   3.707  0.1304  0.1831  0.1101
  339MOL0     O44619   5.491   2.574   3.758  0.4309  0.2324 -0.6387
  339MOL0     C44620   5.370   2.569   3.689 -0.0455 -0.3323 -0.0138
  339MOL0     C44621   5.354   2.542   3.558  0.7147 -0.1447 -0.0817
  339MOL0     C44622   5.229   2.528   3.495  0.2072 -0.2216  0.6848
  339MOL0     C44623   5.098   2.556   3.561 -1.4244  1.2653 -0.5379
  339MOL0     O44624   4.988   2.539   3.492 -0.4721  0.1077  0.1353
  339MOL0     C44625   4.860   2.555   3.557 -0.5479 -0.1201  0.3304
  339MOL0     C44626   4.815   2.420   3.623 -0.1818 -1.2010  0.6416
  339MOL0     C44627   4.668   2.429   3.672 -0.0889  0.4856 -0.3538
  339MOL0     C44628   4.569   2.508   3.587 -0.0271  0.2548  0.1193
  339MOL0     C44629   4.422   2.481   3.632 -0.1533  0.4023  0.2739
  339MOL0     C44630   4.357   2.354   3.572  0.2662 -0.0143  0.9360
  339MOL0     C44631   4.208   2.341   3.598  0.1654 -0.4920  0.2501
  339MOL0     C44632   4.167   2.358   3.748 -0.1349  0.2349 -0.0756
  339MOL0     N44633   4.031   2.327   3.770 -0.7004 -0.4633 -1.0170
  339MOL0     C44634   3.917   2.373   3.709  1.3102  0.5774 -0.7245
  339MOL0     C44635   3.818   2.288   3.752  0.0017 -0.5720 -0.1427
  339MOL0     C44636   3.679   2.290   3.701  0.0264 -0.1602  0.0386
  339MOL0     C44637   3.625   2.155   3.655 -0.3469  0.5790 -0.9359
  339MOL0     C44638   3.529   2.183   3.539 -0.0512  0.3111 -0.1778
  339MOL0     C44639   3.459   2.055   3.478 -0.1409  0.9298  0.6340
  339MOL0     O44640   3.390   1.983   3.580 -0.4170  0.0415  0.4377
  339MOL0     C44641   3.259   2.020   3.604  0.7978 -0.6505  0.1522
  339MOL0     C44642   3.193   1.947   3.702 -0.3268 -0.1000  0.0801
  339MOL0     C44643   3.058   1.974   3.740  0.1777 -0.2667 -0.3718
  339MOL0     C44644   2.993   2.091   3.684  0.3212 -0.2551  0.5262
  339MOL0     C44645   2.844   2.104   3.696  0.3466 -0.1057 -0.6500
  339MOL0     O44646   2.781   2.009   3.764  0.5755 -0.2951  0.2401
  339MOL0     C44647   2.657   2.030   3.803 -0.1265  0.4304 -0.5871
  339MOL0     C44648   2.553   2.066   3.716  0.7995  0.6085  1.4856
  339MOL0     C44649   2.424   2.078   3.764  0.0725  0.1242  0.7943
  339MOL0     C44650   2.391   2.029   3.887  0.2381  0.6181 -0.0395
  339MOL0     O44651   2.253   2.043   3.922 -0.9913 -0.6224 -0.2747
  339MOL0     C44652   2.218   1.978   4.045 -0.3935 -0.7133 -0.1659
  339MOL0     C44653   2.071   2.016   4.081  0.3296  0.1377 -0.6045
  339MOL0     C44654   1.976   1.967   3.967  0.1620 -0.2979  0.4597
  339MOL0     C44655   1.836   1.967   4.018 -0.0912 -0.3315 -0.2516
  339MOL0     C44656   1.746   1.898   3.919  0.3506  0.1872  0.3007
  339MOL0     C44657   1.599   1.922   3.968 -0.6884 -0.2534  0.4570
  339MOL0     C44658   1.507   1.860   3.857  0.2869 -0.4408  0.0374
  339MOL0     C44659   1.361   1.891   3.900 -0.0951  0.2413  0.1213
  339MOL0    Cl44660   1.316   1.789   4.044  0.2000 -0.0293  0.2837
  339MOL0     C44661   2.486   1.979   3.976 -0.1630 -0.0008  0.1988
  339MOL0     C44662   2.624   1.992   3.933 -0.8319  0.3617 -1.1460
  339MOL0     O44663   2.794   2.202   3.649  0.1460  0.1083 -0.9277
  339MOL0     C44664   3.059   2.165   3.592  0.1961  0.2532  0.0248
  339MOL0     C44665   3.192   2.129   3.554  0.6702  0.3563 -0.2310
  339MOL0     N44666   3.868   2.195   3.838 -0.6130 -0.0899  0.0167
  339MOL0     N44667   3.994   2.206   3.828  0.7404  0.4375 -0.2318
  339MOL0     C44668   5.124   2.594   3.695 -0.1623  0.5431  0.4581
  339MOL0     C44669   5.255   2.592   3.762  0.9504 -0.0493  0.0464
  339MOL0     C44670   5.729   2.658   3.750  1.2757  0.8036 -0.8355
  339MOL0     C44671   5.842   2.695   3.678 -0.4897 -0.1672 -0.0829
  339MOL0     C44672   5.970   2.700   3.731 -0.4147  0.7618 -0.4387
  339MOL0     C44673   5.994   2.638   3.849  1.4528 -0.0556  0.1616
  339MOL0     O44674   6.118   2.646   3.894  0.0691 -0.5805 -0.1077
  339MOL0     C44675   6.203   2.546   3.844  0.2983  0.3304  0.5360
  339MOL0     C44676   6.346   2.599   3.854  0.0495 -0.4597 -0.0388
  339MOL0     C44677   6.401   2.616   4.000 -0.5832 -0.7868  0.4086
  339MOL0     C44678   6.545   2.656   4.007 -0.9557 -0.4381  0.3402
  339MOL0     C44679   6.626   2.536   3.984 -0.0851  0.1213 -1.4358
  339MOL0     C44680   6.709   2.457   3.944 -0.2733  0.0982  0.3369
  339MOL0     C44681   5.882   2.587   3.929 -0.2321 -0.1299  0.2253
  339MOL0     C44682   5.752   2.603   3.876  0.1196 -0.0127 -0.1122
  339MOL0     H44683   5.437   2.526   3.490  1.9433  2.3772  0.7134
  339MOL0     H44684   5.229   2.509   3.389  1.2391 -3.7124  1.1708
  339MOL0     H44685   4.799   2.574   3.468 -1.4548  0.3318  1.0424
  339MOL0     H44686   4.846   2.640   3.624  0.0785  0.9001 -0.7918
  339MOL0     H44687   4.865   2.409   3.720 -2.8801  3.7020  2.9885
  339MOL0     H44688   4.831   2.331   3.562 -4.2851 -0.9410 -1.0860
  339MOL0     H44689   4.668   2.478   3.770  1.3842 -0.7685  0.3204
  339MOL0     H44690   4.622   2.331   3.692  2.7681 -0.5937  1.6045
  339MOL0     H44691   4.592   2.611   3.616  0.1767 -0.1926  1.6779
  339MOL0     H44692   4.572   2.500   3.478  1.4605 -2.1872  0.2602
  339MOL0     H44693   4.369   2.571   3.597  0.9390  1.0175  0.1603
  339MOL0     H44694   4.409   2.477   3.741  2.1082  1.7466  0.6624
  339MOL0     H44695   4.408   2.264   3.609  0.2716 -0.4343 -0.0678
  339MOL0     H44696   4.378   2.366   3.465  0.4685  2.4599  1.1965
  339MOL0     H44697   4.154   2.415   3.539  0.3086 -0.0040  0.7233
  339MOL0     H44698   4.186   2.243   3.556  0.3941  0.6125 -2.6614
  339MOL0     H44699   4.187   2.461   3.781 -1.9439 -0.0955  2.3556
  339MOL0     H44700   4.235   2.292   3.803  0.6160 -1.0431 -2.4166
  339MOL0     H44701   3.895   2.464   3.655 -0.5706  0.5347 -0.0910
  339MOL0     H44702   3.677   2.364   3.621 -2.1357  0.3934  0.5332
  339MOL0     H44703   3.630   2.338   3.787  0.0442  0.7579 -0.4585
  339MOL0     H44704   3.572   2.102   3.735  0.4489  1.5989  0.3138
  339MOL0     H44705   3.708   2.095   3.616 -0.5612  1.3625 -2.6920
  339MOL0     H44706   3.455   2.261   3.559 -2.5481 -1.5210 -1.5572
  339MOL0     H44707   3.588   2.227   3.458 -2.2804 -0.3631 -2.2983
  339MOL0     H44708   3.528   1.980   3.439  0.6225  1.8987  0.0641
  339MOL0     H44709   3.388   2.070   3.396 -0.0554 -3.1019 -0.3753
  339MOL0     H44710   3.251   1.868   3.749 -1.3658 -1.5312 -0.9717
  339MOL0     H44711   3.010   1.904   3.807  0.8091 -0.3352  0.0107
  339MOL0     H44712   2.574   2.087   3.612 -1.0662 -4.3900 -0.1951
  339MOL0     H44713   2.357   2.117   3.688  3.0143 -2.8788 -3.8299
  339MOL0     H44714   2.274   2.026   4.126 -1.4537  0.0645  0.1257
  339MOL0     H44715   2.236   1.870   4.040 -0.7826 -0.7580 -0.5466
  339MOL0     H44716   2.063   2.122   4.105  1.9500 -0.1443  1.5013
  339MOL0     H44717   2.046   1.961   4.172 -0.0471  0.3816 -0.5576
  339MOL0     H44718   2.000   1.866   3.935 -2.4263 -1.5733  2.1772
  339MOL0     H44719   1.985   2.039   3.885  1.9858  2.0058  2.5301
  339MOL0     H44720   1.834   1.904   4.108  1.7088 -0.5806 -0.3517
  339MOL0     H44721   1.815   2.072   4.038 -1.2289 -0.8424  1.4769
  339MOL0     H44722   1.761   1.790   3.916 -0.6914 -0.0259  1.5046
  339MOL0     H44723   1.754   1.940   3.819 -0.9761 -1.6537 -0.6553
  339MOL0     H44724   1.583   2.030   3.971 -0.2453 -0.1583 -0.2568
  339MOL0     H44725   1.578   1.879   4.066 -1.1872  0.8020  0.8159
  339MOL0     H44726   1.524   1.910   3.762 -2.0757 -0.4744 -0.4633
  339MOL0     H44727   1.524   1.753   3.839  2.3956  0.2007 -2.2393
  339MOL0     H44728   1.293   1.885   3.814 -0.6994  0.0889  0.6051
  339MOL0     H44729   1.344   1.995   3.927 -1.3710 -0.8248  4.2526
  339MOL0     H44730   2.464   1.944   4.076  0.7417  0.2638  0.4974
  339MOL0     H44731   2.703   1.948   3.994  0.0651  0.1150 -2.4495
  339MOL0     H44732   3.011   2.258   3.561 -1.6985  0.7078  3.8355
  339MOL0     H44733   3.243   2.189   3.479 -1.0467  0.9643 -0.9683
  339MOL0     H44734   5.038   2.627   3.752  1.2596  2.2355  1.7012
  339MOL0     H44735   5.263   2.636   3.860 -0.4212  1.0054 -0.2737
  339MOL0     H44736   5.821   2.744   3.583  2.8969 -1.4486 -1.6514
  339MOL0     H44737   6.049   2.752   3.679  1.6310 -2.0497 -0.3782
  339MOL0     H44738   6.184   2.531   3.738  1.3745 -0.5865  0.4587
  339MOL0     H44739   6.195   2.448   3.893 -3.1354  0.5990  0.7880
  339MOL0     H44740   6.413   2.535   3.796  0.5973 -0.5159  0.6410
  339MOL0     H44741   6.349   2.698   3.806  1.4469 -0.6519 -0.3844
  339MOL0     H44742   6.380   2.524   4.057 -0.3676 -0.4003  1.1228
  339MOL0     H44743   6.337   2.694   4.043 -2.3950 -1.1410 -1.4717
  339MOL0     H44744   6.558   2.733   3.930 -0.3187  0.8053  1.6366
  339MOL0     H44745   6.563   2.691   4.109  1.5576 -1.2998  0.2589
  339MOL0     H44746   6.768   2.382   3.896  0.0231  1.9272 -2.3266
  339MOL0     H44747   5.899   2.544   4.027  3.0569  3.2177  1.3390
  339MOL0     H44748   5.673   2.566   3.941  0.1771  2.2544  1.3270
  340MOL0     O44749   0.513   0.809   0.810 -0.5145 -0.4000 -0.7623
  340MOL0     C44750   0.598   0.898   0.776 -0.0876  0.1849 -0.1127
  340MOL0     O44751   0.571   1.017   0.708 -0.5212 -0.0649 -1.3523
  340MOL0     C44752   0.444   1.038   0.672  0.8609  0.2061  0.2260
  340MOL0     C44753   0.385   1.155   0.706 -0.0685 -0.5807  0.3874
  340MOL0     C44754   0.259   1.196   0.674 -0.6419 -0.5393 -0.3548
  340MOL0     C44755   0.182   1.099   0.617 -0.9927 -1.1343 -0.8426
  340MOL0     O44756   0.052   1.143   0.605 -0.5629  0.8673 -0.6547
  340MOL0     C44757  -0.033   1.050   0.668 -0.6152  0.5075  0.2240
  340MOL0     C44758  -0.178   1.084   0.681  0.1042 -0.3040  0.2065
  340MOL0     C44759  -0.207   1.217   0.730  0.2488 -1.0601 -0.6031
  340MOL0     C44760  -0.353   1.226   0.791 -0.0086  0.3766  0.0099
  340MOL0     C44761  -0.401   1.345   0.872 -0.2467 -0.0990  0.9798
  340MOL0     C44762  -0.291   1.399   0.951  0.8770 -0.5539 -0.5367
  340MOL0     C44763  -0.244   1.317   1.075 -0.4224 -0.0729  0.1536
  340MOL0     C44764  -0.135   1.394   1.156 -0.3213  0.7853  0.2720
  340MOL0     N44765  -0.007   1.428   1.085 -0.5163 -0.6355  0.2958
  340MOL0     C44766   0.117   1.373   1.107 -0.5915  0.2151 -0.5946
  340MOL0     C44767   0.205   1.438   1.029 -0.2605  0.5786  0.7038
  340MOL0     C44768   0.355   1.415   1.003 -0.0677 -0.4538  0.4449
  340MOL0     C44769   0.421   1.554   1.017 -0.8075  0.4229  0.8027
  340MOL0     C44770   0.575   1.536   0.986 -0.5514 -0.6551  0.4315
  340MOL0     C44771   0.656   1.665   0.989  0.5140  0.8246 -0.0271
  340MOL0     O44772   0.781   1.654   0.917 -0.4125 -0.4482 -0.1926
  340MOL0     C44773   0.882   1.749   0.938  0.6568  0.1075 -0.2399
  340MOL0     C44774   0.864   1.876   0.987 -0.4966 -0.3059 -0.0708
  340MOL0     C44775   0.974   1.967   1.001  0.7914 -0.5830  1.0613
  340MOL0     C44776   1.098   1.929   0.951 -0.3967  0.0575  0.0576
  340MOL0     C44777   1.223   2.014   0.953 -0.6995 -0.3940  0.3156
  340MOL0     O44778   1.216   2.137   1.021  0.3410 -0.5948 -0.6791
  340MOL0     C44779   1.328   2.199   1.059 -0.1075  0.9405  0.5935
  340MOL0     C44780   1.409   2.270   0.976 -0.1188 -0.2703  0.1928
  340MOL0     C44781   1.532   2.320   1.008 -1.2370  0.9250  0.1619
  340MOL0     C44782   1.588   2.288   1.132  0.2423  0.5686 -0.2603
  340MOL0     O44783   1.708   2.324   1.172  0.6954 -0.0904 -0.7860
  340MOL0     C44784   1.763   2.439   1.111 -0.3916  0.5049  0.6365
  340MOL0     C44785   1.862   2.506   1.210 -0.0186 -0.2638  0.2428
  340MOL0     C44786   1.933   2.610   1.128 -0.5138 -0.6868 -0.4045
  340MOL0     C44787   2.050   2.665   1.208 -0.2113 -0.1056 -0.7846
  340MOL0     C44788   2.119   2.787   1.140 -0.7392  0.0236 -0.2133
  340MOL0     C44789   2.208   2.870   1.237 -0.4155 -0.4598  0.8182
  340MOL0     C44790   2.318   2.946   1.153 -0.1861  0.3431  1.1564
  340MOL0     C44791   2.405   3.047   1.222  0.1193  0.1188  0.0470
  340MOL0    Cl44792   2.503   2.965   1.349  0.3122  0.1587  0.0351
  340MOL0     C44793   1.509   2.205   1.220 -0.0284  1.1577 -0.1997
  340MOL0     C44794   1.379   2.163   1.183  0.3326  0.2465  0.3418
  340MOL0     O44795   1.324   1.970   0.905  0.8008  0.0656  0.5787
  340MOL0     C44796   1.103   1.801   0.895 -1.0975 -0.2856 -0.1868
  340MOL0     C44797   1.004   1.707   0.895 -0.1150 -0.7329 -0.2079
  340MOL0     N44798   0.134   1.538   0.963  0.1818  0.8996  0.0471
  340MOL0     N44799   0.011   1.531   1.004 -0.7451 -0.0107  0.6643
  340MOL0     C44800   0.234   0.969   0.581 -0.1300  0.0905 -1.0088
  340MOL0     C44801   0.370   0.942   0.616  0.2669  0.2901  0.4674
  340MOL0     C44802   0.738   0.865   0.787  0.2042 -0.8062  0.6719
  340MOL0     C44803   0.826   0.969   0.817 -0.4750 -0.6785  0.1884
  340MOL0     C44804   0.965   0.952   0.827  1.1184  0.7039  0.6772
  340MOL0     C44805   1.016   0.821   0.807 -0.1821  0.3818 -0.3991
  340MOL0     O44806   1.153   0.804   0.817  0.5715 -1.2238  0.1403
  340MOL0     C44807   1.204   0.679   0.793  0.1224 -0.7410  0.6938
  340MOL0     C44808   1.349   0.676   0.847 -0.2138 -0.2459  0.0127
  340MOL0     C44809   1.339   0.679   1.002 -0.1457 -0.0808 -0.9940
  340MOL0     C44810   1.465   0.647   1.076 -1.0064 -0.0524  0.5070
  340MOL0     C44811   1.587   0.709   1.011 -0.8466  0.2280 -0.7387
  340MOL0     C44812   1.686   0.753   0.961  0.5446 -0.4764 -0.0330
  340MOL0     C44813   0.926   0.724   0.759 -0.1982 -0.7406 -0.3775
  340MOL0     C44814   0.788   0.743   0.750  0.1541  0.5704 -0.1913
  340MOL0     H44815   0.448   1.221   0.764  0.9718 -1.1640 -0.0601
  340MOL0     H44816   0.230   1.296   0.704 -2.1214 -1.0059 -0.1943
  340MOL0     H44817   0.000   1.035   0.771 -0.3416 -0.1512  0.0452
  340MOL0     H44818  -0.028   0.952   0.620 -0.1336  0.2009  0.8788
  340MOL0     H44819  -0.219   1.001   0.739  2.3556 -1.1068  0.7606
  340MOL0     H44820  -0.208   1.064   0.577  1.0638  1.5149 -0.4725
  340MOL0     H44821  -0.189   1.286   0.647 -1.6915  2.2021  1.4731
  340MOL0     H44822  -0.132   1.255   0.800  0.2015 -0.1138 -1.0473
  340MOL0     H44823  -0.414   1.209   0.702 -0.0812  2.6316 -0.4445
  340MOL0     H44824  -0.361   1.139   0.856 -2.7203  0.2198 -0.4399
  340MOL0     H44825  -0.484   1.315   0.938  0.0165  0.3821  1.5400
  340MOL0     H44826  -0.425   1.417   0.793  1.4265 -1.1818 -0.5651
  340MOL0     H44827  -0.328   1.492   0.995 -3.3370 -0.6164 -3.3867
  340MOL0     H44828  -0.210   1.432   0.885  2.0754  0.5795  1.4150
  340MOL0     H44829  -0.332   1.308   1.139 -1.9141 -0.8903 -1.9119
  340MOL0     H44830  -0.204   1.225   1.032 -0.9836 -0.7822  1.1230
  340MOL0     H44831  -0.107   1.327   1.237  3.3236  0.3051 -1.1902
  340MOL0     H44832  -0.182   1.487   1.191 -0.1652  1.5091 -1.3282
  340MOL0     H44833   0.152   1.295   1.175 -0.4567 -0.6280 -1.6023
  340MOL0     H44834   0.365   1.372   0.903 -1.3877 -2.1911  1.0114
  340MOL0     H44835   0.394   1.345   1.078 -0.6774 -0.1098  1.0965
  340MOL0     H44836   0.412   1.597   1.117  2.1729  0.2712  1.2226
  340MOL0     H44837   0.379   1.626   0.946  1.6061  1.1168 -0.0157
  340MOL0     H44838   0.622   1.457   1.045 -0.9609 -1.2603 -0.0424
  340MOL0     H44839   0.580   1.515   0.879  1.7877 -0.7549  0.5220
  340MOL0     H44840   0.671   1.686   1.095  2.9476 -1.1270  0.1037
  340MOL0     H44841   0.602   1.738   0.928 -0.0193 -1.3788 -2.4116
  340MOL0     H44842   0.770   1.902   1.033  1.0431 -1.7059  4.3856
  340MOL0     H44843   0.959   2.065   1.045 -0.1479  1.9320 -4.1868
  340MOL0     H44844   1.380   2.297   0.875  0.2811 -3.3068 -0.8259
  340MOL0     H44845   1.573   2.392   0.938  3.4407 -0.8000  0.7479
  340MOL0     H44846   1.680   2.508   1.094 -1.5578 -0.7183  1.1993
  340MOL0     H44847   1.813   2.413   1.016 -1.8908  0.0498 -0.0559
  340MOL0     H44848   1.937   2.438   1.250 -0.8926  0.1879  2.8060
  340MOL0     H44849   1.800   2.539   1.294  0.7336 -0.6920  0.9788
  340MOL0     H44850   1.860   2.685   1.098  0.8952 -0.0360 -2.3733
  340MOL0     H44851   1.979   2.564   1.040 -0.3290 -0.6367 -0.3345
  340MOL0     H44852   2.027   2.684   1.313  1.6200 -0.8930 -0.1921
  340MOL0     H44853   2.131   2.592   1.220 -0.8558 -1.0608 -1.9794
  340MOL0     H44854   2.043   2.850   1.092 -1.4195  1.0513  2.0546
  340MOL0     H44855   2.184   2.751   1.060  0.6327  0.7156  0.5469
  340MOL0     H44856   2.253   2.812   1.318  3.7898  1.3391  0.0844
  340MOL0     H44857   2.154   2.953   1.282  0.2615 -0.0546  0.9040
  340MOL0     H44858   2.389   2.871   1.117 -1.8695 -1.0757  0.6192
  340MOL0     H44859   2.270   2.990   1.065  0.7845  0.7702  0.8271
  340MOL0     H44860   2.341   3.123   1.267 -1.1793 -0.3719 -0.9091
  340MOL0     H44861   2.466   3.089   1.140 -1.0892 -1.3872 -1.7045
  340MOL0     H44862   1.555   2.176   1.313  1.6739 -1.8652 -1.8477
  340MOL0     H44863   1.331   2.092   1.250  0.6641  1.0356  1.4342
  340MOL0     H44864   1.198   1.767   0.854 -1.1455  1.0867 -1.5303
  340MOL0     H44865   1.006   1.603   0.866 -0.9769 -1.1846  1.2137
  340MOL0     H44866   0.170   0.895   0.535  0.6545 -1.6289  0.5341
  340MOL0     H44867   0.420   0.848   0.593  1.5261  0.9397  0.4622
  340MOL0     H44868   0.781   1.068   0.818 -0.8763 -0.8581  0.2107
  340MOL0     H44869   1.038   1.030   0.843  1.1200  1.3671 -2.0131
  340MOL0     H44870   1.209   0.662   0.685 -0.7420  0.5525  0.4261
  340MOL0     H44871   1.144   0.600   0.839 -2.4390  1.3890  1.2995
  340MOL0     H44872   1.399   0.586   0.811  1.7701  1.9977 -3.5323
  340MOL0     H44873   1.411   0.760   0.813 -0.1086  0.4896  1.9124
  340MOL0     H44874   1.257   0.614   1.036 -0.3296  1.9106  2.9325
  340MOL0     H44875   1.309   0.777   1.041 -0.5043 -1.4390  2.5602
  340MOL0     H44876   1.449   0.679   1.179  3.5452 -1.2105  1.8117
  340MOL0     H44877   1.491   0.541   1.083  1.4487  0.6055  3.3697
  340MOL0     H44878   1.760   0.801   0.901 -1.1572 -1.2030 -2.9051
  340MOL0     H44879   0.956   0.625   0.729  0.0626 -0.4138 -1.2235
  340MOL0     H44880   0.726   0.662   0.713  1.4370  0.5916 -2.6177
  341MOL0     O44881  10.621  10.753   7.740 -0.1182 -0.2233  0.0954
  341MOL0     C44882  10.663  10.867   7.765 -0.3319 -0.3663  0.2521
  341MOL0     O44883  10.578  10.983   7.774 -0.1532  0.6392  1.0630
  341MOL0     C44884  10.452  10.981   7.820 -1.0641  0.2004 -0.2263
  341MOL0     C44885  10.369  11.084   7.779  0.5908  0.0624 -0.7991
  341MOL0     C44886  10.242  11.107   7.846  0.2854  0.1943 -1.3061
  341MOL0     C44887  10.197  11.012   7.941  0.3498  0.4703  0.4591
  341MOL0     O44888  10.065  11.024   7.985 -0.5156  0.5788  0.3915
  341MOL0     C44889   9.997  10.914   8.047 -0.1452 -0.4530 -0.1511
  341MOL0     C44890   9.845  10.947   8.074 -0.3211  0.0134  0.8291
  341MOL0     C44891   9.762  10.919   7.949  0.2451 -0.2005  0.2531
  341MOL0     C44892   9.621  10.978   7.964 -0.5452  0.0253 -1.3853
  341MOL0     C44893   9.539  10.936   7.849 -0.7398 -0.4543 -0.1628
  341MOL0     C44894   9.409  10.865   7.880  0.2807  0.8571  0.4673
  341MOL0     C44895   9.315  10.952   7.966  0.6630  0.3237  0.6794
  341MOL0     C44896   9.223  11.050   7.892  0.2043 -0.2198  0.1627
  341MOL0     N44897   9.106  10.982   7.821  0.9410  0.2136  0.3109
  341MOL0     C44898   9.029  10.886   7.888 -0.8792 -0.6832 -0.2006
  341MOL0     C44899   8.919  10.883   7.811  0.5533 -0.5762 -0.1520
  341MOL0     C44900   8.791  10.815   7.853 -0.1532 -0.4806  0.8034
  341MOL0     C44901   8.729  10.737   7.729  0.0578  0.5082  0.4928
  341MOL0     C44902   8.645  10.818   7.630  0.0681  1.0541  0.4744
  341MOL0     C44903   8.498  10.784   7.638 -0.1422  0.5277  0.0160
  341MOL0     O44904   8.423  10.845   7.528  0.4183 -0.4800  0.4439
  341MOL0     C44905   8.283  10.820   7.531  0.5205  0.5327 -0.3071
  341MOL0     C44906   8.224  10.851   7.407 -0.6686 -0.7121 -0.7776
  341MOL0     C44907   8.085  10.847   7.392 -0.1268 -0.1004 -0.4214
  341MOL0     C44908   8.004  10.812   7.500  0.8871 -0.9877 -1.2078
  341MOL0     C44909   7.856  10.806   7.477 -0.2491  0.0474 -0.4514
  341MOL0     O44910   7.771  10.796   7.584  0.1562  0.3646  0.0069
  341MOL0     C44911   7.639  10.834   7.574  0.8043 -0.1856 -0.1832
  341MOL0     C44912   7.551  10.771   7.660 -0.6678  0.9577  0.1850
  341MOL0     C44913   7.423  10.812   7.674  0.2267  0.3715  0.0488
  341MOL0     C44914   7.376  10.915   7.589 -0.3656 -0.2801  0.2316
  341MOL0     O44915   7.248  10.964   7.596 -0.6445  0.6981 -0.2305
  341MOL0     C44916   7.139  10.870   7.588 -0.0481  0.6904 -0.0451
  341MOL0     C44917   7.014  10.950   7.543 -0.0206 -0.2676 -0.4077
  341MOL0     C44918   7.029  11.012   7.401  0.9799  0.4694 -0.9633
  341MOL0     C44919   6.892  11.063   7.348  0.4316  0.0561  0.3786
  341MOL0     C44920   6.868  11.199   7.404  0.2451 -0.0469 -0.4660
  341MOL0     C44921   6.712  11.229   7.418  0.0344  0.1398 -0.5282
  341MOL0     C44922   6.681  11.383   7.431  0.0031  0.2989 -0.4575
  341MOL0     C44923   6.532  11.403   7.475 -0.0242  0.2088  0.0569
  341MOL0    Cl44924   6.497  11.342   7.638 -0.2491 -0.3854 -0.5729
  341MOL0     C44925   7.462  10.981   7.503  0.3206  0.6471  0.2939
  341MOL0     C44926   7.591  10.941   7.490  0.0336  0.3719  0.4787
  341MOL0     O44927   7.817  10.820   7.354  0.5278  0.3177 -1.0940
  341MOL0     C44928   8.066  10.780   7.626 -0.3977 -0.1284  0.6732
  341MOL0     C44929   8.206  10.781   7.642 -0.0800  0.4858 -0.4817
  341MOL0     N44930   8.934  10.960   7.700  0.4901 -0.1374  0.0550
  341MOL0     N44931   9.042  11.022   7.708  0.0682  0.3610 -0.1663
  341MOL0     C44932  10.286  10.910   7.976 -0.6098  0.4575 -0.6475
  341MOL0     C44933  10.413  10.896   7.925  0.0462 -0.3558  1.1239
  341MOL0     C44934  10.812  10.884   7.750  0.7886 -0.9915  0.0349
  341MOL0     C44935  10.900  10.778   7.733 -0.5631  0.5260  1.2736
  341MOL0     C44936  11.040  10.800   7.731 -0.0268 -1.0365  0.3243
  341MOL0     C44937  11.100  10.926   7.745  0.5561 -0.4709  0.3893
  341MOL0     O44938  11.236  10.960   7.732  0.2537  0.9892 -0.5473
  341MOL0     C44939  11.330  10.847   7.763 -0.2074  0.2932 -0.1832
  341MOL0     C44940  11.471  10.906   7.761  0.3226 -0.6071  0.6923
  341MOL0     C44941  11.571  10.786   7.762 -0.0324 -0.4247  0.4372
  341MOL0     C44942  11.714  10.809   7.760 -0.1500 -0.1441  0.8412
  341MOL0     C44943  11.755  10.914   7.664  0.0670  0.0655  0.0031
  341MOL0     C44944  11.794  10.997   7.584 -0.5201 -0.6745 -0.6594
  341MOL0     C44945  11.003  11.029   7.759 -0.1813 -1.4688 -0.2542
  341MOL0     C44946  10.863  11.015   7.761 -0.0441  0.6787  0.1396
  341MOL0     H44947  10.418  11.152   7.711  0.7477  0.9674  0.1936
  341MOL0     H44948  10.176  11.191   7.831  0.0726  0.1679 -0.5367
  341MOL0     H44949  10.054  10.885   8.136  1.7716  1.2716 -0.7269
  341MOL0     H44950  10.002  10.830   7.978  0.3534  2.6041 -4.1934
  341MOL0     H44951   9.835  11.050   8.108 -0.7221 -0.5970  2.6453
  341MOL0     H44952   9.816  10.883   8.158  1.1272 -0.2393  1.1583
  341MOL0     H44953   9.755  10.814   7.919 -3.6553  0.2845 -1.0041
  341MOL0     H44954   9.805  10.975   7.866  0.6104  0.3853  0.8238
  341MOL0     H44955   9.578  10.934   8.055  2.6470  0.8821  0.7481
  341MOL0     H44956   9.623  11.087   7.975 -2.5147 -0.1196  1.6568
  341MOL0     H44957   9.601  10.884   7.776 -1.1132  2.3992 -2.7108
  341MOL0     H44958   9.512  11.028   7.796  1.0887  0.3527  0.2450
  341MOL0     H44959   9.416  10.768   7.931 -1.3193  0.1863 -0.5212
  341MOL0     H44960   9.363  10.845   7.783 -4.8758  1.9266  2.4078
  341MOL0     H44961   9.249  10.887   8.025 -0.9113  1.9792  0.8402
  341MOL0     H44962   9.362  11.011   8.045 -0.5626  0.3488  1.4164
  341MOL0     H44963   9.274  11.101   7.809 -2.5744  0.2280 -1.4190
  341MOL0     H44964   9.197  11.123   7.969 -2.6956 -2.6922  1.7485
  341MOL0     H44965   9.050  10.842   7.985 -2.2070 -0.5012  0.1861
  341MOL0     H44966   8.715  10.884   7.892  0.8321  0.1582  1.6433
  341MOL0     H44967   8.810  10.737   7.928  0.5577 -2.2675 -1.1480
  341MOL0     H44968   8.660  10.668   7.779 -2.0116  1.2431 -1.2080
  341MOL0     H44969   8.803  10.677   7.676  2.1356  2.3625  1.1176
  341MOL0     H44970   8.660  10.926   7.643  0.4001  1.0233  0.3500
  341MOL0     H44971   8.685  10.791   7.532  0.0082 -3.4594  1.4775
  341MOL0     H44972   8.462  10.812   7.737 -1.6897  0.3861 -0.4901
  341MOL0     H44973   8.485  10.676   7.647  2.5054  0.3181  4.7556
  341MOL0     H44974   8.293  10.882   7.329 -0.4231  0.9317  0.0368
  341MOL0     H44975   8.047  10.866   7.292 -1.0558  1.2841  0.1630
  341MOL0     H44976   7.586  10.689   7.722 -2.4636  0.8655  1.1437
  341MOL0     H44977   7.359  10.757   7.743 -1.0854  1.8359  0.0787
  341MOL0     H44978   7.110  10.813   7.677  2.1326 -2.0093 -0.8995
  341MOL0     H44979   7.169  10.801   7.508 -3.4804 -0.9940 -0.0956
  341MOL0     H44980   6.987  11.030   7.613 -1.3899 -1.2109  0.1768
  341MOL0     H44981   6.929  10.883   7.557 -0.6657  1.0977  3.2176
  341MOL0     H44982   7.079  10.936   7.341 -2.3089 -2.9106  0.2156
  341MOL0     H44983   7.100  11.095   7.397  1.9807 -0.3373 -0.4364
  341MOL0     H44984   6.883  11.071   7.239  0.0686  0.8739  0.4573
  341MOL0     H44985   6.808  10.998   7.374 -0.8595  0.7272 -1.8056
  341MOL0     H44986   6.916  11.266   7.331  3.6540  0.2600  1.8296
  341MOL0     H44987   6.914  11.206   7.503  2.3121 -1.8763 -1.2003
  341MOL0     H44988   6.673  11.168   7.500 -0.2763  0.8745 -0.1195
  341MOL0     H44989   6.662  11.192   7.328  3.2414  1.5710 -3.0975
  341MOL0     H44990   6.742  11.430   7.509  0.0211  2.0104 -1.4390
  341MOL0     H44991   6.705  11.431   7.335 -2.5624  2.5377 -0.1037
  341MOL0     H44992   6.465  11.368   7.396 -1.0961  0.4610  0.8318
  341MOL0     H44993   6.503  11.508   7.478  3.0064  1.1347  1.8477
  341MOL0     H44994   7.429  11.067   7.446 -0.2423 -0.0888 -0.5055
  341MOL0     H44995   7.655  10.999   7.425  1.1021 -0.8339  0.4158
  341MOL0     H44996   8.018  10.758   7.721  0.7599 -2.5838  0.7660
  341MOL0     H44997   8.253  10.757   7.737 -0.1198  0.1839 -0.5375
  341MOL0     H44998  10.261  10.837   8.051 -1.6383 -0.3622 -1.7434
  341MOL0     H44999  10.484  10.829   7.972  1.9649 -1.4251 -2.9174
  341MOL0     H45000  10.881  10.675   7.704  0.2990  0.6800  0.0968
  341MOL0     H45001  11.104  10.715   7.709  3.1302  0.9450  1.2143
  341MOL0     H45002  11.306  10.766   7.693 -0.6395 -1.0915  1.5034
  341MOL0     H45003  11.308  10.805   7.862 -2.4292  2.6861  0.4370
  341MOL0     H45004  11.486  10.993   7.696  1.1661 -2.3090 -1.4981
  341MOL0     H45005  11.477  10.951   7.861  3.1661 -0.0863  0.3869
  341MOL0     H45006  11.540  10.727   7.675 -1.8526  0.9114  0.1232
  341MOL0     H45007  11.561  10.729   7.855  0.8867 -1.6261 -0.1719
  341MOL0     H45008  11.754  10.840   7.857  2.6748 -0.1114 -0.2376
  341MOL0     H45009  11.755  10.715   7.724  0.4269 -0.1298  1.4536
  341MOL0     H45010  11.812  11.069   7.507  1.9250  0.0174  0.4590
  341MOL0     H45011  11.038  11.128   7.787  0.2149 -1.8036  0.4835
  341MOL0     H45012  10.809  11.108   7.766 -0.3245  0.6666 -1.8698
  342MOL0     O45013   8.874   0.700  11.092 -0.2088  0.3428  0.2368
  342MOL0     C45014   8.813   0.760  10.999  0.1228  0.0472 -0.3879
  342MOL0     O45015   8.684   0.818  11.009  0.2826 -0.2010 -0.5823
  342MOL0     C45016   8.603   0.797  11.121  0.7202  0.1350  0.5565
  342MOL0     C45017   8.483   0.865  11.113 -0.7597 -0.0546  0.0674
  342MOL0     C45018   8.391   0.853  11.215  0.0933 -0.6933 -0.8232
  342MOL0     C45019   8.398   0.762  11.319  0.1491  0.2313  0.7685
  342MOL0     O45020   8.302   0.740  11.415  0.0118 -0.1675 -0.4500
  342MOL0     C45021   8.203   0.843  11.433 -0.4436  0.9110 -0.0546
  342MOL0     C45022   8.125   0.796  11.553 -0.5450  0.5686  0.0415
  342MOL0     C45023   8.212   0.825  11.675  0.1699  0.5942 -0.2845
  342MOL0     C45024   8.147   0.790  11.810  0.2234 -0.7756 -0.6822
  342MOL0     C45025   8.226   0.851  11.927  0.2308  1.8535 -0.4018
  342MOL0     C45026   8.139   0.843  12.069 -0.4021  0.0302  0.0384
  342MOL0     C45027   7.995   0.902  12.061  0.2075  0.3796 -0.8421
  342MOL0     C45028   7.939   0.931  12.209  1.4379 -0.8296  0.0901
  342MOL0     N45029   7.997   1.054  12.268 -0.2405  0.1854 -0.1135
  342MOL0     C45030   7.968   1.179  12.218  0.0476 -0.4285 -0.4007
  342MOL0     C45031   8.055   1.270  12.269  0.1520  0.8421 -0.2681
  342MOL0     C45032   8.073   1.405  12.229  0.8208 -1.3846 -0.4182
  342MOL0     C45033   7.961   1.497  12.277  0.5528 -0.4725  0.7006
  342MOL0     C45034   8.001   1.644  12.294 -0.4730  0.6947 -1.2574
  342MOL0     C45035   7.896   1.752  12.300 -0.2827 -0.4734 -0.1774
  342MOL0     O45036   7.812   1.760  12.184  0.0823  0.2813 -0.5761
  342MOL0     C45037   7.697   1.691  12.182 -0.1382  0.8112 -0.4663
  342MOL0     C45038   7.663   1.631  12.058 -0.0122  0.1213 -0.5539
  342MOL0     C45039   7.542   1.565  12.037  0.5210  0.3433 -0.0514
  342MOL0     C45040   7.439   1.574  12.127  0.1493  0.4418  0.0894
  342MOL0     C45041   7.307   1.512  12.103  0.8394  0.2209 -0.1856
  342MOL0     O45042   7.207   1.540  12.188  0.1000  1.0559 -0.2883
  342MOL0     C45043   7.089   1.469  12.178 -0.2840  0.5078  0.4920
  342MOL0     C45044   7.007   1.463  12.066  1.2864  0.0682  0.2800
  342MOL0     C45045   6.878   1.399  12.067 -0.4929 -0.5859  0.1216
  342MOL0     C45046   6.828   1.352  12.188 -0.1878  0.0016  0.4902
  342MOL0     O45047   6.709   1.287  12.207 -0.6138  0.3408  0.2498
  342MOL0     C45048   6.595   1.317  12.128 -0.9764 -0.2630  0.2872
  342MOL0     C45049   6.471   1.250  12.192 -0.0485 -0.7068  0.3100
  342MOL0     C45050   6.480   1.094  12.188 -0.0342  0.0755  0.7378
  342MOL0     C45051   6.343   1.030  12.214  0.2593  0.6418  0.2971
  342MOL0     C45052   6.241   1.041  12.100  0.5655 -0.5915 -0.8653
  342MOL0     C45053   6.165   0.910  12.088  0.4573 -0.3766 -0.2609
  342MOL0     C45054   6.027   0.931  12.007  0.2918  0.5453 -0.0192
  342MOL0     C45055   6.036   0.921  11.848 -0.8096  0.3944  0.3921
  342MOL0    Cl45056   5.886   0.941  11.755 -0.2162 -0.5262 -0.1736
  342MOL0     C45057   6.911   1.363  12.303  0.2940 -0.1533 -0.5245
  342MOL0     C45058   7.040   1.419  12.297  0.5254 -0.0924  0.5832
  342MOL0     O45059   7.298   1.445  12.000 -0.2743  0.0335 -0.4879
  342MOL0     C45060   7.472   1.629  12.249 -0.0497  0.1649 -0.1747
  342MOL0     C45061   7.592   1.689  12.276  0.1939  1.1228 -0.4960
  342MOL0     N45062   8.148   1.188  12.343 -0.2399 -0.5594  0.6068
  342MOL0     N45063   8.098   1.067  12.356  0.2707  0.4496 -0.0431
  342MOL0     C45064   8.524   0.696  11.330 -0.6154 -0.4453  0.4596
  342MOL0     C45065   8.623   0.711  11.235  0.6801  0.9699  0.2445
  342MOL0     C45066   8.878   0.791  10.867 -0.9290 -0.7410 -0.8921
  342MOL0     C45067   8.804   0.837  10.756 -0.7127  0.7007  0.1754
  342MOL0     C45068   8.860   0.852  10.623 -0.2017  0.0285  0.1421
  342MOL0     C45069   8.998   0.819  10.605  0.4087 -0.0993  0.2707
  342MOL0     O45070   9.049   0.823  10.479  0.0612 -1.5857 -0.1446
  342MOL0     C45071   9.189   0.809  10.469 -0.3567  0.8591 -0.5784
  342MOL0     C45072   9.237   0.821  10.323  0.1169  1.2947 -0.2150
  342MOL0     C45073   9.389   0.827  10.301  0.9195  0.2543 -0.8977
  342MOL0     C45074   9.423   0.838  10.165 -0.2161 -0.5143  0.0838
  342MOL0     C45075   9.569   0.824  10.146 -0.4609  0.2311 -0.5724
  342MOL0     C45076   9.687   0.822  10.132 -0.3533 -0.0173  0.1785
  342MOL0     C45077   9.071   0.782  10.716  0.1323  0.4249  0.7648
  342MOL0     C45078   9.014   0.761  10.844 -0.0088 -0.1886  0.3923
  342MOL0     H45079   8.466   0.931  11.029 -2.3490  0.3821  0.6870
  342MOL0     H45080   8.304   0.917  11.203 -0.7242 -1.6629 -0.2918
  342MOL0     H45081   8.133   0.847  11.350 -0.7909 -0.7323  0.1229
  342MOL0     H45082   8.246   0.942  11.451 -0.9374  0.9886  0.7511
  342MOL0     H45083   8.109   0.688  11.549  3.2486 -0.2599  2.2829
  342MOL0     H45084   8.024   0.838  11.548 -0.5398  0.4863 -0.8968
  342MOL0     H45085   8.246   0.929  11.681  2.2592 -0.1196  2.7924
  342MOL0     H45086   8.308   0.773  11.687  0.0086  0.9312  5.4268
  342MOL0     H45087   8.051   0.839  11.791 -0.6889 -2.6206 -1.0641
  342MOL0     H45088   8.127   0.683  11.821 -0.4742 -0.5621  0.2233
  342MOL0     H45089   8.259   0.951  11.898  0.9729  2.0472  0.9766
  342MOL0     H45090   8.320   0.799  11.950 -0.3210  1.4320  1.0276
  342MOL0     H45091   8.187   0.898  12.151 -3.3961  0.2086  1.8057
  342MOL0     H45092   8.138   0.745  12.118  0.2713  0.0311  0.0757
  342MOL0     H45093   7.994   0.993  12.000 -2.7195  2.1560  1.6049
  342MOL0     H45094   7.939   0.820  12.014  1.8856 -1.9533  1.0119
  342MOL0     H45095   7.948   0.854  12.285 -2.9080 -0.9639  0.7288
  342MOL0     H45096   7.831   0.948  12.203  0.8139 -4.0244  0.6422
  342MOL0     H45097   7.877   1.216  12.174 -0.6082 -0.5342  0.8078
  342MOL0     H45098   8.084   1.405  12.120 -0.4207 -1.4294 -0.5584
  342MOL0     H45099   8.166   1.442  12.272  0.9056 -3.7263  1.6692
  342MOL0     H45100   7.919   1.453  12.368 -0.7693 -0.5653  0.0828
  342MOL0     H45101   7.880   1.501  12.203  1.3946  1.2043 -0.1875
  342MOL0     H45102   8.066   1.645  12.382 -0.7777 -1.7280 -0.9411
  342MOL0     H45103   8.060   1.683  12.211  0.6035 -0.4935 -1.0884
  342MOL0     H45104   7.936   1.847  12.335 -0.5960 -0.9599  1.5797
  342MOL0     H45105   7.835   1.717  12.383 -1.7841 -0.2541 -1.1489
  342MOL0     H45106   7.738   1.634  11.980 -2.8962 -1.2413 -3.6195
  342MOL0     H45107   7.526   1.528  11.936  0.7186  0.6161 -0.1858
  342MOL0     H45108   7.043   1.507  11.973  0.7135 -1.8136 -0.9033
  342MOL0     H45109   6.823   1.391  11.974  2.0294  3.2366 -1.9976
  342MOL0     H45110   6.613   1.273  12.029 -0.8610  0.7590 -0.1554
  342MOL0     H45111   6.582   1.425  12.120  1.2857  0.1882  1.9345
  342MOL0     H45112   6.383   1.273  12.131 -0.5764 -0.0009  1.3135
  342MOL0     H45113   6.456   1.274  12.298  0.3948 -0.9590  0.4355
  342MOL0     H45114   6.556   1.058  12.259 -0.7446 -1.1898  0.8768
  342MOL0     H45115   6.515   1.058  12.091  1.5231 -1.8875  1.9477
  342MOL0     H45116   6.363   0.926  12.241  1.7703  0.4824 -1.2283
  342MOL0     H45117   6.312   1.071  12.311  0.6350  2.8142 -0.4313
  342MOL0     H45118   6.282   1.071  12.003 -2.6497 -0.6740 -2.3919
  342MOL0     H45119   6.174   1.115  12.143  1.3595 -2.6550  4.7968
  342MOL0     H45120   6.130   0.873  12.185 -0.7835 -0.0327 -0.5609
  342MOL0     H45121   6.212   0.838  12.020 -1.1869 -1.9420  0.2047
  342MOL0     H45122   5.955   0.857  12.042 -0.0596  0.4694 -0.9006
  342MOL0     H45123   5.983   1.028  12.030 -2.4934 -1.1016  2.2603
  342MOL0     H45124   6.080   0.830  11.807 -2.6461 -0.2179 -0.3395
  342MOL0     H45125   6.112   0.996  11.827 -0.1324 -0.3796  0.0085
  342MOL0     H45126   6.869   1.329  12.398 -0.4454 -3.3782 -1.8855
  342MOL0     H45127   7.095   1.438  12.389 -1.1211  1.5578  1.2891
  342MOL0     H45128   7.402   1.638  12.332  1.5390  1.0602  1.1222
  342MOL0     H45129   7.608   1.737  12.372 -0.0536 -0.7658  0.5580
  342MOL0     H45130   8.536   0.626  11.411  2.0782  0.4300  0.9260
  342MOL0     H45131   8.710   0.647  11.244  0.9325  1.4198  1.1176
  342MOL0     H45132   8.698   0.855  10.772 -1.0153  2.8198 -3.3117
  342MOL0     H45133   8.792   0.869  10.540 -1.0584 -2.3161  0.3047
  342MOL0     H45134   9.221   0.714  10.512  3.9257  2.9159  1.3639
  342MOL0     H45135   9.240   0.887  10.526 -0.2996  0.5223 -0.1645
  342MOL0     H45136   9.192   0.732  10.277 -1.7446  2.6500 -1.1549
  342MOL0     H45137   9.187   0.907  10.276 -2.5615 -0.7425 -1.3956
  342MOL0     H45138   9.438   0.735  10.334  3.1750  1.0960 -1.7742
  342MOL0     H45139   9.424   0.910  10.363 -0.7614 -0.0815  0.5870
  342MOL0     H45140   9.378   0.769  10.094 -1.9332  2.0749 -1.5380
  342MOL0     H45141   9.395   0.939  10.135  0.6389  0.0378  1.0671
  342MOL0     H45142   9.790   0.827  10.104 -0.2926 -2.2728 -0.1706
  342MOL0     H45143   9.176   0.760  10.701 -0.1374  1.4915 -4.0587
  342MOL0     H45144   9.064   0.705  10.922 -2.1029 -0.5078  1.5693
  343MOL0     O45145   1.562   5.269   0.829  1.0913 -0.0823  0.1077
  343MOL0     C45146   1.463   5.195   0.853  0.2901 -0.3470 -1.2360
  343MOL0     O45147   1.356   5.225   0.929 -0.1832 -0.2099 -0.3287
  343MOL0     C45148   1.345   5.354   0.972 -0.7442 -0.4248 -0.4669
  343MOL0     C45149   1.420   5.404   1.083 -0.2189 -0.4610 -0.2911
  343MOL0     C45150   1.399   5.534   1.130  0.1130 -0.3198  0.2673
  343MOL0     C45151   1.314   5.624   1.058  0.4684  0.5038  0.2337
  343MOL0     O45152   1.284   5.754   1.101  0.8117  0.4902  0.0937
  343MOL0     C45153   1.364   5.817   1.205  0.3849  0.7556  0.6368
  343MOL0     C45154   1.490   5.884   1.143 -0.0080  0.2123 -0.0561
  343MOL0     C45155   1.457   5.988   1.043 -0.1982  0.8584 -0.6157
  343MOL0     C45156   1.427   6.129   1.091  0.2514 -0.4343  0.4252
  343MOL0     C45157   1.389   6.227   0.972  0.4087  0.3064 -0.0945
  343MOL0     C45158   1.388   6.367   1.019 -0.4417 -0.1045  0.3295
  343MOL0     C45159   1.523   6.430   1.023 -0.2988 -0.9860  0.1996
  343MOL0     C45160   1.569   6.511   0.899 -0.5392  0.3879 -0.8358
  343MOL0     N45161   1.469   6.614   0.877 -0.2394 -0.3984  0.3774
  343MOL0     C45162   1.375   6.603   0.772  0.9384 -0.4874  0.2018
  343MOL0     C45163   1.310   6.722   0.785 -0.0702 -0.1334 -0.5546
  343MOL0     C45164   1.213   6.779   0.680  0.0002 -0.6118  0.4200
  343MOL0     C45165   1.086   6.688   0.670  0.1338 -0.2430  0.2358
  343MOL0     C45166   0.970   6.758   0.602 -0.4733  0.2651  1.5056
  343MOL0     C45167   0.860   6.652   0.593 -0.6273  0.6294 -0.0668
  343MOL0     O45168   0.772   6.692   0.499  0.3107 -0.7262  0.4555
  343MOL0     C45169   0.631   6.665   0.524 -0.7566  0.1701  0.7235
  343MOL0     C45170   0.542   6.727   0.443  0.3942  1.1714 -0.3070
  343MOL0     C45171   0.401   6.703   0.462  0.3987  0.1868  0.6496
  343MOL0     C45172   0.349   6.614   0.553 -0.5101  0.3110  0.1310
  343MOL0     C45173   0.203   6.590   0.573  0.7669 -1.3896 -0.2034
  343MOL0     O45174   0.119   6.630   0.473  0.4013 -0.0340 -0.1634
  343MOL0     C45175  -0.010   6.592   0.479  1.2433  0.0228 -0.3094
  343MOL0     C45176  -0.104   6.696   0.466  0.2960  0.3802  0.6304
  343MOL0     C45177  -0.241   6.660   0.464  0.6324  0.4799 -0.5349
  343MOL0     C45178  -0.281   6.529   0.473  0.4045  0.6738  0.2368
  343MOL0     O45179  -0.418   6.527   0.470 -0.5075 -0.1872 -0.2389
  343MOL0     C45180  -0.461   6.392   0.495 -0.6753 -0.8657 -0.1021
  343MOL0     C45181  -0.608   6.391   0.503 -0.4091  1.0440 -0.4364
  343MOL0     C45182  -0.684   6.408   0.366  0.6748  0.1840 -0.2260
  343MOL0     C45183  -0.831   6.435   0.392 -0.0581  0.7472  0.5557
  343MOL0     C45184  -0.919   6.402   0.275  0.1889 -0.2339 -0.9052
  343MOL0     C45185  -1.058   6.466   0.281  0.0518 -0.4622  0.2654
  343MOL0     C45186  -1.111   6.447   0.143  0.5984 -0.1933  1.0092
  343MOL0     C45187  -1.236   6.527   0.118 -0.8160 -0.4279 -0.3339
  343MOL0    Cl45188  -1.378   6.438   0.183 -0.1296 -0.1507  0.1248
  343MOL0     C45189  -0.192   6.420   0.488 -0.5681  0.2164  0.4752
  343MOL0     C45190  -0.052   6.457   0.477 -0.1185  0.2124 -0.1024
  343MOL0     O45191   0.173   6.526   0.667  0.5181  1.1216  0.3534
  343MOL0     C45192   0.451   6.565   0.647 -0.2593 -0.0726  0.3086
  343MOL0     C45193   0.587   6.587   0.626  0.3613  0.5112 -0.7329
  343MOL0     N45194   1.356   6.789   0.896 -0.6115 -0.3032 -0.2096
  343MOL0     N45195   1.456   6.725   0.944 -0.6680 -0.0230 -0.0329
  343MOL0     C45196   1.238   5.567   0.958 -0.3120  0.1712  0.2157
  343MOL0     C45197   1.247   5.441   0.921  1.0047  0.4668  0.3605
  343MOL0     C45198   1.468   5.068   0.766 -0.1361  0.6132 -0.8999
  343MOL0     C45199   1.360   4.983   0.770 -0.3196 -1.0602 -0.4409
  343MOL0     C45200   1.349   4.862   0.704  0.9030  0.5897  0.5571
  343MOL0     C45201   1.458   4.823   0.631  0.1622 -0.6189  0.2815
  343MOL0     O45202   1.461   4.711   0.560 -0.1119 -0.1695 -0.0135
  343MOL0     C45203   1.360   4.608   0.556 -0.4737 -0.0443  0.0521
  343MOL0     C45204   1.380   4.520   0.680 -0.1719 -0.1289  0.1563
  343MOL0     C45205   1.264   4.426   0.711  0.2620  0.0354 -0.2933
  343MOL0     C45206   1.241   4.302   0.624 -0.6933 -0.4147  0.3137
  343MOL0     C45207   1.347   4.201   0.652  0.2876  0.0840  0.3337
  343MOL0     C45208   1.438   4.118   0.672 -0.2521 -1.1470 -0.3603
  343MOL0     C45209   1.571   4.907   0.626 -0.1402  0.6257 -1.2419
  343MOL0     C45210   1.575   5.028   0.689  0.5374 -0.1088 -0.7031
  343MOL0     H45211   1.478   5.325   1.130 -0.4017  0.3356  1.3730
  343MOL0     H45212   1.453   5.553   1.222 -2.0036 -1.2485  1.7884
  343MOL0     H45213   1.401   5.755   1.287  1.5655  0.7919  0.1526
  343MOL0     H45214   1.307   5.897   1.253 -1.4555 -0.9999  1.5303
  343MOL0     H45215   1.550   5.809   1.091 -1.8142 -2.1366  1.0732
  343MOL0     H45216   1.548   5.922   1.228 -2.0246 -1.4603  2.1996
  343MOL0     H45217   1.362   5.967   0.992 -0.1304  1.2793 -0.9236
  343MOL0     H45218   1.532   5.988   0.963  0.7808 -1.4080  0.2088
  343MOL0     H45219   1.345   6.131   1.163  0.6233 -2.2231  0.9519
  343MOL0     H45220   1.522   6.168   1.129  0.2591 -2.3850  2.6811
  343MOL0     H45221   1.289   6.192   0.942 -0.6077  1.5068  1.7290
  343MOL0     H45222   1.471   6.210   0.901  4.5409  1.7313  3.8470
  343MOL0     H45223   1.346   6.366   1.120 -2.2294 -2.0011 -0.3480
  343MOL0     H45224   1.312   6.428   0.968  0.9414  0.3110 -1.3325
  343MOL0     H45225   1.512   6.508   1.099  2.9474  1.3858 -1.5504
  343MOL0     H45226   1.601   6.359   1.053 -0.6983 -1.3367  0.4332
  343MOL0     H45227   1.573   6.442   0.815 -0.5154  1.8851 -2.0997
  343MOL0     H45228   1.669   6.552   0.919 -0.6421 -0.1264  0.9425
  343MOL0     H45229   1.368   6.525   0.696 -0.2255  0.2790 -0.4997
  343MOL0     H45230   1.259   6.792   0.581 -0.8905 -2.7010 -0.3325
  343MOL0     H45231   1.180   6.879   0.711 -4.1411 -1.4574 -0.5810
  343MOL0     H45232   1.065   6.641   0.767 -0.1199 -1.8773 -0.5708
  343MOL0     H45233   1.109   6.604   0.604 -1.4704  1.3911 -2.5429
  343MOL0     H45234   0.945   6.837   0.672  1.4968  1.4752  0.9369
  343MOL0     H45235   0.997   6.797   0.503 -1.0153  0.3269  1.3817
  343MOL0     H45236   0.810   6.641   0.689  0.5972  1.5028  0.7151
  343MOL0     H45237   0.908   6.557   0.569 -3.7421 -1.0289 -0.2057
  343MOL0     H45238   0.578   6.796   0.367 -1.6434  3.1833  0.4113
  343MOL0     H45239   0.329   6.762   0.406 -2.3467 -1.8486  1.8712
  343MOL0     H45240  -0.085   6.799   0.436 -1.4367  1.2836  2.3883
  343MOL0     H45241  -0.324   6.728   0.451 -0.8294 -0.9675  0.7506
  343MOL0     H45242  -0.413   6.357   0.586  3.2228 -0.2600 -1.7468
  343MOL0     H45243  -0.425   6.327   0.414  0.6392 -0.4398  0.1196
  343MOL0     H45244  -0.638   6.474   0.568  0.9094  0.1792  1.3675
  343MOL0     H45245  -0.625   6.298   0.558  2.5232  0.2113 -0.7748
  343MOL0     H45246  -0.668   6.313   0.315  0.8265 -0.4274  0.9238
  343MOL0     H45247  -0.648   6.492   0.306  0.2735  2.1736  2.1598
  343MOL0     H45248  -0.866   6.382   0.481  1.2847 -2.1295 -0.4936
  343MOL0     H45249  -0.851   6.541   0.413 -1.9494  0.3608  0.8399
  343MOL0     H45250  -0.924   6.293   0.273 -0.0016 -0.2228 -1.1898
  343MOL0     H45251  -0.867   6.444   0.188  0.5063  0.0609 -0.5733
  343MOL0     H45252  -1.042   6.572   0.305  4.6033 -0.8838 -0.0708
  343MOL0     H45253  -1.114   6.416   0.360 -0.1026  1.4175  1.4193
  343MOL0     H45254  -1.035   6.488   0.076 -0.0053 -0.6410  0.0299
  343MOL0     H45255  -1.142   6.345   0.117 -2.3251  0.5451  1.2227
  343MOL0     H45256  -1.247   6.541   0.010 -1.5786  0.3190 -0.1705
  343MOL0     H45257  -1.229   6.624   0.169  1.3308  0.1074 -1.5446
  343MOL0     H45258  -0.203   6.314   0.513  4.1412 -0.5458  0.2744
  343MOL0     H45259   0.028   6.385   0.485 -1.6159 -1.5238  0.0133
  343MOL0     H45260   0.425   6.510   0.737 -2.0573 -1.3321 -0.9024
  343MOL0     H45261   0.652   6.520   0.681 -2.0450 -1.6746 -0.3479
  343MOL0     H45262   1.171   5.632   0.903  1.3886 -0.1786 -2.4213
  343MOL0     H45263   1.174   5.395   0.854 -0.0923  1.4016  0.8894
  343MOL0     H45264   1.282   5.018   0.836  1.1149  0.6105  0.4515
  343MOL0     H45265   1.264   4.795   0.705  1.6488 -0.5708 -2.6399
  343MOL0     H45266   1.372   4.550   0.464  2.9997 -3.5184  2.3912
  343MOL0     H45267   1.257   4.645   0.553 -0.5959 -0.4119 -0.7757
  343MOL0     H45268   1.474   4.465   0.672  0.6495  1.0050  1.4344
  343MOL0     H45269   1.405   4.571   0.774 -1.9957  0.7454  0.2028
  343MOL0     H45270   1.166   4.474   0.704 -0.4684 -1.6265 -2.4642
  343MOL0     H45271   1.268   4.392   0.815  0.6144  0.5891 -0.1220
  343MOL0     H45272   1.135   4.275   0.629 -1.2572  1.6231  0.0717
  343MOL0     H45273   1.253   4.333   0.519 -0.9221 -1.2661  0.0235
  343MOL0     H45274   1.515   4.043   0.670  1.4365  0.4718  0.7188
  343MOL0     H45275   1.663   4.878   0.578  0.6508 -1.2145  1.2134
  343MOL0     H45276   1.670   5.080   0.692 -1.0991  3.1186  2.0833
  344MOL0     O45277   1.312   9.419   6.281 -0.0695 -0.0255  0.1556
  344MOL0     C45278   1.335   9.451   6.164  0.7637  0.2995 -0.1332
  344MOL0     O45279   1.272   9.554   6.100 -0.4676 -0.2035 -0.6178
  344MOL0     C45280   1.182   9.635   6.176 -0.4143  0.4858 -0.5311
  344MOL0     C45281   1.221   9.764   6.220 -0.3037 -0.3962 -0.4013
  344MOL0     C45282   1.137   9.840   6.297  0.3178  0.5373  0.6237
  344MOL0     C45283   1.013   9.787   6.340  0.1795 -0.2983  0.2645
  344MOL0     O45284   0.938   9.871   6.408 -0.6862 -0.1872 -0.0611
  344MOL0     C45285   0.828   9.912   6.333  0.1265 -0.4563 -0.3013
  344MOL0     C45286   0.745  10.004   6.421 -0.0328  0.3946  1.1409
  344MOL0     C45287   0.627  10.054   6.338 -0.7126  0.1402  0.7460
  344MOL0     C45288   0.516  10.091   6.433 -0.6137  0.0969 -0.4397
  344MOL0     C45289   0.398  10.143   6.349  0.0310  0.0810 -0.3551
  344MOL0     C45290   0.269  10.149   6.431 -0.3022 -0.1092  0.0736
  344MOL0     C45291   0.152  10.162   6.341 -1.0512  0.0868 -0.0864
  344MOL0     C45292   0.026  10.149   6.420  0.4009 -0.2538  0.0546
  344MOL0     N45293  -0.096  10.136   6.333  0.0930 -0.7685  0.1268
  344MOL0     C45294  -0.146  10.235   6.264 -0.0211 -0.7259 -0.8774
  344MOL0     C45295  -0.276  10.209   6.244  0.4910  0.0714 -1.0668
  344MOL0     C45296  -0.368  10.279   6.140  0.3177 -0.6330 -0.9062
  344MOL0     C45297  -0.512  10.227   6.133 -0.2097 -0.2391 -0.6924
  344MOL0     C45298  -0.596  10.331   6.055  0.4685  0.4794  1.0213
  344MOL0     C45299  -0.743  10.300   6.043 -0.0110 -0.5451 -0.2562
  344MOL0     O45300  -0.815  10.411   5.992  0.3221  0.2001  0.4571
  344MOL0     C45301  -0.949  10.403   6.011  0.3102 -0.2096 -0.0290
  344MOL0     C45302  -1.025  10.302   6.075 -0.5266  0.0176 -0.2270
  344MOL0     C45303  -1.162  10.306   6.061 -0.3635 -0.1131 -0.4342
  344MOL0     C45304  -1.228  10.405   5.999  0.0721 -0.1283 -0.9143
  344MOL0     C45305  -1.375  10.425   6.016 -0.3740  0.4273 -1.0845
  344MOL0     O45306  -1.442  10.311   6.060 -0.1438 -0.5862 -0.2310
  344MOL0     C45307  -1.579  10.295   6.081 -0.1032 -0.8201 -0.5322
  344MOL0     C45308  -1.656  10.401   6.143 -0.7489  1.0124 -0.2387
  344MOL0     C45309  -1.792  10.374   6.168 -0.3814 -0.3949  0.1835
  344MOL0     C45310  -1.844  10.249   6.139  0.9864 -0.3665 -0.2877
  344MOL0     O45311  -1.973  10.209   6.171  0.4813 -0.2082 -0.4798
  344MOL0     C45312  -2.061  10.287   6.256 -0.0332 -0.7645  0.7013
  344MOL0     C45313  -2.211  10.243   6.253  0.2614  0.1563 -0.3885
  344MOL0     C45314  -2.233  10.098   6.292  0.5393 -0.0921  0.2064
  344MOL0     C45315  -2.386  10.068   6.281 -0.0367 -0.0972 -0.4625
  344MOL0     C45316  -2.423   9.923   6.284 -0.3152 -0.3695  0.0084
  344MOL0     C45317  -2.571   9.916   6.256  0.2027  0.5105 -0.3060
  344MOL0     C45318  -2.601   9.769   6.201  0.2466 -0.6724  0.7414
  344MOL0     C45319  -2.739   9.778   6.116  0.5169 -0.3388 -0.4846
  344MOL0    Cl45320  -2.890   9.810   6.224 -0.4412  0.1061 -0.3019
  344MOL0     C45321  -1.768  10.149   6.080 -0.5830 -0.6261 -0.0814
  344MOL0     C45322  -1.630  10.170   6.057  0.5498  1.3911 -0.1059
  344MOL0     O45323  -1.425  10.531   5.996 -0.4665 -0.8046 -0.4301
  344MOL0     C45324  -1.157  10.515   5.946  0.2688 -0.6222  0.0819
  344MOL0     C45325  -1.017  10.514   5.958 -0.0573 -0.3772  0.0483
  344MOL0     N45326  -0.305  10.093   6.309  0.1348 -0.0425  0.0483
  344MOL0     N45327  -0.196  10.046   6.360  0.4200 -0.2317 -0.1588
  344MOL0     C45328   0.968   9.664   6.302  0.0563  0.8826 -1.3351
  344MOL0     C45329   1.055   9.590   6.220  0.4216 -0.0149  0.2994
  344MOL0     C45330   1.416   9.358   6.089  0.6227  0.2154  0.0970
  344MOL0     C45331   1.479   9.400   5.969 -0.0974  0.6237 -0.1389
  344MOL0     C45332   1.567   9.307   5.905  0.1528 -0.9485  0.3515
  344MOL0     C45333   1.591   9.185   5.955 -0.3087  0.2304  0.0172
  344MOL0     O45334   1.687   9.107   5.912 -0.7791  0.4532  0.5772
  344MOL0     C45335   1.824   9.153   5.921  0.5348  0.4012 -0.2231
  344MOL0     C45336   1.905   9.075   6.028  0.7676 -0.1264 -0.3132
  344MOL0     C45337   2.063   9.107   5.999 -0.2879  1.3112  0.6252
  344MOL0     C45338   2.148   8.992   6.062  0.0160 -0.3651 -0.6189
  344MOL0     C45339   2.176   8.997   6.210  0.4528  0.5474 -0.0467
  344MOL0     C45340   2.202   9.005   6.326  0.3346 -0.0157 -0.2301
  344MOL0     C45341   1.520   9.140   6.068  0.0452 -0.2622  0.6015
  344MOL0     C45342   1.440   9.228   6.135 -1.0037 -0.9597  0.4919
  344MOL0     H45343   1.317   9.803   6.190 -0.5957 -0.3456 -1.3094
  344MOL0     H45344   1.160   9.945   6.312 -0.6496  0.9127 -0.4163
  344MOL0     H45345   0.769   9.829   6.295  0.7945 -0.0221 -2.3974
  344MOL0     H45346   0.859   9.974   6.248  1.7227 -0.7001  0.0656
  344MOL0     H45347   0.819  10.075   6.459  1.5910  0.3699 -1.6764
  344MOL0     H45348   0.700   9.939   6.496  0.5322 -0.9008  0.3998
  344MOL0     H45349   0.593   9.977   6.268  0.7809  2.7113 -3.1163
  344MOL0     H45350   0.650  10.137   6.271 -1.1185 -1.4002 -1.4276
  344MOL0     H45351   0.481  10.006   6.492 -0.7677  0.2005 -0.3807
  344MOL0     H45352   0.547  10.162   6.510 -0.6082 -1.4095  0.9842
  344MOL0     H45353   0.377  10.085   6.259 -2.9412  0.4046  0.0269
  344MOL0     H45354   0.421  10.245   6.317 -1.4469  0.0780 -1.5197
  344MOL0     H45355   0.274  10.236   6.497 -2.3400 -0.5283  0.8512
  344MOL0     H45356   0.254  10.060   6.492 -5.5437 -0.5802 -1.4214
  344MOL0     H45357   0.163  10.254   6.282 -1.2538 -0.7872 -1.5343
  344MOL0     H45358   0.156  10.076   6.273  2.1051 -0.1087  0.2167
  344MOL0     H45359   0.013  10.238   6.483 -2.6098 -0.5874  0.0735
  344MOL0     H45360   0.027  10.060   6.484  0.6976 -0.4848 -0.2695
  344MOL0     H45361  -0.091  10.322   6.230 -0.4365  1.4415  3.3854
  344MOL0     H45362  -0.330  10.261   6.039  1.5567 -0.5621 -0.4725
  344MOL0     H45363  -0.362  10.386   6.162 -0.2156 -0.5621 -1.0833
  344MOL0     H45364  -0.551  10.199   6.231 -0.0718 -0.4908 -0.7072
  344MOL0     H45365  -0.515  10.127   6.088 -2.1309 -1.7959  2.5459
  344MOL0     H45366  -0.592  10.432   6.097  1.3069 -0.1481  2.5223
  344MOL0     H45367  -0.556  10.321   5.953 -1.1946 -1.5224  0.4983
  344MOL0     H45368  -0.774  10.288   6.148  0.7928  1.8209  0.3312
  344MOL0     H45369  -0.765  10.209   5.987  1.0629 -0.6568 -0.5151
  344MOL0     H45370  -0.976  10.209   6.104 -1.9423 -1.0310 -1.1064
  344MOL0     H45371  -1.218  10.216   6.085  0.6440 -0.2221  1.7203
  344MOL0     H45372  -1.609  10.497   6.165 -0.5121  0.8437 -0.0122
  344MOL0     H45373  -1.858  10.446   6.215  0.1803  0.3313 -0.1351
  344MOL0     H45374  -2.060  10.395   6.238 -0.5105 -1.3003 -3.5804
  344MOL0     H45375  -2.021  10.282   6.357  0.3364  3.4007  0.9120
  344MOL0     H45376  -2.249  10.262   6.152 -1.9452  1.6778  0.6530
  344MOL0     H45377  -2.274  10.293   6.328  0.3943 -4.9081  3.6154
  344MOL0     H45378  -2.203  10.071   6.394  3.1899 -1.2487 -0.7884
  344MOL0     H45379  -2.177  10.026   6.231  0.4680 -1.3865  1.6185
  344MOL0     H45380  -2.442  10.123   6.356  0.8693 -2.5425  2.1622
  344MOL0     H45381  -2.422  10.096   6.181  1.3874  0.0674 -0.9557
  344MOL0     H45382  -2.410   9.891   6.388 -1.0818  2.5718  1.1313
  344MOL0     H45383  -2.362   9.870   6.210 -0.4696  3.5053 -3.2261
  344MOL0     H45384  -2.612   9.994   6.191 -0.4125  2.2593  2.0198
  344MOL0     H45385  -2.629   9.920   6.349 -2.2946 -4.3627 -1.3336
  344MOL0     H45386  -2.525   9.752   6.125 -1.0126  1.7895 -1.2002
  344MOL0     H45387  -2.599   9.703   6.288 -0.2551 -0.0852  1.2132
  344MOL0     H45388  -2.741   9.683   6.061  2.3482 -0.5773 -0.2063
  344MOL0     H45389  -2.732   9.863   6.048 -1.9119 -0.4076 -0.9108
  344MOL0     H45390  -1.787  10.044   6.062 -1.9870 -0.4868  0.4198
  344MOL0     H45391  -1.566  10.090   6.022 -0.2763  0.4370  0.5030
  344MOL0     H45392  -1.199  10.606   5.906  3.1426  1.0584  0.5926
  344MOL0     H45393  -0.967  10.599   5.913 -1.5096 -0.7137 -2.3807
  344MOL0     H45394   0.872   9.628   6.336  1.7024 -0.6794  2.0775
  344MOL0     H45395   1.020   9.492   6.188  1.2550 -0.1766 -0.1484
  344MOL0     H45396   1.474   9.498   5.922  0.8704  0.4220 -0.6933
  344MOL0     H45397   1.633   9.334   5.824  1.1682 -1.6070  0.9382
  344MOL0     H45398   1.832   9.262   5.932 -1.5090  0.4001  1.8284
  344MOL0     H45399   1.863   9.131   5.821  1.8549  1.8123 -0.0597
  344MOL0     H45400   1.884   9.086   6.134 -0.4037 -2.5741 -0.2269
  344MOL0     H45401   1.883   8.969   6.010  0.6979 -0.8637  3.3685
  344MOL0     H45402   2.092   9.209   6.028  1.6048  0.4682  1.9041
  344MOL0     H45403   2.068   9.110   5.890 -2.0486  0.2423  0.4822
  344MOL0     H45404   2.126   8.885   6.048  2.5815 -1.0208 -0.0489
  344MOL0     H45405   2.249   9.002   6.021 -0.0852  0.4826 -0.6696
  344MOL0     H45406   2.210   9.003   6.433  0.3598 -0.9438 -0.2377
  344MOL0     H45407   1.519   9.042   6.114 -1.8245  0.2208  1.6895
  344MOL0     H45408   1.398   9.207   6.234  1.8025  2.1450  2.5501
  345MOL0     O45409   5.747   9.378   5.096  0.5201 -1.1495 -0.4918
  345MOL0     C45410   5.749   9.502   5.101 -1.3211 -0.3295 -0.3848
  345MOL0     O45411   5.649   9.593   5.141 -0.1306  0.7858 -0.0606
  345MOL0     C45412   5.529   9.530   5.171 -0.1331  0.1266  0.3413
  345MOL0     C45413   5.422   9.574   5.089 -1.4207 -1.1271  0.7016
  345MOL0     C45414   5.291   9.548   5.127  0.7256  0.0112 -0.7909
  345MOL0     C45415   5.265   9.482   5.252 -0.0778  0.0399 -0.0107
  345MOL0     O45416   5.138   9.455   5.301  0.4615  0.1348  0.9932
  345MOL0     C45417   5.050   9.384   5.215 -0.7590  0.3327  0.0140
  345MOL0     C45418   4.915   9.378   5.282  0.4316  0.5210 -0.1168
  345MOL0     C45419   4.799   9.347   5.194 -0.3061  0.4863  0.8564
  345MOL0     C45420   4.658   9.352   5.258 -0.3525 -0.7305  0.0772
  345MOL0     C45421   4.551   9.288   5.165  0.9806  0.2467  0.4003
  345MOL0     C45422   4.412   9.291   5.219  0.6775  0.5421 -0.2386
  345MOL0     C45423   4.308   9.241   5.116 -0.7752  0.0075 -0.4940
  345MOL0     C45424   4.179   9.182   5.181 -0.1385 -0.2874  0.2981
  345MOL0     N45425   4.103   9.286   5.238  0.8408 -0.0692  0.4560
  345MOL0     C45426   4.107   9.330   5.367 -0.4807 -0.2355 -0.1631
  345MOL0     C45427   4.017   9.432   5.370 -1.1436 -0.2715  0.0255
  345MOL0     C45428   3.993   9.511   5.491  0.0716 -0.0509  0.1652
  345MOL0     C45429   3.883   9.468   5.578 -0.2764 -0.0408 -0.7976
  345MOL0     C45430   3.864   9.578   5.693  0.1196  0.0703 -0.4209
  345MOL0     C45431   3.742   9.556   5.773 -0.2817  0.4142  0.3593
  345MOL0     O45432   3.754   9.430   5.841  0.6000 -0.1739 -0.6377
  345MOL0     C45433   3.634   9.384   5.894  0.0312 -0.3349  0.2588
  345MOL0     C45434   3.511   9.439   5.889  0.4527 -0.0535 -0.0562
  345MOL0     C45435   3.410   9.363   5.931 -0.3438 -0.2615 -0.7375
  345MOL0     C45436   3.413   9.229   5.969  0.1590  0.3352 -0.3844
  345MOL0     C45437   3.286   9.149   5.986 -0.3079  0.2965  0.4373
  345MOL0     O45438   3.288   9.010   6.012 -0.2629  0.2954  0.1499
  345MOL0     C45439   3.178   8.929   6.003 -0.1029  0.0245  0.9953
  345MOL0     C45440   3.170   8.816   6.084  0.3230 -0.1082 -0.1189
  345MOL0     C45441   3.058   8.733   6.053  0.6753  0.4396  0.2527
  345MOL0     C45442   2.951   8.761   5.966 -0.9810 -0.5649 -0.8394
  345MOL0     O45443   2.839   8.683   5.942 -0.6117 -0.6994 -0.1477
  345MOL0     C45444   2.754   8.673   6.050  0.3397  0.3966 -0.2707
  345MOL0     C45445   2.611   8.724   6.031 -0.4372 -0.3334 -0.5830
  345MOL0     C45446   2.537   8.668   5.915 -0.0314  0.2069 -0.5331
  345MOL0     C45447   2.401   8.733   5.890 -0.8270 -0.2929  0.4426
  345MOL0     C45448   2.416   8.861   5.800 -0.2611  0.3575 -0.0155
  345MOL0     C45449   2.281   8.907   5.729 -0.3331 -0.0025 -0.5760
  345MOL0     C45450   2.287   9.058   5.702 -0.6637  0.1770 -0.3069
  345MOL0     C45451   2.166   9.103   5.622 -0.4069  0.2082  0.8102
  345MOL0    Cl45452   2.158   9.277   5.618  0.6901  0.1597  0.0360
  345MOL0     C45453   2.964   8.878   5.895  0.0472 -0.3133 -0.3977
  345MOL0     C45454   3.078   8.960   5.904 -1.0917  0.4752  0.3096
  345MOL0     O45455   3.183   9.216   5.981  0.1665 -0.1478 -0.7105
  345MOL0     C45456   3.539   9.173   5.972 -0.0881  0.2083  1.6123
  345MOL0     C45457   3.647   9.253   5.946 -0.0363  0.6321 -0.6738
  345MOL0     N45458   3.967   9.458   5.249  0.5680 -0.4392  0.1389
  345MOL0     N45459   4.034   9.378   5.163 -0.4960 -0.7577  0.2230
  345MOL0     C45460   5.371   9.434   5.327 -0.0530  0.6685 -0.4839
  345MOL0     C45461   5.504   9.453   5.284  0.3310  0.0043 -0.0845
  345MOL0     C45462   5.881   9.554   5.055 -0.7642 -0.8029 -0.6728
  345MOL0     C45463   5.998   9.478   5.019  0.5072 -0.2670 -0.2581
  345MOL0     C45464   6.115   9.533   4.974  0.3293  0.5561 -0.1078
  345MOL0     C45465   6.129   9.667   4.956 -0.3263  0.0031  0.5458
  345MOL0     O45466   6.241   9.736   4.906  1.0744 -0.1771  0.0444
  345MOL0     C45467   6.355   9.727   4.994 -0.1817 -0.5537  0.0984
  345MOL0     C45468   6.472   9.813   4.945 -0.3625 -0.3239 -0.1194
  345MOL0     C45469   6.530   9.740   4.818 -0.5637 -0.3307 -0.3414
  345MOL0     C45470   6.635   9.829   4.752  0.0002 -0.3522 -0.4718
  345MOL0     C45471   6.617   9.840   4.603 -0.0078  0.0725  0.4721
  345MOL0     C45472   6.583   9.875   4.491 -0.6082  0.8582  0.0567
  345MOL0     C45473   6.020   9.742   4.992  0.3065  1.0306  0.1049
  345MOL0     C45474   5.898   9.691   5.044  0.2334 -0.0347  0.6205
  345MOL0     H45475   5.448   9.624   4.997 -3.2059 -1.1859  0.1161
  345MOL0     H45476   5.209   9.582   5.065 -0.3281  0.2246  0.6593
  345MOL0     H45477   5.093   9.285   5.195 -1.4341 -0.0304  0.3593
  345MOL0     H45478   5.037   9.437   5.120  1.4771  0.2243 -0.4188
  345MOL0     H45479   4.898   9.475   5.330  1.0428  0.1347  0.9194
  345MOL0     H45480   4.916   9.301   5.360 -0.3064  1.7831  1.2134
  345MOL0     H45481   4.815   9.250   5.146 -0.7584  1.0970 -0.5478
  345MOL0     H45482   4.806   9.425   5.118  2.9604 -1.7082 -1.3630
  345MOL0     H45483   4.654   9.304   5.356 -0.7926  1.0782  0.9682
  345MOL0     H45484   4.627   9.456   5.267  0.8885 -0.3149 -0.1757
  345MOL0     H45485   4.574   9.182   5.161 -4.9571 -1.3637 -0.6278
  345MOL0     H45486   4.546   9.329   5.064  0.9121 -1.2257 -0.2068
  345MOL0     H45487   4.390   9.396   5.240 -1.6057 -0.1414  1.1985
  345MOL0     H45488   4.414   9.235   5.313  1.9608  0.9420 -0.0079
  345MOL0     H45489   4.283   9.313   5.038 -1.1874 -0.1461 -0.5084
  345MOL0     H45490   4.352   9.160   5.057  1.7877 -0.4338  1.8212
  345MOL0     H45491   4.200   9.103   5.254 -1.1218 -0.9071 -0.0700
  345MOL0     H45492   4.116   9.134   5.106 -0.4547 -0.9343  0.9600
  345MOL0     H45493   4.171   9.296   5.448  2.3113  2.0901 -1.2320
  345MOL0     H45494   3.969   9.611   5.453 -1.2663 -0.0489  0.9581
  345MOL0     H45495   4.082   9.524   5.554  0.6881  0.8102 -0.8549
  345MOL0     H45496   3.902   9.367   5.616  3.4328  1.0378  0.7335
  345MOL0     H45497   3.793   9.466   5.516 -1.1185  4.2224  0.0117
  345MOL0     H45498   3.951   9.566   5.758  0.8883 -1.6809 -1.6925
  345MOL0     H45499   3.862   9.681   5.655 -0.3515  0.9994  1.9212
  345MOL0     H45500   3.652   9.556   5.711 -1.6271 -0.7527  2.2080
  345MOL0     H45501   3.739   9.643   5.840 -1.6801  2.8759 -2.6577
  345MOL0     H45502   3.488   9.541   5.859 -0.9673 -0.1926  0.5074
  345MOL0     H45503   3.312   9.411   5.936  1.0786  3.0274 -1.7230
  345MOL0     H45504   3.246   8.793   6.158 -2.1679 -2.4394  1.9455
  345MOL0     H45505   3.070   8.640   6.107  2.3678  0.0476 -0.7490
  345MOL0     H45506   2.801   8.730   6.131  2.8760  0.3132 -1.5568
  345MOL0     H45507   2.757   8.569   6.085 -0.0882  0.8173  1.0861
  345MOL0     H45508   2.609   8.833   6.022  0.9153  0.0822  2.8116
  345MOL0     H45509   2.557   8.700   6.123 -1.7616 -1.8384 -1.6901
  345MOL0     H45510   2.522   8.563   5.943  1.0198 -0.8054 -3.4396
  345MOL0     H45511   2.586   8.658   5.818 -1.1681 -2.0255 -0.9579
  345MOL0     H45512   2.340   8.667   5.827  1.7869 -1.6834 -0.7953
  345MOL0     H45513   2.359   8.764   5.986  0.1769  1.8444  0.2495
  345MOL0     H45514   2.484   8.840   5.717  0.5933 -0.4693  0.8753
  345MOL0     H45515   2.471   8.942   5.849  2.4395 -0.9466 -0.7063
  345MOL0     H45516   2.196   8.889   5.795 -1.1288 -2.1904 -2.0769
  345MOL0     H45517   2.261   8.860   5.632  1.3380  1.6466 -1.8214
  345MOL0     H45518   2.284   9.108   5.799 -2.0615 -1.8618  0.7902
  345MOL0     H45519   2.377   9.088   5.648 -0.5257 -0.1903 -0.2903
  345MOL0     H45520   2.073   9.078   5.673 -0.2381 -1.5589  0.2936
  345MOL0     H45521   2.157   9.067   5.519 -4.4092  0.3157  0.9796
  345MOL0     H45522   2.885   8.899   5.824 -1.1147 -0.8767  0.6951
  345MOL0     H45523   3.083   9.054   5.849  1.3345 -1.2938 -2.8481
  345MOL0     H45524   3.564   9.071   5.999  2.5066  0.2465 -0.2495
  345MOL0     H45525   3.745   9.207   5.937  0.3811  1.8835 -4.1017
  345MOL0     H45526   5.343   9.399   5.426  0.2197  2.1120  0.1214
  345MOL0     H45527   5.588   9.424   5.346  0.6673 -2.4329 -1.5455
  345MOL0     H45528   6.001   9.369   5.021 -2.1206 -0.4639 -1.6040
  345MOL0     H45529   6.192   9.479   4.920 -1.6473  1.3367 -4.0838
  345MOL0     H45530   6.383   9.623   5.016  0.7918 -1.0218 -2.8745
  345MOL0     H45531   6.331   9.779   5.087 -2.3652  1.9536 -1.7546
  345MOL0     H45532   6.434   9.912   4.921  2.7333  1.2262  0.7818
  345MOL0     H45533   6.550   9.827   5.021 -0.8717 -0.3381  0.4149
  345MOL0     H45534   6.448   9.723   4.748  0.5235  2.4576 -2.4671
  345MOL0     H45535   6.583   9.647   4.837  0.5536  0.3996  0.2283
  345MOL0     H45536   6.631   9.933   4.784 -3.0126 -0.5633  0.0853
  345MOL0     H45537   6.731   9.783   4.778 -0.9276 -1.9859  0.2321
  345MOL0     H45538   6.554   9.891   4.389  0.6584  0.6839 -0.3476
  345MOL0     H45539   6.037   9.845   4.962  1.8557 -0.1114 -3.3886
  345MOL0     H45540   5.821   9.761   5.075  0.7109  0.1889  1.3288
  346MOL0     O45541   1.554   7.465   5.190 -0.5416  0.2495 -0.0213
  346MOL0     C45542   1.637   7.374   5.189 -0.7844 -0.4975 -0.1639
  346MOL0     O45543   1.643   7.278   5.098 -0.1993 -0.0087  0.6711
  346MOL0     C45544   1.552   7.246   5.005  0.5702  0.0424 -0.9289
  346MOL0     C45545   1.597   7.189   4.889 -0.2124  0.1978 -0.3158
  346MOL0     C45546   1.497   7.168   4.786  0.2710  0.0026  0.2695
  346MOL0     C45547   1.361   7.195   4.800 -0.2079  0.2196 -0.3921
  346MOL0     O45548   1.275   7.177   4.694 -0.4923 -0.0218 -0.2849
  346MOL0     C45549   1.201   7.288   4.639 -0.9307  0.4047 -0.2416
  346MOL0     C45550   1.152   7.268   4.502  0.0694  0.1351  0.8225
  346MOL0     C45551   1.127   7.389   4.418  0.6919 -1.1111  0.5805
  346MOL0     C45552   1.029   7.348   4.305 -0.1979 -0.4280 -0.1952
  346MOL0     C45553   0.992   7.470   4.223 -0.4040 -0.1417  0.3781
  346MOL0     C45554   0.949   7.444   4.084 -0.4677  0.4040 -0.6649
  346MOL0     C45555   0.869   7.548   4.003  0.6063 -0.6587  0.6822
  346MOL0     C45556   0.748   7.594   4.084  0.6122 -0.3093  0.7011
  346MOL0     N45557   0.671   7.689   3.985 -0.2089 -0.2136 -0.5173
  346MOL0     C45558   0.719   7.806   3.935 -0.5855 -0.8520  0.3407
  346MOL0     C45559   0.626   7.848   3.842 -0.5675  0.2972 -0.0318
  346MOL0     C45560   0.627   7.976   3.758 -0.1303  0.5653  0.2669
  346MOL0     C45561   0.490   7.990   3.685 -0.4293 -0.5538  0.0082
  346MOL0     C45562   0.501   8.110   3.585 -0.3443  0.6855 -0.4653
  346MOL0     C45563   0.370   8.126   3.502 -0.1517 -0.1356  1.2153
  346MOL0     O45564   0.255   8.108   3.574  0.3723 -0.1922 -0.5632
  346MOL0     C45565   0.135   8.126   3.506 -0.0167 -0.2730  0.8796
  346MOL0     C45566   0.123   8.173   3.370 -0.6426 -0.1113 -0.4069
  346MOL0     C45567  -0.007   8.191   3.316  0.6661  0.0175  0.6720
  346MOL0     C45568  -0.115   8.177   3.397  0.3984 -0.2112 -0.3585
  346MOL0     C45569  -0.253   8.210   3.356  0.9788  0.1636  0.3438
  346MOL0     O45570  -0.358   8.149   3.422  0.1812 -0.2596 -0.6742
  346MOL0     C45571  -0.492   8.192   3.403 -0.2892 -0.0944 -0.4874
  346MOL0     C45572  -0.598   8.105   3.421 -0.6878 -0.3206 -0.6364
  346MOL0     C45573  -0.731   8.142   3.437  1.0012  0.1608 -0.4364
  346MOL0     C45574  -0.761   8.277   3.435 -0.4310 -0.1420 -0.3944
  346MOL0     O45575  -0.890   8.323   3.444  0.0029 -0.2366 -0.2228
  346MOL0     C45576  -0.999   8.248   3.513  0.7152 -0.4235 -0.6944
  346MOL0     C45577  -1.138   8.315   3.493  0.7164 -0.0208  0.1308
  346MOL0     C45578  -1.250   8.210   3.509 -0.4913  1.0424 -0.1259
  346MOL0     C45579  -1.386   8.262   3.471 -0.4849  0.5598  0.3754
  346MOL0     C45580  -1.443   8.372   3.558  0.3690 -0.2263  0.6362
  346MOL0     C45581  -1.596   8.383   3.570 -0.6113  0.0268 -0.1922
  346MOL0     C45582  -1.674   8.391   3.433  0.3696 -0.3698  0.4214
  346MOL0     C45583  -1.794   8.474   3.432 -0.4306 -0.3626 -0.7870
  346MOL0    Cl45584  -1.898   8.419   3.568 -0.0111 -0.2997 -0.4946
  346MOL0     C45585  -0.658   8.368   3.406  0.4044 -0.3400  0.3825
  346MOL0     C45586  -0.527   8.332   3.387  0.0163  0.2558  0.3716
  346MOL0     O45587  -0.259   8.283   3.253 -0.5992  0.0210 -0.4867
  346MOL0     C45588  -0.106   8.127   3.524  0.8711  0.4959 -0.0703
  346MOL0     C45589   0.018   8.094   3.574  0.6349 -0.3061 -0.6797
  346MOL0     N45590   0.535   7.748   3.828  0.1822  0.3778 -0.2731
  346MOL0     N45591   0.569   7.645   3.908  0.0529 -0.8922 -0.3309
  346MOL0     C45592   1.323   7.251   4.918  0.9689 -0.0346  0.2886
  346MOL0     C45593   1.418   7.266   5.020 -0.3800 -1.1136 -0.9727
  346MOL0     C45594   1.732   7.358   5.306 -0.5217  1.3589  0.1882
  346MOL0     C45595   1.831   7.261   5.309 -0.7835 -0.3491 -0.6297
  346MOL0     C45596   1.914   7.244   5.425 -0.7302 -0.1911  0.4939
  346MOL0     C45597   1.906   7.340   5.530 -0.1359 -0.7534  0.3825
  346MOL0     O45598   2.002   7.328   5.626  0.5267 -0.4105  0.8047
  346MOL0     C45599   2.016   7.427   5.728  0.6103 -0.2669  0.2484
  346MOL0     C45600   2.118   7.403   5.833  0.4328 -0.1206 -0.2899
  346MOL0     C45601   2.258   7.394   5.768 -1.2177  0.0004 -0.9159
  346MOL0     C45602   2.375   7.358   5.855 -0.9924  0.5773  0.7345
  346MOL0     C45603   2.427   7.483   5.915  0.6449 -0.2162  0.1327
  346MOL0     C45604   2.460   7.590   5.962  0.2574  0.2691 -0.6012
  346MOL0     C45605   1.811   7.438   5.522  0.4700  1.0390  0.3274
  346MOL0     C45606   1.718   7.443   5.411 -0.3093 -0.9733  0.9749
  346MOL0     H45607   1.701   7.176   4.863  0.2269 -0.9985  1.8614
  346MOL0     H45608   1.536   7.135   4.690  0.4795 -0.0193  0.3611
  346MOL0     H45609   1.263   7.378   4.641  1.2438 -0.9388 -2.4476
  346MOL0     H45610   1.108   7.301   4.696 -1.8703 -2.5878 -0.9224
  346MOL0     H45611   1.060   7.217   4.532 -2.0041  3.2843  0.2742
  346MOL0     H45612   1.219   7.200   4.449 -1.5484 -3.3220  2.8058
  346MOL0     H45613   1.230   7.415   4.392  0.6030 -0.7281  0.6011
  346MOL0     H45614   1.094   7.477   4.474  1.6838 -0.6189  0.4044
  346MOL0     H45615   1.072   7.280   4.232 -0.4050  1.3120 -2.0127
  346MOL0     H45616   0.939   7.307   4.352  0.1841  0.2787  1.2023
  346MOL0     H45617   1.071   7.546   4.218 -0.6485  0.0945  0.0006
  346MOL0     H45618   0.910   7.524   4.272  0.9883  2.7697 -0.2304
  346MOL0     H45619   0.890   7.352   4.090 -1.3415  0.8878 -1.6457
  346MOL0     H45620   1.041   7.422   4.029 -1.3361 -0.0533 -1.9804
  346MOL0     H45621   0.931   7.637   3.990 -2.5197  1.3150 -2.8871
  346MOL0     H45622   0.835   7.517   3.904 -2.6350  0.4908  1.2978
  346MOL0     H45623   0.771   7.643   4.179 -0.2784 -0.5410  1.0544
  346MOL0     H45624   0.682   7.512   4.115 -0.1136 -0.1511 -0.3776
  346MOL0     H45625   0.812   7.859   3.952 -0.7105 -0.4346 -0.2504
  346MOL0     H45626   0.695   7.971   3.672  1.2980  0.3480  1.3703
  346MOL0     H45627   0.659   8.070   3.804  1.1629  1.7960 -2.7981
  346MOL0     H45628   0.404   7.992   3.753  1.0543  4.2716  2.1773
  346MOL0     H45629   0.470   7.899   3.627 -1.5464  1.4531 -3.0592
  346MOL0     H45630   0.502   8.194   3.656 -2.8822  0.6918 -0.3309
  346MOL0     H45631   0.586   8.093   3.518 -0.7706 -1.0221 -0.6142
  346MOL0     H45632   0.372   8.058   3.416  2.6421  0.5468  0.6601
  346MOL0     H45633   0.371   8.226   3.459 -4.6584 -0.7724 -1.0130
  346MOL0     H45634   0.210   8.206   3.313 -0.8846 -0.2153 -0.8450
  346MOL0     H45635  -0.012   8.233   3.216 -0.0901  3.8625  2.1375
  346MOL0     H45636  -0.572   8.003   3.447  0.9499 -0.3222 -2.1025
  346MOL0     H45637  -0.814   8.073   3.448 -0.3505  1.5442 -1.5299
  346MOL0     H45638  -0.992   8.234   3.621 -3.3404  2.0340  0.1208
  346MOL0     H45639  -1.007   8.150   3.466 -1.7017  0.9504 -3.5182
  346MOL0     H45640  -1.151   8.357   3.393 -0.9943 -0.6356  0.0611
  346MOL0     H45641  -1.149   8.395   3.567 -1.8057  0.0764 -0.2393
  346MOL0     H45642  -1.254   8.182   3.614  0.1576  1.7920  0.1120
  346MOL0     H45643  -1.236   8.124   3.442  0.6805 -0.0631  1.4769
  346MOL0     H45644  -1.374   8.303   3.370 -3.4563 -0.6088 -0.5622
  346MOL0     H45645  -1.453   8.176   3.473  1.3606 -0.9413  0.6317
  346MOL0     H45646  -1.406   8.470   3.529 -0.4365  0.1806  0.9579
  346MOL0     H45647  -1.409   8.350   3.659  0.1431 -2.7708  0.2396
  346MOL0     H45648  -1.622   8.468   3.634 -1.3811 -1.8827  2.1652
  346MOL0     H45649  -1.621   8.289   3.621  0.9278  0.0156  0.5941
  346MOL0     H45650  -1.610   8.427   3.352 -0.4017 -1.0275 -0.4971
  346MOL0     H45651  -1.703   8.289   3.406  1.5654 -0.6160 -0.0159
  346MOL0     H45652  -1.848   8.458   3.338 -1.5289 -0.4433 -0.1667
  346MOL0     H45653  -1.760   8.577   3.442 -1.5237 -0.2241  3.2268
  346MOL0     H45654  -0.680   8.473   3.392  0.7090 -0.5311 -1.9094
  346MOL0     H45655  -0.457   8.403   3.343  2.7773 -0.4644  3.2172
  346MOL0     H45656  -0.193   8.121   3.589  0.5039 -0.8999 -0.6650
  346MOL0     H45657   0.037   8.063   3.676 -3.6790 -0.0581  0.4087
  346MOL0     H45658   1.225   7.285   4.951  1.6472  0.6580  1.6710
  346MOL0     H45659   1.384   7.320   5.108  1.5419  0.7531 -1.2870
  346MOL0     H45660   1.841   7.182   5.235 -0.1202 -1.9762  1.1068
  346MOL0     H45661   1.971   7.153   5.413 -1.2193 -0.3365 -0.8672
  346MOL0     H45662   1.916   7.431   5.770 -1.0588 -4.0474 -2.7038
  346MOL0     H45663   2.036   7.518   5.672 -0.0972 -0.3465 -0.1517
  346MOL0     H45664   2.123   7.495   5.892 -0.2344 -1.0042  1.1842
  346MOL0     H45665   2.093   7.317   5.895 -0.1055  1.5704  1.9817
  346MOL0     H45666   2.279   7.487   5.713  2.3751 -1.0235 -1.5496
  346MOL0     H45667   2.252   7.318   5.689 -2.4154  1.2754 -2.1278
  346MOL0     H45668   2.356   7.283   5.933 -0.7559  0.1876  0.4226
  346MOL0     H45669   2.462   7.324   5.798  1.9879  1.0361  4.5680
  346MOL0     H45670   2.497   7.682   6.004 -2.6316  1.2494 -0.0017
  346MOL0     H45671   1.816   7.521   5.591 -1.7708  1.2136  0.3532
  346MOL0     H45672   1.633   7.511   5.409 -1.0149 -1.8200  1.3896
  347MOL0     O45673   3.107   8.718   1.662 -0.3698 -0.1912  0.5570
  347MOL0     C45674   3.128   8.800   1.572 -0.1009  0.4467  0.4630
  347MOL0     O45675   3.031   8.865   1.507  0.1208  0.6865  0.0455
  347MOL0     C45676   2.895   8.821   1.517 -0.6644  0.2125 -0.2851
  347MOL0     C45677   2.837   8.753   1.409  0.9763 -0.4487 -1.1638
  347MOL0     C45678   2.702   8.709   1.422  0.2254  0.0272  0.2538
  347MOL0     C45679   2.621   8.733   1.534  0.4398  0.4666  0.3237
  347MOL0     O45680   2.494   8.677   1.526  0.3733 -0.2035 -0.2179
  347MOL0     C45681   2.391   8.716   1.625  0.3934  0.5530 -0.6904
  347MOL0     C45682   2.282   8.602   1.612 -0.2053 -0.5244  0.4055
  347MOL0     C45683   2.160   8.658   1.690  0.2485 -0.0074  0.0367
  347MOL0     C45684   2.033   8.568   1.702 -0.3313 -0.3640 -0.1174
  347MOL0     C45685   1.924   8.636   1.772  0.5599 -0.9856  0.5864
  347MOL0     C45686   1.792   8.563   1.790 -1.1997  0.0161 -0.0304
  347MOL0     C45687   1.691   8.657   1.848 -0.9022  1.0820  0.2707
  347MOL0     C45688   1.560   8.570   1.875  0.5031 -0.0435 -0.2652
  347MOL0     N45689   1.457   8.661   1.907 -0.4862 -0.1560  0.0582
  347MOL0     C45690   1.402   8.755   1.815  0.5916 -0.4427 -1.2562
  347MOL0     C45691   1.323   8.835   1.903 -1.3132 -0.5894  0.2287
  347MOL0     C45692   1.230   8.945   1.864  1.3049 -0.0077 -0.1498
  347MOL0     C45693   1.099   8.876   1.826  0.1697 -0.4116 -0.7497
  347MOL0     C45694   1.070   8.909   1.678 -0.5487  0.1031 -0.1298
  347MOL0     C45695   0.924   8.863   1.647  0.0100 -0.5796  0.0643
  347MOL0     O45696   0.882   8.857   1.515  0.4019 -0.0583  0.1970
  347MOL0     C45697   0.752   8.824   1.487 -0.7028 -0.8705  0.4402
  347MOL0     C45698   0.733   8.784   1.355  0.3305 -0.1598 -0.2697
  347MOL0     C45699   0.600   8.754   1.324 -0.6084 -0.4896 -0.0691
  347MOL0     C45700   0.489   8.744   1.411  0.4956  0.3698 -0.4176
  347MOL0     C45701   0.347   8.713   1.374 -1.1309  0.4624  1.0313
  347MOL0     O45702   0.332   8.706   1.242  1.0403  0.2999 -0.4770
  347MOL0     C45703   0.216   8.660   1.180  0.3341  0.2824  0.4815
  347MOL0     C45704   0.114   8.581   1.238 -0.1283 -0.6843 -0.0844
  347MOL0     C45705   0.008   8.523   1.162  0.2622  0.2296 -0.5867
  347MOL0     C45706  -0.003   8.555   1.028 -0.0052 -0.3798  0.1709
  347MOL0     O45707  -0.104   8.516   0.944 -0.2922  0.6015 -0.2456
  347MOL0     C45708  -0.201   8.415   0.985  0.0194 -0.3179  0.1512
  347MOL0     C45709  -0.219   8.316   0.873  0.5924  0.3911 -0.5418
  347MOL0     C45710  -0.079   8.276   0.810 -0.0267  0.0338 -0.7675
  347MOL0     C45711  -0.043   8.342   0.684  0.3298 -0.0088 -0.7048
  347MOL0     C45712   0.106   8.325   0.645 -0.1155  0.1334  0.0970
  347MOL0     C45713   0.130   8.181   0.577 -1.0366 -0.0310 -0.0938
  347MOL0     C45714   0.276   8.139   0.552  0.3543 -0.7899 -0.2658
  347MOL0     C45715   0.294   8.011   0.472  0.5432 -0.3919  0.4591
  347MOL0    Cl45716   0.244   8.033   0.306  0.1002  0.3440  0.1536
  347MOL0     C45717   0.098   8.622   0.966 -0.4535  0.4007 -0.5408
  347MOL0     C45718   0.209   8.668   1.042  0.6164  0.1033  0.2321
  347MOL0     O45719   0.262   8.690   1.464 -0.6948 -0.0033  0.4485
  347MOL0     C45720   0.524   8.775   1.542  0.5082 -0.4091 -0.6109
  347MOL0     C45721   0.646   8.819   1.580  0.0511 -0.8796  0.3485
  347MOL0     N45722   1.320   8.776   2.024 -1.0391 -0.3630 -0.1565
  347MOL0     N45723   1.398   8.674   2.025 -0.5016  0.0704 -0.1383
  347MOL0     C45724   2.678   8.818   1.644  0.0809 -0.2331 -0.5798
  347MOL0     C45725   2.816   8.859   1.633  0.2438 -0.3415  0.8607
  347MOL0     C45726   3.268   8.831   1.537  0.1836 -0.2767 -0.7538
  347MOL0     C45727   3.297   8.940   1.447  0.3760 -0.1919  0.5302
  347MOL0     C45728   3.431   8.981   1.414  0.4201 -0.1647  0.0217
  347MOL0     C45729   3.538   8.922   1.486  0.9708 -0.5813 -0.2303
  347MOL0     O45730   3.656   8.977   1.446 -0.1120 -0.3144  0.0676
  347MOL0     C45731   3.769   8.953   1.528  0.0185 -0.0827 -0.0278
  347MOL0     C45732   3.885   9.040   1.480 -0.2775 -0.6121 -0.2098
  347MOL0     C45733   3.906   9.042   1.324  0.2172  0.1426 -0.4682
  347MOL0     C45734   3.942   8.909   1.264  0.3180  0.3129 -0.6672
  347MOL0     C45735   4.072   8.855   1.310 -1.1512  0.5079  0.1862
  347MOL0     C45736   4.175   8.794   1.323 -0.1854  0.3729 -0.3365
  347MOL0     C45737   3.508   8.815   1.573  0.2686 -0.1850  0.4722
  347MOL0     C45738   3.380   8.768   1.599  0.1861  1.1675 -0.8684
  347MOL0     H45739   2.903   8.733   1.326  1.5560 -0.0678 -0.8047
  347MOL0     H45740   2.663   8.661   1.333 -1.4096  0.5632  0.6481
  347MOL0     H45741   2.355   8.816   1.600 -2.0691  0.1754  0.9802
  347MOL0     H45742   2.411   8.710   1.732 -0.2539 -4.3321 -0.6144
  347MOL0     H45743   2.316   8.504   1.647  2.9944  0.5612  0.5731
  347MOL0     H45744   2.250   8.598   1.508 -1.8552 -0.2950  0.8702
  347MOL0     H45745   2.138   8.751   1.637 -0.6467 -1.3359 -2.0586
  347MOL0     H45746   2.178   8.667   1.798  0.4350 -1.1599  0.1111
  347MOL0     H45747   2.003   8.555   1.598  1.4791  1.9423 -1.0075
  347MOL0     H45748   2.053   8.474   1.755 -0.7759 -0.2297  0.2929
  347MOL0     H45749   1.903   8.730   1.720 -0.2895 -2.1930 -1.3449
  347MOL0     H45750   1.964   8.661   1.870  3.8684  2.9693 -1.4662
  347MOL0     H45751   1.797   8.480   1.860 -0.8832 -1.6234 -1.9016
  347MOL0     H45752   1.755   8.520   1.696 -1.9653  2.0923 -0.7427
  347MOL0     H45753   1.726   8.709   1.939  0.4609  0.3920  0.1731
  347MOL0     H45754   1.657   8.730   1.774 -2.2630  1.9054  1.6311
  347MOL0     H45755   1.569   8.498   1.958  1.2712 -1.3107 -1.4102
  347MOL0     H45756   1.540   8.520   1.780  1.2251 -0.5305 -0.1702
  347MOL0     H45757   1.442   8.779   1.718  1.5970 -1.0819 -1.0190
  347MOL0     H45758   1.274   9.014   1.792 -0.7589  4.0020  2.0858
  347MOL0     H45759   1.220   9.000   1.958  0.1605  0.7704 -0.6897
  347MOL0     H45760   1.025   8.923   1.891  0.2911 -1.4834  0.2045
  347MOL0     H45761   1.097   8.769   1.851  3.3615 -1.0730 -2.6500
  347MOL0     H45762   1.068   9.018   1.670 -1.7785  0.1143  0.1336
  347MOL0     H45763   1.133   8.872   1.597 -1.3398  1.2433 -1.2890
  347MOL0     H45764   0.875   8.938   1.710 -0.3345 -1.1746  0.5175
  347MOL0     H45765   0.900   8.763   1.685  0.0435  0.1606  2.2109
  347MOL0     H45766   0.822   8.785   1.292  0.7493 -1.1610  0.2878
  347MOL0     H45767   0.592   8.735   1.217  0.4365  0.6104 -0.3733
  347MOL0     H45768   0.127   8.546   1.340  0.7671  1.2060  0.4878
  347MOL0     H45769  -0.057   8.452   1.213  2.2157  0.3724  2.3679
  347MOL0     H45770  -0.301   8.451   1.011 -0.5442 -0.6690 -1.4334
  347MOL0     H45771  -0.162   8.356   1.068  0.1310 -0.5110 -0.0371
  347MOL0     H45772  -0.281   8.359   0.795 -0.9350 -2.0680 -0.7956
  347MOL0     H45773  -0.276   8.229   0.907  2.6794 -2.2609 -3.3206
  347MOL0     H45774  -0.072   8.168   0.791  0.2264  0.2438 -1.9537
  347MOL0     H45775   0.008   8.291   0.875  1.7884 -1.8159 -2.6166
  347MOL0     H45776  -0.116   8.313   0.607 -1.6683  0.6028  0.8692
  347MOL0     H45777  -0.063   8.447   0.708 -0.0790 -0.1474 -0.4262
  347MOL0     H45778   0.161   8.337   0.739  1.5406 -3.1328 -0.3242
  347MOL0     H45779   0.142   8.401   0.575  0.1765 -0.6692 -0.6446
  347MOL0     H45780   0.080   8.197   0.481  1.7836  0.3218 -1.5915
  347MOL0     H45781   0.084   8.107   0.643 -0.0817 -1.3423 -0.8575
  347MOL0     H45782   0.323   8.221   0.496  2.5164  0.6491  3.2747
  347MOL0     H45783   0.318   8.127   0.652  0.1039 -0.6306 -0.1386
  347MOL0     H45784   0.245   7.935   0.533 -0.8367  1.0210  1.2099
  347MOL0     H45785   0.401   7.986   0.474  0.7579  0.4310 -0.1392
  347MOL0     H45786   0.090   8.626   0.858 -0.7720  3.8437 -0.4875
  347MOL0     H45787   0.284   8.713   0.978  0.4222  1.6849  1.0655
  347MOL0     H45788   0.440   8.774   1.610 -0.1301 -2.1258 -1.3792
  347MOL0     H45789   0.674   8.852   1.679 -1.5517  1.2262  0.1667
  347MOL0     H45790   2.616   8.840   1.730  1.5027  2.1291 -0.0450
  347MOL0     H45791   2.851   8.898   1.728 -4.1718  2.7910  1.5737
  347MOL0     H45792   3.215   8.982   1.390  1.5958 -1.6540 -2.5587
  347MOL0     H45793   3.450   9.062   1.345  2.5453 -0.3703  0.2952
  347MOL0     H45794   3.793   8.846   1.525  0.9976  0.0921  0.9572
  347MOL0     H45795   3.751   8.968   1.635  0.0900 -2.9312  0.4567
  347MOL0     H45796   3.874   9.146   1.503 -0.4484 -0.3951 -1.2399
  347MOL0     H45797   3.974   9.012   1.537  0.6123 -1.6031 -2.0044
  347MOL0     H45798   3.994   9.104   1.303  0.8055 -0.8320 -0.9626
  347MOL0     H45799   3.823   9.083   1.266  1.3106  2.0099 -0.7920
  347MOL0     H45800   3.855   8.843   1.268 -0.5024  1.4004  0.3791
  347MOL0     H45801   3.951   8.932   1.157 -0.2296  0.6431 -0.6488
  347MOL0     H45802   4.266   8.739   1.336 -0.7186 -0.6640 -0.9203
  347MOL0     H45803   3.587   8.745   1.600 -0.8172 -1.2820  0.9000
  347MOL0     H45804   3.367   8.681   1.662  0.5624  1.5898 -0.2059
  348MOL0     O45805   7.732  11.141   2.869 -1.0285 -0.6562  0.3285
  348MOL0     C45806   7.704  11.265   2.877  0.8134 -0.5104 -0.0726
  348MOL0     O45807   7.777  11.369   2.825  0.8340  0.3507  0.7331
  348MOL0     C45808   7.915  11.349   2.806 -0.0470 -0.5159  1.2124
  348MOL0     C45809   7.978  11.232   2.767  0.8094  0.5272 -0.5123
  348MOL0     C45810   8.115  11.230   2.781  0.9917  0.4180  0.0736
  348MOL0     C45811   8.190  11.330   2.804 -0.4997 -0.2021  1.0977
  348MOL0     O45812   8.330  11.309   2.793 -0.2422  0.2243 -0.4127
  348MOL0     C45813   8.416  11.415   2.836 -0.3264  1.0058 -0.4774
  348MOL0     C45814   8.560  11.361   2.825  0.4161  0.1732 -0.5751
  348MOL0     C45815   8.673  11.456   2.865  0.0628  0.3655 -0.6953
  348MOL0     C45816   8.812  11.414   2.817  0.4352 -1.1193 -0.0081
  348MOL0     C45817   8.825  11.441   2.665  0.2081 -0.2903  0.4588
  348MOL0     C45818   8.973  11.409   2.617 -0.4374  0.1779 -0.6794
  348MOL0     C45819   8.994  11.443   2.471 -0.0814  0.4236 -0.6125
  348MOL0     C45820   9.147  11.415   2.443  1.3013 -0.2787 -0.0199
  348MOL0     N45821   9.200  11.479   2.321 -0.0984 -0.4316 -0.4677
  348MOL0     C45822   9.259  11.602   2.325 -0.1259  0.3093 -0.0018
  348MOL0     C45823   9.330  11.608   2.212 -0.1842  0.4860  0.8032
  348MOL0     C45824   9.417  11.717   2.162 -0.4002 -0.3555  0.0786
  348MOL0     C45825   9.561  11.679   2.178  0.7111 -0.0326 -0.1951
  348MOL0     C45826   9.654  11.770   2.098  0.0778 -0.0213  0.7819
  348MOL0     C45827   9.795  11.738   2.139  0.4552  0.0120 -0.0980
  348MOL0     O45828   9.871  11.835   2.070 -0.2330  0.1911 -0.4833
  348MOL0     C45829   9.981  11.805   2.008 -1.1903  0.3608  0.7372
  348MOL0     C45830  10.075  11.908   2.002  0.2428 -0.0132 -0.0107
  348MOL0     C45831  10.202  11.891   1.953  0.4389 -0.2917  0.2333
  348MOL0     C45832  10.236  11.763   1.887  0.4857 -0.7114  0.2405
  348MOL0     C45833  10.373  11.739   1.832 -0.5463 -0.3070  0.4681
  348MOL0     O45834  10.386  11.630   1.761 -0.1289  0.2610  0.9446
  348MOL0     C45835  10.512  11.594   1.729 -0.0658  0.2604 -0.5287
  348MOL0     C45836  10.585  11.529   1.821  0.7241 -1.0647  0.6238
  348MOL0     C45837  10.719  11.513   1.793  0.2740 -0.2796  0.5749
  348MOL0     C45838  10.769  11.520   1.660 -0.4098 -1.0086 -0.4834
  348MOL0     O45839  10.900  11.485   1.629  0.4997 -0.3892  0.8166
  348MOL0     C45840  10.924  11.353   1.668  0.2760  0.4749  0.2643
  348MOL0     C45841  11.058  11.299   1.606 -0.0481 -0.3409  0.2899
  348MOL0     C45842  11.074  11.152   1.646  0.5015  0.8200 -0.7345
  348MOL0     C45843  11.084  11.148   1.804  0.1510  0.5732  0.4926
  348MOL0     C45844  11.129  11.008   1.838 -0.2627 -0.4895 -0.0444
  348MOL0     C45845  11.160  11.004   1.980  0.4854  0.3383 -0.0696
  348MOL0     C45846  11.159  10.860   2.025  0.0001  1.0478 -0.1635
  348MOL0     C45847  11.227  10.847   2.164 -0.0449 -0.8003 -0.2604
  348MOL0    Cl45848  11.108  10.926   2.280  0.0531 -0.0378  0.1959
  348MOL0     C45849  10.684  11.573   1.565  0.0072  0.0796  0.1917
  348MOL0     C45850  10.554  11.621   1.606  0.6306 -0.8008 -0.0215
  348MOL0     O45851  10.465  11.820   1.845  0.7493 -0.1746  0.0453
  348MOL0     C45852  10.134  11.670   1.879 -0.0651  0.4429 -0.2910
  348MOL0     C45853  10.010  11.689   1.937  0.7379  0.0800  1.0494
  348MOL0     N45854   9.301  11.495   2.141 -0.8346  0.0130  0.6199
  348MOL0     N45855   9.218  11.422   2.201  0.0670  0.4265 -0.0553
  348MOL0     C45856   8.128  11.456   2.834 -0.5657  0.0946  0.9695
  348MOL0     C45857   7.988  11.460   2.846  0.0508 -0.0928 -0.7260
  348MOL0     C45858   7.579  11.310   2.949 -0.0951  0.2380  0.3728
  348MOL0     C45859   7.498  11.213   3.014  0.2803  0.7755 -0.0085
  348MOL0     C45860   7.387  11.250   3.092  0.2063 -0.4550  0.4399
  348MOL0     C45861   7.350  11.381   3.099 -0.1809 -0.2791 -0.3400
  348MOL0     O45862   7.243  11.431   3.166 -0.2196  0.3803 -0.4610
  348MOL0     C45863   7.143  11.348   3.229  0.6047 -0.3879 -0.2747
  348MOL0     C45864   7.058  11.431   3.330 -1.3566  0.2493  0.5000
  348MOL0     C45865   6.957  11.343   3.405  0.7994 -0.3541 -0.2450
  348MOL0     C45866   6.843  11.440   3.454 -0.2077 -0.2756 -0.3031
  348MOL0     C45867   6.746  11.380   3.550  0.3811 -0.9111  0.2352
  348MOL0     C45868   6.659  11.336   3.612  0.2916  0.1666 -0.7366
  348MOL0     C45869   7.419  11.476   3.025 -0.3024  0.0875  0.5174
  348MOL0     C45870   7.534  11.440   2.957 -1.3158  0.3420  0.2362
  348MOL0     H45871   7.914  11.151   2.736 -0.0572 -0.4554  3.3013
  348MOL0     H45872   8.154  11.129   2.766  1.9943  0.5951  1.3178
  348MOL0     H45873   8.394  11.462   2.932  0.2805 -1.8808  1.1678
  348MOL0     H45874   8.410  11.501   2.768  2.5892  1.2398 -0.5965
  348MOL0     H45875   8.574  11.326   2.722 -1.6172  0.7464 -1.0828
  348MOL0     H45876   8.566  11.274   2.890  1.3970  1.6535  1.4152
  348MOL0     H45877   8.680  11.451   2.974  0.2079  2.1143 -0.6018
  348MOL0     H45878   8.652  11.562   2.845 -0.1273  1.9381  5.6562
  348MOL0     H45879   8.887  11.470   2.873  0.2269 -0.2449 -0.5831
  348MOL0     H45880   8.814  11.312   2.857  1.0490 -0.5691  1.4494
  348MOL0     H45881   8.809  11.548   2.647 -1.0172 -0.5561 -0.1220
  348MOL0     H45882   8.755  11.376   2.612 -0.1461 -0.8836  1.6318
  348MOL0     H45883   8.996  11.304   2.638  1.6221  0.7799  0.3581
  348MOL0     H45884   9.041  11.473   2.674  0.6226 -1.3793 -0.1249
  348MOL0     H45885   8.929  11.379   2.409 -2.5877  1.7314  0.5262
  348MOL0     H45886   8.973  11.545   2.438 -1.5243  0.3851  0.1129
  348MOL0     H45887   9.168  11.308   2.444  1.4304 -0.2587 -0.3806
  348MOL0     H45888   9.192  11.458   2.533  0.6865  0.6201 -0.1256
  348MOL0     H45889   9.239  11.676   2.402 -1.0688 -2.6768  2.8495
  348MOL0     H45890   9.392  11.805   2.223 -0.4322  0.8807 -1.6619
  348MOL0     H45891   9.385  11.744   2.061  0.8155  4.3534  0.6939
  348MOL0     H45892   9.566  11.582   2.128 -1.1450 -0.3315  0.1351
  348MOL0     H45893   9.584  11.674   2.285 -0.2235  0.1668  0.0171
  348MOL0     H45894   9.634  11.762   1.991  0.4909 -1.0518  0.7738
  348MOL0     H45895   9.639  11.876   2.121  3.8769  0.7242  0.5006
  348MOL0     H45896   9.808  11.631   2.117 -0.9592 -0.2938  0.4385
  348MOL0     H45897   9.823  11.752   2.244  0.9776 -1.1408 -0.0615
  348MOL0     H45898  10.045  11.999   2.054  3.1975  0.6513  0.7254
  348MOL0     H45899  10.272  11.972   1.973  0.1467 -0.3628  1.6627
  348MOL0     H45900  10.545  11.507   1.919  0.3724  1.0082  0.9849
  348MOL0     H45901  10.779  11.475   1.875  0.6540  0.5675  0.7013
  348MOL0     H45902  10.848  11.284   1.630  1.7629 -0.6062 -0.9040
  348MOL0     H45903  10.932  11.340   1.776 -0.2621  1.8948  0.4841
  348MOL0     H45904  11.142  11.354   1.647  0.1518 -1.5862  1.6286
  348MOL0     H45905  11.061  11.315   1.498 -1.0176  2.1742  0.5608
  348MOL0     H45906  11.162  11.107   1.598 -0.5536  0.4836 -2.4087
  348MOL0     H45907  10.997  11.087   1.606  2.0719 -1.9174  0.4319
  348MOL0     H45908  11.161  11.218   1.837  1.7151 -0.5681 -0.5835
  348MOL0     H45909  10.990  11.176   1.854  0.4036  2.0937  0.1762
  348MOL0     H45910  11.220  10.981   1.784  0.7500  3.0843 -0.3568
  348MOL0     H45911  11.050  10.937   1.810 -2.3229  2.2894 -1.8586
  348MOL0     H45912  11.099  11.061   2.051  2.8163 -2.1426  4.3710
  348MOL0     H45913  11.262  11.042   1.995 -0.1288  1.4816  1.6102
  348MOL0     H45914  11.057  10.821   2.022 -0.4122  2.0364  0.4987
  348MOL0     H45915  11.221  10.810   1.950  2.1131  2.1466  0.7604
  348MOL0     H45916  11.322  10.899   2.177 -0.2422  0.2736 -2.5347
  348MOL0     H45917  11.233  10.741   2.190 -1.7814 -0.2850  2.7112
  348MOL0     H45918  10.729  11.616   1.476 -1.2199  3.1425  0.9320
  348MOL0     H45919  10.487  11.669   1.536 -0.9346  0.2243  2.0540
  348MOL0     H45920  10.141  11.573   1.830  0.3039  1.2502 -1.9304
  348MOL0     H45921   9.927  11.620   1.925  2.0392 -1.7989  2.3296
  348MOL0     H45922   8.190  11.535   2.873 -0.4735 -1.6044  4.6734
  348MOL0     H45923   7.945  11.556   2.872 -0.0153 -0.3334  0.0783
  348MOL0     H45924   7.517  11.106   3.017 -2.1175  0.2587 -0.8800
  348MOL0     H45925   7.338  11.180   3.159  1.3099 -1.3877  0.3121
  348MOL0     H45926   7.194  11.267   3.280  2.0588 -0.7448 -2.1875
  348MOL0     H45927   7.083  11.316   3.144 -0.7637  3.7722 -1.1060
  348MOL0     H45928   7.126  11.478   3.400 -1.9761 -0.9215  1.9493
  348MOL0     H45929   7.001  11.508   3.277  0.4112  1.1452 -0.1531
  348MOL0     H45930   7.012  11.299   3.489 -1.7936 -1.2074  1.0924
  348MOL0     H45931   6.913  11.269   3.338  2.0966 -0.1872 -1.3358
  348MOL0     H45932   6.896  11.527   3.494  2.6319 -1.0462 -2.1420
  348MOL0     H45933   6.786  11.478   3.368 -2.8472  0.0560  1.4537
  348MOL0     H45934   6.574  11.300   3.666  0.2161 -1.1928 -1.7133
  348MOL0     H45935   7.397  11.582   3.031  1.8981  0.5437  1.4730
  348MOL0     H45936   7.575  11.523   2.900 -1.8705 -0.9704 -2.2295
  349MOL0     O45937   7.306   6.058   4.378 -0.2055  0.4896  0.2678
  349MOL0     C45938   7.207   6.050   4.448  0.9491 -0.8091  0.2444
  349MOL0     O45939   7.192   6.087   4.578 -0.8125  0.3072 -0.1747
  349MOL0     C45940   7.303   6.104   4.660 -0.1821  0.4028 -0.0682
  349MOL0     C45941   7.273   6.104   4.794 -0.4337  0.7106  0.6909
  349MOL0     C45942   7.371   6.109   4.888  0.2889 -0.1728 -0.5837
  349MOL0     C45943   7.503   6.102   4.867  0.0605  0.0019  0.2593
  349MOL0     O45944   7.584   6.112   4.974  0.4525  0.0411 -0.6611
  349MOL0     C45945   7.723   6.155   4.957 -0.3064 -0.2906 -0.0339
  349MOL0     C45946   7.797   6.159   5.086 -0.1664 -0.5486  0.8776
  349MOL0     C45947   7.755   6.277   5.175 -0.7544  0.6619  0.1911
  349MOL0     C45948   7.794   6.246   5.316  0.5475  0.0763 -0.0846
  349MOL0     C45949   7.716   6.332   5.407 -0.9750 -0.4264  0.7451
  349MOL0     C45950   7.745   6.287   5.551  0.1553  0.6051  0.3066
  349MOL0     C45951   7.651   6.348   5.652  0.1559  0.2073 -0.0141
  349MOL0     C45952   7.658   6.506   5.650  1.1756  0.2373 -0.4600
  349MOL0     N45953   7.600   6.546   5.777 -0.0709 -0.5642  0.2189
  349MOL0     C45954   7.675   6.565   5.889 -1.1965  1.1658  0.4825
  349MOL0     C45955   7.593   6.582   6.000  0.4747  1.0702  0.0138
  349MOL0     C45956   7.648   6.603   6.145 -0.0777 -0.7039 -0.0356
  349MOL0     C45957   7.560   6.566   6.257 -0.2053 -0.5404 -0.3980
  349MOL0     C45958   7.640   6.537   6.384  0.1646 -0.0374  1.0663
  349MOL0     C45959   7.567   6.492   6.509  0.0820  0.1130  0.3622
  349MOL0     O45960   7.456   6.578   6.547  0.1541  0.2379 -0.3281
  349MOL0     C45961   7.330   6.529   6.570 -0.2167  1.4480  0.1377
  349MOL0     C45962   7.277   6.419   6.499  0.3802 -0.2481 -0.2209
  349MOL0     C45963   7.160   6.359   6.536  1.0441 -1.0525  0.3611
  349MOL0     C45964   7.086   6.407   6.651 -0.5975 -0.2328 -0.1574
  349MOL0     C45965   6.955   6.358   6.692  0.4741  1.1130 -0.1733
  349MOL0     O45966   6.905   6.272   6.605 -0.7109  0.8504  0.4354
  349MOL0     C45967   6.775   6.234   6.598  0.2726  0.8846 -0.8592
  349MOL0     C45968   6.664   6.293   6.654  0.3636 -0.4593  0.2270
  349MOL0     C45969   6.544   6.224   6.663 -0.0851 -0.0055 -0.4785
  349MOL0     C45970   6.526   6.104   6.589  0.4642  0.1139  0.4899
  349MOL0     O45971   6.398   6.051   6.565  0.4896 -0.0152 -0.3477
  349MOL0     C45972   6.308   6.146   6.499  0.9268  0.7120 -0.1839
  349MOL0     C45973   6.326   6.152   6.350 -0.7864 -0.3906  0.6301
  349MOL0     C45974   6.326   6.009   6.291  0.4498 -0.9974  0.0521
  349MOL0     C45975   6.328   6.000   6.139  0.4830  0.1842  0.5049
  349MOL0     C45976   6.475   6.017   6.094 -0.0084 -0.5643  1.1887
  349MOL0     C45977   6.558   5.901   6.136  0.1172 -0.1423 -0.6430
  349MOL0     C45978   6.686   5.890   6.055  0.5580 -1.0377  0.3580
  349MOL0     C45979   6.783   6.001   6.086  0.2217 -0.8039  0.3181
  349MOL0    Cl45980   6.868   5.941   6.226  0.1647 -0.1035 -0.3212
  349MOL0     C45981   6.630   6.044   6.528 -0.5452  0.3153 -0.7338
  349MOL0     C45982   6.755   6.109   6.534  0.6886 -1.4668  0.6579
  349MOL0     O45983   6.909   6.372   6.800 -0.1400 -0.0595  0.3023
  349MOL0     C45984   7.143   6.517   6.713 -0.1060  0.0014 -0.3227
  349MOL0     C45985   7.258   6.586   6.672 -0.6198 -0.5676  0.4021
  349MOL0     N45986   7.455   6.572   5.947 -0.8556  0.8886 -0.1872
  349MOL0     N45987   7.468   6.555   5.818 -0.3299  0.9409  0.0641
  349MOL0     C45988   7.542   6.085   4.730  0.2217 -0.1602 -0.8951
  349MOL0     C45989   7.441   6.089   4.627 -0.5275 -0.2986 -0.0225
  349MOL0     C45990   7.088   6.007   4.383 -0.0540  0.4611  0.0712
  349MOL0     C45991   6.968   5.965   4.451 -0.4466 -0.6911 -0.1485
  349MOL0     C45992   6.868   5.917   4.369 -0.9116  0.1075  0.5571
  349MOL0     C45993   6.870   5.916   4.225  0.1228 -0.0756  0.6025
  349MOL0     O45994   6.760   5.850   4.160 -0.5487 -0.4132  0.0035
  349MOL0     C45995   6.749   5.842   4.017  0.0669  0.6638 -1.0306
  349MOL0     C45996   6.610   5.811   3.958 -0.8826 -0.6173 -0.7646
  349MOL0     C45997   6.498   5.902   4.018  0.2988  0.5072 -0.0065
  349MOL0     C45998   6.522   6.054   3.991 -1.0219  0.3682 -0.3539
  349MOL0     C45999   6.401   6.127   4.024 -0.0684 -0.5221 -0.1067
  349MOL0     C46000   6.294   6.163   4.058 -0.7042  0.1688  0.4065
  349MOL0     C46001   6.982   5.952   4.162 -0.1382 -0.7164  0.8322
  349MOL0     C46002   7.085   6.001   4.240  0.8761 -0.7933 -0.0831
  349MOL0     H46003   7.169   6.097   4.825  0.0683 -2.7759  1.9255
  349MOL0     H46004   7.331   6.111   4.989 -0.4747 -0.2522 -0.8792
  349MOL0     H46005   7.740   6.248   4.902  1.4304  0.4103  1.5476
  349MOL0     H46006   7.774   6.078   4.898 -2.4780 -2.5160  0.8351
  349MOL0     H46007   7.905   6.160   5.068 -0.2541 -1.2550  0.2720
  349MOL0     H46008   7.760   6.071   5.139 -1.6414 -0.0654  0.6981
  349MOL0     H46009   7.646   6.279   5.167 -1.4017 -3.3081  3.9263
  349MOL0     H46010   7.807   6.370   5.151 -0.0165 -0.2880 -2.1522
  349MOL0     H46011   7.781   6.143   5.348  3.1759  0.2023  1.7016
  349MOL0     H46012   7.899   6.276   5.325  0.0915  1.9675 -0.4399
  349MOL0     H46013   7.610   6.324   5.382 -0.5724  1.4947 -2.0150
  349MOL0     H46014   7.748   6.436   5.396 -1.2870 -0.5651 -2.7395
  349MOL0     H46015   7.849   6.313   5.571  0.6961 -3.0750  3.6006
  349MOL0     H46016   7.734   6.178   5.556 -0.0955  0.6414  0.5634
  349MOL0     H46017   7.548   6.326   5.625  0.0210  0.9941 -0.1705
  349MOL0     H46018   7.666   6.313   5.754  0.5262  0.4374  0.0145
  349MOL0     H46019   7.611   6.555   5.564 -0.2833 -0.9149 -0.3772
  349MOL0     H46020   7.765   6.529   5.647  0.6600  3.3986  1.1998
  349MOL0     H46021   7.783   6.561   5.897 -0.9456 -3.6724 -1.5358
  349MOL0     H46022   7.670   6.710   6.150  3.1205 -1.2770  0.2289
  349MOL0     H46023   7.737   6.539   6.143  1.1011  0.7886 -3.3728
  349MOL0     H46024   7.493   6.483   6.230 -0.0263 -0.9134  0.2664
  349MOL0     H46025   7.505   6.657   6.285  2.2663  0.9517 -0.1527
  349MOL0     H46026   7.710   6.456   6.364 -0.6759 -0.9802  1.8420
  349MOL0     H46027   7.687   6.632   6.412 -1.0379  1.3045 -1.0877
  349MOL0     H46028   7.623   6.475   6.602 -1.4518  2.6054  1.8485
  349MOL0     H46029   7.532   6.391   6.483  0.7683  0.4647 -2.2034
  349MOL0     H46030   7.333   6.387   6.412  1.7244  1.8781 -0.2052
  349MOL0     H46031   7.136   6.273   6.475 -2.2185  1.6487 -2.5881
  349MOL0     H46032   6.681   6.386   6.707 -4.0491  1.2573 -0.9052
  349MOL0     H46033   6.458   6.284   6.689 -1.9710 -1.0702 -3.7942
  349MOL0     H46034   6.322   6.242   6.550  0.3642  0.8828 -0.3483
  349MOL0     H46035   6.211   6.099   6.521  2.4181 -1.7789  1.6447
  349MOL0     H46036   6.423   6.198   6.331 -1.8422  1.7781  0.1434
  349MOL0     H46037   6.254   6.218   6.301 -0.0983 -2.8306 -4.2877
  349MOL0     H46038   6.245   5.950   6.334  0.3610 -0.8845  0.0436
  349MOL0     H46039   6.418   5.962   6.324  1.1306  1.3904  1.8660
  349MOL0     H46040   6.278   5.910   6.103 -1.8797  1.2548  0.8961
  349MOL0     H46041   6.264   6.073   6.087  2.0065 -0.1501 -1.9748
  349MOL0     H46042   6.527   6.107   6.126  0.6940  0.1629 -1.7228
  349MOL0     H46043   6.469   6.019   5.985  1.0769  0.8952  1.1318
  349MOL0     H46044   6.511   5.803   6.130 -0.6093  0.1216  0.4245
  349MOL0     H46045   6.587   5.915   6.240 -2.7095 -1.7009  0.4579
  349MOL0     H46046   6.750   5.801   6.061  0.4470 -1.4192 -2.5721
  349MOL0     H46047   6.654   5.891   5.950 -1.8695  0.9090  1.0307
  349MOL0     H46048   6.734   6.098   6.102  1.2559 -0.5283  2.1492
  349MOL0     H46049   6.859   6.023   6.011  0.5244  1.8913  1.2875
  349MOL0     H46050   6.616   5.954   6.469  2.0148 -0.2819 -0.5480
  349MOL0     H46051   6.842   6.081   6.476 -0.1398 -1.0004 -0.8844
  349MOL0     H46052   7.101   6.555   6.806  2.3326 -0.0272  0.8629
  349MOL0     H46053   7.281   6.675   6.729 -2.5975  0.7473 -0.7138
  349MOL0     H46054   7.649   6.073   4.713  0.1759  2.2129 -3.4916
  349MOL0     H46055   7.472   6.073   4.524 -2.4062 -0.2556 -0.6241
  349MOL0     H46056   6.948   5.969   4.558 -0.9195  0.2497 -0.2605
  349MOL0     H46057   6.767   5.891   4.399 -1.5188 -0.0046 -1.4827
  349MOL0     H46058   6.809   5.757   3.981  0.1875  0.5575 -0.5818
  349MOL0     H46059   6.796   5.929   3.971  1.8916  1.3818  1.9425
  349MOL0     H46060   6.621   5.848   3.856  2.6730  3.3281  0.7114
  349MOL0     H46061   6.587   5.705   3.969 -0.3262 -0.7391 -0.7331
  349MOL0     H46062   6.494   5.882   4.126 -0.4782 -1.9195 -0.4213
  349MOL0     H46063   6.400   5.868   3.984 -0.0967  0.7704  0.8341
  349MOL0     H46064   6.608   6.094   4.046 -0.8377 -2.0713  1.3040
  349MOL0     H46065   6.528   6.073   3.884 -1.5840  1.1181 -0.2622
  349MOL0     H46066   6.191   6.186   4.076 -0.6822 -0.3573  1.2831
  349MOL0     H46067   6.998   5.948   4.055  2.5245 -1.6110  1.1993
  349MOL0     H46068   7.183   6.018   4.195 -0.1877  0.6095 -2.0038
  350MOL0     O46069   5.859   6.660   0.868 -0.0739  0.1325 -0.2207
  350MOL0     C46070   5.924   6.613   0.964  0.1452 -0.4278 -0.3084
  350MOL0     O46071   6.051   6.590   0.974 -0.1476  0.3687 -0.2031
  350MOL0     C46072   6.139   6.574   0.864 -0.8700  0.9315  0.7710
  350MOL0     C46073   6.098   6.525   0.742  0.2411 -0.5885  0.3583
  350MOL0     C46074   6.188   6.522   0.629  0.6305  0.1560  0.7855
  350MOL0     C46075   6.319   6.557   0.647  0.2471 -0.0377  1.3407
  350MOL0     O46076   6.406   6.547   0.532 -0.4385 -0.2395  0.5955
  350MOL0     C46077   6.550   6.572   0.552 -0.1701 -0.1008  1.0091
  350MOL0     C46078   6.639   6.522   0.442  0.5633  1.1825 -0.1174
  350MOL0     C46079   6.646   6.367   0.424  0.1661  0.4357  0.9915
  350MOL0     C46080   6.781   6.329   0.364 -1.5161  0.6865 -0.3306
  350MOL0     C46081   6.816   6.178   0.345  0.1619 -0.8749 -1.2736
  350MOL0     C46082   6.759   6.125   0.223  0.0225  0.2933  0.1384
  350MOL0     C46083   6.759   5.975   0.225  0.3935 -0.4797 -0.7465
  350MOL0     C46084   6.721   5.927   0.082  0.5120  0.8370 -0.1661
  350MOL0     N46085   6.722   5.778   0.066  0.1166  0.4587 -0.6854
  350MOL0     C46086   6.825   5.697   0.087  0.1713  0.6577  1.3629
  350MOL0     C46087   6.783   5.573   0.035  0.3519  0.5753 -0.3755
  350MOL0     C46088   6.855   5.440   0.047  0.2755  0.0592 -0.8413
  350MOL0     C46089   6.856   5.347  -0.070  0.5371 -0.5522  0.0845
  350MOL0     C46090   6.912   5.205  -0.046  0.6220 -0.4618  0.2194
  350MOL0     C46091   6.945   5.131  -0.173 -0.3446  0.5970 -0.2554
  350MOL0     O46092   7.069   5.183  -0.228 -0.0398 -0.1114  0.7882
  350MOL0     C46093   7.189   5.143  -0.180 -1.1854  1.1889  0.3032
  350MOL0     C46094   7.307   5.175  -0.247 -0.4877 -0.2364 -0.6794
  350MOL0     C46095   7.439   5.149  -0.200 -0.8093 -0.3993  0.2359
  350MOL0     C46096   7.450   5.073  -0.082  0.1320  0.2510 -1.0842
  350MOL0     C46097   7.584   5.032  -0.026  0.2200  0.1391 -0.0140
  350MOL0     O46098   7.700   5.090  -0.063 -0.1700 -0.0676  0.9813
  350MOL0     C46099   7.822   5.050  -0.005  0.5824 -0.8333 -0.5237
  350MOL0     C46100   7.895   5.159   0.047 -1.0867 -0.9807  0.7205
  350MOL0     C46101   8.029   5.140   0.092 -0.4839  0.0791  0.5338
  350MOL0     C46102   8.090   5.012   0.091  0.2331 -0.1588  0.8331
  350MOL0     O46103   8.209   4.973   0.144 -0.2257  0.1144 -1.0427
  350MOL0     C46104   8.321   5.062   0.141 -0.1143 -1.0148  0.3963
  350MOL0     C46105   8.450   4.982   0.170 -0.1678  0.7142 -0.3508
  350MOL0     C46106   8.445   4.899   0.299 -0.1726  0.2932  0.0941
  350MOL0     C46107   8.565   4.804   0.301  0.0156 -1.1521  1.0462
  350MOL0     C46108   8.578   4.712   0.425  0.3530  0.3876  0.0101
  350MOL0     C46109   8.729   4.660   0.406 -0.6967 -0.5080  0.5178
  350MOL0     C46110   8.760   4.549   0.508  0.4476 -0.4376 -0.6850
  350MOL0     C46111   8.902   4.488   0.500 -0.1501  0.3253 -0.0250
  350MOL0    Cl46112   8.922   4.377   0.629  0.2802  0.4281 -0.4535
  350MOL0     C46113   8.008   4.904   0.040 -0.2143 -0.1779  0.6937
  350MOL0     C46114   7.878   4.924   0.002  0.7281 -0.2868  0.3474
  350MOL0     O46115   7.582   4.939   0.060  0.2035 -0.1055  0.2338
  350MOL0     C46116   7.330   5.048  -0.012 -0.3598  0.2845 -1.1900
  350MOL0     C46117   7.205   5.087  -0.061  0.2648 -0.0718 -0.3224
  350MOL0     N46118   6.652   5.596   0.002  0.3871  0.7309  0.0004
  350MOL0     N46119   6.610   5.718   0.014 -0.0025 -0.4295 -0.0981
  350MOL0     C46120   6.362   6.604   0.771  0.4735  0.6550  0.0335
  350MOL0     C46121   6.270   6.610   0.875  0.2347  0.3234 -0.1527
  350MOL0     C46122   5.852   6.552   1.080  0.5517 -1.2806 -0.9827
  350MOL0     C46123   5.914   6.516   1.205  0.2565 -0.8483  0.9152
  350MOL0     C46124   5.840   6.475   1.315  0.4944 -0.4442  0.4632
  350MOL0     C46125   5.697   6.478   1.303  0.7521  0.0543  0.1235
  350MOL0     O46126   5.596   6.449   1.401  0.0277  0.0215 -0.0139
  350MOL0     C46127   5.625   6.448   1.543 -0.0119 -0.4825 -1.1099
  350MOL0     C46128   5.609   6.591   1.592  0.3321 -0.6178  0.2603
  350MOL0     C46129   5.598   6.604   1.744  0.1121  0.6259  0.9261
  350MOL0     C46130   5.603   6.749   1.781  0.7797  0.2565 -0.7461
  350MOL0     C46131   5.550   6.762   1.915 -0.6755 -0.5971 -0.5477
  350MOL0     C46132   5.507   6.788   2.024 -0.1869  0.9979  1.1248
  350MOL0     C46133   5.640   6.508   1.182 -0.4468  0.3213 -1.0819
  350MOL0     C46134   5.717   6.546   1.070 -0.0398  0.1607 -0.2624
  350MOL0     H46135   5.994   6.496   0.727  0.2909 -0.1056 -1.0842
  350MOL0     H46136   6.165   6.484   0.531  1.0924 -1.2290  1.1942
  350MOL0     H46137   6.583   6.532   0.648 -0.2028 -2.0188  0.2672
  350MOL0     H46138   6.569   6.679   0.537  0.7098 -0.7030 -3.5931
  350MOL0     H46139   6.739   6.563   0.458  1.4410 -1.9036  3.9892
  350MOL0     H46140   6.595   6.559   0.349  0.4497 -0.3650 -0.7141
  350MOL0     H46141   6.574   6.339   0.346  2.1302 -0.7124 -0.5017
  350MOL0     H46142   6.630   6.299   0.508 -0.0907 -1.5649 -0.5890
  350MOL0     H46143   6.797   6.381   0.269 -0.0122 -0.7704 -0.9391
  350MOL0     H46144   6.851   6.364   0.440 -2.8470  0.9887  0.7816
  350MOL0     H46145   6.771   6.126   0.430 -0.5415  3.1658  1.0955
  350MOL0     H46146   6.924   6.162   0.341  0.0186 -2.1821 -0.5786
  350MOL0     H46147   6.805   6.164   0.132 -3.6234 -0.2103 -2.1332
  350MOL0     H46148   6.652   6.148   0.215 -0.3718 -0.8117  1.7789
  350MOL0     H46149   6.854   5.928   0.254  0.4476  0.5338  0.8751
  350MOL0     H46150   6.676   5.937   0.285 -0.7190  0.7950 -1.4427
  350MOL0     H46151   6.793   5.970   0.012  0.4330 -1.3284 -1.6722
  350MOL0     H46152   6.625   5.975   0.065  1.7126  3.4323 -0.1263
  350MOL0     H46153   6.927   5.725   0.110 -0.2340  2.3056  1.2531
  350MOL0     H46154   6.820   5.383   0.134 -0.1866  1.0564 -0.3589
  350MOL0     H46155   6.958   5.469   0.069  0.1195 -0.5668  0.9022
  350MOL0     H46156   6.920   5.388  -0.150 -0.0208  0.7587  0.2867
  350MOL0     H46157   6.753   5.346  -0.104 -0.6323 -0.3962  3.3013
  350MOL0     H46158   6.992   5.209   0.028 -1.3760 -0.9032  2.5427
  350MOL0     H46159   6.829   5.145  -0.007  1.4741 -2.0382 -0.2963
  350MOL0     H46160   6.872   5.143  -0.255  1.4216  0.7496 -1.8774
  350MOL0     H46161   6.945   5.026  -0.143 -1.1201  0.6031 -0.2009
  350MOL0     H46162   7.297   5.234  -0.337 -1.6569  4.1682  2.0502
  350MOL0     H46163   7.516   5.187  -0.266 -0.5657 -0.7278  0.3315
  350MOL0     H46164   7.871   5.264   0.032  1.0584 -0.7304 -1.5753
  350MOL0     H46165   8.094   5.227   0.103 -0.7186  0.4292 -0.7152
  350MOL0     H46166   8.313   5.147   0.209  0.3879 -1.3290  0.8467
  350MOL0     H46167   8.335   5.100   0.039 -1.5200 -0.8930  0.2216
  350MOL0     H46168   8.533   5.054   0.168 -1.4511  2.2874  0.7620
  350MOL0     H46169   8.455   4.917   0.082 -3.3201  0.5819 -0.5274
  350MOL0     H46170   8.356   4.835   0.310 -0.5025  1.0801  2.7692
  350MOL0     H46171   8.440   4.967   0.384  1.0500  2.9291 -1.8165
  350MOL0     H46172   8.558   4.736   0.217 -1.2669 -1.3733  1.3180
  350MOL0     H46173   8.654   4.868   0.292 -0.8112 -0.0596  0.2453
  350MOL0     H46174   8.508   4.629   0.410 -2.0576  2.3390  0.0169
  350MOL0     H46175   8.569   4.771   0.517  3.5785 -0.7019  1.1948
  350MOL0     H46176   8.797   4.745   0.415 -0.4704  0.0160 -3.9991
  350MOL0     H46177   8.732   4.620   0.304 -0.1942 -1.3650  0.8560
  350MOL0     H46178   8.739   4.591   0.607 -2.3616 -0.3743 -1.2221
  350MOL0     H46179   8.700   4.457   0.509  0.5986 -0.7179  3.8145
  350MOL0     H46180   8.985   4.553   0.527  2.2048 -2.6884  0.4355
  350MOL0     H46181   8.908   4.439   0.402 -0.1331 -1.0599  0.6444
  350MOL0     H46182   8.055   4.808   0.057 -0.1317  0.2035  2.8967
  350MOL0     H46183   7.821   4.840  -0.036 -2.3595  2.7504 -2.3540
  350MOL0     H46184   7.327   5.012   0.091  0.2359  1.4432 -0.7444
  350MOL0     H46185   7.124   5.054   0.004  0.5935 -2.1318 -0.8828
  350MOL0     H46186   6.466   6.630   0.788  0.7245  0.6287 -1.3452
  350MOL0     H46187   6.299   6.654   0.970  1.2298  0.5075 -0.5219
  350MOL0     H46188   6.020   6.524   1.224  0.1470 -0.1601  1.2549
  350MOL0     H46189   5.885   6.428   1.402  0.7920  0.9427  1.0902
  350MOL0     H46190   5.722   6.407   1.570  1.6068  4.4788  1.8585
  350MOL0     H46191   5.552   6.387   1.598  0.8070  0.6422  1.3648
  350MOL0     H46192   5.705   6.638   1.569  0.2927 -1.8924 -3.1749
  350MOL0     H46193   5.522   6.639   1.548 -0.5959 -0.8998  1.7353
  350MOL0     H46194   5.680   6.553   1.796 -0.1718 -0.0133  0.7593
  350MOL0     H46195   5.503   6.557   1.771 -0.7383 -0.2450 -2.9156
  350MOL0     H46196   5.706   6.784   1.774  1.0361  0.2095  1.8444
  350MOL0     H46197   5.536   6.807   1.717  2.4410  2.9289 -0.2169
  350MOL0     H46198   5.468   6.814   2.121  1.6296  2.7738  1.4637
  350MOL0     H46199   5.535   6.482   1.184 -0.5467  0.7594 -0.1202
  350MOL0     H46200   5.665   6.575   0.979  0.7948  0.9727 -0.4959
  351MOL0     O46201  10.983   3.613   9.645  0.0323  0.2160 -0.1570
  351MOL0     C46202  11.080   3.553   9.609 -0.3995  0.7655 -0.1583
  351MOL0     O46203  11.092   3.413   9.580  0.2663 -0.0612 -0.3207
  351MOL0     C46204  10.972   3.354   9.554 -0.5220  0.2471 -1.0245
  351MOL0     C46205  10.909   3.284   9.661 -0.1397 -0.3444  0.0742
  351MOL0     C46206  10.782   3.235   9.644 -0.9669  0.8963 -0.4682
  351MOL0     C46207  10.715   3.241   9.526  0.6878 -0.4338  0.9319
  351MOL0     O46208  10.584   3.216   9.503  0.4055 -0.2255 -0.3128
  351MOL0     C46209  10.540   3.094   9.565  0.1068 -0.3719  0.6069
  351MOL0     C46210  10.615   2.978   9.506  0.6088 -0.2977 -0.2567
  351MOL0     C46211  10.558   2.835   9.538 -0.6831  0.2408 -0.3418
  351MOL0     C46212  10.437   2.797   9.449 -0.3792 -0.3147 -0.3375
  351MOL0     C46213  10.480   2.756   9.307  0.1105  0.2732 -0.0708
  351MOL0     C46214  10.354   2.724   9.223  0.1159 -0.7998 -0.6255
  351MOL0     C46215  10.395   2.685   9.076 -0.5630  0.5867  0.2226
  351MOL0     C46216  10.273   2.644   8.982  0.3402 -0.2202  1.2209
  351MOL0     N46217  10.150   2.725   8.986  0.0764  0.2016 -0.3026
  351MOL0     C46218  10.149   2.846   8.930  0.8683  0.5674 -0.4471
  351MOL0     C46219  10.017   2.890   8.945 -0.4648 -0.5824  0.0169
  351MOL0     C46220   9.957   3.027   8.896 -0.0216  0.3365  0.5713
  351MOL0     C46221   9.816   3.066   8.951 -0.4967  0.2409  0.0300
  351MOL0     C46222   9.705   2.981   8.897 -0.2845  0.5928  0.4134
  351MOL0     C46223   9.560   3.026   8.949  0.2826 -0.5619 -0.3401
  351MOL0     O46224   9.454   2.932   8.916  0.3620  0.0245 -0.3348
  351MOL0     C46225   9.323   2.975   8.944 -0.0482  0.0551 -0.3571
  351MOL0     C46226   9.227   2.885   8.919  0.1123 -0.0394  0.2326
  351MOL0     C46227   9.098   2.905   8.968  0.8424 -0.1952 -0.8347
  351MOL0     C46228   9.062   3.027   9.046 -0.2668  0.2761  0.5661
  351MOL0     C46229   8.925   3.053   9.092  0.2720 -0.0580  0.1616
  351MOL0     O46230   8.819   2.994   9.031 -0.2496 -0.3694 -0.0346
  351MOL0     C46231   8.689   3.011   9.081  0.3094 -0.4480 -0.5918
  351MOL0     C46232   8.611   3.123   9.035  0.0581  0.1136 -0.0146
  351MOL0     C46233   8.469   3.120   9.054 -0.4053 -0.2775  0.4374
  351MOL0     C46234   8.406   3.020   9.112  1.1609 -0.7890 -0.2934
  351MOL0     O46235   8.275   3.030   9.130 -0.7351 -0.2087 -0.1192
  351MOL0     C46236   8.227   3.011   9.267  0.8048 -0.0756  0.4752
  351MOL0     C46237   8.067   3.043   9.272  0.5173  1.0013 -0.1073
  351MOL0     C46238   8.038   3.174   9.322 -0.7778 -0.0116 -1.1820
  351MOL0     C46239   7.896   3.217   9.291  0.2539 -0.0595  0.6079
  351MOL0     C46240   7.853   3.327   9.368  0.0556 -0.4009 -0.3326
  351MOL0     C46241   7.947   3.451   9.383 -0.5190  0.0743 -0.4658
  351MOL0     C46242   7.909   3.557   9.492  0.2572  0.8425  0.0751
  351MOL0     C46243   7.976   3.688   9.482  0.0957  0.6375 -1.0536
  351MOL0    Cl46244   8.144   3.665   9.441 -0.1849  0.0880  0.3811
  351MOL0     C46245   8.485   2.920   9.167 -0.7073  0.9354 -0.8760
  351MOL0     C46246   8.626   2.913   9.151 -0.5973  1.1169 -0.6821
  351MOL0     O46247   8.913   3.152   9.161  0.5525 -0.0941 -0.3251
  351MOL0     C46248   9.159   3.121   9.072 -1.1764 -0.5835 -0.0908
  351MOL0     C46249   9.290   3.089   9.019  0.2664  0.3763 -0.3379
  351MOL0     N46250   9.942   2.796   9.013 -0.1861 -0.5853  0.1696
  351MOL0     N46251  10.024   2.694   9.040  0.6708 -0.0953 -0.1260
  351MOL0     C46252  10.777   3.316   9.423  1.1818 -0.3608 -0.5805
  351MOL0     C46253  10.910   3.380   9.434  1.4844  0.5106 -0.0884
  351MOL0     C46254  11.203   3.628   9.600  1.0748  0.2725 -0.2135
  351MOL0     C46255  11.316   3.570   9.552 -0.6479 -0.3541  0.3635
  351MOL0     C46256  11.431   3.647   9.529  0.6813 -0.2490 -0.0678
  351MOL0     C46257  11.429   3.783   9.562  0.6066  0.6915  0.6962
  351MOL0     O46258  11.532   3.862   9.540  0.1584 -0.0785  0.1080
  351MOL0     C46259  11.650   3.797   9.484 -0.1488 -0.4807 -0.4604
  351MOL0     C46260  11.749   3.918   9.477  0.7491  0.2384  0.2947
  351MOL0     C46261  11.886   3.873   9.434 -0.5741  0.4785  0.3083
  351MOL0     C46262  11.991   3.993   9.439 -0.0695  0.5560 -0.1919
  351MOL0     C46263  12.122   3.933   9.463 -1.1827 -0.1165 -0.0327
  351MOL0     C46264  12.234   3.903   9.490  0.0755  0.2177  0.1666
  351MOL0     C46265  11.317   3.849   9.612 -0.3065 -0.4322  0.7318
  351MOL0     C46266  11.199   3.772   9.629  0.5386  0.0007 -0.1020
  351MOL0     H46267  10.955   3.271   9.758  0.0881 -0.3766 -0.0367
  351MOL0     H46268  10.731   3.196   9.731 -1.0481  0.8278 -0.5470
  351MOL0     H46269  10.432   3.090   9.547 -0.2847  1.3707  2.2263
  351MOL0     H46270  10.555   3.099   9.673  1.0243  0.7275  0.4405
  351MOL0     H46271  10.719   2.976   9.542  0.7305  0.2820 -0.5666
  351MOL0     H46272  10.623   2.996   9.399  2.4200  0.8664  0.0338
  351MOL0     H46273  10.518   2.827   9.639 -0.7391  0.0104 -0.3794
  351MOL0     H46274  10.640   2.762   9.533 -1.5409 -0.7086 -1.1477
  351MOL0     H46275  10.383   2.708   9.482  0.7965 -1.4165 -1.2932
  351MOL0     H46276  10.377   2.889   9.451  2.6432  1.8739 -1.2257
  351MOL0     H46277  10.545   2.668   9.298  1.2583  1.0920  0.0701
  351MOL0     H46278  10.529   2.836   9.251  2.6641 -2.3416 -1.8871
  351MOL0     H46279  10.296   2.817   9.224  1.8411  0.4075 -2.8076
  351MOL0     H46280  10.306   2.639   9.272 -0.1078 -0.7436 -0.7450
  351MOL0     H46281  10.447   2.769   9.029  0.9713  0.6379  1.9185
  351MOL0     H46282  10.468   2.604   9.076  1.3384  2.2134  0.6376
  351MOL0     H46283  10.242   2.552   9.032 -1.1739  0.2666  1.2306
  351MOL0     H46284  10.311   2.637   8.879 -1.6110  0.8077  0.3770
  351MOL0     H46285  10.233   2.902   8.889  0.7126 -0.4699 -2.3550
  351MOL0     H46286   9.955   3.030   8.787  0.4870  1.2538  0.5824
  351MOL0     H46287  10.025   3.105   8.932 -2.5898  2.8381  0.3859
  351MOL0     H46288   9.801   3.169   8.920  1.2500  0.6411  0.3998
  351MOL0     H46289   9.812   3.066   9.061 -2.4719  1.5458 -0.0066
  351MOL0     H46290   9.704   2.991   8.788 -0.4277 -5.3070 -0.4491
  351MOL0     H46291   9.717   2.874   8.918  2.6384  1.1742  2.2744
  351MOL0     H46292   9.535   3.119   8.897  2.8717  0.2550 -0.2676
  351MOL0     H46293   9.564   3.042   9.058 -0.3175 -0.1816 -0.3695
  351MOL0     H46294   9.261   2.811   8.846  3.4665  1.1474  0.4078
  351MOL0     H46295   9.021   2.833   8.943  1.5043 -1.9010  1.7379
  351MOL0     H46296   8.659   3.195   8.969  0.1741  0.3910  0.3667
  351MOL0     H46297   8.411   3.199   9.007  2.3988  1.2473 -0.7204
  351MOL0     H46298   8.279   3.075   9.339  0.9134  1.2536 -0.7291
  351MOL0     H46299   8.241   2.915   9.317  1.7584 -0.7534 -1.0082
  351MOL0     H46300   8.016   2.965   9.330 -1.0782  0.4511 -2.1087
  351MOL0     H46301   8.036   3.044   9.167  1.5578  0.4047 -0.4271
  351MOL0     H46302   8.108   3.248   9.281 -0.2767  0.6668  0.7850
  351MOL0     H46303   8.064   3.173   9.428  0.2921 -6.0959 -1.1117
  351MOL0     H46304   7.884   3.234   9.183  0.7561 -0.6206  0.4577
  351MOL0     H46305   7.833   3.130   9.307 -0.2393 -0.4480 -2.6516
  351MOL0     H46306   7.836   3.289   9.469 -0.5420 -0.3832 -0.4189
  351MOL0     H46307   7.755   3.348   9.323 -1.2759 -1.9955  1.6786
  351MOL0     H46308   7.957   3.486   9.280 -0.8756  1.1761 -0.1346
  351MOL0     H46309   8.043   3.413   9.419 -1.8453 -2.0717  1.0497
  351MOL0     H46310   7.801   3.575   9.483  0.4251  1.2884 -1.0948
  351MOL0     H46311   7.928   3.515   9.592  3.4753  0.3238 -0.6500
  351MOL0     H46312   7.960   3.747   9.572 -1.7967  1.3505 -1.8096
  351MOL0     H46313   7.927   3.742   9.401 -1.7394  0.7356  0.0579
  351MOL0     H46314   8.450   2.830   9.217  0.7231  2.9002  4.2957
  351MOL0     H46315   8.689   2.831   9.186  0.7026  2.4494  0.2434
  351MOL0     H46316   9.141   3.213   9.127  1.7322  0.1673 -0.1904
  351MOL0     H46317   9.370   3.154   9.051  2.0519 -1.9208  0.1426
  351MOL0     H46318  10.722   3.353   9.337  1.3725 -1.4026 -1.1625
  351MOL0     H46319  10.958   3.429   9.350  0.2088  2.7755  0.4091
  351MOL0     H46320  11.324   3.465   9.524  0.1358  0.0891 -1.1773
  351MOL0     H46321  11.508   3.593   9.474 -0.4676 -0.0895 -1.9012
  351MOL0     H46322  11.629   3.758   9.384 -0.1034 -2.3245  0.2022
  351MOL0     H46323  11.686   3.725   9.559  0.8053  0.1934 -0.2578
  351MOL0     H46324  11.711   3.992   9.406 -0.9872 -0.4486  0.4570
  351MOL0     H46325  11.755   3.960   9.578  0.1429 -1.9043  1.2902
  351MOL0     H46326  11.884   3.838   9.331 -0.9827  0.9639  0.1460
  351MOL0     H46327  11.919   3.788   9.495 -0.4814  0.6302  0.4703
  351MOL0     H46328  11.986   4.052   9.348  0.1481  0.7377 -0.0879
  351MOL0     H46329  11.960   4.051   9.527 -4.5292 -2.5769  0.6289
  351MOL0     H46330  12.330   3.868   9.522 -0.6845 -3.6118 -1.1305
  351MOL0     H46331  11.326   3.957   9.615  3.0091 -0.3817 -3.0443
  351MOL0     H46332  11.107   3.809   9.673 -0.2563 -2.8160  0.7896
  352MOL0     O46333   7.759   6.994   3.545  0.1603  0.0645 -0.3146
  352MOL0     C46334   7.693   7.051   3.457  0.5712  0.9099 -0.4423
  352MOL0     O46335   7.726   7.163   3.394 -0.5235 -0.0448  0.3257
  352MOL0     C46336   7.849   7.225   3.387  0.4782  0.5108 -0.1389
  352MOL0     C46337   7.855   7.334   3.304 -0.1835 -0.1221  0.4746
  352MOL0     C46338   7.973   7.412   3.291 -1.1415 -0.4803 -0.0892
  352MOL0     C46339   8.094   7.371   3.355 -0.1904  0.4181  0.3789
  352MOL0     O46340   8.216   7.436   3.348 -0.1101 -0.3071  0.6397
  352MOL0     C46341   8.234   7.548   3.262 -0.7649  0.8782 -0.2648
  352MOL0     C46342   8.376   7.616   3.260  0.0387  0.5194 -0.3938
  352MOL0     C46343   8.376   7.730   3.159  0.7452 -0.5229 -0.0795
  352MOL0     C46344   8.508   7.793   3.132  0.1333  0.4490 -0.5692
  352MOL0     C46345   8.591   7.698   3.054 -0.3806  0.4898  0.0776
  352MOL0     C46346   8.719   7.750   3.013 -0.8787  0.0647 -0.4950
  352MOL0     C46347   8.811   7.626   2.962  0.1211  0.3282  0.0994
  352MOL0     C46348   8.956   7.661   2.966  0.3735 -0.2410  0.0625
  352MOL0     N46349   9.008   7.764   2.871  0.8311  0.8028  0.1915
  352MOL0     C46350   8.936   7.798   2.757 -0.1892 -0.2785  0.4107
  352MOL0     C46351   8.997   7.917   2.720 -0.1509  0.7048 -0.5111
  352MOL0     C46352   8.957   8.012   2.610 -0.1280  0.1201 -0.0628
  352MOL0     C46353   8.876   8.132   2.657 -0.8618 -0.3420  0.3435
  352MOL0     C46354   8.743   8.108   2.730 -0.7489  1.2540  0.4003
  352MOL0     C46355   8.680   8.241   2.764 -0.3252  0.4442  0.1690
  352MOL0     O46356   8.634   8.260   2.901 -1.0615  0.3315  0.1242
  352MOL0     C46357   8.513   8.208   2.939 -0.8678 -0.3408  1.1640
  352MOL0     C46358   8.474   8.235   3.070 -0.0546 -0.4452 -0.1460
  352MOL0     C46359   8.355   8.192   3.124  0.4434  0.6146 -0.3630
  352MOL0     C46360   8.273   8.103   3.047  0.3171  0.0179  1.1102
  352MOL0     C46361   8.155   8.047   3.115  0.0736 -1.1862  0.0928
  352MOL0     O46362   8.085   7.961   3.039 -0.6223 -0.4774 -0.0367
  352MOL0     C46363   7.976   7.879   3.074 -1.0337  0.1132  0.8312
  352MOL0     C46364   7.905   7.818   2.961 -0.6657  0.6814 -0.0148
  352MOL0     C46365   7.812   7.720   2.986  0.6906 -0.0299  0.0245
  352MOL0     C46366   7.771   7.688   3.114  0.6616  0.2343  0.0451
  352MOL0     O46367   7.676   7.590   3.140  0.7718  0.0193  0.2835
  352MOL0     C46368   7.584   7.556   3.031  0.8320  0.0824 -0.7855
  352MOL0     C46369   7.472   7.463   3.087 -0.5009 -0.5703 -0.0185
  352MOL0     C46370   7.359   7.452   2.994 -0.6397  0.1458  0.0156
  352MOL0     C46371   7.249   7.357   3.042  0.0763  0.3682 -0.1070
  352MOL0     C46372   7.180   7.401   3.169 -0.2510  0.1631 -0.6685
  352MOL0     C46373   7.077   7.288   3.222  0.1421 -0.5232  0.3018
  352MOL0     C46374   6.957   7.267   3.130  0.1395  1.0358 -0.9641
  352MOL0     C46375   6.845   7.202   3.206 -0.7165  0.1270 -0.2117
  352MOL0    Cl46376   6.711   7.142   3.113  0.0075  0.2245  0.1293
  352MOL0     C46377   7.830   7.757   3.223  0.9015  0.6915  0.1761
  352MOL0     C46378   7.930   7.857   3.202  0.6539 -0.3962  0.1489
  352MOL0     O46379   8.121   8.086   3.227 -0.8716  0.2372  0.4138
  352MOL0     C46380   8.307   8.079   2.914 -0.3526  0.0574  0.1326
  352MOL0     C46381   8.424   8.128   2.856  0.4429  1.0406  0.4440
  352MOL0     N46382   9.099   7.943   2.809 -0.2525 -0.6099  0.0047
  352MOL0     N46383   9.101   7.859   2.903  0.0895 -0.0769 -0.0373
  352MOL0     C46384   8.084   7.267   3.447 -0.1389  1.1227  0.5379
  352MOL0     C46385   7.960   7.198   3.473 -0.8572  0.1766 -0.4843
  352MOL0     C46386   7.574   6.980   3.400  0.1925 -0.9220 -0.6675
  352MOL0     C46387   7.498   6.892   3.472  0.4343  0.2143 -0.2269
  352MOL0     C46388   7.394   6.813   3.416  1.1014  0.4772 -0.6245
  352MOL0     C46389   7.364   6.840   3.279 -0.1134  0.0943 -0.8735
  352MOL0     O46390   7.268   6.774   3.207  0.2372 -0.2029 -0.5546
  352MOL0     C46391   7.191   6.679   3.269 -0.2017  0.4414 -0.2107
  352MOL0     C46392   7.078   6.616   3.178  0.2738  0.6597  0.0280
  352MOL0     C46393   7.003   6.501   3.255  0.3284 -0.1853 -0.0750
  352MOL0     C46394   6.851   6.501   3.274  0.4987  0.6446  1.5842
  352MOL0     C46395   6.798   6.626   3.329 -0.7010  0.5730 -0.0388
  352MOL0     C46396   6.747   6.722   3.378  0.2798 -0.3524 -0.0915
  352MOL0     C46397   7.441   6.938   3.210  0.5809 -0.1100  1.0478
  352MOL0     C46398   7.539   7.009   3.264  0.3143 -0.0412 -0.2314
  352MOL0     H46399   7.769   7.373   3.251 -0.7192  1.0732  2.1533
  352MOL0     H46400   7.965   7.499   3.227  3.2140  0.1287 -0.0572
  352MOL0     H46401   8.165   7.627   3.290  0.7839  1.8411  1.0287
  352MOL0     H46402   8.194   7.514   3.166  0.0808  1.3280 -0.7826
  352MOL0     H46403   8.445   7.541   3.220  2.3078  2.3213 -0.0860
  352MOL0     H46404   8.407   7.646   3.361 -0.0469  2.1534 -0.8212
  352MOL0     H46405   8.308   7.811   3.190  0.8626 -1.6294  3.5652
  352MOL0     H46406   8.341   7.699   3.060 -2.5824  0.2390  0.7061
  352MOL0     H46407   8.482   7.882   3.074  3.8739  1.2301 -1.3449
  352MOL0     H46408   8.560   7.828   3.222 -2.9699  0.0893  1.5033
  352MOL0     H46409   8.541   7.677   2.959  0.4979 -3.7385  0.3688
  352MOL0     H46410   8.610   7.599   3.094 -1.2952  0.3634  0.2286
  352MOL0     H46411   8.769   7.793   3.100 -0.4579  0.7518 -1.0687
  352MOL0     H46412   8.711   7.833   2.942 -0.5143  2.9202  2.5681
  352MOL0     H46413   8.793   7.545   3.033  1.3159  1.7054  2.0940
  352MOL0     H46414   8.768   7.601   2.865 -3.7418  2.0097  1.1815
  352MOL0     H46415   9.020   7.572   2.956 -1.6134 -1.8466  0.9839
  352MOL0     H46416   8.966   7.702   3.067  0.5708  0.6141 -0.2946
  352MOL0     H46417   8.854   7.752   2.702 -1.0992 -1.3658  2.5950
  352MOL0     H46418   8.902   7.956   2.534  0.3247  1.3282 -1.3234
  352MOL0     H46419   9.050   8.035   2.558  0.9145 -1.6696  0.9288
  352MOL0     H46420   8.866   8.192   2.566  2.0722  3.6015  2.2743
  352MOL0     H46421   8.948   8.184   2.721 -0.8637  0.2520 -0.1265
  352MOL0     H46422   8.675   8.045   2.672  3.2302 -0.6185 -2.7542
  352MOL0     H46423   8.766   8.057   2.825  1.0186  0.2718 -0.4911
  352MOL0     H46424   8.592   8.262   2.702 -0.9316  1.0202  1.2037
  352MOL0     H46425   8.750   8.323   2.744  0.3471  0.2425  1.5819
  352MOL0     H46426   8.534   8.296   3.137 -3.8484  0.3247  2.8950
  352MOL0     H46427   8.332   8.240   3.219 -1.0476  1.4935 -1.1204
  352MOL0     H46428   7.929   7.847   2.860 -1.8995 -0.4686 -0.6646
  352MOL0     H46429   7.779   7.666   2.898  0.0756  0.5254 -0.0913
  352MOL0     H46430   7.626   7.505   2.944 -0.1351 -1.8759 -0.1795
  352MOL0     H46431   7.532   7.647   2.998  0.9696 -0.3253 -2.1992
  352MOL0     H46432   7.432   7.513   3.175  2.7116  0.5132  0.9617
  352MOL0     H46433   7.513   7.365   3.115 -0.8701 -1.0999 -1.2683
  352MOL0     H46434   7.391   7.423   2.894 -0.4703 -0.7536  0.3181
  352MOL0     H46435   7.311   7.549   2.978 -1.8023 -0.5886 -1.0842
  352MOL0     H46436   7.171   7.350   2.965  1.4809  3.0133 -1.9004
  352MOL0     H46437   7.293   7.257   3.054  2.5733  1.3789 -0.3682
  352MOL0     H46438   7.115   7.487   3.151 -0.3584  0.3887  0.6692
  352MOL0     H46439   7.241   7.430   3.256 -2.5830 -0.6587  1.3727
  352MOL0     H46440   7.031   7.310   3.318  0.9713 -1.1806  0.8582
  352MOL0     H46441   7.133   7.196   3.238  1.2013 -0.5546 -2.9058
  352MOL0     H46442   6.925   7.364   3.090  3.1420  2.9275  0.7930
  352MOL0     H46443   6.988   7.202   3.047 -1.4560 -0.9579 -0.0798
  352MOL0     H46444   6.800   7.270   3.279 -0.8711 -0.0989 -0.0952
  352MOL0     H46445   6.879   7.120   3.269  1.4822  0.5789 -0.7143
  352MOL0     H46446   7.791   7.745   3.324  1.3498  3.0672  0.7093
  352MOL0     H46447   7.959   7.907   3.293  4.0065  0.8665 -1.4387
  352MOL0     H46448   8.241   8.014   2.858 -1.0321 -1.4195  2.4836
  352MOL0     H46449   8.455   8.097   2.757 -0.6826 -1.8307  0.8974
  352MOL0     H46450   8.172   7.252   3.509 -0.2290 -1.8619  0.0869
  352MOL0     H46451   7.959   7.126   3.553  1.2142 -1.2331 -1.6248
  352MOL0     H46452   7.525   6.870   3.575 -0.4636  0.1667  0.0078
  352MOL0     H46453   7.346   6.732   3.470 -0.8521  1.0710 -1.3802
  352MOL0     H46454   7.148   6.722   3.360  0.9814 -0.7238  0.9547
  352MOL0     H46455   7.248   6.595   3.309 -1.2327 -0.5712 -0.7944
  352MOL0     H46456   7.014   6.700   3.152 -0.5751 -0.4786 -1.7968
  352MOL0     H46457   7.126   6.573   3.090 -2.2405 -0.5470 -0.8519
  352MOL0     H46458   7.054   6.463   3.344 -2.4835 -0.2200  1.6509
  352MOL0     H46459   7.008   6.418   3.183  0.1045  0.2749 -0.6286
  352MOL0     H46460   6.817   6.486   3.171 -3.0479 -3.3298  3.0424
  352MOL0     H46461   6.815   6.419   3.337  0.0357 -0.0444  0.4459
  352MOL0     H46462   6.697   6.807   3.419  1.6362 -0.4347  1.8681
  352MOL0     H46463   7.421   6.950   3.104  1.5030 -2.3918  0.5566
  352MOL0     H46464   7.598   7.082   3.209  0.0152 -1.2511 -2.2535
  353MOL0     O46465   5.926  10.168   9.167  0.6154 -0.0249 -0.5824
  353MOL0     C46466   5.934  10.103   9.063  0.1906 -0.0365  0.4147
  353MOL0     O46467   5.831  10.047   8.988 -0.6008 -0.0139  0.5953
  353MOL0     C46468   5.705  10.058   9.035  0.6195  0.1291  0.2143
  353MOL0     C46469   5.668  10.050   9.167  1.0222  1.0734  0.1373
  353MOL0     C46470   5.529  10.044   9.201 -0.1223  0.3156 -0.0407
  353MOL0     C46471   5.421  10.050   9.099  0.0462  0.4527  0.6086
  353MOL0     O46472   5.286  10.036   9.108 -0.5187  0.8475 -0.2688
  353MOL0     C46473   5.245   9.992   9.239  0.5653  0.4099 -0.1429
  353MOL0     C46474   5.094   9.980   9.223 -0.0669  0.7042  0.8339
  353MOL0     C46475   5.030   9.971   9.361  0.1840  0.1570  0.1548
  353MOL0     C46476   4.896   9.905   9.358 -0.6832  0.0614  0.7646
  353MOL0     C46477   4.876   9.773   9.437  0.4242 -0.4204  0.4103
  353MOL0     C46478   4.931   9.653   9.365  0.4648  0.1171  0.8188
  353MOL0     C46479   4.895   9.523   9.438 -0.6799 -0.6960 -0.1902
  353MOL0     C46480   4.921   9.394   9.359 -0.5526 -1.1407  0.2959
  353MOL0     N46481   5.046   9.396   9.278  0.1524  0.6698 -0.3634
  353MOL0     C46482   5.036   9.431   9.146 -0.1391  0.6440  1.3095
  353MOL0     C46483   5.156   9.407   9.097  0.4024  0.0145 -0.0293
  353MOL0     C46484   5.198   9.416   8.951  0.3322  0.4752 -0.2577
  353MOL0     C46485   5.299   9.525   8.925 -0.4927 -0.6080  0.1424
  353MOL0     C46486   5.441   9.484   8.970  0.1767  0.0275  0.1677
  353MOL0     C46487   5.549   9.581   8.922  0.1359 -0.4301  0.7260
  353MOL0     O46488   5.593   9.539   8.789  0.3646 -0.4249  0.8425
  353MOL0     C46489   5.685   9.615   8.718 -0.4787 -0.7632  0.2437
  353MOL0     C46490   5.733   9.556   8.598 -0.3805 -0.4853  0.4041
  353MOL0     C46491   5.821   9.617   8.515 -0.4675 -0.6371  0.2337
  353MOL0     C46492   5.869   9.748   8.552 -0.8973 -0.2568 -0.4718
  353MOL0     C46493   5.973   9.808   8.465  0.3537  0.6210  0.1003
  353MOL0     O46494   5.998   9.938   8.494  0.2940 -1.1263 -0.0612
  353MOL0     C46495   6.114  10.000   8.433  0.9567 -0.2954 -0.2362
  353MOL0     C46496   6.240   9.942   8.417 -0.7058 -0.3731  0.8537
  353MOL0     C46497   6.345  10.008   8.352  0.5336  0.0671  0.7875
  353MOL0     C46498   6.316  10.133   8.300 -1.2595  0.2837  0.5032
  353MOL0     O46499   6.411  10.209   8.230 -0.1529 -0.1821 -0.0565
  353MOL0     C46500   6.539  10.140   8.208  0.4943  0.1346  0.3693
  353MOL0     C46501   6.650  10.216   8.127  0.3158  0.3571  0.3784
  353MOL0     C46502   6.640  10.370   8.143  0.4270  0.2461  0.0899
  353MOL0     C46503   6.555  10.435   8.028  0.1524 -0.1454 -0.2536
  353MOL0     C46504   6.519  10.572   8.058  0.8640 -0.2544 -0.4387
  353MOL0     C46505   6.419  10.640   7.958 -0.5854  0.5372  0.3890
  353MOL0     C46506   6.394  10.789   7.988 -0.1082 -0.2085 -0.0072
  353MOL0     C46507   6.271  10.848   7.919  0.0128  0.4642  0.6300
  353MOL0    Cl46508   6.129  10.761   7.996  0.0802  0.0091  0.0246
  353MOL0     C46509   6.204  10.201   8.328 -0.2172  0.1854 -0.2123
  353MOL0     C46510   6.097  10.137   8.391  0.1281  0.2446 -0.6047
  353MOL0     O46511   6.030   9.740   8.378  0.0187 -0.8977  0.5207
  353MOL0     C46512   5.822   9.809   8.671 -0.5559 -0.0244  1.1630
  353MOL0     C46513   5.732   9.742   8.747  0.4954 -0.2672 -0.7264
  353MOL0     N46514   5.238   9.368   9.203  0.6628 -0.8447  0.1607
  353MOL0     N46515   5.175   9.360   9.312 -0.0450 -0.8916 -0.0156
  353MOL0     C46516   5.465  10.058   8.968  0.4973 -0.9675  0.0765
  353MOL0     C46517   5.604  10.067   8.937  0.0000  0.6853  0.8657
  353MOL0     C46518   6.066  10.073   9.001  0.2317  0.1578 -0.2651
  353MOL0     C46519   6.181  10.135   9.053 -0.6586 -0.0940  0.2471
  353MOL0     C46520   6.314  10.111   9.004  0.1608 -0.2711 -0.1266
  353MOL0     C46521   6.337  10.015   8.907  0.8339  0.4188  0.5063
  353MOL0     O46522   6.472   9.999   8.870 -0.6897 -0.2440 -0.0574
  353MOL0     C46523   6.514   9.883   8.798  0.2216  0.8477 -0.2431
  353MOL0     C46524   6.623   9.804   8.859 -1.2112 -0.5692  0.1361
  353MOL0     C46525   6.747   9.893   8.915 -0.4414 -0.6354 -0.7972
  353MOL0     C46526   6.857   9.819   8.994  0.4899  0.5373 -0.1898
  353MOL0     C46527   6.954   9.766   8.903 -0.1120 -0.0071 -1.4959
  353MOL0     C46528   7.030   9.718   8.821  0.1107  0.1217 -0.8580
  353MOL0     C46529   6.218   9.941   8.859  0.3548 -0.5485 -0.6009
  353MOL0     C46530   6.085   9.970   8.903  0.1024 -1.0954 -0.1947
  353MOL0     H46531   5.745  10.042   9.244  1.2789  1.2374 -0.0999
  353MOL0     H46532   5.505  10.045   9.306 -1.2959  1.2678 -0.3026
  353MOL0     H46533   5.273  10.069   9.312  2.2479 -1.2837  1.1113
  353MOL0     H46534   5.292   9.896   9.263  1.0236  0.4382 -0.8852
  353MOL0     H46535   5.055   9.903   9.156  1.0963 -0.4981  1.4926
  353MOL0     H46536   5.055  10.074   9.184  1.4391  0.7637 -0.6512
  353MOL0     H46537   5.031  10.068   9.412 -1.2474 -0.0632  0.6432
  353MOL0     H46538   5.090   9.899   9.418  0.3414 -1.1864 -1.6097
  353MOL0     H46539   4.830   9.982   9.398  0.6182  1.1605  0.8547
  353MOL0     H46540   4.867   9.888   9.254 -0.7397  0.5210  0.7039
  353MOL0     H46541   4.770   9.756   9.458  0.4773 -0.6002  0.5357
  353MOL0     H46542   4.929   9.773   9.533  0.3722  1.3857  0.4851
  353MOL0     H46543   5.040   9.662   9.370  0.4050  1.2051  0.4494
  353MOL0     H46544   4.901   9.643   9.261  1.8647 -0.8504  0.4774
  353MOL0     H46545   4.947   9.527   9.534 -0.6700 -0.0285 -0.2229
  353MOL0     H46546   4.792   9.528   9.472 -0.3514 -4.4223  1.8750
  353MOL0     H46547   4.845   9.395   9.280  1.3729  1.8928 -1.7211
  353MOL0     H46548   4.917   9.308   9.425  0.4725 -1.3428  0.1127
  353MOL0     H46549   4.943   9.461   9.100  0.0563  1.6196  1.5309
  353MOL0     H46550   5.108   9.433   8.890 -1.1331 -0.6377  1.4887
  353MOL0     H46551   5.234   9.319   8.915 -0.0724  0.8206 -1.6661
  353MOL0     H46552   5.275   9.618   8.977  1.4358  0.4255 -0.6965
  353MOL0     H46553   5.294   9.549   8.818 -1.2087  0.5237  0.4221
  353MOL0     H46554   5.444   9.487   9.079 -4.2453  3.3337  0.4500
  353MOL0     H46555   5.469   9.389   8.922 -0.4053 -0.5132  0.8811
  353MOL0     H46556   5.639   9.592   8.982  0.7689  0.9774 -0.4060
  353MOL0     H46557   5.496   9.677   8.923  0.6437 -0.1237  2.8718
  353MOL0     H46558   5.692   9.457   8.581 -2.1332  0.1723  0.6420
  353MOL0     H46559   5.846   9.565   8.423  1.0958 -0.7395  0.6788
  353MOL0     H46560   6.256   9.837   8.439  1.2216 -0.6106 -1.2043
  353MOL0     H46561   6.436   9.949   8.337 -0.8153 -1.2927 -3.7126
  353MOL0     H46562   6.527  10.040   8.165  0.5474 -0.1880  1.0920
  353MOL0     H46563   6.579  10.119   8.307  4.7873 -1.7923 -1.5098
  353MOL0     H46564   6.650  10.180   8.024 -5.1653  2.3334 -0.6340
  353MOL0     H46565   6.743  10.180   8.170 -0.0197 -1.1268 -0.0912
  353MOL0     H46566   6.738  10.419   8.139  0.3806  0.2973 -0.6763
  353MOL0     H46567   6.605  10.396   8.243  2.5586 -0.6571  1.1331
  353MOL0     H46568   6.605  10.433   7.931  0.1067 -0.2324 -0.2759
  353MOL0     H46569   6.460  10.382   8.013  0.2562 -0.5380  0.4130
  353MOL0     H46570   6.602  10.639   8.084 -0.4732  0.7804  1.4445
  353MOL0     H46571   6.459  10.572   8.150 -0.6981  1.4026 -1.3686
  353MOL0     H46572   6.326  10.582   7.964  0.0442 -1.0491 -2.8349
  353MOL0     H46573   6.462  10.632   7.857 -2.0143 -1.3722 -0.1195
  353MOL0     H46574   6.396  10.818   8.093  0.0824  2.2302 -0.6192
  353MOL0     H46575   6.479  10.845   7.949  0.2259  2.0514  3.5168
  353MOL0     H46576   6.280  10.834   7.811  0.5662 -0.3763  0.7789
  353MOL0     H46577   6.251  10.955   7.928 -0.8153  0.6245 -2.0826
  353MOL0     H46578   6.204  10.307   8.303 -1.7918  0.1267 -0.5723
  353MOL0     H46579   6.008  10.195   8.414  1.2068  1.2324  1.2836
  353MOL0     H46580   5.863   9.906   8.699 -0.7548  0.2465  0.5166
  353MOL0     H46581   5.698   9.784   8.841  0.0333 -2.3037  0.0866
  353MOL0     H46582   5.391  10.052   8.888 -0.6134  2.2975  0.7249
  353MOL0     H46583   5.618  10.079   8.830 -2.7577 -2.5892 -0.0552
  353MOL0     H46584   6.168  10.198   9.140  1.7271  1.5167 -0.4618
  353MOL0     H46585   6.402  10.154   9.050  0.0413 -0.4819  0.3021
  353MOL0     H46586   6.549   9.941   8.712  0.5991  2.3407  0.8717
  353MOL0     H46587   6.436   9.814   8.763  0.3370 -0.7542  2.4048
  353MOL0     H46588   6.588   9.731   8.933 -0.9645 -2.1331 -1.2418
  353MOL0     H46589   6.660   9.735   8.784  2.6206 -2.3919  3.3048
  353MOL0     H46590   6.712   9.964   8.991 -1.0489  0.6338 -2.1891
  353MOL0     H46591   6.792   9.959   8.840 -4.2222  1.1842 -1.7418
  353MOL0     H46592   6.903   9.892   9.062 -3.2968  0.4291  2.8062
  353MOL0     H46593   6.809   9.740   9.053  0.9971 -0.4863 -1.1020
  353MOL0     H46594   7.094   9.700   8.737  0.2753  0.3034 -0.7728
  353MOL0     H46595   6.220   9.865   8.782  2.4670  1.9582 -3.2746
  353MOL0     H46596   5.998   9.916   8.867 -0.7630  0.7732 -1.0574
  354MOL0     O46597   3.123   7.095   4.043  0.0682  0.2634 -0.2922
  354MOL0     C46598   3.113   7.150   3.929  0.1032  0.2851  0.7019
  354MOL0     O46599   2.995   7.178   3.864  0.4505  0.1404  0.7245
  354MOL0     C46600   2.884   7.103   3.879 -0.4219 -0.5974  0.1983
  354MOL0     C46601   2.771   7.169   3.917  0.1354 -0.4386  0.2234
  354MOL0     C46602   2.639   7.108   3.914 -0.2277  0.2233  0.5646
  354MOL0     C46603   2.626   6.977   3.867 -0.5425  0.6836  0.4961
  354MOL0     O46604   2.511   6.907   3.851 -0.1957  0.1089 -0.0927
  354MOL0     C46605   2.379   6.961   3.836 -0.1820 -0.1517  0.1665
  354MOL0     C46606   2.368   6.974   3.685  0.1240  0.2294  0.5641
  354MOL0     C46607   2.241   7.038   3.640  0.2930  0.1318  0.4442
  354MOL0     C46608   2.125   6.939   3.632 -0.8630  0.0244  0.5617
  354MOL0     C46609   2.018   6.988   3.528 -0.4737  0.2782 -0.1859
  354MOL0     C46610   1.955   7.117   3.580  0.8711  0.6096  0.1178
  354MOL0     C46611   1.813   7.135   3.534 -0.1275  0.2536 -0.0222
  354MOL0     C46612   1.756   7.272   3.571  0.4935  0.8014  0.3674
  354MOL0     N46613   1.615   7.287   3.515 -0.2078  0.7183  0.3161
  354MOL0     C46614   1.516   7.196   3.514  0.6877  0.6442 -0.2907
  354MOL0     C46615   1.402   7.272   3.485 -0.2680  0.0433 -0.0123
  354MOL0     C46616   1.261   7.226   3.474 -0.1181 -0.9747  0.4712
  354MOL0     C46617   1.205   7.183   3.603  1.0905  0.7106 -0.0057
  354MOL0     C46618   1.197   7.304   3.704  0.3601  0.2982 -0.3001
  354MOL0     C46619   1.084   7.397   3.661  0.2015  0.0006  0.1024
  354MOL0     O46620   0.964   7.339   3.692 -0.2805  0.4043  0.3488
  354MOL0     C46621   0.859   7.401   3.635  0.7331 -0.9935 -0.0390
  354MOL0     C46622   0.825   7.534   3.645  0.4313  0.6589 -0.5218
  354MOL0     C46623   0.704   7.575   3.599 -0.0470 -0.5267  0.2466
  354MOL0     C46624   0.617   7.486   3.525 -0.8738  0.1298  0.2110
  354MOL0     C46625   0.493   7.533   3.465 -0.5579 -0.0446  0.3058
  354MOL0     O46626   0.473   7.665   3.452  0.0154 -0.7186 -0.1798
  354MOL0     C46627   0.351   7.712   3.398  0.2120 -0.4481 -0.5148
  354MOL0     C46628   0.323   7.707   3.263 -0.5804 -0.6210  0.2458
  354MOL0     C46629   0.200   7.736   3.214  1.2323  0.5578  0.2349
  354MOL0     C46630   0.098   7.773   3.296 -0.1177 -0.5589  0.0977
  354MOL0     O46631  -0.035   7.805   3.253 -0.0373 -0.1252  0.1333
  354MOL0     C46632  -0.137   7.763   3.344 -0.1900 -0.4776 -0.3684
  354MOL0     C46633  -0.265   7.722   3.276  1.1163 -0.1148  0.0973
  354MOL0     C46634  -0.338   7.841   3.230  0.8651  0.8070 -0.6262
  354MOL0     C46635  -0.462   7.797   3.154 -0.2378  0.7144  0.4429
  354MOL0     C46636  -0.544   7.917   3.095 -0.3435 -0.4265 -0.0836
  354MOL0     C46637  -0.686   7.863   3.080  0.6230 -0.5177  0.3818
  354MOL0     C46638  -0.771   7.980   3.036  0.1109  1.0649  0.1863
  354MOL0     C46639  -0.921   7.960   3.064 -0.3263 -0.1854  1.1494
  354MOL0    Cl46640  -0.951   7.968   3.245 -0.4253 -0.1625  0.3949
  354MOL0     C46641   0.128   7.782   3.431 -0.1403 -1.3053 -0.6649
  354MOL0     C46642   0.245   7.742   3.481 -0.5793 -0.2673 -0.7569
  354MOL0     O46643   0.408   7.443   3.449 -0.3756 -0.1882 -0.1387
  354MOL0     C46644   0.662   7.356   3.509 -0.0520 -0.0358  0.2074
  354MOL0     C46645   0.784   7.318   3.556  0.0830  0.7220 -0.6109
  354MOL0     N46646   1.437   7.408   3.475 -0.3871  0.4215 -0.8736
  354MOL0     N46647   1.567   7.409   3.494  0.3593  0.3195 -0.0035
  354MOL0     C46648   2.741   6.922   3.823  0.0763  0.6473 -0.3533
  354MOL0     C46649   2.868   6.978   3.835  0.8342  0.0881  0.3536
  354MOL0     C46650   3.234   7.207   3.866  0.0281  0.5720 -0.2411
  354MOL0     C46651   3.350   7.245   3.934  0.4938 -0.0284 -0.0707
  354MOL0     C46652   3.464   7.297   3.876  0.5747 -0.1356  0.2600
  354MOL0     C46653   3.471   7.308   3.738  0.3751  0.0916 -0.1592
  354MOL0     O46654   3.567   7.354   3.661 -0.7146 -0.0181 -0.0294
  354MOL0     C46655   3.700   7.354   3.719  0.0625  0.4561  0.3430
  354MOL0     C46656   3.804   7.403   3.621 -1.2325 -0.5948 -0.0152
  354MOL0     C46657   3.782   7.554   3.597  0.2225  0.1698  0.3396
  354MOL0     C46658   3.810   7.652   3.710 -0.0739  0.3164 -0.8122
  354MOL0     C46659   3.786   7.788   3.672  0.2834 -1.2279  0.5397
  354MOL0     C46660   3.784   7.898   3.625 -0.0838 -0.7348 -0.4706
  354MOL0     C46661   3.359   7.277   3.658 -0.2310  0.2878 -0.0357
  354MOL0     C46662   3.241   7.226   3.724 -0.4968 -0.0201 -0.3656
  354MOL0     H46663   2.774   7.274   3.944 -1.5999 -0.2098 -0.3766
  354MOL0     H46664   2.549   7.166   3.935 -0.7334 -0.4085  0.1951
  354MOL0     H46665   2.352   7.054   3.887 -0.6107 -0.3067  0.2349
  354MOL0     H46666   2.301   6.901   3.883 -1.7574  0.4983 -1.4639
  354MOL0     H46667   2.378   6.870   3.653 -3.4615  0.8187 -3.3704
  354MOL0     H46668   2.453   7.039   3.662  1.0787 -0.6966  1.4204
  354MOL0     H46669   2.256   7.081   3.541 -0.5357 -1.5828 -0.4735
  354MOL0     H46670   2.212   7.119   3.708  1.3287  0.2313  0.7830
  354MOL0     H46671   2.165   6.841   3.606  0.5493  0.1932  1.9870
  354MOL0     H46672   2.079   6.914   3.728 -1.3341  3.4007  1.3302
  354MOL0     H46673   1.953   6.902   3.508  0.4547  0.3152 -4.3384
  354MOL0     H46674   2.058   7.006   3.428 -0.5766 -0.2476 -0.3262
  354MOL0     H46675   2.012   7.200   3.538  0.2523  0.6115 -0.7502
  354MOL0     H46676   1.952   7.105   3.689  1.9216 -1.0600 -0.0063
  354MOL0     H46677   1.813   7.125   3.425  0.4558  1.9922 -0.2051
  354MOL0     H46678   1.748   7.055   3.571 -0.4518 -0.7481 -2.5357
  354MOL0     H46679   1.824   7.347   3.529  0.4001  0.0616 -1.1397
  354MOL0     H46680   1.748   7.284   3.680 -0.8953  1.9292  0.1672
  354MOL0     H46681   1.516   7.087   3.514 -1.3684  0.5741 -1.8226
  354MOL0     H46682   1.265   7.146   3.399  2.8002 -1.1433  0.6891
  354MOL0     H46683   1.198   7.299   3.422  0.5228 -0.9818 -0.3361
  354MOL0     H46684   1.262   7.103   3.649 -0.1523  0.0307  0.3969
  354MOL0     H46685   1.104   7.143   3.594  0.9904  0.5530  1.5178
  354MOL0     H46686   1.194   7.270   3.808  3.0548  1.2646  0.1613
  354MOL0     H46687   1.291   7.358   3.710  0.1555  0.8416 -1.5367
  354MOL0     H46688   1.098   7.431   3.557  1.5204 -1.8204 -0.3673
  354MOL0     H46689   1.099   7.491   3.715  0.3565  0.4730 -0.7334
  354MOL0     H46690   0.881   7.610   3.699 -0.8159 -1.1055  3.6581
  354MOL0     H46691   0.667   7.676   3.615  2.3981  0.5651 -0.3634
  354MOL0     H46692   0.408   7.681   3.201  0.2755  0.2337  1.0320
  354MOL0     H46693   0.191   7.725   3.107 -1.6884  1.4556  0.3024
  354MOL0     H46694  -0.157   7.847   3.412  1.2519 -1.7960  1.8271
  354MOL0     H46695  -0.107   7.678   3.407  0.8292  0.0498 -0.1209
  354MOL0     H46696  -0.319   7.656   3.344  2.4557 -2.4286 -0.9868
  354MOL0     H46697  -0.229   7.668   3.189  0.2679  1.0807 -1.0295
  354MOL0     H46698  -0.284   7.906   3.161  1.7854 -0.6163 -1.2816
  354MOL0     H46699  -0.369   7.901   3.317  3.5550  2.2273 -0.5350
  354MOL0     H46700  -0.438   7.716   3.086  2.4528  0.6193  1.3910
  354MOL0     H46701  -0.524   7.747   3.228 -1.1916 -1.0826 -1.4777
  354MOL0     H46702  -0.488   7.942   3.004 -0.3069 -1.4463 -0.3502
  354MOL0     H46703  -0.537   8.006   3.159  2.5445  2.6076 -4.1202
  354MOL0     H46704  -0.719   7.844   3.183 -1.2421  0.9029  0.1028
  354MOL0     H46705  -0.705   7.772   3.022 -0.3899  0.0354 -0.1854
  354MOL0     H46706  -0.748   8.067   3.098 -1.2608 -0.6439  3.3749
  354MOL0     H46707  -0.759   8.004   2.930  0.4797  1.2330  0.2669
  354MOL0     H46708  -0.953   7.866   3.018  3.1393 -0.5035 -0.9827
  354MOL0     H46709  -0.977   8.045   3.026 -1.5116 -0.1350  2.9130
  354MOL0     H46710   0.056   7.825   3.500  0.5327  0.9470 -1.2882
  354MOL0     H46711   0.266   7.742   3.587 -3.2780 -2.3750 -0.1180
  354MOL0     H46712   0.592   7.292   3.457 -2.0967  2.3634 -0.2125
  354MOL0     H46713   0.817   7.216   3.538 -1.5744 -0.1590  0.9738
  354MOL0     H46714   2.719   6.828   3.774  0.1541  1.0291 -1.1421
  354MOL0     H46715   2.952   6.915   3.805 -0.5573 -0.9498 -1.5623
  354MOL0     H46716   3.346   7.253   4.042 -1.5912  0.1756 -0.1234
  354MOL0     H46717   3.549   7.336   3.931 -0.0758  1.1164  0.4281
  354MOL0     H46718   3.728   7.255   3.756 -1.3469 -0.3905 -0.7235
  354MOL0     H46719   3.700   7.417   3.808 -0.7092 -0.2629  0.8727
  354MOL0     H46720   3.903   7.377   3.660 -1.4169  0.3965  1.1960
  354MOL0     H46721   3.803   7.343   3.530  0.7381  0.4379 -0.7659
  354MOL0     H46722   3.682   7.581   3.562  0.6788  2.7146  0.8265
  354MOL0     H46723   3.849   7.582   3.515  0.0923 -2.0687 -0.5992
  354MOL0     H46724   3.758   7.617   3.800  0.9475 -2.0292 -1.0591
  354MOL0     H46725   3.912   7.643   3.748 -0.7763 -0.2563  1.0375
  354MOL0     H46726   3.767   7.988   3.570  3.0963  0.0702 -0.3145
  354MOL0     H46727   3.369   7.280   3.550  2.1404 -0.0972  0.1246
  354MOL0     H46728   3.158   7.198   3.660 -0.3211  2.7921 -1.9953
  355MOL0     O46729   5.703   9.884   1.287  0.2498 -0.0743 -0.6299
  355MOL0     C46730   5.757   9.968   1.358 -0.1345  0.6778  0.0315
  355MOL0     O46731   5.733   9.990   1.489  0.3476 -0.3626 -0.5758
  355MOL0     C46732   5.631   9.924   1.557 -1.1074 -0.6762  0.6212
  355MOL0     C46733   5.500   9.925   1.509  0.0061  0.3619 -0.9797
  355MOL0     C46734   5.402   9.872   1.589  0.8418 -0.1221 -0.8017
  355MOL0     C46735   5.424   9.834   1.718  0.5805 -0.0918  0.8591
  355MOL0     O46736   5.322   9.790   1.802 -0.3121 -0.6361  0.2986
  355MOL0     C46737   5.187   9.806   1.752 -0.2135  0.4971 -0.1405
  355MOL0     C46738   5.092   9.783   1.872 -0.0350 -0.2271  0.3191
  355MOL0     C46739   4.954   9.820   1.834  0.0888  0.7268 -0.2591
  355MOL0     C46740   4.842   9.770   1.927  0.5135 -0.4046 -0.0565
  355MOL0     C46741   4.705   9.798   1.854  0.3389  0.5084  0.0728
  355MOL0     C46742   4.594   9.746   1.949  0.0273  0.3339  0.2824
  355MOL0     C46743   4.456   9.747   1.884  0.2275 -0.0621  0.7629
  355MOL0     C46744   4.357   9.677   1.981  0.3852  0.2891  1.3666
  355MOL0     N46745   4.368   9.533   1.993  0.5909 -0.6281 -0.6243
  355MOL0     C46746   4.376   9.431   1.901  0.0240 -0.8320 -0.1699
  355MOL0     C46747   4.398   9.313   1.967  0.7139 -0.7652 -0.2721
  355MOL0     C46748   4.419   9.170   1.912  0.0648 -0.3197  0.4154
  355MOL0     C46749   4.287   9.099   1.916  0.0788 -0.4583 -0.1533
  355MOL0     C46750   4.303   8.949   1.877  0.5059 -0.4299  0.1977
  355MOL0     C46751   4.160   8.894   1.859  0.7223 -0.1561  0.0233
  355MOL0     O46752   4.189   8.769   1.807 -0.4363 -0.3576 -0.1490
  355MOL0     C46753   4.075   8.692   1.789 -0.2702 -0.0782  0.4013
  355MOL0     C46754   4.011   8.644   1.888  0.3941  0.1523 -1.5330
  355MOL0     C46755   3.897   8.559   1.871 -1.1168  0.2248  0.4700
  355MOL0     C46756   3.838   8.538   1.743 -0.5062 -0.9233 -0.6039
  355MOL0     C46757   3.734   8.440   1.723 -0.3458 -0.4007 -0.9992
  355MOL0     O46758   3.693   8.369   1.837  0.8865 -1.3348 -0.7015
  355MOL0     C46759   3.596   8.280   1.803 -0.4910 -0.1210  0.0390
  355MOL0     C46760   3.619   8.171   1.718  0.0912 -0.1486  0.9217
  355MOL0     C46761   3.514   8.091   1.679  1.2294  0.0179 -0.4865
  355MOL0     C46762   3.386   8.114   1.734 -0.1341  1.0391 -0.1702
  355MOL0     O46763   3.294   8.018   1.704  0.4794  0.1348  0.0629
  355MOL0     C46764   3.153   8.047   1.727  0.6081 -0.8947  1.2063
  355MOL0     C46765   3.080   7.939   1.636  0.2448  0.1128  0.4235
  355MOL0     C46766   2.931   7.951   1.619  0.1029  0.2070 -0.1988
  355MOL0     C46767   2.886   7.827   1.537  0.6149  0.0688  0.1861
  355MOL0     C46768   2.782   7.861   1.427  0.9291  0.7408  0.1966
  355MOL0     C46769   2.748   7.740   1.349 -0.2136 -0.6236 -0.3047
  355MOL0     C46770   2.654   7.773   1.230 -0.2963  0.1889  0.4564
  355MOL0     C46771   2.647   7.659   1.129 -0.8040  1.1303  0.1205
  355MOL0    Cl46772   2.804   7.599   1.064  0.0053 -0.3581 -0.0141
  355MOL0     C46773   3.364   8.220   1.822 -0.1429 -0.1511  0.4227
  355MOL0     C46774   3.468   8.301   1.857  1.1052  0.0663 -0.1347
  355MOL0     O46775   3.678   8.438   1.611 -0.1825 -0.7496  0.8247
  355MOL0     C46776   3.904   8.602   1.635  0.3246 -0.3673 -0.6927
  355MOL0     C46777   4.024   8.676   1.655  0.1418  0.1250  0.2256
  355MOL0     N46778   4.428   9.343   2.096  0.1010  0.0485  0.1694
  355MOL0     N46779   4.413   9.474   2.104  0.0980  0.8823 -0.1430
  355MOL0     C46780   5.549   9.854   1.773 -0.1489  0.3775 -1.0221
  355MOL0     C46781   5.646   9.907   1.699 -0.1375 -0.5659  0.7732
  355MOL0     C46782   5.859  10.046   1.290  0.8031 -0.0814 -0.2190
  355MOL0     C46783   5.954  10.116   1.368 -0.6099 -0.3784 -0.1419
  355MOL0     C46784   6.047  10.203   1.308  0.6958  0.9305 -0.4783
  355MOL0     C46785   6.049  10.216   1.170 -0.0185  0.3671 -0.2724
  355MOL0     O46786   6.141  10.301   1.110  0.4813  0.3488 -0.2828
  355MOL0     C46787   6.187  10.297   0.977  1.0943 -0.2026  0.3134
  355MOL0     C46788   6.322  10.359   0.973  0.4964  0.2061  0.7286
  355MOL0     C46789   6.372  10.417   0.838  0.1647  0.1940 -0.1892
  355MOL0     C46790   6.425  10.319   0.738  0.3235 -1.0867 -0.1356
  355MOL0     C46791   6.478  10.399   0.628  0.4629 -0.4882 -0.4247
  355MOL0     C46792   6.520  10.474   0.542 -0.7403 -0.9103  0.9648
  355MOL0     C46793   5.953  10.146   1.088 -0.7709  0.3367 -0.0659
  355MOL0     C46794   5.867  10.060   1.149 -0.2295  0.2783  0.2896
  355MOL0     H46795   5.473   9.959   1.409 -1.0653  1.7660 -0.2587
  355MOL0     H46796   5.309   9.855   1.536  1.2900 -1.3609 -1.2343
  355MOL0     H46797   5.168   9.725   1.681 -3.3016  0.2953  0.7660
  355MOL0     H46798   5.165   9.900   1.701 -1.7888  0.3519  0.2449
  355MOL0     H46799   5.116   9.850   1.955 -0.0143 -0.2381  0.3220
  355MOL0     H46800   5.104   9.684   1.917  0.0125  1.3120  4.0368
  355MOL0     H46801   4.938   9.759   1.744 -1.0476 -0.3027  0.5919
  355MOL0     H46802   4.960   9.926   1.810  0.4962  1.1317  1.4994
  355MOL0     H46803   4.847   9.661   1.932 -0.6267 -0.5789 -1.6305
  355MOL0     H46804   4.855   9.813   2.026  1.6403  2.8369 -1.4766
  355MOL0     H46805   4.696   9.747   1.758 -0.2271 -0.4581  0.6205
  355MOL0     H46806   4.690   9.906   1.840 -1.3581  0.5078  1.4734
  355MOL0     H46807   4.589   9.806   2.040 -1.2529 -2.3917  2.1456
  355MOL0     H46808   4.621   9.643   1.976  1.1112  0.1234 -1.4247
  355MOL0     H46809   4.426   9.846   1.849  0.4682  0.1029  1.0163
  355MOL0     H46810   4.466   9.685   1.794  0.7955  0.9303  0.1294
  355MOL0     H46811   4.257   9.716   1.959 -0.2670 -1.2489  1.4813
  355MOL0     H46812   4.382   9.702   2.084  2.1276  0.9054  0.8373
  355MOL0     H46813   4.364   9.441   1.793 -1.3106  1.0274  0.0987
  355MOL0     H46814   4.494   9.112   1.967 -0.7067 -0.5282  1.2782
  355MOL0     H46815   4.449   9.180   1.808  2.2774 -1.9056  0.8331
  355MOL0     H46816   4.214   9.147   1.850 -1.1729 -1.8558  0.1744
  355MOL0     H46817   4.235   9.105   2.012 -2.6920  1.1095 -1.6384
  355MOL0     H46818   4.365   8.931   1.788  0.3761  1.6464 -0.3815
  355MOL0     H46819   4.339   8.900   1.967 -0.6591 -0.0060  0.9142
  355MOL0     H46820   4.100   8.955   1.791 -2.1524 -4.1363 -1.3595
  355MOL0     H46821   4.107   8.890   1.955  1.9468 -1.6070  0.6976
  355MOL0     H46822   4.058   8.653   1.986  1.6512  1.2473 -2.1975
  355MOL0     H46823   3.864   8.507   1.961  1.4298 -2.6438 -0.0893
  355MOL0     H46824   3.710   8.129   1.677 -2.5308 -4.8717 -0.9712
  355MOL0     H46825   3.530   8.002   1.619 -3.7169 -0.1802 -1.9003
  355MOL0     H46826   3.130   8.142   1.679  1.0284 -1.0572  0.6792
  355MOL0     H46827   3.121   8.033   1.831 -2.6144  1.7700  0.7544
  355MOL0     H46828   3.103   7.836   1.665  1.2315  0.1470 -0.1812
  355MOL0     H46829   3.136   7.952   1.543  1.8005 -1.5610  1.0378
  355MOL0     H46830   2.902   8.044   1.569  0.6655 -0.3765 -1.6559
  355MOL0     H46831   2.887   7.955   1.719  0.6125  0.8031  0.0044
  355MOL0     H46832   2.973   7.784   1.486  0.8479  3.3443 -2.5504
  355MOL0     H46833   2.841   7.755   1.606  1.0679 -0.9216 -0.5272
  355MOL0     H46834   2.823   7.948   1.374  0.3373  0.4261 -0.7937
  355MOL0     H46835   2.688   7.893   1.473 -0.4678 -0.9708 -1.3027
  355MOL0     H46836   2.713   7.658   1.412  1.9865 -3.6957 -2.7318
  355MOL0     H46837   2.846   7.709   1.310  0.1215 -0.1373  0.1405
  355MOL0     H46838   2.551   7.776   1.268 -1.1229  0.9196 -1.6650
  355MOL0     H46839   2.695   7.867   1.192 -2.9372  1.5485  0.7154
  355MOL0     H46840   2.588   7.690   1.043 -3.2316 -2.0522  0.4975
  355MOL0     H46841   2.601   7.571   1.175  1.0681  0.7781  1.4965
  355MOL0     H46842   3.262   8.249   1.847 -0.0464  3.1142 -2.2467
  355MOL0     H46843   3.439   8.387   1.918 -2.1603  1.4202 -3.2201
  355MOL0     H46844   3.866   8.596   1.534 -0.6661 -2.4803 -0.2581
  355MOL0     H46845   4.077   8.710   1.566  1.4539 -1.2427  0.4328
  355MOL0     H46846   5.562   9.846   1.880 -0.2558 -2.4096 -1.1512
  355MOL0     H46847   5.740   9.936   1.745  0.6306 -0.3785 -0.8294
  355MOL0     H46848   5.963  10.096   1.474  0.1145  2.6630  0.4698
  355MOL0     H46849   6.129  10.246   1.366 -0.5254  0.9678  1.3161
  355MOL0     H46850   6.119  10.345   0.906  0.2336 -0.4517  0.9442
  355MOL0     H46851   6.187  10.195   0.936  0.7741  0.1922 -0.7029
  355MOL0     H46852   6.316  10.438   1.049  0.3863 -0.2029  1.1505
  355MOL0     H46853   6.389  10.283   1.015 -0.9773 -1.9866 -0.6974
  355MOL0     H46854   6.447  10.495   0.855  0.3328  0.6262 -2.5196
  355MOL0     H46855   6.282  10.467   0.801 -1.5268 -1.3926  1.5678
  355MOL0     H46856   6.508  10.265   0.784  0.8399 -0.4867 -0.3434
  355MOL0     H46857   6.342  10.259   0.699  1.0933 -0.5791 -2.7778
  355MOL0     H46858   6.567  10.511   0.452 -0.3284 -0.8424  1.2038
  355MOL0     H46859   5.948  10.170   0.982 -0.3807 -0.7143 -0.3356
  355MOL0     H46860   5.795  10.004   1.091 -1.3692  0.5914  1.3455
  356MOL0     O46861   8.152   9.754  10.162  0.4283  0.5159 -0.3364
  356MOL0     C46862   8.157   9.740  10.038  0.0677 -0.4001 -0.1626
  356MOL0     O46863   8.066   9.780   9.949  0.3161  0.1366 -0.2739
  356MOL0     C46864   7.943   9.806  10.001  1.2836 -0.1511  0.0792
  356MOL0     C46865   7.884   9.937   9.989  0.0976 -0.3039  0.3871
  356MOL0     C46866   7.748   9.957  10.028  0.6709  0.3492 -0.8009
  356MOL0     C46867   7.663   9.856  10.062  0.7263 -0.2464  0.3212
  356MOL0     O46868   7.528   9.889  10.092 -0.7677 -0.2589  0.1994
  356MOL0     C46869   7.430   9.796  10.115  0.0337  0.1944 -0.5049
  356MOL0     C46870   7.302   9.872  10.104 -0.3659 -0.0582 -0.2197
  356MOL0     C46871   7.285  10.003  10.180 -0.2549  0.3729 -0.3414
  356MOL0     C46872   7.156  10.069  10.133  0.3333  0.6659  0.7648
  356MOL0     C46873   7.099  10.182  10.213  0.5182 -0.8469 -0.0210
  356MOL0     C46874   6.975  10.252  10.165  0.4727  0.0817 -0.2550
  356MOL0     C46875   6.915  10.345  10.270 -0.0332  0.3969  0.3686
  356MOL0     C46876   7.000  10.480  10.285 -0.3284  0.9528 -0.4660
  356MOL0     N46877   6.923  10.583  10.357 -0.5372  0.0687  0.7475
  356MOL0     C46878   6.844  10.551  10.475  0.1104  0.3582  0.5475
  356MOL0     C46879   6.756  10.652  10.474  0.4432 -1.3862 -0.5916
  356MOL0     C46880   6.642  10.673  10.574 -1.5497 -0.2367  0.1386
  356MOL0     C46881   6.695  10.778  10.676  0.2591  0.6543 -0.0404
  356MOL0     C46882   6.593  10.810  10.780  0.0696  0.2490 -0.1230
  356MOL0     C46883   6.654  10.914  10.868  0.1492  0.3758 -0.8694
  356MOL0     O46884   6.614  10.887  10.999 -0.0758 -0.3274  0.0638
  356MOL0     C46885   6.476  10.895  11.022 -0.1517 -0.0059 -0.2818
  356MOL0     C46886   6.402  11.011  11.003 -0.1907 -0.0360 -0.6217
  356MOL0     C46887   6.271  11.018  11.038  1.0190 -0.1850 -0.4100
  356MOL0     C46888   6.206  10.902  11.087 -0.5843 -0.3205 -0.4474
  356MOL0     C46889   6.067  10.905  11.143  0.6535  1.1906  0.2708
  356MOL0     O46890   6.005  10.783  11.150 -0.7388  0.2978  0.1435
  356MOL0     C46891   5.873  10.788  11.174  0.6015  0.3762  0.8305
  356MOL0     C46892   5.832  10.812  11.307  0.5113  0.4499  1.2833
  356MOL0     C46893   5.693  10.792  11.336 -1.1305 -0.1768 -0.3632
  356MOL0     C46894   5.602  10.765  11.228 -0.9579  0.0305  0.8234
  356MOL0     O46895   5.467  10.755  11.255  0.2847 -0.3705 -0.3108
  356MOL0     C46896   5.417  10.626  11.226  0.9360 -0.9682 -0.2668
  356MOL0     C46897   5.303  10.582  11.314 -0.0127  0.2285  0.0733
  356MOL0     C46898   5.174  10.660  11.282  0.1550  1.0852 -0.2346
  356MOL0     C46899   5.052  10.595  11.348 -0.2645  0.6066  0.2162
  356MOL0     C46900   4.927  10.659  11.305  0.4977  0.2749  0.0776
  356MOL0     C46901   4.865  10.770  11.395 -0.1778  0.4976 -0.0290
  356MOL0     C46902   4.720  10.796  11.356  0.1533  0.3370 -1.1031
  356MOL0     C46903   4.717  10.889  11.235 -0.4426 -0.4783 -0.0897
  356MOL0    Cl46904   4.552  10.923  11.182 -0.0923 -0.3263  0.0021
  356MOL0     C46905   5.651  10.752  11.093  0.1388 -0.8712 -0.4705
  356MOL0     C46906   5.786  10.757  11.064 -0.2017  0.1811  0.0183
  356MOL0     O46907   6.013  11.011  11.180  0.3679 -0.2909 -0.1814
  356MOL0     C46908   6.282  10.784  11.105  0.3017  0.4738 -0.0808
  356MOL0     C46909   6.415  10.781  11.078 -0.1192  0.1590  0.7351
  356MOL0     N46910   6.790  10.747  10.381 -0.7020  0.1911  0.1331
  356MOL0     N46911   6.887  10.710  10.314 -0.0695  0.4038 -0.0406
  356MOL0     C46912   7.713   9.728  10.057  0.0178 -0.6055  0.2321
  356MOL0     C46913   7.855   9.701  10.028 -0.0571 -0.3021 -0.2038
  356MOL0     C46914   8.276   9.669   9.998 -0.3802 -0.5378  0.6490
  356MOL0     C46915   8.305   9.658   9.857  0.1841  0.8088  0.4189
  356MOL0     C46916   8.414   9.579   9.819  0.2989 -1.2737  0.9747
  356MOL0     C46917   8.505   9.521   9.917  0.3997 -0.6697  0.1006
  356MOL0     O46918   8.624   9.457   9.885 -0.5203 -0.3646  0.0562
  356MOL0     C46919   8.673   9.482   9.758 -0.3210 -0.3664  0.3542
  356MOL0     C46920   8.735   9.621   9.773 -0.4805 -0.3750  0.3133
  356MOL0     C46921   8.882   9.610   9.752 -0.2327 -0.1683  0.1316
  356MOL0     C46922   8.942   9.749   9.737 -0.4461  1.0179  0.5514
  356MOL0     C46923   8.910   9.791   9.600  0.0417  0.5436 -0.4834
  356MOL0     C46924   8.908   9.812   9.483 -0.2604  0.0666 -0.3126
  356MOL0     C46925   8.469   9.528  10.052  0.1368  0.2552 -0.1206
  356MOL0     C46926   8.356   9.607  10.092 -0.2936 -0.1569 -0.1359
  356MOL0     H46927   7.941  10.014   9.939 -1.1181  0.5021  0.1975
  356MOL0     H46928   7.694  10.051  10.034 -2.0497 -1.1471  2.9001
  356MOL0     H46929   7.432   9.743  10.210 -1.9162 -2.3778 -1.7793
  356MOL0     H46930   7.420   9.720  10.037 -0.5552  0.9147 -1.1569
  356MOL0     H46931   7.216   9.808  10.126  0.8741 -1.4492  0.7913
  356MOL0     H46932   7.301   9.888   9.995 -0.6391  0.8216 -0.0947
  356MOL0     H46933   7.370  10.072  10.172  0.0129  0.0336 -0.4672
  356MOL0     H46934   7.287   9.983  10.288  2.3779  0.8119 -0.2304
  356MOL0     H46935   7.177  10.105  10.032  3.2102  2.2704  1.8091
  356MOL0     H46936   7.077   9.994  10.141  0.4140  0.6870  1.8064
  356MOL0     H46937   7.181  10.253  10.226  0.9434 -1.4094  0.4209
  356MOL0     H46938   7.078  10.133  10.309  1.8110 -1.4941 -0.0525
  356MOL0     H46939   6.899  10.177  10.138  1.8320 -0.9484 -1.4197
  356MOL0     H46940   7.001  10.299  10.069  1.2698  1.0492  0.4237
  356MOL0     H46941   6.821  10.381  10.227  0.4875  0.4341 -0.7838
  356MOL0     H46942   6.895  10.296  10.365  0.8780 -1.6910 -0.4417
  356MOL0     H46943   7.035  10.519  10.188  1.1652  0.9216  0.0347
  356MOL0     H46944   7.094  10.466  10.339  0.6305  2.0730 -1.7554
  356MOL0     H46945   6.853  10.464  10.539 -1.9236 -0.0719  0.3081
  356MOL0     H46946   6.622  10.580  10.628  1.4564 -1.0116  0.1053
  356MOL0     H46947   6.561  10.715  10.513 -0.3699 -2.4138 -3.2398
  356MOL0     H46948   6.721  10.874  10.630 -2.5876  1.3558 -0.4284
  356MOL0     H46949   6.784  10.752  10.733 -1.1868  0.3005  2.1534
  356MOL0     H46950   6.506  10.844  10.723 -4.0755 -5.2326  2.0065
  356MOL0     H46951   6.564  10.716  10.828 -2.6101  0.9853 -0.1197
  356MOL0     H46952   6.611  11.012  10.849 -1.2075 -0.1489 -0.6270
  356MOL0     H46953   6.763  10.908  10.877  0.0268  0.9501  5.5069
  356MOL0     H46954   6.465  11.093  10.969 -0.2149  0.9826  1.6187
  356MOL0     H46955   6.210  11.108  11.035  2.7826  1.1641  1.4126
  356MOL0     H46956   5.904  10.852  11.377  3.7008 -4.4718  1.3081
  356MOL0     H46957   5.662  10.820  11.436 -0.0070 -1.8971  0.5250
  356MOL0     H46958   5.502  10.558  11.239  1.5994 -0.1688 -0.2678
  356MOL0     H46959   5.384  10.632  11.122 -0.0868 -1.3385  0.0282
  356MOL0     H46960   5.331  10.610  11.416 -0.1959  3.6441 -0.6932
  356MOL0     H46961   5.284  10.474  11.311 -1.7799  0.4427 -4.4196
  356MOL0     H46962   5.165  10.651  11.174  1.0704 -1.3697 -0.1846
  356MOL0     H46963   5.169  10.764  11.314  1.1543  1.6837 -1.9410
  356MOL0     H46964   5.038  10.493  11.311  2.0479  1.0208 -2.0392
  356MOL0     H46965   5.047  10.597  11.457  0.6239  3.9646  0.3069
  356MOL0     H46966   4.850  10.581  11.299  1.2980 -0.3960 -3.0348
  356MOL0     H46967   4.946  10.684  11.201 -2.6350 -5.9393 -2.5502
  356MOL0     H46968   4.935  10.854  11.402  1.2910 -0.7558  1.2239
  356MOL0     H46969   4.863  10.738  11.499 -0.5319 -0.0937 -0.2151
  356MOL0     H46970   4.665  10.704  11.337  1.5791 -1.2829  1.9045
  356MOL0     H46971   4.668  10.849  11.436 -1.5302  0.4699 -2.2294
  356MOL0     H46972   4.779  10.841  11.159  3.2493  1.0201  1.7106
  356MOL0     H46973   4.754  10.988  11.263 -1.6779 -0.0529  0.1084
  356MOL0     H46974   5.573  10.749  11.018  0.3474 -0.1145 -0.7273
  356MOL0     H46975   5.822  10.738  10.964  1.3970  3.4290 -0.1404
  356MOL0     H46976   6.230  10.700  11.151 -1.2513  2.1439  1.3515
  356MOL0     H46977   6.481  10.696  11.094  1.3058  1.1810  0.4704
  356MOL0     H46978   7.655   9.640  10.084  2.0447 -2.1073 -0.0484
  356MOL0     H46979   7.899   9.603  10.032  0.5094 -0.0223  0.9098
  356MOL0     H46980   8.237   9.701   9.785 -0.0104  1.5253  1.0137
  356MOL0     H46981   8.427   9.561   9.712 -2.8565  1.0572  0.0659
  356MOL0     H46982   8.597   9.467   9.680 -1.6948 -2.8867  2.0400
  356MOL0     H46983   8.752   9.411   9.734  0.3243  0.0213  1.2862
  356MOL0     H46984   8.689   9.680   9.693 -0.1382  0.4552  0.7175
  356MOL0     H46985   8.708   9.670   9.867  1.5288 -0.0369  0.7612
  356MOL0     H46986   8.897   9.562   9.655  1.2665  1.2758 -0.4034
  356MOL0     H46987   8.932   9.547   9.826 -0.3857  0.1541  0.5083
  356MOL0     H46988   8.897   9.804   9.821  0.6209 -4.1032  5.0425
  356MOL0     H46989   9.051   9.744   9.732 -0.1337  3.8496  2.0768
  356MOL0     H46990   8.911   9.815   9.376  3.2442 -2.1329 -0.4386
  356MOL0     H46991   8.542   9.478  10.116 -3.4994 -4.2115  1.0750
  356MOL0     H46992   8.336   9.627  10.197 -2.3221  1.8021 -0.8319
  357MOL0     O46993   4.809   6.108   0.263  0.6755  0.0644 -0.2566
  357MOL0     C46994   4.819   5.992   0.271 -0.1166  0.7148 -0.5984
  357MOL0     O46995   4.721   5.896   0.321 -0.5425  0.7612  1.1139
  357MOL0     C46996   4.604   5.928   0.377  0.3206  0.2476 -0.2765
  357MOL0     C46997   4.594   6.016   0.490  0.6186 -0.5522  0.7271
  357MOL0     C46998   4.469   6.039   0.555 -0.6342  0.2805 -0.4762
  357MOL0     C46999   4.350   5.982   0.511 -0.1309 -0.0562  0.2145
  357MOL0     O47000   4.226   5.996   0.572 -0.5743 -0.7181  0.0577
  357MOL0     C47001   4.216   6.107   0.667  0.1137  0.1799 -0.2228
  357MOL0     C47002   4.066   6.149   0.678  1.3137 -0.2795  0.4408
  357MOL0     C47003   3.970   6.045   0.740 -0.3196 -1.3516 -0.3221
  357MOL0     C47004   3.841   6.111   0.800 -1.0554 -0.1563  0.5398
  357MOL0     C47005   3.731   6.021   0.835 -0.7975  0.7574 -0.3989
  357MOL0     C47006   3.624   6.125   0.883  0.6329  0.5390 -0.3540
  357MOL0     C47007   3.513   6.045   0.950  0.1266 -0.6857  0.0835
  357MOL0     C47008   3.452   6.142   1.059 -0.3297  0.2012  0.7766
  357MOL0     N47009   3.337   6.071   1.122  0.1991 -0.2347  0.5410
  357MOL0     C47010   3.350   5.979   1.232 -0.4687  0.0595  0.9508
  357MOL0     C47011   3.228   5.934   1.247  0.3515 -0.2828  0.9872
  357MOL0     C47012   3.183   5.818   1.332  1.0359 -0.2666 -0.2530
  357MOL0     C47013   3.067   5.852   1.427  0.7595 -0.6884  0.2532
  357MOL0     C47014   2.973   5.732   1.443 -0.1950  0.0629  0.6320
  357MOL0     C47015   2.874   5.770   1.552  0.8355  0.5165 -0.2716
  357MOL0     O47016   2.816   5.647   1.605 -0.2390 -0.4601 -0.5746
  357MOL0     C47017   2.713   5.670   1.700  0.3040 -0.0176  0.6612
  357MOL0     C47018   2.646   5.555   1.736 -0.0296  0.9158 -0.7342
  357MOL0     C47019   2.535   5.547   1.815  0.2125 -0.0904 -0.2798
  357MOL0     C47020   2.487   5.656   1.877  0.5759 -0.4385 -0.1299
  357MOL0     C47021   2.369   5.665   1.976  0.0246  0.1604  0.6802
  357MOL0     O47022   2.325   5.529   1.997 -0.0589 -0.4630  0.7774
  357MOL0     C47023   2.215   5.502   2.068  0.4157 -1.5499 -1.2035
  357MOL0     C47024   2.207   5.364   2.087  0.3196 -0.3102  0.8579
  357MOL0     C47025   2.092   5.308   2.157 -0.9848 -0.6495 -0.7535
  357MOL0     C47026   1.998   5.390   2.209 -0.1440  0.2409 -0.4624
  357MOL0     O47027   1.876   5.341   2.262 -0.5019  0.6021  0.1666
  357MOL0     C47028   1.826   5.207   2.227 -0.5336  0.3264  0.6932
  357MOL0     C47029   1.695   5.179   2.313 -1.0744 -0.8755  0.8686
  357MOL0     C47030   1.664   5.032   2.320 -0.5329  0.1577 -0.0146
  357MOL0     C47031   1.540   4.991   2.398 -0.0139  0.1427  0.3220
  357MOL0     C47032   1.513   4.841   2.382  0.3440  0.3360 -0.3029
  357MOL0     C47033   1.366   4.804   2.422  0.0248  0.0408 -0.4777
  357MOL0     C47034   1.357   4.782   2.572 -0.5736  0.1714 -0.2220
  357MOL0     C47035   1.250   4.687   2.601  0.3530 -0.2531 -0.0128
  357MOL0    Cl47036   1.086   4.752   2.575 -0.2778  0.4679 -0.0314
  357MOL0     C47037   2.020   5.526   2.203 -0.4004 -0.0851 -0.1012
  357MOL0     C47038   2.129   5.586   2.133  0.8131 -1.4134  0.3890
  357MOL0     O47039   2.321   5.765   2.018  0.5699 -0.6543 -0.0710
  357MOL0     C47040   2.551   5.779   1.851  0.1954 -0.0362 -0.1649
  357MOL0     C47041   2.662   5.790   1.760  0.6647  1.3907 -0.0279
  357MOL0     N47042   3.143   5.994   1.151 -0.1000 -0.2894  0.1036
  357MOL0     N47043   3.207   6.084   1.081  0.0899 -0.4395  0.1542
  357MOL0     C47044   4.365   5.897   0.399  0.4165  0.0580 -0.0571
  357MOL0     C47045   4.485   5.862   0.337 -0.3179  0.6531  0.1536
  357MOL0     C47046   4.931   5.935   0.192 -0.2433  1.6414  0.5258
  357MOL0     C47047   5.046   6.014   0.173 -1.1250 -0.4884 -0.4013
  357MOL0     C47048   5.152   5.960   0.089  0.5877  0.0055  0.0335
  357MOL0     C47049   5.136   5.833   0.026  0.0346  1.4340 -0.0517
  357MOL0     O47050   5.228   5.772  -0.064  0.5070  0.3057  0.6210
  357MOL0     C47051   5.341   5.841  -0.106 -0.7923 -0.3163  0.6792
  357MOL0     C47052   5.422   5.738  -0.185  0.3099  0.3020 -0.3400
  357MOL0     C47053   5.562   5.784  -0.194  0.0559  0.3121  0.9369
  357MOL0     C47054   5.659   5.696  -0.279 -0.4936  0.7111 -0.1324
  357MOL0     C47055   5.797   5.726  -0.275 -0.3564 -0.5992  0.2338
  357MOL0     C47056   5.916   5.743  -0.278 -0.1333  0.3175 -0.2202
  357MOL0     C47057   5.017   5.768   0.038  0.9642  0.3597 -0.1509
  357MOL0     C47058   4.920   5.811   0.131 -0.1363 -0.3507  0.3412
  357MOL0     H47059   4.683   6.062   0.533 -0.2499  0.2132  1.7614
  357MOL0     H47060   4.457   6.105   0.640 -1.3186 -2.0572  1.3307
  357MOL0     H47061   4.268   6.196   0.631  2.0203 -1.3157 -1.4368
  357MOL0     H47062   4.262   6.073   0.760 -1.7939 -1.1598  0.2834
  357MOL0     H47063   4.018   6.164   0.581 -1.5882  1.3126  1.9708
  357MOL0     H47064   4.061   6.242   0.737  0.6226 -0.0654  0.0562
  357MOL0     H47065   4.034   5.993   0.812  2.4029  0.8026 -1.0295
  357MOL0     H47066   3.955   5.964   0.668 -1.6767  0.6038 -2.3589
  357MOL0     H47067   3.871   6.174   0.884  2.4456 -1.1454  0.2113
  357MOL0     H47068   3.798   6.173   0.721  3.2045  1.8976 -0.4958
  357MOL0     H47069   3.759   5.949   0.913 -1.0255  1.0654 -0.0227
  357MOL0     H47070   3.688   5.965   0.752 -0.0660 -1.1727  0.4400
  357MOL0     H47071   3.591   6.200   0.810  0.3115  2.7448  1.9230
  357MOL0     H47072   3.664   6.188   0.963 -0.8468 -1.3471  2.0155
  357MOL0     H47073   3.443   6.019   0.869  1.3909 -0.5657 -1.0809
  357MOL0     H47074   3.552   5.956   1.000  2.1146  0.5077  0.7711
  357MOL0     H47075   3.406   6.229   1.010  3.0536  1.7837  0.1510
  357MOL0     H47076   3.534   6.156   1.130  2.9336 -0.4642 -2.6056
  357MOL0     H47077   3.439   5.964   1.293  1.1324  1.2377 -0.9457
  357MOL0     H47078   3.260   5.790   1.404 -1.9976 -1.0587  2.9363
  357MOL0     H47079   3.152   5.729   1.277 -1.9569  1.9619 -2.5406
  357MOL0     H47080   3.011   5.937   1.389 -0.7208 -1.6327  0.2228
  357MOL0     H47081   3.108   5.882   1.524 -2.9049  0.8244  1.5352
  357MOL0     H47082   2.932   5.704   1.346  2.2576  1.5543 -0.9399
  357MOL0     H47083   3.032   5.645   1.474  1.6555  1.1344  0.2585
  357MOL0     H47084   2.789   5.822   1.508  0.9075  0.0216 -1.0208
  357MOL0     H47085   2.918   5.815   1.642 -0.1266  1.6415 -0.3519
  357MOL0     H47086   2.685   5.459   1.705 -0.0189  0.2532  1.2380
  357MOL0     H47087   2.496   5.448   1.838 -0.1623 -0.4786 -2.3121
  357MOL0     H47088   2.284   5.306   2.036  1.9350  1.0423  1.6697
  357MOL0     H47089   2.066   5.203   2.155 -3.0888 -0.1969  0.0223
  357MOL0     H47090   1.907   5.141   2.259  2.6222  3.4808 -0.1701
  357MOL0     H47091   1.801   5.192   2.122  1.7835  3.6076 -0.4988
  357MOL0     H47092   1.610   5.233   2.270  1.6851  1.5488 -2.0066
  357MOL0     H47093   1.707   5.205   2.418 -0.1250 -1.1977  0.8447
  357MOL0     H47094   1.751   4.996   2.375 -0.2537  0.1278 -0.4674
  357MOL0     H47095   1.660   4.999   2.216  0.5102  2.3297 -0.7962
  357MOL0     H47096   1.541   5.032   2.499 -0.7292  1.6791 -0.2612
  357MOL0     H47097   1.446   5.036   2.365  0.1991  0.0929 -0.3653
  357MOL0     H47098   1.579   4.781   2.445 -2.3249 -0.5924  1.8448
  357MOL0     H47099   1.521   4.797   2.283 -1.4427 -3.5561  1.0591
  357MOL0     H47100   1.336   4.712   2.371  1.3491 -2.3528  2.7611
  357MOL0     H47101   1.293   4.879   2.391  0.9074  2.2099  2.3104
  357MOL0     H47102   1.447   4.728   2.601 -1.4213 -0.5785  1.1216
  357MOL0     H47103   1.349   4.874   2.631 -0.5126 -0.6991  1.1636
  357MOL0     H47104   1.249   4.650   2.704 -0.2015 -0.9773 -0.2655
  357MOL0     H47105   1.267   4.595   2.543 -2.0831 -0.9384  0.2724
  357MOL0     H47106   1.948   5.590   2.253 -0.6945 -1.1070  0.8388
  357MOL0     H47107   2.127   5.694   2.140 -2.9074 -1.4096  1.5403
  357MOL0     H47108   2.511   5.870   1.895 -0.7122 -0.7168  0.4553
  357MOL0     H47109   2.697   5.887   1.725 -0.1903  0.4054 -4.2014
  357MOL0     H47110   4.275   5.840   0.376 -0.1573 -0.5283  3.1931
  357MOL0     H47111   4.485   5.789   0.257 -0.6936  1.5432 -0.6739
  357MOL0     H47112   5.057   6.117   0.203 -3.3812 -0.0500 -0.8753
  357MOL0     H47113   5.244   6.017   0.078  0.7014 -0.0545  0.6059
  357MOL0     H47114   5.395   5.879  -0.020 -0.0266  1.6379 -0.5992
  357MOL0     H47115   5.321   5.926  -0.172  2.3708  0.3804  0.4605
  357MOL0     H47116   5.433   5.635  -0.148  1.1739  1.1985  2.1255
  357MOL0     H47117   5.384   5.730  -0.287 -0.7834 -4.1678  0.1846
  357MOL0     H47118   5.602   5.797  -0.093  1.4382 -0.7161  0.5486
  357MOL0     H47119   5.569   5.879  -0.248 -0.3652  0.1300  0.5567
  357MOL0     H47120   5.651   5.594  -0.240  0.2072  0.2786 -1.0676
  357MOL0     H47121   5.644   5.687  -0.387  1.1623 -0.1498 -0.3225
  357MOL0     H47122   6.022   5.751  -0.281  0.3599 -3.9300 -1.1432
  357MOL0     H47123   4.995   5.683  -0.025 -0.9961  0.2742  0.5752
  357MOL0     H47124   4.832   5.752   0.155 -1.0523  0.6019 -0.5747
  358MOL0     O47125  10.173   4.053   2.257  0.3526  0.4231  0.1140
  358MOL0     C47126  10.226   3.998   2.158  0.3593  0.0159  0.5243
  358MOL0     O47127  10.191   3.878   2.114 -0.5277 -0.4741  0.0936
  358MOL0     C47128  10.081   3.818   2.163 -0.4304  1.4747 -0.1572
  358MOL0     C47129  10.083   3.744   2.280  0.3746  0.7972 -0.5755
  358MOL0     C47130   9.970   3.684   2.336  0.2456 -0.7980 -0.6063
  358MOL0     C47131   9.846   3.717   2.274  0.0995 -1.5640 -0.7653
  358MOL0     O47132   9.722   3.663   2.309  0.5021 -0.8471 -0.4227
  358MOL0     C47133   9.708   3.583   2.423 -0.4423 -0.1164  0.3081
  358MOL0     C47134   9.563   3.539   2.435  0.1856 -0.2795 -0.7373
  358MOL0     C47135   9.537   3.406   2.505  0.8473  0.1167  0.2688
  358MOL0     C47136   9.384   3.390   2.531 -0.2149  1.4182 -0.7706
  358MOL0     C47137   9.341   3.284   2.624 -0.3017  0.0585 -0.3787
  358MOL0     C47138   9.188   3.283   2.633  0.4237  0.5632  0.7352
  358MOL0     C47139   9.135   3.409   2.703 -0.4480 -0.3416 -0.2671
  358MOL0     C47140   8.992   3.396   2.756  0.3728 -0.0492 -0.2115
  358MOL0     N47141   8.883   3.437   2.658 -0.0854  0.2997 -0.2469
  358MOL0     C47142   8.754   3.413   2.701 -0.7046  0.1004  0.5648
  358MOL0     C47143   8.677   3.489   2.615 -0.9934 -0.2894  0.5203
  358MOL0     C47144   8.520   3.486   2.628 -0.8622 -0.3391  0.6179
  358MOL0     C47145   8.472   3.562   2.752 -0.2296 -0.5213  0.0798
  358MOL0     C47146   8.468   3.719   2.722 -0.4483  0.2042 -0.4963
  358MOL0     C47147   8.335   3.763   2.651  0.8492  0.4883 -0.3576
  358MOL0     O47148   8.232   3.765   2.758  0.4735  0.7914  0.2196
  358MOL0     C47149   8.108   3.713   2.735  0.3839 -0.7118  1.2773
  358MOL0     C47150   8.017   3.696   2.839  0.3274  0.6070  0.2624
  358MOL0     C47151   7.891   3.641   2.823 -0.2381  0.9691  0.1239
  358MOL0     C47152   7.829   3.638   2.696 -0.4009  0.2519 -0.4525
  358MOL0     C47153   7.701   3.566   2.671  0.0987  0.0671  0.6339
  358MOL0     O47154   7.644   3.604   2.554 -0.5309  0.3009  0.6749
  358MOL0     C47155   7.529   3.546   2.512 -1.7256  0.3365  0.4449
  358MOL0     C47156   7.422   3.545   2.600 -0.6398  0.0321  0.2486
  358MOL0     C47157   7.299   3.481   2.566  1.4702  0.2959 -0.3801
  358MOL0     C47158   7.281   3.413   2.441 -0.3660 -0.5330  0.6293
  358MOL0     O47159   7.164   3.352   2.414  0.5395  0.0986  0.2816
  358MOL0     C47160   7.176   3.243   2.307 -0.1761 -1.0685 -0.7439
  358MOL0     C47161   7.049   3.158   2.289 -0.2085  0.3323 -0.0571
  358MOL0     C47162   7.031   3.054   2.397 -0.0740 -0.3294 -0.5155
  358MOL0     C47163   6.904   2.967   2.364  0.0735 -0.1226  1.1405
  358MOL0     C47164   6.911   2.830   2.422  0.5222  0.6251  0.9826
  358MOL0     C47165   6.933   2.835   2.572  0.3185 -0.1641  0.5460
  358MOL0     C47166   6.923   2.697   2.648  0.3523  0.1827  0.3642
  358MOL0     C47167   7.053   2.622   2.624  0.4446  1.0330 -0.2479
  358MOL0    Cl47168   7.189   2.696   2.710 -0.2831 -0.3500 -0.4530
  358MOL0     C47169   7.392   3.427   2.353  0.4464  1.1332 -0.3414
  358MOL0     C47170   7.515   3.482   2.387 -0.0045  0.2524  0.0876
  358MOL0     O47171   7.658   3.481   2.753  0.3381 -0.2291  0.2336
  358MOL0     C47172   7.916   3.665   2.593  0.3883 -0.7923  0.0847
  358MOL0     C47173   8.051   3.703   2.610 -0.8597 -1.2496 -0.1313
  358MOL0     N47174   8.766   3.563   2.532  0.8760  0.5555  0.2857
  358MOL0     N47175   8.889   3.532   2.554  0.3715 -0.1961  0.9086
  358MOL0     C47176   9.844   3.775   2.151 -0.1450 -0.1235 -0.2578
  358MOL0     C47177   9.962   3.825   2.095  0.0210 -0.0658 -0.1978
  358MOL0     C47178  10.344   4.061   2.095  0.1202 -0.8439 -0.8505
  358MOL0     C47179  10.417   4.005   1.995 -0.0474  0.6303  0.9662
  358MOL0     C47180  10.534   4.067   1.956 -0.3291 -0.6956  0.1649
  358MOL0     C47181  10.569   4.198   1.997  0.2932  1.0760 -0.6728
  358MOL0     O47182  10.673   4.257   1.936  0.2268 -0.0860 -0.0905
  358MOL0     C47183  10.720   4.388   1.982 -0.5569 -0.7418  0.8494
  358MOL0     C47184  10.806   4.451   1.869 -0.0244 -0.1273  0.1893
  358MOL0     C47185  10.945   4.391   1.873  0.1636 -0.2753  0.4170
  358MOL0     C47186  11.038   4.455   1.775  0.1952  0.1505 -0.1449
  358MOL0     C47187  10.990   4.479   1.638  0.3596  0.1643 -0.3381
  358MOL0     C47188  10.972   4.496   1.522  0.4015 -1.0225 -0.3073
  358MOL0     C47189  10.491   4.255   2.099  0.1655 -0.3652 -0.4768
  358MOL0     C47190  10.378   4.185   2.140  0.2348  0.2530 -0.5348
  358MOL0     H47191  10.183   3.727   2.320  0.1823  1.1112  0.0531
  358MOL0     H47192   9.982   3.642   2.435  0.5777  4.1817  1.7425
  358MOL0     H47193   9.737   3.648   2.507  1.7327  2.0954 -1.9835
  358MOL0     H47194   9.778   3.499   2.426 -0.5527 -0.2173  0.1047
  358MOL0     H47195   9.525   3.520   2.335 -0.2241 -2.2149 -0.2677
  358MOL0     H47196   9.506   3.614   2.491 -3.3578 -3.2748  0.0906
  358MOL0     H47197   9.603   3.391   2.592 -2.6452 -0.5973  3.0435
  358MOL0     H47198   9.570   3.326   2.438 -0.8049  1.1118 -1.8336
  358MOL0     H47199   9.344   3.491   2.544  0.9978  1.7506  0.6983
  358MOL0     H47200   9.345   3.361   2.433  1.4213  1.8482 -1.5985
  358MOL0     H47201   9.383   3.297   2.724  0.9332 -1.7502 -0.6057
  358MOL0     H47202   9.374   3.188   2.582  3.3626 -0.3941  2.9744
  358MOL0     H47203   9.157   3.195   2.692 -0.2383  1.1184  1.2342
  358MOL0     H47204   9.146   3.286   2.532 -0.9225  0.3508  1.2622
  358MOL0     H47205   9.202   3.431   2.787 -0.8101 -3.0326  0.8418
  358MOL0     H47206   9.141   3.492   2.632 -0.8233 -0.1943 -0.1267
  358MOL0     H47207   8.995   3.470   2.837  0.3163 -1.1669  0.8399
  358MOL0     H47208   8.978   3.294   2.793  1.1811  0.1158  0.6020
  358MOL0     H47209   8.723   3.349   2.782 -0.1422 -0.1607  0.5841
  358MOL0     H47210   8.482   3.384   2.627 -1.0830 -0.2689 -0.6781
  358MOL0     H47211   8.476   3.531   2.538  0.3831 -0.3769 -0.0431
  358MOL0     H47212   8.539   3.528   2.831 -1.0802 -1.0193  0.6103
  358MOL0     H47213   8.367   3.539   2.772 -0.8406  0.6545 -1.5086
  358MOL0     H47214   8.485   3.783   2.809  3.2974 -0.1111 -0.8091
  358MOL0     H47215   8.546   3.756   2.655 -0.1810  1.1814  0.3285
  358MOL0     H47216   8.310   3.692   2.572  0.2433 -0.7311  0.8740
  358MOL0     H47217   8.365   3.863   2.617  0.6356  1.6780  2.6188
  358MOL0     H47218   8.043   3.695   2.945 -3.8708 -0.0250  1.4515
  358MOL0     H47219   7.838   3.607   2.912  2.3830  0.8728  1.7559
  358MOL0     H47220   7.435   3.595   2.695 -0.2754  0.1791  0.1217
  358MOL0     H47221   7.218   3.497   2.636  1.0510 -0.3027 -0.7114
  358MOL0     H47222   7.269   3.188   2.328 -0.5331 -2.2974 -2.2501
  358MOL0     H47223   7.197   3.301   2.216 -2.2838  3.0244  1.1010
  358MOL0     H47224   7.060   3.105   2.195  1.0308  1.7515 -0.7621
  358MOL0     H47225   6.965   3.228   2.294  0.3935  0.9933  2.2678
  358MOL0     H47226   7.016   3.098   2.496 -0.1556 -1.3267 -0.0751
  358MOL0     H47227   7.119   2.990   2.405 -2.0015 -3.1517 -0.7563
  358MOL0     H47228   6.818   3.030   2.389  0.1475  0.7152 -0.5620
  358MOL0     H47229   6.902   2.957   2.255  1.7700 -0.2388  1.1012
  358MOL0     H47230   6.986   2.766   2.373  0.4776  0.9260  0.5116
  358MOL0     H47231   6.817   2.778   2.399  2.1994 -1.6648 -1.3543
  358MOL0     H47232   6.870   2.908   2.623 -1.1576 -0.6359 -0.5292
  358MOL0     H47233   7.034   2.875   2.583  0.0657  0.3434  1.0306
  358MOL0     H47234   6.920   2.719   2.755  2.4392 -0.5428  0.6198
  358MOL0     H47235   6.838   2.634   2.623  0.6276 -0.6785  1.5600
  358MOL0     H47236   7.054   2.618   2.515 -0.0302 -1.7278 -0.2206
  358MOL0     H47237   7.055   2.522   2.666  1.9255  1.5317  0.9765
  358MOL0     H47238   7.377   3.396   2.250  0.4171  1.4042 -0.4198
  358MOL0     H47239   7.597   3.476   2.316 -0.0073 -0.2448  0.1261
  358MOL0     H47240   7.875   3.656   2.493  0.4882  0.4548 -0.0817
  358MOL0     H47241   8.116   3.737   2.530  1.6386 -0.8392  1.9548
  358MOL0     H47242   9.746   3.808   2.116  0.1545  1.8850  0.6452
  358MOL0     H47243   9.975   3.855   1.991  2.3875  0.4646  0.1919
  358MOL0     H47244  10.395   3.906   1.955 -0.5383  0.2101  2.2198
  358MOL0     H47245  10.596   4.023   1.879  0.9497 -0.9387  1.2860
  358MOL0     H47246  10.769   4.385   2.080 -1.6296 -2.1374  1.3916
  358MOL0     H47247  10.632   4.451   1.999 -1.4734 -1.1021 -2.0993
  358MOL0     H47248  10.753   4.441   1.774 -0.9622 -1.8058  0.8426
  358MOL0     H47249  10.814   4.560   1.881  3.0713 -0.0836 -1.4354
  358MOL0     H47250  10.926   4.289   1.840 -2.2452  0.8573 -2.1781
  358MOL0     H47251  10.985   4.394   1.975 -0.4357  0.9177  0.6383
  358MOL0     H47252  11.062   4.557   1.808 -1.6355  0.8674 -0.8674
  358MOL0     H47253  11.136   4.407   1.775  0.5488  0.6157 -3.5637
  358MOL0     H47254  10.960   4.506   1.416  1.7384  0.8554 -0.3475
  358MOL0     H47255  10.512   4.351   2.146 -3.8016  1.9286 -2.8341
  358MOL0     H47256  10.318   4.228   2.219 -0.5115 -0.1684 -0.8689
  359MOL0     O47257   8.080   6.694   6.550  0.5762  0.1519  0.0593
  359MOL0     C47258   8.048   6.807   6.598  0.6094  0.1504  0.4977
  359MOL0     O47259   7.972   6.816   6.715 -1.2105  0.1721 -0.5049
  359MOL0     C47260   7.878   6.721   6.757 -0.2943 -1.0189  0.1090
  359MOL0     C47261   7.932   6.617   6.836 -0.3972  0.4395 -0.0344
  359MOL0     C47262   7.843   6.515   6.873  0.6813  0.2619  0.0013
  359MOL0     C47263   7.699   6.540   6.860 -0.3127  1.1601  0.7602
  359MOL0     O47264   7.615   6.438   6.909 -0.1596 -0.2952  0.7150
  359MOL0     C47265   7.481   6.464   6.920  0.2342 -0.0094 -1.2768
  359MOL0     C47266   7.423   6.335   6.982  0.2958  0.0724 -0.7823
  359MOL0     C47267   7.349   6.251   6.877  0.2804  0.5552 -0.4110
  359MOL0     C47268   7.276   6.126   6.946 -0.6189 -0.1853  0.5686
  359MOL0     C47269   7.189   6.054   6.846 -0.1774  0.4181 -0.4745
  359MOL0     C47270   7.139   5.918   6.895  0.1196  0.3673  0.0591
  359MOL0     C47271   7.067   5.836   6.788  0.2848 -0.1968  0.5360
  359MOL0     C47272   6.936   5.898   6.739 -0.7802 -0.2358  0.1818
  359MOL0     N47273   6.841   5.922   6.854  0.3003 -0.0195  0.6597
  359MOL0     C47274   6.815   6.044   6.907 -0.0538 -0.3813  0.9912
  359MOL0     C47275   6.721   6.029   6.999 -0.1492 -0.1892 -0.2008
  359MOL0     C47276   6.661   6.137   7.095 -0.7627 -0.0905 -0.9220
  359MOL0     C47277   6.532   6.208   7.057 -0.0377  0.7814 -0.4762
  359MOL0     C47278   6.421   6.109   7.002 -0.4843  0.6211  0.7405
  359MOL0     C47279   6.283   6.184   6.977 -0.2369  0.0132 -0.1529
  359MOL0     O47280   6.281   6.269   6.855 -0.1022  0.4568 -0.4596
  359MOL0     C47281   6.164   6.339   6.835 -0.3602  0.7267  0.2893
  359MOL0     C47282   6.169   6.418   6.716  1.0204  0.5988  0.7287
  359MOL0     C47283   6.059   6.495   6.679  0.2188 -0.4633  0.1970
  359MOL0     C47284   5.934   6.487   6.750  0.0737  0.1591  0.0345
  359MOL0     C47285   5.819   6.559   6.711 -0.1778 -1.0227  0.2904
  359MOL0     O47286   5.830   6.645   6.604  0.1184 -0.3972  0.3555
  359MOL0     C47287   5.718   6.717   6.550  0.5802 -0.3775 -0.0807
  359MOL0     C47288   5.747   6.804   6.442 -0.3773  0.3053 -0.1730
  359MOL0     C47289   5.647   6.870   6.376 -0.2213  0.8640  0.3454
  359MOL0     C47290   5.517   6.863   6.415  0.0090 -0.0290 -0.4999
  359MOL0     O47291   5.424   6.938   6.348  0.3444  0.5043 -0.5552
  359MOL0     C47292   5.434   7.071   6.378  0.0384  0.1715  0.4585
  359MOL0     C47293   5.377   7.151   6.267  0.1788  0.5044  0.0712
  359MOL0     C47294   5.229   7.125   6.251  0.2012  1.1230  0.0741
  359MOL0     C47295   5.160   7.218   6.147 -0.5423  0.0329  0.1170
  359MOL0     C47296   5.009   7.180   6.157  0.3160  0.6755 -0.6508
  359MOL0     C47297   4.931   7.292   6.093 -0.4945 -0.9681  0.7361
  359MOL0     C47298   4.787   7.266   6.093  0.1341 -0.0288 -0.1039
  359MOL0     C47299   4.704   7.360   6.002 -0.4542  0.6048  0.0039
  359MOL0    Cl47300   4.531   7.374   6.046  0.6337  0.1808 -0.0013
  359MOL0     C47301   5.486   6.776   6.518  0.0497  0.0132 -0.0997
  359MOL0     C47302   5.582   6.701   6.580  0.7173  0.0789  0.2409
  359MOL0     O47303   5.716   6.538   6.770  0.0978  0.3450  0.5447
  359MOL0     C47304   5.934   6.409   6.868 -0.6102  0.2057  0.2594
  359MOL0     C47305   6.045   6.330   6.904  0.2103 -0.2395 -0.3940
  359MOL0     N47306   6.677   5.898   6.988  0.2935 -0.0384  0.4615
  359MOL0     N47307   6.742   5.838   6.901  0.9366  0.4731 -0.4996
  359MOL0     C47308   7.660   6.658   6.788 -0.2658  0.1114  0.0152
  359MOL0     C47309   7.746   6.749   6.734  0.0197  0.0661  0.0197
  359MOL0     C47310   8.100   6.932   6.540  0.2270 -0.6968 -0.7692
  359MOL0     C47311   8.173   6.934   6.422  0.4454 -0.5734 -0.7773
  359MOL0     C47312   8.221   7.053   6.356 -0.5352  0.0644 -0.2178
  359MOL0     C47313   8.180   7.173   6.408 -0.0293 -0.6813 -0.7391
  359MOL0     O47314   8.223   7.282   6.341 -0.0113 -0.0614  0.0530
  359MOL0     C47315   8.134   7.395   6.346  0.3847  0.2785 -0.4590
  359MOL0     C47316   8.198   7.512   6.270 -0.3489  0.2837  0.4009
  359MOL0     C47317   8.346   7.532   6.323 -1.1553  0.1785  0.0737
  359MOL0     C47318   8.416   7.649   6.262 -1.0914  0.3640  0.2580
  359MOL0     C47319   8.343   7.776   6.268 -0.6155  0.9091  0.3957
  359MOL0     C47320   8.286   7.880   6.260 -0.7018 -0.6861 -0.0216
  359MOL0     C47321   8.107   7.170   6.525  0.2886  0.7395 -0.7494
  359MOL0     C47322   8.065   7.058   6.590 -0.0948  0.7672 -0.0580
  359MOL0     H47323   8.039   6.608   6.825 -0.7484 -2.2025 -3.3514
  359MOL0     H47324   7.872   6.422   6.920  1.8227 -0.5704 -2.2539
  359MOL0     H47325   7.439   6.492   6.823  0.3141 -1.1013 -1.6324
  359MOL0     H47326   7.451   6.539   6.994  0.1792 -0.3901 -0.9074
  359MOL0     H47327   7.339   6.366   7.046 -1.8209 -1.9042 -2.4239
  359MOL0     H47328   7.495   6.281   7.044  0.1660  1.2308  0.4352
  359MOL0     H47329   7.413   6.224   6.793  1.5295  0.1834  0.6281
  359MOL0     H47330   7.270   6.314   6.835  1.5528  0.4404 -3.1860
  359MOL0     H47331   7.343   6.054   6.995 -0.7057 -0.5996  0.0809
  359MOL0     H47332   7.210   6.172   7.019 -2.0094 -0.0210 -0.7490
  359MOL0     H47333   7.239   6.058   6.749 -2.4325 -0.6281 -1.7636
  359MOL0     H47334   7.101   6.114   6.822 -1.2685 -1.4208 -1.2385
  359MOL0     H47335   7.064   5.915   6.974 -0.7908 -3.2882 -0.7262
  359MOL0     H47336   7.229   5.861   6.922 -0.9673 -2.2814 -1.5212
  359MOL0     H47337   7.138   5.829   6.705  0.0551  1.1643  0.1986
  359MOL0     H47338   7.037   5.737   6.823 -0.8211  0.0075  0.2272
  359MOL0     H47339   6.890   5.833   6.665 -0.5026 -0.9995  0.6598
  359MOL0     H47340   6.959   5.995   6.694  0.5914 -0.8897 -0.5679
  359MOL0     H47341   6.851   6.143   6.884 -0.1636 -0.4193  0.6513
  359MOL0     H47342   6.737   6.215   7.086 -1.7724  0.6729 -4.0281
  359MOL0     H47343   6.656   6.101   7.198 -1.9277 -2.6051 -1.7765
  359MOL0     H47344   6.567   6.278   6.980 -0.5132  4.1132  2.0836
  359MOL0     H47345   6.497   6.263   7.145 -0.1453 -0.0563  0.0179
  359MOL0     H47346   6.469   6.049   6.923 -0.4592 -2.5137  2.9178
  359MOL0     H47347   6.408   6.044   7.089  3.6314  0.2276  1.2398
  359MOL0     H47348   6.269   6.250   7.063  4.4901  1.1465  0.0367
  359MOL0     H47349   6.195   6.121   6.987 -0.2046 -0.4160 -2.0361
  359MOL0     H47350   6.260   6.431   6.658  0.5929  2.3491  0.4026
  359MOL0     H47351   6.086   6.552   6.591  2.0431  0.3204  1.2153
  359MOL0     H47352   5.851   6.829   6.421 -0.5929 -0.2281 -2.0330
  359MOL0     H47353   5.670   6.931   6.288  1.6579  0.4226  0.4859
  359MOL0     H47354   5.537   7.102   6.391  0.1437 -0.7168  2.0404
  359MOL0     H47355   5.386   7.104   6.471 -0.5629  4.6421 -1.2093
  359MOL0     H47356   5.432   7.136   6.174  1.9236 -1.7889  1.3621
  359MOL0     H47357   5.394   7.258   6.283 -2.5582  1.0736 -0.2336
  359MOL0     H47358   5.190   7.137   6.353  2.0432  0.7066  0.8810
  359MOL0     H47359   5.220   7.023   6.214  0.2232  0.8528  0.7889
  359MOL0     H47360   5.166   7.324   6.173 -1.9522  0.2077 -0.1577
  359MOL0     H47361   5.215   7.207   6.053  0.7247 -0.0561  0.8576
  359MOL0     H47362   4.994   7.170   6.265  1.5928 -2.9745 -0.6642
  359MOL0     H47363   4.988   7.086   6.105  0.1637  1.3536 -1.8721
  359MOL0     H47364   4.980   7.302   5.996 -1.5834 -0.1567  0.2477
  359MOL0     H47365   4.948   7.390   6.138 -1.4790  0.7855 -2.4112
  359MOL0     H47366   4.762   7.163   6.065 -1.0241  0.7885 -2.3364
  359MOL0     H47367   4.750   7.292   6.193  3.4215 -0.8401  1.4473
  359MOL0     H47368   4.712   7.314   5.903 -2.5091  0.6772 -0.2597
  359MOL0     H47369   4.737   7.465   6.002 -3.1861  1.5764 -1.1688
  359MOL0     H47370   5.388   6.744   6.554  0.8142 -5.1656 -1.8243
  359MOL0     H47371   5.543   6.638   6.659  3.3208  0.4934  1.9610
  359MOL0     H47372   5.843   6.389   6.923 -0.9817 -3.6499 -1.5119
  359MOL0     H47373   6.040   6.272   6.996 -0.1066  1.6060  0.8020
  359MOL0     H47374   7.552   6.666   6.784 -0.3485 -0.3216  1.1367
  359MOL0     H47375   7.706   6.823   6.667  2.7461  2.2303  0.5820
  359MOL0     H47376   8.192   6.844   6.365 -1.6359 -0.0160 -2.4955
  359MOL0     H47377   8.267   7.049   6.258  0.6765  1.6070  0.2500
  359MOL0     H47378   8.132   7.430   6.450  4.0746 -0.2318 -0.0892
  359MOL0     H47379   8.031   7.368   6.323  0.7354 -0.3436 -1.3619
  359MOL0     H47380   8.211   7.484   6.165  0.0203  2.0486 -0.0524
  359MOL0     H47381   8.130   7.598   6.277 -3.6381 -1.8172 -2.4139
  359MOL0     H47382   8.407   7.442   6.315  1.4401  1.7099  1.3440
  359MOL0     H47383   8.341   7.553   6.430  0.9273  0.6560  0.1148
  359MOL0     H47384   8.513   7.670   6.309 -1.1760 -0.7438  0.9623
  359MOL0     H47385   8.432   7.638   6.155 -2.0842  2.5047 -0.1710
  359MOL0     H47386   8.232   7.972   6.251  2.1473  1.0497 -0.5260
  359MOL0     H47387   8.063   7.259   6.569 -0.8808 -0.5907  0.9108
  359MOL0     H47388   8.000   7.057   6.677 -0.0599  1.1126 -0.0271
  360MOL0     O47389   7.146   6.392   3.609 -0.3131  0.4093  0.2328
  360MOL0     C47390   7.236   6.469   3.632  0.7594 -0.2614  0.0925
  360MOL0     O47391   7.227   6.580   3.703 -0.7860 -0.0937 -0.5213
  360MOL0     C47392   7.105   6.624   3.756 -0.8114  0.8002  0.1915
  360MOL0     C47393   7.090   6.631   3.896  1.3500  1.0684  0.7507
  360MOL0     C47394   6.972   6.694   3.944  0.1307  0.1278  0.2795
  360MOL0     C47395   6.879   6.745   3.858 -0.3277  0.8532 -0.0206
  360MOL0     O47396   6.778   6.808   3.924  0.0925  0.0428  1.0261
  360MOL0     C47397   6.646   6.794   3.870  1.5102  0.3049 -0.1423
  360MOL0     C47398   6.536   6.823   3.970 -0.0621  0.5390 -0.1979
  360MOL0     C47399   6.500   6.697   4.053 -0.1718  0.8653 -0.4440
  360MOL0     C47400   6.615   6.614   4.115  0.2525  0.4910  0.5338
  360MOL0     C47401   6.560   6.477   4.180  0.0261 -0.0643  1.0367
  360MOL0     C47402   6.667   6.389   4.243 -0.1234  0.0180 -0.3333
  360MOL0     C47403   6.624   6.311   4.366 -0.7271 -0.1828  0.4996
  360MOL0     C47404   6.521   6.200   4.335  1.2016  0.9279  0.0048
  360MOL0     N47405   6.438   6.145   4.439 -0.1421  0.7530 -0.1562
  360MOL0     C47406   6.375   6.218   4.542 -0.5352 -0.5241  0.3422
  360MOL0     C47407   6.307   6.131   4.619 -0.0338  0.1332  0.6567
  360MOL0     C47408   6.228   6.161   4.746  0.4441 -0.0948  0.0487
  360MOL0     C47409   6.123   6.049   4.776  0.8545  0.5762 -0.1903
  360MOL0     C47410   6.001   6.055   4.688 -0.3631  0.7364 -1.0148
  360MOL0     C47411   5.915   5.926   4.709  0.3551 -0.8575 -0.2177
  360MOL0     O47412   5.796   5.947   4.627  0.1381 -0.6858 -0.7178
  360MOL0     C47413   5.711   5.834   4.620  0.3311  0.7966  0.4090
  360MOL0     C47414   5.744   5.702   4.663 -0.8071  0.4167 -1.7651
  360MOL0     C47415   5.649   5.601   4.687  0.6563 -1.4569  0.5647
  360MOL0     C47416   5.516   5.626   4.652 -0.8898 -0.5721 -0.9695
  360MOL0     C47417   5.413   5.531   4.685  0.4469  0.2081 -0.8685
  360MOL0     O47418   5.441   5.427   4.769 -0.0573  0.3906  0.3491
  360MOL0     C47419   5.353   5.344   4.825  0.0853  0.2618 -0.9649
  360MOL0     C47420   5.411   5.219   4.835 -0.3569 -0.5234 -0.0207
  360MOL0     C47421   5.329   5.112   4.866 -0.0198 -0.7036 -0.1154
  360MOL0     C47422   5.197   5.130   4.918  0.7134 -0.5890  0.0493
  360MOL0     O47423   5.119   5.019   4.940  0.3383  0.6748  0.7043
  360MOL0     C47424   5.184   4.920   5.024  0.3715  0.5002  0.1755
  360MOL0     C47425   5.104   4.798   5.079  0.1579 -0.0347  0.3658
  360MOL0     C47426   5.074   4.706   4.970  0.5652  0.0898 -0.1276
  360MOL0     C47427   5.009   4.577   5.028 -0.2906 -0.5468  0.8549
  360MOL0     C47428   5.033   4.461   4.929  0.3651 -0.1711  0.5793
  360MOL0     C47429   4.960   4.329   4.954 -0.2263  0.6536  0.4227
  360MOL0     C47430   5.017   4.219   4.865 -0.5980 -0.1643  0.4135
  360MOL0     C47431   4.933   4.101   4.843  1.3088  0.3690 -0.6897
  360MOL0    Cl47432   4.921   4.010   4.986 -0.0403  0.1775 -0.3585
  360MOL0     C47433   5.141   5.259   4.909  0.1843 -0.6833  0.2169
  360MOL0     C47434   5.223   5.368   4.874 -0.0195 -0.3703  0.5258
  360MOL0     O47435   5.298   5.561   4.648  0.3946 -0.3721 -0.5530
  360MOL0     C47436   5.485   5.755   4.606  0.2570 -0.1970  0.3122
  360MOL0     C47437   5.577   5.859   4.595  0.8554  0.6404  0.5472
  360MOL0     N47438   6.302   6.012   4.548 -0.7523  0.3408  0.7541
  360MOL0     N47439   6.379   6.016   4.441 -1.1010  0.1464 -0.0403
  360MOL0     C47440   6.894   6.726   3.717 -0.6056  0.1831  0.8394
  360MOL0     C47441   7.008   6.670   3.671  0.9501 -0.2787 -0.5141
  360MOL0     C47442   7.362   6.441   3.588  0.8187  0.9800  0.1112
  360MOL0     C47443   7.384   6.374   3.471 -0.2477  0.6471  0.6037
  360MOL0     C47444   7.522   6.345   3.428  0.1385 -0.0907 -0.2077
  360MOL0     C47445   7.630   6.396   3.502  0.1010 -0.4470  0.7120
  360MOL0     O47446   7.761   6.371   3.465 -0.1382  0.3531  0.2324
  360MOL0     C47447   7.789   6.233   3.432 -0.4028  0.3206  0.0188
  360MOL0     C47448   7.937   6.222   3.406  0.4513 -0.4252 -0.2590
  360MOL0     C47449   8.006   6.303   3.295 -0.4763 -0.1113 -0.0854
  360MOL0     C47450   7.934   6.280   3.157 -0.7408 -0.2451  0.4863
  360MOL0     C47451   7.975   6.368   3.049 -0.3179  0.1583 -1.1252
  360MOL0     C47452   8.006   6.445   2.964  1.0703 -0.4941  0.9262
  360MOL0     C47453   7.607   6.468   3.620 -0.0224  0.6905 -0.1037
  360MOL0     C47454   7.475   6.479   3.667 -0.0762  0.2472 -0.6078
  360MOL0     H47455   7.161   6.578   3.959  0.5036 -1.8191 -0.5878
  360MOL0     H47456   6.943   6.696   4.049 -3.0627 -2.4967 -0.3952
  360MOL0     H47457   6.624   6.693   3.832 -1.1878  0.5144  0.6217
  360MOL0     H47458   6.627   6.865   3.790  1.3373  1.0304  0.5293
  360MOL0     H47459   6.449   6.858   3.914  0.9107 -0.5002 -2.4891
  360MOL0     H47460   6.577   6.898   4.038 -1.8707  0.8063  0.6657
  360MOL0     H47461   6.441   6.632   3.987  1.0899  0.0252 -0.7947
  360MOL0     H47462   6.446   6.715   4.146  0.9530 -2.9248  1.1678
  360MOL0     H47463   6.691   6.591   4.039 -2.0784  0.0859 -1.8467
  360MOL0     H47464   6.661   6.671   4.195  3.1263 -1.7496  0.6255
  360MOL0     H47465   6.504   6.424   4.102  0.7707 -0.1229  0.5399
  360MOL0     H47466   6.488   6.504   4.259  0.5572  1.3541  1.0691
  360MOL0     H47467   6.751   6.453   4.267  0.6454 -0.8878 -0.5288
  360MOL0     H47468   6.700   6.320   4.164  1.2102  1.6742 -1.2875
  360MOL0     H47469   6.706   6.263   4.419  0.5237  0.0296 -1.1752
  360MOL0     H47470   6.569   6.386   4.424  2.8668  2.5076  0.7389
  360MOL0     H47471   6.574   6.112   4.296  1.3148 -0.9247  3.8656
  360MOL0     H47472   6.448   6.242   4.265 -0.2777 -3.0575 -1.1184
  360MOL0     H47473   6.382   6.324   4.560 -1.2761  0.3085 -3.4821
  360MOL0     H47474   6.181   6.258   4.729  1.0419 -0.1166 -1.9541
  360MOL0     H47475   6.297   6.163   4.831  0.0497 -0.7501  0.3919
  360MOL0     H47476   6.091   6.050   4.881 -1.5031  0.4784 -0.8566
  360MOL0     H47477   6.178   5.955   4.767 -1.3118 -1.0978  2.2141
  360MOL0     H47478   5.943   6.147   4.700  2.0535  2.3087 -0.9274
  360MOL0     H47479   6.036   6.043   4.585 -1.5909 -0.4653 -1.3249
  360MOL0     H47480   5.888   5.916   4.815 -0.9676 -0.1626 -0.4752
  360MOL0     H47481   5.970   5.839   4.673 -0.4506 -1.4758  0.0199
  360MOL0     H47482   5.846   5.677   4.690 -1.8560 -0.6687  1.6403
  360MOL0     H47483   5.676   5.501   4.717  1.4035 -1.8616 -1.3324
  360MOL0     H47484   5.513   5.211   4.798 -1.0633  3.4734 -3.7384
  360MOL0     H47485   5.372   5.013   4.859 -1.2555 -1.1736 -2.0422
  360MOL0     H47486   5.221   4.979   5.108  1.5602  1.6186 -1.0714
  360MOL0     H47487   5.270   4.883   4.966  0.0167  1.3269 -0.9230
  360MOL0     H47488   5.009   4.829   5.125 -1.0826 -0.2987 -1.8835
  360MOL0     H47489   5.156   4.757   5.166  0.0912  1.7937  1.3311
  360MOL0     H47490   5.161   4.678   4.909  0.8480  1.7721 -0.5511
  360MOL0     H47491   5.001   4.760   4.909 -0.0418 -1.9018 -1.2193
  360MOL0     H47492   5.048   4.556   5.128 -1.7543  1.1045  1.8276
  360MOL0     H47493   4.905   4.607   5.040 -0.0240  0.2402  1.2574
  360MOL0     H47494   5.139   4.434   4.923  0.2370 -0.7985  0.9657
  360MOL0     H47495   5.013   4.503   4.830 -1.2581 -0.7943  0.6101
  360MOL0     H47496   4.858   4.343   4.917  0.2280  1.5280 -0.5719
  360MOL0     H47497   4.963   4.310   5.061 -0.9312 -0.8722  0.1951
  360MOL0     H47498   5.034   4.260   4.765 -4.1593  0.9692  0.1434
  360MOL0     H47499   5.117   4.193   4.900  1.2983  2.1417 -2.7603
  360MOL0     H47500   4.984   4.033   4.774 -2.5197 -3.1792 -0.4319
  360MOL0     H47501   4.836   4.127   4.799 -0.2814 -2.9308  0.4726
  360MOL0     H47502   5.036   5.284   4.926  0.5012  0.8307  0.1405
  360MOL0     H47503   5.190   5.470   4.856  2.1389  0.3095  0.1855
  360MOL0     H47504   5.385   5.787   4.578  0.4296 -0.6070 -0.8291
  360MOL0     H47505   5.544   5.960   4.573 -0.0623  0.4573  1.0425
  360MOL0     H47506   6.818   6.770   3.653  0.7038  2.0836  0.4975
  360MOL0     H47507   7.019   6.676   3.563 -0.8979 -3.0605 -0.9642
  360MOL0     H47508   7.304   6.350   3.401  0.4769 -1.6256  0.4901
  360MOL0     H47509   7.531   6.299   3.330  2.0671  3.6166 -1.9659
  360MOL0     H47510   7.721   6.198   3.353  0.1996 -0.7437 -0.0470
  360MOL0     H47511   7.780   6.166   3.518  3.4809  0.9952  1.1548
  360MOL0     H47512   7.979   6.255   3.502  1.7588  1.4321 -1.3901
  360MOL0     H47513   7.965   6.118   3.390 -0.9804 -0.8403 -0.1305
  360MOL0     H47514   8.109   6.267   3.290  0.9024  3.5452 -1.4928
  360MOL0     H47515   8.012   6.406   3.332  1.7211 -0.6297  1.1546
  360MOL0     H47516   7.946   6.178   3.119 -0.8567  0.4090 -1.4342
  360MOL0     H47517   7.825   6.277   3.164 -0.8922 -0.2030 -1.3420
  360MOL0     H47518   8.031   6.506   2.880  1.0407 -1.9642 -0.2072
  360MOL0     H47519   7.691   6.495   3.682  0.5275  2.6957 -1.6253
  360MOL0     H47520   7.476   6.531   3.762  0.9059 -1.3958  0.3256
  361MOL0     O47521   5.556  10.292   4.339  0.2553 -0.9780  0.1737
  361MOL0     C47522   5.606  10.181   4.369  0.3397  0.2277 -0.7263
  361MOL0     O47523   5.545  10.087   4.448  0.2993 -0.1657  0.8011
  361MOL0     C47524   5.413  10.110   4.493  0.2199 -0.2297 -0.7083
  361MOL0     C47525   5.392  10.110   4.631 -0.7051  0.1414  0.5907
  361MOL0     C47526   5.274  10.141   4.695 -0.5656  1.1661 -0.1829
  361MOL0     C47527   5.155  10.162   4.622 -1.0061  0.5612  0.1255
  361MOL0     O47528   5.025  10.186   4.660 -0.5289  0.1998 -0.1196
  361MOL0     C47529   5.009  10.250   4.785 -0.4264 -0.8443  0.1269
  361MOL0     C47530   4.934  10.163   4.889 -0.8474 -0.3680  0.4304
  361MOL0     C47531   4.799  10.111   4.830 -0.0535  0.5524  1.1097
  361MOL0     C47532   4.707  10.236   4.805  0.1412  0.4381 -0.9663
  361MOL0     C47533   4.559  10.188   4.773  0.5673 -0.3793  0.7991
  361MOL0     C47534   4.541  10.138   4.634 -0.3423  0.2755  0.8620
  361MOL0     C47535   4.559  10.240   4.521  0.5773 -0.6969  0.2611
  361MOL0     C47536   4.471  10.369   4.539 -0.6772  0.4285 -0.3035
  361MOL0     N47537   4.491  10.456   4.424 -0.4072 -0.0889 -0.0214
  361MOL0     C47538   4.506  10.600   4.415  0.2729 -0.1408 -0.9961
  361MOL0     C47539   4.514  10.623   4.285  0.6812  0.4767 -0.3163
  361MOL0     C47540   4.516  10.760   4.228  0.4219  0.1837  0.7234
  361MOL0     C47541   4.665  10.816   4.220 -0.0253  0.5194 -0.5186
  361MOL0     C47542   4.770  10.748   4.126 -0.1158 -0.4092  0.9640
  361MOL0     C47543   4.900  10.836   4.102  0.5289 -0.0954 -1.0202
  361MOL0     O47544   4.986  10.858   4.214  0.5591  0.7948 -0.1251
  361MOL0     C47545   5.114  10.900   4.188 -0.4152 -0.0238 -0.6577
  361MOL0     C47546   5.192  10.920   4.303  0.6371  0.4592 -0.1392
  361MOL0     C47547   5.319  10.965   4.294 -0.4095  0.0177  0.7714
  361MOL0     C47548   5.381  10.984   4.166 -0.5429 -0.3937 -0.5645
  361MOL0     C47549   5.525  11.027   4.150  0.8849  1.1811 -0.7719
  361MOL0     O47550   5.561  11.057   4.024  0.8076  0.4173  0.1320
  361MOL0     C47551   5.657  11.156   4.009  0.0562 -0.1811  0.9723
  361MOL0     C47552   5.703  11.166   3.875 -0.1499  0.6310  0.7392
  361MOL0     C47553   5.795  11.259   3.831  0.4445 -0.2431  0.7501
  361MOL0     C47554   5.842  11.357   3.920 -0.5394 -0.8207 -0.1311
  361MOL0     O47555   5.930  11.464   3.894 -0.7220 -0.1220  0.7631
  361MOL0     C47556   5.997  11.459   3.762 -1.1185  0.0433 -0.3565
  361MOL0     C47557   6.113  11.569   3.763  0.2965 -0.0335 -0.2837
  361MOL0     C47558   6.233  11.535   3.848  0.4585 -0.5013  0.4777
  361MOL0     C47559   6.341  11.651   3.849 -0.8568 -0.5899  0.9325
  361MOL0     C47560   6.451  11.652   3.965  0.0800  0.9048  0.7510
  361MOL0     C47561   6.524  11.517   3.967  0.2577 -0.2495 -0.1867
  361MOL0     C47562   6.627  11.491   4.090 -0.0536  0.3120  1.0678
  361MOL0     C47563   6.669  11.346   4.119 -0.4811 -0.2865  0.0186
  361MOL0    Cl47564   6.527  11.225   4.112 -0.5484  0.2308  0.0524
  361MOL0     C47565   5.803  11.359   4.053 -0.9856  0.2264 -0.1451
  361MOL0     C47566   5.720  11.254   4.102  0.4571 -0.1956  0.9165
  361MOL0     O47567   5.602  11.020   4.246 -0.0746  0.1413  0.3972
  361MOL0     C47568   5.300  10.972   4.052 -0.4574  0.0680 -0.0351
  361MOL0     C47569   5.172  10.925   4.063  0.1713  0.6308  0.4613
  361MOL0     N47570   4.514  10.505   4.216 -0.2397 -0.2797  0.9742
  361MOL0     N47571   4.503  10.405   4.297  0.3418  0.4496  0.2916
  361MOL0     C47572   5.164  10.153   4.479 -2.6410  0.0218  0.6371
  361MOL0     C47573   5.294  10.125   4.418 -0.3851  0.2406 -0.8007
  361MOL0     C47574   5.747  10.166   4.329 -0.8612 -0.1285  0.9876
  361MOL0     C47575   5.800  10.033   4.324 -0.5578 -0.3195  0.2512
  361MOL0     C47576   5.922  10.006   4.265  0.0981  0.1126  0.1202
  361MOL0     C47577   6.010  10.110   4.232  0.6342  0.4637 -0.2420
  361MOL0     O47578   6.145  10.090   4.194  0.0083 -0.2518  0.0088
  361MOL0     C47579   6.198   9.962   4.198 -1.1690  0.1873 -0.5677
  361MOL0     C47580   6.346   9.956   4.179 -0.0479 -0.4725  0.3776
  361MOL0     C47581   6.388  10.032   4.051  0.3735 -0.1909  1.0438
  361MOL0     C47582   6.517  10.110   4.061  0.8576  0.0807 -0.2502
  361MOL0     C47583   6.622  10.019   4.115 -0.2394 -0.7872  0.3028
  361MOL0     C47584   6.700   9.935   4.145 -0.4925 -0.1396 -0.1398
  361MOL0     C47585   5.964  10.242   4.243  0.4919 -0.5213  1.4486
  361MOL0     C47586   5.833  10.269   4.290 -0.2015  0.0231  0.1462
  361MOL0     H47587   5.483  10.085   4.684 -0.6262 -0.8812  0.0039
  361MOL0     H47588   5.273  10.127   4.803  3.3697  1.6458  0.0411
  361MOL0     H47589   4.950  10.340   4.767  0.2625  0.0563  2.0634
  361MOL0     H47590   5.102  10.285   4.830 -1.5264  1.5429  0.6982
  361MOL0     H47591   4.923  10.224   4.979 -0.7175 -0.0534  0.2325
  361MOL0     H47592   4.998  10.077   4.911  2.0129  0.7538 -2.6582
  361MOL0     H47593   4.763  10.049   4.913 -3.2108  1.0201  0.2160
  361MOL0     H47594   4.813  10.056   4.737  0.7185  1.8560  0.4321
  361MOL0     H47595   4.697  10.308   4.887  3.1148 -0.8404  0.6639
  361MOL0     H47596   4.751  10.295   4.725 -1.2782  1.8464 -0.7602
  361MOL0     H47597   4.493  10.274   4.782  2.8907  1.3969  1.5879
  361MOL0     H47598   4.515  10.106   4.831 -2.2411  1.3122  1.2558
  361MOL0     H47599   4.437  10.105   4.628  0.1314 -1.0104 -2.1751
  361MOL0     H47600   4.593  10.044   4.613 -2.5975 -1.1239  1.2185
  361MOL0     H47601   4.661  10.276   4.511  0.2010  0.7418  1.2625
  361MOL0     H47602   4.525  10.200   4.424  1.1048  0.6661 -0.5051
  361MOL0     H47603   4.491  10.422   4.633 -2.3078  0.1818  0.2223
  361MOL0     H47604   4.365  10.346   4.556 -0.1330 -0.6017  2.0425
  361MOL0     H47605   4.495  10.669   4.497 -0.9242 -3.5211  1.9409
  361MOL0     H47606   4.450  10.829   4.281 -3.1357 -3.0068  0.8760
  361MOL0     H47607   4.475  10.745   4.127  0.9333  0.8335  0.4091
  361MOL0     H47608   4.696  10.805   4.324 -5.0231 -0.1188  1.1724
  361MOL0     H47609   4.650  10.924   4.206 -3.7343  0.2398  0.1656
  361MOL0     H47610   4.803  10.649   4.160 -0.4673 -0.5549  0.8876
  361MOL0     H47611   4.726  10.735   4.027  0.9462 -4.3985  0.8124
  361MOL0     H47612   4.870  10.935   4.066 -3.3149 -0.3195  0.9964
  361MOL0     H47613   4.957  10.791   4.021  4.2345  1.9450  0.2322
  361MOL0     H47614   5.147  10.901   4.399  0.6201  1.3517  0.0429
  361MOL0     H47615   5.361  10.991   4.391  0.4404 -2.5569  1.1969
  361MOL0     H47616   5.674  11.094   3.800 -0.9038  1.3212  0.3547
  361MOL0     H47617   5.831  11.253   3.729 -1.0116 -2.8906  0.3102
  361MOL0     H47618   5.931  11.495   3.683 -3.2264  0.6975  1.5910
  361MOL0     H47619   6.047  11.365   3.741 -1.1611  0.0311 -0.4017
  361MOL0     H47620   6.070  11.660   3.805 -0.7910 -1.5092  2.0329
  361MOL0     H47621   6.148  11.573   3.659 -0.6629 -3.3574 -0.8807
  361MOL0     H47622   6.283  11.447   3.806 -1.0497 -1.4013  0.5052
  361MOL0     H47623   6.202  11.507   3.949  2.8844  1.4367  1.8877
  361MOL0     H47624   6.402  11.654   3.758 -2.4792  1.1445 -0.1861
  361MOL0     H47625   6.295  11.750   3.862 -3.1483 -1.1967 -1.5445
  361MOL0     H47626   6.406  11.678   4.061 -1.8302 -2.0107  0.7600
  361MOL0     H47627   6.525  11.727   3.933 -1.0513  2.0395  0.6976
  361MOL0     H47628   6.577  11.519   3.871 -1.1411 -0.8731 -1.0075
  361MOL0     H47629   6.455  11.432   3.966  0.5230 -0.5757  2.1670
  361MOL0     H47630   6.712  11.555   4.066  0.0115  0.6096  2.0851
  361MOL0     H47631   6.572  11.532   4.175  0.2422  0.0711  1.3786
  361MOL0     H47632   6.726  11.334   4.211 -2.0699 -4.5497  0.6498
  361MOL0     H47633   6.735  11.321   4.036 -1.1154  1.6911 -1.1450
  361MOL0     H47634   5.867  11.419   4.118  1.3933 -2.0887 -0.1655
  361MOL0     H47635   5.700  11.262   4.208 -0.6721  0.5452  0.6712
  361MOL0     H47636   5.333  10.984   3.949 -2.4431  0.1669 -0.7087
  361MOL0     H47637   5.113  10.907   3.973 -0.0997 -0.5195  0.8547
  361MOL0     H47638   5.086  10.146   4.403 -0.3549 -5.1595 -1.7343
  361MOL0     H47639   5.291  10.122   4.310  2.3225 -0.1586 -0.9529
  361MOL0     H47640   5.738   9.962   4.379 -1.8171 -0.9213 -1.8284
  361MOL0     H47641   5.957   9.904   4.274  1.8725  0.6710 -0.0468
  361MOL0     H47642   6.157   9.899   4.118  2.8456 -1.9698 -1.2115
  361MOL0     H47643   6.191   9.905   4.291  0.5296  1.1919  0.2296
  361MOL0     H47644   6.385  10.003   4.269 -1.6377 -2.2946  2.0984
  361MOL0     H47645   6.376   9.852   4.163  0.1340 -0.4726  0.7239
  361MOL0     H47646   6.313  10.107   4.028 -1.3953 -2.0363  0.4698
  361MOL0     H47647   6.402   9.954   3.976  2.9247  1.4072 -0.2752
  361MOL0     H47648   6.537  10.159   3.965  0.6117  3.0611  1.1165
  361MOL0     H47649   6.496  10.196   4.126  0.8799  2.5741 -3.2676
  361MOL0     H47650   6.773   9.867   4.183 -0.0219 -1.8203 -3.6106
  361MOL0     H47651   6.020  10.329   4.212 -0.7654  0.0589  0.7394
  361MOL0     H47652   5.803  10.373   4.278 -0.3776 -0.0476 -0.0339
  362MOL0     O47653   5.249   3.874   6.223 -0.0513  0.5966 -0.0826
  362MOL0     C47654   5.334   3.792   6.258 -0.2673 -0.2638  0.1145
  362MOL0     O47655   5.318   3.682   6.333  0.2179 -0.5152 -0.0060
  362MOL0     C47656   5.193   3.627   6.357 -0.7081 -0.1494 -0.2068
  362MOL0     C47657   5.074   3.658   6.293 -0.6106  0.0230 -0.6776
  362MOL0     C47658   4.958   3.595   6.320 -0.1687  0.4625 -0.1332
  362MOL0     C47659   4.947   3.500   6.424 -0.5825  0.3574  0.4729
  362MOL0     O47660   4.826   3.450   6.438 -0.0541 -0.6569 -0.4128
  362MOL0     C47661   4.814   3.324   6.496 -0.6455 -0.0493 -0.5326
  362MOL0     C47662   4.880   3.218   6.411  0.0693  0.2888  1.1751
  362MOL0     C47663   4.848   3.229   6.257  0.2412 -0.1231  0.7246
  362MOL0     C47664   4.696   3.226   6.241 -0.6162 -0.9005  0.4588
  362MOL0     C47665   4.635   3.368   6.203 -0.6169  0.2486 -0.3851
  362MOL0     C47666   4.485   3.352   6.165  0.1375 -0.2162 -0.6632
  362MOL0     C47667   4.432   3.491   6.126  0.9005 -0.0499 -0.0641
  362MOL0     C47668   4.431   3.600   6.242  0.8206 -0.7299 -0.6798
  362MOL0     N47669   4.362   3.553   6.359 -0.1257 -0.3300 -0.4063
  362MOL0     C47670   4.429   3.523   6.477 -0.6364 -0.6938 -0.2791
  362MOL0     C47671   4.345   3.431   6.544 -0.7053 -0.3242  0.9250
  362MOL0     C47672   4.368   3.350   6.670 -0.3451 -0.5266  0.3795
  362MOL0     C47673   4.319   3.199   6.652  0.3042 -0.4571 -0.6794
  362MOL0     C47674   4.402   3.130   6.543  0.2985  0.6198 -0.2083
  362MOL0     C47675   4.408   2.982   6.569  0.5610  0.2659 -0.7080
  362MOL0     O47676   4.471   2.954   6.701  0.3637 -0.4996 -0.4034
  362MOL0     C47677   4.601   2.959   6.695 -0.1486 -0.3854 -0.7354
  362MOL0     C47678   4.669   3.070   6.750  0.3313 -0.1136 -0.0453
  362MOL0     C47679   4.804   3.080   6.764  0.5131  0.5332 -0.0339
  362MOL0     C47680   4.887   2.985   6.712  0.4042  0.9005 -0.4895
  362MOL0     C47681   5.039   2.999   6.705  1.2282 -0.3579 -0.4341
  362MOL0     O47682   5.093   3.112   6.768 -0.5003 -0.0387  0.3524
  362MOL0     C47683   5.229   3.122   6.790 -1.0326  1.0702 -1.0867
  362MOL0     C47684   5.339   3.104   6.699 -0.3549 -0.6148  1.4514
  362MOL0     C47685   5.475   3.116   6.739 -0.4531 -0.3720 -0.6780
  362MOL0     C47686   5.519   3.130   6.873  0.8393  0.2737 -0.2175
  362MOL0     O47687   5.650   3.122   6.890 -0.0422 -0.0098  0.0710
  362MOL0     C47688   5.716   3.168   7.010  1.1631 -0.3087 -0.6542
  362MOL0     C47689   5.869   3.177   6.983  0.6436 -0.4281 -0.8040
  362MOL0     C47690   5.943   3.244   7.099  0.9109  0.8915  0.1303
  362MOL0     C47691   6.097   3.273   7.068 -0.4116 -0.8667 -0.0181
  362MOL0     C47692   6.115   3.403   6.979  0.2023  0.1896 -0.0014
  362MOL0     C47693   6.267   3.406   6.933  0.2267  0.3055 -0.0480
  362MOL0     C47694   6.364   3.444   7.049  0.6460 -1.0263  0.3009
  362MOL0     C47695   6.500   3.483   7.005 -0.4358  0.0468 -0.1475
  362MOL0    Cl47696   6.611   3.531   7.139 -0.4104 -0.3795 -0.0503
  362MOL0     C47697   5.416   3.161   6.964  0.9930 -0.4248 -0.2271
  362MOL0     C47698   5.274   3.158   6.922 -0.0948  0.3321 -0.7774
  362MOL0     O47699   5.108   2.908   6.661  0.2960 -0.3183 -0.5857
  362MOL0     C47700   4.827   2.865   6.668 -0.4480 -0.3517  0.8729
  362MOL0     C47701   4.688   2.860   6.648  0.6052  0.6899 -0.6420
  362MOL0     N47702   4.225   3.428   6.478 -0.2391  0.8641 -0.2196
  362MOL0     N47703   4.233   3.504   6.375 -0.1725  0.5075  0.3859
  362MOL0     C47704   5.064   3.473   6.493 -0.3432  0.8004  0.4074
  362MOL0     C47705   5.184   3.535   6.465 -0.7295 -0.2005  0.4453
  362MOL0     C47706   5.475   3.824   6.210  0.4480  0.0096 -0.6353
  362MOL0     C47707   5.502   3.914   6.107  0.2151  0.0207 -0.2678
  362MOL0     C47708   5.630   3.933   6.057  0.4407  0.2117 -0.0043
  362MOL0     C47709   5.740   3.859   6.122  0.2380 -0.1366  0.2645
  362MOL0     O47710   5.868   3.866   6.087 -0.0368  0.4586  0.2206
  362MOL0     C47711   5.920   3.943   5.979  0.2475  0.0187 -0.1967
  362MOL0     C47712   5.976   3.855   5.866  0.1505  0.6479 -0.1864
  362MOL0     C47713   5.993   3.937   5.735 -0.2285  0.0079  0.7354
  362MOL0     C47714   5.861   4.002   5.679  0.3682  0.5223 -0.8440
  362MOL0     C47715   5.742   3.916   5.685  0.0805 -0.4431  0.5170
  362MOL0     C47716   5.645   3.852   5.678 -0.0065  0.9385 -0.2898
  362MOL0     C47717   5.711   3.774   6.235 -0.5908  0.0554 -0.4947
  362MOL0     C47718   5.577   3.752   6.264  0.6427  0.4860  0.4665
  362MOL0     H47719   5.067   3.728   6.211  1.8750 -0.3452 -1.2745
  362MOL0     H47720   4.873   3.614   6.255 -1.1677  0.4495  1.1117
  362MOL0     H47721   4.709   3.300   6.512  0.4993 -5.0708  1.4555
  362MOL0     H47722   4.859   3.318   6.595 -1.2552 -1.0853 -0.3004
  362MOL0     H47723   4.861   3.119   6.455  0.0976 -0.8034 -1.1077
  362MOL0     H47724   4.989   3.224   6.422  0.4997 -2.7065 -0.3068
  362MOL0     H47725   4.895   3.147   6.204  3.9664  1.2970  1.5152
  362MOL0     H47726   4.889   3.324   6.220  0.6798  1.1383  4.0525
  362MOL0     H47727   4.684   3.153   6.160 -0.5068  0.2561 -0.6445
  362MOL0     H47728   4.650   3.186   6.331  0.8454 -1.8681  0.8218
  362MOL0     H47729   4.694   3.427   6.132  1.4235 -2.8890 -1.5565
  362MOL0     H47730   4.635   3.438   6.287  1.3179  1.8835 -1.6497
  362MOL0     H47731   4.423   3.305   6.243  0.4560  2.0839  1.0730
  362MOL0     H47732   4.471   3.293   6.074  2.0861  1.0509 -1.8474
  362MOL0     H47733   4.495   3.536   6.049  0.1960 -0.3407 -0.8287
  362MOL0     H47734   4.330   3.482   6.088  1.1005 -2.2357 -0.2059
  362MOL0     H47735   4.382   3.693   6.212 -2.4334 -0.9672  3.0327
  362MOL0     H47736   4.533   3.631   6.268 -0.0835  2.0117 -0.1244
  362MOL0     H47737   4.530   3.554   6.503 -1.4651  2.0848 -0.0910
  362MOL0     H47738   4.321   3.405   6.751  3.8384  1.1621  1.8917
  362MOL0     H47739   4.473   3.356   6.697  0.2258 -1.7222 -1.3747
  362MOL0     H47740   4.213   3.181   6.634 -0.1512 -1.9803  2.7573
  362MOL0     H47741   4.337   3.152   6.749 -2.3362  2.6721  1.5297
  362MOL0     H47742   4.356   3.142   6.444 -0.3639  0.8672  0.1285
  362MOL0     H47743   4.507   3.159   6.541  0.6913 -0.6495  0.7201
  362MOL0     H47744   4.462   2.927   6.491 -0.6185  0.1850 -1.4764
  362MOL0     H47745   4.305   2.947   6.574 -0.0068  2.0038  1.1864
  362MOL0     H47746   4.602   3.146   6.787 -1.0835 -0.3092 -2.0431
  362MOL0     H47747   4.852   3.172   6.797 -1.8344  1.8817 -0.1300
  362MOL0     H47748   5.312   3.093   6.595 -0.5813 -0.4177  1.4895
  362MOL0     H47749   5.556   3.115   6.667  0.7065  1.3013  0.5016
  362MOL0     H47750   5.701   3.095   7.091  0.3094  2.8219  2.2281
  362MOL0     H47751   5.670   3.262   7.041  1.7038  0.2724 -1.5920
  362MOL0     H47752   5.883   3.236   6.892  2.4070 -0.2043 -0.4111
  362MOL0     H47753   5.910   3.076   6.974  2.0120 -0.0310  0.6248
  362MOL0     H47754   5.935   3.175   7.183  0.8169 -0.3686 -0.8842
  362MOL0     H47755   5.896   3.341   7.122  3.6646  2.5774 -0.9245
  362MOL0     H47756   6.142   3.283   7.167 -3.6313 -0.4116  1.5237
  362MOL0     H47757   6.150   3.188   7.024 -0.6099 -1.9846  1.7997
  362MOL0     H47758   6.087   3.497   7.027 -1.0304  1.3108 -2.7124
  362MOL0     H47759   6.054   3.397   6.889 -0.4302  2.7274  0.1889
  362MOL0     H47760   6.282   3.479   6.853  3.3075  2.0063  1.8627
  362MOL0     H47761   6.290   3.304   6.900 -1.0068 -0.2384  0.7090
  362MOL0     H47762   6.327   3.533   7.101 -2.1286 -3.2933  2.6036
  362MOL0     H47763   6.364   3.357   7.115 -0.2647 -0.5456  0.9661
  362MOL0     H47764   6.509   3.564   6.932 -0.6219  0.1552 -0.0502
  362MOL0     H47765   6.549   3.394   6.963 -1.2524 -0.9891  1.0120
  362MOL0     H47766   5.443   3.163   7.069  1.0977 -0.3907 -0.2541
  362MOL0     H47767   5.199   3.174   6.999  0.3544  1.0015 -0.4701
  362MOL0     H47768   4.891   2.789   6.625  1.6973  1.8146 -0.0459
  362MOL0     H47769   4.641   2.770   6.610  1.6563 -1.4793  2.6709
  362MOL0     H47770   5.055   3.395   6.567 -1.6053 -1.4112 -1.9081
  362MOL0     H47771   5.272   3.499   6.518 -1.1146 -0.7516  0.7178
  362MOL0     H47772   5.417   3.957   6.056  2.0640  1.6308 -2.2127
  362MOL0     H47773   5.649   3.985   5.963  0.0138  1.5073  0.5882
  362MOL0     H47774   6.006   3.993   6.024 -0.8788  0.4342  1.5837
  362MOL0     H47775   5.853   4.025   5.955  1.0023  0.3772 -1.1079
  362MOL0     H47776   6.073   3.818   5.901  1.5397  0.8957 -3.4486
  362MOL0     H47777   5.897   3.780   5.851 -2.2392  2.6314  1.5512
  362MOL0     H47778   6.031   3.869   5.659 -0.4217  0.4574  0.2257
  362MOL0     H47779   6.070   4.012   5.756  0.8503 -0.1551 -2.1577
  362MOL0     H47780   5.846   4.087   5.747 -0.7617 -0.1313 -0.2340
  362MOL0     H47781   5.886   4.035   5.578  1.0769  2.6143 -0.0457
  362MOL0     H47782   5.561   3.787   5.693 -0.3243  1.3084 -0.4362
  362MOL0     H47783   5.790   3.722   6.289 -0.0338  2.6982  1.4099
  362MOL0     H47784   5.551   3.680   6.342  0.4775 -1.2539 -1.1081
  363MOL0     O47785   5.313   8.613   2.187  0.1303  0.8735 -0.1672
  363MOL0     C47786   5.392   8.652   2.272 -0.2246  0.0054  0.2154
  363MOL0     O47787   5.425   8.584   2.389 -0.1733 -0.6050  0.7350
  363MOL0     C47788   5.358   8.467   2.423  0.2101  0.4077 -0.4459
  363MOL0     C47789   5.218   8.460   2.437 -0.6615  0.6557  0.2035
  363MOL0     C47790   5.162   8.338   2.483  0.0281 -0.4029 -0.3428
  363MOL0     C47791   5.243   8.226   2.504 -0.0619 -0.2461  0.2757
  363MOL0     O47792   5.181   8.106   2.517 -0.2900  0.3186 -0.4389
  363MOL0     C47793   5.126   8.047   2.405  0.9071 -0.2373  0.5749
  363MOL0     C47794   5.118   7.896   2.425 -0.0558  0.5024 -0.1469
  363MOL0     C47795   5.032   7.850   2.547 -0.3316 -0.0237 -0.0779
  363MOL0     C47796   4.904   7.789   2.493  0.8327 -0.5702  0.0228
  363MOL0     C47797   4.800   7.735   2.598 -0.7120 -0.2147  0.2955
  363MOL0     C47798   4.686   7.671   2.532  0.2039 -0.2945  0.0904
  363MOL0     C47799   4.590   7.621   2.648  0.3121  0.6819 -0.3855
  363MOL0     C47800   4.464   7.549   2.587  0.0794  1.1359 -0.0432
  363MOL0     N47801   4.357   7.506   2.681 -0.1687  0.0368 -0.1678
  363MOL0     C47802   4.249   7.584   2.699  0.9929 -1.1089 -0.4384
  363MOL0     C47803   4.175   7.531   2.798 -0.2656  0.4920 -0.3587
  363MOL0     C47804   4.060   7.581   2.884  0.7397  0.3393 -0.4518
  363MOL0     C47805   3.978   7.482   2.958 -0.2270  0.4546  0.1629
  363MOL0     C47806   4.050   7.420   3.082  1.6697 -0.3535 -0.6093
  363MOL0     C47807   3.984   7.295   3.127  0.3353  0.1632 -0.4011
  363MOL0     O47808   3.859   7.340   3.177 -0.2665 -0.5294 -0.1529
  363MOL0     C47809   3.763   7.250   3.212  0.6364  0.3659  0.0427
  363MOL0     C47810   3.752   7.112   3.175 -0.8403 -0.2821  0.6400
  363MOL0     C47811   3.653   7.029   3.204  0.4598 -0.0674 -0.6122
  363MOL0     C47812   3.548   7.086   3.278  0.2720 -0.3872  0.4679
  363MOL0     C47813   3.428   7.010   3.297  0.0020  0.3166 -0.7007
  363MOL0     O47814   3.313   7.066   3.355 -0.0182 -0.6879  0.1283
  363MOL0     C47815   3.209   6.982   3.359  0.0437 -0.7027  0.1871
  363MOL0     C47816   3.199   6.889   3.457 -0.2078  0.0509 -0.3392
  363MOL0     C47817   3.076   6.808   3.478  0.1595  0.1911  0.1273
  363MOL0     C47818   2.966   6.846   3.398 -0.2106 -0.5204  0.4828
  363MOL0     O47819   2.844   6.792   3.404  0.7904  0.6519  0.3257
  363MOL0     C47820   2.809   6.704   3.507 -0.9468  0.3175  0.0725
  363MOL0     C47821   2.660   6.688   3.512 -0.0365 -0.2373 -0.1189
  363MOL0     C47822   2.612   6.651   3.369  0.1588 -0.3065 -0.5258
  363MOL0     C47823   2.474   6.577   3.378  0.1884  0.8334 -0.5303
  363MOL0     C47824   2.449   6.495   3.256  0.1268 -0.1618  0.6185
  363MOL0     C47825   2.314   6.422   3.264  0.6333  0.0426  0.1957
  363MOL0     C47826   2.182   6.505   3.266 -0.5889 -0.3743 -0.2924
  363MOL0     C47827   2.066   6.454   3.173 -0.2159 -0.9677 -0.6210
  363MOL0    Cl47828   1.993   6.297   3.244  0.0795 -0.1750  0.3134
  363MOL0     C47829   2.977   6.948   3.298  0.4315  1.0676 -0.8223
  363MOL0     C47830   3.096   7.019   3.284  0.3996  0.0750  0.2274
  363MOL0     O47831   3.428   6.895   3.251  0.9264 -0.6456  0.1270
  363MOL0     C47832   3.553   7.215   3.328  0.4998 -1.3550  0.4003
  363MOL0     C47833   3.658   7.292   3.295 -0.0446  0.3556  0.6460
  363MOL0     N47834   4.252   7.416   2.837  0.6744  0.3127 -0.1830
  363MOL0     N47835   4.363   7.404   2.771 -0.8922  0.3724 -0.1512
  363MOL0     C47836   5.380   8.236   2.486  0.4218 -1.1455 -0.4398
  363MOL0     C47837   5.438   8.359   2.450  0.3239  0.1237  0.7582
  363MOL0     C47838   5.461   8.778   2.230  0.5789 -0.0646  0.4163
  363MOL0     C47839   5.561   8.827   2.310 -0.5910 -0.2820  0.3854
  363MOL0     C47840   5.623   8.951   2.282  0.5149  1.3303 -0.1338
  363MOL0     C47841   5.592   9.019   2.157 -1.2724 -0.1862 -0.0379
  363MOL0     O47842   5.660   9.124   2.107 -0.2342  0.4033 -0.3414
  363MOL0     C47843   5.766   9.184   2.168 -0.0812 -0.4693  0.1038
  363MOL0     C47844   5.895   9.106   2.125  0.4802  0.2009 -0.7467
  363MOL0     C47845   5.914   9.113   1.974 -0.3416 -1.0846  0.4698
  363MOL0     C47846   6.064   9.088   1.934  0.2845  0.8177 -0.2295
  363MOL0     C47847   6.121   8.961   1.986  0.6472 -1.3360 -0.3309
  363MOL0     C47848   6.158   8.859   2.043 -0.8301 -0.2784  0.3437
  363MOL0     C47849   5.493   8.963   2.079 -0.5329 -0.2603 -0.0635
  363MOL0     C47850   5.425   8.847   2.114  0.0626  0.1120  0.5083
  363MOL0     H47851   5.149   8.540   2.412 -2.1953 -0.6343  0.0811
  363MOL0     H47852   5.054   8.335   2.495 -0.2375  0.3431 -2.2646
  363MOL0     H47853   5.193   8.071   2.323  0.2255 -3.4115 -1.0884
  363MOL0     H47854   5.029   8.092   2.384  2.1005  1.3041 -2.1367
  363MOL0     H47855   5.220   7.859   2.442  0.5297  0.3335 -3.3136
  363MOL0     H47856   5.090   7.851   2.329  1.0706  0.5858 -0.5353
  363MOL0     H47857   5.021   7.938   2.611  4.8411 -0.1308  1.4565
  363MOL0     H47858   5.103   7.787   2.600  1.6588  1.0367 -1.3426
  363MOL0     H47859   4.851   7.867   2.436 -1.1709 -1.1896  0.9656
  363MOL0     H47860   4.925   7.707   2.424  0.4203 -1.0378  0.4530
  363MOL0     H47861   4.766   7.817   2.661  0.8855  0.3243  0.5183
  363MOL0     H47862   4.855   7.663   2.659 -1.0286  1.0914  2.1760
  363MOL0     H47863   4.724   7.581   2.483  1.0613 -0.0283  0.2634
  363MOL0     H47864   4.648   7.741   2.457 -0.1295 -0.2563  0.2907
  363MOL0     H47865   4.648   7.554   2.711  3.3792  0.3865 -3.2267
  363MOL0     H47866   4.551   7.706   2.705 -0.8386  1.1257 -1.7880
  363MOL0     H47867   4.497   7.462   2.529 -0.8448  1.8284 -1.6554
  363MOL0     H47868   4.431   7.624   2.514  2.9899  1.9528 -0.6291
  363MOL0     H47869   4.219   7.662   2.630 -2.7596 -0.9715  1.0647
  363MOL0     H47870   3.984   7.634   2.824  1.1011 -0.3863 -1.5906
  363MOL0     H47871   4.092   7.656   2.957  1.6159  1.5080 -1.9707
  363MOL0     H47872   3.971   7.392   2.897  0.6430 -0.3426  1.1985
  363MOL0     H47873   3.879   7.524   2.981  0.1707  0.8770  1.1693
  363MOL0     H47874   4.156   7.401   3.067  2.0235 -2.2154  3.0774
  363MOL0     H47875   4.055   7.495   3.162 -0.1420  1.7523 -2.3329
  363MOL0     H47876   4.041   7.251   3.210  3.2091  1.9257 -1.3017
  363MOL0     H47877   3.998   7.232   3.039 -0.1528  1.3593 -1.3652
  363MOL0     H47878   3.833   7.074   3.114  0.6142 -0.4369  2.5653
  363MOL0     H47879   3.656   6.931   3.158 -1.4070  0.9400 -3.1394
  363MOL0     H47880   3.280   6.867   3.526 -0.7249  0.5852  0.4510
  363MOL0     H47881   3.069   6.728   3.550 -1.7225 -0.0249 -0.2569
  363MOL0     H47882   2.847   6.736   3.604 -3.3501  0.1935  1.1308
  363MOL0     H47883   2.856   6.607   3.488 -0.7304  0.5966 -0.9077
  363MOL0     H47884   2.605   6.781   3.531  1.2352  0.7016 -0.8738
  363MOL0     H47885   2.633   6.612   3.587 -3.9696  1.7226  0.7477
  363MOL0     H47886   2.683   6.579   3.327  1.4809  1.7837 -2.0871
  363MOL0     H47887   2.599   6.744   3.314 -1.0569  0.7614  1.4690
  363MOL0     H47888   2.474   6.510   3.465  2.3525  0.4356 -0.7568
  363MOL0     H47889   2.395   6.651   3.393 -1.2633 -0.1953 -2.5753
  363MOL0     H47890   2.525   6.422   3.230 -1.3504 -1.2306 -0.9001
  363MOL0     H47891   2.439   6.566   3.173  0.9780  2.9097  2.9563
  363MOL0     H47892   2.305   6.340   3.336 -2.6475  0.2507  0.2021
  363MOL0     H47893   2.316   6.365   3.171  3.7491 -1.1160  0.8519
  363MOL0     H47894   2.150   6.533   3.367  1.2985  1.8123 -0.2140
  363MOL0     H47895   2.197   6.607   3.229 -1.9477 -0.1517 -0.2922
  363MOL0     H47896   2.113   6.426   3.078  0.5706 -2.6889  0.2421
  363MOL0     H47897   1.980   6.522   3.165 -1.0084 -1.6128  1.7227
  363MOL0     H47898   2.897   6.958   3.226 -0.6418 -0.4932  0.0886
  363MOL0     H47899   3.106   7.096   3.209  1.8202  1.7306  2.0184
  363MOL0     H47900   3.489   7.264   3.399  0.1477  0.6069 -1.1829
  363MOL0     H47901   3.668   7.397   3.321  0.0736  0.8423 -1.1857
  363MOL0     H47902   5.453   8.156   2.495 -0.1011 -1.5745 -0.0026
  363MOL0     H47903   5.545   8.365   2.432  0.1587  2.0408  0.1253
  363MOL0     H47904   5.589   8.768   2.397  0.4537 -1.3284 -0.6305
  363MOL0     H47905   5.693   8.989   2.355  1.5898 -1.7209  0.5878
  363MOL0     H47906   5.756   9.195   2.277  5.1002  0.4992  0.7461
  363MOL0     H47907   5.769   9.286   2.131 -1.2246  0.3750  2.1421
  363MOL0     H47908   5.978   9.154   2.179  0.7319 -1.7645  0.7339
  363MOL0     H47909   5.880   9.002   2.153 -3.5712  0.3103 -1.8901
  363MOL0     H47910   5.886   9.216   1.949 -1.6461 -0.8900  2.4541
  363MOL0     H47911   5.841   9.048   1.924  0.3274 -1.2053 -0.3620
  363MOL0     H47912   6.069   9.100   1.826 -0.5418  0.9643 -0.2546
  363MOL0     H47913   6.127   9.169   1.973  1.4797  0.6332 -1.6865
  363MOL0     H47914   6.183   8.768   2.093  2.0508  0.2881  0.0715
  363MOL0     H47915   5.464   9.023   1.993 -1.8144  0.5179  0.8878
  363MOL0     H47916   5.354   8.812   2.040 -0.7308  3.6245 -0.6046
  364MOL0     O47917  11.269   1.061   9.484 -0.0652 -0.1069 -0.4545
  364MOL0     C47918  11.350   1.021   9.401 -0.3399  0.0296  0.2519
  364MOL0     O47919  11.315   0.969   9.284  0.1044  0.2112  0.1734
  364MOL0     C47920  11.187   0.926   9.271 -0.3378  0.1851  0.4729
  364MOL0     C47921  11.097   1.013   9.201 -0.6974 -0.2514 -0.5873
  364MOL0     C47922  10.959   0.994   9.201  0.7932  0.1071 -0.3347
  364MOL0     C47923  10.902   0.878   9.258  0.3909  0.8911 -0.1080
  364MOL0     O47924  10.761   0.863   9.253  0.0990  0.1049  1.1715
  364MOL0     C47925  10.712   0.767   9.355 -0.6812  0.4220  0.5266
  364MOL0     C47926  10.564   0.754   9.340  0.2894 -0.1064  0.7293
  364MOL0     C47927  10.517   0.647   9.435  1.0621 -0.6762 -0.0395
  364MOL0     C47928  10.362   0.644   9.443  0.1174 -0.4834 -0.4837
  364MOL0     C47929  10.297   0.583   9.326  0.2113  0.4045 -0.6700
  364MOL0     C47930  10.142   0.571   9.336  0.2074  0.6017 -0.6550
  364MOL0     C47931  10.106   0.501   9.204 -0.2961 -0.2698 -0.2315
  364MOL0     C47932   9.955   0.531   9.177  0.2075  0.4620 -0.8901
  364MOL0     N47933   9.938   0.654   9.113 -0.2705 -0.1702 -0.6382
  364MOL0     C47934   9.888   0.761   9.175  0.2727  0.7095 -0.2521
  364MOL0     C47935   9.892   0.862   9.076  0.9872  1.8480 -0.2412
  364MOL0     C47936   9.840   1.001   9.095  0.5593 -0.7114 -0.8920
  364MOL0     C47937   9.723   1.012   9.196  0.8345  0.0970 -0.2265
  364MOL0     C47938   9.682   1.162   9.221  0.7251 -0.5823  0.0049
  364MOL0     C47939   9.554   1.197   9.309  0.3673  0.2783  0.6166
  364MOL0     O47940   9.444   1.228   9.225  0.1540 -0.9838 -0.2295
  364MOL0     C47941   9.346   1.296   9.298 -0.0344  0.2765 -0.2904
  364MOL0     C47942   9.268   1.387   9.235  0.3365  0.3301  0.1913
  364MOL0     C47943   9.175   1.457   9.319 -0.1200 -0.5186 -0.4460
  364MOL0     C47944   9.151   1.430   9.456 -0.4255  0.1301 -0.3025
  364MOL0     C47945   9.046   1.503   9.532 -0.1947  0.3326  0.9344
  364MOL0     O47946   8.973   1.581   9.454 -0.2075 -0.1784 -0.2931
  364MOL0     C47947   8.866   1.646   9.506 -0.8208  0.5286  0.6632
  364MOL0     C47948   8.746   1.581   9.532 -0.0271  1.5909 -0.0753
  364MOL0     C47949   8.635   1.628   9.606 -0.0037 -0.5810  0.5233
  364MOL0     C47950   8.643   1.766   9.647  0.7086  0.4140 -0.4345
  364MOL0     O47951   8.552   1.818   9.731  0.7706 -0.1687 -0.5665
  364MOL0     C47952   8.563   1.767   9.870 -0.5833  0.3454 -0.0643
  364MOL0     C47953   8.433   1.727   9.942  0.1864 -0.1077  0.1633
  364MOL0     C47954   8.331   1.641   9.878 -0.6484 -0.1180 -0.8971
  364MOL0     C47955   8.256   1.697   9.752  0.1140  0.6862  0.5107
  364MOL0     C47956   8.136   1.601   9.724  0.5028  0.9307  0.7052
  364MOL0     C47957   8.186   1.473   9.654 -0.6487 -0.7649  1.1371
  364MOL0     C47958   8.079   1.394   9.569 -0.8877  1.1050  0.3833
  364MOL0     C47959   8.146   1.297   9.482  0.6352  0.0043  0.7029
  364MOL0    Cl47960   8.022   1.178   9.419  0.6441 -0.4734  0.0957
  364MOL0     C47961   8.749   1.843   9.609 -0.1994 -0.1323 -0.3657
  364MOL0     C47962   8.871   1.783   9.542 -0.4767  0.0761 -0.7998
  364MOL0     O47963   9.028   1.480   9.652 -0.6955 -0.3543 -0.0333
  364MOL0     C47964   9.216   1.314   9.508 -0.6572 -0.6099 -0.3445
  364MOL0     C47965   9.315   1.258   9.430 -0.7479 -0.5318  0.9789
  364MOL0     N47966   9.946   0.805   8.957  0.2255 -0.1011 -0.3846
  364MOL0     N47967   9.968   0.679   8.984 -0.0588 -0.0436  0.4103
  364MOL0     C47968  10.993   0.791   9.325 -0.7032  0.0080  0.1540
  364MOL0     C47969  11.132   0.816   9.331  1.0602  0.1472 -0.6971
  364MOL0     C47970  11.493   1.037   9.443  0.0220 -0.2979  0.1591
  364MOL0     C47971  11.543   1.037   9.575 -0.5065  0.0552 -0.4823
  364MOL0     C47972  11.677   1.043   9.602  0.3101 -1.3897  0.3252
  364MOL0     C47973  11.775   1.051   9.495  0.2505  0.6799 -0.6451
  364MOL0     O47974  11.900   1.062   9.553  0.1882  0.1377  0.1758
  364MOL0     C47975  12.013   1.066   9.467 -0.6666  0.1211  0.4195
  364MOL0     C47976  12.139   1.040   9.546  0.1074 -0.2810 -0.6912
  364MOL0     C47977  12.171   1.128   9.670 -0.7693 -0.7679  0.4955
  364MOL0     C47978  12.199   1.269   9.632 -0.1355 -0.6443  0.3410
  364MOL0     C47979  12.289   1.302   9.522  0.3516  0.3894  0.0420
  364MOL0     C47980  12.368   1.300   9.430 -0.7332 -0.5590 -0.1814
  364MOL0     C47981  11.730   1.031   9.363 -0.1699  0.0686 -0.2926
  364MOL0     C47982  11.583   1.031   9.340 -0.3403 -0.2617 -0.5536
  364MOL0     H47983  11.140   1.096   9.145 -0.1075 -0.8360 -1.0240
  364MOL0     H47984  10.900   1.072   9.153  3.2678  3.2238  1.2808
  364MOL0     H47985  10.733   0.805   9.455  1.6520 -2.1637  1.1615
  364MOL0     H47986  10.765   0.671   9.355 -0.2602  0.5891  3.1199
  364MOL0     H47987  10.525   0.738   9.239  0.1620  0.2638  0.7194
  364MOL0     H47988  10.532   0.854   9.370 -1.2236 -0.5915  0.8506
  364MOL0     H47989  10.550   0.676   9.535  1.8899 -0.4946 -0.3543
  364MOL0     H47990  10.560   0.549   9.413  2.7944  0.0826 -0.2022
  364MOL0     H47991  10.326   0.593   9.532 -1.5762 -2.2565 -2.0844
  364MOL0     H47992  10.340   0.751   9.456  0.5811 -0.3362 -0.8567
  364MOL0     H47993  10.320   0.478   9.303  0.2374  0.9519 -3.5641
  364MOL0     H47994  10.320   0.638   9.234  0.8276  1.0177 -0.1555
  364MOL0     H47995  10.088   0.663   9.359 -0.7402  0.1585 -1.0592
  364MOL0     H47996  10.124   0.505   9.421 -1.0349  1.4593 -0.2267
  364MOL0     H47997  10.167   0.534   9.119  0.0717  1.8445  0.7926
  364MOL0     H47998  10.123   0.394   9.214  1.1745  0.0069  0.4629
  364MOL0     H47999   9.898   0.535   9.271 -2.0739  2.0543 -2.2473
  364MOL0     H48000   9.907   0.455   9.114 -2.5527  0.5037  0.9637
  364MOL0     H48001   9.829   0.778   9.265 -2.3605 -0.7652 -1.5475
  364MOL0     H48002   9.804   1.050   9.004  2.0904  3.4035  0.4782
  364MOL0     H48003   9.927   1.057   9.130  0.8946 -1.2143 -0.9060
  364MOL0     H48004   9.752   0.964   9.290  1.8248  0.2484 -0.4423
  364MOL0     H48005   9.636   0.952   9.167  0.4927 -0.8197  2.3834
  364MOL0     H48006   9.763   1.205   9.281 -1.7877  0.2091  3.0825
  364MOL0     H48007   9.682   1.215   9.125  3.2261 -1.6041 -0.6430
  364MOL0     H48008   9.589   1.280   9.372 -0.9972  2.2382 -1.0809
  364MOL0     H48009   9.528   1.113   9.374 -1.0932  0.8905  0.8750
  364MOL0     H48010   9.277   1.414   9.130 -2.6244  0.9492 -0.0006
  364MOL0     H48011   9.120   1.542   9.282  1.4799 -0.2880 -2.4423
  364MOL0     H48012   8.735   1.477   9.503 -0.8376  1.2540  1.2885
  364MOL0     H48013   8.553   1.563   9.637 -0.4816  0.4505  1.4975
  364MOL0     H48014   8.604   1.845   9.935 -0.9751  1.5564 -1.2285
  364MOL0     H48015   8.636   1.687   9.886 -2.6923 -1.5253  0.8020
  364MOL0     H48016   8.376   1.820   9.952  0.2213  0.7855 -5.1748
  364MOL0     H48017   8.458   1.683  10.039  0.8759 -1.0097 -0.4076
  364MOL0     H48018   8.256   1.623   9.955 -0.2690 -1.6387 -0.8520
  364MOL0     H48019   8.386   1.550   9.853 -3.8844 -2.5437  0.0545
  364MOL0     H48020   8.221   1.798   9.774  1.4818  2.0300 -2.9240
  364MOL0     H48021   8.317   1.694   9.661 -0.2021 -0.8174  0.3148
  364MOL0     H48022   8.064   1.641   9.653 -1.3558 -0.9813  1.4191
  364MOL0     H48023   8.077   1.574   9.812 -0.4416 -0.5967 -0.3555
  364MOL0     H48024   8.231   1.407   9.729 -0.8591  0.8771  2.7565
  364MOL0     H48025   8.267   1.502   9.586 -1.9525 -1.1812 -0.6851
  364MOL0     H48026   8.034   1.323   9.639  0.0320 -2.0190 -1.9989
  364MOL0     H48027   8.006   1.449   9.509 -0.8854  0.9569  0.2433
  364MOL0     H48028   8.224   1.242   9.535  0.3876  0.8868  2.0366
  364MOL0     H48029   8.202   1.350   9.405  2.3513 -1.1964  1.0736
  364MOL0     H48030   8.749   1.941   9.655 -0.6454 -1.5454  2.9155
  364MOL0     H48031   8.952   1.852   9.517 -0.2537 -0.2593 -1.0079
  364MOL0     H48032   9.218   1.278   9.610  3.1569 -0.1150 -0.1080
  364MOL0     H48033   9.372   1.182   9.483 -1.2823 -1.9781 -0.4262
  364MOL0     H48034  10.968   0.694   9.367  1.3297 -0.2471  0.8968
  364MOL0     H48035  11.198   0.756   9.393  0.8119 -0.6806 -1.2266
  364MOL0     H48036  11.475   1.033   9.659  1.3192  0.1533  1.0720
  364MOL0     H48037  11.697   1.052   9.708 -1.9933 -3.3921  1.0444
  364MOL0     H48038  12.022   1.164   9.421 -0.4791  0.5927  1.4366
  364MOL0     H48039  12.001   0.992   9.387  1.8145 -1.5682  1.4763
  364MOL0     H48040  12.115   0.941   9.585 -0.1834 -0.5139 -1.4361
  364MOL0     H48041  12.230   1.031   9.486  1.6934 -3.7541  1.9488
  364MOL0     H48042  12.256   1.092   9.728  1.3585  0.4343 -1.6914
  364MOL0     H48043  12.084   1.123   9.737 -0.7729  2.0697  0.8163
  364MOL0     H48044  12.104   1.319   9.611  0.6051  0.2220 -1.1396
  364MOL0     H48045  12.253   1.313   9.716 -1.1030  2.7167 -0.6393
  364MOL0     H48046  12.442   1.294   9.353 -0.2136  0.0870  0.2586
  364MOL0     H48047  11.799   1.022   9.279  1.6796 -1.1912  1.2835
  364MOL0     H48048  11.559   1.019   9.234 -0.0608  1.0118 -0.7768
  365MOL0     O48049   4.463   4.363   9.451 -0.3813 -0.0618  0.3344
  365MOL0     C48050   4.549   4.304   9.379  0.3939  0.8295  0.3798
  365MOL0     O48051   4.679   4.326   9.375 -0.1554  0.0655 -0.9162
  365MOL0     C48052   4.723   4.437   9.445 -0.1783  0.7455  0.6637
  365MOL0     C48053   4.814   4.414   9.556  0.8145  0.2310  0.7564
  365MOL0     C48054   4.889   4.520   9.618  0.3969  0.7308  0.0821
  365MOL0     C48055   4.874   4.649   9.575  0.9998  0.0818  0.0269
  365MOL0     O48056   4.950   4.744   9.637 -0.3876 -0.4780 -0.1968
  365MOL0     C48057   4.954   4.875   9.582  0.0045 -0.4590 -0.0815
  365MOL0     C48058   4.842   4.968   9.648 -0.1099 -0.3888  0.2261
  365MOL0     C48059   4.823   4.934   9.793 -0.6622 -0.4535  0.4107
  365MOL0     C48060   4.702   4.994   9.858 -0.1151 -0.4861  0.3303
  365MOL0     C48061   4.669   4.928   9.994  0.0886 -0.8382 -0.1139
  365MOL0     C48062   4.553   4.998  10.049  0.4260 -0.4319  0.4315
  365MOL0     C48063   4.415   4.935  10.002 -0.9583  0.3899 -0.1160
  365MOL0     C48064   4.307   4.988  10.097 -0.0393 -0.1166 -0.1614
  365MOL0     N48065   4.305   4.934  10.241  0.8657 -0.3729  0.6176
  365MOL0     C48066   4.253   5.002  10.352  0.4461 -0.2588  0.4634
  365MOL0     C48067   4.231   4.899  10.436 -0.1567 -0.4131  0.9507
  365MOL0     C48068   4.177   4.927  10.572 -0.4524 -0.3073 -0.2843
  365MOL0     C48069   4.043   4.852  10.591  0.6351 -1.0187  0.3608
  365MOL0     C48070   3.927   4.926  10.512 -0.7337 -0.1372  0.1083
  365MOL0     C48071   3.790   4.861  10.548  0.8485 -0.6851 -0.1076
  365MOL0     O48072   3.696   4.965  10.526  0.4158 -0.1847 -0.6809
  365MOL0     C48073   3.568   4.949  10.578  0.0655  0.5729  0.0549
  365MOL0     C48074   3.485   5.061  10.571 -0.7650  0.4297 -0.2008
  365MOL0     C48075   3.352   5.043  10.599 -0.1998 -0.5336  0.6693
  365MOL0     C48076   3.293   4.921  10.625  0.4425  0.2447 -0.2428
  365MOL0     C48077   3.145   4.919  10.630 -1.0396  0.2771 -0.5091
  365MOL0     O48078   3.067   5.023  10.619 -0.1741  0.8820  0.2659
  365MOL0     C48079   2.941   5.014  10.567 -0.2531  0.6316  0.5231
  365MOL0     C48080   2.901   4.915  10.472 -0.2271  0.2315  0.0909
  365MOL0     C48081   2.768   4.916  10.429 -0.4699  0.0348 -0.6351
  365MOL0     C48082   2.670   5.001  10.488  0.5977 -1.6137 -0.2274
  365MOL0     O48083   2.540   4.993  10.440  0.1496  0.2205  0.5618
  365MOL0     C48084   2.480   5.128  10.418 -0.0504 -0.1655  0.1257
  365MOL0     C48085   2.343   5.108  10.355 -0.0593 -0.1202 -0.8878
  365MOL0     C48086   2.230   5.116  10.461 -0.2645  0.0771 -0.2386
  365MOL0     C48087   2.086   5.102  10.389  0.3100 -0.4793  0.5657
  365MOL0     C48088   2.077   5.007  10.260 -0.3712 -0.3103 -0.2444
  365MOL0     C48089   1.948   4.970  10.193  0.7494  0.9016  0.1434
  365MOL0     C48090   1.832   4.920  10.288  0.9127  0.4934  0.5099
  365MOL0     C48091   1.723   4.835  10.219 -0.1928 -0.3927 -0.2657
  365MOL0    Cl48092   1.792   4.678  10.155  0.1262  0.0342 -0.2172
  365MOL0     C48093   2.711   5.092  10.593  0.1615  0.1841 -0.0030
  365MOL0     C48094   2.846   5.093  10.632  0.2311 -0.1793 -0.4517
  365MOL0     O48095   3.100   4.801  10.634 -0.0004 -1.2681  1.5269
  365MOL0     C48096   3.379   4.816  10.621  0.2467  0.7367  0.1118
  365MOL0     C48097   3.514   4.822  10.614 -0.6611 -0.2714 -0.9783
  365MOL0     N48098   4.279   4.784  10.385  0.3667 -0.4459  0.6005
  365MOL0     N48099   4.325   4.806  10.268 -0.1182 -1.4154  0.1285
  365MOL0     C48100   4.773   4.668   9.470  0.4508  0.8624  1.0143
  365MOL0     C48101   4.705   4.568   9.403 -0.2174 -0.3580  1.3257
  365MOL0     C48102   4.492   4.196   9.295 -0.4816  0.3317  0.1819
  365MOL0     C48103   4.580   4.129   9.211 -0.2543  0.2336 -1.8651
  365MOL0     C48104   4.541   4.013   9.127 -0.3471  0.1668  0.0421
  365MOL0     C48105   4.408   3.971   9.136  0.2974 -1.0875 -0.4373
  365MOL0     O48106   4.359   3.865   9.066  0.1064  0.7024  0.0074
  365MOL0     C48107   4.385   3.738   9.135  0.3683 -0.0658 -0.7355
  365MOL0     C48108   4.432   3.740   9.285 -0.0282 -0.6078 -0.0600
  365MOL0     C48109   4.434   3.591   9.335  0.4520 -0.1884  0.9037
  365MOL0     C48110   4.457   3.576   9.492 -0.5541 -0.7219 -0.7084
  365MOL0     C48111   4.596   3.608   9.526  0.2288  0.4379  0.1977
  365MOL0     C48112   4.704   3.641   9.565 -0.3454 -0.0551  0.0760
  365MOL0     C48113   4.319   4.027   9.231  0.8181 -0.0715 -0.5649
  365MOL0     C48114   4.356   4.143   9.307  0.0604 -0.1350  0.3804
  365MOL0     H48115   4.822   4.310   9.589  0.4882 -0.6991 -1.8888
  365MOL0     H48116   4.957   4.514   9.702  0.3886  1.3013  0.1323
  365MOL0     H48117   4.938   4.878   9.474 -3.5094 -1.3209  0.2819
  365MOL0     H48118   5.052   4.919   9.607 -1.0288  0.3552  3.0506
  365MOL0     H48119   4.747   4.953   9.598 -1.4357  0.8184  2.2393
  365MOL0     H48120   4.873   5.073   9.644 -1.8627  0.2604  2.0206
  365MOL0     H48121   4.918   4.947   9.845 -1.6822 -0.8499  2.4622
  365MOL0     H48122   4.807   4.827   9.779  0.4203 -0.3924 -1.8917
  365MOL0     H48123   4.702   5.103   9.865 -1.5000 -0.2966 -1.5993
  365MOL0     H48124   4.620   4.974   9.789 -0.3014  2.1869 -0.3399
  365MOL0     H48125   4.753   4.929  10.064  1.3934 -2.4267 -1.5532
  365MOL0     H48126   4.651   4.821   9.977  1.2167 -1.2451  1.1284
  365MOL0     H48127   4.551   5.106  10.028 -0.8974  0.2379  3.4512
  365MOL0     H48128   4.553   4.997  10.158 -2.9019  1.9278  0.6153
  365MOL0     H48129   4.395   4.958   9.898 -1.1551 -2.7213 -0.8782
  365MOL0     H48130   4.415   4.825  10.008 -0.7107  0.4473  1.3947
  365MOL0     H48131   4.213   4.986  10.041 -0.6586  4.3475  0.3572
  365MOL0     H48132   4.318   5.096  10.110  1.2406 -0.2282 -0.2134
  365MOL0     H48133   4.236   5.108  10.373 -1.4304  0.6111 -4.2821
  365MOL0     H48134   4.167   5.035  10.586 -1.7892 -0.5248  0.5642
  365MOL0     H48135   4.250   4.881  10.638 -0.7012  0.5596  0.6175
  365MOL0     H48136   4.024   4.840  10.698 -1.7350  0.9957  0.2784
  365MOL0     H48137   4.054   4.757  10.539  0.4355 -1.4898  1.1728
  365MOL0     H48138   3.926   5.028  10.549 -1.7292 -1.1394  3.0850
  365MOL0     H48139   3.947   4.909  10.405 -2.2408 -1.3307 -0.0132
  365MOL0     H48140   3.792   4.817  10.648  3.1211 -1.2594 -0.3376
  365MOL0     H48141   3.775   4.784  10.472 -1.1967  0.4167 -0.9168
  365MOL0     H48142   3.518   5.159  10.537  1.2755  0.4759  1.6298
  365MOL0     H48143   3.295   5.135  10.589  3.5339  1.9553  0.5805
  365MOL0     H48144   2.963   4.837  10.430  0.0779  1.6481 -2.2538
  365MOL0     H48145   2.743   4.840  10.357 -0.1002 -0.0610 -0.6645
  365MOL0     H48146   2.547   5.166  10.340  1.2586 -0.7641  0.9120
  365MOL0     H48147   2.478   5.195  10.504 -1.4215  0.5434 -0.4259
  365MOL0     H48148   2.345   5.012  10.302  0.6655 -1.0181  0.7223
  365MOL0     H48149   2.330   5.195  10.289  2.3026  1.8434  1.0391
  365MOL0     H48150   2.228   5.213  10.511 -1.7287  1.0988 -2.1172
  365MOL0     H48151   2.236   5.028  10.527 -0.3103  0.3863  0.1780
  365MOL0     H48152   2.009   5.075  10.461 -1.0326  1.7961  0.0837
  365MOL0     H48153   2.053   5.201  10.357 -0.0379 -0.3779  1.2233
  365MOL0     H48154   2.125   4.913  10.287  0.4457  0.6756  1.9153
  365MOL0     H48155   2.139   5.052  10.181  0.8897 -0.3872  0.6751
  365MOL0     H48156   1.973   4.884  10.131 -0.2822 -0.6544  1.7836
  365MOL0     H48157   1.910   5.053  10.133  0.3657 -1.0857 -2.5205
  365MOL0     H48158   1.861   4.866  10.378 -1.1572  0.3977  1.1672
  365MOL0     H48159   1.797   5.013  10.334 -1.1048  0.4148 -0.7466
  365MOL0     H48160   1.681   4.896  10.138  3.8370  1.0228 -1.4980
  365MOL0     H48161   1.636   4.814  10.281  0.8729  1.5194  2.0189
  365MOL0     H48162   2.630   5.154  10.629  0.4290  2.6438 -3.1332
  365MOL0     H48163   2.877   5.147  10.721 -2.0705  1.6426 -0.6624
  365MOL0     H48164   3.327   4.721  10.620  0.5134  0.5873  0.1549
  365MOL0     H48165   3.574   4.732  10.625 -0.3065 -0.1435 -1.8281
  365MOL0     H48166   4.757   4.771   9.442 -2.2293  0.7889  1.9921
  365MOL0     H48167   4.647   4.588   9.313  1.1746  0.2437  0.5415
  365MOL0     H48168   4.685   4.160   9.206  0.3122 -1.2524 -0.1213
  365MOL0     H48169   4.601   3.953   9.059  0.7032  1.6166 -0.3583
  365MOL0     H48170   4.457   3.688   9.071  2.0778  1.2780  0.0562
  365MOL0     H48171   4.290   3.686   9.122  0.2902  0.1549 -1.0525
  365MOL0     H48172   4.529   3.791   9.291 -1.5733  2.5661  0.1181
  365MOL0     H48173   4.357   3.791   9.346  0.5619 -1.1441  1.1414
  365MOL0     H48174   4.508   3.527   9.286  0.1191 -0.7192  1.0827
  365MOL0     H48175   4.334   3.550   9.324 -0.7187  2.3774  1.3365
  365MOL0     H48176   4.399   3.625   9.571  0.3719 -3.0545  1.6020
  365MOL0     H48177   4.447   3.469   9.515 -0.3626 -0.4933  0.5206
  365MOL0     H48178   4.806   3.662   9.592 -1.0813  1.3873  2.0231
  365MOL0     H48179   4.219   3.987   9.241  0.4282  0.8268 -0.7872
  365MOL0     H48180   4.272   4.193   9.354 -0.9719 -1.7278  0.3336
  366MOL0     O48181   1.175   4.579   3.608 -0.4405  0.1122  0.0070
  366MOL0     C48182   1.243   4.640   3.691  0.1957  0.5280 -0.7227
  366MOL0     O48183   1.194   4.683   3.808  0.4578  0.6769 -0.8264
  366MOL0     C48184   1.061   4.698   3.833  0.0479 -0.0777 -0.2490
  366MOL0     C48185   1.040   4.741   3.959 -0.4238 -0.1952 -1.1398
  366MOL0     C48186   0.909   4.761   4.005 -0.0511 -0.4059  0.7166
  366MOL0     C48187   0.803   4.730   3.911 -0.9571 -0.2849 -0.8773
  366MOL0     O48188   0.682   4.730   3.970  0.1432  0.6576  0.7515
  366MOL0     C48189   0.561   4.720   3.886  0.6312  0.8122 -0.0440
  366MOL0     C48190   0.449   4.773   3.968  0.4507  0.9908  0.8071
  366MOL0     C48191   0.410   4.660   4.070 -0.8178 -0.9843  0.0490
  366MOL0     C48192   0.264   4.668   4.131 -0.4680 -1.0865  0.3803
  366MOL0     C48193   0.229   4.557   4.216 -0.6580 -0.2727 -0.1710
  366MOL0     C48194   0.096   4.567   4.281 -0.3095  0.2907  0.5540
  366MOL0     C48195   0.065   4.428   4.334  0.3214  0.3686  0.6488
  366MOL0     C48196  -0.073   4.429   4.395 -0.2684  0.0487 -0.2490
  366MOL0     N48197  -0.085   4.318   4.499  0.3697 -0.7125  0.3057
  366MOL0     C48198  -0.149   4.331   4.618  0.6515 -0.5765  0.7513
  366MOL0     C48199  -0.122   4.223   4.683  0.4134  1.1794  0.1105
  366MOL0     C48200  -0.183   4.168   4.810  0.5580  0.0241 -0.4011
  366MOL0     C48201  -0.260   4.270   4.896  0.2590  0.0721  0.0622
  366MOL0     C48202  -0.295   4.233   5.044  0.1287  0.1755 -0.3472
  366MOL0     C48203  -0.349   4.354   5.129  0.2771  0.3888 -0.0923
  366MOL0     O48204  -0.370   4.310   5.260  0.7275  0.1529 -0.0236
  366MOL0     C48205  -0.497   4.264   5.299 -0.2787 -0.5275  0.0540
  366MOL0     C48206  -0.497   4.214   5.427  0.5628 -0.2597 -0.8009
  366MOL0     C48207  -0.620   4.168   5.480 -0.1401  0.1521  0.5810
  366MOL0     C48208  -0.741   4.190   5.410  0.0920  0.1088 -0.5285
  366MOL0     C48209  -0.869   4.145   5.470  0.9175  0.0096 -0.2974
  366MOL0     O48210  -0.875   4.087   5.589  0.1926  0.2828  0.3859
  366MOL0     C48211  -0.996   4.055   5.646 -0.0927  0.7317 -0.1867
  366MOL0     C48212  -1.024   3.915   5.667  0.4243 -0.1687  0.0925
  366MOL0     C48213  -1.150   3.882   5.713  0.3464 -0.2273 -1.0018
  366MOL0     C48214  -1.238   3.980   5.755  0.6581 -0.0502  0.0831
  366MOL0     O48215  -1.354   3.935   5.805  0.3749 -0.4231 -0.2163
  366MOL0     C48216  -1.447   4.035   5.852  0.2607 -0.5926 -0.2188
  366MOL0     C48217  -1.588   3.982   5.838 -0.2126 -0.0527 -0.4984
  366MOL0     C48218  -1.613   3.851   5.906  0.5458  1.3346  0.2858
  366MOL0     C48219  -1.756   3.812   5.870  0.0679 -0.9484 -0.1299
  366MOL0     C48220  -1.800   3.696   5.951  0.7334  0.3973 -0.4743
  366MOL0     C48221  -1.934   3.639   5.905 -0.3359 -0.3429 -0.9243
  366MOL0     C48222  -1.990   3.554   6.020  0.1442  0.2266 -0.2590
  366MOL0     C48223  -2.124   3.509   5.987  0.8000  0.3302 -0.1985
  366MOL0    Cl48224  -2.240   3.640   5.984 -0.2406  0.4288  0.1463
  366MOL0     C48225  -1.198   4.112   5.752 -0.0626  0.4377  1.0015
  366MOL0     C48226  -1.080   4.151   5.694  0.4569  0.1050  0.0238
  366MOL0     O48227  -0.970   4.181   5.403  0.2111  1.1031  0.5912
  366MOL0     C48228  -0.729   4.243   5.285  0.6660 -0.8464  0.4642
  366MOL0     C48229  -0.610   4.281   5.230 -0.3020 -0.3028 -0.0968
  366MOL0     N48230  -0.049   4.143   4.604 -0.5026  0.6958 -0.1594
  366MOL0     N48231  -0.021   4.204   4.497  0.0625  0.2462 -0.1213
  366MOL0     C48232   0.826   4.693   3.781  0.5686  0.4067  0.1162
  366MOL0     C48233   0.955   4.689   3.738  1.5440 -0.1132  0.9101
  366MOL0     C48234   1.387   4.661   3.666  0.6818  0.5562 -0.9607
  366MOL0     C48235   1.469   4.755   3.740  0.0810 -0.8715  0.0173
  366MOL0     C48236   1.602   4.762   3.710  0.3161  0.3486  0.5901
  366MOL0     C48237   1.664   4.677   3.618  0.6043 -0.3987 -0.4093
  366MOL0     O48238   1.792   4.700   3.584 -0.5149 -0.0557 -0.5789
  366MOL0     C48239   1.850   4.611   3.490  0.2428 -0.4537  0.2149
  366MOL0     C48240   1.995   4.667   3.453  0.4693 -0.1837  0.1865
  366MOL0     C48241   1.975   4.807   3.371 -0.6319  0.0131 -0.0457
  366MOL0     C48242   2.105   4.872   3.334 -0.5802 -0.7655 -0.0686
  366MOL0     C48243   2.167   4.927   3.456 -0.0019 -0.2469  0.0937
  366MOL0     C48244   2.207   4.970   3.558  0.0783 -0.1964 -0.4959
  366MOL0     C48245   1.589   4.583   3.561  0.2366  0.6389  0.5591
  366MOL0     C48246   1.453   4.573   3.576  0.3231  1.6238 -0.6927
  366MOL0     H48247   1.105   4.737   4.046 -1.1563 -2.1963 -0.6334
  366MOL0     H48248   0.878   4.783   4.106 -1.5016  0.6272  0.0841
  366MOL0     H48249   0.543   4.617   3.851  1.9346  1.0521 -1.5233
  366MOL0     H48250   0.566   4.764   3.787  1.7221  0.1756 -0.2896
  366MOL0     H48251   0.366   4.783   3.896 -0.0404 -2.7408  0.6620
  366MOL0     H48252   0.469   4.867   4.020  0.8760  1.2534  0.1809
  366MOL0     H48253   0.471   4.654   4.160 -3.3267 -2.4561  1.7997
  366MOL0     H48254   0.406   4.566   4.015 -0.9424 -0.0997 -1.4958
  366MOL0     H48255   0.247   4.756   4.194 -2.0799 -0.3819 -0.9558
  366MOL0     H48256   0.184   4.692   4.060  0.6282 -0.3415 -0.6697
  366MOL0     H48257   0.299   4.549   4.299 -1.1719 -2.6698  0.1046
  366MOL0     H48258   0.237   4.466   4.156 -0.2608 -1.8067  2.0895
  366MOL0     H48259   0.020   4.595   4.208 -0.6678  1.3904  1.3168
  366MOL0     H48260   0.101   4.647   4.356  0.4635 -0.2428  1.0940
  366MOL0     H48261   0.061   4.358   4.250 -1.3385  0.4402  0.6295
  366MOL0     H48262   0.145   4.407   4.405  0.9943 -0.0221 -0.2155
  366MOL0     H48263  -0.160   4.423   4.328 -0.9689  0.3338  0.6086
  366MOL0     H48264  -0.085   4.527   4.443  1.0484 -0.0125  0.2402
  366MOL0     H48265  -0.205   4.416   4.655  0.1688  0.9189 -2.9677
  366MOL0     H48266  -0.100   4.135   4.873 -0.0664 -0.6669  0.0767
  366MOL0     H48267  -0.246   4.083   4.781 -1.5702  0.6998  1.9220
  366MOL0     H48268  -0.359   4.291   4.854 -1.1499 -0.7140  2.7910
  366MOL0     H48269  -0.208   4.366   4.899  0.6167 -0.0283 -1.6107
  366MOL0     H48270  -0.366   4.151   5.032  1.0203 -0.5434 -0.8873
  366MOL0     H48271  -0.209   4.191   5.096  0.3054 -0.8848 -1.4444
  366MOL0     H48272  -0.436   4.401   5.082  1.2365  1.9339 -0.3602
  366MOL0     H48273  -0.267   4.426   5.134 -0.4317  1.1601  3.4235
  366MOL0     H48274  -0.411   4.198   5.491  0.4978  0.7211 -0.4518
  366MOL0     H48275  -0.622   4.130   5.582  3.8898  0.4904  0.9360
  366MOL0     H48276  -0.953   3.842   5.629 -1.7591  0.0653 -5.2952
  366MOL0     H48277  -1.163   3.775   5.723  2.1871 -0.5120 -1.2776
  366MOL0     H48278  -1.442   4.134   5.806 -0.6911  0.5711  1.9909
  366MOL0     H48279  -1.426   4.037   5.960 -0.3398  2.7421 -0.0413
  366MOL0     H48280  -1.620   3.973   5.733  0.8244  1.1699 -0.9500
  366MOL0     H48281  -1.655   4.057   5.882 -0.8671 -1.3129  0.7105
  366MOL0     H48282  -1.613   3.854   6.015  1.4686 -1.0395  0.4012
  366MOL0     H48283  -1.554   3.769   5.865  0.1473 -0.3270  2.8162
  366MOL0     H48284  -1.820   3.901   5.868  1.8375  0.3645 -1.3714
  366MOL0     H48285  -1.760   3.768   5.770  0.1982  2.4432 -1.7900
  366MOL0     H48286  -1.803   3.745   6.048  2.3855 -0.2877 -0.0371
  366MOL0     H48287  -1.721   3.620   5.947  0.5381  0.2062 -0.7777
  366MOL0     H48288  -1.914   3.575   5.819 -0.9329  0.9435 -2.0528
  366MOL0     H48289  -2.004   3.715   5.868 -1.5717 -2.1151 -2.3797
  366MOL0     H48290  -1.946   3.459   6.050 -1.7381 -0.6740 -0.1956
  366MOL0     H48291  -1.981   3.613   6.112 -0.9819 -0.8824  0.5971
  366MOL0     H48292  -2.163   3.442   6.064 -0.6899  0.6653 -0.6470
  366MOL0     H48293  -2.115   3.458   5.891  2.5103  0.8247 -0.3505
  366MOL0     H48294  -1.253   4.202   5.777 -0.2839  0.2734  1.1148
  366MOL0     H48295  -1.059   4.257   5.697  3.2082 -0.3785  0.7066
  366MOL0     H48296  -0.810   4.254   5.213  1.5704  0.9181 -0.3437
  366MOL0     H48297  -0.643   4.310   5.131 -0.4625  0.2970  0.1286
  366MOL0     H48298   0.738   4.665   3.724 -0.9493  1.6186  1.7198
  366MOL0     H48299   0.963   4.660   3.634 -0.2368 -2.2154  1.2983
  366MOL0     H48300   1.447   4.832   3.813  2.0212 -1.8837  1.7795
  366MOL0     H48301   1.658   4.830   3.773  0.8459  1.0869 -0.6480
  366MOL0     H48302   1.789   4.600   3.401  0.6395 -1.0781  0.0129
  366MOL0     H48303   1.856   4.517   3.545  1.1570  1.4289  3.6772
  366MOL0     H48304   2.054   4.675   3.545 -1.2427  0.2179  1.3073
  366MOL0     H48305   2.049   4.596   3.390  0.6757  0.9551 -0.9565
  366MOL0     H48306   1.903   4.872   3.421  2.5791  3.0057  1.0608
  366MOL0     H48307   1.934   4.790   3.270 -1.2831 -0.4047  0.2807
  366MOL0     H48308   2.175   4.802   3.288 -1.4141 -1.9155  0.3578
  366MOL0     H48309   2.078   4.951   3.263 -0.1005 -1.2520 -0.8049
  366MOL0     H48310   2.274   4.992   3.640 -0.1644  3.0434 -1.0078
  366MOL0     H48311   1.639   4.514   3.493  0.8444  1.5978  0.0014
  366MOL0     H48312   1.401   4.500   3.515 -0.3523  1.6313 -0.1265
  367MOL0     O48313   4.325   0.113   1.103  0.4439 -0.2355 -0.3955
  367MOL0     C48314   4.308   0.014   1.035  1.1400  0.1541 -0.0494
  367MOL0     O48315   4.183  -0.040   1.006 -0.0489 -0.2813  0.2722
  367MOL0     C48316   4.065   0.008   1.054 -0.3573  0.5413 -0.3288
  367MOL0     C48317   4.024   0.130   1.071  1.1754 -0.8041  0.8155
  367MOL0     C48318   3.897   0.159   1.121 -0.0776  0.3945  0.3379
  367MOL0     C48319   3.809   0.061   1.171 -0.1590  0.2605 -0.1198
  367MOL0     O48320   3.691   0.093   1.239 -0.5377  0.0808 -0.7351
  367MOL0     C48321   3.595   0.163   1.159 -0.3693  0.3851  0.0780
  367MOL0     C48322   3.574   0.304   1.207  0.4717 -0.1053  0.2809
  367MOL0     C48323   3.420   0.325   1.241 -0.0779 -0.4582  0.0539
  367MOL0     C48324   3.336   0.325   1.108 -0.3800  0.6580 -0.5719
  367MOL0     C48325   3.198   0.376   1.150 -0.4614  0.3828 -0.3436
  367MOL0     C48326   3.093   0.313   1.057 -0.0737  0.1672 -0.5540
  367MOL0     C48327   2.957   0.351   1.117  0.2711 -0.5233  0.9793
  367MOL0     C48328   2.839   0.322   1.028  0.2217 -0.4797 -0.0520
  367MOL0     N48329   2.714   0.369   1.083  0.0420 -0.2916  0.0871
  367MOL0     C48330   2.622   0.460   1.033 -0.0872  0.0510 -0.1966
  367MOL0     C48331   2.524   0.457   1.131  0.4819  0.1315  0.2732
  367MOL0     C48332   2.401   0.546   1.154 -0.2043  0.8579  0.8716
  367MOL0     C48333   2.426   0.667   1.232 -0.4326 -0.0868  0.3897
  367MOL0     C48334   2.487   0.774   1.145 -0.1944  0.5491 -0.0005
  367MOL0     C48335   2.527   0.892   1.234 -0.6235 -0.1869  0.0827
  367MOL0     O48336   2.623   0.971   1.162  0.0756 -0.5443 -0.1763
  367MOL0     C48337   2.758   0.933   1.166 -0.0215 -0.3455  0.4074
  367MOL0     C48338   2.844   1.030   1.117  0.7223  0.8476  0.1811
  367MOL0     C48339   2.987   1.004   1.108  0.4567 -0.4731  1.0079
  367MOL0     C48340   3.037   0.881   1.151  0.6076 -0.1332 -0.2308
  367MOL0     C48341   3.187   0.847   1.133 -0.0237  0.4435 -0.2474
  367MOL0     O48342   3.274   0.932   1.078  0.3499  0.2039  0.7176
  367MOL0     C48343   3.406   0.900   1.070 -0.0206 -0.3268 -0.7481
  367MOL0     C48344   3.484   0.842   1.169 -0.5793 -1.0824 -0.3145
  367MOL0     C48345   3.621   0.817   1.157  0.4806  0.7136  0.2354
  367MOL0     C48346   3.682   0.828   1.029 -0.7035 -0.0124  0.1579
  367MOL0     O48347   3.814   0.809   1.007  0.1580  0.2470 -0.5727
  367MOL0     C48348   3.875   0.714   1.099  0.2531  1.1753  0.3089
  367MOL0     C48349   4.008   0.667   1.051  0.7335 -0.2758 -0.4212
  367MOL0     C48350   4.005   0.566   0.930 -0.3384  0.2973 -0.4409
  367MOL0     C48351   4.157   0.569   0.881 -0.5060 -0.6369 -1.1606
  367MOL0     C48352   4.192   0.520   0.741  0.3844  1.2851  0.1371
  367MOL0     C48353   4.155   0.370   0.717 -0.0992  0.2233  0.6478
  367MOL0     C48354   4.271   0.283   0.757 -0.2728 -0.4455  0.5648
  367MOL0     C48355   4.245   0.138   0.723  0.5208 -0.6692  0.8392
  367MOL0    Cl48356   4.250   0.107   0.560  0.2809  0.2860  0.2340
  367MOL0     C48357   3.598   0.872   0.922  0.9158 -0.3993  1.5379
  367MOL0     C48358   3.455   0.898   0.948 -0.7635  0.2346  0.4744
  367MOL0     O48359   3.212   0.734   1.172  0.0949  0.3391 -0.0613
  367MOL0     C48360   2.946   0.783   1.188  0.5421  0.4597 -0.2610
  367MOL0     C48361   2.805   0.812   1.209 -0.5045 -0.3104 -0.3055
  367MOL0     N48362   2.550   0.362   1.232 -0.4144 -0.0857  0.6373
  367MOL0     N48363   2.656   0.308   1.191 -0.5522 -0.2558  0.1899
  367MOL0     C48364   3.854  -0.069   1.157 -0.2399 -0.4841  0.1772
  367MOL0     C48365   3.981  -0.103   1.106  0.0433  0.0277 -0.1428
  367MOL0     C48366   4.422  -0.071   0.993 -0.6222 -1.0712 -0.0846
  367MOL0     C48367   4.559  -0.046   1.037 -0.3644 -0.5709 -0.4696
  367MOL0     C48368   4.654  -0.144   1.006  1.0023  0.7537  0.1059
  367MOL0     C48369   4.625  -0.262   0.929  0.8697  0.2676  1.0996
  367MOL0     O48370   4.710  -0.369   0.917  0.3708 -0.1001  0.3042
  367MOL0     C48371   4.851  -0.344   0.909  0.7995  0.5012 -0.6464
  367MOL0     C48372   4.921  -0.469   0.855  0.9110  0.1600 -0.1878
  367MOL0     C48373   4.880  -0.500   0.706 -1.2424  0.2874  0.6288
  367MOL0     C48374   4.759  -0.583   0.696 -0.4305  0.5277  0.0597
  367MOL0     C48375   4.759  -0.661   0.574  0.4362  0.0065 -0.1108
  367MOL0     C48376   4.757  -0.714   0.472 -0.4352  0.2407  0.5629
  367MOL0     C48377   4.490  -0.285   0.903 -0.1759  0.4700  0.1754
  367MOL0     C48378   4.395  -0.192   0.934  1.3793  0.2514 -0.0656
  367MOL0     H48379   4.084   0.214   1.039 -0.4446  1.3967  3.2149
  367MOL0     H48380   3.879   0.264   1.141 -2.3590 -0.4736  3.6874
  367MOL0     H48381   3.497   0.116   1.170 -0.9449  1.9224  2.3025
  367MOL0     H48382   3.626   0.159   1.054  2.3424 -0.0124  0.7985
  367MOL0     H48383   3.615   0.370   1.129 -0.7298 -1.1648 -1.3376
  367MOL0     H48384   3.635   0.324   1.295 -0.1900  2.2521  0.2968
  367MOL0     H48385   3.410   0.426   1.282 -1.9107 -0.2430 -0.8279
  367MOL0     H48386   3.376   0.250   1.308 -1.3798  0.2798  0.0615
  367MOL0     H48387   3.395   0.363   1.024  0.9000 -2.1994 -1.0595
  367MOL0     H48388   3.322   0.221   1.079 -0.5693  0.4661  0.1738
  367MOL0     H48389   3.200   0.485   1.156  2.3195  0.3392  0.9297
  367MOL0     H48390   3.177   0.343   1.252 -0.0888  1.8649  0.2395
  367MOL0     H48391   3.086   0.204   1.051  1.0329 -0.2684  3.2867
  367MOL0     H48392   3.108   0.366   0.962 -2.9333  0.3310 -0.9998
  367MOL0     H48393   2.947   0.302   1.214  1.8860 -0.8940  0.9971
  367MOL0     H48394   2.959   0.461   1.124 -0.1766 -0.5292  1.2311
  367MOL0     H48395   2.826   0.213   1.021 -0.0144 -0.6955  2.7578
  367MOL0     H48396   2.850   0.364   0.927  1.4905  0.5300  0.4738
  367MOL0     H48397   2.625   0.518   0.942  0.6953 -1.7970 -1.4063
  367MOL0     H48398   2.322   0.488   1.203 -0.0528 -1.2570 -1.1992
  367MOL0     H48399   2.354   0.583   1.063  1.9123 -1.3944 -1.2745
  367MOL0     H48400   2.494   0.639   1.313  1.6122 -2.6183 -2.0057
  367MOL0     H48401   2.332   0.703   1.275 -1.0564 -2.9188  1.6345
  367MOL0     H48402   2.578   0.732   1.101 -0.0914  1.2817 -0.4911
  367MOL0     H48403   2.414   0.806   1.070 -0.8733  1.1932  0.9166
  367MOL0     H48404   2.560   0.868   1.335  1.2697  1.8393  0.0412
  367MOL0     H48405   2.437   0.952   1.251  0.0058  0.5902  0.7310
  367MOL0     H48406   2.803   1.122   1.075  0.5580  1.6472  2.0162
  367MOL0     H48407   3.061   1.077   1.078  2.9245 -3.8452 -1.9944
  367MOL0     H48408   3.447   0.821   1.269  1.9235 -1.0693  0.6851
  367MOL0     H48409   3.684   0.803   1.244 -2.2055  3.2947  2.8397
  367MOL0     H48410   3.810   0.627   1.104 -0.2831  1.6117  1.4994
  367MOL0     H48411   3.880   0.757   1.200 -2.5200 -0.1649  1.1303
  367MOL0     H48412   4.074   0.630   1.130  1.4722 -3.4759 -2.3453
  367MOL0     H48413   4.063   0.755   1.016 -0.8221  0.4147 -1.1966
  367MOL0     H48414   3.933   0.590   0.851 -3.8371 -0.9127  2.1782
  367MOL0     H48415   3.988   0.465   0.968  0.4266  1.2725  2.8093
  367MOL0     H48416   4.197   0.671   0.876  0.7326 -1.1158 -1.1548
  367MOL0     H48417   4.219   0.512   0.950  0.5105  2.6316  0.8861
  367MOL0     H48418   4.298   0.535   0.719 -0.0763  2.0797 -1.7771
  367MOL0     H48419   4.135   0.576   0.666  0.1979  0.1469 -0.6139
  367MOL0     H48420   4.136   0.342   0.613  0.6841  1.3099  0.1957
  367MOL0     H48421   4.060   0.345   0.766 -1.5580  2.4079 -0.8820
  367MOL0     H48422   4.358   0.317   0.700 -1.2515  0.1281 -0.6605
  367MOL0     H48423   4.294   0.285   0.864 -0.1522  0.3919  0.5338
  367MOL0     H48424   4.145   0.112   0.757  0.7046  0.2168  2.1487
  367MOL0     H48425   4.312   0.076   0.785 -0.1395 -1.2509  0.9823
  367MOL0     H48426   3.637   0.880   0.821 -2.7471 -0.6239 -0.0418
  367MOL0     H48427   3.391   0.935   0.869 -0.6407  2.1521  1.2169
  367MOL0     H48428   2.973   0.682   1.218 -1.4662  0.0839  0.4340
  367MOL0     H48429   2.746   0.728   1.242  1.4455 -0.5174  3.2131
  367MOL0     H48430   3.805  -0.145   1.218  1.2419 -2.2518 -0.7473
  367MOL0     H48431   4.019  -0.204   1.112 -0.4133 -0.1953 -0.8872
  367MOL0     H48432   4.591   0.046   1.083 -0.6424 -0.3231 -0.7642
  367MOL0     H48433   4.755  -0.129   1.043  1.0632  0.9941 -0.1468
  367MOL0     H48434   4.891  -0.331   1.010 -0.9065  0.7139  0.0327
  367MOL0     H48435   4.884  -0.252   0.860 -0.7986  0.7395 -1.3401
  367MOL0     H48436   5.029  -0.451   0.852  1.2156 -1.3825  0.6035
  367MOL0     H48437   4.903  -0.551   0.925 -0.6001  0.6699  0.0503
  367MOL0     H48438   4.964  -0.550   0.657 -3.2457 -1.7387 -0.9791
  367MOL0     H48439   4.870  -0.410   0.645 -1.3982 -0.0906  0.0907
  367MOL0     H48440   4.761  -0.643   0.787  0.6872 -0.7366 -0.7480
  367MOL0     H48441   4.672  -0.517   0.692 -1.3265 -0.6498 -0.8779
  367MOL0     H48442   4.757  -0.763   0.376  0.4051  1.5317 -0.1334
  367MOL0     H48443   4.471  -0.384   0.863  2.1449 -0.2182  0.6160
  367MOL0     H48444   4.297  -0.231   0.909  2.6504 -1.5276 -2.6922
  368MOL0     O48445   8.134   8.927  10.990  0.0776  0.4967  0.0217
  368MOL0     C48446   8.187   8.893  10.892  0.1856 -0.3108 -0.7379
  368MOL0     O48447   8.131   8.822  10.793  0.9204 -0.5792  0.3738
  368MOL0     C48448   8.017   8.761  10.818  0.2013  0.4542 -0.1611
  368MOL0     C48449   7.914   8.762  10.728  0.0029 -0.0442 -0.2034
  368MOL0     C48450   7.799   8.685  10.737 -0.5436 -0.0330 -0.3184
  368MOL0     C48451   7.779   8.608  10.850  0.5766 -0.2844  0.2336
  368MOL0     O48452   7.664   8.528  10.875 -1.5203 -0.0432 -0.6183
  368MOL0     C48453   7.583   8.497  10.760  0.6489 -0.1885  0.1272
  368MOL0     C48454   7.495   8.371  10.782  0.9007 -1.1759  0.1606
  368MOL0     C48455   7.395   8.373  10.903 -0.8072  0.3272  0.3381
  368MOL0     C48456   7.349   8.230  10.937 -0.4163  0.4998 -0.4726
  368MOL0     C48457   7.210   8.242  11.005 -1.2560 -0.0169  0.2064
  368MOL0     C48458   7.180   8.140  11.107  0.7596  0.1626 -0.8460
  368MOL0     C48459   7.054   8.184  11.184 -0.0709 -0.9208 -0.0752
  368MOL0     C48460   6.985   8.045  11.226 -0.3499 -0.2574  0.0551
  368MOL0     N48461   6.857   8.061  11.284  0.0714  0.3200 -0.5202
  368MOL0     C48462   6.763   7.959  11.309 -0.1607  0.7335  0.6030
  368MOL0     C48463   6.661   8.014  11.376 -0.2858 -0.4530 -0.6166
  368MOL0     C48464   6.533   7.961  11.434 -0.5876  0.3537  1.0270
  368MOL0     C48465   6.423   8.060  11.449  0.3000  0.0094  0.9880
  368MOL0     C48466   6.294   7.981  11.473 -0.9056  0.0405  0.3656
  368MOL0     C48467   6.170   8.063  11.505  0.2599  0.3299  0.9824
  368MOL0     O48468   6.184   8.150  11.617  0.6253 -0.0860 -0.4007
  368MOL0     C48469   6.199   8.101  11.743 -1.1313  0.6845 -0.5662
  368MOL0     C48470   6.287   8.181  11.817  0.9440  0.7133 -0.3439
  368MOL0     C48471   6.314   8.135  11.949 -0.3661 -0.5897 -0.5302
  368MOL0     C48472   6.259   8.021  12.008  0.2031  0.0386  0.3301
  368MOL0     C48473   6.296   7.984  12.150  0.4766  0.7703  0.2506
  368MOL0     O48474   6.360   8.081  12.212  0.8134 -1.5076  0.6342
  368MOL0     C48475   6.419   8.050  12.334 -0.2600 -0.0957  0.7347
  368MOL0     C48476   6.341   8.057  12.451  0.0729  0.5336 -0.6190
  368MOL0     C48477   6.400   8.013  12.574 -0.0597 -0.2655 -0.0047
  368MOL0     C48478   6.529   7.970  12.585 -0.7848  0.5289  0.6304
  368MOL0     O48479   6.578   7.904  12.700  0.3211  0.4844  0.0860
  368MOL0     C48480   6.499   7.879  12.818 -0.3807 -0.0153  0.4875
  368MOL0     C48481   6.579   7.801  12.926  0.2665 -0.5856 -0.0722
  368MOL0     C48482   6.622   7.668  12.864  0.2048  0.4364 -0.3919
  368MOL0     C48483   6.675   7.570  12.969 -0.5853  1.3147 -0.3578
  368MOL0     C48484   6.665   7.427  12.915 -0.5994 -0.5221  0.4210
  368MOL0     C48485   6.723   7.334  13.017 -0.0378  0.2767 -0.5075
  368MOL0     C48486   6.738   7.190  12.960  0.1966 -1.2143  0.5643
  368MOL0     C48487   6.797   7.097  13.062 -0.0837 -1.1975 -0.1720
  368MOL0    Cl48488   6.874   6.956  12.980  0.4709  0.3577 -0.3731
  368MOL0     C48489   6.612   7.972  12.467  0.1042 -0.4327  0.3023
  368MOL0     C48490   6.552   8.008  12.349  0.6759 -1.7568  0.0311
  368MOL0     O48491   6.272   7.868  12.182  0.0266  0.4375 -0.2927
  368MOL0     C48492   6.172   7.951  11.924  0.6859 -0.2291 -1.1576
  368MOL0     C48493   6.146   7.982  11.790 -0.3548  0.3757 -0.6293
  368MOL0     N48494   6.697   8.150  11.394 -0.0614 -0.2382  0.5924
  368MOL0     N48495   6.815   8.171  11.360  0.1440  0.4275 -0.2635
  368MOL0     C48496   7.880   8.597  10.938 -0.5469  0.7086 -0.1217
  368MOL0     C48497   8.014   8.664  10.925  0.2014 -0.1159  0.2447
  368MOL0     C48498   8.327   8.928  10.868  0.8428  0.6615 -0.5148
  368MOL0     C48499   8.427   8.933  10.973  0.4816 -0.0101  0.2564
  368MOL0     C48500   8.559   8.959  10.941  0.1909 -0.0012  0.0350
  368MOL0     C48501   8.595   9.004  10.819  0.3978  0.3778  0.1173
  368MOL0     O48502   8.722   9.035  10.809  0.2598 -1.4201  0.0358
  368MOL0     C48503   8.780   9.035  10.674  1.1753 -0.3500 -0.2160
  368MOL0     C48504   8.928   9.071  10.655 -0.0314  0.3516 -1.0085
  368MOL0     C48505   9.011   8.942  10.675 -0.7290 -0.2135 -0.7602
  368MOL0     C48506   9.142   8.964  10.598 -0.0957  0.2446 -0.3171
  368MOL0     C48507   9.122   8.962  10.451  0.2220 -0.8939 -0.3413
  368MOL0     C48508   9.104   8.967  10.331 -0.2385  1.2658  0.3384
  368MOL0     C48509   8.497   9.005  10.716 -0.5349 -0.0687  0.1644
  368MOL0     C48510   8.370   8.963  10.737 -1.1558  0.4106 -0.0801
  368MOL0     H48511   7.907   8.834  10.647  0.0312  0.8087  0.5431
  368MOL0     H48512   7.724   8.701  10.660  1.8908  2.1576 -2.4379
  368MOL0     H48513   7.645   8.465  10.675  0.5935 -1.6399  0.6007
  368MOL0     H48514   7.522   8.579  10.722  1.9198 -0.0373 -1.7122
  368MOL0     H48515   7.562   8.286  10.801  1.3041 -1.1914 -1.2486
  368MOL0     H48516   7.435   8.365  10.691  4.7450  1.4146 -2.9013
  368MOL0     H48517   7.315   8.442  10.873 -0.5395 -0.6755 -3.0954
  368MOL0     H48518   7.449   8.412  10.990  1.7412  0.7867 -1.3205
  368MOL0     H48519   7.337   8.166  10.850 -1.0843 -2.6437  1.7514
  368MOL0     H48520   7.420   8.185  11.007 -2.4654  0.4375  1.6996
  368MOL0     H48521   7.134   8.248  10.926 -3.6649  1.0009  2.4656
  368MOL0     H48522   7.217   8.332  11.067 -0.2035 -1.0922  1.7255
  368MOL0     H48523   7.261   8.135  11.179  0.4490 -3.4124 -0.5872
  368MOL0     H48524   7.166   8.045  11.054  3.4980 -0.0691 -1.3015
  368MOL0     H48525   7.066   8.250  11.271  1.8305 -0.2359 -0.8046
  368MOL0     H48526   6.986   8.237  11.116 -0.0618  0.5460  0.9977
  368MOL0     H48527   7.058   7.994  11.289  0.2634 -2.2764 -2.1344
  368MOL0     H48528   6.969   7.980  11.139  0.9987  0.1196 -0.5151
  368MOL0     H48529   6.768   7.861  11.263  3.9217  0.9012  0.3287
  368MOL0     H48530   6.551   7.915  11.532 -0.4399 -0.4684  0.6212
  368MOL0     H48531   6.500   7.883  11.364 -1.4135  2.0101 -0.5097
  368MOL0     H48532   6.420   8.112  11.352 -0.2430  0.7637  1.4067
  368MOL0     H48533   6.457   8.119  11.534  2.4636 -2.4025  1.9199
  368MOL0     H48534   6.272   7.932  11.378 -1.4500  1.5253 -0.3111
  368MOL0     H48535   6.301   7.903  11.549  0.2210  0.5459  0.7971
  368MOL0     H48536   6.094   7.986  11.520 -0.0246  0.7128  1.5307
  368MOL0     H48537   6.152   8.134  11.423  2.2720 -0.6229 -0.3805
  368MOL0     H48538   6.315   8.283  11.791  1.5657  0.0188 -2.6955
  368MOL0     H48539   6.388   8.192  12.005 -1.4904 -0.5121  0.9317
  368MOL0     H48540   6.238   8.089  12.442  0.5732  2.5088  0.1046
  368MOL0     H48541   6.330   8.012  12.657  0.2185  1.0017  0.2671
  368MOL0     H48542   6.401   7.841  12.790 -0.7032  1.4467 -0.5098
  368MOL0     H48543   6.481   7.977  12.864  0.2699 -0.1262  0.9997
  368MOL0     H48544   6.513   7.799  13.013 -0.5808 -0.2015 -0.6927
  368MOL0     H48545   6.666   7.855  12.962  0.6285 -2.2180  1.6182
  368MOL0     H48546   6.693   7.669  12.781  1.5886 -1.1880  0.7135
  368MOL0     H48547   6.529   7.621  12.829 -0.3553  1.8174 -0.8475
  368MOL0     H48548   6.774   7.600  13.007 -0.3859 -2.1072  2.2677
  368MOL0     H48549   6.609   7.580  13.056  0.5671  1.8731  0.4816
  368MOL0     H48550   6.714   7.421  12.817  1.8924  1.4005  1.4333
  368MOL0     H48551   6.560   7.400  12.897 -0.0181 -1.5221 -1.9477
  368MOL0     H48552   6.654   7.317  13.100 -0.1699 -1.7246 -0.9712
  368MOL0     H48553   6.824   7.360  13.050  0.4695  0.2391 -1.9351
  368MOL0     H48554   6.643   7.160  12.914  0.1428  1.4498 -1.2918
  368MOL0     H48555   6.806   7.189  12.874  1.1095 -1.0614  1.2752
  368MOL0     H48556   6.721   7.068  13.135 -1.3741 -0.5735 -1.2483
  368MOL0     H48557   6.882   7.145  13.113 -0.5332 -3.7051  3.3484
  368MOL0     H48558   6.715   7.936  12.466 -0.5385 -2.4430  0.4140
  368MOL0     H48559   6.607   8.030  12.257 -0.0138 -0.9319 -0.1952
  368MOL0     H48560   6.129   7.856  11.953 -2.7654  1.3053 -0.7602
  368MOL0     H48561   6.072   7.922  11.736 -2.1656  0.3977  1.6446
  368MOL0     H48562   7.873   8.537  11.028  0.0548 -1.7688 -1.6310
  368MOL0     H48563   8.090   8.659  11.002  0.8784 -0.3839 -0.4314
  368MOL0     H48564   8.385   8.917  11.072  1.0153  2.0782  0.8557
  368MOL0     H48565   8.636   8.972  11.017  1.3477 -3.2445 -0.3833
  368MOL0     H48566   8.722   9.087  10.597 -0.0720 -2.3250 -0.6581
  368MOL0     H48567   8.763   8.937  10.628  0.7148 -0.6405  0.5609
  368MOL0     H48568   8.932   9.123  10.558  0.2006  2.2045 -0.0517
  368MOL0     H48569   8.971   9.151  10.716  1.8148 -1.3934  0.0847
  368MOL0     H48570   8.958   8.854  10.637  1.7538 -2.5829  0.8573
  368MOL0     H48571   9.042   8.927  10.779 -1.6116 -0.8741 -0.5828
  368MOL0     H48572   9.185   9.061  10.624  4.6157 -2.4557  3.6805
  368MOL0     H48573   9.214   8.886  10.624 -0.0965  0.2906 -0.1800
  368MOL0     H48574   9.090   8.987  10.227  1.1004  1.6985  0.2231
  368MOL0     H48575   8.525   9.044  10.619  2.4408 -0.0658  0.9357
  368MOL0     H48576   8.299   8.962  10.654 -4.0874 -1.1724  2.2262
  369MOL0     O48577  11.120   4.392   4.048 -0.8371 -1.0158  0.0173
  369MOL0     C48578  11.116   4.454   3.937 -0.0319  0.2954 -0.0149
  369MOL0     O48579  11.009   4.462   3.853  1.0853 -0.2268  0.4824
  369MOL0     C48580  10.899   4.417   3.914  0.4072  0.2490 -0.1359
  369MOL0     C48581  10.843   4.490   4.031 -0.2319 -0.0571  0.7695
  369MOL0     C48582  10.725   4.438   4.084  0.2939 -0.7957 -0.1589
  369MOL0     C48583  10.671   4.321   4.037  0.1527  0.2519  1.3665
  369MOL0     O48584  10.560   4.273   4.097 -0.6740 -0.2453 -0.6797
  369MOL0     C48585  10.458   4.215   4.017 -0.8064 -0.2375 -0.0205
  369MOL0     C48586  10.313   4.220   4.080 -0.0395 -0.3211  0.5947
  369MOL0     C48587  10.207   4.166   3.992 -0.0286  0.6613  0.5608
  369MOL0     C48588  10.077   4.238   4.032 -0.0368  0.1065 -0.8184
  369MOL0     C48589   9.968   4.212   3.925  0.0056  0.1653  0.0929
  369MOL0     C48590   9.834   4.279   3.947 -0.4679 -0.0604  0.0800
  369MOL0     C48591   9.725   4.226   3.856  0.4926  0.5626 -0.2775
  369MOL0     C48592   9.756   4.248   3.703  0.8328 -0.1238 -1.0761
  369MOL0     N48593   9.763   4.390   3.668 -0.0351  0.1601 -0.1976
  369MOL0     C48594   9.651   4.479   3.672 -0.5969 -0.6497  0.3060
  369MOL0     C48595   9.701   4.598   3.618  0.0861 -0.7014  0.0903
  369MOL0     C48596   9.632   4.735   3.586  0.3737  1.0133 -0.5671
  369MOL0     C48597   9.492   4.751   3.647 -0.1900 -0.3045 -0.4039
  369MOL0     C48598   9.393   4.816   3.552  0.3179 -1.0081 -0.3394
  369MOL0     C48599   9.260   4.858   3.628  0.6990 -0.6143  0.2219
  369MOL0     O48600   9.208   4.749   3.698  0.1369 -0.0070  0.4088
  369MOL0     C48601   9.070   4.731   3.702  0.5669  0.8027  0.1841
  369MOL0     C48602   8.968   4.834   3.714 -0.1473 -0.5460 -0.5360
  369MOL0     C48603   8.836   4.797   3.727 -0.1586  0.4345  0.8956
  369MOL0     C48604   8.784   4.661   3.729  1.0145  0.0178 -0.6657
  369MOL0     C48605   8.638   4.626   3.733  0.2152 -0.1915  0.3902
  369MOL0     O48606   8.554   4.728   3.767  1.0854 -0.1596  0.4312
  369MOL0     C48607   8.419   4.705   3.788 -0.3928 -0.3973 -0.7273
  369MOL0     C48608   8.369   4.604   3.867 -1.1477 -0.8296  0.0116
  369MOL0     C48609   8.230   4.599   3.887 -0.8835  0.2148  0.4052
  369MOL0     C48610   8.143   4.690   3.835  0.5445 -0.3446 -0.7516
  369MOL0     O48611   8.013   4.702   3.873 -0.2762 -0.4220 -0.2055
  369MOL0     C48612   7.956   4.589   3.933  0.2926  0.2252 -0.5638
  369MOL0     C48613   7.811   4.599   3.968 -0.6681 -1.7691 -0.4844
  369MOL0     C48614   7.745   4.471   4.004  0.1056  0.2175 -0.9731
  369MOL0     C48615   7.786   4.399   4.131  0.2928 -0.0214 -0.8888
  369MOL0     C48616   7.710   4.273   4.158  0.3298 -0.3849  0.0423
  369MOL0     C48617   7.744   4.157   4.072 -0.7573 -0.2880 -0.9047
  369MOL0     C48618   7.659   4.038   4.102  0.4948 -0.5278 -1.0934
  369MOL0     C48619   7.689   3.910   4.020 -0.3918  0.0881  0.1588
  369MOL0    Cl48620   7.660   3.759   4.113  0.1983  0.4160 -0.3282
  369MOL0     C48621   8.192   4.788   3.747  0.0663  0.3147  0.1387
  369MOL0     C48622   8.325   4.793   3.717 -0.3533 -0.0682 -0.3630
  369MOL0     O48623   8.602   4.506   3.713 -0.9480 -0.5736 -0.6281
  369MOL0     C48624   8.888   4.565   3.734 -0.1174 -0.0816  1.3125
  369MOL0     C48625   9.018   4.601   3.709 -0.4427 -0.1962 -0.4654
  369MOL0     N48626   9.838   4.573   3.588  0.1021 -0.5377  0.1420
  369MOL0     N48627   9.870   4.454   3.623 -0.3267 -0.2969  0.9289
  369MOL0     C48628  10.732   4.251   3.936 -0.4906  0.5397 -0.0154
  369MOL0     C48629  10.839   4.300   3.874 -0.7667 -0.3914  0.3428
  369MOL0     C48630  11.234   4.498   3.861 -0.3637  0.0342 -0.4376
  369MOL0     C48631  11.368   4.459   3.905 -0.2099  1.2081  0.0551
  369MOL0     C48632  11.483   4.509   3.843  0.4758  0.1274  0.4750
  369MOL0     C48633  11.470   4.585   3.729  1.3213  0.2466 -0.7584
  369MOL0     O48634  11.585   4.639   3.670 -0.8114 -0.4661 -0.4591
  369MOL0     C48635  11.575   4.659   3.523  0.1490 -0.4740 -0.7194
  369MOL0     C48636  11.699   4.727   3.471 -0.3546  0.9028 -0.5295
  369MOL0     C48637  11.818   4.635   3.494 -0.4493  0.3731 -0.2838
  369MOL0     C48638  11.951   4.699   3.448 -0.3688  0.5114 -0.6221
  369MOL0     C48639  12.059   4.592   3.459  0.1004 -0.0595 -0.0419
  369MOL0     C48640  12.155   4.516   3.451 -0.3103 -0.1804  0.4024
  369MOL0     C48641  11.340   4.623   3.687 -0.2733  0.9717 -0.0693
  369MOL0     C48642  11.226   4.586   3.753 -1.0195 -0.6207 -1.0931
  369MOL0     H48643  10.892   4.580   4.067  0.6514 -1.3573  3.0389
  369MOL0     H48644  10.679   4.489   4.168 -2.6757 -1.6089 -1.1689
  369MOL0     H48645  10.481   4.110   4.000  0.4151  0.1187 -0.6842
  369MOL0     H48646  10.457   4.260   3.917  1.3978 -2.1633 -1.0016
  369MOL0     H48647  10.294   4.323   4.110  1.8638 -0.6032  3.0859
  369MOL0     H48648  10.305   4.168   4.177 -0.1059 -0.0046  0.7608
  369MOL0     H48649  10.193   4.059   4.010  0.2650  0.6844  0.9419
  369MOL0     H48650  10.230   4.188   3.887 -0.2272  0.2090  0.4227
  369MOL0     H48651  10.037   4.207   4.129  2.0409 -1.7476 -0.4485
  369MOL0     H48652  10.082   4.347   4.023 -1.7155  0.2645 -0.1757
  369MOL0     H48653   9.955   4.104   3.920 -2.9106  0.4239  0.4361
  369MOL0     H48654   9.995   4.255   3.829  0.6152  1.5558  0.8585
  369MOL0     H48655   9.849   4.385   3.923  1.9720 -0.4210 -0.3022
  369MOL0     H48656   9.809   4.281   4.054 -2.2428 -1.5196 -0.2607
  369MOL0     H48657   9.719   4.117   3.866 -0.6883  0.3921 -2.1869
  369MOL0     H48658   9.632   4.280   3.876  1.8296  3.4823 -1.4153
  369MOL0     H48659   9.668   4.215   3.647  0.5529  1.5899 -1.6952
  369MOL0     H48660   9.847   4.198   3.669  0.4311 -0.6092 -1.4587
  369MOL0     H48661   9.550   4.464   3.707  0.1575 -2.0502  2.0548
  369MOL0     H48662   9.619   4.743   3.478 -0.4723 -1.7199 -0.7250
  369MOL0     H48663   9.700   4.814   3.622 -0.8281  1.3881  0.9933
  369MOL0     H48664   9.512   4.802   3.741  1.8485 -0.3656 -0.7554
  369MOL0     H48665   9.439   4.660   3.678  1.6322 -2.2476 -2.5916
  369MOL0     H48666   9.437   4.915   3.534  0.0508 -1.2076 -2.3565
  369MOL0     H48667   9.394   4.750   3.465 -1.5030 -2.1792  0.4773
  369MOL0     H48668   9.183   4.894   3.558 -0.1813  0.0512  1.4919
  369MOL0     H48669   9.279   4.946   3.690  1.9235 -0.0697 -0.8766
  369MOL0     H48670   9.002   4.934   3.689  2.4777 -1.6400 -1.7162
  369MOL0     H48671   8.767   4.880   3.716 -0.1217  0.5626  1.5972
  369MOL0     H48672   8.431   4.536   3.925 -2.7218 -1.0760  1.4785
  369MOL0     H48673   8.196   4.515   3.947 -0.5379 -1.0033 -1.0328
  369MOL0     H48674   8.002   4.543   4.020 -1.1031  0.6061  0.4165
  369MOL0     H48675   7.949   4.515   3.853 -0.7504 -2.2049  1.6176
  369MOL0     H48676   7.753   4.653   3.893  0.1182  1.3761  0.9691
  369MOL0     H48677   7.795   4.667   4.053 -0.8325 -0.4570 -1.5342
  369MOL0     H48678   7.754   4.404   3.917  2.2922  1.5147 -1.8222
  369MOL0     H48679   7.646   4.505   4.034  1.3844  1.7131  1.9196
  369MOL0     H48680   7.893   4.379   4.116  0.6867  1.3027 -0.0075
  369MOL0     H48681   7.766   4.468   4.213  2.5034 -1.0401  0.6202
  369MOL0     H48682   7.608   4.306   4.140  0.5492  1.4810  1.7620
  369MOL0     H48683   7.718   4.238   4.262  2.4644 -2.3856 -0.7111
  369MOL0     H48684   7.849   4.126   4.077 -0.1375  1.5878 -1.5235
  369MOL0     H48685   7.718   4.190   3.971  2.5116  0.7283 -1.5273
  369MOL0     H48686   7.680   4.014   4.207  0.5233 -0.5415 -1.1025
  369MOL0     H48687   7.554   4.071   4.101 -0.1622 -2.1138  1.9853
  369MOL0     H48688   7.791   3.912   3.982 -0.3436  0.9396  0.3010
  369MOL0     H48689   7.626   3.907   3.931  0.0474  1.3769 -0.2242
  369MOL0     H48690   8.119   4.856   3.705 -0.6771  0.3503  1.4427
  369MOL0     H48691   8.371   4.874   3.660  2.1923  0.1199  1.7344
  369MOL0     H48692   8.866   4.460   3.745 -2.5142 -0.0113 -1.5128
  369MOL0     H48693   9.093   4.526   3.689 -1.9604 -1.8178 -0.2747
  369MOL0     H48694  10.694   4.155   3.902  1.4418  0.4865 -2.1906
  369MOL0     H48695  10.892   4.255   3.791  0.1177  0.9083  0.1818
  369MOL0     H48696  11.370   4.390   3.988 -0.2428  0.2547 -0.7142
  369MOL0     H48697  11.579   4.471   3.877  0.1305 -0.7634  0.4858
  369MOL0     H48698  11.489   4.717   3.489  0.1817 -1.3439 -2.3706
  369MOL0     H48699  11.556   4.561   3.478 -0.9865 -0.7305  0.2543
  369MOL0     H48700  11.692   4.748   3.363 -1.2376 -1.3086 -0.9622
  369MOL0     H48701  11.711   4.828   3.512  0.6165  1.8071 -2.8432
  369MOL0     H48702  11.788   4.536   3.457  0.3842 -0.1858  0.5026
  369MOL0     H48703  11.837   4.623   3.601  0.9941  0.9916 -0.4522
  369MOL0     H48704  11.939   4.737   3.346 -0.5730 -2.7168 -1.9036
  369MOL0     H48705  11.977   4.780   3.517 -1.0912  1.1376 -1.0770
  369MOL0     H48706  12.236   4.447   3.444 -0.5158 -0.3654 -0.2009
  369MOL0     H48707  11.332   4.687   3.599  1.4920  0.3260 -0.7201
  369MOL0     H48708  11.123   4.619   3.741 -1.4791 -0.6087  2.0192
  370MOL0     O48709   3.654   2.118   3.111  0.0581  0.6118 -0.2426
  370MOL0     C48710   3.744   2.074   3.042  0.6586  0.0047  0.3130
  370MOL0     O48711   3.725   2.034   2.914 -0.5691 -0.1347  0.1256
  370MOL0     C48712   3.591   2.019   2.858 -0.1936 -0.9561 -0.1544
  370MOL0     C48713   3.558   2.107   2.744 -0.6922  1.1128 -0.3798
  370MOL0     C48714   3.429   2.104   2.708 -0.2835 -0.1022  0.0324
  370MOL0     C48715   3.338   2.019   2.761 -0.3855  0.2603  0.3443
  370MOL0     O48716   3.216   2.009   2.698  0.1352  0.1021 -0.0342
  370MOL0     C48717   3.119   1.916   2.742 -0.2303  0.0536 -0.3672
  370MOL0     C48718   2.996   1.920   2.651 -0.6735 -0.3747  0.5938
  370MOL0     C48719   3.006   1.820   2.533 -0.8571 -0.3050  0.0964
  370MOL0     C48720   2.878   1.817   2.444 -0.0539 -0.0976 -0.7029
  370MOL0     C48721   2.887   1.709   2.339 -0.5798  0.5452 -1.0183
  370MOL0     C48722   2.784   1.736   2.228 -0.5425 -0.4693 -0.0134
  370MOL0     C48723   2.770   1.622   2.125  0.0619  0.1136  0.4810
  370MOL0     C48724   2.649   1.613   2.039 -0.7303 -0.4202  0.2334
  370MOL0     N48725   2.655   1.504   1.941 -0.6496  0.2344 -0.2182
  370MOL0     C48726   2.576   1.393   1.947 -0.3897  0.0420 -0.1307
  370MOL0     C48727   2.593   1.327   1.823  0.7155 -0.8959  0.0976
  370MOL0     C48728   2.544   1.194   1.784 -0.2277  0.1353  0.6906
  370MOL0     C48729   2.428   1.132   1.861 -0.0634 -0.6395 -1.1670
  370MOL0     C48730   2.295   1.215   1.829  0.6275 -0.1244 -0.7163
  370MOL0     C48731   2.185   1.189   1.942 -0.5542 -0.0327  0.5917
  370MOL0     O48732   2.101   1.295   1.940  0.3400 -0.3406  0.1818
  370MOL0     C48733   2.043   1.332   2.056 -0.1431 -0.8449 -0.3698
  370MOL0     C48734   2.010   1.245   2.162  0.1799  0.6367  0.2125
  370MOL0     C48735   1.947   1.306   2.276  1.0203 -0.3849 -1.2013
  370MOL0     C48736   1.908   1.441   2.279 -0.6056 -0.2301  0.6851
  370MOL0     C48737   1.837   1.495   2.397 -0.4679  0.4213  0.5118
  370MOL0     O48738   1.797   1.416   2.504 -0.8102  0.4501  0.6601
  370MOL0     C48739   1.694   1.463   2.578 -0.1496  0.4167  0.7284
  370MOL0     C48740   1.572   1.411   2.539  0.8318  0.5425 -0.0221
  370MOL0     C48741   1.453   1.448   2.612 -0.0396  0.5711  0.6528
  370MOL0     C48742   1.462   1.531   2.725  0.3215  0.9055 -0.3288
  370MOL0     O48743   1.357   1.546   2.809  0.9111 -0.4043  0.2136
  370MOL0     C48744   1.233   1.573   2.741  0.2528 -0.8897  0.6856
  370MOL0     C48745   1.113   1.598   2.836 -0.5848  0.1104 -0.2817
  370MOL0     C48746   1.133   1.725   2.928  0.2753 -0.3054  0.5553
  370MOL0     C48747   1.004   1.776   2.972  0.0114 -0.1648 -0.3000
  370MOL0     C48748   1.024   1.875   3.082  0.0449 -0.0371  0.1608
  370MOL0     C48749   1.068   2.010   3.031 -0.7280  0.6234  0.6325
  370MOL0     C48750   1.057   2.131   3.124 -0.3132 -0.4562  0.1495
  370MOL0     C48751   1.148   2.243   3.063 -0.4772  0.2877 -0.5420
  370MOL0    Cl48752   1.110   2.289   2.892  0.2111  0.3299 -0.2919
  370MOL0     C48753   1.587   1.589   2.761 -0.1403  0.3621 -0.0249
  370MOL0     C48754   1.702   1.546   2.688 -0.8058 -0.4521  0.9513
  370MOL0     O48755   1.808   1.615   2.386  0.2896 -0.3355 -0.1000
  370MOL0     C48756   1.933   1.522   2.167 -0.3146  0.7988  0.9157
  370MOL0     C48757   1.997   1.469   2.056 -0.2160  0.3944  0.6781
  370MOL0     N48758   2.679   1.415   1.751  0.4756  0.2880  0.2074
  370MOL0     N48759   2.692   1.519   1.816  0.7531  0.2931  0.6103
  370MOL0     C48760   3.377   1.937   2.861  0.2729 -0.0024 -0.6750
  370MOL0     C48761   3.503   1.925   2.914 -1.3987 -1.0246  0.4674
  370MOL0     C48762   3.876   2.071   3.094  0.4174 -0.7861  0.1329
  370MOL0     C48763   3.905   2.120   3.220  0.5177  0.5865 -1.1639
  370MOL0     C48764   4.029   2.094   3.278  0.8440 -0.0777 -0.3919
  370MOL0     C48765   4.129   2.032   3.207 -0.9354 -0.2541 -0.7472
  370MOL0     O48766   4.251   2.022   3.270 -0.2646 -0.0471  0.0089
  370MOL0     C48767   4.368   1.983   3.191 -0.0716  0.9445 -1.0301
  370MOL0     C48768   4.467   1.949   3.293  0.2254  1.2530 -0.7750
  370MOL0     C48769   4.525   2.069   3.365 -0.0951 -0.3974  0.3060
  370MOL0     C48770   4.572   2.178   3.271  0.2043  0.8716  0.5872
  370MOL0     C48771   4.674   2.128   3.172  0.1002  0.8390  0.1450
  370MOL0     C48772   4.747   2.117   3.081 -0.6759 -0.1237  0.4706
  370MOL0     C48773   4.104   1.982   3.088 -1.0706  0.8493  0.9203
  370MOL0     C48774   3.976   2.006   3.024  1.0657  0.7366  0.5220
  370MOL0     H48775   3.635   2.178   2.715 -0.5762  0.7541 -0.9818
  370MOL0     H48776   3.394   2.163   2.624  0.6999 -0.6736 -0.7796
  370MOL0     H48777   3.084   1.939   2.843  2.1956  0.9901  0.3616
  370MOL0     H48778   3.146   1.811   2.734 -2.6586 -0.6165 -0.2802
  370MOL0     H48779   2.976   2.012   2.595 -1.3533 -2.0903 -2.1588
  370MOL0     H48780   2.905   1.902   2.709 -1.1624  2.7258  0.9789
  370MOL0     H48781   3.034   1.723   2.576 -0.0612 -0.2326 -0.2511
  370MOL0     H48782   3.081   1.846   2.458 -0.1978  1.2242  1.2414
  370MOL0     H48783   2.796   1.791   2.511  2.0541 -3.5987  0.8181
  370MOL0     H48784   2.867   1.917   2.402  1.9044  0.6506  0.4252
  370MOL0     H48785   2.876   1.616   2.397  1.3901  1.3872  0.8292
  370MOL0     H48786   2.990   1.713   2.300  1.2068  2.9806  3.3207
  370MOL0     H48787   2.814   1.831   2.185  0.8501 -1.0184 -0.3119
  370MOL0     H48788   2.687   1.755   2.274  0.0631 -0.9698  1.5604
  370MOL0     H48789   2.862   1.628   2.066  0.6286 -0.0089  1.3295
  370MOL0     H48790   2.772   1.524   2.174  3.7626  0.6328  1.7454
  370MOL0     H48791   2.640   1.710   1.989 -0.6124 -0.0215  0.9839
  370MOL0     H48792   2.558   1.602   2.099 -0.2686 -2.3120  0.6490
  370MOL0     H48793   2.512   1.356   2.027  1.0557 -0.6255  0.7493
  370MOL0     H48794   2.618   1.113   1.791 -1.9206 -1.6310 -0.6597
  370MOL0     H48795   2.516   1.201   1.678 -0.2589  1.0319  0.7537
  370MOL0     H48796   2.441   1.132   1.969 -2.8496 -0.8912 -0.7474
  370MOL0     H48797   2.420   1.024   1.843  0.8920 -1.1037  0.9366
  370MOL0     H48798   2.306   1.324   1.828 -0.8389  0.0655  0.7746
  370MOL0     H48799   2.261   1.181   1.731  0.0905  0.0501 -0.5910
  370MOL0     H48800   2.220   1.160   2.042 -0.8557  0.5276  0.8670
  370MOL0     H48801   2.134   1.106   1.894  2.1701 -1.2562 -0.4208
  370MOL0     H48802   2.040   1.141   2.172  0.4333  0.6886  0.0144
  370MOL0     H48803   1.915   1.254   2.366 -0.0036  0.8652 -0.8198
  370MOL0     H48804   1.561   1.343   2.455 -3.1476  0.1079  0.6399
  370MOL0     H48805   1.357   1.414   2.575  0.4312  0.5950 -0.6265
  370MOL0     H48806   1.206   1.483   2.686  0.5866  0.1712 -1.3217
  370MOL0     H48807   1.238   1.650   2.663 -4.0961 -1.2621 -0.1880
  370MOL0     H48808   1.088   1.515   2.903 -0.8758  0.7856  0.4738
  370MOL0     H48809   1.024   1.606   2.773  1.0374 -1.7357 -2.9867
  370MOL0     H48810   1.191   1.807   2.883 -0.8573 -0.3054 -1.0120
  370MOL0     H48811   1.194   1.699   3.014  2.7957 -0.5263 -1.1739
  370MOL0     H48812   0.941   1.814   2.892 -2.2514 -2.0829  0.4642
  370MOL0     H48813   0.953   1.690   3.017  1.0752 -1.0538 -0.7654
  370MOL0     H48814   1.098   1.828   3.147 -2.1716 -2.2564  1.2546
  370MOL0     H48815   0.930   1.876   3.138 -0.3952  0.4927 -0.5727
  370MOL0     H48816   1.007   2.024   2.941 -1.0046  0.7384  0.8364
  370MOL0     H48817   1.175   2.000   3.013 -1.4701 -4.7046 -3.2971
  370MOL0     H48818   0.956   2.170   3.136 -0.5432 -1.4229  1.7305
  370MOL0     H48819   1.089   2.103   3.225 -3.0463  2.4439  2.0044
  370MOL0     H48820   1.251   2.206   3.067 -0.7112 -0.2536  1.2680
  370MOL0     H48821   1.128   2.327   3.131 -1.6837  0.7483 -1.4382
  370MOL0     H48822   1.590   1.668   2.835 -2.3166  2.6953 -2.2028
  370MOL0     H48823   1.800   1.589   2.705  0.8773 -2.8414 -1.7454
  370MOL0     H48824   1.903   1.626   2.158  1.6397  1.2210 -2.4820
  370MOL0     H48825   2.011   1.534   1.970  0.8067  2.6927  2.4489
  370MOL0     H48826   3.311   1.863   2.905  0.7727 -0.5540 -0.8305
  370MOL0     H48827   3.529   1.855   2.993  0.5141 -2.4930 -1.3531
  370MOL0     H48828   3.833   2.188   3.264  2.5442  1.3655  1.2005
  370MOL0     H48829   4.051   2.120   3.381  3.2683 -0.7438 -0.6869
  370MOL0     H48830   4.385   2.064   3.120 -1.6899  2.1217 -0.1435
  370MOL0     H48831   4.339   1.888   3.144 -2.3989 -0.8104  3.3855
  370MOL0     H48832   4.425   1.870   3.355 -3.0650  2.3712 -1.3405
  370MOL0     H48833   4.554   1.902   3.245 -0.5509 -1.7227  0.5009
  370MOL0     H48834   4.615   2.038   3.417 -0.3267  0.0054  0.9605
  370MOL0     H48835   4.454   2.106   3.440 -1.2345  2.1166 -1.8153
  370MOL0     H48836   4.489   2.232   3.226  2.9013  2.4447 -3.0536
  370MOL0     H48837   4.626   2.249   3.335  1.2156  1.7489 -1.1663
  370MOL0     H48838   4.816   2.095   3.002 -0.2054  0.5125  0.6950
  370MOL0     H48839   4.183   1.944   3.025 -1.7599 -0.9911  1.1191
  370MOL0     H48840   3.970   1.970   2.921  2.3321 -1.9798  1.3140
  371MOL0     O48841   7.602   6.564  10.448  0.9816 -0.1118 -0.4210
  371MOL0     C48842   7.619   6.599  10.328 -0.2858  0.1028  0.3045
  371MOL0     O48843   7.522   6.661  10.247 -0.6308  0.3417 -0.6936
  371MOL0     C48844   7.395   6.683  10.294  1.1011  0.0968 -0.1690
  371MOL0     C48845   7.315   6.597  10.372  0.0216 -0.0406  0.7279
  371MOL0     C48846   7.191   6.641  10.424  0.0236  0.0287 -0.6812
  371MOL0     C48847   7.142   6.771  10.402 -0.5461  0.4313 -0.4226
  371MOL0     O48848   7.011   6.814  10.434  0.1824  0.0835  0.0907
  371MOL0     C48849   6.966   6.786  10.569  0.4645 -0.2204  1.1760
  371MOL0     C48850   6.828   6.847  10.589  0.3548 -0.2948 -0.2945
  371MOL0     C48851   6.780   6.861  10.737  0.7653 -0.6984  0.0916
  371MOL0     C48852   6.863   6.929  10.844 -0.1094 -0.1005  0.3600
  371MOL0     C48853   6.882   7.073  10.816  0.2540  0.3346 -0.4185
  371MOL0     C48854   6.967   7.161  10.915 -0.3347 -0.7592 -0.2213
  371MOL0     C48855   7.109   7.116  10.934 -0.3161  0.1767  0.0878
  371MOL0     C48856   7.179   7.197  11.033 -0.7023  0.2591  1.0139
  371MOL0     N48857   7.322   7.170  11.038 -0.2775 -0.0857 -0.2179
  371MOL0     C48858   7.421   7.260  11.071 -0.6246 -0.1917  0.5647
  371MOL0     C48859   7.536   7.189  11.081  0.0780 -0.0672 -0.3610
  371MOL0     C48860   7.673   7.241  11.112  1.1837  0.1180 -0.0467
  371MOL0     C48861   7.791   7.184  11.035  1.0022  0.5909  0.8444
  371MOL0     C48862   7.787   7.220  10.886 -0.6403 -0.1315 -0.1206
  371MOL0     C48863   7.919   7.171  10.828 -0.3726 -0.7136 -0.2276
  371MOL0     O48864   7.929   7.225  10.695 -0.2825  0.0697 -0.0028
  371MOL0     C48865   8.041   7.206  10.614  0.0246 -0.1789 -0.2017
  371MOL0     C48866   8.028   7.244  10.480 -0.1763 -0.0966  0.0491
  371MOL0     C48867   8.131   7.232  10.390 -0.3941 -0.0619 -0.4588
  371MOL0     C48868   8.259   7.187  10.436  0.0597 -0.8189  0.3659
  371MOL0     C48869   8.385   7.183  10.351 -0.0726  0.2246 -0.7952
  371MOL0     O48870   8.513   7.202  10.411  0.8030 -0.3800  0.1673
  371MOL0     C48871   8.619   7.245  10.335 -0.4511 -0.2892  0.0871
  371MOL0     C48872   8.644   7.199  10.206 -0.4904 -0.0508 -0.7646
  371MOL0     C48873   8.758   7.224  10.131  0.2188 -0.1882 -0.3117
  371MOL0     C48874   8.853   7.309  10.182 -0.2707  0.4591 -0.4263
  371MOL0     O48875   8.970   7.322  10.102  0.2566  0.0651  0.7727
  371MOL0     C48876   9.097   7.357  10.153  0.6133 -0.6882 -0.4021
  371MOL0     C48877   9.189   7.264  10.080  0.5658  0.2205  0.5808
  371MOL0     C48878   9.335   7.279  10.117 -0.4618  0.4510 -0.6898
  371MOL0     C48879   9.427   7.177  10.041 -0.7094  0.1922 -0.0893
  371MOL0     C48880   9.576   7.201  10.049 -0.5742 -1.3049  0.3532
  371MOL0     C48881   9.614   7.166  10.190  0.2140  0.4193 -0.6312
  371MOL0     C48882   9.759   7.174  10.226  0.2319  0.6351 -0.0375
  371MOL0     C48883   9.847   7.273  10.145  0.2410  1.2171 -1.1835
  371MOL0    Cl48884   9.780   7.439  10.137  0.4354 -0.2703  0.2690
  371MOL0     C48885   8.838   7.352  10.317 -0.4118  0.0855 -0.2505
  371MOL0     C48886   8.721   7.320  10.389 -0.3547 -0.1217 -0.5216
  371MOL0     O48887   8.357   7.186  10.232 -0.4557  0.5994 -0.4483
  371MOL0     C48888   8.269   7.138  10.568  0.1833 -0.2812 -0.1999
  371MOL0     C48889   8.158   7.145  10.656 -0.2460 -1.2228  0.0173
  371MOL0     N48890   7.504   7.056  11.050 -0.4674 -0.4147  0.7603
  371MOL0     N48891   7.382   7.046  11.019  0.0730  0.0282 -0.1434
  371MOL0     C48892   7.215   6.852  10.314 -0.0590 -1.1501 -0.9162
  371MOL0     C48893   7.340   6.804  10.264  0.7471  0.4869  0.8047
  371MOL0     C48894   7.759   6.580  10.280  0.2234  0.4929 -0.0989
  371MOL0     C48895   7.801   6.653  10.168  1.0608  0.3907 -0.1840
  371MOL0     C48896   7.934   6.641  10.121  0.3954  0.1407  0.4141
  371MOL0     C48897   8.026   6.552  10.187  0.5833 -1.0172 -1.2559
  371MOL0     O48898   8.154   6.534  10.156 -1.2561 -0.3840  0.8954
  371MOL0     C48899   8.227   6.637  10.084 -0.4441 -0.2136  0.7934
  371MOL0     C48900   8.364   6.587  10.054  0.7581  0.3438 -0.8406
  371MOL0     C48901   8.354   6.481   9.937  0.5199  0.3280  0.9115
  371MOL0     C48902   8.470   6.375   9.935  0.5249  0.1402  0.3017
  371MOL0     C48903   8.613   6.415   9.973 -0.4550  0.2350 -0.4225
  371MOL0     C48904   8.727   6.454  10.004  0.0437  0.8830  0.5624
  371MOL0     C48905   7.977   6.487  10.307  0.7952 -0.6093 -0.2609
  371MOL0     C48906   7.847   6.502  10.347 -0.0914  0.4949  0.6257
  371MOL0     H48907   7.351   6.496  10.386 -1.1587 -0.7362 -0.8977
  371MOL0     H48908   7.141   6.575  10.494  0.9640 -0.0369 -0.0662
  371MOL0     H48909   7.038   6.831  10.638 -1.5372  0.4815  2.9098
  371MOL0     H48910   6.960   6.679  10.592 -2.8030 -0.2354  0.8247
  371MOL0     H48911   6.748   6.793  10.536 -1.9481 -0.9090  3.4549
  371MOL0     H48912   6.835   6.944  10.539  1.1355 -1.3173 -2.2959
  371MOL0     H48913   6.756   6.760  10.771  2.3735 -0.3164  2.6395
  371MOL0     H48914   6.682   6.909  10.732 -0.1230 -2.3902  0.6442
  371MOL0     H48915   6.801   6.924  10.933 -1.0386 -3.5847 -0.3326
  371MOL0     H48916   6.955   6.875  10.870 -0.8204 -0.9464  1.2042
  371MOL0     H48917   6.785   7.123  10.823  0.4044  0.4538  1.3103
  371MOL0     H48918   6.926   7.088  10.717  0.6379  1.2934 -0.1156
  371MOL0     H48919   6.920   7.158  11.014 -0.0473  0.9704  0.0110
  371MOL0     H48920   6.976   7.259  10.868  0.1812 -0.8444 -0.3105
  371MOL0     H48921   7.112   7.016  10.979 -1.4447 -1.6940 -3.5084
  371MOL0     H48922   7.170   7.119  10.843  2.3754 -1.6121  1.7086
  371MOL0     H48923   7.132   7.177  11.130 -2.3824  0.3579  0.2623
  371MOL0     H48924   7.153   7.303  11.024 -2.9496 -0.3193 -0.1008
  371MOL0     H48925   7.400   7.366  11.061 -1.2285 -0.5135 -2.1421
  371MOL0     H48926   7.687   7.208  11.215 -2.1860  1.3348  0.9106
  371MOL0     H48927   7.678   7.350  11.117  0.8238  0.0986  0.6924
  371MOL0     H48928   7.795   7.075  11.044  2.1930  0.2842 -2.0877
  371MOL0     H48929   7.886   7.225  11.072 -0.0956  1.7422  2.5223
  371MOL0     H48930   7.707   7.164  10.837  0.0297 -0.2720 -1.0902
  371MOL0     H48931   7.795   7.328  10.869  1.9308  0.0923  1.9278
  371MOL0     H48932   7.928   7.062  10.832 -0.1527 -0.7993 -2.1178
  371MOL0     H48933   7.996   7.222  10.887  0.4777 -1.3173 -0.7873
  371MOL0     H48934   7.934   7.287  10.446 -0.4400 -0.3402  0.4635
  371MOL0     H48935   8.127   7.263  10.286  0.3405 -1.4815 -0.9289
  371MOL0     H48936   8.574   7.131  10.158 -1.3033 -0.7556  1.2732
  371MOL0     H48937   8.763   7.186  10.029  1.3221  2.1959 -1.1999
  371MOL0     H48938   9.104   7.344  10.261 -1.0118  1.5142  0.0426
  371MOL0     H48939   9.124   7.460  10.126  1.7528 -0.9370 -0.2737
  371MOL0     H48940   9.178   7.292   9.975  1.0815 -2.3594 -0.2355
  371MOL0     H48941   9.149   7.162  10.089 -1.3350  0.8317 -0.3775
  371MOL0     H48942   9.343   7.248  10.221  0.0052 -2.9148 -1.6061
  371MOL0     H48943   9.368   7.384  10.112  1.3591 -0.1220 -2.3726
  371MOL0     H48944   9.408   7.071  10.058 -0.5349  0.0383 -0.8582
  371MOL0     H48945   9.395   7.190   9.938 -3.3922 -2.4173  0.2866
  371MOL0     H48946   9.592   7.309  10.036 -2.5350 -0.8690  1.1381
  371MOL0     H48947   9.629   7.146   9.971 -1.6787 -0.6911 -0.8673
  371MOL0     H48948   9.574   7.068  10.218 -0.6699  0.3773 -1.9502
  371MOL0     H48949   9.561   7.237  10.254  0.5191 -1.2776  1.6506
  371MOL0     H48950   9.764   7.213  10.328 -0.3239 -2.1052  1.1352
  371MOL0     H48951   9.801   7.073  10.217 -1.2920 -0.0497  0.1849
  371MOL0     H48952   9.867   7.248  10.040 -1.2211  1.2187 -1.4831
  371MOL0     H48953   9.941   7.278  10.201 -0.5184  1.2634  0.1202
  371MOL0     H48954   8.916   7.423  10.342 -1.2522  0.6849  0.7883
  371MOL0     H48955   8.706   7.349  10.492 -1.2264  1.2255 -1.0020
  371MOL0     H48956   8.355   7.086  10.608  0.4856  1.5325  1.6329
  371MOL0     H48957   8.183   7.130  10.761  0.7083  0.8246  0.1318
  371MOL0     H48958   7.167   6.946  10.289 -2.5511 -1.9875  0.3150
  371MOL0     H48959   7.398   6.867  10.197  2.0043 -0.3280  1.1096
  371MOL0     H48960   7.735   6.719  10.113  2.4629  0.2224 -2.2018
  371MOL0     H48961   7.957   6.682  10.023  0.3173 -2.6910 -0.8909
  371MOL0     H48962   8.228   6.724  10.150  2.8059 -0.4875  1.2698
  371MOL0     H48963   8.175   6.658   9.990  1.2041  1.0621  0.1141
  371MOL0     H48964   8.437   6.667  10.037  1.3657  0.3498  1.5312
  371MOL0     H48965   8.400   6.529  10.139 -0.4236 -2.0462 -1.8870
  371MOL0     H48966   8.359   6.536   9.843 -1.1344 -0.7940  0.1475
  371MOL0     H48967   8.261   6.425   9.934 -0.0927  1.3537 -1.2719
  371MOL0     H48968   8.427   6.320  10.020 -1.7541  1.3437 -0.0144
  371MOL0     H48969   8.458   6.329   9.836  0.5087  0.9879 -0.0913
  371MOL0     H48970   8.828   6.467  10.038  0.2829  1.2797 -0.2772
  371MOL0     H48971   8.040   6.418  10.361  2.9657  1.8354  0.5463
  371MOL0     H48972   7.823   6.449  10.438 -1.9770  1.8148  0.9667
  372MOL0     O48973   3.411   6.629  11.029  0.6141  0.6732  0.1141
  372MOL0     C48974   3.366   6.734  10.979 -0.0175 -0.0840  0.0343
  372MOL0     O48975   3.237   6.761  10.957  0.8657  0.3873 -0.3099
  372MOL0     C48976   3.136   6.671  11.001 -0.5435 -1.4103  0.1732
  372MOL0     C48977   3.129   6.623  11.135  0.3222 -0.1080  0.9523
  372MOL0     C48978   3.030   6.541  11.171 -0.4930  0.2353 -0.2030
  372MOL0     C48979   2.929   6.495  11.087 -0.1044  0.0313 -0.1496
  372MOL0     O48980   2.833   6.410  11.135 -0.0064 -0.5042  0.0976
  372MOL0     C48981   2.718   6.394  11.053  0.0067  0.1752  0.3902
  372MOL0     C48982   2.630   6.304  11.135 -0.7921 -0.9888  0.0856
  372MOL0     C48983   2.681   6.163  11.132 -0.3776  0.3852  0.0690
  372MOL0     C48984   2.632   6.083  11.254  0.7523 -0.0999 -0.0583
  372MOL0     C48985   2.641   5.929  11.242 -0.1721  0.0646 -0.3768
  372MOL0     C48986   2.780   5.880  11.192  1.0968 -0.2183  0.3987
  372MOL0     C48987   2.772   5.725  11.187  0.2025  0.2843  0.2433
  372MOL0     C48988   2.867   5.655  11.084  0.9453 -0.7709 -0.2665
  372MOL0     N48989   2.829   5.667  10.943  0.1259 -0.4608  0.2507
  372MOL0     C48990   2.806   5.554  10.864  0.2836 -0.3886 -1.8418
  372MOL0     C48991   2.781   5.605  10.745 -0.5771 -0.3197  0.0890
  372MOL0     C48992   2.746   5.522  10.620  0.1896  0.1683 -1.5872
  372MOL0     C48993   2.817   5.584  10.503  0.4246 -0.5947  0.7497
  372MOL0     C48994   2.844   5.499  10.383  1.1044  0.2332 -0.2816
  372MOL0     C48995   2.718   5.497  10.294  0.4126  0.3416  0.3501
  372MOL0     O48996   2.596   5.465  10.364 -0.1696  0.6279 -0.7460
  372MOL0     C48997   2.477   5.485  10.299  0.1245  0.5879 -0.3671
  372MOL0     C48998   2.357   5.474  10.368  0.3929  0.1665 -0.7767
  372MOL0     C48999   2.228   5.482  10.317 -0.3829  0.2287  0.1218
  372MOL0     C49000   2.218   5.506  10.180 -1.0963 -0.6993  0.2948
  372MOL0     C49001   2.080   5.515  10.124 -0.8738 -1.2549  0.6177
  372MOL0     O49002   1.982   5.468  10.202  0.4040 -0.1694  0.7144
  372MOL0     C49003   1.852   5.480  10.157  0.8061  0.0320 -0.3710
  372MOL0     C49004   1.799   5.571  10.066  0.9857  0.6986  1.0047
  372MOL0     C49005   1.659   5.569  10.034  0.9993 -0.7965 -0.0972
  372MOL0     C49006   1.582   5.467  10.075 -0.0787  0.4637 -0.3519
  372MOL0     O49007   1.456   5.453  10.043 -0.2544 -0.7422  0.8410
  372MOL0     C49008   1.403   5.335   9.991  0.4738 -0.0882 -0.8936
  372MOL0     C49009   1.251   5.319  10.026  0.6788  0.8539  0.3656
  372MOL0     C49010   1.167   5.261   9.904  0.2401 -0.5430  0.0913
  372MOL0     C49011   1.018   5.242   9.942 -0.2530  0.1480  0.1642
  372MOL0     C49012   0.937   5.140   9.850  0.3849  0.7910  0.1183
  372MOL0     C49013   0.931   5.174   9.700  0.5700  0.0696 -0.7635
  372MOL0     C49014   0.849   5.299   9.660 -0.2191 -0.7959 -0.0963
  372MOL0     C49015   0.858   5.328   9.514  0.1521  0.3316  0.4504
  372MOL0    Cl49016   0.720   5.266   9.425 -0.2944 -0.1563  0.1588
  372MOL0     C49017   1.635   5.376  10.175 -0.4519  0.2106 -0.1125
  372MOL0     C49018   1.771   5.375  10.200  0.2169 -0.2256 -0.0087
  372MOL0     O49019   2.069   5.553  10.002  0.2461 -0.0110 -0.4435
  372MOL0     C49020   2.338   5.511  10.107 -0.2941 -0.4498 -0.0585
  372MOL0     C49021   2.460   5.492  10.163 -0.3749  0.3347 -0.5592
  372MOL0     N49022   2.784   5.743  10.750 -0.4355 -1.1872  0.1822
  372MOL0     N49023   2.822   5.782  10.865 -0.8667  0.6731 -1.1879
  372MOL0     C49024   2.935   6.538  10.947 -1.0143  0.0611 -0.3297
  372MOL0     C49025   3.040   6.622  10.903  0.1783 -0.6167  0.0097
  372MOL0     C49026   3.470   6.824  10.914 -0.0090  0.6502 -0.3647
  372MOL0     C49027   3.437   6.955  10.885  1.0838 -0.3690  0.1973
  372MOL0     C49028   3.541   7.050  10.848 -0.7356 -0.4810 -0.4476
  372MOL0     C49029   3.678   7.005  10.833 -0.4139 -0.1182  0.1545
  372MOL0     O49030   3.767   7.097  10.790 -0.6511 -0.2532  0.2125
  372MOL0     C49031   3.899   7.045  10.773  0.4897  0.0520  0.2732
  372MOL0     C49032   3.990   7.147  10.719  0.8087  0.1651  0.0175
  372MOL0     C49033   4.133   7.079  10.689 -0.5286 -0.2505 -0.1758
  372MOL0     C49034   4.239   7.180  10.652 -0.0523 -0.2361 -0.3649
  372MOL0     C49035   4.377   7.125  10.642  0.1192 -0.1510 -0.1875
  372MOL0     C49036   4.486   7.084  10.632 -0.5948  0.2763 -0.2961
  372MOL0     C49037   3.705   6.868  10.848 -0.6586 -0.8103 -0.9155
  372MOL0     C49038   3.596   6.783  10.880  0.2406 -0.1476 -0.5265
  372MOL0     H49039   3.198   6.649  11.215 -1.0804 -0.1545  2.2264
  372MOL0     H49040   3.042   6.492  11.267  2.0225 -0.5822 -0.8333
  372MOL0     H49041   2.746   6.349  10.957  1.2688  1.5775  0.0615
  372MOL0     H49042   2.668   6.490  11.035  3.3306  1.4702 -3.5187
  372MOL0     H49043   2.526   6.314  11.103 -0.6024 -1.2666 -0.6369
  372MOL0     H49044   2.622   6.340  11.238 -1.6993 -1.9079  0.3483
  372MOL0     H49045   2.790   6.164  11.138 -0.4093  0.6875  0.6513
  372MOL0     H49046   2.657   6.113  11.038  1.2551 -0.5268  0.1083
  372MOL0     H49047   2.691   6.113  11.341  0.9662  0.6825 -0.4692
  372MOL0     H49048   2.527   6.105  11.275  0.3442 -1.7052 -0.2821
  372MOL0     H49049   2.565   5.890  11.173 -1.1590  0.2971  0.5451
  372MOL0     H49050   2.623   5.878  11.338 -2.2735 -0.0171 -0.7744
  372MOL0     H49051   2.862   5.909  11.258  0.7101  1.1358  0.3169
  372MOL0     H49052   2.788   5.917  11.090  1.8475 -0.4806  0.3573
  372MOL0     H49053   2.796   5.681  11.284  1.6445  0.3985 -0.0395
  372MOL0     H49054   2.670   5.699  11.157  0.9735 -0.2843 -2.0560
  372MOL0     H49055   2.864   5.549  11.109  3.6640 -0.8923 -0.1411
  372MOL0     H49056   2.966   5.699  11.104  1.8636 -3.1192  0.7110
  372MOL0     H49057   2.814   5.449  10.888 -0.8113  0.4304  3.3531
  372MOL0     H49058   2.640   5.528  10.594 -0.0145 -0.3863 -0.8933
  372MOL0     H49059   2.784   5.422  10.642  4.3711  2.0588  0.9270
  372MOL0     H49060   2.913   5.621  10.541  0.7932  0.3566 -1.0134
  372MOL0     H49061   2.758   5.668  10.466  4.7122  2.0087 -0.8859
  372MOL0     H49062   2.936   5.536  10.338  0.8282 -0.3033 -1.3371
  372MOL0     H49063   2.869   5.396  10.412  0.3887 -0.3568 -1.6133
  372MOL0     H49064   2.729   5.419  10.218  3.5335 -0.8976  1.8962
  372MOL0     H49065   2.707   5.598  10.255 -0.9287  0.8381  1.8803
  372MOL0     H49066   2.364   5.455  10.474  0.8780 -2.8660 -1.2872
  372MOL0     H49067   2.139   5.489  10.379 -0.8506  2.3863 -0.6885
  372MOL0     H49068   1.852   5.651  10.016  1.5579 -0.0989  0.3278
  372MOL0     H49069   1.616   5.659   9.990  0.4694 -0.8116  0.3736
  372MOL0     H49070   1.459   5.250  10.032  1.8480  1.0760 -0.2924
  372MOL0     H49071   1.420   5.335   9.883  1.5438  2.3979 -0.7774
  372MOL0     H49072   1.223   5.425  10.033  0.0919  0.8037 -0.9876
  372MOL0     H49073   1.228   5.266  10.119  0.2490  0.6839  0.1649
  372MOL0     H49074   1.209   5.162   9.883 -1.4867 -1.7310  1.8919
  372MOL0     H49075   1.181   5.315   9.810 -1.6677 -1.0247 -0.5105
  372MOL0     H49076   1.013   5.198  10.042 -0.0766 -0.9446 -0.2832
  372MOL0     H49077   0.967   5.338   9.934  0.0194  0.1720 -1.5865
  372MOL0     H49078   0.837   5.134   9.895  1.3958 -1.3856  2.2476
  372MOL0     H49079   0.964   5.035   9.864 -1.1369  0.5053  1.1592
  372MOL0     H49080   0.894   5.082   9.654  0.0944 -0.1242 -0.0047
  372MOL0     H49081   1.030   5.203   9.663  0.6630  1.8180  0.6989
  372MOL0     H49082   0.745   5.285   9.693  0.3705  0.3423  2.4741
  372MOL0     H49083   0.881   5.394   9.703 -0.1219 -0.5975 -0.6022
  372MOL0     H49084   0.955   5.290   9.480 -0.2613  0.0249 -0.3977
  372MOL0     H49085   0.854   5.435   9.494 -1.2470  0.5514  1.7185
  372MOL0     H49086   1.564   5.306  10.216  0.2242 -0.1319  0.5142
  372MOL0     H49087   1.808   5.298  10.267 -1.5261 -0.7114  0.4235
  372MOL0     H49088   2.339   5.520   9.998 -1.7823 -1.7239 -0.2148
  372MOL0     H49089   2.550   5.493  10.102 -1.0112  1.4751 -1.5228
  372MOL0     H49090   2.856   6.512  10.878 -2.7228  4.2629 -0.2654
  372MOL0     H49091   3.046   6.654  10.800  0.0479 -4.5968 -1.3955
  372MOL0     H49092   3.338   7.000  10.889  1.5226  0.5689  1.1977
  372MOL0     H49093   3.523   7.156  10.834  2.2249 -0.0647 -1.8444
  372MOL0     H49094   3.897   6.966  10.697  1.6916 -0.0156  0.2909
  372MOL0     H49095   3.942   7.020  10.871  2.3346  1.2735 -0.1762
  372MOL0     H49096   3.936   7.177  10.629 -1.0862 -0.0585  1.0215
  372MOL0     H49097   3.996   7.236  10.783 -0.2897 -1.1908  2.1555
  372MOL0     H49098   4.114   7.018  10.600  1.0541  1.9760 -2.1574
  372MOL0     H49099   4.175   7.023  10.773  2.3883 -0.8338 -1.8566
  372MOL0     H49100   4.214   7.225  10.556 -2.6406 -1.4712 -0.3460
  372MOL0     H49101   4.246   7.252  10.734  0.4734 -1.8284  1.0472
  372MOL0     H49102   4.588   7.053  10.636  0.9063  4.6905  1.3251
  372MOL0     H49103   3.799   6.816  10.827 -0.7743 -0.9315 -1.1412
  372MOL0     H49104   3.620   6.678  10.890  0.9677  0.1054  0.4982
  373MOL0     O49105   6.626   9.919   9.828  0.2788  0.9306  0.2398
  373MOL0     C49106   6.671  10.032   9.867  1.0310  0.2101  0.9453
  373MOL0     O49107   6.800  10.071   9.878  0.2797 -0.3893  0.3140
  373MOL0     C49108   6.898   9.971   9.871  0.4357  0.6843  0.9915
  373MOL0     C49109   7.014  10.015   9.808 -1.6514 -0.1680 -0.3525
  373MOL0     C49110   7.117   9.933   9.782 -0.3362  0.3836  0.8179
  373MOL0     C49111   7.118   9.796   9.822 -1.0648 -0.4510  0.5233
  373MOL0     O49112   7.208   9.706   9.768  0.0169  0.0733 -0.0148
  373MOL0     C49113   7.330   9.747   9.713  0.2364 -0.1084  0.3693
  373MOL0     C49114   7.356   9.637   9.601 -0.2234  0.2379  0.0505
  373MOL0     C49115   7.494   9.662   9.526 -0.6245  0.0671  0.1129
  373MOL0     C49116   7.607   9.627   9.626  0.5795  0.0847 -0.2609
  373MOL0     C49117   7.751   9.641   9.553  0.1198  0.0600 -0.1772
  373MOL0     C49118   7.859   9.608   9.658 -0.5893  0.5663 -0.7633
  373MOL0     C49119   7.995   9.581   9.591  0.1461  0.5712  0.6984
  373MOL0     C49120   8.071   9.711   9.570  0.4050 -0.7260  0.0216
  373MOL0     N49121   8.206   9.694   9.525  0.0153 -1.0478  0.6529
  373MOL0     C49122   8.298   9.791   9.494  0.3386  0.3189 -0.4347
  373MOL0     C49123   8.409   9.729   9.449 -0.6700  0.8391 -0.3538
  373MOL0     C49124   8.543   9.793   9.421 -0.3859 -0.7555 -0.3688
  373MOL0     C49125   8.614   9.742   9.287 -0.4689  0.0071 -0.8199
  373MOL0     C49126   8.520   9.759   9.159  0.7251 -0.0550 -0.2377
  373MOL0     C49127   8.526   9.892   9.094 -0.5629  0.4008 -0.8655
  373MOL0     O49128   8.470   9.993   9.178 -0.5914 -0.0955 -0.0905
  373MOL0     C49129   8.335  10.006   9.198  0.8905 -0.3156  0.9459
  373MOL0     C49130   8.235   9.928   9.147  0.0162  0.2643  0.1834
  373MOL0     C49131   8.102   9.950   9.184 -0.6760 -0.5988  0.3767
  373MOL0     C49132   8.072  10.052   9.272  0.7417 -0.3722 -0.0927
  373MOL0     C49133   7.931  10.073   9.313 -0.5820  0.3561  1.1108
  373MOL0     O49134   7.898  10.194   9.365 -0.1097  1.1760 -0.0196
  373MOL0     C49135   7.765  10.215   9.376 -1.1029  0.0741  0.4343
  373MOL0     C49136   7.668  10.157   9.457 -0.0879 -0.3173 -0.2451
  373MOL0     C49137   7.538  10.207   9.475  0.7431  1.0099 -0.3571
  373MOL0     C49138   7.488  10.304   9.394 -0.2480  1.1157  0.1213
  373MOL0     O49139   7.362  10.352   9.404  0.0335  0.2795 -0.0317
  373MOL0     C49140   7.263  10.263   9.445 -0.0654 -0.7719 -0.6231
  373MOL0     C49141   7.165  10.341   9.530  0.2955 -0.0134 -0.1418
  373MOL0     C49142   7.074  10.433   9.446 -1.3075 -0.5698 -0.2978
  373MOL0     C49143   6.985  10.513   9.541 -0.3854  0.8840 -0.4841
  373MOL0     C49144   6.890  10.612   9.463  0.1502 -0.1153 -0.5020
  373MOL0     C49145   6.946  10.746   9.424 -0.3830 -0.8626  0.2935
  373MOL0     C49146   6.834  10.840   9.375  1.0565 -0.3336 -0.2586
  373MOL0     C49147   6.876  10.984   9.378 -0.1432 -1.0753 -0.6977
  373MOL0    Cl49148   7.038  11.006   9.290 -0.1509  0.0962  0.3886
  373MOL0     C49149   7.578  10.356   9.299 -0.0286  0.2335 -0.8113
  373MOL0     C49150   7.714  10.316   9.288  0.1688 -0.7960 -0.8774
  373MOL0     O49151   7.856   9.977   9.289  0.8085 -0.2304 -0.3150
  373MOL0     C49152   8.174  10.132   9.321  0.6287 -0.1254 -1.0697
  373MOL0     C49153   8.301  10.108   9.284 -0.6111 -0.3825 -0.1439
  373MOL0     N49154   8.383   9.591   9.457  0.8093 -0.2795 -0.5681
  373MOL0     N49155   8.261   9.580   9.483  0.7192  0.7093  0.1817
  373MOL0     C49156   7.009   9.749   9.891 -0.3783 -0.3556  0.2647
  373MOL0     C49157   6.896   9.834   9.918 -0.5167  1.2350 -0.2969
  373MOL0     C49158   6.557  10.137   9.899 -0.7632  0.0304  0.3046
  373MOL0     C49159   6.424  10.115   9.857 -0.5233  0.1301  0.2180
  373MOL0     C49160   6.328  10.214   9.882 -0.6108  0.3188  0.0762
  373MOL0     C49161   6.369  10.330   9.946  0.1232  0.0571  0.1645
  373MOL0     O49162   6.285  10.421   9.997  0.2415 -0.2075  0.0038
  373MOL0     C49163   6.165  10.457   9.925 -0.8596  0.8812 -0.6938
  373MOL0     C49164   6.100  10.597   9.959 -0.4749  0.2311  0.0644
  373MOL0     C49165   6.192  10.708   9.905 -0.7441  0.1690 -0.1768
  373MOL0     C49166   6.147  10.854   9.957  0.5871  0.2595 -0.0904
  373MOL0     C49167   6.186  10.874  10.093 -0.3162 -0.7931 -0.1145
  373MOL0     C49168   6.218  10.905  10.208 -0.7297 -0.6831 -0.4874
  373MOL0     C49169   6.503  10.351   9.978  0.1547 -0.0832 -0.8097
  373MOL0     C49170   6.595  10.251   9.961 -0.8236 -0.5184 -0.2943
  373MOL0     H49171   7.015  10.122   9.791 -1.1928 -0.1608 -0.2866
  373MOL0     H49172   7.192   9.982   9.720 -1.0574 -0.2186 -0.5809
  373MOL0     H49173   7.396   9.734   9.799  1.8459  0.9610 -0.6514
  373MOL0     H49174   7.337   9.847   9.667  0.0140  0.3958  1.4161
  373MOL0     H49175   7.269   9.643   9.534 -0.9997  0.0992  1.0197
  373MOL0     H49176   7.355   9.536   9.644  1.4771 -0.6082 -1.7549
  373MOL0     H49177   7.502   9.762   9.483 -3.0889  0.4644  0.4286
  373MOL0     H49178   7.498   9.585   9.449  1.6596 -0.7827  1.0013
  373MOL0     H49179   7.597   9.689   9.716 -4.2119 -0.1630 -0.3529
  373MOL0     H49180   7.594   9.524   9.659 -0.2860  0.2497 -0.0656
  373MOL0     H49181   7.755   9.742   9.511  0.7551  0.7936  1.5408
  373MOL0     H49182   7.754   9.565   9.474  0.4661 -1.6759  1.4405
  373MOL0     H49183   7.831   9.516   9.710  0.3618 -1.1474 -3.0825
  373MOL0     H49184   7.857   9.688   9.732  0.2822 -1.7737  1.9994
  373MOL0     H49185   8.047   9.516   9.662 -0.6478 -1.7002 -0.6930
  373MOL0     H49186   7.989   9.522   9.499  2.9432  0.7729  0.3069
  373MOL0     H49187   8.076   9.770   9.661  2.2130 -3.7325  2.0353
  373MOL0     H49188   8.020   9.784   9.506  1.1743  1.1031  1.4453
  373MOL0     H49189   8.268   9.896   9.499 -0.3663  0.0680  1.5620
  373MOL0     H49190   8.611   9.777   9.505  1.2589  1.1437 -1.2491
  373MOL0     H49191   8.526   9.901   9.411  1.1927 -0.6006 -1.9534
  373MOL0     H49192   8.641   9.636   9.297 -0.1742 -0.1704 -3.1386
  373MOL0     H49193   8.696   9.813   9.278 -2.5505  2.6989  0.1464
  373MOL0     H49194   8.548   9.682   9.086  0.6798 -0.0676 -0.2408
  373MOL0     H49195   8.416   9.742   9.188  0.4138  0.3363 -1.0980
  373MOL0     H49196   8.470   9.878   9.001 -1.4187 -1.8972 -0.0508
  373MOL0     H49197   8.630   9.912   9.068 -0.4629 -2.3007 -2.9721
  373MOL0     H49198   8.258   9.846   9.079 -2.0135 -1.3259  1.2970
  373MOL0     H49199   8.028   9.879   9.148 -1.7402 -1.1072  3.2850
  373MOL0     H49200   7.701  10.076   9.520  0.6475 -0.3795 -0.6991
  373MOL0     H49201   7.472  10.158   9.545 -0.7512  0.1137 -2.2836
  373MOL0     H49202   7.297  10.176   9.501  3.2196 -0.3370 -1.7151
  373MOL0     H49203   7.205  10.231   9.358 -0.7281  2.2604 -1.4332
  373MOL0     H49204   7.222  10.412   9.592  4.5993 -2.7010 -0.6196
  373MOL0     H49205   7.102  10.278   9.594  2.9581  1.9331  5.0313
  373MOL0     H49206   7.020  10.367   9.378 -0.1019 -0.9957 -0.8730
  373MOL0     H49207   7.145  10.495   9.390 -1.5481  2.2455  2.2626
  373MOL0     H49208   6.918  10.449   9.599 -0.3428 -0.1354 -1.5297
  373MOL0     H49209   7.046  10.563   9.617 -0.3798 -0.3897  0.3639
  373MOL0     H49210   6.798  10.622   9.521 -0.8737 -3.0621 -1.4340
  373MOL0     H49211   6.864  10.543   9.382  3.1855 -1.6006 -0.3813
  373MOL0     H49212   7.028  10.736   9.353 -0.2081  0.8113  0.2217
  373MOL0     H49213   6.982  10.786   9.519  0.5644 -1.4427  0.1872
  373MOL0     H49214   6.798  10.804   9.278 -0.3862  1.0095 -0.2505
  373MOL0     H49215   6.749  10.830   9.443  1.5896 -0.4753  0.4027
  373MOL0     H49216   6.881  11.029   9.478  0.3207 -0.3580 -1.0371
  373MOL0     H49217   6.798  11.038   9.325  0.1974 -0.1000 -0.2332
  373MOL0     H49218   7.542  10.441   9.242  0.2814  3.0972  2.8488
  373MOL0     H49219   7.783  10.356   9.214  1.1814 -1.1595 -0.1458
  373MOL0     H49220   8.148  10.213   9.388  1.3264 -2.3733  2.0932
  373MOL0     H49221   8.382  10.169   9.323  1.1354 -2.5493 -0.1706
  373MOL0     H49222   7.023   9.643   9.905  0.7304 -0.3265 -0.5272
  373MOL0     H49223   6.816   9.782   9.970 -0.1404  2.2666  1.3894
  373MOL0     H49224   6.402  10.030   9.794  2.0313  0.5400 -1.4149
  373MOL0     H49225   6.226  10.201   9.847  0.0020 -1.2580 -1.2379
  373MOL0     H49226   6.092  10.376   9.939  1.7083 -1.1730  2.1561
  373MOL0     H49227   6.195  10.462   9.820  0.2089  0.2069 -0.4372
  373MOL0     H49228   6.001  10.606   9.914 -1.5059  0.2624  2.2217
  373MOL0     H49229   6.092  10.594  10.068  1.7219 -1.4294  0.2428
  373MOL0     H49230   6.195  10.709   9.796  2.8638 -0.9443 -0.2191
  373MOL0     H49231   6.296  10.688   9.932 -1.4872 -1.5143  1.6076
  373MOL0     H49232   6.198  10.929   9.897  4.7450  1.0705  3.9105
  373MOL0     H49233   6.038  10.855   9.948  0.1328 -3.1664  2.5751
  373MOL0     H49234   6.260  10.920  10.305  1.7662 -1.3026 -1.3915
  373MOL0     H49235   6.532  10.445  10.022 -1.0445 -0.4742  0.9073
  373MOL0     H49236   6.701  10.267   9.982 -1.3536  2.0127  0.8407
  374MOL0     O49237   3.208   6.065   5.921  0.4322 -0.4859  0.5476
  374MOL0     C49238   3.280   6.170   5.938 -0.2593  0.6782 -0.6119
  374MOL0     O49239   3.239   6.273   6.014  0.8083 -0.2951 -0.0981
  374MOL0     C49240   3.109   6.278   6.051 -0.5459  0.2262 -0.4369
  374MOL0     C49241   3.002   6.290   5.958 -0.8661  0.1218  0.5472
  374MOL0     C49242   2.866   6.286   5.998 -0.2425  0.1245  0.0999
  374MOL0     C49243   2.841   6.269   6.136  0.2079 -0.0564  0.0792
  374MOL0     O49244   2.707   6.277   6.167  0.8570  0.7355  0.6690
  374MOL0     C49245   2.659   6.172   6.254 -0.7767  0.8909 -0.4883
  374MOL0     C49246   2.505   6.177   6.268 -0.1311 -0.3830  0.1668
  374MOL0     C49247   2.437   6.148   6.130  0.1953  0.6603  1.6303
  374MOL0     C49248   2.278   6.139   6.152 -1.1012  0.0946  0.7963
  374MOL0     C49249   2.206   6.150   6.009  0.4284 -0.1102  0.6032
  374MOL0     C49250   2.060   6.179   6.019  0.4916  0.0376  0.3129
  374MOL0     C49251   1.991   6.202   5.879 -1.5187 -0.7001  0.3495
  374MOL0     C49252   2.004   6.343   5.813  0.5990 -0.1327  0.1385
  374MOL0     N49253   1.988   6.457   5.902  0.3815  0.3671 -0.5849
  374MOL0     C49254   1.891   6.463   5.994 -0.0128 -0.0171 -0.9387
  374MOL0     C49255   1.891   6.601   6.032  0.5166 -0.4595 -0.4573
  374MOL0     C49256   1.793   6.669   6.125 -0.4671  0.2505  0.4303
  374MOL0     C49257   1.689   6.756   6.049  0.1486  0.2005  0.4718
  374MOL0     C49258   1.593   6.832   6.136  0.5175  0.2330 -0.3511
  374MOL0     C49259   1.499   6.920   6.047  0.6055 -0.2133 -0.4488
  374MOL0     O49260   1.573   7.032   5.994 -0.3395 -0.5973 -0.1680
  374MOL0     C49261   1.507   7.127   5.924 -0.3656 -0.4851  0.2784
  374MOL0     C49262   1.368   7.132   5.896 -0.1543  0.1930  0.9061
  374MOL0     C49263   1.320   7.229   5.815 -0.4073  0.5805  0.7543
  374MOL0     C49264   1.396   7.328   5.753 -0.2391  0.2606  0.1872
  374MOL0     C49265   1.323   7.423   5.674 -0.5258 -0.8506  0.1299
  374MOL0     O49266   1.212   7.390   5.608 -0.2380 -0.3754 -0.1063
  374MOL0     C49267   1.126   7.478   5.564  0.3152 -0.2718 -0.2463
  374MOL0     C49268   1.006   7.502   5.643 -1.0916  0.1505 -0.0600
  374MOL0     C49269   0.896   7.570   5.588  0.5320  0.4210  0.1936
  374MOL0     C49270   0.916   7.629   5.461 -0.5689 -1.0829  0.3559
  374MOL0     O49271   0.800   7.694   5.424  1.2019 -0.0502 -0.9238
  374MOL0     C49272   0.804   7.801   5.319  0.9290 -0.3053 -1.0736
  374MOL0     C49273   0.662   7.843   5.268  0.1385 -0.1866 -0.8810
  374MOL0     C49274   0.541   7.756   5.321  0.4585  0.0930 -0.7707
  374MOL0     C49275   0.422   7.809   5.247  1.0653  1.2636  0.1869
  374MOL0     C49276   0.298   7.725   5.286 -0.4391 -1.0038 -0.3583
  374MOL0     C49277   0.236   7.743   5.433  0.4131  0.0440 -0.0932
  374MOL0     C49278   0.219   7.898   5.468  0.0970  0.1454  0.1055
  374MOL0     C49279   0.095   7.926   5.554 -0.0076 -1.6052 -0.7678
  374MOL0    Cl49280   0.108   7.854   5.718 -0.5499  0.6355  0.1818
  374MOL0     C49281   1.034   7.611   5.387 -1.5065  0.3320  0.0804
  374MOL0     C49282   1.136   7.530   5.438 -0.0431 -0.4438 -0.1834
  374MOL0     O49283   1.371   7.535   5.671 -0.4279 -0.5625 -0.0781
  374MOL0     C49284   1.536   7.326   5.772 -0.4866 -0.1296 -0.7887
  374MOL0     C49285   1.591   7.220   5.857  0.4989  0.3079  0.9695
  374MOL0     N49286   1.984   6.668   5.961 -0.6326 -0.7288 -0.4646
  374MOL0     N49287   2.043   6.580   5.890  0.2143 -0.3259 -0.5430
  374MOL0     C49288   2.946   6.253   6.233 -0.7278 -0.5125 -0.4215
  374MOL0     C49289   3.080   6.259   6.188  0.5884  0.3430  0.4560
  374MOL0     C49290   3.420   6.174   5.882 -0.1951  0.7722  0.5447
  374MOL0     C49291   3.478   6.049   5.830 -0.2937 -0.2140 -1.6002
  374MOL0     C49292   3.611   6.046   5.795 -0.0157 -0.3827  0.2508
  374MOL0     C49293   3.694   6.165   5.802  0.0912 -0.0179 -0.3074
  374MOL0     O49294   3.826   6.145   5.774  0.2009  0.2754 -0.3640
  374MOL0     C49295   3.917   6.252   5.779  0.0076 -0.4542  0.3439
  374MOL0     C49296   3.970   6.294   5.909 -0.7543 -0.3884 -0.3548
  374MOL0     C49297   4.083   6.201   5.959 -1.1275  0.7719 -0.9593
  374MOL0     C49298   4.218   6.230   5.885  0.4581  0.1132 -0.4358
  374MOL0     C49299   4.313   6.113   5.898 -0.2965  0.2085  0.1559
  374MOL0     C49300   4.388   6.014   5.907  0.4271  0.0919 -0.0608
  374MOL0     C49301   3.639   6.290   5.848  0.7065  0.5080 -0.3895
  374MOL0     C49302   3.504   6.287   5.893 -0.3088  0.0790 -0.4706
  374MOL0     H49303   3.031   6.306   5.854  0.0515 -1.1316  0.5867
  374MOL0     H49304   2.793   6.314   5.923  0.3288  3.5364  0.6822
  374MOL0     H49305   2.687   6.183   6.359 -2.8784 -1.8329  0.4775
  374MOL0     H49306   2.693   6.073   6.223 -1.6759  0.3095  0.3454
  374MOL0     H49307   2.475   6.281   6.281 -1.5719 -0.0337 -4.2508
  374MOL0     H49308   2.475   6.112   6.350  0.3209  0.3638  0.9355
  374MOL0     H49309   2.474   6.055   6.086 -0.3464  1.5401 -0.9019
  374MOL0     H49310   2.448   6.219   6.048 -0.0792 -0.9772  0.0944
  374MOL0     H49311   2.257   6.044   6.201 -2.1696  1.6291  3.5359
  374MOL0     H49312   2.238   6.222   6.212  3.5287  1.3807  2.5498
  374MOL0     H49313   2.228   6.071   5.936 -1.1190 -0.6283  0.6672
  374MOL0     H49314   2.256   6.235   5.962 -0.2658 -0.8006 -1.5261
  374MOL0     H49315   2.046   6.268   6.082 -0.2010 -0.6536  1.1582
  374MOL0     H49316   2.011   6.095   6.069  1.4441  0.9902  3.0391
  374MOL0     H49317   2.020   6.134   5.798  0.2055  2.0744 -1.5319
  374MOL0     H49318   1.883   6.192   5.898 -1.3204 -0.8665  1.4160
  374MOL0     H49319   1.935   6.356   5.729  0.9068  0.4436 -0.0308
  374MOL0     H49320   2.108   6.339   5.778  0.0468 -1.6461 -1.4734
  374MOL0     H49321   1.823   6.384   6.025 -0.7081 -2.4632 -7.1843
  374MOL0     H49322   1.852   6.749   6.171  0.1700  0.6578 -1.0410
  374MOL0     H49323   1.748   6.600   6.197  1.6438  0.1590  1.7468
  374MOL0     H49324   1.638   6.692   5.976  1.3518  0.2330 -0.4272
  374MOL0     H49325   1.741   6.834   5.993  0.0615 -0.5214 -0.6455
  374MOL0     H49326   1.534   6.761   6.195  2.6873 -1.4648 -0.0834
  374MOL0     H49327   1.641   6.900   6.207  0.3924  1.3969 -1.3510
  374MOL0     H49328   1.423   6.963   6.114  0.6318  0.8686 -1.0885
  374MOL0     H49329   1.446   6.854   5.978 -0.2099  0.7018 -0.7177
  374MOL0     H49330   1.306   7.063   5.953 -1.0802  0.4986  0.2985
  374MOL0     H49331   1.215   7.237   5.791  0.0438  0.7831 -1.4048
  374MOL0     H49332   0.983   7.449   5.735  1.3835 -1.6795 -0.3874
  374MOL0     H49333   0.800   7.585   5.637  1.1815  0.3143  1.5402
  374MOL0     H49334   0.876   7.769   5.243  1.3542 -1.9608 -0.0140
  374MOL0     H49335   0.855   7.884   5.369  0.1832  0.2141 -1.1590
  374MOL0     H49336   0.669   7.827   5.160  0.1421 -1.8538 -0.6726
  374MOL0     H49337   0.640   7.947   5.292  0.0330  0.1061 -2.1737
  374MOL0     H49338   0.533   7.768   5.429 -1.2647 -0.3792 -0.8247
  374MOL0     H49339   0.545   7.648   5.305 -0.3952 -0.5148  2.5506
  374MOL0     H49340   0.411   7.914   5.278  0.0493  1.8231 -1.8661
  374MOL0     H49341   0.438   7.785   5.141 -1.2884 -0.6510  0.1774
  374MOL0     H49342   0.314   7.617   5.279 -0.2244 -0.8948 -1.6214
  374MOL0     H49343   0.219   7.743   5.213 -1.2910  2.2545  1.1686
  374MOL0     H49344   0.297   7.682   5.500  0.4823  0.6643  0.4211
  374MOL0     H49345   0.136   7.698   5.439  0.7023 -0.7077 -0.7448
  374MOL0     H49346   0.311   7.934   5.513  1.0038 -1.2295 -0.5786
  374MOL0     H49347   0.208   7.948   5.371  4.9985 -1.2936 -1.4424
  374MOL0     H49348   0.003   7.885   5.509 -1.0700  1.2644 -1.4387
  374MOL0     H49349   0.082   8.034   5.568  1.4200 -1.4559 -0.4875
  374MOL0     H49350   1.044   7.641   5.283  0.7187  0.0823  0.1773
  374MOL0     H49351   1.230   7.509   5.388 -0.0808  1.1740 -1.0000
  374MOL0     H49352   1.613   7.384   5.722  0.9849 -1.7642 -0.4822
  374MOL0     H49353   1.698   7.214   5.874  0.4122 -0.3529  1.3207
  374MOL0     H49354   2.920   6.246   6.338 -3.0290 -1.0367 -0.9759
  374MOL0     H49355   3.158   6.233   6.258 -0.1347 -4.6818 -0.2158
  374MOL0     H49356   3.428   5.953   5.835  1.5505 -1.2245 -1.9501
  374MOL0     H49357   3.643   5.946   5.767 -1.3625 -1.4454  2.1927
  374MOL0     H49358   3.863   6.328   5.723  0.8601 -0.5114 -0.5638
  374MOL0     H49359   4.005   6.233   5.718  0.1963 -0.8586  0.7267
  374MOL0     H49360   4.009   6.396   5.899  0.7157 -0.8022  0.7357
  374MOL0     H49361   3.887   6.298   5.981  1.5648  1.6058  2.4817
  374MOL0     H49362   4.047   6.100   5.940  4.5798 -1.7462 -0.4790
  374MOL0     H49363   4.106   6.213   6.066  1.8722 -1.6580 -1.1905
  374MOL0     H49364   4.214   6.251   5.778  2.2683 -0.1007 -0.5771
  374MOL0     H49365   4.277   6.316   5.918  1.7965 -0.8567 -0.2376
  374MOL0     H49366   4.447   5.925   5.912 -2.3247 -1.7872  1.2988
  374MOL0     H49367   3.708   6.372   5.869  1.6494 -0.3956  0.1437
  374MOL0     H49368   3.454   6.375   5.933  0.1483 -0.1281  0.5839
  375MOL0     O49369   1.279   6.605   4.064  0.0981 -0.1336 -0.3320
  375MOL0     C49370   1.284   6.513   4.150  0.3664  0.7342 -0.8027
  375MOL0     O49371   1.177   6.435   4.191  0.4141  0.2531  0.5596
  375MOL0     C49372   1.051   6.473   4.149  0.3275  0.2885 -0.1766
  375MOL0     C49373   1.006   6.603   4.140 -1.5512 -0.7719 -0.4828
  375MOL0     C49374   0.877   6.625   4.087  0.0853 -0.6159  0.0832
  375MOL0     C49375   0.778   6.524   4.067 -0.5808  0.1811 -1.5625
  375MOL0     O49376   0.655   6.556   4.026  0.5754  0.3733 -0.4849
  375MOL0     C49377   0.543   6.461   4.015 -0.3463  0.0762  0.2510
  375MOL0     C49378   0.561   6.383   3.887 -0.3667  0.2918 -0.2458
  375MOL0     C49379   0.446   6.283   3.862 -0.3353 -0.1071  0.3270
  375MOL0     C49380   0.497   6.191   3.744 -0.7159  0.0829  0.2058
  375MOL0     C49381   0.374   6.106   3.694 -0.0286 -0.1486  0.0602
  375MOL0     C49382   0.314   5.994   3.793  0.3780 -0.1960  0.5047
  375MOL0     C49383   0.246   5.879   3.718  0.1805 -0.2758  0.1188
  375MOL0     C49384   0.108   5.899   3.657  0.5438  0.6518 -0.2504
  375MOL0     N49385   0.038   6.011   3.725  0.0179 -0.7827  1.4604
  375MOL0     C49386   0.029   6.135   3.665  0.3464  0.7427 -0.1590
  375MOL0     C49387  -0.051   6.195   3.758  0.6480  0.0979  0.4138
  375MOL0     C49388  -0.078   6.340   3.737 -0.1149 -0.1826  0.1613
  375MOL0     C49389   0.042   6.440   3.764 -0.2657 -0.3173  0.3379
  375MOL0     C49390   0.021   6.573   3.851 -0.3075 -0.3611  0.0801
  375MOL0     C49391  -0.036   6.689   3.785  0.1348 -0.0967  0.3608
  375MOL0     O49392  -0.148   6.636   3.711  0.4639 -0.9177  0.3560
  375MOL0     C49393  -0.234   6.728   3.642 -0.5950 -0.4326  0.5978
  375MOL0     C49394  -0.205   6.856   3.608 -0.1952 -0.8077  0.0738
  375MOL0     C49395  -0.295   6.932   3.534  0.9625  0.3222 -0.9381
  375MOL0     C49396  -0.418   6.875   3.481  0.0419 -0.2552 -0.5346
  375MOL0     C49397  -0.510   6.951   3.396 -0.7960  0.1147  0.6026
  375MOL0     O49398  -0.632   6.893   3.358  0.7078 -0.1973  1.0397
  375MOL0     C49399  -0.735   6.961   3.296 -0.1652  0.0029  0.7151
  375MOL0     C49400  -0.745   7.104   3.277  0.6702  0.8440  0.4019
  375MOL0     C49401  -0.863   7.153   3.213 -0.7743 -0.2703 -0.5743
  375MOL0     C49402  -0.974   7.067   3.182 -0.4924  0.3713 -1.0005
  375MOL0     O49403  -1.090   7.092   3.126 -0.1336 -0.3487  0.1307
  375MOL0     C49404  -1.117   7.235   3.116 -0.4365 -0.3738  0.3150
  375MOL0     C49405  -1.270   7.234   3.092  0.2007 -0.0926 -0.2037
  375MOL0     C49406  -1.332   7.374   3.072 -0.2012 -0.5459  0.2203
  375MOL0     C49407  -1.480   7.363   3.028 -0.7981  0.0749 -0.6126
  375MOL0     C49408  -1.546   7.510   3.012  0.0575  0.3338  0.5751
  375MOL0     C49409  -1.687   7.503   2.956  0.4443 -0.0040  0.5389
  375MOL0     C49410  -1.757   7.641   2.952 -0.6021  0.2522 -0.5031
  375MOL0     C49411  -1.891   7.628   2.898 -0.2155  0.4502 -0.1618
  375MOL0    Cl49412  -2.002   7.516   2.985  0.0892 -0.4546 -0.1023
  375MOL0     C49413  -0.960   6.938   3.218  0.4650  0.9505 -0.3218
  375MOL0     C49414  -0.842   6.878   3.260 -0.1508 -0.1162  0.2617
  375MOL0     O49415  -0.465   7.058   3.346 -0.2339 -0.4619 -0.0396
  375MOL0     C49416  -0.442   6.748   3.521 -0.2414  1.4059 -0.4740
  375MOL0     C49417  -0.353   6.676   3.601 -0.3013  0.2449  0.0980
  375MOL0     N49418  -0.082   6.118   3.873 -0.1158 -0.0840 -0.6262
  375MOL0     N49419  -0.036   5.999   3.841 -0.1752  0.0802  0.3295
  375MOL0     C49420   0.816   6.394   4.100 -0.9516  0.1756  0.3409
  375MOL0     C49421   0.955   6.366   4.134  0.5023  0.2693 -0.6977
  375MOL0     C49422   1.420   6.491   4.211 -0.2441  0.3990  0.0359
  375MOL0     C49423   1.528   6.576   4.190 -0.0834 -0.0016 -0.0485
  375MOL0     C49424   1.654   6.556   4.259 -0.1965  0.8861  1.0048
  375MOL0     C49425   1.672   6.441   4.338  0.6281 -1.1443 -0.2345
  375MOL0     O49426   1.790   6.440   4.406 -1.0251  0.7135  0.0920
  375MOL0     C49427   1.860   6.317   4.390 -0.6897 -0.5015  0.3716
  375MOL0     C49428   1.868   6.274   4.239  0.3464  0.1483 -0.5010
  375MOL0     C49429   1.981   6.172   4.222  0.5750  0.4051  0.0261
  375MOL0     C49430   2.116   6.252   4.243  0.1802 -0.1863 -0.0211
  375MOL0     C49431   2.236   6.165   4.212  0.0241  0.7684  0.5266
  375MOL0     C49432   2.337   6.095   4.191  0.2261 -0.7170  0.8586
  375MOL0     C49433   1.575   6.350   4.343 -0.0956 -0.0715 -0.2228
  375MOL0     C49434   1.445   6.378   4.286  0.0531  0.3940  0.4361
  375MOL0     H49435   1.063   6.695   4.152  1.9842 -2.3593 -3.1349
  375MOL0     H49436   0.848   6.727   4.067  3.5112  0.5000  0.2425
  375MOL0     H49437   0.448   6.513   4.005 -0.5786 -0.6741 -1.9871
  375MOL0     H49438   0.554   6.395   4.102  0.6762 -1.6483 -1.1217
  375MOL0     H49439   0.659   6.339   3.867  1.2106  3.9357 -1.2091
  375MOL0     H49440   0.539   6.450   3.804 -3.0739  1.1263  1.0287
  375MOL0     H49441   0.349   6.329   3.843  1.2601  2.7856 -1.7000
  375MOL0     H49442   0.437   6.224   3.954 -0.9334 -0.5564 -0.0134
  375MOL0     H49443   0.514   6.253   3.656  1.3794  0.5603  0.8821
  375MOL0     H49444   0.589   6.136   3.768 -2.1848 -1.3388  3.1681
  375MOL0     H49445   0.400   6.057   3.600  2.0428  2.7251 -1.0157
  375MOL0     H49446   0.293   6.177   3.677  0.3362  0.1058 -0.6609
  375MOL0     H49447   0.245   6.043   3.861 -0.5411  1.3852 -1.4515
  375MOL0     H49448   0.391   5.954   3.860 -0.0517  0.4011  1.3536
  375MOL0     H49449   0.311   5.861   3.631 -2.3176 -0.8758 -1.7604
  375MOL0     H49450   0.241   5.784   3.773 -2.1609 -1.3704 -1.7859
  375MOL0     H49451   0.048   5.807   3.661  0.8491  0.4734  0.3607
  375MOL0     H49452   0.118   5.918   3.550 -1.6267  1.0098 -0.4265
  375MOL0     H49453   0.063   6.191   3.578 -0.5407  0.6627 -0.5768
  375MOL0     H49454  -0.161   6.370   3.802 -1.8625 -0.9534 -1.6257
  375MOL0     H49455  -0.110   6.351   3.633  2.1328 -0.8854 -0.6612
  375MOL0     H49456   0.095   6.454   3.669  2.9542 -0.9728  1.9031
  375MOL0     H49457   0.119   6.388   3.821 -2.1770 -1.7167  1.7692
  375MOL0     H49458  -0.041   6.565   3.940 -0.7492 -2.2610 -0.3671
  375MOL0     H49459   0.117   6.598   3.898  0.5154 -2.3785 -0.4549
  375MOL0     H49460   0.043   6.728   3.721  2.1858  1.0450  3.3939
  375MOL0     H49461  -0.061   6.776   3.846  0.3013  3.1110 -3.7234
  375MOL0     H49462  -0.116   6.903   3.650 -2.0498  0.8735  2.3848
  375MOL0     H49463  -0.278   7.038   3.518 -1.9065  1.5453  2.7680
  375MOL0     H49464  -0.666   7.172   3.306  3.2487 -2.6268  2.2621
  375MOL0     H49465  -0.860   7.260   3.191 -1.8487 -0.1927 -0.4258
  375MOL0     H49466  -1.065   7.266   3.024 -0.3898  0.1901  0.5272
  375MOL0     H49467  -1.076   7.304   3.190  1.0323 -0.8184 -0.0450
  375MOL0     H49468  -1.323   7.182   3.172 -1.2399  1.6826  0.0378
  375MOL0     H49469  -1.293   7.167   3.009  1.9070 -0.4890 -0.4116
  375MOL0     H49470  -1.284   7.428   2.990 -2.6514  0.3247 -0.7246
  375MOL0     H49471  -1.341   7.430   3.166 -1.7178  2.5091 -1.5791
  375MOL0     H49472  -1.493   7.306   2.935 -3.0061  0.0845 -0.3594
  375MOL0     H49473  -1.527   7.296   3.101  1.1945 -0.7292  0.0376
  375MOL0     H49474  -1.491   7.575   2.943 -3.2814  1.3229 -1.3458
  375MOL0     H49475  -1.562   7.567   3.104 -2.6458  1.9117 -0.7558
  375MOL0     H49476  -1.745   7.432   3.015  0.4657 -0.6715 -0.2339
  375MOL0     H49477  -1.694   7.451   2.860 -1.3817 -0.7626  1.0380
  375MOL0     H49478  -1.774   7.672   3.055 -2.7526  2.1784 -1.3555
  375MOL0     H49479  -1.699   7.721   2.904 -2.3762  3.2594  1.9586
  375MOL0     H49480  -1.875   7.597   2.794 -2.9843 -1.7943 -0.0494
  375MOL0     H49481  -1.928   7.731   2.893 -1.9665 -0.0138  1.8656
  375MOL0     H49482  -1.045   6.871   3.212  0.2896  0.9911  1.2853
  375MOL0     H49483  -0.845   6.771   3.276 -1.2793 -0.2569 -0.7980
  375MOL0     H49484  -0.539   6.702   3.507 -0.2262  1.2780 -0.1759
  375MOL0     H49485  -0.364   6.570   3.624 -0.0192  0.8814  3.6492
  375MOL0     H49486   0.752   6.308   4.085 -1.2734 -0.2024  3.3202
  375MOL0     H49487   1.002   6.270   4.154 -0.1761  0.2687  1.0775
  375MOL0     H49488   1.513   6.668   4.135  0.2138  0.1678  0.1510
  375MOL0     H49489   1.732   6.631   4.253 -0.0612  0.6259 -1.0717
  375MOL0     H49490   1.816   6.233   4.444 -1.4743  0.0957  0.6812
  375MOL0     H49491   1.956   6.335   4.439 -1.3438 -0.1486  1.5447
  375MOL0     H49492   1.779   6.214   4.219  0.5540 -0.5505  0.5821
  375MOL0     H49493   1.875   6.352   4.163  0.2005  0.5129 -0.1459
  375MOL0     H49494   1.986   6.119   4.126 -0.4411 -1.6514  1.0628
  375MOL0     H49495   1.973   6.093   4.297  1.1235  0.5497  0.2458
  375MOL0     H49496   2.123   6.340   4.179 -1.2835 -0.1154 -0.1197
  375MOL0     H49497   2.131   6.283   4.347 -1.0662 -2.3459  0.8678
  375MOL0     H49498   2.431   6.044   4.191 -0.2465 -1.6343 -0.3543
  375MOL0     H49499   1.596   6.265   4.407 -2.1791 -0.8769 -0.5091
  375MOL0     H49500   1.365   6.308   4.308  1.0176  0.3260  4.3527
  376MOL0     O49501   3.269   8.070   9.183 -0.0040  0.5186 -0.5207
  376MOL0     C49502   3.245   8.088   9.062 -0.0220 -0.9338  0.6962
  376MOL0     O49503   3.340   8.102   8.964  0.8838 -0.3968 -0.4786
  376MOL0     C49504   3.468   8.063   8.990  0.5382  0.1200 -0.4954
  376MOL0     C49505   3.512   7.935   8.946 -0.6251 -0.0670  0.2641
  376MOL0     C49506   3.648   7.893   8.956  0.0652  0.4725  0.0883
  376MOL0     C49507   3.739   7.990   9.006  0.2325  0.2283 -0.0911
  376MOL0     O49508   3.868   7.963   9.016 -0.2978  0.7573  0.3590
  376MOL0     C49509   3.902   7.900   9.139 -0.2492  0.4804  1.1550
  376MOL0     C49510   4.055   7.881   9.137  0.5518  0.3961  0.2184
  376MOL0     C49511   4.096   7.777   9.042 -0.0549 -0.2733 -0.1106
  376MOL0     C49512   4.246   7.759   9.058 -0.0592 -1.1788 -0.6498
  376MOL0     C49513   4.315   7.684   8.950  0.3121 -0.0547  0.4983
  376MOL0     C49514   4.360   7.538   8.978  0.2505 -0.7222 -0.4284
  376MOL0     C49515   4.453   7.491   8.865  0.6941  0.0595 -0.4453
  376MOL0     C49516   4.495   7.352   8.881 -0.1729  0.7866 -0.0680
  376MOL0     N49517   4.642   7.360   8.902  0.5207  0.8524  0.2859
  376MOL0     C49518   4.735   7.361   8.808 -0.2322 -0.6784  0.5423
  376MOL0     C49519   4.854   7.366   8.876 -0.6668 -0.0124  0.0678
  376MOL0     C49520   4.998   7.376   8.822 -0.3181 -0.5894  0.1015
  376MOL0     C49521   5.063   7.516   8.850  0.2382  0.3197  1.7801
  376MOL0     C49522   4.992   7.640   8.801 -0.7440  0.6036  0.8289
  376MOL0     C49523   4.987   7.662   8.647  0.3444 -0.1047  0.1699
  376MOL0     O49524   4.892   7.575   8.591  0.9266 -0.4178  0.1704
  376MOL0     C49525   4.766   7.629   8.586  0.7398  0.6153 -0.4097
  376MOL0     C49526   4.710   7.741   8.653 -0.1033 -0.4849  0.5081
  376MOL0     C49527   4.576   7.770   8.642 -0.1081  0.3821 -0.3032
  376MOL0     C49528   4.488   7.689   8.567  0.8003 -0.5937 -0.3538
  376MOL0     C49529   4.340   7.713   8.580 -0.6441  0.3713 -0.1274
  376MOL0     O49530   4.306   7.833   8.639 -0.1045  0.7088  0.2072
  376MOL0     C49531   4.179   7.889   8.606  0.9214  0.0406  0.5993
  376MOL0     C49532   4.135   7.920   8.474  0.4927  0.5276  0.1614
  376MOL0     C49533   4.004   7.967   8.457  0.3751 -0.6638 -0.2832
  376MOL0     C49534   3.923   7.992   8.567 -1.1172  0.0214 -0.1510
  376MOL0     O49535   3.795   8.022   8.542  0.5027  0.4871  0.6878
  376MOL0     C49536   3.695   8.022   8.642  0.0260  0.5270  0.5008
  376MOL0     C49537   3.552   8.009   8.580  0.0057  0.0122  0.0863
  376MOL0     C49538   3.506   8.132   8.508 -0.9210 -0.2005 -0.3169
  376MOL0     C49539   3.372   8.106   8.445  0.0578  0.5519 -0.3661
  376MOL0     C49540   3.248   8.096   8.544  0.0674  1.0111 -0.0573
  376MOL0     C49541   3.120   8.096   8.456 -0.2310  0.3696 -0.6757
  376MOL0     C49542   2.991   8.091   8.541  0.2873 -0.8607  0.4441
  376MOL0     C49543   2.871   8.066   8.449  0.0429 -0.1839  0.2607
  376MOL0    Cl49544   2.737   8.160   8.502 -0.2362  0.7728 -0.0433
  376MOL0     C49545   3.975   7.996   8.697 -0.5990 -0.3163  0.0628
  376MOL0     C49546   4.100   7.946   8.715  0.2020  0.9717 -0.0238
  376MOL0     O49547   4.265   7.641   8.518 -0.2507 -0.1113 -1.0476
  376MOL0     C49548   4.539   7.582   8.495  0.0134 -0.3928  0.7007
  376MOL0     C49549   4.673   7.545   8.513 -0.4029 -0.0442 -0.0483
  376MOL0     N49550   4.827   7.351   9.012  0.6369  0.3374 -0.9955
  376MOL0     N49551   4.695   7.343   9.030  0.8829 -0.9021  0.0920
  376MOL0     C49552   3.701   8.122   9.040 -0.0910 -0.3744  0.6181
  376MOL0     C49553   3.563   8.150   9.044 -0.7050  0.1068  0.1868
  376MOL0     C49554   3.112   8.135   9.031  0.5158  0.2065 -1.1920
  376MOL0     C49555   2.993   8.110   9.113  0.4778 -0.0456  0.0845
  376MOL0     C49556   2.868   8.167   9.077 -0.3998 -0.1421  0.1949
  376MOL0     C49557   2.861   8.246   8.969  0.4023 -0.0029  0.1599
  376MOL0     O49558   2.737   8.299   8.932  0.0640  0.1609 -1.1102
  376MOL0     C49559   2.717   8.391   8.822 -0.3842  0.1683  0.2805
  376MOL0     C49560   2.570   8.366   8.785  0.4057  0.1634  1.0006
  376MOL0     C49561   2.522   8.423   8.645  0.2725 -0.9914 -0.8726
  376MOL0     C49562   2.529   8.579   8.645 -0.1063  0.1958  0.1692
  376MOL0     C49563   2.429   8.636   8.738  0.3468  0.3785  0.9807
  376MOL0     C49564   2.345   8.670   8.813  0.3157  0.9418  0.7177
  376MOL0     C49565   2.970   8.270   8.881 -0.0619  0.2389 -0.1646
  376MOL0     C49566   3.095   8.206   8.909 -0.2257 -0.5822 -0.8505
  376MOL0     H49567   3.444   7.871   8.891 -0.7379  0.0898  0.2215
  376MOL0     H49568   3.678   7.793   8.926 -4.5232 -0.5476 -1.8029
  376MOL0     H49569   3.845   7.807   9.138  0.3200  0.1271  0.0757
  376MOL0     H49570   3.865   7.956   9.225 -1.0007 -0.8426  1.7315
  376MOL0     H49571   4.082   7.874   9.242 -0.6758  1.1904  0.6149
  376MOL0     H49572   4.103   7.965   9.085  1.4640 -0.5140 -0.4308
  376MOL0     H49573   4.072   7.804   8.939 -1.0146  0.4752  0.2994
  376MOL0     H49574   4.043   7.683   9.064  3.3281 -2.3133  0.0202
  376MOL0     H49575   4.287   7.859   9.042 -0.5237 -1.1238 -1.5910
  376MOL0     H49576   4.273   7.716   9.155  1.0927  0.1604 -0.3481
  376MOL0     H49577   4.398   7.748   8.918  1.4135 -0.8989  1.5322
  376MOL0     H49578   4.260   7.679   8.856  2.5321 -4.0385 -0.8489
  376MOL0     H49579   4.275   7.472   8.998  2.6613 -3.8713  0.2019
  376MOL0     H49580   4.422   7.527   9.068  2.4776 -2.4724 -2.0712
  376MOL0     H49581   4.402   7.516   8.771  2.4913  0.5078 -1.3481
  376MOL0     H49582   4.535   7.562   8.852 -2.0620  3.3415 -1.6827
  376MOL0     H49583   4.479   7.284   8.798 -2.7498  2.0815 -0.7298
  376MOL0     H49584   4.450   7.316   8.974 -0.1614  1.4292  0.1966
  376MOL0     H49585   4.713   7.369   8.702 -0.3271  3.1380  0.6823
  376MOL0     H49586   4.982   7.360   8.715 -2.3069  0.5238  0.1903
  376MOL0     H49587   5.058   7.302   8.875 -3.1334  0.4828  5.4642
  376MOL0     H49588   5.161   7.524   8.801  0.5708 -1.2051  2.1501
  376MOL0     H49589   5.072   7.517   8.959  0.4098  0.6424  1.7667
  376MOL0     H49590   4.888   7.638   8.837  0.2976  2.0421  4.3052
  376MOL0     H49591   5.048   7.713   8.860 -0.0795 -0.1815  1.1875
  376MOL0     H49592   5.086   7.636   8.606 -0.8233 -1.1851 -2.1509
  376MOL0     H49593   4.975   7.770   8.635  1.4759  0.2933  2.2311
  376MOL0     H49594   4.776   7.815   8.698 -2.0105  1.8396 -0.3415
  376MOL0     H49595   4.531   7.845   8.706  0.1963 -0.3037  0.7312
  376MOL0     H49596   4.194   7.909   8.384  2.9704 -2.0622  1.9195
  376MOL0     H49597   3.974   7.992   8.356  0.2998  1.4505  0.2217
  376MOL0     H49598   3.700   8.115   8.700  1.9777  0.8658 -0.1613
  376MOL0     H49599   3.711   7.936   8.708 -0.1797  0.1565  0.0653
  376MOL0     H49600   3.492   7.985   8.668  1.0019  0.0122  0.7726
  376MOL0     H49601   3.551   7.933   8.501  1.1085  2.0756 -2.0570
  376MOL0     H49602   3.591   8.166   8.448 -0.8237  1.0620  0.5025
  376MOL0     H49603   3.495   8.211   8.583  0.4190 -0.1753 -0.1180
  376MOL0     H49604   3.366   8.190   8.374  0.3817  0.9586  0.0819
  376MOL0     H49605   3.373   8.010   8.393  1.2371  0.0229  0.6133
  376MOL0     H49606   3.252   8.183   8.611  1.2602 -0.2069  1.5271
  376MOL0     H49607   3.259   8.008   8.608  4.9051  0.7504 -0.8991
  376MOL0     H49608   3.114   8.013   8.385  3.2574 -0.8989  0.3193
  376MOL0     H49609   3.125   8.187   8.396  0.2073 -1.2532 -3.2648
  376MOL0     H49610   2.994   8.011   8.616 -1.1062 -0.7196  0.6858
  376MOL0     H49611   2.978   8.187   8.593 -1.9450 -1.5432  1.2550
  376MOL0     H49612   2.852   7.959   8.434  3.1966 -1.1108  1.9596
  376MOL0     H49613   2.890   8.111   8.351 -1.9830  1.2865  0.4698
  376MOL0     H49614   3.917   8.027   8.784  3.0851  0.8913  2.3345
  376MOL0     H49615   4.149   7.953   8.812  0.1652  2.1924 -0.0876
  376MOL0     H49616   4.477   7.525   8.427  0.5364 -1.2977  0.9593
  376MOL0     H49617   4.710   7.458   8.460  1.4461  0.7321 -0.1023
  376MOL0     H49618   3.782   8.187   9.072  0.1499  0.8937 -2.2469
  376MOL0     H49619   3.523   8.250   9.060  0.5102  0.3711  1.8592
  376MOL0     H49620   3.004   8.039   9.195  0.6977 -0.7633 -0.5507
  376MOL0     H49621   2.785   8.144   9.142  1.6510 -3.6625  1.8613
  376MOL0     H49622   2.778   8.379   8.732 -2.0787 -0.9685 -0.8006
  376MOL0     H49623   2.745   8.487   8.864  0.1683  0.6561 -1.1331
  376MOL0     H49624   2.547   8.259   8.792  0.5545  0.2381  3.6005
  376MOL0     H49625   2.502   8.415   8.855 -0.4954 -0.8948  0.9140
  376MOL0     H49626   2.419   8.392   8.624  0.5288 -3.3240  0.8247
  376MOL0     H49627   2.580   8.393   8.557  0.4666  1.1985 -1.5529
  376MOL0     H49628   2.628   8.608   8.683  0.1122 -0.3270 -0.0022
  376MOL0     H49629   2.508   8.610   8.542 -3.7816  0.5056  0.8680
  376MOL0     H49630   2.256   8.712   8.856 -0.8637  0.3641 -1.0568
  376MOL0     H49631   2.982   8.329   8.790  2.4967 -0.8483 -0.6155
  376MOL0     H49632   3.180   8.232   8.847  1.0462 -1.3330  0.5142
  377MOL0     O49633   5.729   3.934   3.226 -0.3590  0.1556 -0.3710
  377MOL0     C49634   5.841   3.955   3.173 -0.9189  0.9727  0.1419
  377MOL0     O49635   5.957   3.958   3.242  0.4790  0.3495 -0.3295
  377MOL0     C49636   5.953   3.927   3.376 -0.5249 -0.4568 -0.5524
  377MOL0     C49637   5.943   3.799   3.422  0.8127 -0.4401  0.0777
  377MOL0     C49638   5.944   3.774   3.556 -0.6313  0.0873 -0.0319
  377MOL0     C49639   5.973   3.873   3.644 -0.0100  0.4849 -0.9276
  377MOL0     O49640   5.985   3.827   3.774  0.2987 -0.1179  0.3521
  377MOL0     C49641   6.063   3.908   3.866  0.6118  0.1734 -0.1020
  377MOL0     C49642   6.081   3.816   3.983  0.3827  0.0651  0.4429
  377MOL0     C49643   6.196   3.709   3.964 -0.1567  1.2568  0.2092
  377MOL0     C49644   6.199   3.595   4.070  0.9971 -0.2378 -0.4987
  377MOL0     C49645   6.338   3.541   4.114 -0.3826 -0.0070  1.1352
  377MOL0     C49646   6.421   3.474   4.010  0.2089  0.2964 -0.0571
  377MOL0     C49647   6.536   3.404   4.076 -0.2189 -0.5249 -0.1071
  377MOL0     C49648   6.646   3.498   4.131 -0.0171  0.3228  0.4559
  377MOL0     N49649   6.754   3.420   4.199 -0.0527  0.1323  0.7742
  377MOL0     C49650   6.831   3.322   4.131 -1.0044  0.0770  0.9616
  377MOL0     C49651   6.917   3.278   4.220  0.5877  0.1761 -0.1368
  377MOL0     C49652   7.007   3.161   4.212  0.5712  0.5875 -0.1493
  377MOL0     C49653   7.146   3.192   4.253  0.2234  0.9746  0.7582
  377MOL0     C49654   7.236   3.073   4.209 -0.1889 -0.4046  0.7395
  377MOL0     C49655   7.375   3.088   4.267  0.2474  1.1073 -0.7036
  377MOL0     O49656   7.426   2.957   4.247  0.4552  0.5532 -0.0613
  377MOL0     C49657   7.563   2.940   4.257  0.0250  0.4252 -0.4562
  377MOL0     C49658   7.617   2.820   4.221  0.0310  0.8592  0.3159
  377MOL0     C49659   7.753   2.799   4.222  0.5436  0.0929 -0.6741
  377MOL0     C49660   7.838   2.890   4.277 -0.9567  0.6724  0.5736
  377MOL0     C49661   7.983   2.868   4.295  0.6590 -0.1418  0.3552
  377MOL0     O49662   8.045   2.952   4.383  0.0330 -0.2682  0.6225
  377MOL0     C49663   8.178   2.939   4.404  0.8318 -0.1122  0.5525
  377MOL0     C49664   8.278   2.937   4.307  1.5855  1.0567 -0.2473
  377MOL0     C49665   8.412   2.917   4.355  0.1594 -0.0383  0.2080
  377MOL0     C49666   8.446   2.923   4.487  0.8012 -0.3838 -0.5130
  377MOL0     O49667   8.579   2.933   4.534  0.2465  0.9120  0.0779
  377MOL0     C49668   8.680   2.917   4.434 -0.0748 -0.3496  0.7320
  377MOL0     C49669   8.814   2.864   4.499  0.0075 -0.2459  0.0639
  377MOL0     C49670   8.815   2.745   4.591 -0.2156  0.0777  0.6403
  377MOL0     C49671   8.939   2.755   4.689 -0.4452  0.0148 -0.0284
  377MOL0     C49672   8.985   2.618   4.737 -0.9587 -0.5583  0.4200
  377MOL0     C49673   8.893   2.527   4.817 -0.4981  0.3154 -0.0111
  377MOL0     C49674   8.817   2.587   4.940 -0.3295  0.4755  1.1946
  377MOL0     C49675   8.739   2.476   5.014 -0.4640  0.4648  0.3759
  377MOL0    Cl49676   8.851   2.380   5.102 -0.1745  0.1469  0.7917
  377MOL0     C49677   8.353   2.918   4.582  0.6713 -0.4288  0.3628
  377MOL0     C49678   8.219   2.924   4.536  0.9343  0.5293  0.3603
  377MOL0     O49679   8.036   2.767   4.244  0.7302 -0.5744 -0.1961
  377MOL0     C49680   7.785   3.010   4.321 -0.0743  0.6656 -0.3052
  377MOL0     C49681   7.648   3.039   4.314  0.0406  0.8608 -0.1996
  377MOL0     N49682   6.900   3.346   4.342  0.5766 -0.4201 -0.0047
  377MOL0     N49683   6.801   3.431   4.324  0.4462  0.4218 -0.2786
  377MOL0     C49684   5.968   4.012   3.607  0.1412  0.3706  0.0898
  377MOL0     C49685   5.958   4.033   3.466 -0.2884 -0.5113  0.4640
  377MOL0     C49686   5.854   4.013   3.034 -0.2175 -0.1990 -0.1337
  377MOL0     C49687   5.961   3.988   2.944  0.2798  0.1232 -0.0295
  377MOL0     C49688   5.969   4.053   2.816  0.0523 -0.0227 -0.8736
  377MOL0     C49689   5.874   4.133   2.770 -0.2912 -0.0780 -0.6737
  377MOL0     O49690   5.880   4.175   2.645  0.2887  0.9063  0.1392
  377MOL0     C49691   5.830   4.303   2.609  0.0475 -0.6500  1.0983
  377MOL0     C49692   5.725   4.305   2.498  0.2710  0.8559  0.4413
  377MOL0     C49693   5.770   4.237   2.375  0.3328  0.4254  0.4707
  377MOL0     C49694   5.686   4.282   2.255  0.3793 -0.0984  0.0554
  377MOL0     C49695   5.773   4.268   2.134 -0.9524  0.2092 -0.3589
  377MOL0     C49696   5.836   4.259   2.028 -0.0858  0.0968  0.2433
  377MOL0     C49697   5.771   4.163   2.854 -0.1490 -1.0676  0.0373
  377MOL0     C49698   5.759   4.101   2.980 -0.8706 -0.2808  0.4734
  377MOL0     H49699   5.925   3.720   3.350  1.6424 -0.0641 -0.5618
  377MOL0     H49700   5.926   3.672   3.588  1.4313 -0.3529 -0.1355
  377MOL0     H49701   6.005   3.996   3.894  2.0983  0.0820  3.9385
  377MOL0     H49702   6.166   3.935   3.841  0.8868 -0.5139  0.2736
  377MOL0     H49703   5.988   3.765   4.012  1.3329 -1.5199  0.8441
  377MOL0     H49704   6.116   3.873   4.069  1.1783  0.0825  0.1216
  377MOL0     H49705   6.292   3.760   3.977 -0.0598  1.3555 -0.8138
  377MOL0     H49706   6.193   3.670   3.862  1.4399 -1.8149  1.2022
  377MOL0     H49707   6.146   3.633   4.158 -1.6145 -4.9347  0.3160
  377MOL0     H49708   6.143   3.510   4.029  0.6526  0.5962 -1.8183
  377MOL0     H49709   6.321   3.479   4.202 -0.0116 -0.2644  1.0289
  377MOL0     H49710   6.401   3.624   4.150  0.2305 -0.6079  1.4765
  377MOL0     H49711   6.457   3.544   3.934  2.1067  0.8291  1.2585
  377MOL0     H49712   6.362   3.395   3.963  1.2003 -0.8888  0.6521
  377MOL0     H49713   6.498   3.353   4.165  0.0416 -2.9602 -1.3005
  377MOL0     H49714   6.588   3.341   4.004  0.8945 -1.2315  1.2661
  377MOL0     H49715   6.601   3.565   4.205 -1.4952 -2.5733  2.3545
  377MOL0     H49716   6.688   3.548   4.043  1.2203 -1.4712 -0.0276
  377MOL0     H49717   6.831   3.300   4.025  1.0446 -0.9560  1.1273
  377MOL0     H49718   7.005   3.123   4.109 -1.3043  1.5517 -0.5207
  377MOL0     H49719   6.972   3.083   4.280  0.6575  0.8228  0.1697
  377MOL0     H49720   7.146   3.210   4.361  0.6444  1.4877  0.6793
  377MOL0     H49721   7.184   3.279   4.198 -2.6891  1.7508 -0.2232
  377MOL0     H49722   7.186   2.982   4.243  2.1664 -1.7499  0.8445
  377MOL0     H49723   7.234   3.073   4.100  0.3569 -1.6143  0.7129
  377MOL0     H49724   7.375   3.114   4.373 -0.5478 -0.8387 -0.1843
  377MOL0     H49725   7.433   3.164   4.214  2.3752  0.0581 -0.0369
  377MOL0     H49726   7.549   2.750   4.173  1.8853  0.0431 -1.2477
  377MOL0     H49727   7.785   2.711   4.168 -3.7282 -1.3523 -1.2289
  377MOL0     H49728   8.244   2.952   4.206 -0.3979 -0.0619  0.2017
  377MOL0     H49729   8.481   2.909   4.272  0.3130  0.5343  0.2736
  377MOL0     H49730   8.690   3.011   4.381  0.1135  1.7180  4.1379
  377MOL0     H49731   8.655   2.841   4.359 -1.1014  1.9313 -1.3832
  377MOL0     H49732   8.849   2.957   4.544 -1.6910  1.7288 -2.4354
  377MOL0     H49733   8.895   2.852   4.426 -0.4235 -0.2797 -0.4195
  377MOL0     H49734   8.826   2.658   4.526  2.3640  0.5250  0.4064
  377MOL0     H49735   8.724   2.745   4.653 -0.0232 -1.4006  0.9776
  377MOL0     H49736   9.029   2.787   4.635  0.9353 -0.8526  1.6487
  377MOL0     H49737   8.922   2.821   4.774 -0.4665 -0.5171  0.3821
  377MOL0     H49738   9.070   2.647   4.799  1.1587  0.4515 -2.7198
  377MOL0     H49739   9.013   2.556   4.651 -3.1842 -2.4736  0.9644
  377MOL0     H49740   8.960   2.446   4.850 -2.0815 -2.7561 -3.5549
  377MOL0     H49741   8.821   2.473   4.755  0.2023 -0.8302  0.1437
  377MOL0     H49742   8.898   2.632   4.998  3.5734 -4.5603  0.3434
  377MOL0     H49743   8.743   2.659   4.903  0.5069  0.0652 -1.4960
  377MOL0     H49744   8.682   2.414   4.944  1.0186 -1.8140  1.0998
  377MOL0     H49745   8.686   2.528   5.095  1.4251  1.0154  1.3206
  377MOL0     H49746   8.391   2.925   4.683  2.7827  1.9659 -0.4920
  377MOL0     H49747   8.149   2.918   4.620 -0.6346  3.3072 -0.6199
  377MOL0     H49748   7.848   3.094   4.350  1.3938 -0.7938  0.9967
  377MOL0     H49749   7.614   3.136   4.349  0.3937  0.5532  1.0411
  377MOL0     H49750   5.984   4.099   3.669  0.8529  1.0172 -0.9711
  377MOL0     H49751   5.980   4.127   3.416  0.6243 -2.0291 -2.2066
  377MOL0     H49752   6.043   3.921   2.967 -1.3286 -1.9883 -0.0862
  377MOL0     H49753   6.055   4.028   2.755  0.6675 -1.7118  0.5841
  377MOL0     H49754   5.913   4.363   2.572 -1.7379  1.9655  1.0276
  377MOL0     H49755   5.778   4.345   2.695  3.2440  0.5932  2.5575
  377MOL0     H49756   5.633   4.258   2.534  1.7089 -0.5229  2.5270
  377MOL0     H49757   5.691   4.409   2.487  2.4233  1.6508  0.8241
  377MOL0     H49758   5.764   4.128   2.381 -1.2239  0.3084 -1.8307
  377MOL0     H49759   5.873   4.270   2.362  0.2052  1.8367  2.6000
  377MOL0     H49760   5.593   4.227   2.236 -1.4975  2.8456  0.1211
  377MOL0     H49761   5.666   4.389   2.265  0.8036 -0.0970  1.0180
  377MOL0     H49762   5.891   4.246   1.937  1.5669  3.4306  0.6171
  377MOL0     H49763   5.689   4.226   2.822  2.1305  2.5931  0.8363
  377MOL0     H49764   5.671   4.114   3.043 -1.9866 -2.0485 -0.6506
  378MOL0     O49765   1.833   0.830   7.765  0.1159  0.1326 -0.2375
  378MOL0     C49766   1.869   0.912   7.685  0.2971 -1.0564  0.8436
  378MOL0     O49767   1.798   0.977   7.596  0.3992 -0.0986 -0.6559
  378MOL0     C49768   1.669   0.927   7.563 -0.2867  0.3202 -0.0352
  378MOL0     C49769   1.558   0.943   7.646 -0.4890 -0.0794 -0.3109
  378MOL0     C49770   1.430   0.901   7.617  0.6292 -0.5414  0.1942
  378MOL0     C49771   1.410   0.844   7.492 -0.6112 -0.2819  0.0891
  378MOL0     O49772   1.292   0.815   7.438  0.3651  0.4264 -0.3445
  378MOL0     C49773   1.246   0.919   7.353  1.0729 -0.0167 -0.3866
  378MOL0     C49774   1.100   0.906   7.324  0.5628  0.5016 -0.9425
  378MOL0     C49775   1.009   0.946   7.439 -0.5725  0.3305  0.6970
  378MOL0     C49776   0.857   0.958   7.396 -0.1594  1.0399  0.9252
  378MOL0     C49777   0.761   0.941   7.514  0.6560 -0.4249 -0.4786
  378MOL0     C49778   0.627   0.987   7.488 -0.0892  0.0478 -0.4602
  378MOL0     C49779   0.547   0.895   7.393  0.2237 -0.3508  0.0650
  378MOL0     C49780   0.410   0.951   7.371 -0.5403 -0.5921 -0.3465
  378MOL0     N49781   0.412   1.078   7.282 -0.2097 -0.1616  0.4075
  378MOL0     C49782   0.392   1.073   7.148 -0.4190  0.7082 -0.7873
  378MOL0     C49783   0.443   1.193   7.112 -0.1785  0.6156  0.1677
  378MOL0     C49784   0.453   1.224   6.966  0.5384 -0.4178  0.7259
  378MOL0     C49785   0.367   1.344   6.917 -0.4966  0.4725  0.4144
  378MOL0     C49786   0.428   1.487   6.948  0.9386  0.6755 -0.3150
  378MOL0     C49787   0.340   1.596   6.894 -0.3307  1.1403  0.0181
  378MOL0     O49788   0.254   1.639   7.001  0.6823  0.3256  0.5049
  378MOL0     C49789   0.118   1.651   6.968 -0.4997 -0.3668  0.1829
  378MOL0     C49790   0.024   1.546   7.001  0.5766 -0.1452 -0.8200
  378MOL0     C49791  -0.109   1.581   6.983  0.4752 -0.1714  0.0427
  378MOL0     C49792  -0.152   1.705   6.919  0.1228  2.0479 -0.6585
  378MOL0     C49793  -0.296   1.726   6.888 -0.1788 -0.8827  0.5542
  378MOL0     O49794  -0.391   1.637   6.944 -0.0102 -0.2793  0.1513
  378MOL0     C49795  -0.525   1.655   6.919  0.0136  0.4508 -0.6545
  378MOL0     C49796  -0.594   1.774   6.922  0.1603 -0.7303 -0.9167
  378MOL0     C49797  -0.728   1.779   6.887  0.3382  0.8813  0.7632
  378MOL0     C49798  -0.806   1.665   6.849 -0.7461 -0.2560  0.2284
  378MOL0     O49799  -0.946   1.670   6.827 -0.8760 -0.6347 -0.1837
  378MOL0     C49800  -1.026   1.793   6.829  0.6583  0.1216  0.0322
  378MOL0     C49801  -1.166   1.740   6.811  1.5133  0.5573 -0.2508
  378MOL0     C49802  -1.223   1.659   6.923  0.6367  0.2507 -0.3613
  378MOL0     C49803  -1.375   1.647   6.899  0.1923  0.8717 -0.2095
  378MOL0     C49804  -1.401   1.571   6.774 -0.2803  0.5278  0.2715
  378MOL0     C49805  -1.535   1.504   6.787 -0.0011  0.4169 -0.4051
  378MOL0     C49806  -1.645   1.594   6.801 -0.6732  0.2625  0.7759
  378MOL0     C49807  -1.778   1.531   6.773  0.5549  0.3291 -0.8795
  378MOL0    Cl49808  -1.800   1.513   6.599 -0.0270 -0.4136 -0.2327
  378MOL0     C49809  -0.740   1.543   6.845 -0.0633 -0.0884 -0.4940
  378MOL0     C49810  -0.603   1.542   6.876 -0.0974 -0.3091 -0.5962
  378MOL0     O49811  -0.313   1.813   6.803 -0.4139  0.5675 -0.6143
  378MOL0     C49812  -0.055   1.794   6.875  0.4499  0.7127 -0.0930
  378MOL0     C49813   0.081   1.776   6.904 -1.0384 -0.3498 -0.1979
  378MOL0     N49814   0.475   1.266   7.216  0.3585  0.2661  0.1281
  378MOL0     N49815   0.445   1.194   7.322  0.0297 -1.3601 -0.5833
  378MOL0     C49816   1.519   0.822   7.412 -0.8611 -0.0561  0.3738
  378MOL0     C49817   1.647   0.868   7.441  0.6363  0.1238  0.0488
  378MOL0     C49818   2.008   0.967   7.693  0.3111  0.1882  0.3626
  378MOL0     C49819   2.048   1.040   7.578  0.4498 -0.2075 -0.8773
  378MOL0     C49820   2.177   1.092   7.564 -0.4220 -0.6614 -1.0082
  378MOL0     C49821   2.269   1.067   7.674  0.3374 -0.6042  0.5445
  378MOL0     O49822   2.386   1.130   7.663  0.0008 -0.9172 -0.3800
  378MOL0     C49823   2.481   1.129   7.773  0.0448  0.1702 -0.3665
  378MOL0     C49824   2.611   1.202   7.724 -0.6622  0.0343 -0.7152
  378MOL0     C49825   2.694   1.112   7.638 -0.8369  1.0676  1.7100
  378MOL0     C49826   2.794   1.183   7.561 -0.1592  0.8069 -0.0159
  378MOL0     C49827   2.922   1.112   7.561  0.5821  0.9772  0.2793
  378MOL0     C49828   3.027   1.048   7.560  0.4854  0.1785  0.5061
  378MOL0     C49829   2.230   1.006   7.792 -1.0668  0.6977  0.3250
  378MOL0     C49830   2.100   0.952   7.799  0.0122  1.3638 -1.1706
  378MOL0     H49831   1.574   0.999   7.738 -4.5106  2.6297 -0.9758
  378MOL0     H49832   1.347   0.913   7.686  1.6447 -1.1183  1.5580
  378MOL0     H49833   1.308   0.927   7.263  0.6657 -3.3969 -1.1139
  378MOL0     H49834   1.243   1.015   7.405 -0.4986 -1.2610  1.9881
  378MOL0     H49835   1.073   0.807   7.284  1.3291 -0.9309  1.8438
  378MOL0     H49836   1.071   0.969   7.239  0.7153 -0.4605 -1.7287
  378MOL0     H49837   1.035   1.039   7.491  1.8953 -1.4122  2.8191
  378MOL0     H49838   1.024   0.876   7.522 -3.4724  0.5666  1.5373
  378MOL0     H49839   0.839   1.060   7.359 -0.0773  0.3207 -1.2556
  378MOL0     H49840   0.825   0.900   7.309  2.3210  1.3703 -0.3041
  378MOL0     H49841   0.810   1.004   7.590 -1.0712  0.3210  0.0596
  378MOL0     H49842   0.754   0.839   7.552 -0.2730  0.1717  1.0539
  378MOL0     H49843   0.621   1.093   7.463 -2.7555 -0.1354 -0.8315
  378MOL0     H49844   0.578   0.987   7.585 -2.1436  1.1083 -1.4427
  378MOL0     H49845   0.597   0.877   7.297  2.3982  0.0551  1.0731
  378MOL0     H49846   0.543   0.793   7.434  0.2600 -0.8578 -1.1299
  378MOL0     H49847   0.362   0.961   7.469 -0.9857 -1.3102 -0.4847
  378MOL0     H49848   0.353   0.874   7.319  0.5325  0.4901 -3.3255
  378MOL0     H49849   0.349   0.995   7.086 -3.2190  1.4109  0.1352
  378MOL0     H49850   0.430   1.135   6.906  3.0896 -0.1632 -0.7834
  378MOL0     H49851   0.558   1.250   6.947  0.0514 -0.3713 -2.4685
  378MOL0     H49852   0.270   1.340   6.967 -0.2487  1.0253  0.9575
  378MOL0     H49853   0.362   1.339   6.808 -3.0696  1.6586  0.3948
  378MOL0     H49854   0.449   1.506   7.054 -1.8651  0.2766  0.3938
  378MOL0     H49855   0.519   1.507   6.890 -0.4850  0.2932 -2.8574
  378MOL0     H49856   0.279   1.555   6.813  1.1202 -0.6914 -0.2078
  378MOL0     H49857   0.403   1.679   6.862  1.7185 -0.2393  0.2730
  378MOL0     H49858   0.058   1.455   7.050 -1.1848 -0.2178  0.3456
  378MOL0     H49859  -0.179   1.505   7.014 -1.6113  1.4464 -0.4441
  378MOL0     H49860  -0.550   1.873   6.933 -0.1734 -0.6212 -0.5402
  378MOL0     H49861  -0.765   1.880   6.903  2.4261  1.7295  0.4343
  378MOL0     H49862  -0.999   1.862   6.748 -1.2127  0.9766  0.0849
  378MOL0     H49863  -1.023   1.841   6.927  0.8603 -1.0364  0.6029
  378MOL0     H49864  -1.175   1.694   6.712 -0.5613  0.4522 -0.0531
  378MOL0     H49865  -1.229   1.827   6.788 -0.9258 -1.5289 -1.9691
  378MOL0     H49866  -1.202   1.717   7.014  1.4857 -1.6396  0.6959
  378MOL0     H49867  -1.173   1.562   6.931 -1.3419 -0.8683 -0.8023
  378MOL0     H49868  -1.424   1.603   6.986 -0.5265  0.4743 -0.8027
  378MOL0     H49869  -1.429   1.742   6.895  0.3700  0.9812 -0.0592
  378MOL0     H49870  -1.320   1.499   6.757 -0.1529  1.0147 -1.3854
  378MOL0     H49871  -1.390   1.645   6.694  2.8765  0.5352  0.5903
  378MOL0     H49872  -1.523   1.431   6.867 -1.1694 -0.5134 -1.0480
  378MOL0     H49873  -1.554   1.453   6.692  2.0833 -0.1929 -0.5279
  378MOL0     H49874  -1.643   1.627   6.905  1.4736  1.4514  0.4013
  378MOL0     H49875  -1.633   1.684   6.739 -0.5104 -0.4606 -0.2796
  378MOL0     H49876  -1.850   1.599   6.821  1.5866  1.1410 -0.4423
  378MOL0     H49877  -1.789   1.438   6.828  0.4004 -0.1145 -1.6424
  378MOL0     H49878  -0.789   1.448   6.823 -1.9636  0.0580  2.5909
  378MOL0     H49879  -0.550   1.448   6.867 -1.6755 -1.5827  2.0582
  378MOL0     H49880  -0.088   1.884   6.825 -0.8169  0.2110 -0.1947
  378MOL0     H49881   0.154   1.856   6.894  1.2767 -1.8639  2.8958
  378MOL0     H49882   1.513   0.765   7.321 -1.9096 -1.1255  1.0946
  378MOL0     H49883   1.719   0.863   7.360 -0.5352  2.6254 -1.2577
  378MOL0     H49884   1.978   1.055   7.496 -1.9735 -1.8642  0.7598
  378MOL0     H49885   2.196   1.141   7.469 -1.1481 -0.9898 -1.3284
  378MOL0     H49886   2.497   1.025   7.804  2.2489  0.0589 -1.6458
  378MOL0     H49887   2.434   1.186   7.853 -2.6117 -0.5647 -1.3016
  378MOL0     H49888   2.575   1.290   7.671 -1.7368  0.9383  1.4207
  378MOL0     H49889   2.657   1.227   7.820 -1.0058  1.5672 -0.9312
  378MOL0     H49890   2.626   1.055   7.574 -0.5179  0.6012  1.7862
  378MOL0     H49891   2.738   1.039   7.706  1.8594  0.3276 -0.6431
  378MOL0     H49892   2.767   1.192   7.455  1.2124  2.8814 -0.2633
  378MOL0     H49893   2.805   1.288   7.591  1.6641  1.1607 -1.7052
  378MOL0     H49894   3.124   1.003   7.559 -0.7733 -2.8155 -1.4820
  378MOL0     H49895   2.299   0.976   7.870 -0.0520 -3.6198 -1.9066
  378MOL0     H49896   2.067   0.901   7.889 -2.0777  0.6236 -2.3198
  379MOL0     O49897   7.854   7.155   2.350 -0.5081  0.0288  0.2680
  379MOL0     C49898   7.892   7.039   2.331 -0.9862 -0.5424  0.7993
  379MOL0     O49899   7.823   6.943   2.266  0.2630  0.2639  0.4956
  379MOL0     C49900   7.689   6.966   2.229 -0.0275 -0.9518  0.2221
  379MOL0     C49901   7.577   6.891   2.271  0.2768 -0.7260 -0.7266
  379MOL0     C49902   7.454   6.917   2.217  0.0432  0.4606 -0.9205
  379MOL0     C49903   7.441   7.017   2.113  0.0878 -0.0400 -0.8525
  379MOL0     O49904   7.313   7.053   2.069 -0.4138 -0.5196 -0.3741
  379MOL0     C49905   7.198   7.008   2.142  0.2297  0.4146  0.2918
  379MOL0     C49906   7.077   7.077   2.075 -0.3432 -0.6083  0.1302
  379MOL0     C49907   7.084   7.231   2.096 -0.0568  0.3413 -0.9153
  379MOL0     C49908   6.980   7.315   2.019 -0.3994 -0.1633 -0.1765
  379MOL0     C49909   6.982   7.461   2.048 -1.3821 -0.6043  0.3355
  379MOL0     C49910   7.124   7.521   2.032 -0.9569 -0.0698 -0.2311
  379MOL0     C49911   7.118   7.672   2.054 -0.5783 -0.0002  0.0294
  379MOL0     C49912   7.253   7.732   2.045  0.3911  0.6195  0.2338
  379MOL0     N49913   7.261   7.868   2.098  0.0741 -0.4142 -0.3423
  379MOL0     C49914   7.330   7.907   2.216  0.0947 -0.6913  0.2056
  379MOL0     C49915   7.299   8.038   2.234  1.0915  0.1694  0.0024
  379MOL0     C49916   7.351   8.146   2.331  0.0951 -0.1850 -0.2252
  379MOL0     C49917   7.241   8.256   2.369 -0.4831 -0.4333  0.2958
  379MOL0     C49918   7.284   8.403   2.388  1.3655  0.6705  0.4795
  379MOL0     C49919   7.293   8.488   2.254  0.5219  0.7554  0.2815
  379MOL0     O49920   7.337   8.622   2.289  0.4433 -0.0426 -0.3833
  379MOL0     C49921   7.478   8.639   2.314  0.3364  0.3446 -0.0174
  379MOL0     C49922   7.513   8.745   2.401  0.4726  0.5091 -0.2207
  379MOL0     C49923   7.643   8.771   2.416 -1.4620 -0.2898  0.3196
  379MOL0     C49924   7.747   8.703   2.342  0.0344  1.0160  0.7298
  379MOL0     C49925   7.889   8.735   2.350 -0.6930  0.7038 -0.3121
  379MOL0     O49926   7.979   8.649   2.290  0.3423  0.0791  0.0481
  379MOL0     C49927   8.110   8.669   2.295  0.2486  0.5559 -0.5422
  379MOL0     C49928   8.186   8.684   2.415  0.3635 -0.0754  0.2087
  379MOL0     C49929   8.321   8.703   2.408 -1.3258  0.4940 -0.7417
  379MOL0     C49930   8.390   8.704   2.287  0.1661  0.1958  0.7260
  379MOL0     O49931   8.529   8.718   2.275 -0.5670 -0.1659 -0.6839
  379MOL0     C49932   8.585   8.831   2.350 -0.2555  0.0410  0.9384
  379MOL0     C49933   8.696   8.905   2.267  0.0193  0.6978  0.2431
  379MOL0     C49934   8.729   9.038   2.326 -0.6582 -1.0156  0.5870
  379MOL0     C49935   8.801   9.014   2.461 -0.2841  0.6299  0.3020
  379MOL0     C49936   8.855   9.145   2.521 -0.5896 -0.1381 -0.4775
  379MOL0     C49937   8.749   9.246   2.553 -0.2081  0.2870 -0.1054
  379MOL0     C49938   8.675   9.213   2.682  0.2327  0.5816  0.2371
  379MOL0     C49939   8.750   9.259   2.804  0.5071 -0.0452 -0.3691
  379MOL0    Cl49940   8.646   9.232   2.961  0.2458  0.6983  0.2004
  379MOL0     C49941   8.314   8.683   2.167  0.0726  0.2176  0.0441
  379MOL0     C49942   8.177   8.664   2.172 -0.3742 -0.2038  0.4249
  379MOL0     O49943   7.927   8.838   2.410  0.5228  0.3037 -0.0088
  379MOL0     C49944   7.713   8.605   2.247  0.6401 -0.9128 -0.1733
  379MOL0     C49945   7.579   8.572   2.237 -0.1505 -0.9166 -0.1192
  379MOL0     N49946   7.216   8.073   2.126 -0.0194  0.2951 -0.9792
  379MOL0     N49947   7.191   7.976   2.052 -0.1744  0.2934  0.3546
  379MOL0     C49948   7.543   7.096   2.081 -0.0228  0.3481 -0.7191
  379MOL0     C49949   7.672   7.068   2.129 -0.8014 -0.5840  0.1824
  379MOL0     C49950   8.019   6.996   2.396 -0.5763 -0.4314 -0.1449
  379MOL0     C49951   8.120   7.088   2.434 -0.3895  0.8085 -1.5217
  379MOL0     C49952   8.246   7.040   2.484  0.2614 -0.9354 -0.3707
  379MOL0     C49953   8.271   6.904   2.494 -0.4627 -0.5284  0.3821
  379MOL0     O49954   8.381   6.840   2.558 -0.3106  0.1447  0.6181
  379MOL0     C49955   8.485   6.935   2.602 -0.4738 -0.0293 -0.1681
  379MOL0     C49956   8.610   6.871   2.668  0.7002 -0.2013  0.5681
  379MOL0     C49957   8.731   6.962   2.686 -0.6996  0.7838 -0.0015
  379MOL0     C49958   8.813   6.970   2.556  0.8070  0.5089  0.0536
  379MOL0     C49959   8.877   6.845   2.515  0.1238 -0.9638 -0.3335
  379MOL0     C49960   8.918   6.737   2.491  0.0312  0.1579 -0.0205
  379MOL0     C49961   8.169   6.812   2.454  0.2720 -1.0005  0.3795
  379MOL0     C49962   8.037   6.859   2.418  0.4377  0.7211 -0.3436
  379MOL0     H49963   7.601   6.818   2.348 -3.1556  0.4290  1.7229
  379MOL0     H49964   7.371   6.856   2.252 -0.9571  1.0891 -2.1204
  379MOL0     H49965   7.193   7.034   2.248 -2.9243 -2.2256  0.9548
  379MOL0     H49966   7.198   6.899   2.132 -0.2518  0.4125  0.3117
  379MOL0     H49967   6.984   7.032   2.110 -0.6119 -0.4675 -0.3868
  379MOL0     H49968   7.081   7.070   1.966  4.7250  1.5996 -0.1226
  379MOL0     H49969   7.185   7.258   2.066  0.8046 -1.3187  0.3431
  379MOL0     H49970   7.072   7.248   2.203  0.2646 -1.1376 -0.6238
  379MOL0     H49971   6.988   7.312   1.910  0.2135  2.1024 -0.2274
  379MOL0     H49972   6.883   7.269   2.040 -0.0911 -2.6442 -3.3749
  379MOL0     H49973   6.939   7.501   2.141 -1.3169  0.1208  0.0664
  379MOL0     H49974   6.929   7.519   1.971  0.3241 -2.4409 -2.3634
  379MOL0     H49975   7.164   7.494   1.934  0.1309 -1.9770  0.6745
  379MOL0     H49976   7.199   7.475   2.098  0.0594  0.4748 -0.9803
  379MOL0     H49977   7.044   7.718   1.987 -2.0362  2.4937  3.1171
  379MOL0     H49978   7.080   7.703   2.152  0.1284  0.6193  0.1191
  379MOL0     H49979   7.276   7.741   1.939 -1.5443  2.2108 -0.1075
  379MOL0     H49980   7.328   7.666   2.088  0.9586  0.7416 -0.5491
  379MOL0     H49981   7.395   7.839   2.270 -0.3656 -2.5233 -1.4616
  379MOL0     H49982   7.436   8.200   2.287  0.5963  0.5241  1.5235
  379MOL0     H49983   7.376   8.081   2.415 -3.9343 -0.3852  1.0206
  379MOL0     H49984   7.192   8.221   2.460  2.8070 -3.8588  0.9741
  379MOL0     H49985   7.164   8.260   2.291 -1.7106 -1.3631  1.4197
  379MOL0     H49986   7.203   8.448   2.446  0.0359 -0.8173 -0.1277
  379MOL0     H49987   7.374   8.411   2.449  2.2030 -2.6332 -0.1016
  379MOL0     H49988   7.190   8.498   2.219  0.6691 -0.6497 -0.6137
  379MOL0     H49989   7.350   8.434   2.179 -2.7134 -2.0055 -0.4063
  379MOL0     H49990   7.443   8.802   2.461 -1.5485 -3.0953  1.2300
  379MOL0     H49991   7.667   8.852   2.484  0.9399 -2.5500  2.4444
  379MOL0     H49992   8.141   8.693   2.513 -0.8584  2.8836 -0.5173
  379MOL0     H49993   8.370   8.729   2.501 -3.0428 -1.7968  0.9192
  379MOL0     H49994   8.634   8.792   2.440  0.9949 -0.5734  0.0071
  379MOL0     H49995   8.504   8.898   2.381 -2.4436 -2.7273  1.6167
  379MOL0     H49996   8.670   8.914   2.161  1.6945  0.0058 -0.2473
  379MOL0     H49997   8.785   8.842   2.263 -0.2576  0.3656 -1.8701
  379MOL0     H49998   8.644   9.103   2.347 -0.5046 -0.9915  1.1441
  379MOL0     H49999   8.795   9.083   2.251  2.0420  0.0255  3.3579
  379MOL0     H50000   8.730   8.980   2.537 -1.0280  0.4290 -0.4727
  379MOL0     H50001   8.874   8.934   2.450  1.1884  1.4051  3.2925
  379MOL0     H50002   8.936   9.192   2.464  0.4575 -0.9888  0.2616
  379MOL0     H50003   8.904   9.121   2.617 -2.2085  0.2917  0.4877
  379MOL0     H50004   8.687   9.271   2.467  1.2087  0.5725 -1.0815
  379MOL0     H50005   8.801   9.340   2.576 -1.1466  0.7308  0.2747
  379MOL0     H50006   8.580   9.266   2.689  0.2916  0.5670  1.3801
  379MOL0     H50007   8.655   9.105   2.682  0.9951  0.3954 -1.5956
  379MOL0     H50008   8.785   9.361   2.792 -1.6217  0.7295 -0.5490
  379MOL0     H50009   8.840   9.197   2.810  0.0485 -0.8469 -1.5658
  379MOL0     H50010   8.375   8.676   2.078 -0.3600  4.3112 -0.7737
  379MOL0     H50011   8.142   8.640   2.072  2.8244 -2.7644 -0.2563
  379MOL0     H50012   7.781   8.547   2.185 -1.3762  0.2086 -3.7755
  379MOL0     H50013   7.553   8.497   2.163  2.8949 -2.7704  0.5366
  379MOL0     H50014   7.513   7.178   2.017  0.2157  1.6332  0.7419
  379MOL0     H50015   7.756   7.122   2.088 -0.0990 -1.5549  0.3025
  379MOL0     H50016   8.112   7.196   2.429  0.9642  1.1023  1.1978
  379MOL0     H50017   8.307   7.121   2.524  1.8536 -1.1919 -2.1117
  379MOL0     H50018   8.441   6.998   2.680  1.1815 -1.9566  2.4547
  379MOL0     H50019   8.513   6.995   2.515 -2.9185  3.0442  0.9834
  379MOL0     H50020   8.571   6.820   2.757 -1.0144  0.2037  0.0998
  379MOL0     H50021   8.640   6.793   2.598  0.7144  1.0449 -0.8444
  379MOL0     H50022   8.794   6.943   2.773  0.8876 -1.2352 -1.5015
  379MOL0     H50023   8.697   7.065   2.703  0.3948  0.9410  1.4116
  379MOL0     H50024   8.747   6.991   2.472  0.5989  0.2285  0.1471
  379MOL0     H50025   8.892   7.046   2.565 -1.8388  3.2505  2.2371
  379MOL0     H50026   8.968   6.646   2.463  3.2441  1.2211  1.7351
  379MOL0     H50027   8.196   6.708   2.465  0.6065 -1.2464 -2.2110
  379MOL0     H50028   7.954   6.792   2.403 -1.3330  2.3043  1.6142
  380MOL0     O50029   5.370   5.423   6.373 -0.6218 -0.1640  0.2049
  380MOL0     C50030   5.290   5.512   6.341 -0.5401 -0.1578 -0.2817
  380MOL0     O50031   5.309   5.589   6.229  0.2430 -0.8762 -0.0402
  380MOL0     C50032   5.430   5.614   6.169 -0.5042 -0.3576  0.6905
  380MOL0     C50033   5.506   5.511   6.115  0.2931  0.3308  0.8503
  380MOL0     C50034   5.630   5.540   6.065  0.2214  0.1238  0.6471
  380MOL0     C50035   5.678   5.669   6.051  0.2600  0.1499  0.8449
  380MOL0     O50036   5.797   5.695   5.981  0.1432  0.0845 -0.9383
  380MOL0     C50037   5.855   5.824   5.981 -0.5150  0.3676  0.4373
  380MOL0     C50038   5.977   5.837   5.879 -0.0834  0.3679 -0.3546
  380MOL0     C50039   6.088   5.733   5.902 -0.4249  1.1942  0.0060
  380MOL0     C50040   6.203   5.761   5.818  0.0271  0.3941  0.3998
  380MOL0     C50041   6.303   5.653   5.839  1.0655  0.3151 -0.1962
  380MOL0     C50042   6.439   5.687   5.777 -0.0296 -0.0382  0.3745
  380MOL0     C50043   6.567   5.620   5.835  0.0940  0.0754  0.5642
  380MOL0     C50044   6.573   5.475   5.799 -1.4102 -0.3345 -0.6079
  380MOL0     N50045   6.629   5.451   5.660  0.3731 -0.4866 -0.3777
  380MOL0     C50046   6.562   5.490   5.545  0.6733  0.0966  0.5002
  380MOL0     C50047   6.651   5.456   5.452 -0.6575  0.3043  0.5788
  380MOL0     C50048   6.629   5.452   5.311  0.2289  0.2433  0.1682
  380MOL0     C50049   6.630   5.311   5.256  0.2993  0.7152  1.0106
  380MOL0     C50050   6.485   5.257   5.234 -0.0677  0.2089  0.3020
  380MOL0     C50051   6.403   5.257   5.360  0.7157  0.1393  0.3847
  380MOL0     O50052   6.275   5.196   5.337 -0.3575  1.2362  0.7414
  380MOL0     C50053   6.168   5.208   5.423  0.0709  0.4121  0.3188
  380MOL0     C50054   6.042   5.151   5.393 -0.1049  0.0477  0.1631
  380MOL0     C50055   5.936   5.168   5.483  0.0729  0.2411  0.5457
  380MOL0     C50056   5.963   5.237   5.607  1.0099  0.3632  0.1488
  380MOL0     C50057   5.855   5.234   5.713 -0.2787  0.3391  0.3484
  380MOL0     O50058   5.724   5.211   5.663  0.1712 -0.1685  0.1978
  380MOL0     C50059   5.614   5.209   5.743 -0.2359 -1.3079 -0.3006
  380MOL0     C50060   5.607   5.157   5.874  0.9943 -0.3202 -0.6209
  380MOL0     C50061   5.485   5.184   5.936  0.5527  0.4031 -0.0377
  380MOL0     C50062   5.363   5.210   5.864 -0.2166  0.1971 -0.5286
  380MOL0     O50063   5.242   5.209   5.929  1.5501  0.2801  0.3376
  380MOL0     C50064   5.123   5.182   5.841 -0.6983  0.5875 -0.0643
  380MOL0     C50065   5.002   5.136   5.913 -0.0877  0.4599 -0.9926
  380MOL0     C50066   4.886   5.092   5.814 -0.9465  0.5179 -0.3497
  380MOL0     C50067   4.749   5.108   5.884  0.0641  0.3853  1.3299
  380MOL0     C50068   4.647   5.123   5.769 -0.5761  0.6970 -0.1803
  380MOL0     C50069   4.645   5.256   5.687  0.6359  0.0357 -0.2241
  380MOL0     C50070   4.553   5.238   5.561 -0.2976  0.1774  0.0723
  380MOL0     C50071   4.532   5.372   5.495  1.1240 -0.3829  0.1528
  380MOL0    Cl50072   4.473   5.363   5.323 -0.0880  0.1698 -0.4851
  380MOL0     C50073   5.372   5.254   5.733 -0.6966  0.1899  0.4661
  380MOL0     C50074   5.496   5.245   5.674 -0.0829  0.0489  0.3758
  380MOL0     O50075   5.886   5.263   5.828 -0.2387  0.0305 -0.4594
  380MOL0     C50076   6.088   5.285   5.637  0.0208 -0.5289 -0.6576
  380MOL0     C50077   6.182   5.281   5.540 -0.4894 -0.6597  0.4271
  380MOL0     N50078   6.771   5.422   5.512 -0.6032 -0.0498  0.7789
  380MOL0     N50079   6.748   5.396   5.636 -0.1160 -0.9023 -0.3098
  380MOL0     C50080   5.599   5.780   6.096 -0.0019 -0.7554 -1.1004
  380MOL0     C50081   5.472   5.747   6.152  0.6806 -0.0437  0.7034
  380MOL0     C50082   5.163   5.529   6.417  0.2091 -0.3699 -0.6804
  380MOL0     C50083   5.088   5.640   6.396 -0.0680  0.3198 -0.0899
  380MOL0     C50084   4.981   5.674   6.471 -0.5428 -0.5660 -0.2028
  380MOL0     C50085   4.941   5.592   6.571 -0.2278  0.7799 -0.5971
  380MOL0     O50086   4.835   5.631   6.644 -0.0647 -0.6319  0.2243
  380MOL0     C50087   4.741   5.530   6.702  0.5148  0.9132 -0.7442
  380MOL0     C50088   4.606   5.586   6.723  0.5020  0.1539  0.2679
  380MOL0     C50089   4.508   5.472   6.763 -0.2699 -0.7355 -0.3446
  380MOL0     C50090   4.369   5.480   6.687  0.4221  0.2421 -0.3503
  380MOL0     C50091   4.284   5.378   6.747 -0.6047  0.3310  0.2736
  380MOL0     C50092   4.213   5.280   6.781 -0.0389 -1.3541 -0.5700
  380MOL0     C50093   5.010   5.475   6.601 -0.2231  0.9148 -0.2969
  380MOL0     C50094   5.122   5.439   6.522  1.3155 -0.1786 -1.0834
  380MOL0     H50095   5.488   5.404   6.123 -1.1717  0.5672  0.9230
  380MOL0     H50096   5.687   5.465   6.011  1.2993  2.6834 -2.0726
  380MOL0     H50097   5.886   5.854   6.082 -1.6271  0.5149  0.7433
  380MOL0     H50098   5.776   5.895   5.953 -0.2726  2.0069  3.4899
  380MOL0     H50099   6.018   5.938   5.884 -0.5506  0.5463 -0.0722
  380MOL0     H50100   5.926   5.818   5.784  0.2937 -1.7242 -0.1750
  380MOL0     H50101   6.053   5.634   5.874  2.3399  0.3581 -0.8155
  380MOL0     H50102   6.109   5.736   6.010 -1.9868  2.6076  0.3206
  380MOL0     H50103   6.178   5.775   5.713 -2.5389  3.6639  1.2993
  380MOL0     H50104   6.248   5.856   5.848  1.7941  1.1721 -4.0207
  380MOL0     H50105   6.267   5.557   5.800 -2.0073 -0.1331  3.1475
  380MOL0     H50106   6.321   5.638   5.946  1.9188 -0.7510 -0.4591
  380MOL0     H50107   6.469   5.790   5.798  2.9914 -0.7838  0.1611
  380MOL0     H50108   6.441   5.674   5.668  0.0414 -0.1193  0.3852
  380MOL0     H50109   6.658   5.678   5.813 -1.3227  2.2928  0.1176
  380MOL0     H50110   6.546   5.627   5.942  1.2605 -2.0745  0.9812
  380MOL0     H50111   6.475   5.429   5.818  0.0174 -2.2904  2.8905
  380MOL0     H50112   6.633   5.431   5.879 -1.3985 -0.0079 -0.4345
  380MOL0     H50113   6.464   5.531   5.523  0.6159 -0.3242 -0.0237
  380MOL0     H50114   6.711   5.506   5.263 -0.8429  1.0606 -0.8100
  380MOL0     H50115   6.542   5.508   5.276  0.2143  2.3386  3.2320
  380MOL0     H50116   6.669   5.249   5.338  1.1522  1.6986  1.3704
  380MOL0     H50117   6.690   5.307   5.165 -1.3251  0.5058 -0.0745
  380MOL0     H50118   6.428   5.309   5.156  0.6969  1.5450  0.6034
  380MOL0     H50119   6.498   5.151   5.209  0.1126  0.0602  1.0082
  380MOL0     H50120   6.392   5.362   5.388  0.4523  0.1711  0.1681
  380MOL0     H50121   6.472   5.213   5.432 -0.1158 -0.9363  0.5586
  380MOL0     H50122   6.018   5.106   5.297 -0.9335  0.9089 -0.0486
  380MOL0     H50123   5.838   5.144   5.444 -0.9088  1.2910  2.2446
  380MOL0     H50124   5.694   5.126   5.930 -0.5626 -1.7788  1.1322
  380MOL0     H50125   5.481   5.187   6.045  2.0776  0.5419  0.0350
  380MOL0     H50126   5.163   5.104   5.775  1.7039  2.7774 -1.3878
  380MOL0     H50127   5.103   5.270   5.779 -1.4969 -1.6334 -3.2112
  380MOL0     H50128   4.973   5.213   5.985  3.9738  0.2419  1.1649
  380MOL0     H50129   5.033   5.059   5.983  1.3512  2.4942  0.7389
  380MOL0     H50130   4.905   4.988   5.786  2.5154 -0.2591  3.9038
  380MOL0     H50131   4.886   5.157   5.725 -1.4913 -1.1030 -1.5866
  380MOL0     H50132   4.722   5.016   5.936 -0.3063  0.2510  0.9154
  380MOL0     H50133   4.741   5.197   5.946  0.3550  0.4711  1.2435
  380MOL0     H50134   4.548   5.110   5.812  0.4488 -0.9802  1.8536
  380MOL0     H50135   4.658   5.038   5.700 -0.3431 -1.5698  2.4822
  380MOL0     H50136   4.747   5.283   5.661  0.6269 -0.2695 -0.5870
  380MOL0     H50137   4.601   5.338   5.745  3.5098  0.5537  1.3799
  380MOL0     H50138   4.599   5.169   5.489  1.2759  0.5538  0.6866
  380MOL0     H50139   4.469   5.179   5.600  1.6695 -1.3151  2.2834
  380MOL0     H50140   4.628   5.425   5.489  2.0308 -2.1150 -1.4559
  380MOL0     H50141   4.460   5.436   5.548 -0.4033 -2.3839  0.5923
  380MOL0     H50142   5.284   5.282   5.675  1.7666  0.3702 -3.5598
  380MOL0     H50143   5.497   5.265   5.567 -0.5597  2.2795  0.7431
  380MOL0     H50144   6.094   5.332   5.735 -2.7173 -1.1382 -0.1193
  380MOL0     H50145   6.272   5.334   5.568 -0.8174  1.0120 -1.4107
  380MOL0     H50146   5.622   5.885   6.084 -1.4127 -0.2541  0.2268
  380MOL0     H50147   5.417   5.828   6.199  1.2701  1.0430 -0.4036
  380MOL0     H50148   5.119   5.714   6.323  1.3688 -1.7446 -1.6424
  380MOL0     H50149   4.929   5.764   6.440 -1.4464 -1.8220 -2.6460
  380MOL0     H50150   4.778   5.483   6.793  0.1938 -0.2720 -1.2055
  380MOL0     H50151   4.730   5.450   6.627 -1.4019  0.6235 -0.2242
  380MOL0     H50152   4.614   5.656   6.807  2.9797  1.1068 -0.6774
  380MOL0     H50153   4.558   5.633   6.636 -0.0961  1.4940  1.2768
  380MOL0     H50154   4.500   5.471   6.872  4.6785  2.5331  0.3564
  380MOL0     H50155   4.547   5.373   6.738 -2.4912 -2.6401  2.8565
  380MOL0     H50156   4.315   5.573   6.710  3.1506  1.8788 -0.1129
  380MOL0     H50157   4.381   5.469   6.579 -1.6230  0.5018 -0.6585
  380MOL0     H50158   4.139   5.205   6.801 -0.8112 -0.5369 -0.3222
  380MOL0     H50159   4.976   5.410   6.682  0.4440  1.6035  0.5564
  380MOL0     H50160   5.181   5.354   6.555 -1.6455 -0.6650  4.1354
  381MOL0     O50161  10.088   9.664   8.267  0.6587 -0.1410 -0.4399
  381MOL0     C50162  10.081   9.645   8.145 -0.5273 -0.4839 -0.4117
  381MOL0     O50163   9.977   9.593   8.076  0.1807  0.1935  0.0647
  381MOL0     C50164   9.869   9.558   8.154  0.2718  1.4897  0.4403
  381MOL0     C50165   9.852   9.429   8.201  0.8643  0.5176  0.4204
  381MOL0     C50166   9.748   9.409   8.295  0.5010  0.1532  0.9894
  381MOL0     C50167   9.652   9.497   8.325 -0.4326 -0.6237  0.5777
  381MOL0     O50168   9.537   9.470   8.398  0.2453  0.1630  0.1780
  381MOL0     C50169   9.520   9.341   8.461  0.2560  0.4740  0.1856
  381MOL0     C50170   9.385   9.363   8.535 -0.0876 -0.7487 -0.6843
  381MOL0     C50171   9.391   9.478   8.646  0.1747  0.4978  0.2962
  381MOL0     C50172   9.481   9.418   8.758 -0.6184  0.4095  0.0912
  381MOL0     C50173   9.404   9.320   8.863 -0.7184 -0.2289  0.0320
  381MOL0     C50174   9.273   9.386   8.920  0.2674 -0.9350 -0.3439
  381MOL0     C50175   9.258   9.335   9.064  0.3438  0.7197 -0.4731
  381MOL0     C50176   9.153   9.422   9.142 -0.5633  0.1195  1.1771
  381MOL0     N50177   9.022   9.455   9.085  0.2801 -0.6255  0.0993
  381MOL0     C50178   8.912   9.378   9.073 -0.0078  0.1175  0.2218
  381MOL0     C50179   8.802   9.455   9.051 -0.6036 -0.5988  0.0263
  381MOL0     C50180   8.659   9.400   9.045 -0.6253 -0.5619 -0.4022
  381MOL0     C50181   8.596   9.363   9.177 -0.5182  0.4123 -0.8471
  381MOL0     C50182   8.456   9.297   9.170  0.4946  0.4237 -0.8611
  381MOL0     C50183   8.337   9.397   9.147 -0.0133 -0.1452  0.3326
  381MOL0     O50184   8.216   9.325   9.137  0.5691 -0.0160 -0.2134
  381MOL0     C50185   8.103   9.396   9.115  0.1235  1.0029 -0.3511
  381MOL0     C50186   8.017   9.355   9.016 -1.0132  0.1445  0.1960
  381MOL0     C50187   7.903   9.423   8.992 -0.4466 -0.7044 -0.0831
  381MOL0     C50188   7.873   9.540   9.061  0.7415 -0.1174 -1.0065
  381MOL0     C50189   7.757   9.619   9.019 -0.0190  0.0051 -0.7202
  381MOL0     O50190   7.730   9.734   9.089  0.6179 -0.5192  0.3573
  381MOL0     C50191   7.608   9.810   9.061  0.1529 -0.3664  1.3674
  381MOL0     C50192   7.551   9.822   8.937  0.6400 -0.3783  0.4724
  381MOL0     C50193   7.447   9.916   8.897  0.6076  0.0877  0.3915
  381MOL0     C50194   7.394   9.992   9.009 -0.5362 -0.3804 -0.5162
  381MOL0     O50195   7.296  10.085   8.999  0.0102 -0.5297 -0.6084
  381MOL0     C50196   7.195  10.058   8.904 -0.0652  0.3622  0.1549
  381MOL0     C50197   7.083  10.163   8.893 -0.5116 -0.2789  0.3878
  381MOL0     C50198   7.009  10.186   9.022 -0.1297  1.1319  0.4882
  381MOL0     C50199   6.898  10.286   8.997 -0.0488 -0.1812 -0.4670
  381MOL0     C50200   6.823  10.316   9.124  0.4264 -0.3704 -0.9042
  381MOL0     C50201   6.704  10.408   9.092  0.4959  0.1277  0.1029
  381MOL0     C50202   6.601  10.421   9.199 -0.7943  0.7177  0.2736
  381MOL0     C50203   6.464  10.495   9.163  0.2362 -0.5056 -0.3386
  381MOL0    Cl50204   6.382  10.441   9.014 -0.1512 -0.0802 -0.2179
  381MOL0     C50205   7.459   9.988   9.132 -0.4513  0.3168 -0.5738
  381MOL0     C50206   7.562   9.894   9.160  0.0282 -0.2707 -0.3934
  381MOL0     O50207   7.695   9.579   8.921  0.3248  0.2965 -1.3333
  381MOL0     C50208   7.954   9.570   9.165 -0.2564 -0.7963  0.8471
  381MOL0     C50209   8.065   9.501   9.194 -1.0993  0.5353 -0.0657
  381MOL0     N50210   8.853   9.583   9.060  0.3730  0.5023 -0.0676
  381MOL0     N50211   8.981   9.579   9.064 -0.1431  0.2182 -0.3779
  381MOL0     C50212   9.659   9.620   8.260  0.0228 -0.2285  0.0470
  381MOL0     C50213   9.768   9.652   8.182  0.7425 -0.2863  0.2795
  381MOL0     C50214  10.205   9.689   8.071  0.0480 -0.1669  0.5010
  381MOL0     C50215  10.315   9.740   8.141 -0.6989 -0.1343 -0.7175
  381MOL0     C50216  10.436   9.781   8.084  0.2804  0.5560  0.1904
  381MOL0     C50217  10.450   9.765   7.946  0.1525 -0.8428 -1.1342
  381MOL0     O50218  10.568   9.793   7.884 -0.0507 -0.2043  0.5651
  381MOL0     C50219  10.673   9.873   7.937 -0.3828 -0.3792  0.1138
  381MOL0     C50220  10.792   9.901   7.842  0.6065 -0.4704 -0.3320
  381MOL0     C50221  10.933   9.873   7.897 -0.0558  1.2767 -0.1797
  381MOL0     C50222  11.058   9.906   7.805  0.3042  0.6673 -0.1066
  381MOL0     C50223  11.045   9.864   7.669  0.1115  0.2263  0.9333
  381MOL0     C50224  11.017   9.838   7.549 -0.1695  0.6023 -0.1755
  381MOL0     C50225  10.343   9.711   7.871  0.7548  0.5798 -0.0681
  381MOL0     C50226  10.220   9.685   7.936  0.2660 -0.0783  0.7623
  381MOL0     H50227   9.924   9.351   8.179 -1.2728 -1.0306 -1.6464
  381MOL0     H50228   9.747   9.314   8.348 -1.8925  0.6271  1.8966
  381MOL0     H50229   9.598   9.306   8.530  3.3314  1.3082 -2.6225
  381MOL0     H50230   9.503   9.264   8.385  3.8560  0.2321 -0.5578
  381MOL0     H50231   9.355   9.268   8.580  4.5466 -2.8464 -1.3892
  381MOL0     H50232   9.304   9.394   8.468 -0.1408 -0.1878 -0.3610
  381MOL0     H50233   9.294   9.505   8.689  1.6632  1.0627  3.5818
  381MOL0     H50234   9.431   9.565   8.593  2.1447 -0.0543  0.8094
  381MOL0     H50235   9.567   9.356   8.730 -0.4809  0.4052  0.5112
  381MOL0     H50236   9.530   9.501   8.811  1.2843  0.4684 -1.6170
  381MOL0     H50237   9.471   9.292   8.945 -3.1282 -4.0800  0.9291
  381MOL0     H50238   9.385   9.228   8.807  1.6446 -1.4714  1.1194
  381MOL0     H50239   9.184   9.362   8.860 -1.0470  2.5108  0.0155
  381MOL0     H50240   9.282   9.494   8.930 -0.8560 -0.9515  1.4520
  381MOL0     H50241   9.226   9.231   9.074  0.7891  0.8464  4.4128
  381MOL0     H50242   9.352   9.341   9.119  0.7341 -0.9735 -0.9108
  381MOL0     H50243   9.206   9.517   9.148 -1.2430  0.6542 -0.7673
  381MOL0     H50244   9.132   9.370   9.237 -1.3745 -0.9197  0.4568
  381MOL0     H50245   8.906   9.273   9.100  3.4777  0.1618  1.6580
  381MOL0     H50246   8.658   9.309   8.984  0.7461 -2.4635  2.2033
  381MOL0     H50247   8.598   9.475   8.994 -3.0545 -3.2593 -1.7720
  381MOL0     H50248   8.586   9.450   9.243  1.4257 -1.5225  2.2823
  381MOL0     H50249   8.662   9.290   9.225 -1.4821 -0.2304 -0.4842
  381MOL0     H50250   8.444   9.211   9.105 -4.2633 -1.7396  2.2807
  381MOL0     H50251   8.425   9.257   9.267 -2.8742  1.0214 -1.5561
  381MOL0     H50252   8.342   9.464   9.061  2.1128 -1.4855 -0.6806
  381MOL0     H50253   8.327   9.476   9.222 -3.8558 -0.8608  0.7588
  381MOL0     H50254   8.057   9.279   8.950  0.4911  2.0479 -1.2166
  381MOL0     H50255   7.840   9.391   8.909 -3.0312  0.5940  1.2802
  381MOL0     H50256   7.592   9.768   8.852  0.8859 -0.1856  0.4685
  381MOL0     H50257   7.399   9.921   8.800 -0.6245  1.4788  1.0288
  381MOL0     H50258   7.145   9.968   8.941  0.3339 -0.4320 -1.1870
  381MOL0     H50259   7.254  10.052   8.812  0.4094  0.7522  0.4334
  381MOL0     H50260   7.004  10.133   8.823  2.1461 -1.4435 -2.3226
  381MOL0     H50261   7.135  10.256   8.868 -0.5011  0.3445  2.5442
  381MOL0     H50262   7.079  10.214   9.102 -0.0455  0.1409  0.7739
  381MOL0     H50263   6.957  10.095   9.053  4.3940 -1.8368  0.4020
  381MOL0     H50264   6.927  10.383   8.956  0.0216 -0.6256 -1.5167
  381MOL0     H50265   6.826  10.240   8.927 -0.3665 -0.3177 -0.0561
  381MOL0     H50266   6.895  10.352   9.198  0.0152 -2.0378  0.3806
  381MOL0     H50267   6.788  10.226   9.175 -0.3419  1.2352  1.5659
  381MOL0     H50268   6.649  10.367   9.007 -0.1336 -0.1234  0.6247
  381MOL0     H50269   6.733  10.511   9.066 -2.7285  1.4864  1.2835
  381MOL0     H50270   6.576  10.319   9.230 -0.8568  0.8168  0.5460
  381MOL0     H50271   6.642  10.475   9.284  0.9296  0.6725 -0.4964
  381MOL0     H50272   6.474  10.600   9.137 -1.7579 -0.3777 -0.8017
  381MOL0     H50273   6.394  10.495   9.248 -1.0959 -3.5891 -1.2577
  381MOL0     H50274   7.424  10.058   9.207  0.7194  0.7246 -0.3877
  381MOL0     H50275   7.609   9.867   9.254  4.4223 -0.8238 -2.4965
  381MOL0     H50276   7.938   9.661   9.223 -0.0220  1.9865 -3.0323
  381MOL0     H50277   8.126   9.538   9.276 -2.2852  2.5110 -0.0211
  381MOL0     H50278   9.595   9.701   8.293 -4.0405 -2.8274 -0.6361
  381MOL0     H50279   9.776   9.757   8.154 -1.9229 -0.2603 -0.6859
  381MOL0     H50280  10.314   9.754   8.249  0.4556 -1.4891 -0.5051
  381MOL0     H50281  10.515   9.819   8.148 -2.3773 -1.2798  5.0651
  381MOL0     H50282  10.711   9.823   8.027  1.1350 -4.4276 -2.4810
  381MOL0     H50283  10.631   9.969   7.970  0.2351 -1.0217  3.0655
  381MOL0     H50284  10.774   9.851   7.746 -1.0889 -1.9932  0.7285
  381MOL0     H50285  10.782  10.003   7.805 -0.7590 -0.1331  0.8870
  381MOL0     H50286  10.947   9.769   7.929  1.2858  1.4020 -0.2740
  381MOL0     H50287  10.948   9.923   7.993 -1.6128 -0.5303  1.0827
  381MOL0     H50288  11.080  10.013   7.812 -0.4356  0.7725  0.7241
  381MOL0     H50289  11.148   9.863   7.849  0.3912  0.0715 -0.8500
  381MOL0     H50290  10.983   9.801   7.454  1.4107  1.6741 -1.1960
  381MOL0     H50291  10.340   9.679   7.768  2.0623 -2.5475  0.7575
  381MOL0     H50292  10.139   9.646   7.875  0.0738 -0.8693  1.5051
  382MOL0     O50293  10.107  10.727  10.526  0.4778 -0.2633  0.0285
  382MOL0     C50294  10.084  10.680  10.410 -0.9206 -0.3060  0.1439
  382MOL0     O50295  10.087  10.543  10.375  0.2138 -0.5741 -1.1156
  382MOL0     C50296  10.095  10.444  10.475 -0.7984 -0.5286 -0.7314
  382MOL0     C50297  10.204  10.348  10.472 -0.0643 -0.0912 -0.1753
  382MOL0     C50298  10.225  10.259  10.581  0.2893 -0.5703 -0.3595
  382MOL0     C50299  10.143  10.274  10.694  0.2866  0.5953  0.9518
  382MOL0     O50300  10.156  10.198  10.805 -0.1668 -0.0103  0.1188
  382MOL0     C50301  10.213  10.069  10.796 -0.4664 -0.7883 -0.1838
  382MOL0     C50302  10.119   9.974  10.721 -0.1526 -0.3676  0.7676
  382MOL0     C50303  10.147   9.828  10.743 -0.2078  0.2546 -0.3526
  382MOL0     C50304  10.024   9.741  10.730  0.2378 -0.1577  0.2381
  382MOL0     C50305   9.951   9.734  10.864  0.0720 -0.2390 -1.0207
  382MOL0     C50306   9.837   9.628  10.867  0.0406  0.4356 -0.4729
  382MOL0     C50307   9.893   9.492  10.896 -0.3023 -0.1768  0.0775
  382MOL0     C50308   9.779   9.389  10.905  0.6486 -1.3313  0.3761
  382MOL0     N50309   9.837   9.257  10.932  0.1722 -0.3899  0.0261
  382MOL0     C50310   9.906   9.186  10.829  0.4422  0.3024 -0.0086
  382MOL0     C50311   9.904   9.064  10.886 -0.1216  0.6268  0.3303
  382MOL0     C50312   9.957   8.938  10.825 -0.0697 -0.4834 -0.0621
  382MOL0     C50313  10.103   8.912  10.858 -0.3972  0.4259 -0.8048
  382MOL0     C50314  10.202   9.003  10.797  0.3323 -0.0410 -0.2204
  382MOL0     C50315  10.187   9.012  10.640  0.8854 -0.6716  0.5311
  382MOL0     O50316  10.194   8.887  10.568  0.8216  0.3370  0.2034
  382MOL0     C50317  10.315   8.834  10.514  0.4422 -0.1136 -0.6533
  382MOL0     C50318  10.302   8.702  10.448 -0.8592  0.1971  1.0024
  382MOL0     C50319  10.414   8.637  10.388  0.3568  0.6258 -0.9489
  382MOL0     C50320  10.536   8.702  10.394 -0.9397  0.1373 -0.2004
  382MOL0     C50321  10.661   8.653  10.328  0.4805 -0.1479  0.0165
  382MOL0     O50322  10.777   8.731  10.325 -0.2370 -0.3626  0.0746
  382MOL0     C50323  10.883   8.688  10.251  0.2619 -0.5078 -0.2314
  382MOL0     C50324  10.936   8.754  10.143 -0.1066  0.0545 -0.4290
  382MOL0     C50325  11.057   8.721  10.073 -0.2548  0.6487 -0.0518
  382MOL0     C50326  11.124   8.598  10.104  0.2643 -0.0163  0.1115
  382MOL0     O50327  11.231   8.560  10.029  0.6436  0.0478  0.7273
  382MOL0     C50328  11.297   8.440  10.042  0.1060 -0.0623 -1.1136
  382MOL0     C50329  11.373   8.404   9.921 -0.1939  0.3633  0.0768
  382MOL0     C50330  11.455   8.272   9.950  0.4141  0.4254  0.3532
  382MOL0     C50331  11.360   8.153   9.957  0.2919 -0.5050  0.2667
  382MOL0     C50332  11.436   8.029  10.000  0.6460  0.3978  0.3199
  382MOL0     C50333  11.347   7.899  10.012 -0.5996  0.0467 -0.2621
  382MOL0     C50334  11.430   7.771  10.038 -0.2407  0.6259  0.5153
  382MOL0     C50335  11.364   7.642  10.017 -0.1171  0.1006  0.0049
  382MOL0    Cl50336  11.228   7.607  10.120  0.2487 -0.2301 -0.0879
  382MOL0     C50337  11.061   8.515  10.199  0.6861 -0.5518  0.0386
  382MOL0     C50338  10.940   8.566  10.272 -0.3442  0.4578  0.0942
  382MOL0     O50339  10.654   8.540  10.271  0.1981  0.1569 -0.3819
  382MOL0     C50340  10.554   8.820  10.467  0.4037 -0.4294 -0.0132
  382MOL0     C50341  10.450   8.881  10.536  0.2547 -0.0576 -0.5350
  382MOL0     N50342   9.840   9.061  11.008 -0.5877 -0.3527 -0.3341
  382MOL0     N50343   9.797   9.172  11.029  0.3293 -0.5459 -0.1284
  382MOL0     C50344  10.031  10.362  10.694  0.6021 -0.4358 -0.0518
  382MOL0     C50345  10.004  10.447  10.587  0.6193  0.4043  0.0721
  382MOL0     C50346  10.049  10.774  10.305 -0.3672  0.1240 -0.6004
  382MOL0     C50347  10.086  10.905  10.311 -0.0408 -0.5416 -0.0618
  382MOL0     C50348  10.048  10.994  10.215 -0.8388  0.2667 -0.8262
  382MOL0     C50349   9.980  10.949  10.103  0.1964 -0.7175 -0.6908
  382MOL0     O50350   9.930  11.025   9.999 -0.1734 -0.5208 -0.0857
  382MOL0     C50351   9.965  11.165   9.981 -0.0146  0.2328  1.0767
  382MOL0     C50352  10.102  11.199   9.916 -0.4545  0.1163 -0.3495
  382MOL0     C50353  10.114  11.349   9.862 -0.6810  0.6298  0.7016
  382MOL0     C50354  10.063  11.374   9.722 -0.1797  0.4385  0.0499
  382MOL0     C50355  10.121  11.504   9.673  0.5046 -0.2698  0.8388
  382MOL0     C50356  10.170  11.612   9.643  0.3296 -0.1255 -0.2211
  382MOL0     C50357   9.939  10.825  10.105  0.4046 -0.3248 -0.0910
  382MOL0     C50358   9.979  10.731  10.193  0.9605 -0.5327  0.2703
  382MOL0     H50359  10.272  10.342  10.387 -3.4918  0.2297 -3.2120
  382MOL0     H50360  10.308  10.190  10.566  1.2100  0.2373  0.7881
  382MOL0     H50361  10.221  10.034  10.899 -2.7201  1.1655  0.7425
  382MOL0     H50362  10.314  10.069  10.755 -2.3796  2.6532 -6.1020
  382MOL0     H50363  10.129   9.992  10.614 -1.0592 -1.6274  0.4472
  382MOL0     H50364  10.014   9.991  10.746 -0.7123  0.4298 -1.8164
  382MOL0     H50365  10.199   9.819  10.839 -0.0226 -0.1158 -0.4870
  382MOL0     H50366  10.223   9.796  10.672  3.5201  2.3503  2.3604
  382MOL0     H50367   9.952   9.764  10.650 -0.1390 -1.9089  0.0295
  382MOL0     H50368  10.076   9.647  10.711  2.3465  0.5355  2.1643
  382MOL0     H50369   9.902   9.829  10.890  0.0921 -1.2240  3.2440
  382MOL0     H50370  10.025   9.722  10.944 -2.9567 -1.5494  1.8021
  382MOL0     H50371   9.782   9.633  10.773 -0.6936 -0.1477 -0.0847
  382MOL0     H50372   9.752   9.651  10.932  1.4471  3.5696  0.4465
  382MOL0     H50373   9.948   9.466  10.804  1.2784  2.0786  0.3279
  382MOL0     H50374   9.960   9.486  10.982  1.1857 -0.2857 -1.0560
  382MOL0     H50375   9.718   9.391  10.814  1.1859 -0.7961  0.0177
  382MOL0     H50376   9.718   9.419  10.991 -3.0121  0.5368 -2.5735
  382MOL0     H50377   9.930   9.222  10.730 -1.8717  2.4110  0.1060
  382MOL0     H50378   9.949   8.951  10.717 -0.2134  0.4152  0.0512
  382MOL0     H50379   9.885   8.857  10.838 -1.9561  0.8210 -1.7473
  382MOL0     H50380  10.126   8.809  10.830 -3.7771 -0.9420  0.8743
  382MOL0     H50381  10.109   8.927  10.966 -0.8968 -0.4838 -0.6462
  382MOL0     H50382  10.190   9.105  10.835  0.6537  0.2711 -0.9489
  382MOL0     H50383  10.304   8.971  10.821 -0.3600 -0.7281  2.0222
  382MOL0     H50384  10.267   9.079  10.609  2.3032 -0.4420  4.2357
  382MOL0     H50385  10.094   9.059  10.608  2.2443  0.4359 -2.1805
  382MOL0     H50386  10.204   8.656  10.451 -0.6077 -0.7395 -1.9715
  382MOL0     H50387  10.392   8.547  10.332 -3.5268  0.3368  0.7183
  382MOL0     H50388  10.879   8.844  10.122 -2.8000 -0.8477  2.2642
  382MOL0     H50389  11.109   8.795  10.013 -3.0729  1.5871 -1.5133
  382MOL0     H50390  11.219   8.366  10.059 -2.4849  3.1168  2.8621
  382MOL0     H50391  11.361   8.443  10.131 -0.5581 -1.0880 -0.5832
  382MOL0     H50392  11.429   8.496   9.900 -0.4249  0.8631  1.5643
  382MOL0     H50393  11.319   8.392   9.827  3.2819  2.1738 -2.4011
  382MOL0     H50394  11.528   8.273  10.031  1.2431  0.0180 -0.3748
  382MOL0     H50395  11.527   8.263   9.868 -0.2789 -0.1452 -0.2063
  382MOL0     H50396  11.270   8.161  10.019 -0.3626 -4.1511  0.0136
  382MOL0     H50397  11.314   8.146   9.858  1.1246 -0.1019 -0.1563
  382MOL0     H50398  11.479   8.042  10.099  1.3881  0.5113 -0.0082
  382MOL0     H50399  11.520   8.008   9.934  1.0453  1.3755  0.5028
  382MOL0     H50400  11.304   7.883   9.912 -0.4926 -1.2804 -0.1161
  382MOL0     H50401  11.267   7.903  10.086 -1.0671 -2.0254 -0.5766
  382MOL0     H50402  11.520   7.768   9.976 -0.8129 -1.5709 -0.2774
  382MOL0     H50403  11.450   7.781  10.145 -0.4201 -1.5813  0.8008
  382MOL0     H50404  11.427   7.553  10.016 -1.1290 -0.6292  0.0027
  382MOL0     H50405  11.314   7.655   9.921  0.1050 -1.1766 -0.2968
  382MOL0     H50406  11.100   8.418  10.228  2.7044  0.3798  0.5493
  382MOL0     H50407  10.891   8.496  10.339 -0.9267  0.6843 -0.0908
  382MOL0     H50408  10.649   8.871  10.483  1.7026 -2.4840 -0.7517
  382MOL0     H50409  10.467   8.965  10.602  1.8494 -1.0429  0.3704
  382MOL0     H50410   9.955  10.352  10.771  0.1385  2.5937  0.0015
  382MOL0     H50411   9.927  10.522  10.605  1.0010  0.6105  0.8903
  382MOL0     H50412  10.151  10.954  10.383  2.7664 -0.7915 -2.2441
  382MOL0     H50413  10.076  11.097  10.235  4.3059 -0.6352 -2.0361
  382MOL0     H50414   9.944  11.227  10.069  0.9168 -0.4041  1.7669
  382MOL0     H50415   9.888  11.191   9.908  0.5818 -0.1287  0.3094
  382MOL0     H50416  10.176  11.184   9.995  1.8020  0.2097 -2.3288
  382MOL0     H50417  10.117  11.119   9.843 -1.6978 -1.4046  0.9875
  382MOL0     H50418  10.223  11.350   9.853 -0.8730  0.8653 -3.5924
  382MOL0     H50419  10.077  11.425   9.931 -1.7301 -0.3326  1.2301
  382MOL0     H50420  10.096  11.288   9.663  3.6516  1.4896  0.4053
  382MOL0     H50421   9.955  11.392   9.713 -0.1060 -0.0192 -3.0583
  382MOL0     H50422  10.221  11.698   9.604  2.8432 -0.2496  2.4699
  382MOL0     H50423   9.889  10.787  10.016  0.2147  1.0415 -0.5824
  382MOL0     H50424   9.933  10.633  10.181 -0.4288  0.0625  0.4866
  383MOL0     O50425   9.509   6.280   7.371 -1.0322 -0.1460 -0.0945
  383MOL0     C50426   9.574   6.227   7.465 -0.2177 -0.0440  0.1260
  383MOL0     O50427   9.520   6.168   7.576 -0.1005 -0.1390 -0.3185
  383MOL0     C50428   9.386   6.168   7.597 -1.2994  0.3276 -0.2177
  383MOL0     C50429   9.350   6.120   7.728 -0.0941  0.4731  0.3356
  383MOL0     C50430   9.220   6.084   7.766  0.5352 -0.2582 -0.5380
  383MOL0     C50431   9.112   6.119   7.677  0.0087 -0.6161  0.5477
  383MOL0     O50432   8.986   6.084   7.720 -0.2463 -0.1162 -0.0357
  383MOL0     C50433   8.868   6.085   7.636 -0.7059  0.5381 -0.2382
  383MOL0     C50434   8.767   5.979   7.693  1.1853 -0.0815  0.5453
  383MOL0     C50435   8.829   5.837   7.685  0.2114 -0.3657  0.4662
  383MOL0     C50436   8.784   5.748   7.804 -0.1936  0.2935  0.1551
  383MOL0     C50437   8.645   5.682   7.774 -0.1310 -0.5374 -0.6195
  383MOL0     C50438   8.595   5.597   7.900 -0.9232  0.0248 -0.3716
  383MOL0     C50439   8.442   5.545   7.870  0.6841 -0.7641 -0.3756
  383MOL0     C50440   8.413   5.421   7.949  0.4520  0.5917  0.5573
  383MOL0     N50441   8.433   5.436   8.093  0.3233  0.5434  0.2351
  383MOL0     C50442   8.328   5.475   8.174  0.8163  0.1345  0.2423
  383MOL0     C50443   8.383   5.487   8.304 -0.0323 -0.2693  0.4892
  383MOL0     C50444   8.318   5.546   8.421  0.2664 -1.1556 -1.3385
  383MOL0     C50445   8.274   5.692   8.405 -0.3275 -0.2985  0.4271
  383MOL0     C50446   8.145   5.712   8.485  0.2931 -0.5861 -0.3155
  383MOL0     C50447   8.022   5.718   8.400 -0.3815 -0.2646  0.7753
  383MOL0     O50448   7.971   5.596   8.339  0.1100 -0.0896  0.7316
  383MOL0     C50449   7.902   5.508   8.414 -1.0296 -0.2054  0.4107
  383MOL0     C50450   7.887   5.522   8.552  0.8018  0.2478 -0.1177
  383MOL0     C50451   7.812   5.416   8.605  0.0940  0.1706 -0.1224
  383MOL0     C50452   7.774   5.298   8.527 -1.0870  0.6534 -0.3177
  383MOL0     C50453   7.705   5.190   8.592 -0.3092  0.0662 -1.4394
  383MOL0     O50454   7.629   5.215   8.703 -0.2372 -0.4347 -0.0787
  383MOL0     C50455   7.653   5.128   8.812  0.6706  0.3146 -0.2776
  383MOL0     C50456   7.723   5.177   8.913  0.0153  0.3480  0.1811
  383MOL0     C50457   7.763   5.092   9.018  0.2677  0.1147 -1.0419
  383MOL0     C50458   7.698   4.969   9.034 -0.7196 -0.2605  0.2056
  383MOL0     O50459   7.720   4.886   9.144 -0.5844 -0.1525  0.0652
  383MOL0     C50460   7.608   4.857   9.225  0.4727 -0.6702  0.6873
  383MOL0     C50461   7.647   4.804   9.368 -0.1543 -0.0855  0.1852
  383MOL0     C50462   7.776   4.716   9.376 -1.0302 -0.9306 -1.3317
  383MOL0     C50463   7.904   4.802   9.388  0.4224 -0.2275 -1.2749
  383MOL0     C50464   7.946   4.848   9.527 -0.3063  0.0679  0.1019
  383MOL0     C50465   7.882   4.973   9.597 -0.3318 -0.1519  1.0238
  383MOL0     C50466   7.912   5.119   9.534  0.7702 -0.4771  0.8917
  383MOL0     C50467   7.805   5.220   9.578 -0.2080  0.8571  1.1314
  383MOL0    Cl50468   7.851   5.374   9.503  0.2927  0.1633  0.1793
  383MOL0     C50469   7.621   4.922   8.925  0.5521  0.0138 -1.1599
  383MOL0     C50470   7.603   5.004   8.813  0.0051 -0.1572 -0.3697
  383MOL0     O50471   7.753   5.080   8.561 -0.1362  0.4313  0.3324
  383MOL0     C50472   7.813   5.287   8.392 -0.0572  0.9197  1.1011
  383MOL0     C50473   7.877   5.395   8.338  0.5361 -0.0390  0.9983
  383MOL0     N50474   8.521   5.451   8.296  0.6978  0.1674  0.1723
  383MOL0     N50475   8.545   5.422   8.172 -0.3467  0.7459  0.3637
  383MOL0     C50476   9.151   6.165   7.545 -0.0302 -0.1406  0.4776
  383MOL0     C50477   9.279   6.187   7.505 -0.4200  0.4782 -0.7397
  383MOL0     C50478   9.717   6.219   7.448 -0.4031  0.1090  0.3706
  383MOL0     C50479   9.775   6.246   7.323 -0.1518  0.1865  0.1630
  383MOL0     C50480   9.910   6.246   7.312  0.1487  0.5128  0.4142
  383MOL0     C50481   9.993   6.217   7.420  0.0715 -1.0467 -0.5037
  383MOL0     O50482  10.124   6.197   7.391 -0.1305  0.4738 -0.2811
  383MOL0     C50483  10.213   6.189   7.504  0.3397 -0.2220  0.4960
  383MOL0     C50484  10.369   6.207   7.469  0.4689  0.6471 -0.1228
  383MOL0     C50485  10.457   6.234   7.590  0.4971 -0.3992  0.2743
  383MOL0     C50486  10.593   6.263   7.556 -0.0267  0.2844 -0.1900
  383MOL0     C50487  10.663   6.139   7.512  0.0091  0.3218  0.6436
  383MOL0     C50488  10.710   6.038   7.454  0.2810 -0.2140  0.5444
  383MOL0     C50489   9.935   6.188   7.549 -0.0780  0.3875  0.7177
  383MOL0     C50490   9.796   6.185   7.561 -0.0619  0.3655  0.1042
  383MOL0     H50491   9.428   6.080   7.792  0.3894  0.2833 -0.3625
  383MOL0     H50492   9.205   6.037   7.862 -2.2806  2.3541  0.4680
  383MOL0     H50493   8.889   6.049   7.535 -0.1765  1.8388 -0.6270
  383MOL0     H50494   8.818   6.183   7.633 -2.8554 -0.3835  1.9474
  383MOL0     H50495   8.673   5.996   7.640  1.8058 -0.5731 -0.7526
  383MOL0     H50496   8.744   5.996   7.799  1.8237 -0.5236  0.7629
  383MOL0     H50497   8.936   5.851   7.698  0.0178  0.8754  0.8718
  383MOL0     H50498   8.807   5.792   7.588  1.1010 -2.6891  1.2652
  383MOL0     H50499   8.854   5.666   7.819  0.3891  0.5265 -1.1805
  383MOL0     H50500   8.764   5.797   7.899 -0.0218 -2.0287  1.4569
  383MOL0     H50501   8.658   5.605   7.698 -0.9314 -0.1269 -1.1933
  383MOL0     H50502   8.568   5.746   7.730 -1.0847 -1.5657 -0.5048
  383MOL0     H50503   8.599   5.664   7.986 -0.3145 -1.3119  0.6738
  383MOL0     H50504   8.672   5.521   7.910  0.4488  1.3163 -0.7217
  383MOL0     H50505   8.367   5.618   7.902 -1.2546 -2.5359 -0.6751
  383MOL0     H50506   8.431   5.523   7.764 -2.5686 -0.2664 -0.2404
  383MOL0     H50507   8.485   5.339   7.939 -1.0924 -0.6854 -0.8708
  383MOL0     H50508   8.312   5.382   7.931 -0.6827  2.2837  2.7648
  383MOL0     H50509   8.227   5.497   8.142  0.3014 -0.5068  1.3339
  383MOL0     H50510   8.381   5.522   8.507  0.0549 -0.8807 -1.1048
  383MOL0     H50511   8.228   5.486   8.435  0.0127 -0.5777 -0.3997
  383MOL0     H50512   8.248   5.720   8.303  0.3030 -1.4215 -0.0495
  383MOL0     H50513   8.355   5.761   8.433 -1.2891  0.9191  0.3317
  383MOL0     H50514   8.131   5.643   8.569 -1.4714  2.4216  2.0630
  383MOL0     H50515   8.139   5.808   8.536 -1.5418 -0.0613 -1.4032
  383MOL0     H50516   8.047   5.779   8.312 -2.4127 -0.1973  0.1836
  383MOL0     H50517   7.948   5.763   8.467  2.2298  0.8210  3.1598
  383MOL0     H50518   7.911   5.608   8.614 -1.2002 -0.4135  1.7155
  383MOL0     H50519   7.799   5.431   8.712  3.4882  0.5809  0.3356
  383MOL0     H50520   7.741   5.284   8.913 -3.4219  1.0975 -2.2969
  383MOL0     H50521   7.840   5.126   9.087 -0.7961 -1.1203  0.8191
  383MOL0     H50522   7.563   4.771   9.174 -3.3966 -0.1225  2.7773
  383MOL0     H50523   7.531   4.934   9.233 -0.9269 -2.1421  2.2446
  383MOL0     H50524   7.564   4.734   9.383 -0.9545  0.9580  0.7639
  383MOL0     H50525   7.645   4.886   9.440 -1.7668  0.1500 -0.0942
  383MOL0     H50526   7.793   4.649   9.291 -0.3022 -0.7173 -1.3595
  383MOL0     H50527   7.756   4.648   9.459  0.3673 -1.7318 -1.6272
  383MOL0     H50528   7.987   4.734   9.365  1.0588  0.9903 -2.7884
  383MOL0     H50529   7.903   4.890   9.323  0.5700  0.0229 -0.9350
  383MOL0     H50530   8.054   4.857   9.518 -0.3412  0.6374  0.2214
  383MOL0     H50531   7.935   4.773   9.606  1.7824 -0.3926  0.0159
  383MOL0     H50532   7.921   4.975   9.699  2.0821  1.7573  0.1558
  383MOL0     H50533   7.775   4.949   9.599  0.2387 -2.9369  1.8129
  383MOL0     H50534   8.002   5.159   9.581  0.2785  1.0926  0.5729
  383MOL0     H50535   7.909   5.114   9.425 -1.2189 -1.5916  0.9462
  383MOL0     H50536   7.814   5.223   9.687  1.3862 -1.8101  1.1655
  383MOL0     H50537   7.707   5.178   9.555  1.0893 -2.5755  1.2441
  383MOL0     H50538   7.567   4.827   8.925 -0.9679  0.7241 -4.5475
  383MOL0     H50539   7.540   4.972   8.730  1.8373 -2.1191 -1.0961
  383MOL0     H50540   7.798   5.200   8.329 -1.8894  1.1206  1.2285
  383MOL0     H50541   7.889   5.396   8.230 -1.6149  0.1540  0.7213
  383MOL0     H50542   9.079   6.179   7.465  1.1365  0.3675 -0.5116
  383MOL0     H50543   9.294   6.212   7.401  1.0602 -0.1718 -0.6993
  383MOL0     H50544   9.717   6.283   7.239 -1.1224  1.4146  1.3358
  383MOL0     H50545   9.939   6.243   7.208 -1.2435 -0.3811  0.0173
  383MOL0     H50546  10.196   6.093   7.554  1.6088 -1.4307 -1.2441
  383MOL0     H50547  10.178   6.267   7.572 -4.2068 -0.3479 -1.3297
  383MOL0     H50548  10.411   6.115   7.427  1.5238  1.8807 -1.9455
  383MOL0     H50549  10.374   6.274   7.382 -4.3977 -2.6484 -3.4907
  383MOL0     H50550  10.459   6.150   7.660  4.4814  1.6923  3.0548
  383MOL0     H50551  10.409   6.312   7.649  0.0785  1.3933 -2.2480
  383MOL0     H50552  10.597   6.332   7.471 -3.3816  0.2978 -0.4485
  383MOL0     H50553  10.640   6.300   7.647 -1.9057  1.0153  0.5182
  383MOL0     H50554  10.745   5.962   7.388  0.0371  1.7366 -1.9931
  383MOL0     H50555   9.991   6.160   7.638 -0.0841  0.0631  0.6231
  383MOL0     H50556   9.754   6.163   7.658 -0.3287 -1.9090 -0.4810
  384MOL0     O50557   1.474   8.650  10.367 -0.8252  0.2265  0.6547
  384MOL0     C50558   1.457   8.633  10.491  0.3604 -0.1016  0.4288
  384MOL0     O50559   1.555   8.596  10.582  0.1583  0.1891 -0.6645
  384MOL0     C50560   1.654   8.516  10.543  0.3783 -0.1488  0.0301
  384MOL0     C50561   1.771   8.519  10.620  0.2262  0.6385  0.3018
  384MOL0     C50562   1.887   8.457  10.580  0.5416  0.8406  0.2473
  384MOL0     C50563   1.893   8.389  10.458  0.5645  0.2669  0.0303
  384MOL0     O50564   2.003   8.322  10.409 -0.1016 -0.4224 -0.4365
  384MOL0     C50565   2.089   8.247  10.500 -0.9252  0.3298 -0.9263
  384MOL0     C50566   2.218   8.233  10.417 -0.1655  0.3638 -0.2424
  384MOL0     C50567   2.311   8.352  10.432  0.4235  1.2285  0.2519
  384MOL0     C50568   2.278   8.479  10.353  0.3057 -0.0177 -0.7706
  384MOL0     C50569   2.393   8.573  10.354  1.0009 -1.4223 -0.5764
  384MOL0     C50570   2.401   8.636  10.494 -0.1185 -0.2160 -0.4153
  384MOL0     C50571   2.533   8.700  10.520 -0.2414  0.1471 -0.0006
  384MOL0     C50572   2.534   8.834  10.449 -0.1482  0.2430 -1.0991
  384MOL0     N50573   2.662   8.890  10.494  0.3703  0.3098 -0.7035
  384MOL0     C50574   2.665   9.016  10.552  0.4941  0.1227  0.6147
  384MOL0     C50575   2.795   9.046  10.571 -0.3306  1.3650  0.5281
  384MOL0     C50576   2.856   9.183  10.612 -0.0702  0.1649 -0.2403
  384MOL0     C50577   2.828   9.210  10.762 -0.0609 -0.0954  0.5445
  384MOL0     C50578   2.891   9.334  10.810 -0.0919 -0.1830  0.1413
  384MOL0     C50579   3.034   9.307  10.866 -0.5201 -0.2925  0.7052
  384MOL0     O50580   3.034   9.272  11.005  0.1164  0.3502  0.0254
  384MOL0     C50581   3.153   9.282  11.069  0.1868  0.0804  0.8565
  384MOL0     C50582   3.282   9.280  11.017  0.2073  0.0569 -0.6008
  384MOL0     C50583   3.396   9.308  11.097  0.7087  0.0988  1.1294
  384MOL0     C50584   3.379   9.318  11.238 -0.4973 -0.0916 -0.9506
  384MOL0     C50585   3.499   9.342  11.328 -0.2907  0.6499  0.8670
  384MOL0     O50586   3.630   9.331  11.264  0.9548  0.9128  1.0560
  384MOL0     C50587   3.739   9.336  11.334 -0.2791  0.1087 -0.2782
  384MOL0     C50588   3.855   9.393  11.271  0.4168  0.4260 -0.0011
  384MOL0     C50589   3.964   9.421  11.346 -0.6160 -0.6879 -0.2482
  384MOL0     C50590   3.982   9.396  11.479 -0.3244 -0.2860 -0.7202
  384MOL0     O50591   4.104   9.431  11.538 -0.0663 -0.1822  0.2008
  384MOL0     C50592   4.124   9.421  11.677 -0.0657 -0.0334 -1.1089
  384MOL0     C50593   4.265   9.466  11.719 -0.1182 -0.8726  0.2558
  384MOL0     C50594   4.288   9.443  11.867 -0.8879  1.4946  0.5072
  384MOL0     C50595   4.431   9.455  11.907 -0.1792  0.0078  0.1735
  384MOL0     C50596   4.452   9.576  11.990 -0.5508 -0.1042  0.3332
  384MOL0     C50597   4.394   9.573  12.126  0.2838  0.3538 -0.3456
  384MOL0     C50598   4.400   9.713  12.194 -0.2079  0.2160 -0.4789
  384MOL0     C50599   4.541   9.764  12.221 -0.2426 -0.0418 -0.2189
  384MOL0    Cl50600   4.542   9.900  12.339 -0.3286 -0.1796  0.2548
  384MOL0     C50601   3.872   9.338  11.542  0.4228 -1.1020  0.3782
  384MOL0     C50602   3.752   9.302  11.476  0.2746 -0.5856  0.1049
  384MOL0     O50603   3.475   9.347  11.454 -0.3681 -0.1054 -0.3172
  384MOL0     C50604   3.244   9.328  11.295 -0.0105 -1.0827  0.1436
  384MOL0     C50605   3.131   9.307  11.209  0.2744 -0.3674  0.2658
  384MOL0     N50606   2.865   8.938  10.511  0.2225 -0.3098 -1.0346
  384MOL0     N50607   2.787   8.849  10.459 -1.1291 -0.7021  0.2692
  384MOL0     C50608   1.771   8.376  10.384 -0.7484 -0.1964  0.4037
  384MOL0     C50609   1.657   8.432  10.428 -0.7779  0.2918 -0.2025
  384MOL0     C50610   1.328   8.674  10.554  0.1433  0.5947 -0.1108
  384MOL0     C50611   1.297   8.626  10.685  0.9229 -0.8478 -0.1999
  384MOL0     C50612   1.175   8.658  10.732  0.4589 -0.5121  0.4268
  384MOL0     C50613   1.093   8.756  10.668 -0.5389 -0.6351 -0.1907
  384MOL0     O50614   0.972   8.795  10.713  0.2936 -0.2505 -0.3804
  384MOL0     C50615   0.940   8.792  10.852 -0.0372 -0.9203 -0.5632
  384MOL0     C50616   0.820   8.699  10.883  0.4121 -0.3170  0.1296
  384MOL0     C50617   0.806   8.688  11.032  0.7968  0.6521 -0.4744
  384MOL0     C50618   0.672   8.613  11.061 -0.5346 -0.3535  0.4893
  384MOL0     C50619   0.547   8.685  11.026  0.9281 -1.4014  0.3388
  384MOL0     C50620   0.449   8.746  10.995  0.0870  0.5232 -0.4503
  384MOL0     C50621   1.122   8.804  10.537  0.1570  0.0820 -0.0717
  384MOL0     C50622   1.238   8.758  10.478 -0.8308  0.2514  0.5886
  384MOL0     H50623   1.769   8.587  10.705  2.5419  1.5790 -0.3037
  384MOL0     H50624   1.976   8.476  10.639  0.7204 -0.7894  0.5622
  384MOL0     H50625   2.051   8.147  10.524 -1.4232  0.9983  1.3038
  384MOL0     H50626   2.113   8.290  10.598  3.3165 -2.6535 -0.3504
  384MOL0     H50627   2.195   8.199  10.316  0.9661 -0.6925 -0.1696
  384MOL0     H50628   2.269   8.148  10.464 -1.1839 -0.2025 -0.1253
  384MOL0     H50629   2.406   8.311  10.397  0.3222  3.0128 -2.4626
  384MOL0     H50630   2.307   8.374  10.539  0.2462  0.6848  0.3607
  384MOL0     H50631   2.262   8.445  10.250  3.1404 -0.6628 -1.0894
  384MOL0     H50632   2.185   8.517  10.396 -0.7705 -1.5787 -1.6318
  384MOL0     H50633   2.380   8.660  10.289 -0.0642 -0.2740  1.1081
  384MOL0     H50634   2.487   8.526  10.323  1.6533 -0.4705 -0.1153
  384MOL0     H50635   2.402   8.563  10.575  3.3365  0.8216  0.6328
  384MOL0     H50636   2.322   8.709  10.514  2.1464  1.8775  1.5584
  384MOL0     H50637   2.557   8.716  10.626  2.2061 -0.4115 -0.4053
  384MOL0     H50638   2.622   8.643  10.492  1.2975  1.5528  1.7144
  384MOL0     H50639   2.446   8.891  10.481 -0.9687 -1.2633 -0.5730
  384MOL0     H50640   2.544   8.826  10.341  1.3017 -1.6292 -0.8892
  384MOL0     H50641   2.580   9.084  10.561  2.4371  2.9971 -0.9146
  384MOL0     H50642   2.814   9.267  10.557 -1.3825  1.7046  2.9000
  384MOL0     H50643   2.963   9.175  10.592  0.1059 -2.5562  1.2705
  384MOL0     H50644   2.875   9.131  10.820 -0.1070  2.1291  3.8778
  384MOL0     H50645   2.720   9.203  10.778  0.2488 -2.4719  1.9598
  384MOL0     H50646   2.893   9.403  10.725 -0.5412 -2.1271 -1.5255
  384MOL0     H50647   2.837   9.383  10.891  1.0012 -0.7268  1.2347
  384MOL0     H50648   3.098   9.396  10.855 -0.3174 -0.4607  0.4997
  384MOL0     H50649   3.091   9.240  10.800  1.0221  1.6874 -0.0803
  384MOL0     H50650   3.301   9.254  10.913  0.3227 -1.4595 -0.2144
  384MOL0     H50651   3.495   9.294  11.057  1.4123 -1.2766  3.1449
  384MOL0     H50652   3.843   9.418  11.166  1.3014 -1.7318 -0.6632
  384MOL0     H50653   4.035   9.472  11.281 -1.1415 -0.5091 -0.6884
  384MOL0     H50654   4.121   9.313  11.694  4.8424 -0.2705 -0.0266
  384MOL0     H50655   4.046   9.470  11.736  1.9706 -0.1375  1.8785
  384MOL0     H50656   4.268   9.575  11.710 -0.3484 -0.9762 -1.3212
  384MOL0     H50657   4.340   9.410  11.663 -1.2100 -1.6380 -0.4868
  384MOL0     H50658   4.261   9.337  11.871 -0.9804  1.2752 -2.8595
  384MOL0     H50659   4.218   9.511  11.916 -3.0033 -0.7176  0.7852
  384MOL0     H50660   4.458   9.369  11.970 -1.0479  0.1358  0.7341
  384MOL0     H50661   4.502   9.442  11.825  0.2350  0.6911  0.4161
  384MOL0     H50662   4.418   9.661  11.931  0.7453  1.0907  1.2586
  384MOL0     H50663   4.560   9.584  12.002 -0.6492 -0.9772  2.0526
  384MOL0     H50664   4.450   9.500  12.185 -0.1749  2.5259  3.0457
  384MOL0     H50665   4.291   9.536  12.125  0.6881 -0.8162 -1.0609
  384MOL0     H50666   4.335   9.786  12.145 -2.0587 -1.1866 -0.2072
  384MOL0     H50667   4.352   9.711  12.292 -1.1969  2.1314 -0.8686
  384MOL0     H50668   4.579   9.806  12.128 -1.9578  2.6790  0.1826
  384MOL0     H50669   4.611   9.696  12.269  1.6904  1.7519 -0.3534
  384MOL0     H50670   3.883   9.323  11.649  0.6555 -0.1599  0.4911
  384MOL0     H50671   3.674   9.253  11.534  0.4141  0.7155  1.4287
  384MOL0     H50672   3.236   9.353  11.401  0.6154 -0.1387 -0.0106
  384MOL0     H50673   3.034   9.309  11.259  0.9848  0.3978  1.6490
  384MOL0     H50674   1.772   8.322  10.290  3.6193 -0.4105  0.3681
  384MOL0     H50675   1.569   8.414  10.367 -0.1057  2.2084 -1.8882
  384MOL0     H50676   1.353   8.548  10.735 -1.7364 -2.6113  0.2354
  384MOL0     H50677   1.144   8.630  10.832 -1.3729 -0.9625 -0.2245
  384MOL0     H50678   0.909   8.893  10.879 -1.0407 -0.2276 -3.8504
  384MOL0     H50679   1.023   8.771  10.920 -1.2379 -0.8975  0.9710
  384MOL0     H50680   0.724   8.734  10.846  0.0733  1.5012  2.5123
  384MOL0     H50681   0.841   8.601  10.838  1.6762 -0.2697  0.5691
  384MOL0     H50682   0.815   8.784  11.084 -0.1960  0.2800  0.4517
  384MOL0     H50683   0.892   8.630  11.066 -0.0677 -0.6221 -0.3569
  384MOL0     H50684   0.676   8.510  11.023  3.9621 -0.3132  0.2856
  384MOL0     H50685   0.656   8.596  11.168 -2.0041 -1.4660  0.1245
  384MOL0     H50686   0.359   8.803  10.980 -1.3482 -0.8420  2.3275
  384MOL0     H50687   1.055   8.868  10.481  2.7886  0.7786 -2.7116
  384MOL0     H50688   1.267   8.776  10.375  2.1951 -0.6865  1.1586
  385MOL0     O50689  10.940   7.924   9.230  0.3603  0.1455 -0.3232
  385MOL0     C50690  10.927   7.805   9.224  0.7613  0.9873  0.4002
  385MOL0     O50691  10.804   7.742   9.200  0.0486 -0.7621 -0.0192
  385MOL0     C50692  10.692   7.821   9.193  0.0304  0.5574  0.5355
  385MOL0     C50693  10.616   7.831   9.079 -0.2987 -0.4034 -0.4359
  385MOL0     C50694  10.495   7.899   9.064  0.6935 -0.1703  0.0459
  385MOL0     C50695  10.445   7.953   9.185  0.0098 -0.9808  0.1443
  385MOL0     O50696  10.333   8.029   9.188  0.5623 -0.5356  0.6352
  385MOL0     C50697  10.271   8.063   9.065 -0.1155 -0.3596  1.4232
  385MOL0     C50698  10.155   8.164   9.079  0.3405 -0.2402  0.2694
  385MOL0     C50699  10.123   8.231   8.948 -1.2754 -0.2302  0.6095
  385MOL0     C50700   9.995   8.313   8.941  0.5967 -0.2619 -0.5872
  385MOL0     C50701   9.890   8.256   8.838  0.2607 -0.1612  0.3707
  385MOL0     C50702   9.777   8.353   8.803 -0.2407  0.0776  0.2454
  385MOL0     C50703   9.715   8.327   8.667  0.0158  0.2625 -0.1096
  385MOL0     C50704   9.606   8.432   8.635  0.5147  0.1226 -0.3184
  385MOL0     N50705   9.544   8.419   8.505 -1.1656 -0.3032 -0.2137
  385MOL0     C50706   9.487   8.301   8.461  0.1383 -0.6884  0.7200
  385MOL0     C50707   9.501   8.316   8.324 -0.8119  0.8012 -0.0670
  385MOL0     C50708   9.454   8.216   8.223 -0.4603  0.6270 -0.7527
  385MOL0     C50709   9.366   8.289   8.114  1.1091  0.3685 -0.3584
  385MOL0     C50710   9.218   8.281   8.166  0.6095 -0.5273 -0.2695
  385MOL0     C50711   9.121   8.359   8.069 -0.0653 -0.6417 -0.2490
  385MOL0     O50712   9.123   8.304   7.936 -0.0305 -0.2352  0.5996
  385MOL0     C50713   9.069   8.183   7.917  1.2015 -0.1490 -1.3167
  385MOL0     C50714   8.948   8.153   7.959 -0.0413  0.4014 -0.8362
  385MOL0     C50715   8.900   8.024   7.942  0.1985 -0.3845 -0.5320
  385MOL0     C50716   8.975   7.923   7.887  0.3366  1.0430  0.5944
  385MOL0     C50717   8.916   7.788   7.853 -0.4427  0.3363  0.1514
  385MOL0     O50718   8.792   7.768   7.908  0.0947  0.3947 -0.3151
  385MOL0     C50719   8.728   7.651   7.875  0.3724  0.4881 -0.7161
  385MOL0     C50720   8.652   7.633   7.752  1.8864  0.1869  0.8351
  385MOL0     C50721   8.599   7.501   7.728  0.7965 -0.0360  0.4868
  385MOL0     C50722   8.598   7.398   7.820  0.1610 -0.1340  0.1811
  385MOL0     O50723   8.539   7.275   7.793 -0.9002  0.7094 -0.4016
  385MOL0     C50724   8.465   7.251   7.679  0.2091  0.2006  0.1106
  385MOL0     C50725   8.416   7.106   7.670 -0.7077 -0.2184 -0.3383
  385MOL0     C50726   8.353   7.055   7.795  0.0855 -0.1288  0.3923
  385MOL0     C50727   8.265   6.940   7.766 -0.1707  0.3108 -0.4143
  385MOL0     C50728   8.183   6.883   7.876  0.6466 -0.8219 -0.6933
  385MOL0     C50729   8.074   6.786   7.821  0.3250 -0.4480 -0.5103
  385MOL0     C50730   8.009   6.691   7.923 -0.1530  0.6797  0.0875
  385MOL0     C50731   7.867   6.631   7.881 -0.2497 -0.2599  1.0263
  385MOL0    Cl50732   7.745   6.769   7.857  0.0009 -0.0984  0.6163
  385MOL0     C50733   8.664   7.427   7.943 -0.3656 -0.2387  0.2364
  385MOL0     C50734   8.723   7.549   7.971 -0.8318 -0.3246  0.4062
  385MOL0     O50735   8.981   7.710   7.783  0.4317 -0.0615 -0.0847
  385MOL0     C50736   9.111   7.954   7.847  0.6242 -0.9908  0.3081
  385MOL0     C50737   9.153   8.088   7.864  0.6281  0.4449  0.2219
  385MOL0     N50738   9.558   8.438   8.295 -0.2211  0.2609  0.4144
  385MOL0     N50739   9.592   8.497   8.403  0.4191 -1.1577 -0.0373
  385MOL0     C50740  10.517   7.943   9.307  0.1660  0.3493 -0.4939
  385MOL0     C50741  10.630   7.872   9.307  0.1013 -0.1483 -0.1448
  385MOL0     C50742  11.041   7.713   9.255 -0.3280  0.7911 -0.2577
  385MOL0     C50743  11.047   7.579   9.207 -0.2965 -0.0437 -0.3007
  385MOL0     C50744  11.163   7.509   9.189 -0.2497  0.5333 -0.7014
  385MOL0     C50745  11.288   7.566   9.224 -0.5344 -0.5762 -0.0366
  385MOL0     O50746  11.408   7.502   9.203 -0.8852  0.7453  0.1908
  385MOL0     C50747  11.455   7.433   9.315 -0.7753 -0.1218 -0.4127
  385MOL0     C50748  11.577   7.361   9.280 -0.1964  0.2082  0.1714
  385MOL0     C50749  11.626   7.279   9.397 -0.3011 -1.8528  0.1676
  385MOL0     C50750  11.679   7.376   9.498 -0.9264 -0.3521  0.8068
  385MOL0     C50751  11.807   7.439   9.472 -0.5177 -1.0780  0.3011
  385MOL0     C50752  11.923   7.465   9.459 -0.3077  0.5245 -0.6473
  385MOL0     C50753  11.285   7.689   9.276 -0.6892 -0.1745  0.0302
  385MOL0     C50754  11.169   7.763   9.293 -0.1982  0.1567  0.0481
  385MOL0     H50755  10.664   7.785   8.992  0.6313 -2.6333  1.1570
  385MOL0     H50756  10.433   7.890   8.975 -2.2490  0.4502  1.8637
  385MOL0     H50757  10.217   7.980   9.018  1.7164 -0.0448 -1.5385
  385MOL0     H50758  10.347   8.090   8.991 -1.9556 -0.5853 -0.6817
  385MOL0     H50759  10.181   8.235   9.158  2.1442  0.2808 -0.7297
  385MOL0     H50760  10.066   8.106   9.105 -0.0673  0.2849  0.0548
  385MOL0     H50761  10.118   8.151   8.874 -0.2411 -0.2765  0.5785
  385MOL0     H50762  10.213   8.288   8.924 -0.8773 -1.0897  0.0192
  385MOL0     H50763   9.951   8.324   9.041 -0.8200 -0.3430 -1.1756
  385MOL0     H50764  10.031   8.412   8.913  0.9531  0.0246  0.8062
  385MOL0     H50765   9.842   8.167   8.879 -1.8113  0.6469 -0.1759
  385MOL0     H50766   9.952   8.246   8.749  1.9106 -1.5438  1.6091
  385MOL0     H50767   9.822   8.452   8.793 -0.0793 -0.1473 -1.5620
  385MOL0     H50768   9.699   8.350   8.879  0.3843  1.5863  0.9824
  385MOL0     H50769   9.785   8.322   8.584 -1.2179  1.5912 -1.2767
  385MOL0     H50770   9.653   8.237   8.658  1.3625 -0.5298 -2.2090
  385MOL0     H50771   9.651   8.531   8.647 -1.8861  1.1460  1.1049
  385MOL0     H50772   9.530   8.422   8.713 -1.1971  3.1087 -1.4436
  385MOL0     H50773   9.448   8.223   8.527 -0.1190 -0.5648  0.7177
  385MOL0     H50774   9.386   8.145   8.272  2.2570 -1.9671 -0.5061
  385MOL0     H50775   9.538   8.157   8.187 -0.2828  1.5201 -1.8529
  385MOL0     H50776   9.382   8.236   8.019  1.1104 -0.4974  0.1139
  385MOL0     H50777   9.384   8.395   8.096 -1.6515  1.1863  1.1606
  385MOL0     H50778   9.176   8.181   8.180 -1.2192 -0.2380 -2.9326
  385MOL0     H50779   9.216   8.339   8.259 -0.0068  1.9396 -1.7204
  385MOL0     H50780   9.158   8.461   8.054  3.8378 -1.8710 -0.2736
  385MOL0     H50781   9.020   8.350   8.108 -0.4506 -2.5815 -1.5373
  385MOL0     H50782   8.874   8.220   7.999  1.1169 -0.3002  2.8103
  385MOL0     H50783   8.796   8.019   7.974  0.0427  1.2712 -0.6889
  385MOL0     H50784   8.648   7.720   7.686  1.6048 -1.6794 -1.7601
  385MOL0     H50785   8.542   7.479   7.638  0.6065 -1.8013  0.9898
  385MOL0     H50786   8.511   7.277   7.583  0.1650 -2.9329 -0.8882
  385MOL0     H50787   8.371   7.305   7.689 -0.5002 -1.2422  1.7578
  385MOL0     H50788   8.498   7.038   7.647 -1.2106 -1.1462  0.5635
  385MOL0     H50789   8.348   7.096   7.585  1.9886 -0.2581 -2.6501
  385MOL0     H50790   8.302   7.131   7.856 -1.1348 -0.6971  0.1038
  385MOL0     H50791   8.439   7.030   7.857  0.4351 -0.0488 -0.0567
  385MOL0     H50792   8.201   6.980   7.687 -0.5938  2.1550  0.8177
  385MOL0     H50793   8.331   6.861   7.727 -0.5491 -1.3757  2.1390
  385MOL0     H50794   8.128   6.958   7.934  1.6209 -2.1650  2.1717
  385MOL0     H50795   8.252   6.846   7.952  0.1110  1.9243  1.2661
  385MOL0     H50796   8.117   6.721   7.745 -0.7961 -0.6009 -1.0371
  385MOL0     H50797   8.004   6.842   7.757  3.1133 -0.0889 -3.5414
  385MOL0     H50798   8.073   6.605   7.941 -1.1166  0.0500  0.6004
  385MOL0     H50799   7.998   6.747   8.017 -1.5189  1.7302 -0.6532
  385MOL0     H50800   7.824   6.561   7.954 -1.5551 -0.1598  0.3953
  385MOL0     H50801   7.888   6.580   7.786  3.2119  1.9177  0.4638
  385MOL0     H50802   8.667   7.356   8.025  1.0280  1.8436  2.1091
  385MOL0     H50803   8.759   7.560   8.073 -0.1571 -2.1610  0.4031
  385MOL0     H50804   9.177   7.877   7.808  2.5165 -0.0910  1.5681
  385MOL0     H50805   9.247   8.123   7.823  0.8963 -1.5961 -1.0137
  385MOL0     H50806  10.471   7.997   9.389 -0.4236  1.1060 -1.3148
  385MOL0     H50807  10.679   7.856   9.403 -1.6826 -2.6437  0.4612
  385MOL0     H50808  10.953   7.535   9.175  0.3678 -2.5883  1.0243
  385MOL0     H50809  11.153   7.406   9.154 -1.6976 -0.6653  2.7769
  385MOL0     H50810  11.376   7.363   9.346  0.4184 -1.6467 -0.6838
  385MOL0     H50811  11.465   7.494   9.405  3.1654 -1.7904  0.5077
  385MOL0     H50812  11.559   7.298   9.192 -1.0154 -1.1265  1.2718
  385MOL0     H50813  11.656   7.435   9.259 -0.3823  0.9181  1.8556
  385MOL0     H50814  11.713   7.221   9.365  1.4343 -0.0422  1.3118
  385MOL0     H50815  11.545   7.219   9.439 -0.1894 -3.7092 -2.0941
  385MOL0     H50816  11.603   7.446   9.530 -1.0184 -0.5414  1.0067
  385MOL0     H50817  11.697   7.319   9.590 -0.5425  0.1589  1.0543
  385MOL0     H50818  12.026   7.480   9.434 -0.3280  1.2673 -0.3211
  385MOL0     H50819  11.379   7.737   9.300 -1.4410  0.5802  1.6781
  385MOL0     H50820  11.185   7.864   9.329  0.6262  0.4590 -1.0975
  386MOL0     O50821   8.814   3.164   5.279 -0.0661  0.3479 -0.8334
  386MOL0     C50822   8.750   3.260   5.318  0.9298  0.4527 -0.4438
  386MOL0     O50823   8.785   3.391   5.302 -0.7347  0.2438 -0.0669
  386MOL0     C50824   8.914   3.434   5.276  0.8906  0.8558  0.5688
  386MOL0     C50825   9.014   3.367   5.216  0.1829 -0.7514  0.9338
  386MOL0     C50826   9.145   3.404   5.225  0.8595 -0.4720  0.5720
  386MOL0     C50827   9.166   3.534   5.263 -0.3582  0.0697  0.6744
  386MOL0     O50828   9.303   3.574   5.260 -0.2353  0.4916 -0.0854
  386MOL0     C50829   9.318   3.711   5.230 -0.2385  0.1195 -0.6693
  386MOL0     C50830   9.371   3.727   5.092 -0.8041 -0.3398  0.5550
  386MOL0     C50831   9.510   3.660   5.062  0.0512 -0.1606  0.8844
  386MOL0     C50832   9.612   3.694   5.170  0.1360 -0.8829  0.1252
  386MOL0     C50833   9.644   3.847   5.191 -0.2585  0.0196 -0.1430
  386MOL0     C50834   9.769   3.867   5.278  0.6490 -0.7977 -1.2584
  386MOL0     C50835   9.788   4.017   5.323  0.0196  0.6451 -1.1533
  386MOL0     C50836   9.894   4.031   5.434  0.6764 -0.2451  0.3515
  386MOL0     N50837   9.907   4.178   5.450 -0.3648 -0.0039  1.2233
  386MOL0     C50838  10.025   4.235   5.397  0.3629  0.2165  1.1314
  386MOL0     C50839  10.046   4.344   5.468  0.2244 -0.1921  0.0100
  386MOL0     C50840  10.165   4.433   5.446  0.5684 -0.5099  1.0204
  386MOL0     C50841  10.114   4.576   5.418 -0.5592 -0.4813 -0.0080
  386MOL0     C50842  10.220   4.672   5.360 -1.5015  0.3952  0.0720
  386MOL0     C50843  10.358   4.641   5.405 -0.5827 -0.3935  0.2781
  386MOL0     O50844  10.450   4.734   5.349 -0.4068  0.5052 -0.7602
  386MOL0     C50845  10.586   4.708   5.349 -0.5548 -1.2397  0.7188
  386MOL0     C50846  10.647   4.616   5.420 -0.9326 -0.0017 -0.1076
  386MOL0     C50847  10.789   4.606   5.411  0.1504 -0.4857 -0.2647
  386MOL0     C50848  10.860   4.681   5.318 -0.1552 -0.6288  0.6636
  386MOL0     C50849  11.008   4.659   5.308 -0.4657 -0.1986 -0.4695
  386MOL0     O50850  11.072   4.574   5.398  1.1321 -0.1188  0.4492
  386MOL0     C50851  11.207   4.547   5.390  0.0749 -0.0145 -0.6205
  386MOL0     C50852  11.242   4.417   5.430  0.3819 -0.5585  0.5422
  386MOL0     C50853  11.380   4.385   5.439 -0.9170 -0.2051  0.1526
  386MOL0     C50854  11.476   4.481   5.420 -0.2304 -0.1146 -0.1858
  386MOL0     O50855  11.609   4.439   5.431 -0.4009  0.4831  0.0897
  386MOL0     C50856  11.709   4.514   5.363 -0.2725 -0.2840  0.1682
  386MOL0     C50857  11.854   4.458   5.400 -0.0375 -0.4321 -0.9288
  386MOL0     C50858  11.903   4.353   5.312  0.2166  0.1522 -0.3466
  386MOL0     C50859  12.040   4.284   5.354 -0.2537  0.4042  0.1864
  386MOL0     C50860  12.095   4.199   5.242 -0.0275 -0.7909 -0.8768
  386MOL0     C50861  12.019   4.063   5.226 -0.1503 -0.0667 -0.6783
  386MOL0     C50862  12.095   3.984   5.123 -0.0354 -0.6488 -0.7507
  386MOL0     C50863  12.028   3.864   5.051 -0.1375 -0.9445 -0.8959
  386MOL0    Cl50864  11.946   3.767   5.173 -0.1320 -0.4459 -0.2354
  386MOL0     C50865  11.438   4.611   5.384  0.5014 -0.3403  0.3348
  386MOL0     C50866  11.303   4.645   5.380  0.7833  0.7814 -0.1577
  386MOL0     O50867  11.063   4.714   5.209  0.4365  0.2978 -0.0421
  386MOL0     C50868  10.793   4.781   5.237  0.3773  0.3969 -0.0346
  386MOL0     C50869  10.655   4.789   5.251  0.2021 -0.2691 -0.1649
  386MOL0     N50870   9.945   4.349   5.568 -0.3888 -0.0786  0.2801
  386MOL0     N50871   9.865   4.256   5.552 -1.0451  1.1718  0.8060
  386MOL0     C50872   9.067   3.605   5.334 -1.1151  0.2573 -0.4617
  386MOL0     C50873   8.938   3.556   5.332  0.3455 -0.0397  0.0617
  386MOL0     C50874   8.633   3.225   5.393 -0.0366  0.0363 -0.2442
  386MOL0     C50875   8.560   3.110   5.359 -0.7506  0.5905 -0.3345
  386MOL0     C50876   8.444   3.088   5.440  0.4266 -0.1976 -0.4094
  386MOL0     C50877   8.416   3.154   5.560 -0.2548  0.5687  0.6110
  386MOL0     O50878   8.308   3.111   5.633 -0.0872  0.1261  0.4387
  386MOL0     C50879   8.254   3.204   5.741 -0.3453  0.1644 -0.0110
  386MOL0     C50880   8.240   3.115   5.864  0.2177 -0.0208 -0.5678
  386MOL0     C50881   8.163   2.982   5.832  0.1232 -0.3393  0.2434
  386MOL0     C50882   8.176   2.881   5.936 -0.0983 -0.0704 -0.1182
  386MOL0     C50883   8.104   2.757   5.902  0.4478  0.6004  0.0918
  386MOL0     C50884   8.031   2.663   5.875  0.3883  0.6071 -0.0145
  386MOL0     C50885   8.496   3.266   5.585  0.0699  0.6137 -0.5286
  386MOL0     C50886   8.601   3.305   5.500  0.0409 -0.8082  0.1165
  386MOL0     H50887   8.994   3.270   5.171  2.3700  0.2410 -2.5225
  386MOL0     H50888   9.223   3.344   5.180  1.7882  1.8737 -1.1830
  386MOL0     H50889   9.386   3.747   5.308 -0.3772 -0.0684 -0.4555
  386MOL0     H50890   9.227   3.769   5.247  0.1686  1.3332 -2.3934
  386MOL0     H50891   9.368   3.833   5.065 -3.6852 -1.0111 -2.3891
  386MOL0     H50892   9.295   3.680   5.029 -0.7139  0.2471 -0.0071
  386MOL0     H50893   9.552   3.683   4.963 -1.1174 -0.8710  0.2026
  386MOL0     H50894   9.505   3.552   5.051 -0.7298 -0.2392  1.8702
  386MOL0     H50895   9.589   3.650   5.267  1.5412 -1.2331  0.3184
  386MOL0     H50896   9.708   3.664   5.127  0.7071  3.0583 -1.8614
  386MOL0     H50897   9.562   3.902   5.238 -0.1168 -0.9561  1.3070
  386MOL0     H50898   9.663   3.900   5.097 -0.4708  2.9867  1.3783
  386MOL0     H50899   9.858   3.831   5.227 -1.0921 -0.6032 -4.7482
  386MOL0     H50900   9.757   3.805   5.367  0.5669  0.0475 -0.6672
  386MOL0     H50901   9.828   4.078   5.241  0.9648 -0.4118 -1.5023
  386MOL0     H50902   9.696   4.061   5.361  0.0489 -1.4948  1.7161
  386MOL0     H50903   9.983   3.978   5.397  1.6917  0.9902  0.9405
  386MOL0     H50904   9.861   3.990   5.530 -1.9977  0.0686 -0.3719
  386MOL0     H50905  10.094   4.183   5.332 -1.4621  1.5335 -2.1012
  386MOL0     H50906  10.224   4.400   5.361  0.1596  0.3883  0.3701
  386MOL0     H50907  10.224   4.425   5.538 -1.3386  0.2416  2.3795
  386MOL0     H50908  10.083   4.628   5.509  0.4254  0.1193  0.0032
  386MOL0     H50909  10.033   4.573   5.345 -0.6691 -1.1413  0.1332
  386MOL0     H50910  10.225   4.660   5.251 -2.5816  3.4357 -0.4137
  386MOL0     H50911  10.198   4.777   5.380  1.0463  1.3209 -1.4181
  386MOL0     H50912  10.398   4.541   5.383 -0.5578 -0.8893  2.3931
  386MOL0     H50913  10.364   4.651   5.514  0.6628 -0.0116  0.1921
  386MOL0     H50914  10.601   4.537   5.479 -2.1732  1.0480  0.3850
  386MOL0     H50915  10.845   4.544   5.481  0.3455  0.9502  0.8796
  386MOL0     H50916  11.164   4.343   5.445 -0.6270  0.3491 -0.1690
  386MOL0     H50917  11.407   4.286   5.476 -2.1218 -0.1527  1.2442
  386MOL0     H50918  11.710   4.620   5.389  0.8041  0.7388 -3.5029
  386MOL0     H50919  11.698   4.519   5.254  0.7306  2.0387  0.1236
  386MOL0     H50920  11.864   4.425   5.504  0.7530 -2.7819 -1.6809
  386MOL0     H50921  11.920   4.545   5.403 -0.9997  0.2864  1.2570
  386MOL0     H50922  11.922   4.402   5.216  1.2385 -1.7742 -1.1940
  386MOL0     H50923  11.824   4.278   5.303  1.2917 -0.7671 -3.8203
  386MOL0     H50924  12.115   4.358   5.381  2.9145 -1.3488 -2.9687
  386MOL0     H50925  12.026   4.209   5.433 -1.6309 -2.2447 -2.3540
  386MOL0     H50926  12.199   4.181   5.273 -0.4276  0.2632  1.2529
  386MOL0     H50927  12.096   4.254   5.148  2.3824  0.0194 -0.4681
  386MOL0     H50928  11.916   4.091   5.202  0.2357  0.6891 -1.5354
  386MOL0     H50929  12.032   4.007   5.319 -2.3865  1.5173  0.6884
  386MOL0     H50930  12.116   4.051   5.039  1.1255  3.1703  2.2653
  386MOL0     H50931  12.187   3.954   5.174 -0.0415 -1.1860 -1.0513
  386MOL0     H50932  12.099   3.813   4.985  3.8741  0.3900  2.0171
  386MOL0     H50933  11.941   3.907   5.001 -0.3705 -1.1372 -0.6609
  386MOL0     H50934  11.518   4.683   5.371 -2.0972  2.6335 -0.5581
  386MOL0     H50935  11.267   4.745   5.359  0.0383  0.9944  1.9499
  386MOL0     H50936  10.841   4.845   5.164 -0.2247  0.8773 -0.0191
  386MOL0     H50937  10.613   4.867   5.188  1.5155  0.5541 -0.0582
  386MOL0     H50938   9.094   3.696   5.387  0.0093 -0.6691  0.6081
  386MOL0     H50939   8.859   3.603   5.389  1.0874 -0.7659  1.7769
  386MOL0     H50940   8.590   3.055   5.270 -0.3629 -1.5234  1.0170
  386MOL0     H50941   8.382   3.007   5.403  2.2455 -1.3914 -0.9768
  386MOL0     H50942   8.158   3.239   5.703  1.7978  1.8904 -4.5779
  386MOL0     H50943   8.313   3.290   5.774  0.5276 -0.3773 -0.1244
  386MOL0     H50944   8.342   3.081   5.886 -0.3630 -0.9617  0.8324
  386MOL0     H50945   8.197   3.161   5.954 -1.9583  0.7426 -1.9209
  386MOL0     H50946   8.195   2.943   5.734 -2.1177  3.1032 -2.1069
  386MOL0     H50947   8.060   3.016   5.816 -0.0502 -0.5666  0.8567
  386MOL0     H50948   8.281   2.855   5.949 -0.5137 -3.3910 -2.2066
  386MOL0     H50949   8.134   2.922   6.029  2.2416  2.3000  0.0130
  386MOL0     H50950   7.965   2.585   5.844  1.0499 -0.0052  0.0887
  386MOL0     H50951   8.477   3.342   5.661 -4.1631  0.7665 -1.4980
  386MOL0     H50952   8.666   3.387   5.529 -0.7633  0.5504 -1.7224
  387MOL0     O50953   4.660   3.205   9.650 -0.2501  0.9056 -0.2950
  387MOL0     C50954   4.731   3.165   9.746  0.1442 -0.9536  0.0900
  387MOL0     O50955   4.696   3.093   9.852  0.1180  0.0228 -0.5791
  387MOL0     C50956   4.563   3.066   9.868  0.7231  0.1352 -0.1746
  387MOL0     C50957   4.497   3.096   9.987  0.0714 -0.1858  0.3506
  387MOL0     C50958   4.369   3.053  10.007 -0.6038  1.2453 -1.1228
  387MOL0     C50959   4.297   2.978   9.913  0.1915  0.2312  0.5302
  387MOL0     O50960   4.177   2.927   9.949 -0.6709  0.2482  0.4915
  387MOL0     C50961   4.101   2.829   9.868  0.5064  0.1284 -0.1602
  387MOL0     C50962   4.035   2.880   9.743  0.1822 -0.2491  0.2146
  387MOL0     C50963   3.900   2.953   9.770 -0.1268 -0.2614 -0.3161
  387MOL0     C50964   3.862   3.040   9.647  0.2628 -0.0624 -0.0302
  387MOL0     C50965   3.721   3.108   9.649 -0.2756  0.5648 -0.0518
  387MOL0     C50966   3.604   3.011   9.693 -0.3442 -0.4327  0.0045
  387MOL0     C50967   3.465   3.068   9.670 -0.0434 -0.1254 -0.8226
  387MOL0     C50968   3.421   3.172   9.771  0.2026  0.6223 -0.7391
  387MOL0     N50969   3.287   3.208   9.740 -0.0635  0.5288  0.1542
  387MOL0     C50970   3.179   3.197   9.825  0.1583 -0.2973 -0.1974
  387MOL0     C50971   3.071   3.240   9.750 -0.0581 -0.2476 -0.8192
  387MOL0     C50972   2.933   3.257   9.800  0.1267  0.3478  0.0331
  387MOL0     C50973   2.858   3.128   9.773 -0.2247  0.8119 -0.6299
  387MOL0     C50974   2.712   3.147   9.807  0.1254  0.4062  0.4602
  387MOL0     C50975   2.636   3.011   9.804  0.3511  0.5317  0.2699
  387MOL0     O50976   2.518   3.009   9.883  0.2483  0.8261 -0.2804
  387MOL0     C50977   2.392   3.046   9.839 -0.0856  0.0158  0.2312
  387MOL0     C50978   2.340   3.033   9.711  0.4315 -0.0357 -0.7095
  387MOL0     C50979   2.214   3.060   9.673  0.4602  0.7034 -0.2846
  387MOL0     C50980   2.120   3.097   9.769  0.1282  0.0005  0.2466
  387MOL0     C50981   1.974   3.118   9.733 -0.2403  0.3205 -0.5501
  387MOL0     O50982   1.891   3.161   9.833 -0.0489 -0.6522 -0.0077
  387MOL0     C50983   1.759   3.167   9.809  0.0192 -0.9504 -0.2870
  387MOL0     C50984   1.683   3.288   9.800 -0.7144 -0.5386 -0.2125
  387MOL0     C50985   1.548   3.284   9.770  0.2733  0.5787 -0.6420
  387MOL0     C50986   1.486   3.162   9.747 -0.7144  0.2421 -0.4677
  387MOL0     O50987   1.356   3.144   9.711  0.1514  0.2967 -0.3547
  387MOL0     C50988   1.290   3.248   9.643  0.4999  0.3203 -0.1731
  387MOL0     C50989   1.216   3.186   9.514 -0.0056  0.4307  0.3007
  387MOL0     C50990   1.075   3.136   9.546  0.8505  0.1634 -0.1414
  387MOL0     C50991   1.001   3.127   9.410  0.0820 -0.4741  0.8655
  387MOL0     C50992   0.850   3.091   9.401 -0.4667  0.0329 -1.0322
  387MOL0     C50993   0.762   3.191   9.477 -0.1894  1.1670 -0.9526
  387MOL0     C50994   0.739   3.324   9.409 -0.8396  0.1842 -0.7664
  387MOL0     C50995   0.630   3.403   9.489 -0.4281 -0.0716  0.3767
  387MOL0    Cl50996   0.476   3.325   9.445  0.2536  0.3471  0.1744
  387MOL0     C50997   1.554   3.043   9.755 -1.0858 -0.1390  0.4373
  387MOL0     C50998   1.695   3.045   9.789  0.1262 -0.2328 -0.4915
  387MOL0     O50999   1.939   3.081   9.623 -0.3392  0.7761 -0.3614
  387MOL0     C51000   2.162   3.118   9.897 -0.1140 -0.2757  0.1255
  387MOL0     C51001   2.299   3.104   9.930 -1.2371  0.5956 -0.4082
  387MOL0     N51002   3.111   3.283   9.622 -0.0095 -0.1848  0.7236
  387MOL0     N51003   3.236   3.251   9.620 -0.3249 -0.1329  0.3405
  387MOL0     C51004   4.358   2.960   9.788 -0.5617  0.7727 -0.6192
  387MOL0     C51005   4.489   2.997   9.765 -0.2372 -0.5846 -0.0390
  387MOL0     C51006   4.874   3.209   9.733 -0.7860 -0.7607 -0.5684
  387MOL0     C51007   4.985   3.135   9.796  0.0548  0.1251  0.1328
  387MOL0     C51008   5.119   3.176   9.762  0.0975 -0.3085 -0.4688
  387MOL0     C51009   5.135   3.302   9.698 -1.0516  0.1315 -0.1629
  387MOL0     O51010   5.255   3.353   9.663  0.7027  0.5223 -0.0431
  387MOL0     C51011   5.373   3.280   9.713  0.3445 -0.5816 -0.0639
  387MOL0     C51012   5.497   3.351   9.657  0.6119 -0.4996 -0.2055
  387MOL0     C51013   5.623   3.280   9.697 -0.1333 -0.2436 -0.3186
  387MOL0     C51014   5.746   3.329   9.623  0.0621 -0.8739 -0.6861
  387MOL0     C51015   5.866   3.256   9.667 -0.3579 -0.1150  0.1680
  387MOL0     C51016   5.976   3.213   9.696 -0.2885 -0.3328  0.0136
  387MOL0     C51017   5.026   3.369   9.637  0.8748 -0.3429 -0.0531
  387MOL0     C51018   4.895   3.327   9.656 -0.2029  0.3296  0.2163
  387MOL0     H51019   4.556   3.131  10.071 -1.2998  1.0365  0.8450
  387MOL0     H51020   4.330   3.066  10.108 -0.1638 -0.3926 -0.7161
  387MOL0     H51021   4.026   2.791   9.938 -0.6557  2.7570  0.1357
  387MOL0     H51022   4.156   2.739   9.840 -1.0591 -0.4998 -1.4080
  387MOL0     H51023   4.010   2.803   9.669  3.3961 -0.1734 -1.1082
  387MOL0     H51024   4.109   2.952   9.710  0.9486 -0.8409  0.6089
  387MOL0     H51025   3.897   3.016   9.859 -2.8769  2.1780 -1.9295
  387MOL0     H51026   3.821   2.878   9.784 -0.3303  0.0384  0.1689
  387MOL0     H51027   3.939   3.116   9.627  1.2128 -1.1011 -0.4282
  387MOL0     H51028   3.869   2.973   9.561  0.0053 -1.2777  0.8696
  387MOL0     H51029   3.685   3.146   9.553  2.8512 -1.7206 -2.3003
  387MOL0     H51030   3.726   3.190   9.722 -0.3257 -0.4363  1.1168
  387MOL0     H51031   3.614   2.986   9.799 -1.4650 -1.9200 -0.1997
  387MOL0     H51032   3.617   2.923   9.629  0.8604  1.3000 -2.2867
  387MOL0     H51033   3.458   3.113   9.570  0.4373  0.4419 -0.6023
  387MOL0     H51034   3.386   2.992   9.666 -0.6549  0.5230 -1.3844
  387MOL0     H51035   3.482   3.262   9.780  0.4382  0.2835  2.2833
  387MOL0     H51036   3.424   3.128   9.872  5.5688 -0.0379 -0.8931
  387MOL0     H51037   3.180   3.161   9.927  2.2849  1.3146  0.4407
  387MOL0     H51038   2.878   3.339   9.752 -2.3442 -1.1286  0.2043
  387MOL0     H51039   2.939   3.277   9.907 -0.5427  4.0112 -0.4771
  387MOL0     H51040   2.896   3.050   9.840 -0.4004  1.9840  0.9068
  387MOL0     H51041   2.874   3.092   9.671 -1.2111  1.4319 -1.0246
  387MOL0     H51042   2.704   3.205   9.899  3.1075  2.9733 -0.7069
  387MOL0     H51043   2.664   3.212   9.733  0.9802  0.0490 -0.4301
  387MOL0     H51044   2.706   2.931   9.831  1.7666  0.7933 -2.2842
  387MOL0     H51045   2.607   2.989   9.701  1.0809  0.3455  0.0969
  387MOL0     H51046   2.401   2.982   9.637  0.9973  0.2615 -0.4517
  387MOL0     H51047   2.196   3.066   9.566  1.0518  0.1621 -0.4229
  387MOL0     H51048   1.733   3.384   9.797  3.4615 -2.4832 -1.4396
  387MOL0     H51049   1.487   3.373   9.780 -1.6735 -0.6571 -0.9250
  387MOL0     H51050   1.346   3.337   9.612  0.0658  0.2761 -1.1099
  387MOL0     H51051   1.226   3.297   9.717  1.9798  1.4546  0.4319
  387MOL0     H51052   1.273   3.099   9.480 -2.1895 -2.7128  3.8909
  387MOL0     H51053   1.208   3.258   9.432  6.2893  0.1901 -1.0896
  387MOL0     H51054   1.020   3.211   9.603  0.8459 -0.1747  0.3078
  387MOL0     H51055   1.088   3.035   9.589 -2.1425 -0.2583 -0.0074
  387MOL0     H51056   1.004   3.225   9.363 -1.0028 -0.5059  0.6949
  387MOL0     H51057   1.054   3.053   9.348  1.2889  0.2945  0.9606
  387MOL0     H51058   0.845   2.989   9.439  2.8440  0.6430  1.5447
  387MOL0     H51059   0.809   3.082   9.300 -0.5674  1.1548 -1.1057
  387MOL0     H51060   0.799   3.206   9.579 -2.1886 -1.2149  0.2238
  387MOL0     H51061   0.665   3.140   9.486  1.1116 -1.4187 -0.4485
  387MOL0     H51062   0.841   3.363   9.412  0.5347 -3.1601  2.1036
  387MOL0     H51063   0.704   3.315   9.306  2.2697 -1.3338 -1.8069
  387MOL0     H51064   0.635   3.502   9.442 -0.1621  0.1715  0.9002
  387MOL0     H51065   0.649   3.418   9.596  2.0006  2.7300 -0.2862
  387MOL0     H51066   1.507   2.953   9.715  1.5222 -0.9763 -1.0178
  387MOL0     H51067   1.750   2.951   9.799 -0.8644 -0.5633  3.7033
  387MOL0     H51068   2.096   3.143   9.980  2.1941  0.0169  1.9770
  387MOL0     H51069   2.343   3.135  10.023  4.8205 -0.1281 -2.6112
  387MOL0     H51070   4.299   2.915   9.709 -1.6577 -1.1729  1.1961
  387MOL0     H51071   4.540   2.969   9.674 -2.3098  0.7501 -1.7117
  387MOL0     H51072   4.965   3.065   9.876  0.3370  0.8107  0.8119
  387MOL0     H51073   5.197   3.113   9.804  0.5213  0.4372 -0.1223
  387MOL0     H51074   5.367   3.177   9.677 -0.8210 -0.2943 -0.7598
  387MOL0     H51075   5.381   3.282   9.822  1.5415  2.3870 -0.1049
  387MOL0     H51076   5.492   3.357   9.547  0.8105  0.7338 -0.1631
  387MOL0     H51077   5.510   3.452   9.697  0.8079 -1.8317  3.4672
  387MOL0     H51078   5.596   3.180   9.660 -1.7509 -0.5577  1.5428
  387MOL0     H51079   5.643   3.284   9.804  1.8956 -1.5847 -0.5849
  387MOL0     H51080   5.728   3.317   9.516 -1.1458  0.4358 -0.6548
  387MOL0     H51081   5.753   3.435   9.651 -0.3404 -1.1404  0.4686
  387MOL0     H51082   6.067   3.181   9.742  1.8093  2.4077 -1.9235
  387MOL0     H51083   5.029   3.462   9.581 -0.7457 -0.6562 -0.7443
  387MOL0     H51084   4.817   3.388   9.612  1.5854  2.8945  0.4005
  388MOL0     O51085   1.044  10.035   3.872 -0.4089 -0.0050  0.0123
  388MOL0     C51086   1.020  10.130   3.796 -1.5474  0.3203  0.2943
  388MOL0     O51087   0.900  10.181   3.764  0.9621  0.0327  0.1551
  388MOL0     C51088   0.784  10.131   3.819 -0.2782 -0.1362  0.5238
  388MOL0     C51089   0.762  10.008   3.887  0.5227  0.1349 -0.4101
  388MOL0     C51090   0.631   9.964   3.921  0.1440 -0.8744  0.1682
  388MOL0     C51091   0.515  10.044   3.895  0.2071  0.0414  0.2580
  388MOL0     O51092   0.389  10.010   3.938  0.3187  0.8746 -0.9389
  388MOL0     C51093   0.261  10.069   3.890  0.2939 -0.1407  0.0813
  388MOL0     C51094   0.146   9.990   3.943  0.1346 -0.1156 -0.6105
  388MOL0     C51095   0.011  10.054   3.941  0.6362 -0.1582  0.0399
  388MOL0     C51096  -0.109   9.958   3.927  0.4682  0.5080  0.3209
  388MOL0     C51097  -0.241  10.026   3.904  0.0545 -0.7801 -0.0019
  388MOL0     C51098  -0.357   9.939   3.929  0.5933 -0.6739  0.2330
  388MOL0     C51099  -0.400   9.904   4.074  0.4639  0.5050  0.7033
  388MOL0     C51100  -0.420  10.030   4.163 -0.6214  0.2392 -0.3555
  388MOL0     N51101  -0.534  10.117   4.124 -0.3682  0.4527  0.3125
  388MOL0     C51102  -0.663  10.118   4.179 -0.6804 -0.5242 -0.6863
  388MOL0     C51103  -0.726  10.222   4.121  0.4113  0.1629 -0.0803
  388MOL0     C51104  -0.865  10.263   4.151  0.2263 -0.0114 -0.5476
  388MOL0     C51105  -0.870  10.383   4.234  0.1250 -0.3139 -0.4586
  388MOL0     C51106  -1.023  10.414   4.254 -0.7333 -0.5054 -0.5138
  388MOL0     C51107  -1.122  10.299   4.273 -0.0066  0.1012  0.5005
  388MOL0     O51108  -1.251  10.348   4.281  0.1077 -0.2124  0.1898
  388MOL0     C51109  -1.370  10.281   4.260 -0.6673  0.0902 -0.2136
  388MOL0     C51110  -1.500  10.338   4.267 -0.2798  0.1129 -0.3217
  388MOL0     C51111  -1.615  10.261   4.264  0.4832 -0.0902  0.4331
  388MOL0     C51112  -1.596  10.120   4.258 -0.2134  0.1270 -0.4331
  388MOL0     C51113  -1.721  10.043   4.256  0.0249  0.0015 -0.7873
  388MOL0     O51114  -1.848  10.100   4.277 -0.4529 -1.4211  0.0490
  388MOL0     C51115  -1.966  10.043   4.246 -0.6774  0.1415 -0.3922
  388MOL0     C51116  -2.066  10.052   4.343  0.3494 -0.0271 -0.4314
  388MOL0     C51117  -2.193  10.007   4.307  0.7228  0.3572  0.3311
  388MOL0     C51118  -2.223   9.946   4.190 -0.5545  0.8671  0.2301
  388MOL0     O51119  -2.342   9.901   4.162  0.3131  0.6411  0.8504
  388MOL0     C51120  -2.405  10.009   4.084  0.4178  0.4158  0.2161
  388MOL0     C51121  -2.558  10.004   4.049 -0.9350  0.4165  0.1074
  388MOL0     C51122  -2.607   9.882   4.131 -0.2156 -0.5253 -0.0306
  388MOL0     C51123  -2.752   9.847   4.109 -0.2428 -0.3873  0.5407
  388MOL0     C51124  -2.846   9.945   4.149  0.6805 -0.2050 -0.1932
  388MOL0     C51125  -2.986   9.901   4.132 -0.0995  0.2586  0.1049
  388MOL0     C51126  -3.087   9.979   4.222 -0.8848  0.3456 -0.7202
  388MOL0     C51127  -3.226   9.915   4.212  0.2074 -0.4564  0.8560
  388MOL0    Cl51128  -3.274   9.914   4.043  0.0202  0.0764  0.4761
  388MOL0     C51129  -2.121   9.933   4.099  0.1897 -1.0708  0.7480
  388MOL0     C51130  -1.993   9.991   4.121  1.0082 -0.5406  0.5183
  388MOL0     O51131  -1.709   9.923   4.223 -0.1577  0.1514 -0.1035
  388MOL0     C51132  -1.469  10.064   4.241  0.6086  0.7676 -0.7180
  388MOL0     C51133  -1.356  10.139   4.246  0.3962  0.0423  1.0829
  388MOL0     N51134  -0.638  10.275   4.022  0.7368 -0.4486  0.6326
  388MOL0     N51135  -0.524  10.211   4.023  0.7776 -0.2190  0.2455
  388MOL0     C51136   0.539  10.172   3.834  0.3726 -0.9712 -0.0165
  388MOL0     C51137   0.672  10.207   3.801 -0.7391  0.1934 -1.0168
  388MOL0     C51138   1.135  10.201   3.743  0.1106 -0.3012 -0.4454
  388MOL0     C51139   1.258  10.200   3.805  0.2864  0.7038 -0.6085
  388MOL0     C51140   1.366  10.276   3.751 -0.4290 -0.4417  0.8035
  388MOL0     C51141   1.346  10.356   3.635 -0.2188 -0.0816  1.4899
  388MOL0     O51142   1.446  10.428   3.570  0.5026  1.3860  0.5553
  388MOL0     C51143   1.572  10.459   3.644 -0.1650 -0.6053 -0.6345
  388MOL0     C51144   1.669  10.535   3.564  0.4432  0.1659  0.4453
  388MOL0     C51145   1.807  10.542   3.642  0.3319 -0.5034 -0.1799
  388MOL0     C51146   1.918  10.634   3.594 -1.4087 -0.1916  0.2514
  388MOL0     C51147   2.050  10.613   3.657  0.3091  0.3585 -0.0790
  388MOL0     C51148   2.155  10.625   3.713 -0.1821  0.8881  0.0456
  388MOL0     C51149   1.220  10.363   3.582  0.8734 -0.2460 -0.0810
  388MOL0     C51150   1.114  10.277   3.629 -0.8923 -0.1216 -0.2715
  388MOL0     H51151   0.839   9.933   3.905  0.1991  0.4719  3.0809
  388MOL0     H51152   0.634   9.868   3.971  3.0428  0.9675  4.0409
  388MOL0     H51153   0.258  10.054   3.782  0.6783  1.7643 -0.2392
  388MOL0     H51154   0.259  10.176   3.917 -2.0709 -0.0183 -0.3935
  388MOL0     H51155   0.167   9.978   4.049  0.1908  0.1306 -0.5924
  388MOL0     H51156   0.145   9.888   3.903  0.9413 -0.4905  0.2744
  388MOL0     H51157   0.001  10.127   3.860 -2.0780  1.3846  1.5675
  388MOL0     H51158  -0.017  10.105   4.035 -3.3982 -0.3332 -0.8652
  388MOL0     H51159  -0.083   9.889   3.847 -2.1505  1.1926 -1.2461
  388MOL0     H51160  -0.122   9.900   4.019 -2.5373 -2.5054 -1.7973
  388MOL0     H51161  -0.232  10.058   3.800  1.7502 -0.9726  0.0538
  388MOL0     H51162  -0.255  10.119   3.960 -0.7830 -0.2463 -1.0658
  388MOL0     H51163  -0.355   9.849   3.868 -3.4168 -2.7553  2.7391
  388MOL0     H51164  -0.446   9.986   3.885 -1.0844 -1.9898  2.0543
  388MOL0     H51165  -0.496   9.851   4.066  1.7087 -1.5859 -2.1206
  388MOL0     H51166  -0.328   9.833   4.116  0.0426  0.5406  1.4932
  388MOL0     H51167  -0.326  10.085   4.158 -1.4113  1.5950 -0.5735
  388MOL0     H51168  -0.431   9.992   4.265  1.3783  1.8835  0.5258
  388MOL0     H51169  -0.700  10.060   4.263  1.3998 -1.8305 -0.6030
  388MOL0     H51170  -0.916  10.178   4.197  0.1250  0.2882 -0.1051
  388MOL0     H51171  -0.922  10.294   4.062 -2.1825 -0.2948  0.7966
  388MOL0     H51172  -0.822  10.468   4.185 -0.0546  0.5231  0.7683
  388MOL0     H51173  -0.823  10.361   4.330  2.1488 -1.3484 -1.6338
  388MOL0     H51174  -1.029  10.478   4.343 -2.5586  0.2157 -1.0973
  388MOL0     H51175  -1.057  10.490   4.182  0.5111  2.3738  1.7315
  388MOL0     H51176  -1.099  10.250   4.368  1.7351  0.5526  0.3398
  388MOL0     H51177  -1.116  10.229   4.190 -1.1139  0.3307  0.2008
  388MOL0     H51178  -1.490  10.437   4.311  0.8156 -0.0082 -0.2500
  388MOL0     H51179  -1.716  10.302   4.261 -0.4056 -2.0434 -3.2927
  388MOL0     H51180  -2.050  10.091   4.443 -1.5172  0.7979 -0.4213
  388MOL0     H51181  -2.277  10.009   4.376  1.5126 -0.4616  1.3493
  388MOL0     H51182  -2.341  10.031   3.998  1.4860  2.4492  1.4446
  388MOL0     H51183  -2.392  10.097   4.148  3.9303  0.4295 -0.2972
  388MOL0     H51184  -2.568   9.980   3.942  0.4421  1.7976 -0.3641
  388MOL0     H51185  -2.616  10.092   4.078 -0.0801  0.1826  2.7676
  388MOL0     H51186  -2.590   9.905   4.237 -1.0938  0.9356 -0.1887
  388MOL0     H51187  -2.556   9.795   4.090 -0.6383 -0.8142  0.0482
  388MOL0     H51188  -2.759   9.829   4.001 -0.2167 -0.9197  0.6250
  388MOL0     H51189  -2.776   9.748   4.150  0.7434  0.0332  2.2172
  388MOL0     H51190  -2.827  10.033   4.087 -3.4236  1.5529  0.7037
  388MOL0     H51191  -2.831   9.966   4.255 -0.3005 -3.2141  0.6474
  388MOL0     H51192  -2.998   9.796   4.160 -0.2082  0.0442 -0.7199
  388MOL0     H51193  -3.007   9.921   4.026 -2.4054 -0.7547  0.3194
  388MOL0     H51194  -3.073   9.958   4.329 -0.3008  0.0540 -0.8485
  388MOL0     H51195  -3.071  10.085   4.199 -2.4037  0.8838  0.4846
  388MOL0     H51196  -3.286   9.990   4.263  0.7871  0.1980  0.5974
  388MOL0     H51197  -3.236   9.813   4.248  2.3702  0.0757  3.2317
  388MOL0     H51198  -2.130   9.867   4.013 -1.2492 -0.2670  0.2542
  388MOL0     H51199  -1.917   9.996   4.044  0.5917  1.8915  0.2062
  388MOL0     H51200  -1.457   9.956   4.250 -1.1027  0.6514  0.6133
  388MOL0     H51201  -1.267  10.079   4.261 -0.3813 -1.2002  0.8631
  388MOL0     H51202   0.458  10.244   3.829  1.3945  0.1820 -0.3448
  388MOL0     H51203   0.674  10.304   3.752 -1.9715  1.3858  1.1604
  388MOL0     H51204   1.271  10.146   3.898 -4.0909 -1.9191 -1.2061
  388MOL0     H51205   1.464  10.251   3.790  0.7271 -2.0216 -2.6858
  388MOL0     H51206   1.627  10.372   3.681  1.0256  0.1074 -0.6655
  388MOL0     H51207   1.546  10.526   3.727  1.9437  1.1348 -1.3021
  388MOL0     H51208   1.663  10.480   3.470 -3.1002 -0.5402  0.9244
  388MOL0     H51209   1.639  10.637   3.538  0.7493 -0.0212 -0.6971
  388MOL0     H51210   1.857  10.445   3.650 -2.3158 -1.7844  3.1486
  388MOL0     H51211   1.788  10.575   3.744 -0.8955  2.1478 -1.1746
  388MOL0     H51212   1.940  10.609   3.490  1.4853  3.8873 -0.3573
  388MOL0     H51213   1.886  10.738   3.597 -0.2000  0.5209 -4.4766
  388MOL0     H51214   2.246  10.628   3.769 -0.4620  1.6995  0.4615
  388MOL0     H51215   1.199  10.431   3.500 -0.8334 -0.0761  0.4474
  388MOL0     H51216   1.013  10.282   3.589 -1.2365  1.1664  0.7013
  389MOL0     O51217   2.786   7.410   6.522  0.2399 -0.2569  0.5833
  389MOL0     C51218   2.844   7.408   6.629  0.4815  0.5539  0.3378
  389MOL0     O51219   2.785   7.421   6.745 -0.1049  0.0027  0.0559
  389MOL0     C51220   2.646   7.424   6.757 -0.4626 -0.1938  1.1086
  389MOL0     C51221   2.563   7.533   6.723 -0.4851 -0.2856  0.6339
  389MOL0     C51222   2.429   7.521   6.745 -0.8072  0.2232  0.3412
  389MOL0     C51223   2.373   7.405   6.801 -0.7483 -1.0564 -0.5861
  389MOL0     O51224   2.243   7.387   6.829 -0.0650 -0.1723 -0.4931
  389MOL0     C51225   2.157   7.499   6.799 -0.4254 -0.4718 -0.1439
  389MOL0     C51226   2.014   7.467   6.837 -0.2107  0.2824 -0.0219
  389MOL0     C51227   1.916   7.526   6.728  0.6722 -1.3935  0.4886
  389MOL0     C51228   1.781   7.452   6.756  0.6460 -0.1609  1.0182
  389MOL0     C51229   1.667   7.520   6.684  0.0016  1.0494  0.3086
  389MOL0     C51230   1.539   7.448   6.713 -0.6083 -0.4591  0.5852
  389MOL0     C51231   1.429   7.475   6.613 -0.0456 -0.1066  1.8961
  389MOL0     C51232   1.356   7.625   6.625 -0.6891  0.0311 -0.8665
  389MOL0     N51233   1.262   7.650   6.515  0.1909 -0.1163 -0.7029
  389MOL0     C51234   1.129   7.644   6.527 -0.4766  0.3112 -0.0317
  389MOL0     C51235   1.086   7.672   6.400 -0.1104 -0.2833 -1.7584
  389MOL0     C51236   0.933   7.689   6.359  0.0559 -0.2896 -0.3710
  389MOL0     C51237   0.839   7.744   6.483  0.0576  0.2190  0.6845
  389MOL0     C51238   0.713   7.810   6.447 -0.1210 -1.3400  0.0076
  389MOL0     C51239   0.616   7.715   6.379  0.5142 -0.3934 -0.2467
  389MOL0     O51240   0.481   7.768   6.394 -0.7096 -0.0015 -0.0836
  389MOL0     C51241   0.381   7.695   6.338  0.3214 -0.6256 -0.3875
  389MOL0     C51242   0.295   7.762   6.248  0.2840  0.0147 -0.7458
  389MOL0     C51243   0.195   7.701   6.163 -0.7241  0.1011 -0.0883
  389MOL0     C51244   0.180   7.565   6.180  0.0668 -0.0429  0.1653
  389MOL0     C51245   0.080   7.493   6.093 -0.0660 -0.0304 -0.0285
  389MOL0     O51246  -0.029   7.556   6.035 -0.3921 -0.6339  0.1901
  389MOL0     C51247  -0.084   7.494   5.928  0.2770 -0.3736 -0.1116
  389MOL0     C51248  -0.017   7.490   5.812 -0.5603  0.1784  0.5721
  389MOL0     C51249  -0.076   7.443   5.696  0.0377  0.6475 -0.6574
  389MOL0     C51250  -0.211   7.388   5.710  0.9627 -1.3330  0.5818
  389MOL0     O51251  -0.272   7.341   5.598  0.6145  0.2249  0.5974
  389MOL0     C51252  -0.297   7.204   5.571  0.0702  0.6796 -0.2592
  389MOL0     C51253  -0.158   7.145   5.530  0.3427 -0.3920 -0.1677
  389MOL0     C51254  -0.170   7.005   5.468 -0.0159  1.5269  0.5393
  389MOL0     C51255  -0.152   6.893   5.570 -0.3412  0.1594  0.4019
  389MOL0     C51256  -0.142   6.750   5.537  0.4843 -0.6330  1.2178
  389MOL0     C51257  -0.027   6.710   5.442  0.4467  0.7367 -0.0071
  389MOL0     C51258  -0.079   6.659   5.312 -0.1665  0.3226 -0.2127
  389MOL0     C51259   0.015   6.587   5.220 -0.4526  0.8496  0.0170
  389MOL0    Cl51260   0.175   6.680   5.186 -0.3250  0.2842 -0.0852
  389MOL0     C51261  -0.285   7.387   5.830  0.2291  0.9558 -0.1808
  389MOL0     C51262  -0.218   7.447   5.935 -0.0522 -0.2600 -0.9774
  389MOL0     O51263   0.112   7.370   6.076  0.4481 -0.1250 -0.0229
  389MOL0     C51264   0.276   7.492   6.255  0.6678  0.3310  0.0159
  389MOL0     C51265   0.372   7.558   6.334  1.5410  0.0198 -0.3731
  389MOL0     N51266   1.192   7.700   6.319 -0.5975 -0.1204 -0.0978
  389MOL0     N51267   1.295   7.681   6.390 -0.3990 -0.1697  0.7122
  389MOL0     C51268   2.453   7.305   6.843  0.3051 -0.3280  0.4281
  389MOL0     C51269   2.580   7.306   6.809 -1.0641  0.4469  0.2862
  389MOL0     C51270   2.991   7.366   6.624  0.3964 -0.0504  0.5547
  389MOL0     C51271   3.065   7.347   6.508 -0.6552  0.2222  0.2200
  389MOL0     C51272   3.204   7.329   6.513 -0.2321  0.0991  0.0281
  389MOL0     C51273   3.267   7.336   6.640  0.4871  0.3626  0.1313
  389MOL0     O51274   3.403   7.319   6.656 -0.4460 -0.5223 -0.3288
  389MOL0     C51275   3.485   7.290   6.541  0.1474  0.1347 -0.5078
  389MOL0     C51276   3.625   7.262   6.591  0.1661  0.3770 -0.0847
  389MOL0     C51277   3.713   7.211   6.490 -0.1415  0.1791  0.6734
  389MOL0     C51278   3.851   7.265   6.514  0.2813 -0.2568  0.5551
  389MOL0     C51279   3.943   7.203   6.422 -0.2125  0.3145 -0.0985
  389MOL0     C51280   4.028   7.147   6.357 -0.4340  0.8954 -0.4970
  389MOL0     C51281   3.193   7.353   6.754  0.8432 -0.8946 -0.5690
  389MOL0     C51282   3.055   7.354   6.743 -1.1214 -0.8108 -0.9408
  389MOL0     H51283   2.613   7.624   6.691 -1.2727 -0.5030 -1.3949
  389MOL0     H51284   2.372   7.612   6.733  1.5079  1.8232  0.8064
  389MOL0     H51285   2.167   7.525   6.693 -1.0627 -0.6612 -0.2567
  389MOL0     H51286   2.194   7.581   6.861 -0.1240  1.5600 -2.8421
  389MOL0     H51287   1.986   7.507   6.935 -0.3721 -0.9323  0.4442
  389MOL0     H51288   1.998   7.359   6.830  0.4177  0.2452 -1.2699
  389MOL0     H51289   1.965   7.505   6.632 -2.2452  2.9763 -2.3395
  389MOL0     H51290   1.906   7.634   6.733  0.8148 -1.3267 -0.4612
  389MOL0     H51291   1.783   7.347   6.725 -1.5173  0.7475 -2.7905
  389MOL0     H51292   1.755   7.445   6.862 -0.4772 -0.7582  0.7252
  389MOL0     H51293   1.693   7.513   6.578 -0.6805  0.2269  0.1866
  389MOL0     H51294   1.658   7.626   6.710 -0.0347  0.8645  1.0711
  389MOL0     H51295   1.510   7.478   6.814  0.8338  2.6174  0.2120
  389MOL0     H51296   1.550   7.340   6.725 -0.1471 -0.6662 -1.4023
  389MOL0     H51297   1.468   7.462   6.512 -2.2321  0.4350  0.9142
  389MOL0     H51298   1.345   7.405   6.615 -0.0622 -0.1967 -0.3873
  389MOL0     H51299   1.431   7.705   6.624 -0.5565 -0.0456  0.5745
  389MOL0     H51300   1.302   7.641   6.718 -1.3941 -1.7790 -0.9259
  389MOL0     H51301   1.065   7.616   6.610  1.8051  0.9295  2.0824
  389MOL0     H51302   0.885   7.600   6.318 -1.4013 -0.1075  0.8237
  389MOL0     H51303   0.926   7.766   6.281  1.2100  3.4010  2.8129
  389MOL0     H51304   0.902   7.824   6.523  1.8781  0.6665 -2.7115
  389MOL0     H51305   0.828   7.664   6.557  3.3187 -0.9527  0.0784
  389MOL0     H51306   0.664   7.839   6.541  1.3797 -2.6884  1.2598
  389MOL0     H51307   0.725   7.905   6.393  0.3222  0.4368  2.9673
  389MOL0     H51308   0.622   7.614   6.420  2.2069  0.5910  2.1631
  389MOL0     H51309   0.633   7.707   6.271 -2.6044 -2.5927 -0.7157
  389MOL0     H51310   0.297   7.870   6.244 -1.0069  0.1801  1.6268
  389MOL0     H51311   0.115   7.755   6.113 -2.2961 -2.3548 -0.3848
  389MOL0     H51312   0.086   7.522   5.803 -0.3177 -0.9386 -1.4169
  389MOL0     H51313  -0.022   7.453   5.602  0.2284  0.4344 -0.5729
  389MOL0     H51314  -0.365   7.189   5.487  0.0517 -1.2261  0.0592
  389MOL0     H51315  -0.341   7.156   5.659  2.3516  0.6395  0.9239
  389MOL0     H51316  -0.091   7.140   5.616  0.3577 -4.3378 -0.2358
  389MOL0     H51317  -0.117   7.215   5.456 -1.8839 -2.0480 -3.2220
  389MOL0     H51318  -0.089   6.993   5.395 -0.3046 -2.8581  0.7045
  389MOL0     H51319  -0.263   6.991   5.412  0.0312 -2.7144  1.2023
  389MOL0     H51320  -0.058   6.908   5.623  1.3141 -2.7652 -1.4360
  389MOL0     H51321  -0.232   6.907   5.643 -1.2778 -1.4059 -0.2648
  389MOL0     H51322  -0.236   6.725   5.486  1.7568 -0.0791 -1.6020
  389MOL0     H51323  -0.139   6.698   5.633 -0.9835 -1.4679  0.8585
  389MOL0     H51324   0.045   6.644   5.492  5.3240  3.8192 -2.1225
  389MOL0     H51325   0.042   6.794   5.430 -1.2476  2.4544  1.6241
  389MOL0     H51326  -0.158   6.589   5.340  1.8567 -1.4513  1.3606
  389MOL0     H51327  -0.120   6.742   5.254  0.7886  0.4727 -0.6970
  389MOL0     H51328  -0.037   6.569   5.125 -0.8649  0.0883  0.3769
  389MOL0     H51329   0.054   6.491   5.254 -0.5957  0.4074 -1.0065
  389MOL0     H51330  -0.391   7.365   5.826  0.2265  1.0333 -4.2619
  389MOL0     H51331  -0.267   7.445   6.031 -0.0813  1.2303 -0.9311
  389MOL0     H51332   0.275   7.383   6.259 -1.3981  0.0804 -3.5426
  389MOL0     H51333   0.446   7.499   6.387  0.5201 -1.5911 -0.6957
  389MOL0     H51334   2.396   7.219   6.879 -3.1267  1.5523 -0.0958
  389MOL0     H51335   2.631   7.212   6.824 -1.1306  0.0334 -1.8383
  389MOL0     H51336   3.020   7.376   6.414  1.0739 -0.4035 -0.8483
  389MOL0     H51337   3.277   7.326   6.432  2.6373  1.3467  2.3677
  389MOL0     H51338   3.491   7.365   6.461  0.3599  1.4983  0.7348
  389MOL0     H51339   3.446   7.201   6.492 -0.3303 -0.2746  0.5902
  389MOL0     H51340   3.665   7.355   6.632 -0.2696 -0.0540  1.3984
  389MOL0     H51341   3.625   7.184   6.667  0.6580  0.6935  0.2501
  389MOL0     H51342   3.676   7.241   6.391  1.3751 -1.2334 -0.3579
  389MOL0     H51343   3.715   7.102   6.484 -0.9797  0.1483  0.8287
  389MOL0     H51344   3.835   7.372   6.497  1.9262  0.0901  1.1117
  389MOL0     H51345   3.884   7.262   6.618  1.0022  1.4465  0.4127
  389MOL0     H51346   4.089   7.090   6.290 -3.1573  2.0536 -4.3427
  389MOL0     H51347   3.245   7.344   6.849  0.9749 -2.4377 -0.7628
  389MOL0     H51348   3.005   7.344   6.839  2.3949  2.2877  1.5288
  390MOL0     O51349   7.350   8.370   6.520  0.0897 -0.5287  0.4130
  390MOL0     C51350   7.356   8.490   6.537 -0.1353  0.6733  0.1858
  390MOL0     O51351   7.247   8.572   6.539 -0.7940 -0.0546 -0.6423
  390MOL0     C51352   7.127   8.539   6.594  0.8795  0.1178  0.3906
  390MOL0     C51353   7.103   8.407   6.653 -0.8491 -0.3434  0.3238
  390MOL0     C51354   6.988   8.383   6.707 -0.1238  0.3215 -0.6785
  390MOL0     C51355   6.876   8.464   6.697  0.0169 -0.0838  0.7182
  390MOL0     O51356   6.759   8.416   6.735  0.5424  0.0261 -0.4281
  390MOL0     C51357   6.638   8.490   6.718  0.1210  1.2334 -0.0758
  390MOL0     C51358   6.529   8.394   6.677 -0.5613 -1.2211 -1.1152
  390MOL0     C51359   6.563   8.289   6.577 -0.7503  0.7704  1.0370
  390MOL0     C51360   6.432   8.209   6.542  0.0854 -0.5784 -0.6162
  390MOL0     C51361   6.459   8.077   6.471 -0.3616 -0.2039 -0.5293
  390MOL0     C51362   6.338   8.005   6.415 -0.6171 -0.1960  1.0779
  390MOL0     C51363   6.371   7.904   6.305 -0.3816 -0.1621 -0.7907
  390MOL0     C51364   6.263   7.803   6.286 -1.0239  0.9080 -0.3140
  390MOL0     N51365   6.141   7.863   6.232  0.2301 -0.2024 -0.0358
  390MOL0     C51366   6.040   7.925   6.304 -0.1772  0.3943 -0.5156
  390MOL0     C51367   5.928   7.908   6.231 -0.8551  0.2071  0.1404
  390MOL0     C51368   5.794   7.978   6.271  0.3389 -0.5356 -0.3433
  390MOL0     C51369   5.704   7.917   6.384 -0.3159 -0.6624  0.2304
  390MOL0     C51370   5.609   8.029   6.429  0.6144  0.8235  0.7453
  390MOL0     C51371   5.497   8.068   6.331 -0.1687 -0.3853 -0.4558
  390MOL0     O51372   5.388   7.976   6.332 -0.0338 -0.0052 -0.2236
  390MOL0     C51373   5.263   8.032   6.302 -0.5500 -0.5712  0.1476
  390MOL0     C51374   5.202   8.034   6.173  0.2549 -0.1493 -0.8459
  390MOL0     C51375   5.080   8.096   6.147  0.3350  1.0628 -0.7888
  390MOL0     C51376   5.006   8.137   6.260 -0.4749 -0.1151  0.4458
  390MOL0     C51377   4.870   8.184   6.232 -0.9920  1.1003 -0.7128
  390MOL0     O51378   4.839   8.207   6.111 -0.3976 -0.0627 -0.1856
  390MOL0     C51379   4.706   8.233   6.071 -0.2888 -0.5234 -0.6155
  390MOL0     C51380   4.626   8.331   6.126  0.7202 -0.2829 -0.5249
  390MOL0     C51381   4.495   8.343   6.070 -0.6022  0.2433 -0.7185
  390MOL0     C51382   4.459   8.261   5.969  0.0736  0.3591  1.2326
  390MOL0     O51383   4.335   8.271   5.907 -0.1659 -0.3408 -0.1749
  390MOL0     C51384   4.228   8.351   5.958  0.0828  0.1161  0.6961
  390MOL0     C51385   4.105   8.257   5.965 -0.0840 -0.6358 -0.3232
  390MOL0     C51386   4.143   8.127   6.048 -0.0797  0.9299  0.4557
  390MOL0     C51387   4.019   8.045   6.091  0.0097 -0.5549  0.3366
  390MOL0     C51388   4.070   7.937   6.187 -0.9524  0.2005  0.6544
  390MOL0     C51389   3.954   7.847   6.205 -0.7862 -0.0116  0.3657
  390MOL0     C51390   3.996   7.738   6.302  0.8831  0.4223 -0.0619
  390MOL0     C51391   3.914   7.609   6.271 -0.3676 -0.0507  0.1824
  390MOL0    Cl51392   3.756   7.605   6.348  0.1221 -0.2302 -0.1220
  390MOL0     C51393   4.531   8.152   5.937  0.1103 -0.2605  0.1462
  390MOL0     C51394   4.658   8.139   5.989  0.0432 -0.4106 -0.4660
  390MOL0     O51395   4.797   8.196   6.333  0.0864 -0.2732  0.3399
  390MOL0     C51396   5.060   8.135   6.386  0.6081 -0.4169  0.3128
  390MOL0     C51397   5.192   8.092   6.407  0.9524 -0.2059 -0.7690
  390MOL0     N51398   5.961   7.854   6.113 -0.3277 -0.1338  0.8091
  390MOL0     N51399   6.090   7.823   6.113  0.5422  0.2137 -0.4806
  390MOL0     C51400   6.894   8.589   6.635  0.2973  0.9114 -0.4669
  390MOL0     C51401   7.020   8.627   6.579 -0.2315  0.4001  0.6568
  390MOL0     C51402   7.492   8.544   6.530  0.9343 -0.2209  0.1030
  390MOL0     C51403   7.496   8.691   6.537  0.8085  0.6025  0.2529
  390MOL0     C51404   7.620   8.752   6.531 -0.3500  0.7128 -0.2724
  390MOL0     C51405   7.740   8.675   6.535 -0.8160 -0.1197  1.0952
  390MOL0     O51406   7.858   8.744   6.546 -0.1280  0.1555  0.2994
  390MOL0     C51407   7.923   8.755   6.421 -0.5296 -0.6900 -0.1603
  390MOL0     C51408   8.047   8.831   6.464 -0.8379  0.9759  0.6680
  390MOL0     C51409   8.123   8.868   6.336  0.4366  0.6402  0.4250
  390MOL0     C51410   8.093   9.018   6.296  0.5210  0.6370 -0.2566
  390MOL0     C51411   8.178   9.063   6.198  0.6358  0.2025  0.1894
  390MOL0     C51412   8.234   9.115   6.104  0.0082  0.1286  0.3698
  390MOL0     C51413   7.736   8.538   6.538 -0.1480 -0.8132 -0.3497
  390MOL0     C51414   7.614   8.472   6.532  0.2979 -0.3004 -0.0642
  390MOL0     H51415   7.183   8.334   6.659 -1.0489 -0.5082  1.1497
  390MOL0     H51416   6.971   8.283   6.745  0.8935  0.6630  0.7361
  390MOL0     H51417   6.646   8.572   6.646  1.0425  0.8504 -0.4299
  390MOL0     H51418   6.601   8.539   6.808 -3.0034 -2.0434  0.6958
  390MOL0     H51419   6.440   8.447   6.642  0.4141  2.3028  1.1113
  390MOL0     H51420   6.494   8.347   6.770 -2.4802 -2.7735 -2.5434
  390MOL0     H51421   6.645   8.228   6.618 -0.2907 -0.2171 -1.1775
  390MOL0     H51422   6.601   8.341   6.489 -1.0173  0.7509  0.9082
  390MOL0     H51423   6.371   8.198   6.632  2.2833 -2.7247  0.7509
  390MOL0     H51424   6.385   8.272   6.466 -1.8729 -1.1395  0.0901
  390MOL0     H51425   6.511   8.006   6.536  0.3806 -1.6941 -2.6340
  390MOL0     H51426   6.519   8.099   6.382 -1.2235  4.5336 -0.1951
  390MOL0     H51427   6.266   8.070   6.363  0.6483  0.4189  0.0458
  390MOL0     H51428   6.296   7.944   6.496  1.3247 -3.9187 -0.4867
  390MOL0     H51429   6.391   7.957   6.212 -1.2018 -2.3331 -2.2750
  390MOL0     H51430   6.466   7.854   6.329  0.2975  0.3381 -2.3296
  390MOL0     H51431   6.244   7.759   6.384 -5.4840 -2.3376 -2.2456
  390MOL0     H51432   6.288   7.727   6.212  0.7569 -0.8324  1.9361
  390MOL0     H51433   6.047   7.960   6.407 -0.2865 -0.5116 -0.1922
  390MOL0     H51434   5.738   7.986   6.177 -0.2347 -0.3143  0.0072
  390MOL0     H51435   5.822   8.080   6.299  0.9258 -0.2678 -1.8416
  390MOL0     H51436   5.765   7.892   6.470 -1.0508  2.7447  1.9369
  390MOL0     H51437   5.651   7.826   6.356 -2.0322  0.5463 -0.6886
  390MOL0     H51438   5.566   8.006   6.527 -1.5446 -0.1820 -0.3749
  390MOL0     H51439   5.669   8.117   6.452  3.8452 -0.3862 -2.2473
  390MOL0     H51440   5.540   8.076   6.231  3.0305  0.4575  0.8529
  390MOL0     H51441   5.474   8.168   6.369 -0.8255  0.5379 -3.0867
  390MOL0     H51442   5.260   7.990   6.093  0.0343 -2.8584  0.3595
  390MOL0     H51443   5.060   8.106   6.041  1.3283  1.8630 -0.9157
  390MOL0     H51444   4.659   8.380   6.218 -0.1340 -1.4516  0.4427
  390MOL0     H51445   4.431   8.423   6.107  1.9596  1.5118  1.2833
  390MOL0     H51446   4.203   8.434   5.892  0.1834  0.5718  1.2315
  390MOL0     H51447   4.246   8.391   6.058  0.4862  3.8853 -0.7285
  390MOL0     H51448   4.084   8.221   5.864 -1.1130 -0.6198 -0.1305
  390MOL0     H51449   4.022   8.318   6.003 -0.2136 -1.5925  0.9808
  390MOL0     H51450   4.191   8.150   6.143  1.4991 -3.2559  0.8818
  390MOL0     H51451   4.217   8.064   5.999  0.8634  1.3930  1.2477
  390MOL0     H51452   3.952   8.111   6.147 -1.8758 -1.4275 -0.7694
  390MOL0     H51453   3.955   8.007   6.011 -0.9105 -1.5994  1.5237
  390MOL0     H51454   4.098   7.983   6.282  2.5413  0.4390 -0.3488
  390MOL0     H51455   4.157   7.885   6.146 -0.7307  1.8636 -1.1368
  390MOL0     H51456   3.926   7.791   6.115  4.3133 -3.2780  0.4279
  390MOL0     H51457   3.866   7.889   6.254 -2.3360 -2.1192 -0.4742
  390MOL0     H51458   4.102   7.714   6.290  0.5855 -2.4446  2.0170
  390MOL0     H51459   3.966   7.763   6.404 -2.2234 -1.1866 -0.4573
  390MOL0     H51460   3.966   7.529   6.324 -1.8167 -0.6323  0.7696
  390MOL0     H51461   3.907   7.588   6.164 -1.1736  3.4331 -0.5759
  390MOL0     H51462   4.498   8.083   5.860 -0.0644 -0.1334  0.1063
  390MOL0     H51463   4.725   8.060   5.955  0.2425 -0.3802 -0.1504
  390MOL0     H51464   5.009   8.160   6.478 -0.7970 -2.3334  0.1229
  390MOL0     H51465   5.243   8.117   6.499  0.7048 -1.4909 -0.2637
  390MOL0     H51466   6.815   8.662   6.645 -1.2833 -0.8733  0.8820
  390MOL0     H51467   7.046   8.716   6.522  2.8901 -1.7177 -1.5539
  390MOL0     H51468   7.406   8.752   6.542  0.0986 -0.5243  2.7041
  390MOL0     H51469   7.628   8.860   6.546  1.1838  0.4227  1.2899
  390MOL0     H51470   7.869   8.826   6.358  0.6143  0.8191  0.4885
  390MOL0     H51471   7.946   8.662   6.368  2.6751  1.9282 -3.9247
  390MOL0     H51472   8.027   8.922   6.522  1.5574  1.5669  0.6696
  390MOL0     H51473   8.099   8.763   6.532  1.8187  1.3455 -0.8709
  390MOL0     H51474   8.082   8.813   6.251 -3.6473  0.4976  2.2622
  390MOL0     H51475   8.228   8.849   6.358  0.5761  1.0398  0.1244
  390MOL0     H51476   7.987   9.008   6.272  0.2412  0.3776  0.9920
  390MOL0     H51477   8.105   9.086   6.381  3.2759  0.4950 -0.4494
  390MOL0     H51478   8.287   9.157   6.021 -1.5316  2.1240  0.3363
  390MOL0     H51479   7.830   8.485   6.549 -0.0440 -0.6142 -0.2620
  390MOL0     H51480   7.621   8.364   6.519  1.0029 -0.0056 -2.7224
  391MOL0     O51481   3.384   3.695   1.471  0.7801 -0.3116  0.3555
  391MOL0     C51482   3.422   3.807   1.493  0.3309  1.0094  0.5241
  391MOL0     O51483   3.345   3.916   1.494  1.0254 -0.2250 -0.1964
  391MOL0     C51484   3.210   3.902   1.502  1.0779  0.2224  0.2954
  391MOL0     C51485   3.143   3.812   1.598  0.6302 -0.0685  0.2876
  391MOL0     C51486   3.003   3.805   1.597  0.5255  0.6269 -0.6974
  391MOL0     C51487   2.929   3.868   1.501  0.0262 -0.4107  1.2837
  391MOL0     O51488   2.784   3.855   1.496 -0.2946 -0.2299  0.2440
  391MOL0     C51489   2.726   3.733   1.545  0.0631 -0.1161  0.2667
  391MOL0     C51490   2.573   3.739   1.507 -0.0774 -0.7603 -0.6934
  391MOL0     C51491   2.516   3.598   1.496 -1.3662  0.6779 -0.3409
  391MOL0     C51492   2.504   3.524   1.633  0.3261  0.2564  0.3342
  391MOL0     C51493   2.392   3.420   1.649 -0.4857  0.2293  0.0144
  391MOL0     C51494   2.260   3.490   1.633  0.9211  1.3229  0.1524
  391MOL0     C51495   2.143   3.420   1.707 -0.3179 -0.0919 -0.7190
  391MOL0     C51496   2.014   3.489   1.675 -0.4507 -0.1613 -0.5172
  391MOL0     N51497   1.897   3.403   1.703 -0.2437 -0.4219 -0.9003
  391MOL0     C51498   1.866   3.286   1.638  0.7642  0.2831 -0.2539
  391MOL0     C51499   1.737   3.279   1.654  0.4786 -0.0696 -0.2115
  391MOL0     C51500   1.625   3.179   1.603 -0.3127  0.7668  0.6099
  391MOL0     C51501   1.608   3.218   1.451 -0.2990 -0.0762  0.2915
  391MOL0     C51502   1.541   3.357   1.447 -0.2035 -0.2060  1.2167
  391MOL0     C51503   1.490   3.407   1.311  0.3827  0.8667 -0.2072
  391MOL0     O51504   1.418   3.303   1.248 -0.4416 -0.0529  0.0821
  391MOL0     C51505   1.302   3.257   1.306 -0.0071 -0.1349  0.1989
  391MOL0     C51506   1.257   3.143   1.245 -0.0036 -0.5360  0.0332
  391MOL0     C51507   1.143   3.076   1.291  0.1456 -0.3767  0.1658
  391MOL0     C51508   1.074   3.120   1.408  0.4471  0.1940  0.1581
  391MOL0     C51509   0.962   3.057   1.455  0.7034  0.2492  0.2385
  391MOL0     O51510   0.896   3.115   1.556 -0.1804  0.2023  0.4349
  391MOL0     C51511   0.772   3.065   1.595 -0.4554 -0.3021  0.2998
  391MOL0     C51512   0.656   3.147   1.614  0.5288  0.1167  0.5040
  391MOL0     C51513   0.541   3.107   1.668 -0.3623  0.2126  0.9686
  391MOL0     C51514   0.514   2.971   1.688 -0.4717 -0.2154 -0.0328
  391MOL0     O51515   0.406   2.920   1.741 -0.2940  0.3356 -0.6843
  391MOL0     C51516   0.295   3.003   1.731 -0.0883  0.3162  0.3041
  391MOL0     C51517   0.175   2.939   1.801  1.6712 -0.8742 -0.2748
  391MOL0     C51518   0.225   2.890   1.936  0.9723  0.3596  0.2195
  391MOL0     C51519   0.115   2.846   2.040  0.1825 -0.2575 -0.5443
  391MOL0     C51520   0.003   2.947   2.091  0.7175  0.0860 -0.3085
  391MOL0     C51521  -0.025   2.912   2.236 -0.0592  0.3879 -0.6828
  391MOL0     C51522  -0.065   2.765   2.263 -0.8264 -1.1809 -0.1834
  391MOL0     C51523  -0.165   2.696   2.165  0.1180  0.0857  0.0509
  391MOL0    Cl51524  -0.310   2.799   2.142  0.0509  0.3192  0.1421
  391MOL0     C51525   0.618   2.883   1.657  0.0683 -0.3591  0.9272
  391MOL0     C51526   0.744   2.932   1.622 -0.5369  0.4015  0.1921
  391MOL0     O51527   0.924   2.953   1.398  0.5023 -0.2665 -0.8972
  391MOL0     C51528   1.123   3.240   1.466 -1.2249  0.3382  0.3657
  391MOL0     C51529   1.234   3.308   1.419 -0.5133 -0.5476  0.0031
  391MOL0     N51530   1.688   3.382   1.735 -0.9518 -0.0899 -0.1278
  391MOL0     N51531   1.795   3.449   1.770 -0.7045  0.2771 -0.1763
  391MOL0     C51532   2.993   3.952   1.411 -0.9854 -0.0739 -0.6250
  391MOL0     C51533   3.135   3.976   1.413  0.9146  0.3562  0.0904
  391MOL0     C51534   3.565   3.819   1.520  0.4539  0.2846 -0.0567
  391MOL0     C51535   3.624   3.950   1.520  0.2444 -0.0545 -0.1689
  391MOL0     C51536   3.762   3.968   1.526  0.7580 -0.2847 -0.2405
  391MOL0     C51537   3.841   3.848   1.559 -1.4263 -0.1874 -0.4736
  391MOL0     O51538   3.980   3.851   1.574  0.5392 -0.1488 -0.2447
  391MOL0     C51539   4.048   3.974   1.565 -0.2747  0.4490 -1.1336
  391MOL0     C51540   4.185   3.969   1.631 -0.3718 -0.2751  0.0644
  391MOL0     C51541   4.272   4.090   1.590 -0.3235  0.1965  0.1626
  391MOL0     C51542   4.398   4.104   1.675  0.6758  0.1571  0.0989
  391MOL0     C51543   4.482   3.985   1.697 -0.7816  0.4813 -1.4221
  391MOL0     C51544   4.546   3.884   1.718  0.5490  0.6009  0.5687
  391MOL0     C51545   3.786   3.728   1.570  0.2493  0.0333 -1.2144
  391MOL0     C51546   3.653   3.708   1.540  0.1451  0.4027  0.2793
  391MOL0     H51547   3.207   3.764   1.672 -1.1095 -0.2053  1.7860
  391MOL0     H51548   2.954   3.749   1.676  2.6629  0.3491  0.4969
  391MOL0     H51549   2.735   3.726   1.654  1.5905 -1.1774  0.1151
  391MOL0     H51550   2.770   3.645   1.497  1.1563  0.8681 -0.6185
  391MOL0     H51551   2.559   3.787   1.409  2.7258  1.3332 -0.2047
  391MOL0     H51552   2.510   3.789   1.581 -2.1779 -1.6834 -1.7866
  391MOL0     H51553   2.568   3.533   1.424 -0.1530 -2.0571  2.7829
  391MOL0     H51554   2.418   3.606   1.448 -1.0849 -0.6033 -1.1810
  391MOL0     H51555   2.598   3.480   1.667  0.7054  1.3960  0.7997
  391MOL0     H51556   2.486   3.599   1.711 -0.4585  0.1003  0.3120
  391MOL0     H51557   2.416   3.371   1.744  2.1045  0.6154 -0.3591
  391MOL0     H51558   2.412   3.349   1.567 -0.6681  1.8053 -1.4493
  391MOL0     H51559   2.249   3.500   1.525 -0.1923  0.1117  0.1307
  391MOL0     H51560   2.266   3.594   1.665 -2.6509  2.1875 -1.5081
  391MOL0     H51561   2.140   3.320   1.664 -1.4526 -0.5679  0.4251
  391MOL0     H51562   2.150   3.409   1.815 -1.1352 -2.0811 -0.8445
  391MOL0     H51563   2.003   3.522   1.571 -0.2529 -2.0490 -1.1690
  391MOL0     H51564   2.000   3.573   1.744 -3.5066 -3.1309  2.8467
  391MOL0     H51565   1.925   3.220   1.575 -0.0822 -0.3217 -0.4297
  391MOL0     H51566   1.538   3.203   1.664 -0.3468 -1.1880  1.4029
  391MOL0     H51567   1.646   3.071   1.597  0.1937  0.9302 -1.4413
  391MOL0     H51568   1.547   3.147   1.395  1.0298  1.0888 -2.8856
  391MOL0     H51569   1.709   3.228   1.409  0.9568 -1.5591  2.7623
  391MOL0     H51570   1.475   3.369   1.533  0.9440 -0.7134  2.1958
  391MOL0     H51571   1.621   3.429   1.466  1.0281 -1.0250 -0.5934
  391MOL0     H51572   1.574   3.437   1.248  1.0067  1.1682  0.7558
  391MOL0     H51573   1.429   3.497   1.320  1.0764  1.3549 -0.2694
  391MOL0     H51574   1.321   3.104   1.167 -1.4636 -0.1889 -1.3956
  391MOL0     H51575   1.111   2.977   1.260 -0.6789 -0.5581  1.4944
  391MOL0     H51576   0.665   3.255   1.603 -2.1208  0.1691 -3.8679
  391MOL0     H51577   0.478   3.194   1.684 -1.1558  0.2489 -1.9286
  391MOL0     H51578   0.279   3.030   1.626  1.3523  4.0691  0.9022
  391MOL0     H51579   0.324   3.100   1.771 -1.2580  0.7645  0.1152
  391MOL0     H51580   0.134   2.854   1.745 -0.7449 -0.7331  1.1872
  391MOL0     H51581   0.091   3.008   1.810  0.1617 -1.9904 -3.8715
  391MOL0     H51582   0.277   2.981   1.968  2.2473 -0.3006  0.0941
  391MOL0     H51583   0.302   2.812   1.929  2.6790  2.1393 -2.7403
  391MOL0     H51584   0.063   2.763   1.991  0.1712 -0.4593 -0.1918
  391MOL0     H51585   0.164   2.820   2.134 -0.6835  1.3509  0.3975
  391MOL0     H51586  -0.086   2.944   2.028 -0.8253  2.1014  1.6178
  391MOL0     H51587   0.035   3.049   2.070 -2.5746  1.0698 -1.1580
  391MOL0     H51588  -0.115   2.972   2.250 -1.1626 -1.1053 -1.0076
  391MOL0     H51589   0.056   2.947   2.300  0.0317 -0.3318 -0.3967
  391MOL0     H51590   0.027   2.706   2.275 -0.2349  0.0217  1.6114
  391MOL0     H51591  -0.120   2.759   2.357 -1.8543 -0.5277 -0.7294
  391MOL0     H51592  -0.190   2.599   2.209  2.4751  0.5176  2.5966
  391MOL0     H51593  -0.114   2.682   2.069  1.5422 -2.5809  1.0919
  391MOL0     H51594   0.600   2.777   1.672 -2.9247 -0.3281 -1.4581
  391MOL0     H51595   0.822   2.858   1.615  1.0606  1.9691  0.5805
  391MOL0     H51596   1.064   3.292   1.542  0.7418  2.0643  0.8066
  391MOL0     H51597   1.262   3.403   1.465  1.3377 -1.2460  0.4040
  391MOL0     H51598   2.932   4.013   1.345 -0.0373  0.5145 -0.9830
  391MOL0     H51599   3.173   4.037   1.333 -0.0483 -0.3526 -0.9360
  391MOL0     H51600   3.565   4.035   1.488 -1.3793 -1.4916 -1.1545
  391MOL0     H51601   3.799   4.067   1.502 -3.4077  2.1722  2.2014
  391MOL0     H51602   3.998   4.064   1.602  1.7674  1.0368  0.4152
  391MOL0     H51603   4.076   3.991   1.461 -2.9097  0.9873 -1.8254
  391MOL0     H51604   4.172   3.964   1.740  0.1011 -1.3023  0.0889
  391MOL0     H51605   4.234   3.876   1.602 -1.6833 -1.1728  0.5796
  391MOL0     H51606   4.224   4.186   1.613 -0.6908  0.3397 -1.0943
  391MOL0     H51607   4.297   4.081   1.483 -2.7003 -0.1649 -0.4055
  391MOL0     H51608   4.466   4.172   1.623  2.1445 -0.8003  0.6861
  391MOL0     H51609   4.369   4.143   1.773 -1.6917 -0.3537 -0.3408
  391MOL0     H51610   4.617   3.804   1.733 -0.1442 -0.2826 -0.6626
  391MOL0     H51611   3.837   3.638   1.606 -0.8372  0.5974  2.0902
  391MOL0     H51612   3.621   3.606   1.556 -1.0938  1.1680  3.4749
  392MOL0     O51613   6.001   4.515   1.513 -0.5795 -0.1169  0.8155
  392MOL0     C51614   5.930   4.480   1.609  0.2507  0.1991  0.7124
  392MOL0     O51615   5.977   4.467   1.730 -1.2737  0.9687  0.1873
  392MOL0     C51616   6.106   4.510   1.767 -1.2803 -0.0525  0.1881
  392MOL0     C51617   6.159   4.630   1.726  0.2003 -0.4910  0.1726
  392MOL0     C51618   6.299   4.652   1.734 -0.1673  0.1211 -0.1697
  392MOL0     C51619   6.392   4.557   1.783 -0.2325  0.4459  0.6375
  392MOL0     O51620   6.529   4.555   1.804  0.8256 -0.1626 -0.2258
  392MOL0     C51621   6.607   4.644   1.731  0.1462 -0.7236  0.4904
  392MOL0     C51622   6.756   4.595   1.735 -0.7104  0.0558  0.5479
  392MOL0     C51623   6.777   4.481   1.636 -0.9835 -0.9088  0.2099
  392MOL0     C51624   6.931   4.473   1.604 -0.4342  0.0876 -0.3357
  392MOL0     C51625   6.971   4.361   1.520 -0.1689 -1.2449 -0.5757
  392MOL0     C51626   7.124   4.341   1.522  0.2211  0.1392  0.0138
  392MOL0     C51627   7.146   4.201   1.465 -0.0228  0.8216  0.2471
  392MOL0     C51628   7.291   4.170   1.463  0.0647  0.2692  0.5705
  392MOL0     N51629   7.320   4.052   1.386 -0.2429 -0.1537 -0.4929
  392MOL0     C51630   7.447   4.005   1.359 -0.0754 -0.1850 -0.0380
  392MOL0     C51631   7.429   3.894   1.286 -0.7906 -0.2725 -0.8812
  392MOL0     C51632   7.529   3.796   1.237 -0.5496  0.1998  0.3990
  392MOL0     C51633   7.613   3.723   1.343 -0.0761  0.1906 -0.1559
  392MOL0     C51634   7.681   3.594   1.298 -0.4366 -0.0381  0.4279
  392MOL0     C51635   7.780   3.641   1.184 -0.3771 -0.4870  0.8112
  392MOL0     O51636   7.856   3.518   1.151 -0.7820 -0.7794 -0.0039
  392MOL0     C51637   7.972   3.525   1.069  0.3994  0.0552  0.8170
  392MOL0     C51638   8.012   3.648   1.012  0.1188  0.4080 -0.1053
  392MOL0     C51639   8.140   3.671   0.964 -0.0902 -0.0512  0.0147
  392MOL0     C51640   8.229   3.563   0.952 -0.4131  0.3301  0.2286
  392MOL0     C51641   8.360   3.577   0.892  0.0564 -1.1314  0.7582
  392MOL0     O51642   8.402   3.702   0.871 -0.0587  0.5150 -0.5394
  392MOL0     C51643   8.498   3.720   0.774  0.8082 -0.0129  0.7367
  392MOL0     C51644   8.633   3.715   0.812 -0.3565  0.4528  0.4322
  392MOL0     C51645   8.738   3.758   0.720  0.4418  0.3526  0.1474
  392MOL0     C51646   8.696   3.805   0.598  0.6290  0.0514  0.6505
  392MOL0     O51647   8.799   3.843   0.511  0.2309  0.4780 -0.1914
  392MOL0     C51648   8.793   3.978   0.463  0.1363 -0.8845  0.3950
  392MOL0     C51649   8.935   4.037   0.419  0.2565 -0.1784 -0.0153
  392MOL0     C51650   9.032   4.022   0.539  0.3308 -0.4521  0.6970
  392MOL0     C51651   9.168   4.092   0.513 -0.3044 -0.1296 -0.0573
  392MOL0     C51652   9.249   4.036   0.393  0.3825  0.1534  0.3396
  392MOL0     C51653   9.293   3.892   0.406 -0.4240  0.1750 -0.6162
  392MOL0     C51654   9.396   3.851   0.301  0.6948 -0.6827  0.0555
  392MOL0     C51655   9.440   3.702   0.304 -0.1915  0.0463  0.4957
  392MOL0    Cl51656   9.484   3.640   0.464  0.0108 -0.0620 -0.4483
  392MOL0     C51657   8.554   3.814   0.567  0.0540 -0.0125  0.2517
  392MOL0     C51658   8.457   3.764   0.652  0.4716  0.0732  0.1328
  392MOL0     O51659   8.412   3.479   0.845 -0.1785 -0.3954 -0.6326
  392MOL0     C51660   8.184   3.434   0.990 -0.1126  0.6486 -0.3633
  392MOL0     C51661   8.052   3.416   1.039 -0.6276 -0.8680 -0.1214
  392MOL0     N51662   7.298   3.891   1.248  0.1766  0.0447 -0.4302
  392MOL0     N51663   7.233   3.978   1.307  0.1037 -0.9228 -0.1826
  392MOL0     C51664   6.334   4.435   1.829  0.2240  0.5400  0.3960
  392MOL0     C51665   6.197   4.422   1.822 -0.3081 -0.0326 -0.0434
  392MOL0     C51666   5.781   4.439   1.579 -0.4405 -0.3007 -0.4434
  392MOL0     C51667   5.696   4.383   1.684  0.2911 -0.8831  0.2689
  392MOL0     C51668   5.561   4.351   1.650 -0.1575 -0.3375  0.9909
  392MOL0     C51669   5.506   4.365   1.518 -0.5962  0.1424  0.1614
  392MOL0     O51670   5.382   4.321   1.498 -0.0867  0.9532  0.2714
  392MOL0     C51671   5.319   4.354   1.373  0.1595  0.4969  0.6091
  392MOL0     C51672   5.166   4.346   1.375  0.4001 -0.2092  0.1609
  392MOL0     C51673   5.114   4.207   1.403 -0.8419  0.2443  0.0920
  392MOL0     C51674   4.965   4.218   1.413  0.7355  0.2844  0.0528
  392MOL0     C51675   4.912   4.102   1.482  0.2044  0.0051 -0.4501
  392MOL0     C51676   4.881   4.001   1.535 -0.0346  0.4189  0.4021
  392MOL0     C51677   5.599   4.419   1.418  0.3581 -0.2526 -0.5181
  392MOL0     C51678   5.735   4.452   1.453  0.3962  0.7660  0.6021
  392MOL0     H51679   6.090   4.695   1.674 -1.2524 -2.7432 -0.8728
  392MOL0     H51680   6.340   4.744   1.694 -2.1550  0.9297 -0.4824
  392MOL0     H51681   6.600   4.745   1.772 -0.8233  0.2312 -1.8456
  392MOL0     H51682   6.576   4.648   1.627  0.4041 -1.3965  0.3836
  392MOL0     H51683   6.791   4.554   1.830  0.6021 -1.5600 -0.5983
  392MOL0     H51684   6.815   4.684   1.712 -1.2789  0.4567  0.6297
  392MOL0     H51685   6.724   4.499   1.542 -2.2925 -0.5317  1.0084
  392MOL0     H51686   6.743   4.387   1.679  1.5863 -1.2430  1.7311
  392MOL0     H51687   6.958   4.569   1.557  1.3420  0.0035  0.4387
  392MOL0     H51688   6.986   4.465   1.698  0.6719 -2.4906 -1.1213
  392MOL0     H51689   6.933   4.363   1.417 -0.0884 -1.1192 -0.6034
  392MOL0     H51690   6.916   4.277   1.563 -1.0615  0.1628  1.1780
  392MOL0     H51691   7.181   4.350   1.615 -1.4554  1.4162  0.9853
  392MOL0     H51692   7.164   4.424   1.462 -1.7950  1.5576  0.5229
  392MOL0     H51693   7.098   4.120   1.521  1.0010  1.7800  2.6588
  392MOL0     H51694   7.104   4.202   1.364  1.2246 -1.4119 -0.3637
  392MOL0     H51695   7.337   4.147   1.559  2.0152 -4.8674 -1.2128
  392MOL0     H51696   7.332   4.259   1.415 -0.9606 -0.1792 -1.2425
  392MOL0     H51697   7.540   4.039   1.403  0.1392  1.5678 -1.6698
  392MOL0     H51698   7.603   3.847   1.174  0.7865 -0.2249  1.5570
  392MOL0     H51699   7.477   3.722   1.175  2.9066 -1.1360 -1.1473
  392MOL0     H51700   7.549   3.708   1.431  3.1675  0.7882  2.5240
  392MOL0     H51701   7.689   3.794   1.377 -0.2777 -0.5729  2.0965
  392MOL0     H51702   7.730   3.544   1.383 -2.6449 -2.7813  0.2417
  392MOL0     H51703   7.613   3.518   1.258  1.2257 -1.2175 -0.3031
  392MOL0     H51704   7.854   3.713   1.221 -0.2334 -0.1294 -0.1565
  392MOL0     H51705   7.730   3.689   1.099  1.3487 -2.7900 -1.6460
  392MOL0     H51706   7.939   3.728   1.003  0.9035  1.2881  1.0354
  392MOL0     H51707   8.162   3.767   0.919 -1.3695 -0.6777 -2.0863
  392MOL0     H51708   8.652   3.682   0.914 -2.8276 -0.7044  0.5754
  392MOL0     H51709   8.842   3.752   0.751 -0.3526  2.9005  3.9734
  392MOL0     H51710   8.735   4.045   0.528 -0.7839  1.6385 -2.7716
  392MOL0     H51711   8.731   3.971   0.373 -2.2322 -2.0817  2.0101
  392MOL0     H51712   8.923   4.144   0.399 -0.6959 -0.6196 -2.0684
  392MOL0     H51713   8.959   3.974   0.333  0.1370  0.4930 -0.5575
  392MOL0     H51714   9.053   3.921   0.575 -0.7249  0.0226  2.8823
  392MOL0     H51715   8.990   4.067   0.630 -2.5763  1.3932 -1.3845
  392MOL0     H51716   9.143   4.195   0.485 -0.3209 -0.8684 -3.1611
  392MOL0     H51717   9.235   4.097   0.600  0.0289  0.8775 -0.3661
  392MOL0     H51718   9.340   4.095   0.378  1.2268 -0.8530  1.3415
  392MOL0     H51719   9.190   4.044   0.301 -0.9148 -3.2014  0.7243
  392MOL0     H51720   9.212   3.819   0.396  0.1052 -0.3349 -1.2647
  392MOL0     H51721   9.321   3.865   0.508 -1.0141 -3.6115 -1.3123
  392MOL0     H51722   9.361   3.886   0.204  2.5667 -1.9112 -1.1254
  392MOL0     H51723   9.490   3.903   0.325  1.5758 -1.4660 -1.5438
  392MOL0     H51724   9.525   3.692   0.236 -2.4090  0.1172 -2.5249
  392MOL0     H51725   9.349   3.645   0.278 -0.9260  0.5779  1.8296
  392MOL0     H51726   8.537   3.850   0.466  5.7275 -1.1231 -1.4793
  392MOL0     H51727   8.354   3.787   0.626  0.5741  1.0039  0.5097
  392MOL0     H51728   8.252   3.351   0.977  1.4125  1.6612  0.8146
  392MOL0     H51729   8.031   3.316   1.075 -0.5426 -0.3132  1.6019
  392MOL0     H51730   6.405   4.361   1.864 -0.2517 -0.2183 -0.2291
  392MOL0     H51731   6.168   4.326   1.863 -0.3109  0.0464  0.1433
  392MOL0     H51732   5.738   4.366   1.782  2.3765  1.7710 -0.0773
  392MOL0     H51733   5.497   4.317   1.731  2.8079  0.2807  3.7696
  392MOL0     H51734   5.361   4.281   1.303  1.4126  0.2974  1.5259
  392MOL0     H51735   5.353   4.453   1.342 -2.0184  1.6064  1.5855
  392MOL0     H51736   5.129   4.411   1.454  1.8940 -3.0912  3.5096
  392MOL0     H51737   5.129   4.374   1.276 -3.5644 -1.6445  1.0462
  392MOL0     H51738   5.158   4.178   1.499  0.0241 -0.9375 -0.6312
  392MOL0     H51739   5.140   4.128   1.332 -0.8573  0.7933 -0.5287
  392MOL0     H51740   4.938   4.307   1.469 -1.1026  0.2930 -0.7626
  392MOL0     H51741   4.920   4.219   1.313  1.9420  1.6454 -0.5053
  392MOL0     H51742   4.833   3.915   1.577 -2.5263  1.7341  0.4165
  392MOL0     H51743   5.551   4.426   1.321  0.5153 -1.2119 -0.6743
  392MOL0     H51744   5.790   4.495   1.369  1.8945 -0.3254  0.9941
  393MOL0     O51745   6.232   7.876   6.862  0.4527 -0.4892  0.0684
  393MOL0     C51746   6.269   7.995   6.887 -0.5447  0.7364 -0.2535
  393MOL0     O51747   6.189   8.100   6.916  0.1609  0.0588 -0.0347
  393MOL0     C51748   6.060   8.104   6.869  0.5563  1.1540 -0.0111
  393MOL0     C51749   6.018   8.080   6.737  0.1277  0.1084 -0.0145
  393MOL0     C51750   5.883   8.075   6.701  0.8893  0.2859  0.1527
  393MOL0     C51751   5.790   8.105   6.799  0.3435 -0.6403  0.5899
  393MOL0     O51752   5.657   8.091   6.757  0.1047  0.2896 -0.7261
  393MOL0     C51753   5.553   8.095   6.862  0.0588  0.0579  0.0693
  393MOL0     C51754   5.430   8.061   6.781 -0.3964  0.3359 -0.2284
  393MOL0     C51755   5.296   8.107   6.849 -0.7112 -0.1124  0.1557
  393MOL0     C51756   5.264   8.027   6.981  0.2887 -0.3172  0.3171
  393MOL0     C51757   5.144   8.082   7.064  0.1370  0.6094  0.6572
  393MOL0     C51758   5.007   8.064   6.982  0.0234 -0.8269 -0.2367
  393MOL0     C51759   4.901   8.147   7.048  0.4378 -1.2836 -0.7991
  393MOL0     C51760   4.876   8.116   7.191  0.1348 -0.5942  0.0917
  393MOL0     N51761   4.770   8.189   7.254 -0.3651  0.0553  0.6266
  393MOL0     C51762   4.683   8.134   7.351 -0.4464  0.4475  0.3467
  393MOL0     C51763   4.628   8.241   7.409  0.2759  0.0413 -0.4389
  393MOL0     C51764   4.538   8.226   7.527  0.4159 -0.5599 -0.2888
  393MOL0     C51765   4.407   8.163   7.477 -0.5725  0.2165  0.1158
  393MOL0     C51766   4.314   8.149   7.594 -0.0363 -0.2427  0.9020
  393MOL0     C51767   4.182   8.091   7.544 -0.3071  0.3747 -0.3687
  393MOL0     O51768   4.089   8.091   7.652 -0.1591 -0.1945 -0.2291
  393MOL0     C51769   3.964   8.048   7.622  0.3765  0.7161  0.7102
  393MOL0     C51770   3.876   8.048   7.725  0.3904 -0.0793 -0.0917
  393MOL0     C51771   3.750   7.991   7.720  0.1885  0.2945 -0.2814
  393MOL0     C51772   3.707   7.945   7.596 -0.0876 -1.0385 -0.3145
  393MOL0     C51773   3.571   7.883   7.598 -0.1440  0.0395  0.4880
  393MOL0     O51774   3.472   7.926   7.681 -0.3493  0.0302  0.2521
  393MOL0     C51775   3.348   7.877   7.674 -0.9760  0.3971 -0.1762
  393MOL0     C51776   3.235   7.959   7.667  0.1466 -0.1091 -0.1437
  393MOL0     C51777   3.109   7.897   7.645 -0.1952  0.5826 -0.5669
  393MOL0     C51778   3.090   7.763   7.650  0.4230  0.2724 -0.4857
  393MOL0     O51779   2.968   7.703   7.638 -0.4734  1.1813  0.0566
  393MOL0     C51780   2.908   7.728   7.513  0.1527  0.1760  0.2794
  393MOL0     C51781   2.758   7.704   7.532  0.3726 -0.4122 -0.9748
  393MOL0     C51782   2.669   7.830   7.525  0.3362 -0.1915 -0.5439
  393MOL0     C51783   2.710   7.952   7.606 -1.0064  0.3369 -0.3167
  393MOL0     C51784   2.606   8.060   7.606  0.9179 -0.4773 -0.1829
  393MOL0     C51785   2.475   8.015   7.690 -0.0871  0.3753  0.2838
  393MOL0     C51786   2.376   8.132   7.717 -0.2929 -0.0154 -0.3952
  393MOL0     C51787   2.278   8.163   7.605 -0.2245  1.1974  0.2504
  393MOL0    Cl51788   2.151   8.272   7.662  0.6778 -0.0088  0.2358
  393MOL0     C51789   3.204   7.686   7.662 -0.5506  0.0927  0.1188
  393MOL0     C51790   3.332   7.738   7.678 -0.1675 -0.3933 -0.5259
  393MOL0     O51791   3.559   7.806   7.503  0.3523 -0.0491 -0.0823
  393MOL0     C51792   3.790   7.946   7.485  0.3309 -0.5106 -0.8955
  393MOL0     C51793   3.924   7.987   7.496 -1.1275 -0.1271  0.5369
  393MOL0     N51794   4.695   8.364   7.363 -0.1938 -0.7427 -0.1522
  393MOL0     N51795   4.768   8.324   7.267 -0.1357 -0.4761  0.4570
  393MOL0     C51796   5.830   8.146   6.922  0.0560 -0.5386  0.6155
  393MOL0     C51797   5.972   8.148   6.952  0.2653 -0.0752 -0.2052
  393MOL0     C51798   6.420   8.014   6.908  0.5526 -0.1779 -0.9703
  393MOL0     C51799   6.465   8.136   6.957 -0.8960 -0.8504  0.2488
  393MOL0     C51800   6.610   8.161   6.958  0.8889  0.4458 -0.2608
  393MOL0     C51801   6.693   8.048   6.936 -0.7983  0.3524  0.3997
  393MOL0     O51802   6.830   8.063   6.940 -0.2050  0.0443  0.5206
  393MOL0     C51803   6.891   8.172   7.012 -0.6513 -0.6376  0.9097
  393MOL0     C51804   7.042   8.134   7.036  0.6588 -0.2250 -0.1140
  393MOL0     C51805   7.054   8.004   7.112 -0.9151  0.0718 -0.2952
  393MOL0     C51806   7.203   7.971   7.152 -0.0573  0.3565 -0.1362
  393MOL0     C51807   7.248   8.083   7.237 -0.5293 -0.0046  0.3797
  393MOL0     C51808   7.317   8.172   7.289  0.5034 -0.0896  0.7640
  393MOL0     C51809   6.644   7.924   6.907 -0.4131  0.3492  0.2099
  393MOL0     C51810   6.504   7.905   6.885  0.4039 -0.8367 -0.5319
  393MOL0     H51811   6.090   8.074   6.656 -0.1789 -0.1440 -0.2680
  393MOL0     H51812   5.859   8.049   6.598  0.5327  2.9870 -0.5186
  393MOL0     H51813   5.543   8.198   6.899 -2.9746  0.0724 -0.5834
  393MOL0     H51814   5.566   8.026   6.945  1.3000  0.8960  0.6134
  393MOL0     H51815   5.430   7.952   6.782  0.9026  0.2741  2.3253
  393MOL0     H51816   5.431   8.104   6.681 -0.3123  0.5735 -0.1284
  393MOL0     H51817   5.211   8.096   6.781 -2.3265  2.5541  1.5742
  393MOL0     H51818   5.299   8.214   6.872  1.2723  0.7421 -3.2825
  393MOL0     H51819   5.257   7.919   6.963 -1.0351 -0.5667  1.9988
  393MOL0     H51820   5.352   8.054   7.041  0.3508  0.4605 -0.1126
  393MOL0     H51821   5.169   8.187   7.084  2.0670  0.1953  0.5961
  393MOL0     H51822   5.141   8.031   7.161  1.9440  0.3401  0.5872
  393MOL0     H51823   4.973   7.960   6.980 -0.9782 -0.6894  3.3989
  393MOL0     H51824   5.029   8.101   6.881 -1.2026  1.3107  0.2000
  393MOL0     H51825   4.908   8.255   7.028 -0.2068 -0.7281  1.5473
  393MOL0     H51826   4.809   8.116   6.999 -0.6588 -0.9692  0.9513
  393MOL0     H51827   4.970   8.127   7.247  0.2732  1.1218 -0.4031
  393MOL0     H51828   4.838   8.015   7.204  0.2525 -0.4180  1.9928
  393MOL0     H51829   4.668   8.028   7.371 -1.1011  0.1119 -1.6570
  393MOL0     H51830   4.523   8.325   7.571 -0.3262 -0.1458 -1.4218
  393MOL0     H51831   4.586   8.172   7.608 -0.8590  2.5274  2.7622
  393MOL0     H51832   4.431   8.060   7.448 -2.2621 -1.2805  3.4486
  393MOL0     H51833   4.365   8.229   7.400 -0.6053  0.4870  0.3604
  393MOL0     H51834   4.353   8.076   7.665 -0.8429 -1.5115  0.0721
  393MOL0     H51835   4.293   8.244   7.644 -0.1590  0.3767 -0.2958
  393MOL0     H51836   4.206   7.985   7.533  0.2305  0.2233  1.7677
  393MOL0     H51837   4.140   8.144   7.458  1.3615 -0.1915 -1.5864
  393MOL0     H51838   3.905   8.102   7.815 -1.4005 -2.5494  2.1257
  393MOL0     H51839   3.674   7.982   7.797 -1.1069  1.0915 -1.4269
  393MOL0     H51840   3.231   8.066   7.682 -1.6767 -0.0830 -0.4689
  393MOL0     H51841   3.028   7.968   7.634 -2.6943 -1.5314  2.6335
  393MOL0     H51842   2.951   7.660   7.439  1.4976 -0.5434  1.6760
  393MOL0     H51843   2.930   7.830   7.479  0.7153  0.6132  1.8827
  393MOL0     H51844   2.742   7.676   7.637 -0.3056  0.0930 -0.9386
  393MOL0     H51845   2.717   7.624   7.470 -1.4491 -1.4560  1.3848
  393MOL0     H51846   2.571   7.793   7.556  0.3633  1.1902  1.3675
  393MOL0     H51847   2.651   7.856   7.420 -0.1479 -0.6098 -0.5678
  393MOL0     H51848   2.742   7.910   7.701  0.2979 -3.8625 -2.3956
  393MOL0     H51849   2.799   7.998   7.562 -1.2188 -0.8694 -2.1254
  393MOL0     H51850   2.579   8.101   7.508  0.8086  0.9669  0.4252
  393MOL0     H51851   2.640   8.148   7.662 -3.0372  1.4335 -0.3774
  393MOL0     H51852   2.527   7.973   7.777 -0.5227  2.0505  1.4179
  393MOL0     H51853   2.422   7.934   7.639 -1.3110  2.5609 -2.1819
  393MOL0     H51854   2.323   8.111   7.811  1.2552  1.5663  0.9178
  393MOL0     H51855   2.427   8.221   7.755  1.1777 -0.9222 -0.1518
  393MOL0     H51856   2.229   8.074   7.564  0.6019  1.3741 -1.2279
  393MOL0     H51857   2.329   8.209   7.519  1.3585 -2.2544 -0.8431
  393MOL0     H51858   3.191   7.578   7.665  2.3895 -0.4076 -1.2048
  393MOL0     H51859   3.408   7.665   7.704 -0.5992 -0.5540  0.3269
  393MOL0     H51860   3.768   7.902   7.388 -1.2383  0.8720 -1.2248
  393MOL0     H51861   3.978   8.004   7.404 -1.0692  2.0165  0.8927
  393MOL0     H51862   5.759   8.163   7.002  1.5567 -3.1509  2.6862
  393MOL0     H51863   5.999   8.180   7.053 -0.7977 -0.6412  0.2814
  393MOL0     H51864   6.398   8.219   6.975  0.3835  0.5505 -1.1142
  393MOL0     H51865   6.664   8.254   6.976  1.9916 -0.2551  0.1910
  393MOL0     H51866   6.836   8.190   7.105 -1.0386 -0.8706  0.7240
  393MOL0     H51867   6.883   8.268   6.960  0.5732 -0.1852  1.5055
  393MOL0     H51868   7.095   8.125   6.941 -1.0448  1.8345 -1.3443
  393MOL0     H51869   7.085   8.219   7.090 -2.3565  1.7852 -0.6584
  393MOL0     H51870   7.013   7.925   7.048  2.1783 -2.5693  0.7217
  393MOL0     H51871   6.991   8.014   7.201 -1.6380 -2.1495 -0.4986
  393MOL0     H51872   7.202   7.888   7.224 -1.9983 -0.2594 -0.8151
  393MOL0     H51873   7.267   7.958   7.064  0.2883 -0.6747  0.2434
  393MOL0     H51874   7.385   8.244   7.329  0.6178 -0.7503  1.7910
  393MOL0     H51875   6.713   7.843   6.889 -0.3872  0.8930 -2.5635
  393MOL0     H51876   6.455   7.815   6.849 -1.3404 -0.0055 -0.3172
  394MOL0     O51877   6.693   6.553  10.451  0.3302 -0.0075  0.1072
  394MOL0     C51878   6.662   6.453  10.384 -0.7192 -0.0641  0.1226
  394MOL0     O51879   6.551   6.426  10.314 -0.5074 -0.5087 -0.3954
  394MOL0     C51880   6.434   6.502  10.321 -0.6067 -0.0622  0.4267
  394MOL0     C51881   6.406   6.606  10.409 -0.1125  0.3163  0.0457
  394MOL0     C51882   6.280   6.675  10.409 -0.5301  0.1431  0.0010
  394MOL0     C51883   6.195   6.656  10.301 -0.0032  0.1209 -0.0146
  394MOL0     O51884   6.093   6.744  10.278 -0.1293  0.4924 -0.1279
  394MOL0     C51885   5.962   6.672  10.266 -0.9811 -0.3127 -0.8045
  394MOL0     C51886   5.846   6.760  10.307  0.7570 -0.6184 -0.3042
  394MOL0     C51887   5.806   6.744  10.458  0.4607 -0.8574 -0.3000
  394MOL0     C51888   5.677   6.828  10.470  0.6436  0.2473  0.5319
  394MOL0     C51889   5.598   6.789  10.594 -0.1465  0.0643  0.2770
  394MOL0     C51890   5.663   6.843  10.720 -0.0183  0.4284  0.4081
  394MOL0     C51891   5.579   6.806  10.843  0.9166 -0.6163  0.0741
  394MOL0     C51892   5.645   6.836  10.980  0.2040 -0.2819 -0.9246
  394MOL0     N51893   5.690   6.973  10.995 -0.6865 -0.0229 -1.1488
  394MOL0     C51894   5.628   7.087  11.023 -0.2195 -0.6223  0.3860
  394MOL0     C51895   5.711   7.188  11.022 -1.1111 -0.4860  0.7072
  394MOL0     C51896   5.685   7.334  11.051  0.8396  0.7362 -0.2677
  394MOL0     C51897   5.692   7.358  11.202 -0.4985  0.2491 -0.0597
  394MOL0     C51898   5.584   7.295  11.296  0.1633 -0.4505  0.2089
  394MOL0     C51899   5.615   7.338  11.434  1.2804  0.3239 -0.8079
  394MOL0     O51900   5.519   7.273  11.523 -0.1716  0.2531 -0.4332
  394MOL0     C51901   5.409   7.334  11.569 -0.1667 -0.4816 -0.2448
  394MOL0     C51902   5.376   7.465  11.533 -1.2782 -0.2601  0.3374
  394MOL0     C51903   5.249   7.524  11.560 -0.1713  0.2693 -0.2661
  394MOL0     C51904   5.153   7.444  11.625 -0.6007  0.4283  0.6150
  394MOL0     C51905   5.023   7.494  11.683  0.5489 -0.0311  0.7446
  394MOL0     O51906   4.932   7.398  11.731 -0.4540 -0.0001  0.0502
  394MOL0     C51907   4.818   7.447  11.776  0.4893 -0.8007  0.5782
  394MOL0     C51908   4.722   7.498  11.685 -0.2912  0.2567  0.2958
  394MOL0     C51909   4.597   7.553  11.725  0.3508  0.4302  0.4341
  394MOL0     C51910   4.575   7.558  11.867 -0.0651  0.0696  1.2859
  394MOL0     O51911   4.466   7.623  11.916  0.5100 -0.4428 -0.2441
  394MOL0     C51912   4.346   7.615  11.847 -0.3440  0.0901  0.3133
  394MOL0     C51913   4.239   7.633  11.946 -0.7276 -0.0345 -0.1266
  394MOL0     C51914   4.237   7.503  12.033 -0.8279 -0.9046 -0.5385
  394MOL0     C51915   4.120   7.517  12.136 -0.9042 -0.0904 -0.0113
  394MOL0     C51916   4.089   7.393  12.222 -0.4576  0.5741 -0.6094
  394MOL0     C51917   3.951   7.390  12.289  0.6707  0.3202 -0.1049
  394MOL0     C51918   3.919   7.526  12.357  0.3195  0.5593 -0.1711
  394MOL0     C51919   3.806   7.505  12.463 -0.2664 -0.3341 -0.0615
  394MOL0    Cl51920   3.660   7.438  12.370 -0.5862 -0.2015  0.1833
  394MOL0     C51921   4.661   7.496  11.955 -0.1655 -0.6500  0.1849
  394MOL0     C51922   4.775   7.430  11.905  0.2264  0.2737 -0.8709
  394MOL0     O51923   5.004   7.615  11.669  0.2617  0.0051 -0.1104
  394MOL0     C51924   5.190   7.316  11.662 -0.0469  0.4158 -0.3552
  394MOL0     C51925   5.307   7.256  11.616 -0.2162  0.5755  0.1158
  394MOL0     N51926   5.833   7.135  10.999 -0.6699  0.3949  0.0676
  394MOL0     N51927   5.828   7.008  10.999 -0.1546 -0.0079  0.4723
  394MOL0     C51928   6.224   6.551  10.212  1.1285  0.8388 -0.8002
  394MOL0     C51929   6.337   6.478  10.225  0.1537  0.2135 -0.6887
  394MOL0     C51930   6.755   6.346  10.373 -0.2065  0.8202  0.2046
  394MOL0     C51931   6.897   6.366  10.399 -0.9700 -0.2112 -0.0816
  394MOL0     C51932   6.997   6.271  10.370  0.4711  0.1524 -0.0930
  394MOL0     C51933   6.961   6.154  10.301  1.2801 -0.6285 -0.0064
  394MOL0     O51934   7.074   6.086  10.266 -0.2120  0.4858  0.3674
  394MOL0     C51935   7.067   5.981  10.179  0.7495  0.0590 -0.4131
  394MOL0     C51936   7.194   5.904  10.198 -0.3610 -0.8171  0.1306
  394MOL0     C51937   7.214   5.803  10.080 -0.1778 -0.5305 -0.2857
  394MOL0     C51938   7.366   5.746  10.095 -0.6040  0.1710 -0.0496
  394MOL0     C51939   7.460   5.816  10.008 -0.2619 -0.0964  0.6524
  394MOL0     C51940   7.541   5.861   9.932 -0.2354  0.7642 -0.6424
  394MOL0     C51941   6.827   6.125  10.281 -0.2289 -0.0853 -0.1165
  394MOL0     C51942   6.729   6.220  10.310  0.6248  0.8081  0.7447
  394MOL0     H51943   6.469   6.631  10.494 -2.7548 -0.8119  2.5061
  394MOL0     H51944   6.268   6.760  10.475 -1.0562 -0.5022  0.7471
  394MOL0     H51945   5.958   6.577  10.320 -4.4077  1.0268  1.5874
  394MOL0     H51946   5.952   6.646  10.160  1.8320 -0.0832 -1.2073
  394MOL0     H51947   5.761   6.748  10.238  0.2531  0.5785  0.0813
  394MOL0     H51948   5.884   6.862  10.302 -0.2918 -0.2095 -0.3611
  394MOL0     H51949   5.886   6.782  10.521 -1.0102  2.0936 -0.0358
  394MOL0     H51950   5.795   6.641  10.494  2.1765 -0.6325  0.9900
  394MOL0     H51951   5.703   6.934  10.474 -0.4579  0.6468 -1.4165
  394MOL0     H51952   5.612   6.803  10.385  0.7605 -2.7248  1.1996
  394MOL0     H51953   5.588   6.681  10.611  0.3193  0.2498  1.9039
  394MOL0     H51954   5.500   6.834  10.580  1.1701  3.6657  1.5716
  394MOL0     H51955   5.676   6.952  10.714 -1.7935  0.6203 -0.4610
  394MOL0     H51956   5.763   6.804  10.742  0.5265  2.0363  0.9536
  394MOL0     H51957   5.489   6.868  10.838  2.9868  2.7360  0.9367
  394MOL0     H51958   5.552   6.702  10.824  1.5880 -0.7140 -0.3870
  394MOL0     H51959   5.730   6.768  10.992  0.9981  0.4738 -2.0563
  394MOL0     H51960   5.567   6.836  11.057  1.1076  2.8387  0.1430
  394MOL0     H51961   5.526   7.096  11.058 -0.3978 -1.4825  0.0929
  394MOL0     H51962   5.581   7.357  11.026  0.0726  0.1492  2.1501
  394MOL0     H51963   5.745   7.404  10.992 -0.3803  1.4984 -0.6395
  394MOL0     H51964   5.687   7.467  11.214  2.3664  0.4580  0.0241
  394MOL0     H51965   5.792   7.322  11.230  0.1644  1.2359 -1.0682
  394MOL0     H51966   5.481   7.319  11.269 -0.0761 -2.9214 -1.4229
  394MOL0     H51967   5.577   7.186  11.294  1.1436 -0.7079  3.9992
  394MOL0     H51968   5.608   7.447  11.447  0.3682  0.0673  1.0923
  394MOL0     H51969   5.720   7.329  11.464  1.6531  0.8888 -1.8743
  394MOL0     H51970   5.446   7.533  11.485 -1.0449 -0.5704  0.2341
  394MOL0     H51971   5.228   7.628  11.537 -2.7181 -0.1546 -0.0590
  394MOL0     H51972   4.746   7.492  11.579  0.3946  2.8773  0.2121
  394MOL0     H51973   4.517   7.586  11.659 -1.2031  0.6241  2.3210
  394MOL0     H51974   4.335   7.519  11.794 -1.3860  0.3574  0.0065
  394MOL0     H51975   4.332   7.700  11.780  0.1118  1.4012  1.8374
  394MOL0     H51976   4.143   7.657  11.899 -0.7401  0.0076 -0.0799
  394MOL0     H51977   4.271   7.721  12.003 -1.8276 -0.8676  1.8969
  394MOL0     H51978   4.338   7.498  12.075 -0.1467 -0.5902 -2.0497
  394MOL0     H51979   4.222   7.418  11.965 -2.1620  1.5374 -3.5587
  394MOL0     H51980   4.132   7.604  12.202 -3.3703  1.2129 -1.1353
  394MOL0     H51981   4.025   7.548  12.090 -0.5394  1.0148 -0.0438
  394MOL0     H51982   4.159   7.366  12.301 -0.5414  0.8384 -0.4463
  394MOL0     H51983   4.093   7.305  12.156  0.6536 -0.5648  0.9111
  394MOL0     H51984   3.940   7.304  12.356 -1.4614 -0.0491 -0.8469
  394MOL0     H51985   3.882   7.380  12.204  0.6090  0.6537 -0.0939
  394MOL0     H51986   4.008   7.572  12.401 -0.1624  2.3228 -0.9541
  394MOL0     H51987   3.889   7.595  12.279  3.3728  1.7773 -0.4096
  394MOL0     H51988   3.781   7.597  12.515 -1.2825 -0.6326  0.0014
  394MOL0     H51989   3.843   7.450  12.550  0.0811  3.5377  2.4794
  394MOL0     H51990   4.622   7.507  12.056  0.5708  0.5729  0.3652
  394MOL0     H51991   4.837   7.367  11.969 -1.5263 -2.3375 -1.5714
  394MOL0     H51992   5.115   7.254  11.711  0.4616 -1.3921 -1.7741
  394MOL0     H51993   5.339   7.154  11.634 -0.4535  0.3870 -0.5421
  394MOL0     H51994   6.160   6.553  10.124 -2.5947 -0.3694  1.6198
  394MOL0     H51995   6.345   6.392  10.159  0.0398 -1.6401  1.5899
  394MOL0     H51996   6.919   6.464  10.440  1.3003 -1.0359  0.8246
  394MOL0     H51997   7.097   6.304  10.395  0.3444  1.1791 -0.8994
  394MOL0     H51998   7.055   6.012  10.074 -0.2883 -2.9758 -1.3089
  394MOL0     H51999   6.986   5.919  10.218  0.9867 -1.7174 -2.5514
  394MOL0     H52000   7.272   5.980  10.203 -1.0170 -0.1484  0.3679
  394MOL0     H52001   7.172   5.841  10.285 -3.0929 -0.5051 -0.2258
  394MOL0     H52002   7.199   5.851   9.983 -0.4968 -0.0837 -0.0198
  394MOL0     H52003   7.141   5.722  10.088 -1.7563  0.8497 -0.0841
  394MOL0     H52004   7.391   5.753  10.201  0.2096  0.6489 -0.2673
  394MOL0     H52005   7.368   5.638  10.083 -1.5027  0.0863  0.5062
  394MOL0     H52006   7.618   5.904   9.871  1.2437 -0.8399 -0.0003
  394MOL0     H52007   6.798   6.035  10.228 -4.0189  1.2036 -0.5215
  394MOL0     H52008   6.632   6.199  10.266  1.9691 -3.2514 -0.8042
  395MOL0     O52009   9.795   6.379   2.483  0.6894 -0.0892 -0.3425
  395MOL0     C52010   9.883   6.390   2.568 -0.8047 -0.3572  0.5748
  395MOL0     O52011   9.909   6.504   2.637  0.0718 -0.4231  0.4142
  395MOL0     C52012   9.831   6.618   2.619  0.6409  0.4698  0.0204
  395MOL0     C52013   9.725   6.651   2.705  1.1870  0.3844  0.0232
  395MOL0     C52014   9.638   6.762   2.683  0.2017  0.3861  0.5035
  395MOL0     C52015   9.659   6.850   2.573 -0.2206 -0.3227 -0.8137
  395MOL0     O52016   9.578   6.951   2.536 -0.2844  0.0768 -0.8443
  395MOL0     C52017   9.449   6.964   2.604 -0.2260 -0.1817  0.3396
  395MOL0     C52018   9.364   7.080   2.549 -0.0087 -0.0857 -0.6399
  395MOL0     C52019   9.280   7.051   2.421  0.1469 -0.0036  0.0337
  395MOL0     C52020   9.193   7.180   2.396  0.6905 -0.6585  0.1616
  395MOL0     C52021   9.081   7.139   2.305 -0.6876 -0.0520  0.3235
  395MOL0     C52022   8.987   7.261   2.266  0.1050 -0.6181  0.0964
  395MOL0     C52023   8.926   7.352   2.371  0.8145 -0.7829  0.7752
  395MOL0     C52024   8.833   7.470   2.302  0.2299  0.0180  0.3730
  395MOL0     N52025   8.765   7.561   2.405 -0.6465  0.2451  0.5469
  395MOL0     C52026   8.668   7.520   2.501 -0.7262  0.0372  0.0075
  395MOL0     C52027   8.622   7.633   2.565 -0.0913 -0.0122  0.2303
  395MOL0     C52028   8.517   7.633   2.672 -0.5239  0.9973 -0.4909
  395MOL0     C52029   8.381   7.606   2.612 -0.6040  0.7087  0.2312
  395MOL0     C52030   8.266   7.637   2.714  0.2169  1.3145 -0.0242
  395MOL0     C52031   8.135   7.599   2.656  0.5599  0.7681 -0.4271
  395MOL0     O52032   8.050   7.564   2.776  0.5318 -0.0844  0.6901
  395MOL0     C52033   7.956   7.472   2.766  0.1248  0.3942 -1.0355
  395MOL0     C52034   7.888   7.423   2.649  0.6046  0.4403  0.6680
  395MOL0     C52035   7.786   7.318   2.653 -0.4846  0.1683 -0.3940
  395MOL0     C52036   7.754   7.260   2.776  0.2532  0.5390 -0.7884
  395MOL0     C52037   7.673   7.140   2.788  0.3872 -0.1593 -0.4777
  395MOL0     O52038   7.646   7.069   2.676 -0.6576  0.1436  0.3390
  395MOL0     C52039   7.593   6.940   2.681 -0.2527 -0.8134 -0.1295
  395MOL0     C52040   7.673   6.846   2.620  0.1810 -0.4324  0.1805
  395MOL0     C52041   7.639   6.714   2.613 -0.2173 -0.5866 -0.1851
  395MOL0     C52042   7.516   6.672   2.673  0.0286 -0.3237  0.8391
  395MOL0     O52043   7.456   6.548   2.665 -0.4132 -0.3505 -0.0532
  395MOL0     C52044   7.495   6.462   2.562 -0.4572  0.1565 -0.0977
  395MOL0     C52045   7.379   6.358   2.545 -0.1296  0.0275 -0.6041
  395MOL0     C52046   7.231   6.419   2.524  0.6541  1.0434  0.4371
  395MOL0     C52047   7.239   6.490   2.391 -0.4216  0.2457  0.1215
  395MOL0     C52048   7.094   6.531   2.361 -0.4061  0.4530  0.7136
  395MOL0     C52049   7.066   6.603   2.224  0.2490 -0.4988 -0.8375
  395MOL0     C52050   7.089   6.515   2.103 -0.7307  0.0018  0.2468
  395MOL0     C52051   7.069   6.600   1.972  0.4830  0.5707  0.2314
  395MOL0    Cl52052   6.942   6.733   1.976 -0.2307  0.4345 -0.4394
  395MOL0     C52053   7.440   6.768   2.746  0.8658  0.6993  0.1580
  395MOL0     C52054   7.475   6.902   2.753 -0.3891  0.7916  0.5461
  395MOL0     O52055   7.626   7.108   2.893 -0.4552  0.2730 -0.0242
  395MOL0     C52056   7.818   7.312   2.892  1.2467 -0.4508 -0.5241
  395MOL0     C52057   7.921   7.409   2.892  0.7981 -0.2922  0.7650
  395MOL0     N52058   8.699   7.731   2.507 -0.1538 -0.4143  0.3368
  395MOL0     N52059   8.783   7.689   2.419 -0.3566 -0.3948  1.0621
  395MOL0     C52060   9.772   6.817   2.495  0.9476 -0.1959  1.1072
  395MOL0     C52061   9.849   6.708   2.508  0.4436  1.7276 -0.5743
  395MOL0     C52062   9.948   6.258   2.604 -0.2524 -0.2741  0.3184
  395MOL0     C52063   9.930   6.140   2.532 -0.0976  0.9815  0.7912
  395MOL0     C52064  10.002   6.027   2.557  0.0493  0.2770  0.2770
  395MOL0     C52065  10.096   6.024   2.655 -0.1685 -0.2554 -0.4477
  395MOL0     O52066  10.157   5.902   2.687 -0.1446 -0.0654 -0.3156
  395MOL0     C52067  10.300   5.902   2.656  0.8101  0.3570  0.3075
  395MOL0     C52068  10.347   5.759   2.664 -0.6549 -0.0066  0.5575
  395MOL0     C52069  10.252   5.657   2.598  0.6525 -0.1799 -0.2962
  395MOL0     C52070  10.161   5.597   2.699 -0.9050  0.9823  0.4195
  395MOL0     C52071  10.061   5.508   2.633  0.8994 -0.3754  0.9707
  395MOL0     C52072   9.974   5.436   2.593 -0.3638 -0.1861  0.0803
  395MOL0     C52073  10.127   6.138   2.726 -0.3450  0.0929  0.5625
  395MOL0     C52074  10.048   6.247   2.711 -0.5218 -0.3425 -0.4522
  395MOL0     H52075   9.720   6.587   2.793  2.1034 -0.5918 -0.6008
  395MOL0     H52076   9.552   6.774   2.749 -0.8920  3.1607 -1.2299
  395MOL0     H52077   9.462   6.984   2.711 -1.1791 -0.4997  0.5173
  395MOL0     H52078   9.385   6.876   2.595 -1.4114  0.8334 -1.7929
  395MOL0     H52079   9.433   7.162   2.526 -0.6183  0.5054 -0.3755
  395MOL0     H52080   9.300   7.108   2.632 -0.3970  2.3470 -1.6900
  395MOL0     H52081   9.215   6.966   2.444  2.5256 -1.8156  0.4375
  395MOL0     H52082   9.342   7.015   2.339 -2.3663  0.0699 -2.0472
  395MOL0     H52083   9.145   7.217   2.487 -1.9187  1.7891 -2.0383
  395MOL0     H52084   9.246   7.269   2.363 -1.8325  0.5436 -0.8764
  395MOL0     H52085   9.023   7.072   2.369  0.5739 -0.3165  1.2210
  395MOL0     H52086   9.115   7.081   2.219  1.3500 -5.8549  4.4247
  395MOL0     H52087   8.896   7.223   2.219  1.1966 -1.7053 -1.2118
  395MOL0     H52088   9.035   7.331   2.197 -2.3091  0.1322 -0.9129
  395MOL0     H52089   8.855   7.295   2.433  0.5890 -0.6681  0.6204
  395MOL0     H52090   8.996   7.390   2.446 -0.4655 -0.9379  2.0955
  395MOL0     H52091   8.756   7.427   2.238  0.2363 -0.5615  0.7396
  395MOL0     H52092   8.890   7.541   2.241  0.5581 -1.0263 -0.5722
  395MOL0     H52093   8.617   7.425   2.502  0.5216 -0.7130 -1.7979
  395MOL0     H52094   8.518   7.731   2.721  1.0491  0.5201  0.4877
  395MOL0     H52095   8.549   7.553   2.738  0.7228  1.5069 -0.4515
  395MOL0     H52096   8.381   7.498   2.592  0.5466  0.8759 -0.8261
  395MOL0     H52097   8.367   7.662   2.519  0.6196  0.3762 -0.1797
  395MOL0     H52098   8.280   7.576   2.804 -1.4009  0.4086 -0.3442
  395MOL0     H52099   8.273   7.744   2.734  0.9511  0.9810  1.6354
  395MOL0     H52100   8.145   7.514   2.587  2.0273  1.9000 -1.6840
  395MOL0     H52101   8.098   7.687   2.602  1.0983  2.7669  2.2330
  395MOL0     H52102   7.925   7.465   2.556  2.4650 -1.2481  0.5748
  395MOL0     H52103   7.736   7.294   2.560  2.0499 -1.3325 -1.4630
  395MOL0     H52104   7.772   6.870   2.584 -0.1194  2.1550  0.9079
  395MOL0     H52105   7.699   6.649   2.550 -1.1627 -0.2902 -1.4197
  395MOL0     H52106   7.589   6.413   2.586 -0.0144  0.6511 -0.7764
  395MOL0     H52107   7.517   6.506   2.464  1.0498  0.9091  0.5573
  395MOL0     H52108   7.370   6.301   2.637 -0.9118  2.0881  0.6829
  395MOL0     H52109   7.414   6.299   2.459  0.0741 -0.6918 -0.0323
  395MOL0     H52110   7.205   6.491   2.601  0.0466  1.6330 -0.3065
  395MOL0     H52111   7.164   6.332   2.522  0.3884  1.2509  0.2432
  395MOL0     H52112   7.294   6.584   2.390  0.9924 -0.5137 -2.5945
  395MOL0     H52113   7.289   6.418   2.326  1.8219 -1.6796  3.6665
  395MOL0     H52114   7.062   6.596   2.443  0.6876  1.2315  0.5382
  395MOL0     H52115   7.032   6.442   2.374 -2.4574  1.8841  1.2638
  395MOL0     H52116   7.129   6.692   2.218  1.2387 -1.1744 -0.7185
  395MOL0     H52117   6.963   6.640   2.227  0.6622  0.7731 -1.4308
  395MOL0     H52118   7.193   6.480   2.101 -0.0181  1.9993 -1.7274
  395MOL0     H52119   7.021   6.430   2.104 -2.1018  1.0626  1.4653
  395MOL0     H52120   7.052   6.529   1.891  0.4387  3.7115 -2.7720
  395MOL0     H52121   7.169   6.639   1.952  0.0508  1.1217 -1.0273
  395MOL0     H52122   7.352   6.730   2.797  0.6907 -1.7695 -1.8042
  395MOL0     H52123   7.415   6.975   2.805 -1.5788 -1.3357  2.3319
  395MOL0     H52124   7.790   7.281   2.992 -0.3412  0.3196 -0.6820
  395MOL0     H52125   7.972   7.444   2.981  0.1467 -1.9146  1.8223
  395MOL0     H52126   9.776   6.855   2.393 -0.3704 -3.3786 -0.2421
  395MOL0     H52127   9.906   6.673   2.422  0.5399 -0.5812  0.3625
  395MOL0     H52128   9.853   6.136   2.455 -0.3754 -0.6471  1.0984
  395MOL0     H52129   9.983   5.939   2.496  1.6220  1.2690 -1.7796
  395MOL0     H52130  10.354   5.961   2.731  1.5722  0.4459 -0.2861
  395MOL0     H52131  10.315   5.936   2.553 -0.2951 -0.6319 -0.1955
  395MOL0     H52132  10.442   5.758   2.609  0.2442  0.6242  2.0328
  395MOL0     H52133  10.372   5.727   2.766  0.1363  0.3234  0.4731
  395MOL0     H52134  10.307   5.572   2.556 -0.0680 -0.6247 -0.3621
  395MOL0     H52135  10.199   5.707   2.517 -0.4963  3.0814  2.2438
  395MOL0     H52136  10.216   5.526   2.762 -1.3793  1.5634  1.5240
  395MOL0     H52137  10.099   5.676   2.744  0.1541  3.5921 -2.3965
  395MOL0     H52138   9.902   5.375   2.543 -0.1742  0.5629 -1.1324
  395MOL0     H52139  10.211   6.133   2.794 -0.6608 -1.2355  0.8769
  395MOL0     H52140  10.069   6.336   2.770 -4.1447 -2.2758  4.4715
  396MOL0     O52141   3.773   4.080   0.171  0.5215 -0.5036 -0.0675
  396MOL0     C52142   3.798   3.994   0.248 -0.6434  0.5974  0.8936
  396MOL0     O52143   3.918   3.941   0.265 -0.1701  0.8759  0.1801
  396MOL0     C52144   4.027   3.955   0.181 -0.2202  0.3030  0.1565
  396MOL0     C52145   4.151   3.919   0.226 -0.2198 -0.1307  0.6995
  396MOL0     C52146   4.265   3.921   0.137 -0.2749  0.0724 -0.9034
  396MOL0     C52147   4.253   3.946   0.001 -0.2632 -0.0314 -0.3280
  396MOL0     O52148   4.373   3.951  -0.071  0.3246 -0.8400 -0.5094
  396MOL0     C52149   4.379   4.001  -0.204 -0.1609 -0.4081  0.4710
  396MOL0     C52150   4.321   3.902  -0.312 -0.4328  0.4201 -0.1440
  396MOL0     C52151   4.402   3.770  -0.323 -0.2578 -0.2000 -0.1192
  396MOL0     C52152   4.334   3.669  -0.410  0.1551  0.3139 -0.8099
  396MOL0     C52153   4.412   3.532  -0.403 -0.3427 -0.0055  0.2498
  396MOL0     C52154   4.353   3.432  -0.507  0.8424 -0.2020  0.5379
  396MOL0     C52155   4.408   3.295  -0.477 -0.3971  0.1057 -0.0347
  396MOL0     C52156   4.568   3.276  -0.497 -0.2670 -0.2187 -0.9137
  396MOL0     N52157   4.655   3.341  -0.390  0.0793 -0.3832  0.6787
  396MOL0     C52158   4.640   3.320  -0.264 -0.3717  1.2577 -0.1516
  396MOL0     C52159   4.732   3.399  -0.193  0.1018  0.1432  0.1904
  396MOL0     C52160   4.732   3.413  -0.045  0.7155  0.8049  0.3742
  396MOL0     C52161   4.632   3.327   0.037  0.7624  0.3259  0.0224
  396MOL0     C52162   4.490   3.374   0.043  0.2630 -0.2320  0.2373
  396MOL0     C52163   4.411   3.283   0.130  0.4338 -0.6307  0.1936
  396MOL0     O52164   4.412   3.149   0.073 -0.1220  0.1326 -0.6694
  396MOL0     C52165   4.343   3.128  -0.036  0.4977  0.7117 -0.5658
  396MOL0     C52166   4.384   3.025  -0.116 -0.0482  0.2490 -0.5524
  396MOL0     C52167   4.316   2.988  -0.230 -0.2602  0.3905  0.8997
  396MOL0     C52168   4.191   3.056  -0.263 -0.9001 -1.8342  0.2916
  396MOL0     C52169   4.114   3.028  -0.388  0.1565 -0.9180  0.7442
  396MOL0     O52170   3.994   3.096  -0.401 -0.4441  1.2986  0.3771
  396MOL0     C52171   3.910   3.048  -0.496  0.4855 -0.1803  0.3411
  396MOL0     C52172   3.934   3.048  -0.638  0.6063  0.5905  0.1217
  396MOL0     C52173   3.835   3.012  -0.734 -0.3320  0.5069 -0.1636
  396MOL0     C52174   3.710   2.974  -0.688 -0.1565 -1.3235  0.3353
  396MOL0     O52175   3.622   2.951  -0.793 -0.8159 -0.1599 -0.0456
  396MOL0     C52176   3.499   2.892  -0.771 -0.4469  0.4015  0.0539
  396MOL0     C52177   3.395   2.986  -0.714  0.5511  0.3441  0.2778
  396MOL0     C52178   3.259   2.933  -0.764  0.2069 -0.5102 -0.2163
  396MOL0     C52179   3.159   3.048  -0.755 -0.1748  0.2342 -0.0081
  396MOL0     C52180   3.013   3.029  -0.786  0.3700  0.2227  0.6179
  396MOL0     C52181   2.945   2.964  -0.675 -0.3176 -0.1060  0.1384
  396MOL0     C52182   2.799   2.959  -0.695  0.0083 -0.3097  0.6777
  396MOL0     C52183   2.718   2.915  -0.580  0.1612 -0.0753 -0.6510
  396MOL0    Cl52184   2.688   3.067  -0.484  0.0532  0.4891  0.0033
  396MOL0     C52185   3.691   2.960  -0.548  0.7966 -0.2478  0.6907
  396MOL0     C52186   3.787   2.989  -0.453  0.1640 -0.0153 -0.1714
  396MOL0     O52187   4.158   2.945  -0.469 -0.2578 -0.6787  0.0844
  396MOL0     C52188   4.147   3.162  -0.179  0.8608  0.1358  0.1003
  396MOL0     C52189   4.228   3.195  -0.071 -0.1476  0.4796 -0.8022
  396MOL0     N52190   4.809   3.466  -0.291 -0.8680  0.5084  0.7882
  396MOL0     N52191   4.763   3.427  -0.406 -0.5108  0.1848 -0.2694
  396MOL0     C52192   4.125   3.993  -0.045 -0.1078  0.0428 -0.1640
  396MOL0     C52193   4.015   3.999   0.043  0.3738 -0.1092 -0.7497
  396MOL0     C52194   3.692   3.945   0.335  0.1635  0.2210  0.0633
  396MOL0     C52195   3.715   3.835   0.413 -0.4311 -0.2920 -0.7970
  396MOL0     C52196   3.618   3.787   0.495 -0.3099 -0.1709  0.4135
  396MOL0     C52197   3.494   3.855   0.504  0.4293  0.0912 -0.0696
  396MOL0     O52198   3.410   3.789   0.591  0.1507  0.6444  0.3486
  396MOL0     C52199   3.314   3.872   0.671 -0.1243  0.3288  0.2017
  396MOL0     C52200   3.165   3.854   0.622 -0.8716 -0.8312 -0.6038
  396MOL0     C52201   3.083   3.975   0.670  0.2174  0.6201 -0.2974
  396MOL0     C52202   2.947   3.973   0.602  0.4443  1.0971 -0.2896
  396MOL0     C52203   2.848   4.071   0.657 -0.1480  0.5734 -1.0700
  396MOL0     C52204   2.796   4.159   0.731 -0.2167  0.4655  1.3407
  396MOL0     C52205   3.468   3.966   0.427 -0.4303  0.9500  0.2803
  396MOL0     C52206   3.570   4.008   0.340  0.5623 -0.2895  0.9437
  396MOL0     H52207   4.159   3.899   0.332 -0.9295  1.0248  0.9877
  396MOL0     H52208   4.365   3.908   0.177  0.5518 -0.5750 -3.0285
  396MOL0     H52209   4.481   4.034  -0.224 -1.5385  4.6065  0.1594
  396MOL0     H52210   4.321   4.094  -0.205 -0.4315 -0.5811  0.2421
  396MOL0     H52211   4.327   3.941  -0.414  0.2697 -0.6852 -0.5453
  396MOL0     H52212   4.216   3.881  -0.289 -0.1535 -0.5756  0.2578
  396MOL0     H52213   4.412   3.729  -0.222 -0.9157 -1.0493 -0.3908
  396MOL0     H52214   4.499   3.789  -0.370 -0.4872 -0.0724 -0.5545
  396MOL0     H52215   4.230   3.654  -0.381  0.4631  1.1477  0.8308
  396MOL0     H52216   4.329   3.714  -0.510  0.3364  0.8024 -0.6008
  396MOL0     H52217   4.404   3.496  -0.300 -0.0866 -1.5050 -0.2439
  396MOL0     H52218   4.518   3.544  -0.430  0.0868 -2.5358  0.6096
  396MOL0     H52219   4.378   3.453  -0.611 -0.4003  0.5807  0.3761
  396MOL0     H52220   4.244   3.439  -0.498  0.8978  0.3384  0.8160
  396MOL0     H52221   4.373   3.255  -0.382 -0.3818 -3.3530 -1.3527
  396MOL0     H52222   4.362   3.225  -0.548  0.1072 -1.8500  1.4872
  396MOL0     H52223   4.592   3.321  -0.594  0.2545  0.9645 -0.2534
  396MOL0     H52224   4.602   3.172  -0.503  0.6266  0.1359 -2.7283
  396MOL0     H52225   4.565   3.254  -0.221 -0.2202 -0.3005 -2.1247
  396MOL0     H52226   4.722   3.515  -0.007 -1.2412  0.0454  2.1104
  396MOL0     H52227   4.832   3.376  -0.021  1.6230  1.6134 -1.9096
  396MOL0     H52228   4.690   3.310   0.128  3.2557 -2.5360 -1.8701
  396MOL0     H52229   4.623   3.226  -0.004  0.1209 -0.0956  1.1630
  396MOL0     H52230   4.476   3.480   0.065 -2.4463 -0.2610 -1.0179
  396MOL0     H52231   4.448   3.371  -0.058  3.6631  2.0467 -1.4479
  396MOL0     H52232   4.310   3.317   0.152  0.6512 -0.5092  1.0450
  396MOL0     H52233   4.459   3.281   0.228 -0.6189  0.0445  0.7438
  396MOL0     H52234   4.476   2.982  -0.078  0.1069  2.2117  1.5006
  396MOL0     H52235   4.351   2.910  -0.298  3.0475  1.3834  1.2951
  396MOL0     H52236   4.031   3.088  -0.667  1.2967 -0.8071  0.4130
  396MOL0     H52237   3.836   3.007  -0.842 -2.5978 -4.6062 -0.2312
  396MOL0     H52238   3.510   2.810  -0.700 -0.0058  0.6591  0.2837
  396MOL0     H52239   3.461   2.849  -0.864 -0.3616  0.2483  0.0896
  396MOL0     H52240   3.408   3.089  -0.747 -0.8011  0.4943  0.1679
  396MOL0     H52241   3.385   2.987  -0.605  1.9521 -0.9113  0.4636
  396MOL0     H52242   3.224   2.851  -0.701  2.3006 -1.9157 -0.7797
  396MOL0     H52243   3.268   2.890  -0.864  0.6480 -0.1147 -0.3546
  396MOL0     H52244   3.164   3.092  -0.655 -1.8264  1.6788 -0.5081
  396MOL0     H52245   3.197   3.118  -0.830 -3.3056  0.8614 -1.1655
  396MOL0     H52246   3.006   2.977  -0.882  2.8400  0.8682  0.0146
  396MOL0     H52247   2.963   3.124  -0.806 -2.2659 -0.8054  1.9501
  396MOL0     H52248   2.961   3.021  -0.583  0.3091 -0.6742  0.3814
  396MOL0     H52249   2.998   2.870  -0.664 -0.2303 -0.0651  0.0681
  396MOL0     H52250   2.755   3.050  -0.737  0.3164 -0.3647  0.2302
  396MOL0     H52251   2.790   2.885  -0.775 -0.7608  1.0268 -0.5079
  396MOL0     H52252   2.766   2.838  -0.519 -0.5313  0.2161  0.2951
  396MOL0     H52253   2.620   2.878  -0.613 -0.7723  1.3204  0.3886
  396MOL0     H52254   3.600   2.922  -0.505  0.1397  0.1948 -0.2554
  396MOL0     H52255   3.753   2.984  -0.350  1.1480 -3.1729  0.1188
  396MOL0     H52256   4.056   3.217  -0.201 -0.3953 -2.4612 -1.8591
  396MOL0     H52257   4.187   3.283  -0.023  1.1739  0.3077  0.7010
  396MOL0     H52258   4.107   4.018  -0.149 -0.7869 -1.9959 -0.5874
  396MOL0     H52259   3.918   4.019  -0.001  0.3975  1.1848 -0.2550
  396MOL0     H52260   3.815   3.793   0.419  0.7818  2.4775 -0.1386
  396MOL0     H52261   3.618   3.689   0.542 -2.5442 -1.8417 -2.6967
  396MOL0     H52262   3.345   3.976   0.657  0.6404  0.1324  0.4039
  396MOL0     H52263   3.325   3.848   0.777  3.9674 -2.7224 -0.6488
  396MOL0     H52264   3.177   3.850   0.513  3.1144 -1.2102 -0.3118
  396MOL0     H52265   3.112   3.763   0.652 -1.9984  0.0797  0.2621
  396MOL0     H52266   3.132   4.068   0.640  0.8603 -0.4233 -2.7074
  396MOL0     H52267   3.073   3.979   0.779 -1.6390  1.0143 -0.4341
  396MOL0     H52268   2.959   3.993   0.495 -3.8573  1.3784 -0.8757
  396MOL0     H52269   2.900   3.875   0.615  0.1060  1.4529  1.3630
  396MOL0     H52270   2.749   4.233   0.792 -2.1199  0.7263 -0.3434
  396MOL0     H52271   3.377   4.025   0.430 -0.2151  1.6005 -2.7155
  396MOL0     H52272   3.545   4.095   0.279 -0.8162 -0.7967  0.7342
  397MOL0     O52273   8.113   9.456   0.127 -0.1037  0.5642 -0.2228
  397MOL0     C52274   8.014   9.504   0.176  0.7366 -0.5353 -0.6142
  397MOL0     O52275   8.006   9.626   0.247  0.4305  0.0855 -0.0523
  397MOL0     C52276   8.114   9.708   0.232  0.0578 -0.7771 -0.2368
  397MOL0     C52277   8.214   9.713   0.332  0.1182 -0.6145  0.4642
  397MOL0     C52278   8.297   9.830   0.329  0.2141 -0.9471 -0.8700
  397MOL0     C52279   8.298   9.931   0.232  0.1386  0.9305  0.4045
  397MOL0     O52280   8.379  10.042   0.231 -0.9503 -0.9158  0.1287
  397MOL0     C52281   8.480  10.055   0.332  0.4880  0.1672  0.0156
  397MOL0     C52282   8.573  10.176   0.314  0.1919 -0.4402  0.7160
  397MOL0     C52283   8.705  10.123   0.246  0.2294  0.0563 -0.7837
  397MOL0     C52284   8.784  10.250   0.230 -0.4023 -0.2546  0.3803
  397MOL0     C52285   8.916  10.201   0.164  0.4403 -0.1065  1.4162
  397MOL0     C52286   9.017  10.312   0.194 -0.2337  0.3046 -0.3573
  397MOL0     C52287   9.147  10.314   0.104  0.0439 -0.1689  0.9670
  397MOL0     C52288   9.235  10.189   0.112  1.2327  0.2567  0.3834
  397MOL0     N52289   9.300  10.173   0.233  0.6966 -0.2011  0.0323
  397MOL0     C52290   9.252  10.101   0.340  0.3727  0.1723  0.1794
  397MOL0     C52291   9.352  10.092   0.429 -0.7581  0.5923  0.0331
  397MOL0     C52292   9.365   9.995   0.551 -0.3932 -0.5423  0.9691
  397MOL0     C52293   9.344  10.092   0.672 -0.4938  0.5072 -0.2976
  397MOL0     C52294   9.365  10.008   0.791 -0.2481 -0.0927 -0.2559
  397MOL0     C52295   9.384  10.094   0.917  0.1794 -0.5664  0.0517
  397MOL0     O52296   9.265  10.173   0.931 -0.3952 -0.1345  0.1736
  397MOL0     C52297   9.147  10.119   0.976 -0.1675 -0.1471  0.8063
  397MOL0     C52298   9.027  10.191   0.967  0.2356  1.0752  0.3512
  397MOL0     C52299   8.903  10.139   1.013 -0.6518 -0.7956  0.6020
  397MOL0     C52300   8.899  10.016   1.065 -0.7791  0.1663 -0.2000
  397MOL0     C52301   8.779   9.963   1.128 -1.4039  0.0751 -1.3256
  397MOL0     O52302   8.667  10.039   1.093  0.7162  0.1264  0.4265
  397MOL0     C52303   8.544  10.017   1.156 -1.4489 -1.1511  0.0537
  397MOL0     C52304   8.499   9.893   1.188 -0.7243  0.3410  0.0648
  397MOL0     C52305   8.376   9.877   1.251 -0.2574 -0.0574 -0.2619
  397MOL0     C52306   8.304   9.993   1.290  0.4587  0.1039 -0.5134
  397MOL0     O52307   8.187   9.968   1.360 -0.3481 -0.0035  0.5045
  397MOL0     C52308   8.079  10.035   1.286  0.6206  0.0325  0.6198
  397MOL0     C52309   7.954   9.977   1.353  0.3408 -0.3262  0.1325
  397MOL0     C52310   7.819  10.027   1.304  0.2252 -0.3974  0.2650
  397MOL0     C52311   7.709   9.956   1.374  0.1280  0.3447 -0.7383
  397MOL0     C52312   7.569   9.985   1.315  0.5560 -0.4671 -1.1892
  397MOL0     C52313   7.516  10.130   1.342 -0.4100 -0.1728 -1.7056
  397MOL0     C52314   7.363  10.140   1.334 -0.4077  0.3259 -0.5325
  397MOL0     C52315   7.320  10.140   1.185  0.4585  0.6029 -0.0522
  397MOL0    Cl52316   7.383  10.275   1.097  0.5768 -0.0117 -0.4102
  397MOL0     C52317   8.352  10.119   1.266 -1.1888  0.0169  0.5989
  397MOL0     C52318   8.477  10.134   1.198 -0.2948 -0.3726  0.1005
  397MOL0     O52319   8.789   9.881   1.224  0.0295 -0.1188 -0.5265
  397MOL0     C52320   9.023   9.941   1.075  0.3990  0.6474 -0.0183
  397MOL0     C52321   9.142   9.998   1.041 -0.7286  0.2913 -0.2405
  397MOL0     N52322   9.464  10.166   0.383  0.6572 -0.2269 -0.2844
  397MOL0     N52323   9.425  10.211   0.270  0.1460  0.0082  0.3823
  397MOL0     C52324   8.204   9.917   0.131  0.8877  0.4977  0.1556
  397MOL0     C52325   8.124   9.803   0.127 -0.9776  0.7764  0.0962
  397MOL0     C52326   7.887   9.426   0.192 -0.3892  0.7185 -0.4115
  397MOL0     C52327   7.785   9.448   0.279 -0.8579 -0.1046 -0.0200
  397MOL0     C52328   7.662   9.371   0.282 -0.1821 -0.4297 -0.3690
  397MOL0     C52329   7.642   9.265   0.192  0.3656  1.0713 -0.3486
  397MOL0     O52330   7.520   9.200   0.187  0.1365  0.5005  0.8303
  397MOL0     C52331   7.489   9.104   0.081  0.3405  0.0949  0.0169
  397MOL0     C52332   7.348   9.054   0.130 -0.5401 -0.3254 -0.1694
  397MOL0     C52333   7.245   9.157   0.117 -0.7531 -0.6593  0.5283
  397MOL0     C52334   7.110   9.097   0.123 -0.8492 -0.2085  0.0146
  397MOL0     C52335   7.003   9.190   0.103 -1.0212 -0.9467 -0.4037
  397MOL0     C52336   6.918   9.279   0.088 -0.1059 -0.3407 -0.6435
  397MOL0     C52337   7.756   9.220   0.127 -1.3873  0.7228  0.8045
  397MOL0     C52338   7.869   9.308   0.117  0.2710 -0.4338  0.3526
  397MOL0     H52339   8.220   9.642   0.413  1.0295  0.4114  1.3236
  397MOL0     H52340   8.354   9.852   0.418  1.5618  2.8871 -2.4419
  397MOL0     H52341   8.541   9.964   0.333 -0.9045 -0.8073  0.5445
  397MOL0     H52342   8.430  10.056   0.430 -3.1110  0.0919 -1.6467
  397MOL0     H52343   8.594  10.210   0.416 -3.5290  3.3560  0.5149
  397MOL0     H52344   8.533  10.271   0.277  2.4817  0.2437 -0.2565
  397MOL0     H52345   8.678  10.073   0.152 -0.6819  1.1263 -1.1029
  397MOL0     H52346   8.762  10.050   0.305  0.6541  0.0730 -1.1638
  397MOL0     H52347   8.728  10.322   0.170  0.6600 -0.0243 -0.3563
  397MOL0     H52348   8.792  10.293   0.330  0.1865 -0.1355  0.2900
  397MOL0     H52349   8.896  10.206   0.057  2.4141 -1.1972  0.9595
  397MOL0     H52350   8.956  10.102   0.188  1.0162 -0.5774 -1.1838
  397MOL0     H52351   9.054  10.306   0.297  0.0985 -0.2218 -0.5031
  397MOL0     H52352   8.969  10.410   0.187  0.3136  0.5042 -1.6676
  397MOL0     H52353   9.111  10.344   0.005 -0.1467 -0.6596  0.8814
  397MOL0     H52354   9.209  10.393   0.146 -0.1121 -1.0259  2.8940
  397MOL0     H52355   9.297  10.191   0.022  1.4274  0.1243  0.5123
  397MOL0     H52356   9.171  10.103   0.091 -0.0867  1.4651 -0.7582
  397MOL0     H52357   9.158  10.048   0.345  1.1668 -1.2007  1.4346
  397MOL0     H52358   9.468   9.960   0.549 -0.3916 -0.6258 -1.8014
  397MOL0     H52359   9.299   9.908   0.546 -0.1647 -0.6472 -2.2072
  397MOL0     H52360   9.244  10.135   0.668 -1.6121 -2.0241 -2.2238
  397MOL0     H52361   9.415  10.174   0.653 -0.5110 -0.0398 -3.2606
  397MOL0     H52362   9.281   9.939   0.802 -0.6597  0.3969 -0.2527
  397MOL0     H52363   9.456   9.950   0.773  0.1165  0.7877 -1.4088
  397MOL0     H52364   9.470  10.156   0.888 -0.6958  0.2272 -0.9571
  397MOL0     H52365   9.400  10.041   1.011 -3.4392 -0.2591  0.9889
  397MOL0     H52366   9.019  10.288   0.919 -0.1017  1.1428  0.5459
  397MOL0     H52367   8.820  10.209   1.024 -1.5740 -1.6660 -0.4762
  397MOL0     H52368   8.565   9.809   1.170  2.8815  2.6555  1.1935
  397MOL0     H52369   8.336   9.777   1.262 -0.3660  0.0758  0.6755
  397MOL0     H52370   8.072   9.993   1.185 -2.2197  0.5068  0.5351
  397MOL0     H52371   8.079  10.144   1.286 -0.5234  0.0693 -1.0036
  397MOL0     H52372   7.967  10.008   1.457  2.4800 -0.0769 -0.1608
  397MOL0     H52373   7.963   9.868   1.351  2.1543 -0.1927 -0.3814
  397MOL0     H52374   7.824  10.002   1.197  2.4343  1.6172 -0.1938
  397MOL0     H52375   7.823  10.136   1.313 -3.5804  0.1399 -2.3997
  397MOL0     H52376   7.729   9.849   1.371  0.0892  0.3270 -0.3759
  397MOL0     H52377   7.717   9.980   1.480  2.7806 -0.0960 -0.7718
  397MOL0     H52378   7.498   9.916   1.360 -0.7181  1.4561 -0.1345
  397MOL0     H52379   7.581   9.953   1.211 -1.1370  0.3164 -1.6534
  397MOL0     H52380   7.575  10.204   1.289 -1.7432  1.6432 -0.7893
  397MOL0     H52381   7.547  10.147   1.446  1.5010  2.0659 -2.5821
  397MOL0     H52382   7.318  10.052   1.381  1.6650  0.4530  1.8525
  397MOL0     H52383   7.319  10.227   1.383 -1.8850 -0.9035  0.4006
  397MOL0     H52384   7.211  10.145   1.182  0.3194 -1.3876  0.1757
  397MOL0     H52385   7.341  10.042   1.140 -0.5176  0.6584 -0.6328
  397MOL0     H52386   8.306  10.208   1.308  0.2285  0.4818  1.2196
  397MOL0     H52387   8.523  10.232   1.195 -2.5761  0.7934  0.6988
  397MOL0     H52388   9.021   9.850   1.134  0.1184  0.6347 -0.0448
  397MOL0     H52389   9.233   9.950   1.075  1.3601  5.0187  1.7363
  397MOL0     H52390   8.186   9.998   0.062 -0.9063 -0.4059 -0.4901
  397MOL0     H52391   8.043   9.793   0.054  0.0504 -1.5553 -0.8342
  397MOL0     H52392   7.789   9.539   0.338  2.7058 -0.1264 -0.0479
  397MOL0     H52393   7.578   9.402   0.344  0.2917  2.9663 -1.1928
  397MOL0     H52394   7.563   9.023   0.071  0.7117  0.5700 -1.1725
  397MOL0     H52395   7.489   9.149  -0.018  3.7164  0.6928  0.1458
  397MOL0     H52396   7.319   8.958   0.087 -1.0658 -0.9852  1.5741
  397MOL0     H52397   7.358   9.025   0.235  1.9235 -0.1407 -0.2886
  397MOL0     H52398   7.243   9.214   0.023 -1.0424 -3.3638 -1.1983
  397MOL0     H52399   7.241   9.233   0.196  0.0601  0.2391 -0.2579
  397MOL0     H52400   7.097   9.026   0.041 -3.4996  0.3903 -0.1803
  397MOL0     H52401   7.099   9.039   0.215 -1.7480 -1.1193 -0.6357
  397MOL0     H52402   6.845   9.355   0.064 -0.6159 -1.8188 -4.4471
  397MOL0     H52403   7.764   9.136   0.058 -2.7926 -1.8912  3.6181
  397MOL0     H52404   7.954   9.268   0.061 -1.3742 -1.9003 -1.2435
  398MOL0     O52405   4.057   2.594   5.519 -0.0036  0.3767  0.3945
  398MOL0     C52406   4.140   2.659   5.576 -0.2126 -0.3606 -0.3458
  398MOL0     O52407   4.118   2.732   5.690 -0.0608 -0.2450 -0.1869
  398MOL0     C52408   4.012   2.731   5.773 -0.0716  0.1587  0.0159
  398MOL0     C52409   3.955   2.611   5.804  0.3987  0.2343 -0.2411
  398MOL0     C52410   3.861   2.605   5.912 -0.0911 -0.0236 -0.3266
  398MOL0     C52411   3.817   2.721   5.973  0.1910 -0.7640 -0.4515
  398MOL0     O52412   3.724   2.728   6.070  0.0947  0.4967  0.0553
  398MOL0     C52413   3.615   2.634   6.059  0.8302 -0.0525 -0.0289
  398MOL0     C52414   3.614   2.530   6.178  0.2138  0.7101  0.1837
  398MOL0     C52415   3.495   2.432   6.167  0.0628 -0.6812  0.3551
  398MOL0     C52416   3.366   2.478   6.212 -0.1912  1.0185 -0.4202
  398MOL0     C52417   3.242   2.382   6.199 -0.3992 -0.3529 -0.0138
  398MOL0     C52418   3.129   2.420   6.294 -0.7134  0.0311 -1.0346
  398MOL0     C52419   3.080   2.565   6.293  0.1568 -0.2882 -0.4316
  398MOL0     C52420   3.008   2.600   6.438  0.3869  0.1110  0.2541
  398MOL0     N52421   2.906   2.509   6.478  0.8112  0.1018  0.3955
  398MOL0     C52422   2.781   2.497   6.423 -0.3851 -1.2142 -0.6887
  398MOL0     C52423   2.720   2.391   6.487 -0.5520  0.3983 -0.6255
  398MOL0     C52424   2.579   2.364   6.479  0.5231 -0.2966  1.0907
  398MOL0     C52425   2.513   2.453   6.582  0.3315  0.1453 -0.3130
  398MOL0     C52426   2.361   2.405   6.607  0.8154 -1.3108 -0.0426
  398MOL0     C52427   2.274   2.513   6.681  0.9043 -0.0581 -0.7447
  398MOL0     O52428   2.311   2.640   6.623 -0.0306 -0.0317 -0.1470
  398MOL0     C52429   2.222   2.746   6.650 -0.0058  0.1247 -0.1532
  398MOL0     C52430   2.231   2.853   6.560 -0.1587 -1.0020 -0.0607
  398MOL0     C52431   2.145   2.959   6.571 -0.1435  0.8484  0.4564
  398MOL0     C52432   2.048   2.964   6.668 -0.3874  0.3529  0.6669
  398MOL0     C52433   1.950   3.066   6.662 -0.2102 -0.4984  0.1607
  398MOL0     O52434   1.912   3.102   6.539 -1.1470  0.7547 -0.4464
  398MOL0     C52435   1.845   3.214   6.522  0.6641  0.5041  0.2916
  398MOL0     C52436   1.703   3.198   6.542  0.3894 -0.5284 -0.8208
  398MOL0     C52437   1.614   3.303   6.509 -0.8053  0.0537  1.0072
  398MOL0     C52438   1.660   3.429   6.474 -0.6344 -0.5499 -0.3982
  398MOL0     O52439   1.579   3.547   6.456 -0.5471  0.4152 -0.1841
  398MOL0     C52440   1.635   3.673   6.423 -0.2558 -0.5778  0.4409
  398MOL0     C52441   1.528   3.777   6.377  0.1454 -0.1197 -0.5561
  398MOL0     C52442   1.427   3.826   6.485  0.7521 -0.9769  0.2164
  398MOL0     C52443   1.330   3.721   6.519 -0.2294 -0.0945  0.6039
  398MOL0     C52444   1.210   3.777   6.598 -0.3097  0.0640  0.6058
  398MOL0     C52445   1.249   3.796   6.746 -0.6967  0.5206 -0.7355
  398MOL0     C52446   1.219   3.664   6.819  0.2732 -0.5035  0.1511
  398MOL0     C52447   1.231   3.690   6.974  1.2189  1.0151 -1.1020
  398MOL0    Cl52448   1.377   3.781   7.018 -0.0227  0.0618  0.2169
  398MOL0     C52449   1.799   3.440   6.449  0.3937 -0.1808 -0.2274
  398MOL0     C52450   1.892   3.336   6.473 -0.3438  0.0432 -0.5134
  398MOL0     O52451   1.935   3.130   6.763  0.0463 -0.0239 -0.0525
  398MOL0     C52452   2.039   2.857   6.767  0.3407  0.2302 -0.7255
  398MOL0     C52453   2.130   2.754   6.756  0.8835  0.1422  0.1482
  398MOL0     N52454   2.812   2.344   6.577  0.6088  1.0961  0.4271
  398MOL0     N52455   2.923   2.414   6.569  0.4496  0.9133  0.7000
  398MOL0     C52456   3.890   2.845   5.949  0.4121 -0.0660  0.4447
  398MOL0     C52457   3.983   2.847   5.847 -0.7601 -1.4716 -0.4172
  398MOL0     C52458   4.274   2.663   5.513 -0.3475 -1.0832  0.4285
  398MOL0     C52459   4.388   2.694   5.590 -0.3200  0.5313  0.9799
  398MOL0     C52460   4.516   2.685   5.525  0.2798 -0.5170  0.0654
  398MOL0     C52461   4.529   2.673   5.383  0.4097  0.1133  0.0165
  398MOL0     O52462   4.654   2.681   5.319  0.0738 -0.0640 -0.2137
  398MOL0     C52463   4.757   2.581   5.368  0.5103  0.0803  0.5311
  398MOL0     C52464   4.863   2.565   5.254 -0.1293  0.1975  0.7196
  398MOL0     C52465   4.843   2.454   5.145  0.3071 -0.0205  0.1771
  398MOL0     C52466   4.835   2.309   5.203 -0.1435 -0.4745  0.3420
  398MOL0     C52467   4.856   2.207   5.100  0.2905 -0.1016 -0.1558
  398MOL0     C52468   4.875   2.121   5.021 -0.8883 -0.0462 -0.0809
  398MOL0     C52469   4.408   2.655   5.303  0.7345 -0.4176 -0.3244
  398MOL0     C52470   4.280   2.652   5.365 -0.5136  0.3106 -0.5471
  398MOL0     H52471   3.986   2.518   5.757 -1.8105  0.0805 -1.4970
  398MOL0     H52472   3.819   2.508   5.937 -3.1556  1.4414  0.6217
  398MOL0     H52473   3.611   2.578   5.964  1.9515  0.5366 -0.4371
  398MOL0     H52474   3.520   2.688   6.054  1.5210  1.1033 -2.4149
  398MOL0     H52475   3.619   2.584   6.273  2.2830  1.7316 -0.4350
  398MOL0     H52476   3.704   2.470   6.160  0.3270  1.4194 -1.8370
  398MOL0     H52477   3.512   2.348   6.235  2.3556  0.0781  0.8272
  398MOL0     H52478   3.503   2.391   6.066  2.8099 -1.4365  0.7745
  398MOL0     H52479   3.381   2.497   6.319  0.9199  0.6125 -0.4951
  398MOL0     H52480   3.346   2.569   6.155  1.7054 -0.3205 -3.5095
  398MOL0     H52481   3.280   2.280   6.208  2.0165  0.4653 -0.2405
  398MOL0     H52482   3.203   2.388   6.097 -0.1294  0.3512 -0.0817
  398MOL0     H52483   3.177   2.407   6.392  3.0789  0.9603 -2.5939
  398MOL0     H52484   3.040   2.358   6.284 -2.1890  1.8900 -0.0285
  398MOL0     H52485   3.159   2.639   6.274 -0.0174 -0.2898 -1.1870
  398MOL0     H52486   3.013   2.575   6.208 -1.5030 -2.8907  0.4649
  398MOL0     H52487   2.973   2.704   6.438 -0.0980 -0.0481 -0.2213
  398MOL0     H52488   3.082   2.600   6.519  1.4446 -2.7613 -0.5706
  398MOL0     H52489   2.731   2.575   6.366  1.9092  0.6894 -0.2486
  398MOL0     H52490   2.552   2.263   6.512  2.3006 -0.8023  1.1511
  398MOL0     H52491   2.528   2.386   6.385 -2.5537 -1.3607  2.3864
  398MOL0     H52492   2.517   2.554   6.541  2.3376  0.4894  0.5966
  398MOL0     H52493   2.556   2.447   6.682 -0.3798  0.1416  0.0048
  398MOL0     H52494   2.315   2.374   6.512 -0.4576  1.7122 -0.5508
  398MOL0     H52495   2.355   2.317   6.670 -2.7429  0.7740  2.9748
  398MOL0     H52496   2.295   2.498   6.787  1.3158  0.7716 -0.7056
  398MOL0     H52497   2.167   2.493   6.678  0.5004  0.6925  3.2184
  398MOL0     H52498   2.301   2.850   6.478  0.1450 -0.2598  0.1664
  398MOL0     H52499   2.147   3.035   6.494 -2.3675 -0.8239 -1.4020
  398MOL0     H52500   1.674   3.096   6.567  0.5322  0.2130  2.8406
  398MOL0     H52501   1.506   3.302   6.501 -0.6970 -1.4466 -1.4945
  398MOL0     H52502   1.708   3.664   6.342  2.0828  2.1551  2.0764
  398MOL0     H52503   1.683   3.708   6.515 -1.8753  1.8755  0.4408
  398MOL0     H52504   1.483   3.745   6.283 -0.8083 -0.9672  0.1590
  398MOL0     H52505   1.594   3.857   6.344  1.7320 -1.5707 -1.0560
  398MOL0     H52506   1.369   3.914   6.456 -0.2681 -1.9861 -0.9061
  398MOL0     H52507   1.486   3.856   6.573 -2.2213  0.5204  1.8702
  398MOL0     H52508   1.294   3.682   6.423  1.0210 -2.7470  1.1151
  398MOL0     H52509   1.374   3.638   6.574 -4.1501 -2.7786  0.1508
  398MOL0     H52510   1.122   3.714   6.581 -0.5948  0.1257  1.7812
  398MOL0     H52511   1.200   3.876   6.552 -0.7491 -0.7043 -1.0542
  398MOL0     H52512   1.187   3.872   6.795 -0.7042 -1.2336  2.1538
  398MOL0     H52513   1.353   3.831   6.743 -0.5993  0.2047 -1.2061
  398MOL0     H52514   1.123   3.614   6.801  0.9838 -1.0498 -2.5898
  398MOL0     H52515   1.286   3.588   6.777  1.0126  1.4440 -2.4173
  398MOL0     H52516   1.219   3.596   7.030  0.4910  1.6941 -0.0849
  398MOL0     H52517   1.150   3.760   6.993  1.4345  0.8908  0.3695
  398MOL0     H52518   1.847   3.528   6.408  3.3580 -2.4254 -2.0100
  398MOL0     H52519   1.996   3.357   6.451  0.6192 -2.3261  1.3458
  398MOL0     H52520   1.966   2.863   6.847 -0.5003  3.2096 -1.5749
  398MOL0     H52521   2.110   2.676   6.830 -0.6141  0.5554  0.2047
  398MOL0     H52522   3.866   2.932   6.010 -0.0467 -1.6447  2.6253
  398MOL0     H52523   4.044   2.937   5.837  0.9294 -2.4775  0.4597
  398MOL0     H52524   4.382   2.698   5.698  0.6744 -1.1617  1.1337
  398MOL0     H52525   4.606   2.690   5.584 -0.2561 -1.7266  1.0157
  398MOL0     H52526   4.705   2.489   5.397  0.5695 -0.0275  0.2927
  398MOL0     H52527   4.816   2.622   5.451 -1.3794  1.8931  1.0596
  398MOL0     H52528   4.882   2.666   5.216 -1.8523  0.7443  1.2483
  398MOL0     H52529   4.961   2.547   5.300 -0.8463 -0.2523  2.1139
  398MOL0     H52530   4.925   2.461   5.073 -0.0287  1.6144 -0.0933
  398MOL0     H52531   4.751   2.482   5.093 -1.1796  0.0744  2.7093
  398MOL0     H52532   4.906   2.295   5.286  1.0464  0.0537 -0.5571
  398MOL0     H52533   4.733   2.297   5.239 -1.6651 -1.7293 -3.8452
  398MOL0     H52534   4.883   2.045   4.945  0.6685 -1.3851  1.3493
  398MOL0     H52535   4.415   2.665   5.196 -1.3636  4.2199 -0.2793
  398MOL0     H52536   4.181   2.659   5.322 -0.1862  2.1943 -1.1345
  399MOL0     O52537   8.669   4.819   9.988 -0.1380 -0.0616 -0.0979
  399MOL0     C52538   8.764   4.846   9.913  0.4557  0.3465  0.2068
  399MOL0     O52539   8.757   4.872   9.778 -0.4597  0.1509 -0.6769
  399MOL0     C52540   8.637   4.874   9.705 -0.7924  0.5277  0.3762
  399MOL0     C52541   8.502   4.884   9.758 -0.3187 -0.1005 -0.5992
  399MOL0     C52542   8.400   4.898   9.669 -0.4226 -0.1481 -0.1272
  399MOL0     C52543   8.422   4.914   9.530  0.8098 -0.4307  0.5824
  399MOL0     O52544   8.308   4.943   9.455  0.9997 -0.2860  0.2149
  399MOL0     C52545   8.307   4.970   9.311 -0.2089 -0.2087 -0.5959
  399MOL0     C52546   8.198   5.065   9.264 -0.2704  0.0802 -0.7659
  399MOL0     C52547   8.252   5.198   9.278 -0.0941  0.0066  0.0853
  399MOL0     C52548   8.152   5.302   9.242 -0.7272  0.2670 -0.5847
  399MOL0     C52549   8.185   5.450   9.248 -0.1661 -0.3631 -0.1651
  399MOL0     C52550   8.337   5.482   9.213 -0.4422  0.7326 -0.5488
  399MOL0     C52551   8.377   5.628   9.240  0.7769 -0.4666  0.2955
  399MOL0     C52552   8.515   5.667   9.184 -0.3014 -0.2472  0.6073
  399MOL0     N52553   8.606   5.704   9.296  0.5870  0.7887 -0.0163
  399MOL0     C52554   8.689   5.614   9.360 -1.4920  0.1072 -0.2827
  399MOL0     C52555   8.755   5.683   9.456 -0.5071 -0.2780 -0.4429
  399MOL0     C52556   8.850   5.608   9.550  0.3569 -0.6463  0.7206
  399MOL0     C52557   8.994   5.597   9.513 -1.0196 -0.4695  0.2484
  399MOL0     C52558   9.022   5.517   9.388  0.6505 -0.3716  0.5574
  399MOL0     C52559   9.163   5.490   9.369 -0.3925  0.7207 -0.1607
  399MOL0     O52560   9.203   5.419   9.490  0.4768  0.0673  0.6649
  399MOL0     C52561   9.309   5.341   9.485  1.0398 -0.1942 -0.2734
  399MOL0     C52562   9.416   5.356   9.397 -0.0256  0.3316 -0.7600
  399MOL0     C52563   9.532   5.277   9.415  0.2826  1.0852 -0.0584
  399MOL0     C52564   9.531   5.172   9.514  1.0616  0.6338 -0.1965
  399MOL0     C52565   9.653   5.117   9.543  0.4063 -0.0420 -0.4925
  399MOL0     O52566   9.764   5.195   9.521 -0.4507  0.6741 -0.5395
  399MOL0     C52567   9.890   5.154   9.558 -0.0973  0.4467  0.5351
  399MOL0     C52568   9.986   5.256   9.582  0.2976  0.4074 -0.4313
  399MOL0     C52569  10.114   5.222   9.602 -1.0535  0.9879 -0.0136
  399MOL0     C52570  10.165   5.090   9.585  0.2287  0.6958  0.8726
  399MOL0     O52571  10.297   5.059   9.569 -0.1725  0.3713  0.1660
  399MOL0     C52572  10.398   5.165   9.554 -0.0213 -0.8639  0.7472
  399MOL0     C52573  10.532   5.108   9.531  0.1351  0.8908 -0.3534
  399MOL0     C52574  10.549   5.051   9.393  0.1033  0.1413  0.3279
  399MOL0     C52575  10.701   5.022   9.379 -0.5556 -0.2441 -0.0533
  399MOL0     C52576  10.728   4.968   9.240  0.5638  0.6725 -0.7011
  399MOL0     C52577  10.846   4.856   9.227  0.6286 -0.2089 -0.2942
  399MOL0     C52578  10.889   4.839   9.078  0.1065 -0.4210  0.4688
  399MOL0     C52579  11.031   4.817   9.064  0.3817  0.0469 -0.7655
  399MOL0    Cl52580  11.148   4.929   9.133  0.2959  0.0784  0.2649
  399MOL0     C52581  10.075   4.993   9.562  0.0653 -0.0639 -0.1779
  399MOL0     C52582   9.938   5.019   9.542  0.0285 -0.8346 -1.2204
  399MOL0     O52583   9.649   5.005   9.598  0.1129 -0.0675  0.0277
  399MOL0     C52584   9.415   5.145   9.582  0.1277  0.5693  0.5476
  399MOL0     C52585   9.307   5.229   9.563  0.4641  0.5053  0.3070
  399MOL0     N52586   8.711   5.813   9.447 -0.1029 -0.1694  0.0177
  399MOL0     N52587   8.625   5.827   9.350  0.6080  0.5941  0.3074
  399MOL0     C52588   8.545   4.878   9.480 -0.1194  0.2681  0.0227
  399MOL0     C52589   8.657   4.857   9.563 -0.3529 -0.2768 -0.5879
  399MOL0     C52590   8.905   4.844   9.956 -0.1095  0.0341 -0.2340
  399MOL0     C52591   9.003   4.922   9.896  1.0630 -0.3327  0.6830
  399MOL0     C52592   9.138   4.913   9.941 -0.6743 -0.0413  0.2994
  399MOL0     C52593   9.171   4.839  10.051  0.2478  0.2785 -0.1544
  399MOL0     O52594   9.295   4.833  10.108 -0.7694  0.3665  0.6055
  399MOL0     C52595   9.401   4.898  10.031 -0.6015  0.0907  1.1591
  399MOL0     C52596   9.524   4.820  10.046  0.6138 -0.3605  0.2156
  399MOL0     C52597   9.513   4.676   9.993 -0.4109  0.4554 -0.4968
  399MOL0     C52598   9.468   4.674   9.841 -0.5082 -0.6958 -0.9261
  399MOL0     C52599   9.461   4.545   9.780  0.2188  0.8242  0.2417
  399MOL0     C52600   9.475   4.428   9.746 -0.1663 -0.4221  0.7027
  399MOL0     C52601   9.075   4.765  10.119  0.1357  0.7822 -0.1730
  399MOL0     C52602   8.939   4.780  10.078  0.3782  0.2192 -0.8289
  399MOL0     H52603   8.486   4.892   9.865 -1.0106 -4.2773 -0.2515
  399MOL0     H52604   8.301   4.920   9.708 -0.5668 -3.7802  1.9693
  399MOL0     H52605   8.284   4.875   9.262 -1.3196 -1.3557  1.9441
  399MOL0     H52606   8.407   4.999   9.275 -1.1368  0.6745 -2.6344
  399MOL0     H52607   8.108   5.034   9.317 -1.6665 -0.7812 -3.4795
  399MOL0     H52608   8.185   5.031   9.161 -1.9246 -3.4270  0.4473
  399MOL0     H52609   8.340   5.206   9.213 -0.3079  1.1001 -0.0970
  399MOL0     H52610   8.290   5.219   9.378  0.9086 -0.1091 -0.2576
  399MOL0     H52611   8.130   5.289   9.136  1.7017 -1.6946 -0.9405
  399MOL0     H52612   8.063   5.282   9.302  0.5017 -0.1044  1.1992
  399MOL0     H52613   8.172   5.483   9.352 -0.2180  0.2902 -0.3707
  399MOL0     H52614   8.123   5.519   9.190 -0.1884  1.5931  2.0142
  399MOL0     H52615   8.363   5.463   9.109 -0.0683  0.2660 -0.3728
  399MOL0     H52616   8.405   5.424   9.275  0.7328  2.6930  0.0809
  399MOL0     H52617   8.300   5.691   9.195  0.0760 -1.4828  0.0275
  399MOL0     H52618   8.368   5.654   9.346  0.7411  4.0287 -0.6013
  399MOL0     H52619   8.506   5.758   9.124 -1.3279 -1.2644 -0.8509
  399MOL0     H52620   8.556   5.582   9.128  3.0539  0.6019  1.5627
  399MOL0     H52621   8.709   5.509   9.337  4.0662  0.5605  1.1666
  399MOL0     H52622   8.814   5.507   9.570  0.1330 -0.4812  1.1849
  399MOL0     H52623   8.820   5.662   9.641 -2.5197 -0.1185 -0.4072
  399MOL0     H52624   9.043   5.564   9.606  0.1589 -0.4675 -0.3586
  399MOL0     H52625   9.039   5.695   9.493  0.0354 -1.2499 -1.3965
  399MOL0     H52626   8.970   5.421   9.396  1.6595 -0.7988  3.0476
  399MOL0     H52627   8.987   5.566   9.297  1.9470  1.2973  0.9119
  399MOL0     H52628   9.221   5.582   9.365  0.7208 -0.0010 -2.3400
  399MOL0     H52629   9.173   5.435   9.275  1.0008  1.2681 -0.3501
  399MOL0     H52630   9.421   5.445   9.334  1.2529 -1.1934 -2.9549
  399MOL0     H52631   9.627   5.298   9.367  0.9621  2.0901  1.6312
  399MOL0     H52632   9.962   5.362   9.582 -4.7514 -0.4271  0.9925
  399MOL0     H52633  10.190   5.299   9.613 -0.3529  0.6293 -2.0203
  399MOL0     H52634  10.401   5.233   9.640  1.7628 -1.1168  0.9323
  399MOL0     H52635  10.367   5.217   9.463  0.4096 -2.5265 -0.3876
  399MOL0     H52636  10.561   5.033   9.605  0.3932 -0.4050 -1.7123
  399MOL0     H52637  10.587   5.202   9.541  0.4153  0.7225 -0.2921
  399MOL0     H52638  10.515   5.120   9.316 -1.0811  1.0810  1.6529
  399MOL0     H52639  10.487   4.962   9.379 -0.8162  0.8267 -0.0447
  399MOL0     H52640  10.754   5.118   9.383 -0.4734 -0.3223  0.9542
  399MOL0     H52641  10.728   4.953   9.460 -1.6596 -1.0537 -0.3449
  399MOL0     H52642  10.740   5.046   9.165  0.6577 -0.7979 -2.2617
  399MOL0     H52643  10.636   4.923   9.202 -0.6140  1.7700  0.7257
  399MOL0     H52644  10.824   4.763   9.280 -2.0756  2.2067  3.4158
  399MOL0     H52645  10.928   4.902   9.283  1.7216 -2.2181 -0.1557
  399MOL0     H52646  10.829   4.763   9.027  0.0455  1.2321 -2.1280
  399MOL0     H52647  10.869   4.932   9.023 -2.7904 -1.3043 -0.1524
  399MOL0     H52648  11.056   4.792   8.961 -0.0456 -2.3228 -0.3392
  399MOL0     H52649  11.044   4.731   9.130 -1.6909  1.4303  1.6294
  399MOL0     H52650  10.107   4.889   9.554  0.2686 -0.2068  1.9419
  399MOL0     H52651   9.875   4.937   9.507 -0.0297 -1.5250  0.4320
  399MOL0     H52652   9.409   5.059   9.647  2.1421 -0.5206 -0.6061
  399MOL0     H52653   9.220   5.208   9.624 -1.4220  4.0041 -0.8983
  399MOL0     H52654   8.568   4.892   9.375  2.2044 -0.4381  0.3583
  399MOL0     H52655   8.757   4.853   9.521 -0.2766 -2.9556 -0.3254
  399MOL0     H52656   8.983   4.965   9.799 -1.7419 -0.7935  0.9628
  399MOL0     H52657   9.203   4.987   9.895 -0.2089  1.2798  2.9244
  399MOL0     H52658   9.419   4.999  10.070  0.7096 -0.2282  1.4459
  399MOL0     H52659   9.384   4.903   9.923  0.7013 -0.1584  0.9259
  399MOL0     H52660   9.599   4.877   9.990 -1.2652  0.2629 -1.7948
  399MOL0     H52661   9.551   4.831  10.151  2.1716  2.1748 -0.3661
  399MOL0     H52662   9.456   4.606  10.055  2.0619 -0.2243  1.1379
  399MOL0     H52663   9.613   4.634  10.001 -1.8129 -2.7828  3.5544
  399MOL0     H52664   9.369   4.720   9.837  0.8572  2.6715  0.1845
  399MOL0     H52665   9.530   4.741   9.780  0.2616  0.8764  1.4380
  399MOL0     H52666   9.481   4.328   9.709  1.3681 -0.0628 -0.1130
  399MOL0     H52667   9.100   4.699  10.202 -1.6189  1.1163  0.6593
  399MOL0     H52668   8.867   4.740  10.149 -0.2611  0.7425 -1.1742
  400MOL0     O52669   1.071   7.215   6.339  0.3042 -0.7500 -0.4363
  400MOL0     C52670   1.162   7.241   6.259  0.1990 -0.9522 -1.1694
  400MOL0     O52671   1.145   7.308   6.131 -0.4432  0.1567 -0.0779
  400MOL0     C52672   1.024   7.356   6.094  0.2118 -1.3993  0.0238
  400MOL0     C52673   0.910   7.278   6.060 -0.6551  0.7934 -0.0056
  400MOL0     C52674   0.792   7.345   6.017  0.2262 -0.6143  0.3480
  400MOL0     C52675   0.795   7.490   6.006  0.0115  0.5014  0.6656
  400MOL0     O52676   0.689   7.566   5.963 -0.3643 -0.0673 -0.0966
  400MOL0     C52677   0.562   7.499   5.934 -0.1438  0.2679  0.0202
  400MOL0     C52678   0.570   7.419   5.801 -0.0468  0.1644  0.0033
  400MOL0     C52679   0.488   7.498   5.693  0.1897 -0.1465 -0.5576
  400MOL0     C52680   0.453   7.424   5.564  0.2743  0.1634  0.2666
  400MOL0     C52681   0.568   7.343   5.502 -0.2131  0.5342  0.3136
  400MOL0     C52682   0.547   7.337   5.348  0.5408  0.0483 -0.5857
  400MOL0     C52683   0.655   7.254   5.278 -0.6470 -0.5140  0.4496
  400MOL0     C52684   0.790   7.320   5.265  0.4713  0.1605 -0.1203
  400MOL0     N52685   0.904   7.244   5.204 -0.2257 -0.3423  1.0934
  400MOL0     C52686   0.886   7.143   5.112 -0.0061  0.3910  0.0801
  400MOL0     C52687   1.013   7.105   5.081  0.5891 -0.2087  0.4002
  400MOL0     C52688   1.045   7.013   4.973 -0.0536 -0.4486 -0.4078
  400MOL0     C52689   1.080   6.876   5.026  1.1776 -0.7077 -0.0689
  400MOL0     C52690   0.977   6.807   5.109 -0.7200 -0.2066  0.5655
  400MOL0     C52691   0.848   6.781   5.030 -0.1225  1.3936 -0.4658
  400MOL0     O52692   0.763   6.893   5.015  0.8196 -0.3159 -0.0253
  400MOL0     C52693   0.652   6.909   5.101  0.3051  0.1680  0.8192
  400MOL0     C52694   0.536   6.972   5.057  0.2086 -0.2931 -0.4993
  400MOL0     C52695   0.429   7.007   5.147 -0.3178 -0.3291 -0.7460
  400MOL0     C52696   0.441   6.972   5.280  0.1795  0.4608  0.3670
  400MOL0     C52697   0.344   7.000   5.385 -0.0504 -0.6195  0.4179
  400MOL0     O52698   0.385   7.013   5.512 -0.0424 -1.2503 -0.0007
  400MOL0     C52699   0.298   6.992   5.610 -0.0660 -1.0005 -0.7997
  400MOL0     C52700   0.224   7.101   5.659  0.2457 -0.3120 -0.5442
  400MOL0     C52701   0.133   7.089   5.763 -0.3631  0.3471 -0.8996
  400MOL0     C52702   0.126   6.962   5.828 -0.4720 -0.0244  0.3901
  400MOL0     O52703   0.055   6.931   5.942  0.0626 -0.2539  0.2776
  400MOL0     C52704  -0.047   7.024   5.965 -0.1997 -0.5133  0.4415
  400MOL0     C52705  -0.151   6.963   6.061 -0.3109  0.3093 -0.6899
  400MOL0     C52706  -0.083   6.922   6.193  0.5295  0.3149 -0.2621
  400MOL0     C52707  -0.200   6.865   6.278 -0.3370  0.8714  0.1670
  400MOL0     C52708  -0.144   6.779   6.388 -0.2292 -0.4864 -0.0718
  400MOL0     C52709  -0.250   6.741   6.492 -0.1129  0.7482  0.2110
  400MOL0     C52710  -0.367   6.655   6.428  0.0858 -0.2759  0.3985
  400MOL0     C52711  -0.462   6.642   6.551  0.4072  0.6931 -0.0763
  400MOL0    Cl52712  -0.620   6.584   6.486  0.1869 -0.3007  0.0580
  400MOL0     C52713   0.203   6.859   5.780 -0.0860 -0.6918  0.2182
  400MOL0     C52714   0.279   6.870   5.665 -0.2563 -0.4532 -1.1227
  400MOL0     O52715   0.228   7.001   5.345  0.1472 -0.6363 -0.9877
  400MOL0     C52716   0.546   6.889   5.313  0.1874  1.1774 -0.3470
  400MOL0     C52717   0.653   6.862   5.228 -0.6811 -0.0894  0.2721
  400MOL0     N52718   1.104   7.185   5.155  0.1403 -0.3341 -0.1618
  400MOL0     N52719   1.034   7.259   5.232  0.7315 -0.4513  0.7236
  400MOL0     C52720   0.905   7.561   6.053 -0.2348 -0.0025 -0.6311
  400MOL0     C52721   1.021   7.499   6.092 -0.7650  0.8307  0.6200
  400MOL0     C52722   1.298   7.230   6.306 -0.7053  0.6915  0.8107
  400MOL0     C52723   1.404   7.277   6.232 -0.3653 -0.2348 -0.5265
  400MOL0     C52724   1.540   7.259   6.272  0.9408 -0.2727  0.2061
  400MOL0     C52725   1.570   7.188   6.391  0.6927 -0.5417 -0.6378
  400MOL0     O52726   1.701   7.190   6.443  0.4566  0.2869 -0.1335
  400MOL0     C52727   1.816   7.156   6.359  0.0348 -0.1855 -0.3160
  400MOL0     C52728   1.909   7.062   6.428 -0.6568 -0.1558 -0.5305
  400MOL0     C52729   1.961   7.129   6.555 -0.8839  0.2938 -0.0674
  400MOL0     C52730   2.119   7.107   6.572  0.8167 -0.5997 -0.0470
  400MOL0     C52731   2.170   6.969   6.550  0.4229 -0.6429  0.0579
  400MOL0     C52732   2.205   6.853   6.525 -0.0174 -0.3208  0.4241
  400MOL0     C52733   1.460   7.158   6.469 -0.9736 -0.1076  0.2424
  400MOL0     C52734   1.329   7.168   6.427 -0.1386 -0.1121  0.1781
  400MOL0     H52735   0.922   7.170   6.048  4.0295  0.2145  5.5155
  400MOL0     H52736   0.706   7.283   5.996  2.0775 -2.4872 -2.3283
  400MOL0     H52737   0.485   7.576   5.929 -0.4636 -0.1192 -1.2089
  400MOL0     H52738   0.535   7.445   6.025  1.6666  2.7295  2.1645
  400MOL0     H52739   0.524   7.325   5.834 -1.8926  1.6746  1.9931
  400MOL0     H52740   0.671   7.396   5.765 -1.0922 -2.7387 -1.3891
  400MOL0     H52741   0.551   7.583   5.666  4.0525 -2.9366 -1.1484
  400MOL0     H52742   0.390   7.527   5.732 -0.3355  0.1237 -2.0356
  400MOL0     H52743   0.373   7.357   5.596  0.8212 -0.8442 -0.3992
  400MOL0     H52744   0.412   7.493   5.490 -1.7347  0.9740  2.0461
  400MOL0     H52745   0.576   7.239   5.532 -0.8067  0.1791 -0.6972
  400MOL0     H52746   0.663   7.389   5.529  1.1332 -0.9328 -1.6619
  400MOL0     H52747   0.547   7.439   5.308 -2.5919  0.5915  0.4767
  400MOL0     H52748   0.452   7.284   5.336  2.3502 -3.0513 -2.1695
  400MOL0     H52749   0.659   7.160   5.333 -1.2277 -0.5729  0.3975
  400MOL0     H52750   0.612   7.238   5.179 -2.9220 -3.1866  1.7184
  400MOL0     H52751   0.823   7.347   5.366  0.8509  1.0796 -0.4824
  400MOL0     H52752   0.777   7.415   5.214  1.5358  0.6912  0.5605
  400MOL0     H52753   0.794   7.099   5.075  0.2430 -1.4913  1.5583
  400MOL0     H52754   1.126   7.055   4.912 -0.5356 -0.2086 -0.8901
  400MOL0     H52755   0.961   7.016   4.903 -0.0819  0.1082 -0.3573
  400MOL0     H52756   1.165   6.892   5.093 -0.0848  0.2053  1.3791
  400MOL0     H52757   1.106   6.817   4.937  0.5059 -1.1132  0.0030
  400MOL0     H52758   1.009   6.705   5.128 -0.0440 -0.6528 -2.4067
  400MOL0     H52759   0.964   6.865   5.201 -2.6503 -0.1379  0.2934
  400MOL0     H52760   0.795   6.700   5.082  4.3321 -0.9651  0.9594
  400MOL0     H52761   0.870   6.737   4.932  0.9458 -0.4608  0.5432
  400MOL0     H52762   0.527   6.990   4.950 -0.3854 -0.1278 -0.4288
  400MOL0     H52763   0.339   7.061   5.116  0.2561  0.4523 -1.0925
  400MOL0     H52764   0.233   7.201   5.618  0.2807  0.5166  1.4126
  400MOL0     H52765   0.089   7.183   5.793 -1.1557 -0.8513  2.0467
  400MOL0     H52766  -0.094   7.067   5.876  1.0353  1.1571  0.5539
  400MOL0     H52767  -0.010   7.114   6.013  1.0769 -2.3694  3.1584
  400MOL0     H52768  -0.208   6.885   6.009 -0.6403 -0.1048  0.2720
  400MOL0     H52769  -0.216   7.044   6.095 -2.8884 -1.5672 -0.8508
  400MOL0     H52770  -0.037   7.006   6.246 -1.0498  1.2063 -0.2456
  400MOL0     H52771  -0.008   6.844   6.176 -0.4399 -0.3375 -1.6592
  400MOL0     H52772  -0.251   6.945   6.333 -1.7888 -0.1833  0.4319
  400MOL0     H52773  -0.260   6.809   6.206  0.9739  0.8875 -0.9633
  400MOL0     H52774  -0.064   6.846   6.421 -2.0969  2.3416 -0.8962
  400MOL0     H52775  -0.092   6.688   6.355 -2.6723 -2.5614  1.4553
  400MOL0     H52776  -0.282   6.838   6.531 -0.7451  0.2795  0.8795
  400MOL0     H52777  -0.200   6.693   6.577 -0.4372 -3.2316 -1.6113
  400MOL0     H52778  -0.421   6.718   6.356  0.5530  3.5862  3.0972
  400MOL0     H52779  -0.341   6.556   6.389  1.7379 -0.5599  2.0942
  400MOL0     H52780  -0.467   6.738   6.604 -0.1797  0.3947  0.4195
  400MOL0     H52781  -0.414   6.570   6.617 -3.3154  0.9469  3.3135
  400MOL0     H52782   0.182   6.762   5.824  2.3697 -2.2575 -1.7807
  400MOL0     H52783   0.329   6.784   5.623  0.0105 -0.1232 -1.4788
  400MOL0     H52784   0.562   6.854   5.414  0.5719  1.8141 -0.1792
  400MOL0     H52785   0.730   6.797   5.269 -2.4782 -0.6265  3.1152
  400MOL0     H52786   0.903   7.669   6.063 -2.9364  0.0551 -1.0642
  400MOL0     H52787   1.107   7.557   6.125 -0.1447 -0.9772  2.4456
  400MOL0     H52788   1.383   7.313   6.132 -0.8855 -1.3877 -0.8375
  400MOL0     H52789   1.626   7.292   6.215  1.1556 -0.1011  0.6229
  400MOL0     H52790   1.866   7.250   6.333  0.1148 -0.0097  0.4446
  400MOL0     H52791   1.797   7.097   6.269 -1.1245 -1.1434  0.5217
  400MOL0     H52792   1.847   6.981   6.468 -0.8048  1.1093  2.0416
  400MOL0     H52793   1.994   7.030   6.368  2.6428  4.6754  0.9319
  400MOL0     H52794   1.909   7.087   6.642 -1.3003 -0.0710 -0.4895
  400MOL0     H52795   1.954   7.237   6.544 -2.2234  0.3576  1.1786
  400MOL0     H52796   2.180   7.181   6.520  0.8530  0.3648  1.3261
  400MOL0     H52797   2.141   7.133   6.676  1.1821  2.7400 -0.8545
  400MOL0     H52798   2.243   6.757   6.497 -0.3018 -0.4582  0.5092
  400MOL0     H52799   1.496   7.101   6.555  0.4204 -0.6665 -0.6747
  400MOL0     H52800   1.249   7.121   6.483 -0.0017  0.5294  0.9188
  401MOL0     O52801   9.764   1.965   9.143 -0.4066 -0.4144  0.3883
  401MOL0     C52802   9.774   1.922   9.252 -1.1673  0.1345  0.3008
  401MOL0     O52803   9.671   1.873   9.336 -0.1943  0.1906  0.0982
  401MOL0     C52804   9.542   1.914   9.330 -0.0090 -0.3207  0.9865
  401MOL0     C52805   9.501   2.037   9.275  0.8110 -0.6182 -0.3782
  401MOL0     C52806   9.369   2.082   9.283 -0.5327 -0.2052 -0.2119
  401MOL0     C52807   9.280   2.003   9.341  0.0637  0.5590 -0.6190
  401MOL0     O52808   9.150   2.035   9.355 -0.0204  0.5863 -0.1520
  401MOL0     C52809   9.098   2.150   9.280 -0.4719 -0.3106  0.0868
  401MOL0     C52810   8.950   2.163   9.308 -0.2909  0.4054 -0.6058
  401MOL0     C52811   8.907   2.168   9.452  0.6055 -0.5500  1.2345
  401MOL0     C52812   8.760   2.226   9.464 -1.0553  0.1483 -0.6107
  401MOL0     C52813   8.658   2.143   9.392 -0.3733 -0.2110 -0.1406
  401MOL0     C52814   8.516   2.159   9.452 -0.0182 -0.4785 -0.1184
  401MOL0     C52815   8.405   2.084   9.383 -0.6019  0.3760  0.8125
  401MOL0     C52816   8.402   2.098   9.227  1.0959  0.8071 -0.3910
  401MOL0     N52817   8.271   2.062   9.177  0.5288  0.5622 -0.5938
  401MOL0     C52818   8.188   2.165   9.154  0.1958 -0.1976 -0.0042
  401MOL0     C52819   8.095   2.117   9.068 -0.2311  0.3264  0.3521
  401MOL0     C52820   7.993   2.197   8.989 -0.4968  0.0930 -0.0918
  401MOL0     C52821   7.868   2.204   9.079  0.6946 -0.2310  0.8819
  401MOL0     C52822   7.745   2.215   8.993  0.8896  0.4098 -0.2777
  401MOL0     C52823   7.609   2.215   9.066  0.0467 -0.2409 -1.4019
  401MOL0     O52824   7.580   2.095   9.138 -0.6692 -0.3585 -0.3497
  401MOL0     C52825   7.462   2.098   9.210 -0.2405 -0.8037  0.4844
  401MOL0     C52826   7.480   2.031   9.329 -0.4777  0.1728 -0.1237
  401MOL0     C52827   7.391   2.056   9.434 -0.4731  0.4720  1.1630
  401MOL0     C52828   7.284   2.139   9.426  0.6343 -0.6029 -0.1821
  401MOL0     C52829   7.200   2.188   9.545 -0.1601  0.5094 -0.4152
  401MOL0     O52830   7.090   2.273   9.514  0.0332 -0.4256  0.5121
  401MOL0     C52831   7.003   2.310   9.609  0.6740 -0.4411 -0.2641
  401MOL0     C52832   6.863   2.318   9.585  0.2659  1.1225 -0.1264
  401MOL0     C52833   6.785   2.385   9.676  0.5370 -1.6773  0.2228
  401MOL0     C52834   6.838   2.452   9.786  0.1046 -1.3055 -0.5960
  401MOL0     O52835   6.741   2.519   9.861 -0.0206  0.0545 -0.2506
  401MOL0     C52836   6.771   2.576   9.990 -0.3201 -0.2763  0.7761
  401MOL0     C52837   6.678   2.689  10.002  0.8812 -0.5675  0.4179
  401MOL0     C52838   6.666   2.745  10.149 -0.8906  0.3624 -0.3272
  401MOL0     C52839   6.535   2.828  10.161 -0.4052  0.1913 -0.3696
  401MOL0     C52840   6.405   2.747  10.201  0.0342  0.9952  0.7199
  401MOL0     C52841   6.316   2.739  10.073 -0.0249  0.1121  0.0735
  401MOL0     C52842   6.214   2.623  10.076 -0.6351  0.3318 -0.6816
  401MOL0     C52843   6.107   2.643  10.191  0.0350 -0.1194 -0.6355
  401MOL0    Cl52844   6.158   2.587  10.354 -0.5986 -0.0669 -0.2168
  401MOL0     C52845   6.972   2.445   9.811 -0.2543  0.2082  0.5002
  401MOL0     C52846   7.055   2.377   9.717 -0.2323  0.0865 -0.8176
  401MOL0     O52847   7.249   2.169   9.658  0.3730  0.3962  0.5959
  401MOL0     C52848   7.260   2.202   9.299 -0.0758  0.0947 -0.7200
  401MOL0     C52849   7.357   2.183   9.194  0.2861 -0.6966 -1.1734
  401MOL0     N52850   8.121   1.982   9.043  0.0162 -0.4897  0.0864
  401MOL0     N52851   8.234   1.957   9.100  0.4229  1.4052 -0.1175
  401MOL0     C52852   9.309   1.880   9.401 -1.0102 -0.4774  0.2271
  401MOL0     C52853   9.442   1.834   9.386  0.5790  0.4432  1.0480
  401MOL0     C52854   9.912   1.904   9.293 -0.9111 -0.7912 -0.6502
  401MOL0     C52855  10.024   1.929   9.205  0.0890 -0.4675 -0.4421
  401MOL0     C52856  10.152   1.894   9.232 -0.3172 -0.5590 -0.5100
  401MOL0     C52857  10.192   1.855   9.365 -0.1611 -0.3717  0.3395
  401MOL0     O52858  10.326   1.834   9.390  0.3049 -0.2213 -0.0711
  401MOL0     C52859  10.365   1.841   9.526 -0.3229 -0.7551 -0.7212
  401MOL0     C52860  10.514   1.814   9.556  0.5345 -0.3044 -0.6848
  401MOL0     C52861  10.603   1.929   9.524  0.4347 -0.4164 -0.0951
  401MOL0     C52862  10.629   1.948   9.376  0.0282  0.9010 -0.8091
  401MOL0     C52863  10.710   1.839   9.323 -0.1010 -0.6766 -0.0441
  401MOL0     C52864  10.781   1.757   9.275 -0.4491 -0.3797 -0.0076
  401MOL0     C52865  10.083   1.828   9.459 -0.2089  0.3899 -0.6627
  401MOL0     C52866   9.948   1.853   9.415 -0.4202  0.8301 -0.1367
  401MOL0     H52867   9.577   2.102   9.235  0.7967  0.8256  1.7583
  401MOL0     H52868   9.352   2.181   9.242 -1.6151 -0.4414 -0.3519
  401MOL0     H52869   9.112   2.149   9.171 -0.7958 -1.8418  0.0399
  401MOL0     H52870   9.153   2.240   9.307  2.6476 -1.7482 -0.9705
  401MOL0     H52871   8.900   2.077   9.262  0.6802 -0.7364  0.4039
  401MOL0     H52872   8.924   2.258   9.260  1.9035  1.9117  0.9918
  401MOL0     H52873   8.963   2.244   9.508 -0.7752  0.0193  1.8741
  401MOL0     H52874   8.918   2.073   9.505  0.5723 -1.0922  0.2860
  401MOL0     H52875   8.750   2.242   9.571  1.9804 -0.6499 -0.1218
  401MOL0     H52876   8.772   2.330   9.431  1.2574  0.2535  0.4009
  401MOL0     H52877   8.684   2.037   9.387  2.5764  0.4017  0.3621
  401MOL0     H52878   8.662   2.184   9.290 -0.1629  1.8822  0.6597
  401MOL0     H52879   8.499   2.267   9.452  0.1238 -0.3724  2.9537
  401MOL0     H52880   8.527   2.144   9.560  1.9119  2.5185  0.2246
  401MOL0     H52881   8.404   1.976   9.401  0.6938  0.5636  2.1960
  401MOL0     H52882   8.310   2.125   9.418 -1.1260 -0.3794  0.3282
  401MOL0     H52883   8.460   2.016   9.184  0.5430 -0.0989  0.5394
  401MOL0     H52884   8.433   2.198   9.193  2.7930  0.6555  0.5868
  401MOL0     H52885   8.192   2.270   9.182 -1.3471 -0.4007  1.1251
  401MOL0     H52886   7.972   2.148   8.894  3.0671 -0.0372 -0.9651
  401MOL0     H52887   8.026   2.298   8.964 -0.8323  0.1104 -0.4683
  401MOL0     H52888   7.875   2.293   9.142  2.4309 -0.8778  1.6590
  401MOL0     H52889   7.862   2.120   9.148  1.2236 -1.1979 -0.2027
  401MOL0     H52890   7.763   2.296   8.921  2.0127 -1.6853 -2.5231
  401MOL0     H52891   7.744   2.115   8.949  1.7948 -0.7148  2.0669
  401MOL0     H52892   7.541   2.219   8.980  0.9254 -2.4294 -2.2615
  401MOL0     H52893   7.607   2.300   9.135 -0.1026 -3.2873  2.7532
  401MOL0     H52894   7.559   1.959   9.347 -1.6075 -1.2134 -0.5458
  401MOL0     H52895   7.415   2.012   9.530  0.7802  3.1734  2.2075
  401MOL0     H52896   6.837   2.270   9.491 -0.3257  0.8243  0.1901
  401MOL0     H52897   6.679   2.386   9.655  0.7469 -2.6223 -0.9791
  401MOL0     H52898   6.875   2.607  10.001 -0.3077  0.5275 -1.1662
  401MOL0     H52899   6.749   2.508  10.073 -0.4770 -0.8481  0.2717
  401MOL0     H52900   6.584   2.654   9.958  0.9340  0.8220 -0.8673
  401MOL0     H52901   6.722   2.766   9.938 -0.6173 -1.5519 -1.9328
  401MOL0     H52902   6.753   2.808  10.169 -1.2253  0.7343 -0.0326
  401MOL0     H52903   6.664   2.667  10.226  1.6658  2.1930  1.8179
  401MOL0     H52904   6.539   2.909  10.234 -0.2207  1.1873 -1.4498
  401MOL0     H52905   6.523   2.884  10.067  1.5155 -0.9601 -1.3660
  401MOL0     H52906   6.347   2.797  10.279  0.6395  0.6042  1.4221
  401MOL0     H52907   6.433   2.647  10.232 -0.8348  0.4387 -0.1970
  401MOL0     H52908   6.383   2.721   9.989  1.0251 -2.2310  1.3194
  401MOL0     H52909   6.260   2.831  10.056 -0.4610  0.0287  0.9785
  401MOL0     H52910   6.158   2.627   9.982 -0.8343  2.1529 -0.5207
  401MOL0     H52911   6.252   2.522  10.091 -0.6891  0.0451 -2.2830
  401MOL0     H52912   6.026   2.575  10.164  1.8868 -1.4272 -3.3728
  401MOL0     H52913   6.074   2.747  10.195  0.9189  0.1917 -1.2184
  401MOL0     H52914   7.023   2.498   9.891 -1.9345  1.7475  0.6237
  401MOL0     H52915   7.156   2.360   9.753 -1.1973 -3.2460  0.8083
  401MOL0     H52916   7.174   2.267   9.280 -1.8156 -2.3691 -1.8882
  401MOL0     H52917   7.336   2.230   9.098  3.1326 -1.0528 -2.0698
  401MOL0     H52918   9.236   1.822   9.457  2.2969 -2.7673  2.5327
  401MOL0     H52919   9.465   1.732   9.418 -1.5592  0.7582  3.9451
  401MOL0     H52920  10.002   1.971   9.108  0.1959 -3.4466 -1.8826
  401MOL0     H52921  10.214   1.906   9.144  1.1912 -3.0636  0.1216
  401MOL0     H52922  10.312   1.759   9.575 -0.3865 -0.6162 -0.5583
  401MOL0     H52923  10.341   1.941   9.565 -1.2405 -1.0552 -0.4790
  401MOL0     H52924  10.517   1.796   9.664 -1.8359  0.0298 -0.5000
  401MOL0     H52925  10.549   1.720   9.513  2.6855 -0.2456  0.7765
  401MOL0     H52926  10.703   1.921   9.568 -0.6854  1.3221  3.1241
  401MOL0     H52927  10.551   2.016   9.566 -3.1992 -2.8519  0.9759
  401MOL0     H52928  10.531   1.958   9.328 -1.0889  2.0522  1.5118
  401MOL0     H52929  10.686   2.041   9.364  0.8880  0.5700  0.5426
  401MOL0     H52930  10.848   1.681   9.241 -0.7139 -0.2071 -0.9375
  401MOL0     H52931  10.090   1.790   9.560  0.8389  0.1427 -0.8264
  401MOL0     H52932   9.868   1.843   9.488 -0.2579  5.5411  1.0368
  402MOL0     O52933   4.661   9.948   4.119 -0.6564  0.4874  0.2889
  402MOL0     C52934   4.632  10.063   4.106  0.0913  0.4197  0.2351
  402MOL0     O52935   4.500  10.108   4.117 -0.6346  0.5727  0.7887
  402MOL0     C52936   4.396  10.020   4.140 -0.2032 -0.4970  0.0410
  402MOL0     C52937   4.315  10.038   4.261 -0.1259  0.0867  1.4496
  402MOL0     C52938   4.215   9.943   4.285  0.1678 -0.3070 -1.1351
  402MOL0     C52939   4.167   9.860   4.190 -0.2943  0.2014 -0.1895
  402MOL0     O52940   4.059   9.786   4.205  0.3650  0.2582 -0.1632
  402MOL0     C52941   3.974   9.802   4.324 -0.5544  0.8194  0.3366
  402MOL0     C52942   3.853   9.709   4.301  0.7793  0.5553  0.1949
  402MOL0     C52943   3.730   9.743   4.385 -0.3143 -0.6444 -0.3031
  402MOL0     C52944   3.627   9.641   4.354 -0.0285  0.5794  0.3373
  402MOL0     C52945   3.501   9.688   4.431 -0.2208  0.1403  0.1975
  402MOL0     C52946   3.386   9.623   4.363  0.8393 -0.4061  0.0142
  402MOL0     C52947   3.253   9.659   4.435  0.2151 -0.2989  0.1853
  402MOL0     C52948   3.170   9.773   4.381 -0.2505 -0.3393  0.0288
  402MOL0     N52949   3.037   9.794   4.433 -0.2861  0.6459  0.4041
  402MOL0     C52950   2.923   9.743   4.374  0.3139 -0.8254 -1.0887
  402MOL0     C52951   2.818   9.787   4.457 -0.3193  0.7823  0.0371
  402MOL0     C52952   2.667   9.790   4.441 -0.4808  0.0808 -0.0861
  402MOL0     C52953   2.596   9.840   4.567  0.7317  0.1538  0.4273
  402MOL0     C52954   2.613   9.736   4.677 -0.5620  0.9585  0.5980
  402MOL0     C52955   2.526   9.607   4.662 -1.1838 -0.4138 -0.7539
  402MOL0     O52956   2.402   9.637   4.723  0.0255  0.8539 -0.2780
  402MOL0     C52957   2.302   9.560   4.672  0.7806 -0.1948  0.4743
  402MOL0     C52958   2.316   9.436   4.608  0.7010  0.1807 -0.1182
  402MOL0     C52959   2.211   9.357   4.562  0.1406  0.2515 -0.1815
  402MOL0     C52960   2.077   9.410   4.576  0.5976  0.9468  0.4086
  402MOL0     C52961   1.960   9.334   4.527  0.3823  0.5689  0.5657
  402MOL0     O52962   1.834   9.394   4.553 -0.4272 -0.2636  0.1291
  402MOL0     C52963   1.724   9.327   4.510  0.7351 -0.0692 -0.6411
  402MOL0     C52964   1.696   9.243   4.407  1.0370 -0.1159  0.8463
  402MOL0     C52965   1.567   9.195   4.379  0.1311 -0.2197  0.6195
  402MOL0     C52966   1.460   9.227   4.468  0.3377  0.7329 -0.6023
  402MOL0     O52967   1.338   9.168   4.435  0.2073 -0.6467  0.4873
  402MOL0     C52968   1.230   9.188   4.531  0.6492 -0.6997 -0.0505
  402MOL0     C52969   1.101   9.149   4.467  0.3256  0.2589  0.7041
  402MOL0     C52970   0.991   9.190   4.564 -0.3494 -0.1294 -0.9145
  402MOL0     C52971   0.856   9.176   4.508 -0.3359  0.2205  0.9687
  402MOL0     C52972   0.756   9.235   4.604  1.0440 -0.4492  0.2388
  402MOL0     C52973   0.617   9.211   4.553  0.1125 -0.1666 -0.2810
  402MOL0     C52974   0.504   9.234   4.658  0.8893 -1.0300  0.7592
  402MOL0     C52975   0.367   9.177   4.615 -0.1756  0.3600  0.4331
  402MOL0    Cl52976   0.258   9.220   4.746  0.0047  0.0616  0.6220
  402MOL0     C52977   1.490   9.296   4.585  0.4031 -0.0952  0.9347
  402MOL0     C52978   1.611   9.359   4.591  0.1808 -0.8415  0.3714
  402MOL0     O52979   1.971   9.226   4.472  0.5500  0.1079 -0.6583
  402MOL0     C52980   2.058   9.529   4.646  0.5737 -0.9435  0.3591
  402MOL0     C52981   2.168   9.599   4.687 -0.6865 -0.9808 -0.3514
  402MOL0     N52982   2.874   9.863   4.556  0.6150 -0.0434  0.2166
  402MOL0     N52983   3.008   9.875   4.539  0.0548 -0.7389 -0.4334
  402MOL0     C52984   4.240   9.841   4.074  0.5765  0.2950 -1.0106
  402MOL0     C52985   4.362   9.922   4.044  1.2833  0.1298 -0.2255
  402MOL0     C52986   4.732  10.159   4.074 -0.4486 -0.2620  0.0475
  402MOL0     C52987   4.691  10.289   4.025  0.7266  1.6784 -0.0369
  402MOL0     C52988   4.793  10.375   3.993 -0.4791 -0.2211  0.3904
  402MOL0     C52989   4.923  10.337   4.012 -0.0208 -0.1197 -0.2615
  402MOL0     O52990   5.010  10.439   3.986 -0.6569 -0.0840 -0.2511
  402MOL0     C52991   5.149  10.407   3.993 -0.0043 -0.5153 -0.2775
  402MOL0     C52992   5.225  10.539   3.985  0.9430 -0.1509  0.6224
  402MOL0     C52993   5.376  10.515   3.990  0.0647 -0.8814 -0.3589
  402MOL0     C52994   5.459  10.639   4.005  0.5172  0.1249 -0.8678
  402MOL0     C52995   5.599  10.597   4.024 -0.2031  0.0222 -0.3651
  402MOL0     C52996   5.708  10.576   4.059  0.5119 -0.0929  0.6511
  402MOL0     C52997   4.965  10.205   4.043  0.7265 -0.5428  0.2782
  402MOL0     C52998   4.866  10.120   4.084 -0.4041 -0.8294 -0.9202
  402MOL0     H52999   4.340  10.127   4.318  0.5948  1.1542 -0.4346
  402MOL0     H53000   4.157   9.951   4.376 -0.7591  2.9042 -1.8452
  402MOL0     H53001   3.944   9.906   4.337 -1.9267  1.1670 -4.0898
  402MOL0     H53002   4.013   9.752   4.414  0.2935 -1.0724 -1.0135
  402MOL0     H53003   3.881   9.606   4.326  0.2179 -0.3430 -2.5182
  402MOL0     H53004   3.837   9.714   4.193 -0.5635  1.7095  0.4234
  402MOL0     H53005   3.694   9.845   4.368  2.0719  0.1947 -0.8331
  402MOL0     H53006   3.756   9.736   4.491  5.5347 -0.9695 -1.4139
  402MOL0     H53007   3.620   9.637   4.245  1.0776  2.4868  0.1422
  402MOL0     H53008   3.646   9.542   4.394  1.1205  0.6583  0.0291
  402MOL0     H53009   3.495   9.797   4.423  5.8316  0.8354  0.4910
  402MOL0     H53010   3.513   9.661   4.536  1.1931  0.7962  0.2339
  402MOL0     H53011   3.400   9.514   4.374 -0.4522 -0.3911  2.6693
  402MOL0     H53012   3.376   9.661   4.261 -1.0939  1.8341  0.9629
  402MOL0     H53013   3.189   9.571   4.421  0.9476 -0.5821 -1.8350
  402MOL0     H53014   3.268   9.668   4.543  0.5609  5.0014 -0.0708
  402MOL0     H53015   3.159   9.773   4.273 -1.9079  0.1480  0.1668
  402MOL0     H53016   3.227   9.864   4.403 -1.4010  0.4630 -0.2510
  402MOL0     H53017   2.911   9.696   4.277 -1.2957 -1.7775 -0.4707
  402MOL0     H53018   2.621   9.695   4.410 -0.5881  1.0888 -3.4483
  402MOL0     H53019   2.639   9.861   4.363  0.2818 -1.1381 -1.5276
  402MOL0     H53020   2.491   9.860   4.546  0.7673  2.6188  2.1553
  402MOL0     H53021   2.643   9.936   4.591 -0.4158  1.0174 -0.6747
  402MOL0     H53022   2.717   9.706   4.693 -1.1725 -0.6163  2.0058
  402MOL0     H53023   2.584   9.777   4.774 -0.2262  3.2555 -0.2326
  402MOL0     H53024   2.577   9.531   4.722 -0.5650  2.1604  2.2324
  402MOL0     H53025   2.528   9.572   4.558  0.7455 -1.7903 -0.3091
  402MOL0     H53026   2.413   9.392   4.586  2.4665  3.1258  1.1156
  402MOL0     H53027   2.222   9.261   4.514 -1.5929  0.5323 -1.2585
  402MOL0     H53028   1.762   9.219   4.325 -2.1295  2.2870 -2.7881
  402MOL0     H53029   1.543   9.141   4.288 -2.3666 -0.5776  1.4075
  402MOL0     H53030   1.220   9.289   4.572 -0.0108 -1.0313  0.6057
  402MOL0     H53031   1.231   9.119   4.616 -3.3545 -0.9192 -0.0356
  402MOL0     H53032   1.091   9.044   4.437 -1.1922  0.8885 -1.1520
  402MOL0     H53033   1.087   9.197   4.370  0.6315 -0.8932  0.0686
  402MOL0     H53034   1.014   9.291   4.599  1.7507 -0.8122 -0.1672
  402MOL0     H53035   0.996   9.118   4.646  0.7359 -0.3257 -1.1365
  402MOL0     H53036   0.842   9.218   4.408  0.2469 -1.4243  0.1744
  402MOL0     H53037   0.838   9.069   4.496  0.6241  0.2281 -1.0108
  402MOL0     H53038   0.768   9.343   4.613  0.8534 -0.3820 -0.2415
  402MOL0     H53039   0.777   9.184   4.698  0.7742  1.3458  1.3063
  402MOL0     H53040   0.594   9.115   4.507 -0.0841 -0.1285 -0.2626
  402MOL0     H53041   0.614   9.284   4.472  2.1475 -0.3139 -0.5425
  402MOL0     H53042   0.540   9.196   4.754  2.9844 -0.2519  0.3461
  402MOL0     H53043   0.490   9.341   4.674 -1.2835 -1.1971  0.3275
  402MOL0     H53044   0.372   9.070   4.595  0.9470  0.8782 -2.6701
  402MOL0     H53045   0.330   9.231   4.527 -0.7845 -0.4280  0.1889
  402MOL0     H53046   1.411   9.319   4.656  1.4459  0.2901  2.0047
  402MOL0     H53047   1.625   9.432   4.671  2.2860 -1.1585  0.3552
  402MOL0     H53048   1.958   9.569   4.663  2.1419  2.3279  3.2735
  402MOL0     H53049   2.153   9.696   4.734  2.1477 -1.1358  1.1080
  402MOL0     H53050   4.218   9.774   3.992  2.3795  1.4871 -2.5617
  402MOL0     H53051   4.413   9.909   3.949 -2.6562  1.1606 -2.7488
  402MOL0     H53052   4.585  10.314   4.024  0.6201  1.2305 -0.1377
  402MOL0     H53053   4.772  10.474   3.954 -1.1641 -0.8485 -0.9035
  402MOL0     H53054   5.186  10.325   3.930  4.1379 -0.9993  2.3575
  402MOL0     H53055   5.178  10.370   4.092  1.0143  0.2540 -0.2639
  402MOL0     H53056   5.210  10.602   3.897  1.8396 -1.7753 -0.7632
  402MOL0     H53057   5.192  10.595   4.073  1.3613 -1.7494  1.8481
  402MOL0     H53058   5.412  10.477   3.894 -0.1634  1.5615 -1.4878
  402MOL0     H53059   5.404  10.444   4.069  1.1997  1.2991  1.2784
  402MOL0     H53060   5.452  10.701   3.916  0.4255 -0.7879 -1.5197
  402MOL0     H53061   5.430  10.698   4.092  0.4268 -0.5175 -0.4530
  402MOL0     H53062   5.808  10.546   4.083  0.8731  0.8001  0.3529
  402MOL0     H53063   5.072  10.187   4.045  0.8570 -1.0835 -3.7951
  402MOL0     H53064   4.896  10.023   4.121  0.8968 -0.4651 -0.9690
  403MOL0     O53065   4.197   2.262   1.008  0.3595  0.5919 -1.1386
  403MOL0     C53066   4.198   2.142   1.032 -0.4092  0.0809 -0.3812
  403MOL0     O53067   4.315   2.067   1.017  0.5060  0.1228 -0.9276
  403MOL0     C53068   4.431   2.148   1.007 -0.4363 -0.4485  0.3167
  403MOL0     C53069   4.484   2.223   1.114  0.3852 -0.2779 -0.4958
  403MOL0     C53070   4.612   2.273   1.111 -0.1661  0.1260  0.0808
  403MOL0     C53071   4.695   2.252   1.001  0.7936 -0.2671  0.4933
  403MOL0     O53072   4.826   2.299   0.996  0.6281 -0.4807  0.5467
  403MOL0     C53073   4.919   2.303   1.099  0.9130  0.0064 -0.2472
  403MOL0     C53074   5.022   2.193   1.088  0.6681 -0.1751 -1.1031
  403MOL0     C53075   4.965   2.053   1.051 -0.9288 -0.1441  0.2627
  403MOL0     C53076   4.898   1.985   1.173  0.6195 -0.9931 -0.8892
  403MOL0     C53077   4.805   1.869   1.132 -0.2570  0.6903 -0.1794
  403MOL0     C53078   4.746   1.809   1.261 -0.1873  0.0602  0.5606
  403MOL0     C53079   4.640   1.697   1.239  0.7631  0.8826  0.8774
  403MOL0     C53080   4.513   1.761   1.183  0.0681  0.5225  0.5483
  403MOL0     N53081   4.402   1.654   1.198  0.6829 -0.4720  0.1457
  403MOL0     C53082   4.341   1.625   1.315 -0.2631  0.4384 -0.4410
  403MOL0     C53083   4.256   1.529   1.288 -0.3330  0.7640 -0.1305
  403MOL0     C53084   4.153   1.475   1.378  1.0777  0.1662  0.2389
  403MOL0     C53085   4.185   1.320   1.397  0.4575 -0.1960 -0.3571
  403MOL0     C53086   4.069   1.241   1.463 -0.3848  0.0239  1.1737
  403MOL0     C53087   3.942   1.245   1.389  0.1182  0.6513 -0.4900
  403MOL0     O53088   3.865   1.123   1.419 -0.0190 -0.1888  0.6704
  403MOL0     C53089   3.750   1.133   1.500 -0.2819 -0.4609 -0.1190
  403MOL0     C53090   3.755   1.171   1.634 -0.2072 -0.2182  0.3344
  403MOL0     C53091   3.641   1.183   1.708  0.2888 -0.0312 -0.5910
  403MOL0     C53092   3.514   1.147   1.659 -0.1468 -0.0073  0.1780
  403MOL0     C53093   3.385   1.165   1.736  0.5740 -0.4700 -0.0596
  403MOL0     O53094   3.281   1.100   1.684  0.8389 -0.8435 -0.2655
  403MOL0     C53095   3.177   1.084   1.770  0.6820 -0.5348 -0.0860
  403MOL0     C53096   3.168   1.001   1.887 -0.0079 -0.4927 -0.2792
  403MOL0     C53097   3.055   0.996   1.972 -1.1500  0.8406  0.1954
  403MOL0     C53098   2.939   1.071   1.933  0.0300  0.4121  0.0079
  403MOL0     O53099   2.816   1.069   1.995 -0.4285  0.0846  0.4060
  403MOL0     C53100   2.820   1.092   2.135 -0.2582 -0.0558 -0.5690
  403MOL0     C53101   2.675   1.055   2.178 -0.2494  0.4529  0.3800
  403MOL0     C53102   2.647   1.078   2.333 -0.0757 -0.7383  0.3060
  403MOL0     C53103   2.688   1.209   2.396 -0.2097  0.2419 -0.0528
  403MOL0     C53104   2.643   1.336   2.342  0.4271  0.0131  0.3482
  403MOL0     C53105   2.489   1.342   2.365 -0.1131  0.3525  0.1836
  403MOL0     C53106   2.415   1.458   2.299 -0.4250  0.1203 -1.1309
  403MOL0     C53107   2.268   1.476   2.343 -1.0106 -0.2571  0.1207
  403MOL0    Cl53108   2.243   1.582   2.491  0.4035  0.1225 -0.5111
  403MOL0     C53109   2.943   1.139   1.809 -0.4763  0.8026  0.5249
  403MOL0     C53110   3.059   1.149   1.731  0.0883  0.0657  0.1340
  403MOL0     O53111   3.396   1.217   1.848  0.4121  0.2770 -0.1927
  403MOL0     C53112   3.511   1.099   1.529 -0.0548  0.8039  0.4143
  403MOL0     C53113   3.633   1.086   1.451  0.0429  0.2953 -0.2854
  403MOL0     N53114   4.268   1.501   1.160 -0.2430 -0.6456  0.3184
  403MOL0     N53115   4.358   1.574   1.102 -0.5523 -0.2963 -0.3544
  403MOL0     C53116   4.640   2.190   0.890 -0.8556 -0.2813 -0.3864
  403MOL0     C53117   4.514   2.142   0.897  0.8650  0.4563  0.0624
  403MOL0     C53118   4.082   2.079   1.101  0.0737  0.4040 -0.1311
  403MOL0     C53119   4.089   1.944   1.135  0.8176 -0.5741  0.7409
  403MOL0     C53120   3.979   1.878   1.194  0.0952 -0.0122  0.0800
  403MOL0     C53121   3.857   1.953   1.202 -0.4181 -0.1926  0.1546
  403MOL0     O53122   3.735   1.905   1.241 -0.7047 -0.0641  0.1523
  403MOL0     C53123   3.711   1.760   1.241 -0.0513  0.1068  0.2897
  403MOL0     C53124   3.559   1.758   1.259  0.0952 -0.9537  0.2641
  403MOL0     C53125   3.483   1.803   1.139  0.7948  0.2966  0.3682
  403MOL0     C53126   3.335   1.816   1.170 -0.7672 -0.1153 -0.2147
  403MOL0     C53127   3.259   1.710   1.246  0.0890 -1.2417  0.2862
  403MOL0     C53128   3.188   1.647   1.321  1.0249 -0.0388  0.5923
  403MOL0     C53129   3.852   2.091   1.176 -0.1632 -0.2873 -0.4562
  403MOL0     C53130   3.968   2.156   1.125 -1.0674  0.1479  0.5526
  403MOL0     H53131   4.422   2.242   1.202  2.2367  1.9094  0.4453
  403MOL0     H53132   4.633   2.336   1.196  0.1201  2.8247 -1.8653
  403MOL0     H53133   4.872   2.302   1.197  0.2087  0.3456 -0.5789
  403MOL0     H53134   4.980   2.393   1.085 -1.9892  2.4492  1.5188
  403MOL0     H53135   5.077   2.184   1.182  0.2394 -1.2902 -0.9336
  403MOL0     H53136   5.098   2.237   1.023 -1.7350  1.9595 -2.6755
  403MOL0     H53137   5.046   1.995   1.006  0.1139 -1.0626  3.1160
  403MOL0     H53138   4.890   2.062   0.971 -0.0915 -2.9545 -0.9624
  403MOL0     H53139   4.975   1.956   1.245 -0.7385  0.0060  1.0761
  403MOL0     H53140   4.845   2.059   1.234 -0.3432  0.3891 -3.2706
  403MOL0     H53141   4.858   1.801   1.065 -0.8672  1.3407 -1.3576
  403MOL0     H53142   4.716   1.903   1.079 -1.4391 -2.0249 -0.1049
  403MOL0     H53143   4.718   1.883   1.337 -1.3702 -0.3515  0.5360
  403MOL0     H53144   4.827   1.754   1.311 -2.0094 -1.6920  1.7208
  403MOL0     H53145   4.676   1.617   1.173 -2.5812  0.2289 -0.3496
  403MOL0     H53146   4.626   1.637   1.330  2.3981 -1.1250 -0.0879
  403MOL0     H53147   4.533   1.769   1.075  0.6704  0.3752  0.6435
  403MOL0     H53148   4.489   1.857   1.230 -2.1897 -0.1361  0.8338
  403MOL0     H53149   4.367   1.665   1.413 -1.1340  1.0909 -0.4746
  403MOL0     H53150   4.051   1.491   1.343  1.3897  2.1927  0.1296
  403MOL0     H53151   4.140   1.521   1.477 -0.2387 -2.4054  1.3546
  403MOL0     H53152   4.274   1.315   1.462  1.5279 -1.5472 -1.8494
  403MOL0     H53153   4.217   1.272   1.304  0.8278 -1.1505  0.2455
  403MOL0     H53154   4.108   1.140   1.478 -0.5986 -0.2509 -0.0173
  403MOL0     H53155   4.067   1.296   1.558 -1.1662  2.0397  0.0545
  403MOL0     H53156   3.967   1.243   1.282 -1.6520 -1.2903 -0.9359
  403MOL0     H53157   3.881   1.332   1.417 -2.0759 -1.0223  0.2565
  403MOL0     H53158   3.848   1.192   1.685  0.7566 -2.0964 -0.5576
  403MOL0     H53159   3.651   1.227   1.807 -2.6153  3.6911 -1.7173
  403MOL0     H53160   3.255   0.946   1.921  0.3412  0.8707  1.1831
  403MOL0     H53161   3.051   0.935   2.061 -0.7056  2.0302  1.0698
  403MOL0     H53162   2.842   1.194   2.167 -3.9203  1.1381 -1.3062
  403MOL0     H53163   2.888   1.025   2.189  1.3056  1.7418 -0.1913
  403MOL0     H53164   2.658   0.950   2.149  0.8038  0.5061 -0.5099
  403MOL0     H53165   2.608   1.116   2.116 -1.8907  1.8885  3.3563
  403MOL0     H53166   2.701   0.999   2.386 -0.0033 -2.9119 -2.7369
  403MOL0     H53167   2.541   1.058   2.350 -0.5973 -0.1002 -1.8778
  403MOL0     H53168   2.664   1.206   2.502 -0.6729  0.2663 -0.1572
  403MOL0     H53169   2.797   1.217   2.395 -0.0770 -1.2194  0.3242
  403MOL0     H53170   2.675   1.331   2.237 -0.6861 -0.6870  0.0320
  403MOL0     H53171   2.700   1.423   2.376  1.5411 -0.4467 -0.2869
  403MOL0     H53172   2.464   1.345   2.472 -0.5609 -0.9941  0.1350
  403MOL0     H53173   2.436   1.253   2.329 -1.0116  0.9412  0.0084
  403MOL0     H53174   2.473   1.549   2.315  0.5008 -0.5356 -0.6506
  403MOL0     H53175   2.413   1.439   2.191  3.0711  0.2947 -1.3666
  403MOL0     H53176   2.223   1.378   2.365 -1.3803  0.3155  2.1844
  403MOL0     H53177   2.210   1.520   2.262 -1.5672 -1.3467 -0.0922
  403MOL0     H53178   2.858   1.197   1.773  0.5330  1.4382 -0.9393
  403MOL0     H53179   3.059   1.212   1.643  0.0672 -1.2831 -0.8646
  403MOL0     H53180   3.421   1.071   1.474  1.5400  3.8282 -4.2913
  403MOL0     H53181   3.640   1.043   1.352 -0.7475 -0.6940  0.0787
  403MOL0     H53182   4.696   2.191   0.797 -1.9558 -0.1839 -1.0650
  403MOL0     H53183   4.462   2.094   0.815 -0.9839  2.4659 -0.0070
  403MOL0     H53184   4.182   1.892   1.114  1.0340 -0.4480  1.3588
  403MOL0     H53185   3.989   1.776   1.231  2.7122  0.2530  0.2918
  403MOL0     H53186   3.759   1.712   1.327 -0.8891  2.2706  2.0346
  403MOL0     H53187   3.740   1.720   1.143 -0.8400  2.0811 -0.7965
  403MOL0     H53188   3.522   1.660   1.288 -0.4647 -0.2574  2.0907
  403MOL0     H53189   3.544   1.814   1.352  4.0708 -2.4616  2.0513
  403MOL0     H53190   3.491   1.735   1.054 -0.8493  0.7760 -0.2125
  403MOL0     H53191   3.509   1.907   1.116 -1.0497  0.7957  0.3900
  403MOL0     H53192   3.320   1.919   1.203  1.3806 -0.3694  1.8531
  403MOL0     H53193   3.284   1.819   1.073 -0.2146  1.1861 -0.4872
  403MOL0     H53194   3.137   1.593   1.398  0.9055 -0.6236  0.1137
  403MOL0     H53195   3.770   2.157   1.203 -0.8244 -1.5074  0.6375
  403MOL0     H53196   3.960   2.264   1.111  0.4763  0.3803  1.1359
  404MOL0     O53197   5.258  11.088   2.199  0.4346  0.1600 -0.7337
  404MOL0     C53198   5.174  11.153   2.133  0.2174  0.5489  0.0554
  404MOL0     O53199   5.194  11.250   2.039  0.0682 -0.3573  0.8179
  404MOL0     C53200   5.307  11.291   1.981  0.6193  0.3424  0.0196
  404MOL0     C53201   5.337  11.427   1.962  0.7034  0.2326 -0.0464
  404MOL0     C53202   5.449  11.472   1.893 -0.4172  0.1146 -0.6736
  404MOL0     C53203   5.530  11.383   1.825  0.6040 -0.1421  0.1333
  404MOL0     O53204   5.617  11.413   1.724 -0.3985  0.1663  0.5763
  404MOL0     C53205   5.681  11.537   1.720  0.0586 -0.1872  0.0852
  404MOL0     C53206   5.819  11.526   1.782 -0.3733  0.2157  0.2055
  404MOL0     C53207   5.934  11.438   1.716 -0.0877 -0.8050  0.2215
  404MOL0     C53208   6.071  11.428   1.797  0.7461 -0.1894  0.4626
  404MOL0     C53209   6.129  11.561   1.851 -0.2174  0.5865  0.2980
  404MOL0     C53210   6.149  11.673   1.743  0.0485 -0.5777 -1.2659
  404MOL0     C53211   6.252  11.636   1.641  0.1307  0.2133 -0.1114
  404MOL0     C53212   6.305  11.760   1.552  1.0516  0.1457 -0.3955
  404MOL0     N53213   6.187  11.817   1.473 -0.1499 -0.3570 -0.0961
  404MOL0     C53214   6.113  11.925   1.507 -0.0036  0.1972  0.2824
  404MOL0     C53215   6.010  11.929   1.417  0.5532  0.1010  0.7889
  404MOL0     C53216   5.900  12.034   1.420  0.3519  0.6068  1.1335
  404MOL0     C53217   5.807  11.983   1.532 -0.0475 -0.2527 -0.4924
  404MOL0     C53218   5.703  11.873   1.487 -0.0438 -0.3082 -0.3816
  404MOL0     C53219   5.598  11.847   1.593 -0.0169 -0.5554 -0.7841
  404MOL0     O53220   5.502  11.748   1.558 -0.6088  0.4018 -0.3317
  404MOL0     C53221   5.384  11.730   1.631  0.7214  0.0619  0.0845
  404MOL0     C53222   5.356  11.806   1.743  1.1262 -0.1461 -1.1606
  404MOL0     C53223   5.234  11.779   1.815 -0.6307 -0.0716  0.0168
  404MOL0     C53224   5.138  11.685   1.765 -0.4855 -0.2825 -0.4854
  404MOL0     C53225   5.010  11.670   1.834  0.3498 -0.3570 -0.7812
  404MOL0     O53226   4.927  11.585   1.783  0.5973 -0.0141  0.7824
  404MOL0     C53227   4.810  11.560   1.848 -1.1597 -0.3651 -0.0143
  404MOL0     C53228   4.694  11.610   1.792  0.2121 -0.2213  0.4475
  404MOL0     C53229   4.577  11.598   1.866 -0.0387 -1.0118 -0.1649
  404MOL0     C53230   4.570  11.521   1.987  0.4868  0.1763  0.4162
  404MOL0     O53231   4.458  11.481   2.062 -0.0656 -0.4911 -0.6813
  404MOL0     C53232   4.334  11.523   2.004  0.1273 -0.4541 -0.9970
  404MOL0     C53233   4.211  11.505   2.098  0.3006 -0.5115  1.1524
  404MOL0     C53234   4.183  11.363   2.151  0.2578 -0.9287 -0.0422
  404MOL0     C53235   4.187  11.264   2.031  0.1535 -0.1813 -0.3047
  404MOL0     C53236   4.112  11.129   2.052  0.1209  0.1464  0.4334
  404MOL0     C53237   3.968  11.119   2.108 -0.5265 -0.0872 -0.6520
  404MOL0     C53238   3.879  11.212   2.033  0.4336 -0.2848 -0.5339
  404MOL0     C53239   3.744  11.142   2.000 -0.1046  0.5723 -0.8900
  404MOL0    Cl53240   3.749  11.036   1.853  0.2878  0.4442  0.1215
  404MOL0     C53241   4.688  11.463   2.031 -0.4928  0.1784  0.8134
  404MOL0     C53242   4.812  11.494   1.974  0.8146 -0.3029 -0.1123
  404MOL0     O53243   5.000  11.731   1.940  0.8586 -0.6239  0.4531
  404MOL0     C53244   5.173  11.611   1.652  0.5539  0.1859  0.2028
  404MOL0     C53245   5.294  11.634   1.588  0.8179  1.1566  0.1554
  404MOL0     N53246   6.026  11.819   1.333  0.8189  0.0601  0.9197
  404MOL0     N53247   6.133  11.749   1.366 -0.1991 -0.8420  0.1806
  404MOL0     C53248   5.505  11.253   1.849  0.4095 -0.0159  0.1012
  404MOL0     C53249   5.400  11.204   1.917  0.0547  0.4641  0.0285
  404MOL0     C53250   5.030  11.125   2.173 -0.4413  0.8776  0.1147
  404MOL0     C53251   4.925  11.163   2.085 -0.7066 -0.0560  0.3217
  404MOL0     C53252   4.790  11.139   2.123  0.7228  0.1958  0.1347
  404MOL0     C53253   4.757  11.074   2.241  0.3992 -1.0118 -0.8754
  404MOL0     O53254   4.630  11.048   2.273  0.3291 -1.0368  0.2413
  404MOL0     C53255   4.555  11.168   2.314  0.3797 -0.2966  0.8280
  404MOL0     C53256   4.413  11.124   2.317 -0.1402 -0.5452 -0.3129
  404MOL0     C53257   4.385  11.003   2.412 -0.3056 -0.1792  0.2808
  404MOL0     C53258   4.232  11.006   2.441 -0.1752  0.3075  0.9691
  404MOL0     C53259   4.191  10.882   2.507  0.1554  0.0070  0.7844
  404MOL0     C53260   4.163  10.785   2.572  0.5161  0.0484  0.2031
  404MOL0     C53261   4.861  11.045   2.329 -0.1490  0.2169  0.3306
  404MOL0     C53262   4.994  11.066   2.296  0.6688 -0.4361  0.2234
  404MOL0     H53263   5.268  11.484   2.023  0.5478  0.6159 -0.5718
  404MOL0     H53264   5.458  11.578   1.874  1.4393 -0.0389 -0.8453
  404MOL0     H53265   5.627  11.611   1.781 -0.2214  0.4946 -0.9631
  404MOL0     H53266   5.690  11.577   1.618 -0.5026  2.3736  0.9504
  404MOL0     H53267   5.813  11.479   1.881  2.1557  0.7794  0.6885
  404MOL0     H53268   5.857  11.627   1.804  2.0721 -1.0043  2.0930
  404MOL0     H53269   5.964  11.484   1.621 -0.1753 -2.1091 -0.4614
  404MOL0     H53270   5.912  11.335   1.688  2.3169 -1.5074  0.6426
  404MOL0     H53271   6.057  11.351   1.874 -4.5193 -1.0466 -0.9560
  404MOL0     H53272   6.143  11.397   1.721  3.1224  1.3470  1.9516
  404MOL0     H53273   6.229  11.545   1.894 -0.6015  2.5693  2.1250
  404MOL0     H53274   6.073  11.611   1.931 -0.4669  1.9445 -0.6845
  404MOL0     H53275   6.170  11.749   1.819 -2.3186 -0.9299 -0.1762
  404MOL0     H53276   6.053  11.698   1.698 -0.7582 -0.5305  0.4360
  404MOL0     H53277   6.333  11.595   1.702 -1.4040  0.3402  2.1537
  404MOL0     H53278   6.220  11.558   1.572  1.3163  0.7016 -1.2511
  404MOL0     H53279   6.385  11.733   1.482 -0.7085  2.2368 -3.4708
  404MOL0     H53280   6.346  11.837   1.618 -1.2158  1.2269 -0.1381
  404MOL0     H53281   6.128  11.995   1.589 -0.6086  0.8547 -0.1589
  404MOL0     H53282   5.860  12.040   1.318  3.4383  0.7173 -0.1805
  404MOL0     H53283   5.936  12.137   1.428 -3.0289  2.1624 -1.1683
  404MOL0     H53284   5.759  12.072   1.574  1.5094  1.5936 -2.3797
  404MOL0     H53285   5.869  11.938   1.610  0.5393 -1.4554 -1.6054
  404MOL0     H53286   5.640  11.911   1.406 -2.0429  1.7208  1.9633
  404MOL0     H53287   5.764  11.785   1.462 -0.5974 -0.5391 -0.9695
  404MOL0     H53288   5.549  11.945   1.601  0.5632  0.0355 -3.4575
  404MOL0     H53289   5.649  11.818   1.686 -2.7603 -0.7917  0.7624
  404MOL0     H53290   5.418  11.883   1.788 -0.9101  0.2754  1.1379
  404MOL0     H53291   5.216  11.835   1.907  1.1064  1.8355 -0.7225
  404MOL0     H53292   4.707  11.672   1.704  1.2056 -2.7287 -1.2884
  404MOL0     H53293   4.490  11.642   1.819 -0.7566  0.6976  2.5394
  404MOL0     H53294   4.321  11.462   1.914 -1.0482 -1.0402 -0.4422
  404MOL0     H53295   4.333  11.632   1.990 -1.2764  0.8404  5.6640
  404MOL0     H53296   4.133  11.562   2.047  2.7732  1.2753 -0.9218
  404MOL0     H53297   4.224  11.573   2.183 -1.4024 -1.8652  2.5644
  404MOL0     H53298   4.087  11.363   2.204 -1.6440  2.3927 -3.0348
  404MOL0     H53299   4.259  11.338   2.225  0.2506 -0.7140  0.0387
  404MOL0     H53300   4.142  11.322   1.950  0.6348  2.9301  1.4911
  404MOL0     H53301   4.290  11.250   1.998 -0.2716  0.0211 -1.8180
  404MOL0     H53302   4.178  11.064   2.109 -0.1050 -0.2807  0.2152
  404MOL0     H53303   4.122  11.081   1.954  0.3314  2.6326 -0.8471
  404MOL0     H53304   3.950  11.137   2.214 -0.6807  4.1541 -1.2526
  404MOL0     H53305   3.947  11.012   2.095 -0.6329 -0.1052 -0.3382
  404MOL0     H53306   3.865  11.305   2.088 -0.1835 -1.4589  1.3932
  404MOL0     H53307   3.924  11.239   1.937 -1.8144  1.0718 -1.2710
  404MOL0     H53308   3.674  11.223   1.977  1.2526  1.5289 -1.8087
  404MOL0     H53309   3.702  11.096   2.090 -2.3973  0.2786 -2.0387
  404MOL0     H53310   4.693  11.400   2.119  1.0983 -1.9127 -0.6628
  404MOL0     H53311   4.910  11.468   2.012  0.9242 -1.0814 -0.9124
  404MOL0     H53312   5.103  11.536   1.615  1.2360 -2.4095  3.6515
  404MOL0     H53313   5.311  11.579   1.496  2.7045  0.6287  0.7649
  404MOL0     H53314   5.565  11.178   1.799  1.3711  1.4737 -1.0812
  404MOL0     H53315   5.386  11.096   1.923 -1.0554  0.6683  3.0960
  404MOL0     H53316   4.949  11.222   1.997 -1.9698  1.0921  0.7199
  404MOL0     H53317   4.709  11.162   2.055  1.1179 -0.3598 -0.5408
  404MOL0     H53318   4.551  11.245   2.236  4.3444 -0.1220  0.5712
  404MOL0     H53319   4.582  11.206   2.413  2.8903 -1.3215  0.6185
  404MOL0     H53320   4.353  11.210   2.347 -3.4969 -2.6793 -0.4186
  404MOL0     H53321   4.374  11.116   2.215 -1.1548  2.2568 -0.2308
  404MOL0     H53322   4.442  11.022   2.503  0.1548  1.7707 -0.3627
  404MOL0     H53323   4.414  10.907   2.369 -0.8435 -0.5054  0.6382
  404MOL0     H53324   4.195  11.095   2.492 -1.0268 -1.0069  2.7454
  404MOL0     H53325   4.174  11.006   2.348  0.4635 -0.5897  0.5619
  404MOL0     H53326   4.147  10.695   2.629  0.1425  0.8460  1.4035
  404MOL0     H53327   4.844  11.003   2.427  0.2132  0.0087  0.3086
  404MOL0     H53328   5.075  11.045   2.365  1.2387  0.0124 -0.3004
  405MOL0     O53329  10.003   0.630  10.677 -0.4156 -0.5941 -0.0083
  405MOL0     C53330  10.100   0.700  10.644 -0.3777  0.1548  1.3186
  405MOL0     O53331  10.113   0.831  10.686 -0.7971 -0.8995  0.0827
  405MOL0     C53332  10.025   0.863  10.786 -1.4965  0.4771 -0.2013
  405MOL0     C53333  10.060   0.838  10.917  0.3318 -1.3589 -0.6424
  405MOL0     C53334   9.980   0.876  11.026 -0.5913  0.0038  0.0739
  405MOL0     C53335   9.854   0.926  10.997  0.7860  0.2764 -0.0811
  405MOL0     O53336   9.775   0.968  11.101  0.9344  0.8864  0.6785
  405MOL0     C53337   9.751   0.874  11.209  0.0367 -0.3342  1.1307
  405MOL0     C53338   9.697   0.949  11.328 -0.4592 -0.2936  0.5500
  405MOL0     C53339   9.558   1.001  11.308 -0.2415 -0.3943 -0.6558
  405MOL0     C53340   9.507   1.069  11.438  0.1077  0.7964 -0.7120
  405MOL0     C53341   9.369   1.110  11.429 -0.4241 -0.4029  0.3061
  405MOL0     C53342   9.339   1.217  11.538 -0.6597 -0.3398  0.5489
  405MOL0     C53343   9.190   1.239  11.562  0.9423 -0.2492 -0.8454
  405MOL0     C53344   9.165   1.387  11.574 -0.6805  0.8482 -0.0166
  405MOL0     N53345   9.028   1.425  11.604  0.1821 -0.0043 -0.2769
  405MOL0     C53346   9.007   1.532  11.689  0.5532  0.3024 -1.3284
  405MOL0     C53347   8.868   1.531  11.704 -0.2885  0.0253 -0.5111
  405MOL0     C53348   8.783   1.595  11.799  0.2636 -0.5704 -0.0519
  405MOL0     C53349   8.707   1.721  11.766 -0.2899 -0.1829  0.3263
  405MOL0     C53350   8.597   1.747  11.878  0.2996 -0.2548  0.7276
  405MOL0     C53351   8.518   1.879  11.867 -0.1982 -0.2038 -0.6457
  405MOL0     O53352   8.396   1.877  11.936  0.7732 -0.5039  0.3693
  405MOL0     C53353   8.282   1.816  11.879  0.0911  0.0489  0.1704
  405MOL0     C53354   8.266   1.762  11.751  0.2199  1.0107  0.5607
  405MOL0     C53355   8.142   1.723  11.711 -0.4921  0.7055 -0.0077
  405MOL0     C53356   8.022   1.749  11.774 -0.9688 -1.8375  0.4541
  405MOL0     C53357   7.888   1.703  11.724  0.1613  0.5323  0.3986
  405MOL0     O53358   7.889   1.646  11.599 -0.0536 -0.0685 -0.1435
  405MOL0     C53359   7.766   1.616  11.545 -0.8156 -0.3939 -0.7533
  405MOL0     C53360   7.720   1.688  11.436  0.0780  1.0500  0.1186
  405MOL0     C53361   7.611   1.645  11.373  0.3299  0.9130 -0.2128
  405MOL0     C53362   7.527   1.543  11.435  0.3979 -0.1475 -0.0002
  405MOL0     O53363   7.412   1.515  11.366 -0.1349 -0.3488  0.3333
  405MOL0     C53364   7.315   1.423  11.422 -0.7654  0.0970  0.4138
  405MOL0     C53365   7.237   1.490  11.535 -0.1166 -0.4318 -0.6427
  405MOL0     C53366   7.155   1.388  11.620  0.8985 -0.6725 -0.4997
  405MOL0     C53367   7.008   1.378  11.570 -0.0355 -0.1095  0.6888
  405MOL0     C53368   6.932   1.275  11.653  0.2844  0.5629  0.1401
  405MOL0     C53369   6.785   1.276  11.621 -0.2643  0.2478  0.3729
  405MOL0     C53370   6.717   1.180  11.718  0.1645  0.3540 -0.0066
  405MOL0     C53371   6.558   1.190  11.734 -0.3537 -0.1451  0.1035
  405MOL0    Cl53372   6.479   1.084  11.624  0.0483  0.3115  0.2563
  405MOL0     C53373   7.565   1.481  11.550 -0.4296  1.2529  0.1097
  405MOL0     C53374   7.687   1.515  11.607  0.0017 -0.6345 -0.6612
  405MOL0     O53375   7.788   1.728  11.786  0.1302 -0.1140  0.4611
  405MOL0     C53376   8.036   1.810  11.901  0.1988  0.1150  0.1789
  405MOL0     C53377   8.167   1.838  11.949 -0.2363 -0.5377 -0.4665
  405MOL0     N53378   8.815   1.427  11.634 -0.0381  0.5994 -0.3663
  405MOL0     N53379   8.909   1.380  11.558 -0.5444 -0.3015  1.0402
  405MOL0     C53380   9.829   0.967  10.866  0.5417  0.2335 -0.7244
  405MOL0     C53381   9.914   0.936  10.768 -0.4021 -0.6700  1.3042
  405MOL0     C53382  10.211   0.646  10.566  0.0706  0.3935 -0.2404
  405MOL0     C53383  10.343   0.695  10.579  0.5102 -0.3565 -0.4358
  405MOL0     C53384  10.458   0.624  10.528 -0.0896 -0.1264 -2.0812
  405MOL0     C53385  10.450   0.504  10.461 -0.1629 -1.2843  0.9945
  405MOL0     O53386  10.564   0.454  10.424  0.4622  0.0318  0.9734
  405MOL0     C53387  10.552   0.320  10.376 -0.4934 -0.3815 -0.4064
  405MOL0     C53388  10.702   0.291  10.350 -0.4649  0.2467  0.1744
  405MOL0     C53389  10.763   0.367  10.227  0.0786  0.3120  0.7736
  405MOL0     C53390  10.917   0.384  10.237 -0.4988  0.5032 -0.0696
  405MOL0     C53391  10.961   0.443  10.111 -0.8034 -0.6268  0.7442
  405MOL0     C53392  10.994   0.484   9.998  0.0556  0.4684  0.1851
  405MOL0     C53393  10.318   0.460  10.431  0.5793 -0.1183  0.0604
  405MOL0     C53394  10.196   0.523  10.489 -0.2814 -0.3180  1.1652
  405MOL0     H53395  10.148   0.787  10.953  0.0151  0.4392  3.1507
  405MOL0     H53396  10.011   0.845  11.126  1.9263 -0.2101 -0.6864
  405MOL0     H53397   9.839   0.811  11.224  1.2208  1.1470  0.6935
  405MOL0     H53398   9.675   0.803  11.176  0.4282 -0.1713 -0.1802
  405MOL0     H53399   9.776   1.018  11.362  0.2356  0.1391 -1.7730
  405MOL0     H53400   9.685   0.880  11.412 -1.1029 -0.8542  0.0004
  405MOL0     H53401   9.493   0.919  11.275 -1.1156 -0.7725  1.7831
  405MOL0     H53402   9.566   1.082  11.234  0.3098  1.3566  1.2371
  405MOL0     H53403   9.530   0.997  11.518 -1.9879  0.1918 -0.5994
  405MOL0     H53404   9.571   1.157  11.451 -1.0601  1.4190  1.2664
  405MOL0     H53405   9.298   1.031  11.456 -1.9243  1.6744  3.0154
  405MOL0     H53406   9.359   1.147  11.326 -0.3791  1.8087  1.0404
  405MOL0     H53407   9.387   1.306  11.496  0.2601 -1.4600 -0.8521
  405MOL0     H53408   9.378   1.181  11.634 -0.4436 -0.8796  0.2563
  405MOL0     H53409   9.121   1.210  11.482 -3.0462  1.0257  1.8171
  405MOL0     H53410   9.146   1.188  11.648  1.4363  1.2566  0.3470
  405MOL0     H53411   9.183   1.422  11.472 -1.6271  0.8903 -0.1759
  405MOL0     H53412   9.239   1.429  11.644  1.3799  2.0085 -2.7253
  405MOL0     H53413   9.075   1.586  11.754 -0.0432 -1.0015  0.4640
  405MOL0     H53414   8.843   1.615  11.888  1.1833  2.4820 -1.2200
  405MOL0     H53415   8.710   1.517  11.821  1.1616 -1.4953 -0.2935
  405MOL0     H53416   8.661   1.726  11.667 -2.5447  1.6871  1.3631
  405MOL0     H53417   8.784   1.799  11.772 -0.2406 -0.3088  1.5066
  405MOL0     H53418   8.521   1.668  11.876  0.5011 -0.4905  1.7180
  405MOL0     H53419   8.654   1.748  11.971  2.8225  0.1671 -0.7313
  405MOL0     H53420   8.510   1.902  11.761  0.6786  1.2396 -0.4261
  405MOL0     H53421   8.563   1.969  11.910 -2.5984  0.1144  1.4517
  405MOL0     H53422   8.355   1.733  11.696  0.2956  0.9597  0.7097
  405MOL0     H53423   8.135   1.666  11.619  1.4666 -1.7189  1.2207
  405MOL0     H53424   7.782   1.770  11.401 -0.7347  1.6369  0.0404
  405MOL0     H53425   7.584   1.696  11.281  4.4806  0.0962 -2.1206
  405MOL0     H53426   7.354   1.328  11.461  0.8497  0.7079  0.3562
  405MOL0     H53427   7.246   1.390  11.344 -0.1513 -2.3634  0.8237
  405MOL0     H53428   7.173   1.571  11.498 -2.2922 -3.4229 -4.2352
  405MOL0     H53429   7.305   1.538  11.605  0.7953  1.0515 -2.4774
  405MOL0     H53430   7.145   1.424  11.723 -0.2809 -1.5217 -0.3021
  405MOL0     H53431   7.203   1.290  11.613  1.1246 -0.5678 -0.4471
  405MOL0     H53432   6.967   1.477  11.588  5.5981  2.4220  1.7066
  405MOL0     H53433   7.004   1.365  11.461 -1.7984  1.7410  0.4876
  405MOL0     H53434   6.950   1.289  11.760  3.3269 -0.3312 -0.1617
  405MOL0     H53435   6.977   1.176  11.646 -1.0534 -0.0980  0.6345
  405MOL0     H53436   6.772   1.250  11.516 -1.9942  4.2284 -0.6016
  405MOL0     H53437   6.751   1.378  11.643 -2.1170 -0.2194 -0.1422
  405MOL0     H53438   6.747   1.078  11.689 -0.1157  0.4457 -0.6529
  405MOL0     H53439   6.757   1.199  11.817 -0.7845 -1.0814  0.6820
  405MOL0     H53440   6.519   1.290  11.715 -3.6524 -1.5202 -1.0258
  405MOL0     H53441   6.528   1.166  11.837  3.9744  0.4212  1.7492
  405MOL0     H53442   7.502   1.415  11.609 -0.9363  0.6245 -1.1124
  405MOL0     H53443   7.714   1.477  11.705 -0.9443 -1.9159 -0.8795
  405MOL0     H53444   7.943   1.845  11.944  0.8297  1.1244  0.8069
  405MOL0     H53445   8.169   1.878  12.050  0.6546 -0.2411 -0.5957
  405MOL0     H53446   9.739   1.025  10.853 -0.5604 -0.5821  2.3721
  405MOL0     H53447   9.900   0.978  10.669 -1.4392 -0.6225  1.4630
  405MOL0     H53448  10.352   0.788  10.635 -1.0065 -1.7163  2.2522
  405MOL0     H53449  10.554   0.667  10.554  0.7444 -2.8469 -0.2371
  405MOL0     H53450  10.490   0.309  10.287 -1.7991  0.5759  0.3478
  405MOL0     H53451  10.513   0.247  10.447  0.3179 -0.1863  0.2621
  405MOL0     H53452  10.756   0.309  10.444 -0.2689  2.8466 -0.3734
  405MOL0     H53453  10.714   0.183  10.337 -0.7717  0.1457  0.6882
  405MOL0     H53454  10.713   0.462  10.206  2.4268  1.2654 -1.0661
  405MOL0     H53455  10.737   0.316  10.134  1.1414 -2.1080  1.7130
  405MOL0     H53456  10.945   0.446  10.322  1.4384 -1.6510  0.9793
  405MOL0     H53457  10.956   0.286  10.265  2.5958  1.8229  0.6511
  405MOL0     H53458  11.036   0.506   9.902 -0.7182  1.0442 -0.0360
  405MOL0     H53459  10.301   0.374  10.367 -1.2721 -1.6194  2.3800
  405MOL0     H53460  10.093   0.493  10.474 -0.6435  0.9848  0.8605
  406MOL0     O53461   8.305   7.443   1.718 -0.5672  0.0618  0.4626
  406MOL0     C53462   8.298   7.500   1.607  0.0140 -0.7731  0.2718
  406MOL0     O53463   8.218   7.603   1.577  0.3689  0.8442 -0.4890
  406MOL0     C53464   8.125   7.652   1.673 -0.4447 -0.3652  0.1391
  406MOL0     C53465   8.142   7.783   1.713  0.1102  0.8161 -0.0634
  406MOL0     C53466   8.058   7.840   1.795  0.1943 -0.1409 -0.1455
  406MOL0     C53467   7.945   7.776   1.840  0.0859  0.5593 -0.6939
  406MOL0     O53468   7.851   7.832   1.913 -0.4834 -0.7294  0.0920
  406MOL0     C53469   7.720   7.813   1.862 -0.1099  0.4114 -0.6793
  406MOL0     C53470   7.624   7.899   1.946  1.0712  0.2084  0.5995
  406MOL0     C53471   7.625   8.048   1.906  0.6302 -0.0997  1.1083
  406MOL0     C53472   7.563   8.075   1.772  0.0707 -0.3894  0.1238
  406MOL0     C53473   7.403   8.068   1.780 -0.9631 -0.3820 -0.4872
  406MOL0     C53474   7.331   8.060   1.654  0.0397 -0.7173 -0.0009
  406MOL0     C53475   7.176   8.060   1.678  0.3729 -0.6350 -0.1507
  406MOL0     C53476   7.113   8.175   1.764  0.1920 -0.3237  0.7841
  406MOL0     N53477   6.971   8.187   1.719 -0.3176  0.5216  0.1977
  406MOL0     C53478   6.931   8.214   1.592 -0.3891 -0.7235  0.0559
  406MOL0     C53479   6.805   8.248   1.619 -0.2122 -0.4567  0.1794
  406MOL0     C53480   6.710   8.285   1.507  0.2345 -0.3647 -0.2639
  406MOL0     C53481   6.653   8.418   1.531  0.4663  0.3953 -0.7019
  406MOL0     C53482   6.525   8.429   1.441 -0.4401  0.7805  0.6835
  406MOL0     C53483   6.402   8.335   1.448  0.8952 -0.2055 -0.7153
  406MOL0     O53484   6.374   8.294   1.581 -0.5009 -0.4386  0.2143
  406MOL0     C53485   6.293   8.179   1.598  0.0136 -0.3482 -0.2529
  406MOL0     C53486   6.191   8.137   1.503  0.4776 -0.4084 -0.5996
  406MOL0     C53487   6.100   8.031   1.526  0.0778 -0.3007 -0.9897
  406MOL0     C53488   6.129   7.944   1.638  0.1852  0.2457  0.2913
  406MOL0     C53489   6.051   7.821   1.666  1.1382  0.4576 -0.1018
  406MOL0     O53490   5.963   7.781   1.564 -0.5501  0.6029  0.3389
  406MOL0     C53491   5.917   7.650   1.571  0.4777 -0.2909 -0.1956
  406MOL0     C53492   5.948   7.551   1.471  0.0330 -0.0199 -0.8262
  406MOL0     C53493   5.914   7.418   1.505 -0.0169 -0.0990  0.2872
  406MOL0     C53494   5.832   7.383   1.614  0.3006 -0.4801 -0.0607
  406MOL0     O53495   5.776   7.266   1.641 -0.1268  0.4168 -1.1173
  406MOL0     C53496   5.725   7.185   1.526  0.1997  0.1514 -0.6415
  406MOL0     C53497   5.771   7.041   1.545 -0.0496 -0.3024  0.9861
  406MOL0     C53498   5.925   7.023   1.525  0.7884  0.5458  0.1015
  406MOL0     C53499   5.962   6.874   1.561  0.7885  0.2592 -0.4800
  406MOL0     C53500   6.104   6.826   1.543  0.4760  0.3715  0.6135
  406MOL0     C53501   6.120   6.790   1.397  0.2011 -0.2974  0.0253
  406MOL0     C53502   6.263   6.779   1.368 -0.8285 -1.0266 -0.1972
  406MOL0     C53503   6.273   6.696   1.244  0.1567  0.6689  0.1778
  406MOL0    Cl53504   6.440   6.648   1.227 -0.4509  0.0468  0.1776
  406MOL0     C53505   5.796   7.485   1.704  0.2758 -0.8826  0.5135
  406MOL0     C53506   5.851   7.612   1.694  0.7785 -0.3335  0.0588
  406MOL0     O53507   6.091   7.753   1.763  0.1041  0.0229 -0.0268
  406MOL0     C53508   6.242   7.978   1.726  1.1333  0.5927  0.1179
  406MOL0     C53509   6.310   8.099   1.708 -0.0902 -0.4339  0.7514
  406MOL0     N53510   6.765   8.252   1.753 -0.5343  0.3729  0.5714
  406MOL0     N53511   6.864   8.194   1.806 -0.9608  0.4830 -0.3405
  406MOL0     C53512   7.939   7.636   1.821 -0.3164 -0.0388  0.7451
  406MOL0     C53513   8.022   7.578   1.725  0.2888  0.0455  0.9706
  406MOL0     C53514   8.394   7.461   1.505  1.2063  0.1135 -0.3910
  406MOL0     C53515   8.522   7.420   1.527  0.3454 -0.0424  0.3309
  406MOL0     C53516   8.606   7.353   1.437 -0.5990 -0.5964 -1.2014
  406MOL0     C53517   8.571   7.340   1.304 -0.7795  0.5368  0.0506
  406MOL0     O53518   8.658   7.270   1.214 -0.1012 -0.7304 -0.5879
  406MOL0     C53519   8.602   7.262   1.081 -0.1817  0.2628  0.1444
  406MOL0     C53520   8.690   7.181   0.983  0.4529  0.9340 -1.1026
  406MOL0     C53521   8.744   7.043   1.042  0.6286 -0.3068 -0.0949
  406MOL0     C53522   8.849   6.999   0.937 -0.2081 -0.4063 -0.6768
  406MOL0     C53523   8.913   6.866   0.966 -0.0856  0.0655  0.4235
  406MOL0     C53524   8.978   6.763   0.979 -0.2228 -0.5363 -0.3753
  406MOL0     C53525   8.436   7.380   1.274  0.4262 -0.4074 -0.1978
  406MOL0     C53526   8.351   7.434   1.371 -0.6096  0.2853  0.5180
  406MOL0     H53527   8.216   7.840   1.657  2.1839 -0.8591  0.8340
  406MOL0     H53528   8.070   7.944   1.824 -0.0878  0.0293 -0.6356
  406MOL0     H53529   7.673   7.717   1.883 -2.8806  1.6467 -0.7667
  406MOL0     H53530   7.715   7.833   1.755 -2.1717  2.1400 -0.3269
  406MOL0     H53531   7.661   7.896   2.049  0.3595  0.7227  0.8807
  406MOL0     H53532   7.523   7.858   1.948  1.7213 -1.8782 -2.9233
  406MOL0     H53533   7.730   8.081   1.900  0.1923  1.2859  0.6768
  406MOL0     H53534   7.569   8.103   1.983  0.4442 -0.3812  1.1736
  406MOL0     H53535   7.588   8.177   1.741  1.5922 -0.5854  0.6549
  406MOL0     H53536   7.612   8.013   1.697  1.6844 -0.2720  1.0465
  406MOL0     H53537   7.370   8.157   1.835 -1.4009 -1.1999  0.6208
  406MOL0     H53538   7.378   7.979   1.838  1.1601  0.7860  2.4484
  406MOL0     H53539   7.361   7.964   1.613  2.4438 -1.2799  2.7263
  406MOL0     H53540   7.355   8.140   1.583 -0.1444 -1.3291 -0.7629
  406MOL0     H53541   7.141   8.052   1.574 -0.3744 -5.5199  0.2293
  406MOL0     H53542   7.136   7.963   1.711  0.3278  0.4366  3.2877
  406MOL0     H53543   7.174   8.258   1.729  3.2665 -2.5757  0.3592
  406MOL0     H53544   7.135   8.156   1.870  1.3636 -0.3041  0.5612
  406MOL0     H53545   6.991   8.198   1.504 -1.4951 -2.1898 -0.4689
  406MOL0     H53546   6.632   8.208   1.508 -0.9123  0.7619 -0.0163
  406MOL0     H53547   6.749   8.284   1.405 -1.9899  0.9798 -1.1929
  406MOL0     H53548   6.723   8.500   1.516  0.0164  0.9301  0.0421
  406MOL0     H53549   6.609   8.420   1.631 -0.9184 -0.1968 -1.2710
  406MOL0     H53550   6.487   8.532   1.439 -0.5905  0.7256  0.6354
  406MOL0     H53551   6.575   8.410   1.346 -0.5242  0.3697  0.7176
  406MOL0     H53552   6.411   8.249   1.381 -1.4682  0.0606 -1.4740
  406MOL0     H53553   6.316   8.396   1.416  0.7246  0.7304  1.3639
  406MOL0     H53554   6.187   8.205   1.419  1.8142 -0.3582 -0.6506
  406MOL0     H53555   6.012   8.012   1.467  0.4041 -0.9413 -1.2794
  406MOL0     H53556   6.015   7.570   1.388 -0.6611  0.7154 -1.2294
  406MOL0     H53557   5.952   7.336   1.445 -0.5399 -0.8606  0.9716
  406MOL0     H53558   5.772   7.218   1.433  1.1274  1.6867  0.3346
  406MOL0     H53559   5.616   7.193   1.523 -0.1275 -1.6137  2.3472
  406MOL0     H53560   5.716   6.970   1.481  0.1479  0.6292 -0.2438
  406MOL0     H53561   5.759   7.007   1.649  2.2397 -0.5460  1.2226
  406MOL0     H53562   5.995   7.082   1.585  0.1313  1.9416 -0.4486
  406MOL0     H53563   5.946   7.039   1.419  1.4508  1.8836  0.4145
  406MOL0     H53564   5.942   6.880   1.669  2.4648 -0.3478 -0.0958
  406MOL0     H53565   5.894   6.804   1.511 -0.6030  1.4987 -0.3805
  406MOL0     H53566   6.124   6.740   1.608 -0.3621  0.6665  1.2828
  406MOL0     H53567   6.171   6.903   1.583  0.8530  0.5838 -0.3865
  406MOL0     H53568   6.076   6.875   1.344 -1.1156  0.9409  2.9060
  406MOL0     H53569   6.078   6.689   1.390  0.6972 -0.6243  1.3793
  406MOL0     H53570   6.312   6.875   1.353  0.3706 -1.5426  0.3078
  406MOL0     H53571   6.309   6.730   1.454 -1.4232  0.6615  1.1284
  406MOL0     H53572   6.237   6.755   1.159 -0.0916  0.0654 -0.1481
  406MOL0     H53573   6.214   6.606   1.264  2.3740 -1.0819 -0.7013
  406MOL0     H53574   5.746   7.451   1.794  2.0967 -0.0301  1.9245
  406MOL0     H53575   5.836   7.685   1.773  1.0252  0.1074 -0.2985
  406MOL0     H53576   6.267   7.917   1.813 -1.1797  1.2789  1.3704
  406MOL0     H53577   6.375   8.129   1.789 -1.2615  1.8023  0.9268
  406MOL0     H53578   7.873   7.574   1.881 -1.4243  0.8226  0.4469
  406MOL0     H53579   8.002   7.474   1.701 -0.2663  0.1444  0.9878
  406MOL0     H53580   8.568   7.432   1.624  2.8271  1.1914 -0.9060
  406MOL0     H53581   8.695   7.307   1.479  0.8107  2.1890 -0.9524
  406MOL0     H53582   8.584   7.360   1.037 -0.5356 -0.1864 -0.7485
  406MOL0     H53583   8.502   7.218   1.089  0.1504 -0.6543 -0.6060
  406MOL0     H53584   8.644   7.158   0.887 -0.7693  0.2206 -0.3693
  406MOL0     H53585   8.778   7.244   0.966  2.8245 -0.9289  2.7719
  406MOL0     H53586   8.664   6.968   1.046 -1.1785  1.5121 -0.4697
  406MOL0     H53587   8.785   7.047   1.144  0.8346 -2.2305 -0.0520
  406MOL0     H53588   8.800   6.994   0.840  1.4070  1.1161 -1.6178
  406MOL0     H53589   8.933   7.069   0.930 -1.2115  0.8779 -0.2546
  406MOL0     H53590   9.046   6.681   0.980 -0.5056 -0.7716  0.8303
  406MOL0     H53591   8.405   7.375   1.170  2.0811 -1.4664 -0.6748
  406MOL0     H53592   8.250   7.464   1.345 -0.9662  1.2816  2.7773
  407MOL0     O53593   3.699   8.343   3.478 -0.3705 -0.2410  0.0610
  407MOL0     C53594   3.772   8.260   3.420  1.2335 -0.7738 -0.0096
  407MOL0     O53595   3.734   8.136   3.360  0.8618 -0.5796 -0.2180
  407MOL0     C53596   3.601   8.120   3.322 -0.6031  0.4060 -0.2699
  407MOL0     C53597   3.491   8.144   3.405  0.5746  0.0549  0.6043
  407MOL0     C53598   3.363   8.125   3.359  0.0041 -0.2835  0.0843
  407MOL0     C53599   3.336   8.063   3.237  0.4664  0.6691  0.3371
  407MOL0     O53600   3.208   8.030   3.189  0.2308  0.2965 -0.2224
  407MOL0     C53601   3.090   8.055   3.271 -0.3821 -0.0428 -0.2024
  407MOL0     C53602   3.039   7.943   3.358  0.2564  0.7740 -1.1574
  407MOL0     C53603   2.909   7.968   3.432  0.2074 -0.0850  0.5036
  407MOL0     C53604   2.904   8.099   3.516  0.6919 -0.2749 -0.4816
  407MOL0     C53605   2.873   8.092   3.669 -0.4154  1.3002  0.3896
  407MOL0     C53606   2.792   8.214   3.729 -0.0263 -0.2643  0.5605
  407MOL0     C53607   2.656   8.244   3.669 -0.7399 -0.2893 -0.5949
  407MOL0     C53608   2.563   8.160   3.751 -0.4429  0.1602 -0.4330
  407MOL0     N53609   2.433   8.133   3.676 -0.6003  0.5028 -0.0663
  407MOL0     C53610   2.328   8.221   3.682 -0.0810 -0.0079 -0.2304
  407MOL0     C53611   2.240   8.167   3.596  0.7537  0.7333  0.5726
  407MOL0     C53612   2.117   8.229   3.549  0.3810  0.0253 -0.8962
  407MOL0     C53613   1.998   8.134   3.551 -0.1998  0.6287 -0.0444
  407MOL0     C53614   1.883   8.189   3.465  0.6470 -0.6603 -0.7358
  407MOL0     C53615   1.899   8.154   3.320  0.2952  0.0374 -0.0503
  407MOL0     O53616   1.823   8.232   3.225  0.2502  0.6094 -0.3484
  407MOL0     C53617   1.679   8.218   3.213 -0.5014  0.1219 -0.2807
  407MOL0     C53618   1.604   8.110   3.279 -0.5598  0.1983 -0.1786
  407MOL0     C53619   1.464   8.106   3.254 -0.3628 -0.5670 -0.4844
  407MOL0     C53620   1.396   8.209   3.183  0.4803  0.2192  0.3710
  407MOL0     C53621   1.253   8.206   3.161 -0.5186  0.1963 -0.8624
  407MOL0     O53622   1.188   8.318   3.138 -0.4922 -0.2637 -0.8295
  407MOL0     C53623   1.064   8.333   3.104 -0.1759  0.0376  0.0524
  407MOL0     C53624   0.975   8.406   3.181  0.6225  0.3124 -0.0081
  407MOL0     C53625   0.843   8.435   3.134  0.5859  0.7108  0.1137
  407MOL0     C53626   0.805   8.379   3.009  0.5369  0.2787  0.4151
  407MOL0     O53627   0.681   8.425   2.970  0.2011  0.5450  0.5260
  407MOL0     C53628   0.626   8.378   2.843  0.4541 -0.1585 -0.2742
  407MOL0     C53629   0.502   8.453   2.796  0.0233  0.1404 -0.2619
  407MOL0     C53630   0.470   8.442   2.649  0.1102  0.1854  0.2768
  407MOL0     C53631   0.368   8.546   2.601  0.2463  0.4131 -0.1787
  407MOL0     C53632   0.433   8.649   2.511 -1.4506 -0.1942  0.3852
  407MOL0     C53633   0.351   8.787   2.512  0.0387  0.6454  0.1119
  407MOL0     C53634   0.403   8.895   2.419  0.6029  0.0496 -0.2376
  407MOL0     C53635   0.345   9.032   2.445 -0.2738 -0.4072 -0.3051
  407MOL0    Cl53636   0.447   9.152   2.356 -0.3391  0.3251  0.0644
  407MOL0     C53637   0.893   8.304   2.935 -0.4293  0.6278  0.3653
  407MOL0     C53638   1.020   8.275   2.984  0.7636  1.0748  0.0729
  407MOL0     O53639   1.193   8.097   3.180  0.6211 -0.3679 -0.8644
  407MOL0     C53640   1.469   8.315   3.132  0.2252  0.4840 -0.1588
  407MOL0     C53641   1.610   8.320   3.144  0.3434 -0.0938 -0.2407
  407MOL0     N53642   2.285   8.046   3.540 -0.0043 -0.1337  0.4964
  407MOL0     N53643   2.406   8.030   3.582  0.0189  0.2726  0.7657
  407MOL0     C53644   3.447   8.030   3.160  0.2292 -0.2499 -1.2530
  407MOL0     C53645   3.579   8.061   3.196  0.2267 -0.6309  1.0922
  407MOL0     C53646   3.920   8.260   3.426 -0.7046 -0.4863 -0.1894
  407MOL0     C53647   3.984   8.384   3.451 -1.0121  0.1928 -1.2562
  407MOL0     C53648   4.122   8.396   3.459  0.1992 -0.1975  0.1089
  407MOL0     C53649   4.207   8.286   3.458  0.0905  0.7065  0.3327
  407MOL0     O53650   4.344   8.308   3.470  0.1589  0.2798  0.4436
  407MOL0     C53651   4.437   8.192   3.446 -0.0773  0.4988 -0.6776
  407MOL0     C53652   4.581   8.231   3.472 -0.4728  1.1825 -0.2500
  407MOL0     C53653   4.688   8.123   3.441 -0.0536  1.0519  0.2759
  407MOL0     C53654   4.650   7.996   3.509 -0.5780  0.6107 -0.0721
  407MOL0     C53655   4.623   8.022   3.650 -0.0907 -0.3490  0.4751
  407MOL0     C53656   4.590   8.044   3.763 -1.2105 -0.1503  0.3296
  407MOL0     C53657   4.146   8.162   3.439  0.4174 -0.3410  0.2400
  407MOL0     C53658   4.003   8.152   3.422 -0.7284 -0.5298  0.1657
  407MOL0     H53659   3.500   8.180   3.506 -1.9783 -0.6406  1.1669
  407MOL0     H53660   3.276   8.144   3.421 -0.7445 -3.2299  0.1054
  407MOL0     H53661   3.009   8.068   3.199 -0.5000 -0.5602 -0.1681
  407MOL0     H53662   3.100   8.149   3.326  1.1578  0.3558 -1.1349
  407MOL0     H53663   3.116   7.911   3.428 -1.2644 -0.3473  0.0518
  407MOL0     H53664   3.023   7.858   3.291  1.2144 -0.6028  0.3083
  407MOL0     H53665   2.884   7.887   3.501 -0.1966 -0.7308 -0.3771
  407MOL0     H53666   2.831   7.979   3.356  1.0967  3.0752 -0.0862
  407MOL0     H53667   2.998   8.155   3.516  1.0943 -0.8989  1.0706
  407MOL0     H53668   2.821   8.155   3.471 -0.1624 -1.2902 -0.2153
  407MOL0     H53669   2.968   8.088   3.723  0.2336  0.1930 -0.7587
  407MOL0     H53670   2.813   8.005   3.693 -2.0348  1.9409 -1.1112
  407MOL0     H53671   2.852   8.305   3.716 -2.6655  1.4248 -0.4460
  407MOL0     H53672   2.776   8.212   3.837 -0.0909  0.3154  0.5647
  407MOL0     H53673   2.624   8.347   3.684 -0.9335 -0.1962 -1.5997
  407MOL0     H53674   2.643   8.217   3.564 -1.9807  2.4744 -1.2281
  407MOL0     H53675   2.546   8.190   3.854 -3.2724  1.4810 -1.1656
  407MOL0     H53676   2.597   8.056   3.759 -0.3022  0.3578  3.3157
  407MOL0     H53677   2.331   8.310   3.745  2.6871 -0.1228 -0.0672
  407MOL0     H53678   2.139   8.248   3.443 -1.3844  1.4213 -1.0567
  407MOL0     H53679   2.092   8.324   3.598 -4.1518 -0.6618 -1.4320
  407MOL0     H53680   1.965   8.120   3.654  0.0822 -2.2954 -0.2488
  407MOL0     H53681   2.027   8.033   3.520 -2.1175  0.1287 -0.3512
  407MOL0     H53682   1.793   8.145   3.508  0.4439 -0.1541 -0.6288
  407MOL0     H53683   1.866   8.296   3.481 -0.4969 -0.8799 -0.3845
  407MOL0     H53684   1.879   8.048   3.303  0.7257 -0.1895  0.8358
  407MOL0     H53685   2.003   8.161   3.288  0.2534  2.2356  0.1062
  407MOL0     H53686   1.652   8.034   3.340 -1.1834  1.1164  1.5269
  407MOL0     H53687   1.405   8.025   3.295 -0.9734 -0.3366 -0.8948
  407MOL0     H53688   1.005   8.437   3.281 -0.8559 -3.2836  1.7276
  407MOL0     H53689   0.783   8.498   3.198 -0.1522 -1.6426  1.8729
  407MOL0     H53690   0.612   8.270   2.856  0.0092 -0.0634  0.0713
  407MOL0     H53691   0.695   8.384   2.758 -0.2372 -1.3204 -0.9422
  407MOL0     H53692   0.508   8.559   2.820 -0.9546  0.0704  0.3540
  407MOL0     H53693   0.413   8.413   2.847 -0.2227  2.5051  1.3114
  407MOL0     H53694   0.430   8.341   2.638  1.6970 -0.5719  0.9882
  407MOL0     H53695   0.563   8.458   2.594 -1.0574  3.1335 -1.0760
  407MOL0     H53696   0.287   8.504   2.540 -0.4835 -1.0095  1.6547
  407MOL0     H53697   0.316   8.589   2.686  1.7196 -0.3910  1.1813
  407MOL0     H53698   0.445   8.615   2.407 -1.2943 -1.2382  0.7325
  407MOL0     H53699   0.530   8.679   2.553 -1.6224 -1.5142  1.8386
  407MOL0     H53700   0.347   8.820   2.616  0.0479 -0.0426  0.3386
  407MOL0     H53701   0.243   8.770   2.502  0.3314 -1.9320  0.5893
  407MOL0     H53702   0.512   8.904   2.429  0.6903 -0.8453 -0.3244
  407MOL0     H53703   0.371   8.865   2.319  1.0620 -3.0869  0.4550
  407MOL0     H53704   0.336   9.057   2.551  3.1018 -1.9567  0.4945
  407MOL0     H53705   0.245   9.027   2.399 -0.6142  0.4613  0.3159
  407MOL0     H53706   0.866   8.251   2.845  1.2394 -0.9248  0.7142
  407MOL0     H53707   1.091   8.217   2.925  0.4979 -0.0561  0.8240
  407MOL0     H53708   1.429   8.412   3.103  1.3062  0.9205 -0.2131
  407MOL0     H53709   1.668   8.399   3.097 -1.4104  1.0465 -0.5912
  407MOL0     H53710   3.430   7.976   3.068 -2.5566  0.8899 -1.4824
  407MOL0     H53711   3.664   8.052   3.129 -0.8046  2.3896 -0.8147
  407MOL0     H53712   3.927   8.476   3.457 -1.5608 -0.1773 -0.5640
  407MOL0     H53713   4.164   8.496   3.465  1.5471 -0.7435  0.1864
  407MOL0     H53714   4.429   8.153   3.344 -1.9557  4.7955 -2.4084
  407MOL0     H53715   4.411   8.111   3.515 -0.6772  0.9607 -0.3539
  407MOL0     H53716   4.606   8.317   3.410  2.0826 -0.8988 -2.3423
  407MOL0     H53717   4.587   8.262   3.577  1.6007 -0.2198  0.0907
  407MOL0     H53718   4.784   8.166   3.471  1.1441 -0.4807 -1.1566
  407MOL0     H53719   4.681   8.112   3.333 -2.8015  0.2086  0.4503
  407MOL0     H53720   4.571   7.936   3.462  2.3471 -2.7208 -1.1259
  407MOL0     H53721   4.734   7.927   3.501  0.8153  1.9396  2.0351
  407MOL0     H53722   4.558   8.064   3.864  1.8506  0.0839  1.3587
  407MOL0     H53723   4.202   8.069   3.442  0.8354 -0.1242 -0.4916
  407MOL0     H53724   3.954   8.055   3.419  0.7733 -1.2977 -1.8164
  408MOL0     O53725   4.291   0.779   9.858 -0.8136  0.3213 -0.3841
  408MOL0     C53726   4.318   0.665   9.883  1.7755 -0.3737  0.6478
  408MOL0     O53727   4.226   0.568   9.877 -0.2956  0.2823  0.0550
  408MOL0     C53728   4.090   0.593   9.864  0.4926 -0.9002  0.3872
  408MOL0     C53729   4.013   0.514   9.770  0.4229  0.1957  0.6867
  408MOL0     C53730   3.880   0.535   9.751 -0.0762 -0.1578 -0.3479
  408MOL0     C53731   3.816   0.627   9.829  0.7855 -0.5708 -0.9432
  408MOL0     O53732   3.681   0.640   9.843  0.1161 -0.2545  0.1506
  408MOL0     C53733   3.596   0.592   9.740  0.3235 -0.4487 -0.6173
  408MOL0     C53734   3.467   0.659   9.759  0.1197 -0.2284  0.1872
  408MOL0     C53735   3.400   0.588   9.885 -0.2919 -0.4613  0.4925
  408MOL0     C53736   3.251   0.629   9.911  0.0460 -1.0149 -0.6963
  408MOL0     C53737   3.244   0.774   9.958 -0.9502  0.0542 -0.3510
  408MOL0     C53738   3.096   0.818   9.993  0.5569 -0.0763 -0.4323
  408MOL0     C53739   3.087   0.946  10.075 -0.1174  0.2244  0.3191
  408MOL0     C53740   2.938   0.980  10.109  0.1721  0.3827 -0.1972
  408MOL0     N53741   2.901   1.105  10.170  0.4564  0.6314 -0.1665
  408MOL0     C53742   2.956   1.163  10.283 -0.2948  0.4426 -0.6417
  408MOL0     C53743   2.899   1.287  10.288  0.7394 -1.0411 -0.3171
  408MOL0     C53744   2.932   1.395  10.383 -0.7818  0.8409 -0.3221
  408MOL0     C53745   3.082   1.402  10.427 -0.1805  0.0926 -0.4229
  408MOL0     C53746   3.171   1.473  10.324  0.4758  0.1500 -0.8258
  408MOL0     C53747   3.189   1.400  10.189  0.3245 -0.4940  0.0413
  408MOL0     O53748   3.230   1.269  10.211  0.6009  0.9090 -0.0787
  408MOL0     C53749   3.360   1.225  10.210  0.0440 -0.0776  0.3668
  408MOL0     C53750   3.389   1.092  10.261  0.9856 -0.4117 -0.0949
  408MOL0     C53751   3.516   1.047  10.234  0.1915  1.0025  0.3110
  408MOL0     C53752   3.615   1.118  10.170  0.1888  0.1744  0.7493
  408MOL0     C53753   3.748   1.059  10.149 -0.0374  0.0471  0.3727
  408MOL0     O53754   3.854   1.143  10.114 -0.0961  0.4165  0.0677
  408MOL0     C53755   3.979   1.099  10.124 -0.1678  0.8341  0.2139
  408MOL0     C53756   4.024   1.037  10.241  0.2991  0.0722  0.1912
  408MOL0     C53757   4.151   0.978  10.248 -1.2229 -0.6735  0.3621
  408MOL0     C53758   4.239   0.986  10.136 -0.2450  0.2378  0.3584
  408MOL0     O53759   4.366   0.933  10.141  0.1738 -0.7573 -0.0057
  408MOL0     C53760   4.402   0.839  10.237 -0.0067  0.1777  0.0181
  408MOL0     C53761   4.553   0.822  10.212  0.2052  0.5746  0.0134
  408MOL0     C53762   4.616   0.739  10.330  1.5021 -0.1703 -0.4481
  408MOL0     C53763   4.754   0.687  10.312 -0.3608 -0.5607  0.1429
  408MOL0     C53764   4.856   0.800  10.290 -0.6851 -0.0008 -0.3323
  408MOL0     C53765   4.990   0.742  10.251 -0.7072 -1.1170 -0.1077
  408MOL0     C53766   5.041   0.637  10.346 -1.1491 -0.4199  0.3638
  408MOL0     C53767   5.179   0.580  10.311 -0.1433  0.2171  0.4664
  408MOL0    Cl53768   5.289   0.630  10.439  0.1716 -0.2600 -0.3273
  408MOL0     C53769   4.191   1.050  10.019 -0.2578 -0.2143 -0.6749
  408MOL0     C53770   4.068   1.112  10.014  0.1802 -0.4846  0.1205
  408MOL0     O53771   3.752   0.936  10.164 -0.8558  0.6116 -0.1797
  408MOL0     C53772   3.577   1.251  10.127 -1.0138  0.9147 -0.4099
  408MOL0     C53773   3.450   1.299  10.147  0.0870  0.2281 -0.3349
  408MOL0     N53774   2.808   1.297  10.190 -0.2674  0.6977 -1.2341
  408MOL0     N53775   2.803   1.191  10.118  0.0582 -0.2845 -0.6695
  408MOL0     C53776   3.882   0.713   9.927  0.0669  0.4479 -0.1055
  408MOL0     C53777   4.020   0.686   9.943 -0.2183 -0.6325  0.0500
  408MOL0     C53778   4.459   0.636   9.884  0.0237  0.5077  0.2004
  408MOL0     C53779   4.563   0.732   9.849  0.9414  0.5468 -0.2701
  408MOL0     C53780   4.694   0.688   9.823  0.6365 -0.3917  0.2023
  408MOL0     C53781   4.727   0.566   9.863 -0.2428  0.4202 -0.2643
  408MOL0     O53782   4.858   0.518   9.843  0.4836 -0.4728  0.2983
  408MOL0     C53783   4.911   0.418   9.932 -0.0944 -0.1595  0.0315
  408MOL0     C53784   5.065   0.435   9.923 -0.0454 -0.0942  0.9955
  408MOL0     C53785   5.126   0.313   9.984  0.9065  0.1339 -0.8602
  408MOL0     C53786   5.274   0.325   9.966  0.5130  0.9306 -0.8760
  408MOL0     C53787   5.341   0.224  10.042  0.7108  0.7568  0.3603
  408MOL0     C53788   5.388   0.116  10.083 -0.0319 -0.0217  0.5724
  408MOL0     C53789   4.638   0.475   9.899  0.5573  0.1172  0.5334
  408MOL0     C53790   4.503   0.499   9.911 -1.0771  0.1708 -0.7436
  408MOL0     H53791   4.061   0.429   9.723  1.0408  0.4095  0.9115
  408MOL0     H53792   3.836   0.463   9.682  1.2549 -1.5938  0.2365
  408MOL0     H53793   3.590   0.483   9.750  5.1230 -1.0408 -1.4737
  408MOL0     H53794   3.636   0.614   9.640 -1.1265 -0.8928 -1.3303
  408MOL0     H53795   3.396   0.642   9.678 -1.7532  0.3680  1.6319
  408MOL0     H53796   3.472   0.768   9.766 -2.7230  0.0040 -0.1391
  408MOL0     H53797   3.459   0.606   9.975 -1.0483  0.8076  0.7594
  408MOL0     H53798   3.408   0.480   9.874 -5.2661 -1.2446  2.0302
  408MOL0     H53799   3.203   0.628   9.813  0.0949 -1.4436 -0.7160
  408MOL0     H53800   3.201   0.568   9.986  1.8199 -1.2635  0.3444
  408MOL0     H53801   3.274   0.840   9.876  0.6040 -1.4947 -1.1042
  408MOL0     H53802   3.323   0.788  10.032 -0.0212  0.7402 -1.4407
  408MOL0     H53803   3.055   0.736  10.054  1.8512  0.6586  1.5375
  408MOL0     H53804   3.041   0.819   9.899 -0.9175  0.8596  0.3967
  408MOL0     H53805   3.157   0.948  10.159 -0.9124  0.2119  1.0007
  408MOL0     H53806   3.117   1.027  10.009 -3.9159  2.0082  0.5179
  408MOL0     H53807   2.889   0.894  10.155 -0.9820  0.4644 -1.2344
  408MOL0     H53808   2.879   0.983  10.017 -1.0170 -2.0992  0.4055
  408MOL0     H53809   3.039   1.138  10.348  0.2100  0.8259 -1.1248
  408MOL0     H53810   2.868   1.395  10.472  0.3368  0.8413  0.5122
  408MOL0     H53811   2.903   1.488  10.333 -0.2209  0.0709 -2.1585
  408MOL0     H53812   3.122   1.303  10.453 -1.1671 -0.7769 -2.0384
  408MOL0     H53813   3.079   1.458  10.521 -0.7380 -0.2861 -0.2109
  408MOL0     H53814   3.139   1.577  10.313  2.0419  0.9504  1.4524
  408MOL0     H53815   3.271   1.466  10.369 -0.3197 -2.2350  0.7456
  408MOL0     H53816   3.240   1.456  10.110  0.3362 -1.6969 -0.8274
  408MOL0     H53817   3.089   1.386  10.147  0.6100 -1.2579 -0.3971
  408MOL0     H53818   3.317   1.023  10.304  0.3529 -0.7146 -1.5770
  408MOL0     H53819   3.542   0.946  10.266 -2.7953 -0.5926 -1.8059
  408MOL0     H53820   3.954   1.045  10.324  0.3718  0.6521  0.1983
  408MOL0     H53821   4.181   0.931  10.341 -0.6727 -0.4474  0.3037
  408MOL0     H53822   4.349   0.746  10.214 -0.7562  0.7808 -0.7599
  408MOL0     H53823   4.389   0.860  10.343  1.0353 -3.2996  0.9599
  408MOL0     H53824   4.614   0.913  10.205  2.0746 -0.4329  2.0066
  408MOL0     H53825   4.570   0.771  10.116 -0.4516 -2.0762  1.2043
  408MOL0     H53826   4.558   0.652  10.365 -1.7161  0.8046 -2.7942
  408MOL0     H53827   4.616   0.804  10.417 -0.8770 -2.6017  1.5598
  408MOL0     H53828   4.776   0.633  10.404 -0.4514  0.3544  0.7053
  408MOL0     H53829   4.755   0.620  10.225 -0.7980  1.0351 -1.1244
  408MOL0     H53830   4.868   0.856  10.383 -0.0899  0.4714 -0.6823
  408MOL0     H53831   4.817   0.867  10.213 -0.6328  0.0377 -0.3265
  408MOL0     H53832   5.063   0.821  10.233 -2.2537  0.9164  1.9436
  408MOL0     H53833   4.978   0.693  10.154 -0.6554 -1.1059 -0.1205
  408MOL0     H53834   5.045   0.673  10.449 -0.4502 -1.6098  0.7702
  408MOL0     H53835   4.973   0.553  10.329 -0.6776  0.0265 -6.0644
  408MOL0     H53836   5.212   0.617  10.214  0.8604  0.4587  0.8907
  408MOL0     H53837   5.180   0.471  10.301 -0.2485 -0.2746  4.2397
  408MOL0     H53838   4.252   1.044   9.930 -0.7516 -1.2367 -0.9678
  408MOL0     H53839   4.040   1.137   9.912  2.9361 -2.7485 -1.3303
  408MOL0     H53840   3.657   1.309  10.082  2.1914 -4.8866 -3.3588
  408MOL0     H53841   3.443   1.402  10.114  0.6311 -0.0977 -1.5214
  408MOL0     H53842   3.814   0.784   9.974 -2.0036  1.0850 -3.6251
  408MOL0     H53843   4.067   0.749  10.018 -1.0616 -1.0270  0.9318
  408MOL0     H53844   4.528   0.833   9.826 -3.4730 -0.5521  0.5300
  408MOL0     H53845   4.779   0.750   9.793  1.9172 -2.9138 -1.7939
  408MOL0     H53846   4.873   0.319   9.905 -0.6284  0.1374 -0.3189
  408MOL0     H53847   4.879   0.452  10.031 -0.7895  0.6080 -0.4466
  408MOL0     H53848   5.104   0.453   9.822  1.3230 -1.3660  1.2525
  408MOL0     H53849   5.087   0.523   9.983  0.3390  2.4204 -2.5474
  408MOL0     H53850   5.097   0.220   9.933 -0.1725 -1.3277  2.1334
  408MOL0     H53851   5.096   0.305  10.089 -4.0543 -0.1914 -2.0885
  408MOL0     H53852   5.303   0.323   9.861 -0.6781  1.3790 -1.2366
  408MOL0     H53853   5.316   0.418  10.005 -0.1878  1.2673 -0.9080
  408MOL0     H53854   5.416   0.021  10.123 -0.0104 -0.1286  0.3026
  408MOL0     H53855   4.666   0.370   9.909 -0.4109 -0.3984 -1.5707
  408MOL0     H53856   4.437   0.413   9.921  1.5846 -1.8473  0.7473
  409MOL0     O53857   4.867   8.564   9.776 -0.1633 -0.0891 -0.0192
  409MOL0     C53858   4.903   8.587   9.664 -0.2500  0.4538 -0.1280
  409MOL0     O53859   4.822   8.588   9.557 -0.4603  0.4299 -0.7703
  409MOL0     C53860   4.689   8.583   9.582  0.3131  0.2915 -0.1927
  409MOL0     C53861   4.629   8.452   9.565 -0.1029  0.7943  0.5217
  409MOL0     C53862   4.489   8.443   9.570  0.3475 -0.5024  0.2195
  409MOL0     C53863   4.406   8.554   9.584  0.8842  0.2245  0.0433
  409MOL0     O53864   4.267   8.546   9.589  0.3572 -0.1810 -0.2219
  409MOL0     C53865   4.199   8.426   9.616 -0.2414 -1.2871  0.6481
  409MOL0     C53866   4.054   8.457   9.644 -0.8441  0.2429  0.2248
  409MOL0     C53867   4.036   8.555   9.752 -0.3495 -0.6530 -0.1643
  409MOL0     C53868   3.881   8.586   9.758  0.1654  0.2705 -0.4054
  409MOL0     C53869   3.859   8.718   9.833  0.5123  0.8915 -0.0734
  409MOL0     C53870   3.732   8.698   9.916 -0.4494 -0.8718 -0.4590
  409MOL0     C53871   3.614   8.722   9.825 -0.3714  0.0459  1.1775
  409MOL0     C53872   3.572   8.861   9.799 -0.0564 -1.0202  0.6280
  409MOL0     N53873   3.433   8.871   9.748  0.0119 -0.7855 -0.3621
  409MOL0     C53874   3.318   8.870   9.828  0.2727  0.3974  0.6126
  409MOL0     C53875   3.222   8.861   9.734 -0.0390 -0.1767  0.0412
  409MOL0     C53876   3.072   8.838   9.765  0.3151 -0.6280  0.0268
  409MOL0     C53877   2.983   8.805   9.645 -0.2113  0.6261  0.1587
  409MOL0     C53878   2.842   8.771   9.694  1.1982  0.0176 -0.4272
  409MOL0     C53879   2.738   8.780   9.574  0.7206 -0.5536 -0.2481
  409MOL0     O53880   2.610   8.751   9.633 -0.4564 -0.3734  0.1606
  409MOL0     C53881   2.499   8.813   9.579 -0.5042 -0.9602 -0.3477
  409MOL0     C53882   2.496   8.946   9.543 -0.4499 -0.2919  0.3867
  409MOL0     C53883   2.386   9.009   9.479 -0.0933 -0.3738 -0.4190
  409MOL0     C53884   2.271   8.941   9.456 -0.0961  0.1842 -0.0568
  409MOL0     C53885   2.158   8.997   9.382 -0.0685  0.9062 -0.1106
  409MOL0     O53886   2.035   8.947   9.422  0.2747 -0.7021  0.0505
  409MOL0     C53887   1.926   9.023   9.372  0.7048 -0.8289  0.9576
  409MOL0     C53888   1.885   9.154   9.413  0.6556 -0.5032  0.7882
  409MOL0     C53889   1.782   9.208   9.337  0.6007 -0.2873 -0.2585
  409MOL0     C53890   1.709   9.151   9.234  0.4296  0.5273 -0.3602
  409MOL0     O53891   1.611   9.225   9.173 -0.5782  0.3984  0.2178
  409MOL0     C53892   1.519   9.163   9.080  0.0854 -0.6193 -0.4207
  409MOL0     C53893   1.404   9.263   9.043  0.5677  0.3988  0.2264
  409MOL0     C53894   1.287   9.202   8.965 -0.1135 -0.1436  0.2940
  409MOL0     C53895   1.223   9.323   8.888  0.9749  0.1429 -0.0994
  409MOL0     C53896   1.103   9.285   8.792 -0.4851 -0.2076 -0.2664
  409MOL0     C53897   1.040   9.409   8.714 -0.8857  0.1305  0.1861
  409MOL0     C53898   0.944   9.369   8.597  0.6964  0.3389 -0.3479
  409MOL0     C53899   0.910   9.481   8.506 -0.0849  0.4780 -0.0792
  409MOL0    Cl53900   0.816   9.600   8.592  0.1142  0.2062  0.3359
  409MOL0     C53901   1.747   9.015   9.208 -0.5272 -0.7054  0.6689
  409MOL0     C53902   1.858   8.956   9.268  0.6727 -0.0960  0.2242
  409MOL0     O53903   2.182   9.082   9.300  0.2441 -0.7984 -0.1792
  409MOL0     C53904   2.268   8.801   9.492 -0.3356  0.0157 -0.3185
  409MOL0     C53905   2.380   8.741   9.557 -0.2556  0.2450  0.5916
  409MOL0     N53906   3.274   8.862   9.605 -0.0665 -0.0667  1.0224
  409MOL0     N53907   3.407   8.874   9.623 -0.2262 -0.4525  0.1772
  409MOL0     C53908   4.469   8.682   9.614 -0.9298 -0.0799 -1.0183
  409MOL0     C53909   4.616   8.692   9.613  0.5294 -1.0339  0.4265
  409MOL0     C53910   5.043   8.592   9.624  0.5198 -0.4889 -0.6008
  409MOL0     C53911   5.073   8.654   9.499 -0.4826  0.3896  0.3315
  409MOL0     C53912   5.206   8.649   9.450  0.7012  0.2131 -0.2954
  409MOL0     C53913   5.311   8.604   9.534  0.4225 -0.5732 -0.2882
  409MOL0     O53914   5.439   8.612   9.473  0.5411  0.2188 -0.0345
  409MOL0     C53915   5.546   8.552   9.542  1.0506 -0.0060 -0.3851
  409MOL0     C53916   5.679   8.547   9.472 -0.6472 -0.8934  1.0627
  409MOL0     C53917   5.648   8.490   9.330  0.2106 -0.6269 -0.1385
  409MOL0     C53918   5.770   8.417   9.274 -0.1966 -0.5077 -0.3279
  409MOL0     C53919   5.749   8.416   9.129  0.7743  0.4956  0.0966
  409MOL0     C53920   5.729   8.438   9.011  0.8225 -0.0600  0.3028
  409MOL0     C53921   5.280   8.562   9.667  0.4175  0.7760  0.9438
  409MOL0     C53922   5.142   8.549   9.715 -0.3747 -0.5217 -0.5608
  409MOL0     H53923   4.705   8.379   9.542  1.1484  1.9858  0.7667
  409MOL0     H53924   4.441   8.349   9.546  2.1149 -1.0184 -1.6578
  409MOL0     H53925   4.237   8.383   9.709  0.1712 -0.1664  1.0182
  409MOL0     H53926   4.221   8.362   9.530 -2.6595  0.8089 -1.6918
  409MOL0     H53927   3.996   8.365   9.660 -2.3030  0.9265 -0.9081
  409MOL0     H53928   4.022   8.495   9.546  1.3708 -1.7432 -1.3936
  409MOL0     H53929   4.084   8.649   9.726 -0.0150  0.0440  2.6740
  409MOL0     H53930   4.091   8.521   9.840  2.8941  2.8084 -0.6008
  409MOL0     H53931   3.836   8.582   9.658  2.1619 -0.4511 -1.3216
  409MOL0     H53932   3.845   8.503   9.820  1.3983  1.2575  1.7239
  409MOL0     H53933   3.854   8.814   9.782 -0.1820  0.9171  0.0257
  409MOL0     H53934   3.943   8.719   9.903  0.7265 -2.4421 -0.0877
  409MOL0     H53935   3.732   8.762  10.005 -1.7885  0.1781 -1.1574
  409MOL0     H53936   3.723   8.596   9.956 -3.3369  0.3277  2.4455
  409MOL0     H53937   3.639   8.691   9.723 -2.3466  0.1798  0.6126
  409MOL0     H53938   3.527   8.672   9.870 -2.2089 -0.0893 -2.2095
  409MOL0     H53939   3.645   8.903   9.730 -1.2273 -1.7359 -1.1011
  409MOL0     H53940   3.574   8.925   9.889 -0.1581 -1.7332  1.1458
  409MOL0     H53941   3.309   8.880   9.936 -0.1438  3.6126  0.3777
  409MOL0     H53942   3.036   8.926   9.819 -0.0327 -1.6855  1.5840
  409MOL0     H53943   3.071   8.750   9.829 -1.5647 -0.6663 -0.0003
  409MOL0     H53944   3.027   8.724   9.586 -0.6601  0.2041  0.4056
  409MOL0     H53945   2.989   8.893   9.581  0.0924 -1.3606 -2.7309
  409MOL0     H53946   2.821   8.671   9.735  0.6008 -0.2223 -1.2881
  409MOL0     H53947   2.818   8.850   9.765  0.0333 -0.5609 -0.1618
  409MOL0     H53948   2.758   8.698   9.505 -0.7215 -1.2714  0.1233
  409MOL0     H53949   2.742   8.878   9.525 -1.0391 -0.5762 -0.5015
  409MOL0     H53950   2.582   9.012   9.557 -0.9569  0.6595 -0.7537
  409MOL0     H53951   2.392   9.111   9.443 -2.4956 -0.4607 -1.2698
  409MOL0     H53952   1.923   9.204   9.501 -1.9696  2.2248  0.5514
  409MOL0     H53953   1.751   9.307   9.367 -2.5335 -0.7279 -1.6894
  409MOL0     H53954   1.464   9.083   9.130 -1.9305  0.6960 -0.4066
  409MOL0     H53955   1.571   9.109   9.000 -1.1604 -2.3603 -0.1108
  409MOL0     H53956   1.447   9.348   8.989  1.8553 -0.3130  0.0908
  409MOL0     H53957   1.373   9.297   9.142  1.4607 -1.9395  1.3749
  409MOL0     H53958   1.214   9.154   9.031 -0.8248  0.7326  0.1715
  409MOL0     H53959   1.328   9.128   8.896 -0.9980 -0.1675 -0.2140
  409MOL0     H53960   1.194   9.394   8.966  1.4132  2.2349 -1.7315
  409MOL0     H53961   1.298   9.365   8.819  1.0992  0.0082 -0.0459
  409MOL0     H53962   1.027   9.235   8.853 -0.9047  0.7721  0.0272
  409MOL0     H53963   1.142   9.220   8.712  2.5017  1.3426 -0.2086
  409MOL0     H53964   1.121   9.463   8.664 -1.0444 -2.1376 -2.7583
  409MOL0     H53965   0.986   9.478   8.779 -2.3129 -0.0039 -0.8197
  409MOL0     H53966   0.987   9.289   8.537  0.9677  1.8132 -2.2311
  409MOL0     H53967   0.854   9.331   8.648 -0.2263  1.5800 -0.9934
  409MOL0     H53968   0.846   9.447   8.423 -1.7910  0.4292  1.2041
  409MOL0     H53969   1.007   9.512   8.466  0.5792  1.1309  1.9513
  409MOL0     H53970   1.708   8.972   9.116  4.6768  0.7519 -2.6848
  409MOL0     H53971   1.896   8.858   9.241  0.6160  0.4507 -2.0911
  409MOL0     H53972   2.178   8.745   9.468  0.3027 -2.0136  1.7111
  409MOL0     H53973   2.372   8.639   9.594 -2.7960  0.8039  1.7683
  409MOL0     H53974   4.419   8.771   9.652  1.0011  1.9606 -2.9500
  409MOL0     H53975   4.662   8.788   9.635  0.3239 -0.4228 -1.6344
  409MOL0     H53976   5.008   8.718   9.440  0.0693  0.7153  0.0687
  409MOL0     H53977   5.219   8.700   9.355  0.6256 -1.1691 -1.0752
  409MOL0     H53978   5.519   8.446   9.536 -3.2599  0.9952 -5.7723
  409MOL0     H53979   5.554   8.584   9.647 -1.3508  1.6204 -0.6294
  409MOL0     H53980   5.714   8.649   9.453  0.2112 -1.6699 -2.0435
  409MOL0     H53981   5.741   8.480   9.532 -1.4104 -2.2493  0.3625
  409MOL0     H53982   5.608   8.564   9.260 -0.1221 -2.6612 -2.1994
  409MOL0     H53983   5.560   8.427   9.344 -1.6914  1.5654 -1.4631
  409MOL0     H53984   5.862   8.463   9.313 -2.0954  2.5975  0.8883
  409MOL0     H53985   5.779   8.314   9.309  2.4021 -0.0520  0.5707
  409MOL0     H53986   5.689   8.461   8.914  0.2950  0.0537  0.5469
  409MOL0     H53987   5.349   8.523   9.741 -0.7354 -4.5578 -0.3712
  409MOL0     H53988   5.122   8.493   9.806 -0.9776 -3.0713 -2.1668
  410MOL0     O53989   2.027  10.344   6.003  0.3049 -0.3849 -0.1406
  410MOL0     C53990   2.067  10.228   6.029 -0.6173  0.1376  1.0058
  410MOL0     O53991   2.005  10.145   6.106 -0.6997  0.4447 -0.7972
  410MOL0     C53992   1.894  10.178   6.185 -0.4044 -0.4824  0.9884
  410MOL0     C53993   1.883  10.305   6.245 -0.1078  0.2554  0.3179
  410MOL0     C53994   1.766  10.332   6.309  0.1072 -0.8840  0.8274
  410MOL0     C53995   1.656  10.252   6.322 -0.0072  0.9815  0.0457
  410MOL0     O53996   1.533  10.301   6.368 -0.7602  0.6545  1.0066
  410MOL0     C53997   1.444  10.204   6.425 -0.1584  0.0927 -0.0576
  410MOL0     C53998   1.348  10.264   6.526 -0.4838 -0.3156  0.4562
  410MOL0     C53999   1.386  10.229   6.664 -0.1672 -0.3480 -0.7680
  410MOL0     C54000   1.318  10.324   6.770 -0.2126  0.0804 -0.4119
  410MOL0     C54001   1.172  10.278   6.786  0.4390 -0.1809  0.2640
  410MOL0     C54002   1.163  10.148   6.862  0.7205  0.3349 -0.8657
  410MOL0     C54003   1.020  10.081   6.878  0.0652  0.4052 -1.1489
  410MOL0     C54004   0.973  10.036   6.738  0.0358  0.8943 -0.2604
  410MOL0     N54005   0.853   9.950   6.765  0.5984  0.4106  0.5242
  410MOL0     C54006   0.841   9.819   6.769 -0.4105  0.2710 -0.4390
  410MOL0     C54007   0.714   9.789   6.787  0.5550 -0.0655  0.7951
  410MOL0     C54008   0.661   9.645   6.773  0.0560  0.0327 -0.2756
  410MOL0     C54009   0.523   9.635   6.702  0.0858  0.3327 -1.3265
  410MOL0     C54010   0.521   9.677   6.551 -0.3569 -0.4703 -0.4584
  410MOL0     C54011   0.602   9.580   6.466 -0.7458  0.7710 -0.4507
  410MOL0     O54012   0.577   9.607   6.326  0.0271  0.8148 -0.1142
  410MOL0     C54013   0.636   9.533   6.226 -0.2847 -0.1773  0.2861
  410MOL0     C54014   0.688   9.603   6.114  0.2674  0.9004 -0.7151
  410MOL0     C54015   0.766   9.535   6.013 -0.0234 -0.5725 -0.4277
  410MOL0     C54016   0.798   9.402   6.016 -0.5257 -0.4375  0.5849
  410MOL0     C54017   0.884   9.342   5.906  0.2508 -0.0987  0.2633
  410MOL0     O54018   0.940   9.427   5.819  0.4698 -0.0537  0.2171
  410MOL0     C54019   1.027   9.386   5.721  0.2475  0.7324  0.2477
  410MOL0     C54020   0.986   9.324   5.604 -0.8492  0.2128  0.2321
  410MOL0     C54021   1.082   9.285   5.504  0.0702  0.2750 -0.5634
  410MOL0     C54022   1.215   9.295   5.535 -0.1152 -0.2938  0.0124
  410MOL0     O54023   1.299   9.231   5.451 -0.0455 -0.5582 -0.1554
  410MOL0     C54024   1.444   9.239   5.472  0.9440  0.1694 -0.0574
  410MOL0     C54025   1.509   9.128   5.396  0.0408 -0.6645  0.6371
  410MOL0     C54026   1.656   9.107   5.422  0.6923  0.3531 -0.0406
  410MOL0     C54027   1.720   9.003   5.331 -0.5757  0.3107 -0.8403
  410MOL0     C54028   1.877   8.982   5.365  0.3164 -0.1717  0.3981
  410MOL0     C54029   1.917   8.847   5.302 -0.8177 -0.9968  0.6320
  410MOL0     C54030   1.981   8.872   5.166  0.5147  0.5548 -0.1409
  410MOL0     C54031   2.057   8.749   5.113 -0.0338  0.6215  0.5922
  410MOL0    Cl54032   1.932   8.614   5.101 -0.3514 -0.1427  0.1250
  410MOL0     C54033   1.253   9.368   5.659  0.0831  0.4035  0.3556
  410MOL0     C54034   1.164   9.409   5.751  0.3565 -0.1105 -0.2936
  410MOL0     O54035   0.876   9.221   5.894 -1.0432 -0.5009  0.1492
  410MOL0     C54036   0.759   9.333   6.129 -0.2769 -0.5874  0.0278
  410MOL0     C54037   0.676   9.401   6.227  0.4277  0.0209  0.2968
  410MOL0     N54038   0.646   9.914   6.787 -0.1956 -0.3843 -0.3070
  410MOL0     N54039   0.731  10.006   6.787  0.1288 -0.1809  0.2618
  410MOL0     C54040   1.670  10.121   6.271  0.2579  0.3863 -0.1450
  410MOL0     C54041   1.789  10.081   6.201  0.7323 -0.0324  0.5138
  410MOL0     C54042   2.192  10.180   5.962  0.2456  1.0665 -0.9937
  410MOL0     C54043   2.210  10.040   5.948  0.3198  0.4729  0.0683
  410MOL0     C54044   2.324   9.994   5.887 -0.3955 -1.8290  1.0989
  410MOL0     C54045   2.428  10.077   5.835  0.8359  0.3032  0.6413
  410MOL0     O54046   2.536  10.009   5.777  0.3270 -0.2623  0.5142
  410MOL0     C54047   2.651  10.099   5.770  0.5409  0.4303 -0.2087
  410MOL0     C54048   2.763  10.016   5.721  0.2838  0.5742  0.2228
  410MOL0     C54049   2.889  10.107   5.758  0.7562 -0.4050 -0.0741
  410MOL0     C54050   3.014  10.049   5.703  0.2115  0.6400  0.5534
  410MOL0     C54051   3.019  10.086   5.562  0.7602  0.9862  0.5324
  410MOL0     C54052   3.017  10.130   5.448 -0.4720  0.5930 -0.3681
  410MOL0     C54053   2.400  10.217   5.835  0.1556 -0.0735 -0.2348
  410MOL0     C54054   2.279  10.266   5.893 -0.2252 -0.5076 -0.7067
  410MOL0     H54055   1.969  10.370   6.235  1.2442 -1.7668 -2.6450
  410MOL0     H54056   1.753  10.432   6.348  1.3967  0.6766 -2.3677
  410MOL0     H54057   1.515  10.138   6.476 -2.1033 -0.6046  1.9012
  410MOL0     H54058   1.390  10.152   6.344 -0.3377 -3.0238  1.9022
  410MOL0     H54059   1.249  10.227   6.500 -0.1452 -0.0801 -1.3172
  410MOL0     H54060   1.337  10.371   6.504 -2.2323 -0.7274 -0.9106
  410MOL0     H54061   1.493  10.237   6.681 -0.6918  0.5978  3.1464
  410MOL0     H54062   1.364  10.122   6.667  0.5305 -0.5085 -1.2862
  410MOL0     H54063   1.376  10.313   6.863  0.4033  2.7747 -0.4115
  410MOL0     H54064   1.339  10.428   6.745 -0.8962  0.4171  0.3589
  410MOL0     H54065   1.121  10.263   6.691 -1.9153  1.7007  1.1073
  410MOL0     H54066   1.118  10.361   6.832  2.3444 -0.5148  3.4237
  410MOL0     H54067   1.187  10.169   6.967 -2.5180  1.0117 -0.1577
  410MOL0     H54068   1.236  10.072   6.834 -1.7981 -2.2476 -0.8712
  410MOL0     H54069   1.017  10.002   6.954 -1.0034  1.8168  0.3342
  410MOL0     H54070   0.957  10.157   6.925  0.3340 -0.3597  0.5387
  410MOL0     H54071   1.053   9.981   6.688 -0.6749 -0.6201  0.1970
  410MOL0     H54072   0.938  10.120   6.679 -3.4225 -1.3347 -1.6974
  410MOL0     H54073   0.929   9.758   6.754 -0.7396 -0.4608  0.5059
  410MOL0     H54074   0.659   9.594   6.870 -2.0469  0.9209  0.1900
  410MOL0     H54075   0.735   9.592   6.712 -0.9158  1.4447 -2.8161
  410MOL0     H54076   0.462   9.713   6.749  0.5833 -0.6707  1.1685
  410MOL0     H54077   0.483   9.536   6.726  0.2294  0.9982  2.3398
  410MOL0     H54078   0.418   9.672   6.513  0.5780 -0.6750 -3.1617
  410MOL0     H54079   0.546   9.783   6.549 -2.6867  0.1621  0.2572
  410MOL0     H54080   0.584   9.475   6.490  0.1976  1.0965  1.9729
  410MOL0     H54081   0.707   9.595   6.490 -0.3762 -3.1049  1.0208
  410MOL0     H54082   0.674   9.710   6.115 -0.2624  0.8913  2.4034
  410MOL0     H54083   0.783   9.606   5.933 -2.0284  4.0544  2.7522
  410MOL0     H54084   0.884   9.295   5.581 -0.7906 -1.0040  1.4044
  410MOL0     H54085   1.030   9.251   5.415 -2.1753  2.9922 -0.4341
  410MOL0     H54086   1.474   9.226   5.576  0.9411 -2.7885 -0.3314
  410MOL0     H54087   1.485   9.336   5.443 -1.3496  1.1455 -0.1979
  410MOL0     H54088   1.502   9.150   5.289 -0.4763  1.3752  1.0654
  410MOL0     H54089   1.442   9.042   5.409 -3.0565  1.5355  0.5127
  410MOL0     H54090   1.661   9.074   5.527 -0.2053  0.2105 -0.0282
  410MOL0     H54091   1.713   9.200   5.425  1.5472 -0.0770 -1.7967
  410MOL0     H54092   1.672   8.905   5.339  1.5362 -0.7368 -0.0118
  410MOL0     H54093   1.715   9.034   5.226  1.3885  2.2545 -0.4312
  410MOL0     H54094   1.885   8.973   5.473 -1.8168 -2.4065  0.4473
  410MOL0     H54095   1.941   9.062   5.325  1.4188 -2.4264 -2.7577
  410MOL0     H54096   1.826   8.785   5.293 -1.8321  0.6570 -1.3903
  410MOL0     H54097   1.984   8.795   5.371 -1.6752 -0.4782  1.8937
  410MOL0     H54098   1.920   8.919   5.088  2.8830  1.2745 -1.6573
  410MOL0     H54099   2.059   8.949   5.172 -0.0935  1.0829  3.1445
  410MOL0     H54100   2.139   8.720   5.180  0.9811 -0.1092 -0.9042
  410MOL0     H54101   2.092   8.764   5.010 -0.4369 -0.0974  0.3444
  410MOL0     H54102   1.358   9.388   5.678  0.0834  1.7593 -0.8509
  410MOL0     H54103   1.195   9.455   5.844 -2.7203 -1.3453  1.4867
  410MOL0     H54104   0.792   9.231   6.146  2.7956  0.5667  1.8965
  410MOL0     H54105   0.641   9.342   6.311 -2.2420  1.5417  0.3571
  410MOL0     H54106   1.592  10.045   6.274 -1.4299  1.8191 -2.8088
  410MOL0     H54107   1.786   9.984   6.152 -0.4218 -0.4165  1.3236
  410MOL0     H54108   2.148   9.965   5.996 -0.2306  0.8583 -0.0348
  410MOL0     H54109   2.329   9.888   5.866 -1.5942 -1.1852 -3.5773
  410MOL0     H54110   2.664  10.141   5.870 -2.8838  1.4909 -0.0859
  410MOL0     H54111   2.633  10.175   5.693  3.0709 -0.6771 -2.0609
  410MOL0     H54112   2.769   9.916   5.766 -2.2516 -0.6172 -1.8390
  410MOL0     H54113   2.755   9.988   5.616  3.2740  1.0183 -0.2281
  410MOL0     H54114   2.896  10.125   5.866 -0.4745 -0.9514  0.1086
  410MOL0     H54115   2.873  10.203   5.708 -2.9510 -0.9911 -0.2405
  410MOL0     H54116   3.101  10.085   5.758 -1.0091  0.6385  2.6109
  410MOL0     H54117   3.028   9.942   5.720  0.9016  0.8791  1.6486
  410MOL0     H54118   3.004  10.169   5.349 -1.1664 -1.6681 -1.2289
  410MOL0     H54119   2.462  10.300   5.802 -0.7478  1.5514  1.9388
  410MOL0     H54120   2.263  10.373   5.891  2.1006 -0.1031 -3.2845
  411MOL0     O54121   0.739   3.439   6.856  0.7326  0.7255 -0.1399
  411MOL0     C54122   0.754   3.498   6.754  1.1838 -0.9953 -0.1713
  411MOL0     O54123   0.855   3.493   6.665  0.0876 -0.7408 -0.6025
  411MOL0     C54124   0.971   3.415   6.682 -0.0464  0.1771 -0.2397
  411MOL0     C54125   1.003   3.330   6.788 -0.3286  0.0065 -0.6568
  411MOL0     C54126   1.128   3.268   6.797  0.7633  0.6249 -0.2277
  411MOL0     C54127   1.231   3.284   6.707  0.0053  0.3310 -0.3451
  411MOL0     O54128   1.353   3.224   6.726 -0.1359 -0.3525 -0.8964
  411MOL0     C54129   1.427   3.227   6.851  0.0805  0.1769 -0.6509
  411MOL0     C54130   1.445   3.367   6.919 -0.3109 -0.0984 -0.5807
  411MOL0     C54131   1.560   3.450   6.849  0.1199  0.5534 -0.0706
  411MOL0     C54132   1.690   3.389   6.891  0.5794  0.9044 -0.0759
  411MOL0     C54133   1.801   3.492   6.852 -0.1488 -0.5069  0.0422
  411MOL0     C54134   1.938   3.484   6.933  0.1650  0.6425  0.0307
  411MOL0     C54135   2.010   3.617   6.909 -0.0320  0.0136  0.2674
  411MOL0     C54136   2.098   3.636   6.772 -0.2683  0.2254 -0.8725
  411MOL0     N54137   2.217   3.550   6.767 -0.6629  0.2090 -0.1141
  411MOL0     C54138   2.217   3.414   6.741  0.1441 -0.0494 -0.1871
  411MOL0     C54139   2.347   3.369   6.740  0.1081 -0.6074 -0.2628
  411MOL0     C54140   2.388   3.226   6.719  0.4273  0.1062  0.5512
  411MOL0     C54141   2.405   3.205   6.561  0.5680  0.1905 -1.0650
  411MOL0     C54142   2.552   3.176   6.520  0.6763 -0.0445 -0.4924
  411MOL0     C54143   2.644   3.292   6.514  0.3571 -0.8257 -0.1377
  411MOL0     O54144   2.774   3.231   6.485 -0.2378  0.1903  0.1564
  411MOL0     C54145   2.887   3.319   6.462  0.4032 -0.1998 -0.1581
  411MOL0     C54146   2.900   3.453   6.497  0.5186 -0.2019  0.6605
  411MOL0     C54147   3.009   3.537   6.463 -0.3050  0.5478 -1.0675
  411MOL0     C54148   3.121   3.479   6.385  0.8851 -0.1831 -0.3283
  411MOL0     C54149   3.239   3.568   6.354 -0.4454  0.0952 -0.3124
  411MOL0     O54150   3.338   3.526   6.274  0.2081  0.0388  0.6776
  411MOL0     C54151   3.438   3.616   6.233  0.3059  1.0148  0.4271
  411MOL0     C54152   3.574   3.572   6.225 -0.3153 -0.1678 -0.1214
  411MOL0     C54153   3.686   3.645   6.172 -0.1018 -0.0924 -0.6282
  411MOL0     C54154   3.651   3.762   6.106 -0.0498  0.0519  0.0734
  411MOL0     O54155   3.753   3.815   6.038 -0.3459 -0.0343 -0.6263
  411MOL0     C54156   3.727   3.931   5.959 -0.5981  0.3052 -0.2822
  411MOL0     C54157   3.850   3.974   5.873 -0.3320 -0.2164  0.1798
  411MOL0     C54158   3.914   3.861   5.790  1.1417 -0.1061  0.6001
  411MOL0     C54159   4.008   3.769   5.860  0.1732  0.0785  0.1138
  411MOL0     C54160   4.109   3.700   5.768 -0.3151 -0.3070  0.4610
  411MOL0     C54161   4.209   3.624   5.847  0.6393  0.4496  0.1052
  411MOL0     C54162   4.322   3.582   5.754 -0.4359 -0.4879 -0.4113
  411MOL0     C54163   4.410   3.677   5.681  0.0834  0.4752 -0.5566
  411MOL0    Cl54164   4.520   3.758   5.808  0.0100 -0.5282  0.2410
  411MOL0     C54165   3.515   3.809   6.111 -0.3288 -0.4026 -0.3258
  411MOL0     C54166   3.417   3.743   6.175  0.0179 -0.0293 -0.0471
  411MOL0     O54167   3.240   3.679   6.406 -0.1311 -0.5410  0.4044
  411MOL0     C54168   3.113   3.344   6.352  0.2925 -1.3076 -0.1419
  411MOL0     C54169   2.991   3.272   6.389 -0.1268  0.4182 -0.3030
  411MOL0     N54170   2.421   3.483   6.757 -0.5403  0.4668  0.4574
  411MOL0     N54171   2.344   3.585   6.771 -0.6061 -1.3788  0.5769
  411MOL0     C54172   1.195   3.352   6.589 -0.6911  0.1403  1.0808
  411MOL0     C54173   1.071   3.414   6.583  0.0730 -0.1513  0.4393
  411MOL0     C54174   0.634   3.580   6.719  0.1817  0.6184  1.3165
  411MOL0     C54175   0.632   3.672   6.612  0.7286 -0.9964 -0.5192
  411MOL0     C54176   0.518   3.750   6.586 -0.8738  0.1069 -0.4302
  411MOL0     C54177   0.408   3.751   6.672  0.9081 -0.1100  0.7052
  411MOL0     O54178   0.315   3.847   6.663  0.2963 -0.0305  0.0760
  411MOL0     C54179   0.358   3.980   6.712 -1.0984 -0.2363 -0.4849
  411MOL0     C54180   0.259   4.033   6.811 -0.3868 -0.2972  0.4020
  411MOL0     C54181   0.271   4.173   6.873  0.0658  0.4597 -0.2162
  411MOL0     C54182   0.403   4.195   6.948 -0.0102  0.1516 -0.0034
  411MOL0     C54183   0.426   4.337   6.992  1.2946  0.5288 -0.3677
  411MOL0     C54184   0.428   4.450   7.038 -0.5408  1.0500  0.3615
  411MOL0     C54185   0.406   3.653   6.774  1.5558  0.4170 -0.3787
  411MOL0     C54186   0.516   3.578   6.800 -0.2731  0.3372 -0.4992
  411MOL0     H54187   0.935   3.309   6.869 -1.1217 -0.3841 -1.4167
  411MOL0     H54188   1.152   3.210   6.885 -1.9373  0.6069  0.5944
  411MOL0     H54189   1.528   3.188   6.834  0.2954  0.4640 -0.0639
  411MOL0     H54190   1.386   3.161   6.929 -0.7987  1.5139  0.0672
  411MOL0     H54191   1.469   3.344   7.023 -0.7503 -2.7607 -0.9946
  411MOL0     H54192   1.348   3.417   6.920 -0.9098 -1.2391 -0.4819
  411MOL0     H54193   1.547   3.552   6.886  0.0556  0.9642 -1.1813
  411MOL0     H54194   1.537   3.462   6.743 -3.5035  2.1694  0.7359
  411MOL0     H54195   1.695   3.371   6.998 -0.7385 -2.2880 -0.4584
  411MOL0     H54196   1.715   3.292   6.845 -1.6835  1.3266 -2.4427
  411MOL0     H54197   1.758   3.592   6.860  0.8948 -0.2168  3.0331
  411MOL0     H54198   1.831   3.470   6.749 -0.9231 -1.8890  0.0805
  411MOL0     H54199   2.001   3.404   6.892  0.3824  0.1646  1.2733
  411MOL0     H54200   1.911   3.477   7.038 -0.0882 -2.8728 -0.1451
  411MOL0     H54201   1.938   3.700   6.906 -0.6501 -0.5474 -0.7519
  411MOL0     H54202   2.077   3.637   6.994  1.4314 -2.4299 -0.2219
  411MOL0     H54203   2.123   3.742   6.772  2.4086 -0.2187  2.6454
  411MOL0     H54204   2.035   3.615   6.685 -0.6009  1.4916 -0.9593
  411MOL0     H54205   2.136   3.348   6.711 -1.6978  2.0064  0.0146
  411MOL0     H54206   2.306   3.163   6.756 -0.9990  0.8456 -1.2492
  411MOL0     H54207   2.481   3.209   6.774  1.4118 -2.8480 -1.7574
  411MOL0     H54208   2.371   3.293   6.506 -0.0437 -0.4518 -1.7344
  411MOL0     H54209   2.342   3.123   6.527  0.0877  0.4957 -0.9222
  411MOL0     H54210   2.589   3.097   6.585 -0.8034 -1.5195 -1.3651
  411MOL0     H54211   2.543   3.129   6.422 -0.1138  0.0037 -0.4532
  411MOL0     H54212   2.642   3.356   6.602  1.8670 -0.1775 -0.5412
  411MOL0     H54213   2.624   3.355   6.427  1.2946 -1.9391 -1.1984
  411MOL0     H54214   2.829   3.494   6.568  0.4407 -4.2413  3.2621
  411MOL0     H54215   3.023   3.632   6.514  0.0544 -0.3020  0.4519
  411MOL0     H54216   3.601   3.483   6.280 -1.0514 -1.1917 -1.3673
  411MOL0     H54217   3.776   3.588   6.150 -1.1204 -1.1596 -2.2370
  411MOL0     H54218   3.696   4.012   6.025 -5.7779 -1.7857  0.3513
  411MOL0     H54219   3.655   3.899   5.882  0.5982  0.8954 -1.7015
  411MOL0     H54220   3.927   4.012   5.940 -1.0421 -3.5216  3.1288
  411MOL0     H54221   3.827   4.052   5.799  1.1252 -0.4047 -0.5182
  411MOL0     H54222   3.975   3.904   5.710  2.7609 -0.0370  1.8115
  411MOL0     H54223   3.831   3.804   5.747  1.1038  1.7402 -2.0304
  411MOL0     H54224   4.060   3.816   5.944  3.9287  0.3697 -2.1293
  411MOL0     H54225   3.945   3.693   5.906  1.0872  0.2101  1.6643
  411MOL0     H54226   4.159   3.769   5.700  2.0834 -0.3551  2.0317
  411MOL0     H54227   4.053   3.628   5.709  0.2648 -1.8490  1.7271
  411MOL0     H54228   4.157   3.532   5.878  0.0214  0.4485 -0.8886
  411MOL0     H54229   4.243   3.685   5.931  2.8437  1.4292 -1.4036
  411MOL0     H54230   4.379   3.506   5.809 -1.2498 -0.8552 -0.0647
  411MOL0     H54231   4.274   3.521   5.677  1.7957 -0.9126 -1.5647
  411MOL0     H54232   4.351   3.748   5.623  0.5568  2.0343  0.7901
  411MOL0     H54233   4.459   3.618   5.604 -0.3708  1.5312 -1.6924
  411MOL0     H54234   3.478   3.894   6.055  0.5276 -0.0094 -0.2982
  411MOL0     H54235   3.315   3.782   6.174  0.4420  1.1210  0.3218
  411MOL0     H54236   3.189   3.293   6.294 -1.0792 -2.2648 -1.1374
  411MOL0     H54237   2.983   3.168   6.359  1.8907 -0.0077  0.4771
  411MOL0     H54238   1.269   3.371   6.512 -0.6193  1.2651  1.4041
  411MOL0     H54239   1.060   3.480   6.498 -1.9000 -2.4769 -1.2465
  411MOL0     H54240   0.716   3.682   6.544 -0.0326  0.2464 -1.3135
  411MOL0     H54241   0.519   3.814   6.498  0.6142 -0.2056 -0.6752
  411MOL0     H54242   0.360   4.044   6.623  0.3868  0.0171 -0.3034
  411MOL0     H54243   0.464   3.971   6.740 -0.3325  1.6750 -2.4311
  411MOL0     H54244   0.161   4.026   6.763 -0.6946  0.6612  0.8590
  411MOL0     H54245   0.252   3.962   6.893  0.4672 -2.6298 -1.4091
  411MOL0     H54246   0.188   4.198   6.939  0.2575  3.7606 -1.0363
  411MOL0     H54247   0.250   4.245   6.793 -0.1027 -0.4418 -1.0094
  411MOL0     H54248   0.405   4.129   7.036 -3.4394  0.8243  0.7258
  411MOL0     H54249   0.479   4.169   6.874  0.1309  0.2836  0.0954
  411MOL0     H54250   0.457   4.546   7.077  2.2843 -0.4182  2.2114
  411MOL0     H54251   0.324   3.649   6.845  3.5149  0.5729  2.0204
  411MOL0     H54252   0.510   3.507   6.881 -1.5135 -1.0262 -1.7426
  412MOL0     O54253   0.969  10.161   5.139  0.3013  0.1959  0.3743
  412MOL0     C54254   0.964  10.099   5.030  0.0226 -0.2019  0.7057
  412MOL0     O54255   0.862  10.017   4.990 -0.8300  0.5444  0.8223
  412MOL0     C54256   0.774   9.975   5.082 -0.1306  0.2198 -0.4056
  412MOL0     C54257   0.804   9.848   5.137 -0.3115 -0.0932  0.2405
  412MOL0     C54258   0.711   9.783   5.211  0.0519  0.4241  0.0799
  412MOL0     C54259   0.589   9.837   5.229 -0.0972  0.0062 -0.0190
  412MOL0     O54260   0.490   9.771   5.284  0.6605 -0.3133  0.2651
  412MOL0     C54261   0.463   9.644   5.215  0.4227  0.1423 -0.1039
  412MOL0     C54262   0.330   9.664   5.143 -1.0792 -0.0118  0.1153
  412MOL0     C54263   0.209   9.653   5.232 -0.2003  0.0905  0.5336
  412MOL0     C54264   0.080   9.660   5.137 -0.5592 -0.4173 -0.7964
  412MOL0     C54265  -0.032   9.634   5.230 -0.4849  0.6218 -0.5279
  412MOL0     C54266  -0.153   9.644   5.143 -0.1753  0.1442 -0.4568
  412MOL0     C54267  -0.284   9.580   5.194 -0.2713  0.0253 -0.6617
  412MOL0     C54268  -0.388   9.604   5.087 -0.0483 -0.0281  0.8725
  412MOL0     N54269  -0.445   9.742   5.092  0.5155 -0.2787  0.1905
  412MOL0     C54270  -0.499   9.784   5.208 -0.0809 -1.0481 -0.6893
  412MOL0     C54271  -0.583   9.880   5.179 -0.2064 -0.1649 -0.0117
  412MOL0     C54272  -0.640   9.966   5.291  0.1712 -0.2601  0.0622
  412MOL0     C54273  -0.785   9.942   5.340 -0.7147  0.1784 -0.1069
  412MOL0     C54274  -0.884   9.956   5.223 -0.0562 -0.0217  0.3123
  412MOL0     C54275  -0.868  10.089   5.150  0.2647  0.2727  0.3305
  412MOL0     O54276  -0.989  10.129   5.073  0.6196 -0.0762  1.0162
  412MOL0     C54277  -1.108  10.158   5.136 -0.3410 -0.1878  0.6216
  412MOL0     C54278  -1.205  10.223   5.054  0.2505  1.1674  0.4945
  412MOL0     C54279  -1.334  10.252   5.104 -0.2374  0.0276 -0.4682
  412MOL0     C54280  -1.381  10.211   5.223  0.2917 -0.1313 -1.6528
  412MOL0     C54281  -1.514  10.242   5.270  0.7166  0.0181 -0.4012
  412MOL0     O54282  -1.613  10.234   5.186  0.0717 -0.6166  0.2350
  412MOL0     C54283  -1.734  10.292   5.222 -0.9626 -0.2820  0.1687
  412MOL0     C54284  -1.844  10.222   5.177 -1.2186  0.1522 -0.3575
  412MOL0     C54285  -1.971  10.286   5.188 -0.8026  0.4912  0.5872
  412MOL0     C54286  -1.988  10.402   5.267  0.2058 -0.0538  0.9421
  412MOL0     O54287  -2.111  10.457   5.280  0.4080 -0.0949 -0.1996
  412MOL0     C54288  -2.201  10.377   5.361 -0.1699 -0.4739 -0.9750
  412MOL0     C54289  -2.348  10.396   5.335  0.0224 -0.3396 -1.1401
  412MOL0     C54290  -2.434  10.305   5.429 -0.1965  0.4223 -0.8105
  412MOL0     C54291  -2.578  10.331   5.397 -0.0374 -0.5120  0.2298
  412MOL0     C54292  -2.673  10.234   5.477 -0.4130 -0.8492 -0.4644
  412MOL0     C54293  -2.804  10.240   5.406 -1.0737 -0.6282 -0.4953
  412MOL0     C54294  -2.883  10.123   5.457  0.7121  0.3389 -0.0018
  412MOL0     C54295  -3.036  10.125   5.423  0.9969 -0.2304 -0.3308
  412MOL0    Cl54296  -3.125   9.979   5.481 -0.1788  0.3820 -0.5660
  412MOL0     C54297  -1.870  10.458   5.330 -0.0729 -0.4983  1.1785
  412MOL0     C54298  -1.745  10.408   5.294 -0.4757  0.2524 -0.4464
  412MOL0     O54299  -1.520  10.256   5.398  0.0597  0.3175 -0.6225
  412MOL0     C54300  -1.284  10.157   5.311 -0.4692 -0.3348  0.1429
  412MOL0     C54301  -1.156  10.134   5.272 -0.1127  0.4217  0.8043
  412MOL0     N54302  -0.581   9.896   5.039 -0.1185  0.4593  1.0096
  412MOL0     N54303  -0.509   9.803   4.984 -0.6769 -0.9820 -0.6844
  412MOL0     C54304   0.559   9.959   5.181  0.6827  0.6823 -1.6735
  412MOL0     C54305   0.646  10.029   5.097 -0.2826  0.0784 -0.1052
  412MOL0     C54306   1.073  10.115   4.930  0.2112 -1.0160 -0.7039
  412MOL0     C54307   1.171  10.209   4.944 -0.0559  0.3058 -0.2544
  412MOL0     C54308   1.275  10.229   4.847  0.6193 -0.2664  0.5035
  412MOL0     C54309   1.286  10.149   4.737 -1.3706  0.5745 -0.0992
  412MOL0     O54310   1.396  10.172   4.660 -0.0773 -0.9249 -0.1175
  412MOL0     C54311   1.515  10.112   4.711  0.5888 -0.1244 -1.0209
  412MOL0     C54312   1.636  10.184   4.665 -0.2411  0.1262  0.2213
  412MOL0     C54313   1.630  10.334   4.670 -0.9812  0.2727  1.1189
  412MOL0     C54314   1.622  10.389   4.540  0.0548 -0.1238  0.3075
  412MOL0     C54315   1.752  10.387   4.464 -0.3066 -0.6838  0.4910
  412MOL0     C54316   1.864  10.400   4.413  0.2955 -0.0040 -0.5369
  412MOL0     C54317   1.180  10.061   4.719 -0.2416 -0.2017 -0.3298
  412MOL0     C54318   1.075  10.042   4.816 -0.1142 -0.3230  0.1183
  412MOL0     H54319   0.896   9.795   5.113 -0.3706 -0.0459 -0.0831
  412MOL0     H54320   0.725   9.682   5.248  1.8899  0.9187  0.8420
  412MOL0     H54321   0.455   9.562   5.286  0.2469  1.7516  1.8290
  412MOL0     H54322   0.537   9.609   5.142  0.4840 -0.5209  0.2764
  412MOL0     H54323   0.312   9.577   5.079 -1.4157  0.9562 -1.1386
  412MOL0     H54324   0.338   9.756   5.085  0.9963 -0.0083  0.3290
  412MOL0     H54325   0.190   9.735   5.302 -1.7691  0.5250 -0.3763
  412MOL0     H54326   0.213   9.557   5.284  3.2351 -2.3020 -3.5063
  412MOL0     H54327   0.074   9.763   5.102  1.4470  0.4479  1.1169
  412MOL0     H54328   0.103   9.584   5.062 -2.2740 -2.1015  0.2908
  412MOL0     H54329  -0.035   9.711   5.308  0.0353 -1.4936  1.7277
  412MOL0     H54330  -0.028   9.537   5.281  1.2612 -1.4264 -4.1939
  412MOL0     H54331  -0.135   9.602   5.044 -2.7148 -0.7728 -0.6127
  412MOL0     H54332  -0.175   9.751   5.133  0.5406  0.3982  0.5338
  412MOL0     H54333  -0.275   9.473   5.218 -4.3523 -0.1906  0.7247
  412MOL0     H54334  -0.313   9.631   5.286  1.6680  1.5750 -0.8486
  412MOL0     H54335  -0.469   9.533   5.108  1.7857 -2.6527 -0.3455
  412MOL0     H54336  -0.359   9.579   4.985 -4.7930 -0.8673 -0.5248
  412MOL0     H54337  -0.473   9.747   5.306 -2.5052 -0.8175  0.1072
  412MOL0     H54338  -0.611  10.066   5.259  2.6543 -1.0822 -0.4861
  412MOL0     H54339  -0.574   9.958   5.378  0.3570  1.5555  0.1306
  412MOL0     H54340  -0.816  10.007   5.422 -2.2033  0.1977 -0.6549
  412MOL0     H54341  -0.783   9.838   5.376  0.7972  0.0805 -0.3989
  412MOL0     H54342  -0.849   9.871   5.163  0.4169 -0.4745  1.2191
  412MOL0     H54343  -0.989   9.939   5.248  0.7110 -2.1914  2.4140
  412MOL0     H54344  -0.789  10.081   5.075 -2.0284  0.8575 -2.3386
  412MOL0     H54345  -0.840  10.168   5.221  1.1237 -1.1511  1.6325
  412MOL0     H54346  -1.183  10.241   4.949 -1.7592 -1.4588 -0.4784
  412MOL0     H54347  -1.411  10.306   5.051 -0.6935  2.6760  2.6157
  412MOL0     H54348  -1.833  10.123   5.132  5.2139  0.9810 -1.5684
  412MOL0     H54349  -2.055  10.246   5.133 -1.3729  0.3184  1.5503
  412MOL0     H54350  -2.178  10.377   5.468 -0.6237  0.7415 -0.8672
  412MOL0     H54351  -2.196  10.271   5.335 -0.6783 -0.9267  0.6262
  412MOL0     H54352  -2.366  10.375   5.229 -2.5016 -0.2210 -0.7899
  412MOL0     H54353  -2.372  10.502   5.348 -4.0610 -1.2407  0.0363
  412MOL0     H54354  -2.413  10.317   5.536  1.7251  0.8026 -1.1915
  412MOL0     H54355  -2.406  10.207   5.389  0.8519  0.9636 -1.4708
  412MOL0     H54356  -2.595  10.434   5.431  2.5287 -0.5864  1.9672
  412MOL0     H54357  -2.606  10.321   5.292 -1.2058 -1.2170  0.5892
  412MOL0     H54358  -2.689  10.279   5.575  0.2240 -0.4520 -0.5343
  412MOL0     H54359  -2.619  10.140   5.489  2.2581  0.4380 -1.4813
  412MOL0     H54360  -2.799  10.231   5.297  2.4133 -1.4135 -0.4064
  412MOL0     H54361  -2.852  10.331   5.442  0.0037 -1.1295  2.4814
  412MOL0     H54362  -2.841  10.045   5.394 -0.2270  1.2016 -1.7610
  412MOL0     H54363  -2.866  10.105   5.564  4.6033 -0.9393 -0.6855
  412MOL0     H54364  -3.028  10.129   5.314  2.2180  2.1364 -0.2300
  412MOL0     H54365  -3.084  10.212   5.469  1.3854  0.8059 -1.8091
  412MOL0     H54366  -1.887  10.547   5.391  0.4730  0.6227 -0.2379
  412MOL0     H54367  -1.652  10.447   5.334  0.8651 -4.3526  1.6004
  412MOL0     H54368  -1.303  10.129   5.414  2.5887 -0.9192  0.6660
  412MOL0     H54369  -1.089  10.090   5.345 -0.9130 -1.3914  0.5103
  412MOL0     H54370   0.459   9.998   5.196 -0.2931 -1.5612 -1.9464
  412MOL0     H54371   0.616  10.127   5.061 -3.5854 -1.0446 -0.7698
  412MOL0     H54372   1.172  10.274   5.031  0.0280  1.0227 -0.7817
  412MOL0     H54373   1.352  10.305   4.855  1.2934 -0.6151 -1.8165
  412MOL0     H54374   1.521  10.006   4.685 -1.0939 -0.7038  0.7088
  412MOL0     H54375   1.511  10.104   4.820 -1.8407  1.6784 -0.9134
  412MOL0     H54376   1.710  10.147   4.736  0.2864  0.9766  0.1367
  412MOL0     H54377   1.661  10.157   4.562  2.1159  0.2911  0.6929
  412MOL0     H54378   1.720  10.376   4.716 -0.2849  0.2683 -0.2146
  412MOL0     H54379   1.544  10.368   4.729 -3.0848 -0.0289 -1.5894
  412MOL0     H54380   1.538  10.349   4.482 -1.4544  0.5679  1.9543
  412MOL0     H54381   1.596  10.493   4.560  1.9396 -0.1311  3.3719
  412MOL0     H54382   1.965  10.411   4.380  0.5971  0.7429  0.6031
  412MOL0     H54383   1.175  10.005   4.626 -2.3089  2.4125 -1.9174
  412MOL0     H54384   0.996   9.973   4.787 -1.6463  2.2850 -2.4123
  413MOL0     O54385  10.189   6.169   3.040  0.4417 -0.4089 -0.1404
  413MOL0     C54386  10.150   6.057   3.056  0.0907 -0.1510 -0.0805
  413MOL0     O54387  10.036   6.020   3.118  0.3292 -0.2638 -0.5812
  413MOL0     C54388   9.955   6.123   3.145  0.8665 -0.0167  0.0077
  413MOL0     C54389   9.918   6.223   3.049 -0.5408 -0.0597  0.2082
  413MOL0     C54390   9.819   6.323   3.079 -0.2644  0.4995  1.1049
  413MOL0     C54391   9.783   6.344   3.216 -0.7078 -0.1492  1.1273
  413MOL0     O54392   9.709   6.460   3.245 -0.5429  0.0489 -0.4002
  413MOL0     C54393   9.633   6.460   3.369 -0.2899  0.3404  0.9379
  413MOL0     C54394   9.542   6.587   3.368  0.1115  0.0722 -0.3135
  413MOL0     C54395   9.454   6.595   3.252  0.5611 -0.2256 -0.4412
  413MOL0     C54396   9.352   6.488   3.233  0.2600 -0.6626  0.7276
  413MOL0     C54397   9.205   6.527   3.280  0.4812 -0.7739 -0.3569
  413MOL0     C54398   9.131   6.409   3.342  0.2655 -0.7713 -0.0487
  413MOL0     C54399   9.091   6.301   3.238 -0.5247 -0.7975  0.0986
  413MOL0     C54400   9.028   6.358   3.115  0.5058 -0.0603 -0.5803
  413MOL0     N54401   8.976   6.261   3.014  0.0850 -0.9705 -0.1969
  413MOL0     C54402   8.854   6.207   3.022 -0.6640 -0.7499 -0.8451
  413MOL0     C54403   8.860   6.114   2.924  0.3427  0.4795 -0.1257
  413MOL0     C54404   8.735   6.048   2.878 -0.9521  0.2863 -0.2734
  413MOL0     C54405   8.779   5.921   2.794 -0.2648 -0.9420  0.6335
  413MOL0     C54406   8.661   5.827   2.768  0.6865 -0.3492  0.0602
  413MOL0     C54407   8.697   5.699   2.703 -0.6468 -0.0257 -0.4344
  413MOL0     O54408   8.685   5.711   2.562  0.5967 -0.2564 -0.5992
  413MOL0     C54409   8.563   5.690   2.501  0.2703  0.1748 -0.9196
  413MOL0     C54410   8.441   5.656   2.562  0.3088  0.1801 -0.2147
  413MOL0     C54411   8.330   5.622   2.471 -0.2778 -0.2558  0.0773
  413MOL0     C54412   8.340   5.625   2.333 -0.1629  0.6933  0.5232
  413MOL0     C54413   8.230   5.592   2.241 -0.4858  0.0087  0.3138
  413MOL0     O54414   8.113   5.553   2.299 -0.2690 -0.2310 -1.0720
  413MOL0     C54415   8.009   5.525   2.219 -0.9649  0.1830  0.9177
  413MOL0     C54416   8.005   5.426   2.116  0.1007 -1.1312 -0.2887
  413MOL0     C54417   7.887   5.416   2.046  0.1905  0.4960 -0.4468
  413MOL0     C54418   7.770   5.493   2.072 -0.4939 -0.6253  0.5907
  413MOL0     O54419   7.654   5.476   2.007 -0.0793  0.2401  0.5020
  413MOL0     C54420   7.526   5.527   2.059 -0.8303 -0.3181 -0.3783
  413MOL0     C54421   7.403   5.472   1.989  0.1111  0.8372 -0.1540
  413MOL0     C54422   7.273   5.540   2.043  0.6856 -0.3191 -0.6054
  413MOL0     C54423   7.155   5.517   1.947 -0.6169  0.0348 -0.2356
  413MOL0     C54424   7.043   5.619   1.978 -0.2423 -0.0741  0.4935
  413MOL0     C54425   6.902   5.589   1.919  0.7805  0.1230 -0.1920
  413MOL0     C54426   6.808   5.707   1.948 -0.7298 -0.2646  0.4798
  413MOL0     C54427   6.759   5.685   2.082  0.8265 -0.0005  0.1104
  413MOL0    Cl54428   6.675   5.834   2.149 -0.3371 -0.0603  0.1700
  413MOL0     C54429   7.772   5.572   2.185  0.4890 -0.1433  0.2868
  413MOL0     C54430   7.888   5.585   2.255 -0.7679 -1.0211 -0.6478
  413MOL0     O54431   8.245   5.609   2.123  0.2135 -0.1554 -0.3865
  413MOL0     C54432   8.466   5.671   2.276  0.5932 -0.4067 -0.2693
  413MOL0     C54433   8.566   5.697   2.360  0.1188 -0.0167 -0.3803
  413MOL0     N54434   8.982   6.120   2.857 -0.5699 -0.1737 -0.4519
  413MOL0     N54435   9.053   6.208   2.909  0.6006 -0.2958 -0.2194
  413MOL0     C54436   9.817   6.251   3.309  0.4223 -0.8010 -0.2100
  413MOL0     C54437   9.908   6.149   3.274  0.1889  0.0333 -0.8139
  413MOL0     C54438  10.249   5.942   3.057 -0.3504  0.5123 -0.3216
  413MOL0     C54439  10.199   5.806   3.084  0.8161  0.3203  0.2189
  413MOL0     C54440  10.291   5.697   3.078 -0.3971  0.6373 -0.8421
  413MOL0     C54441  10.435   5.713   3.053  0.0788 -0.0807  0.1266
  413MOL0     O54442  10.508   5.598   3.067 -0.7892 -0.2751  0.7433
  413MOL0     C54443  10.631   5.581   2.997 -0.3332  0.1992 -0.5687
  413MOL0     C54444  10.642   5.442   2.935  0.9942  0.4339 -0.3963
  413MOL0     C54445  10.548   5.432   2.813 -0.0647 -0.2663 -0.8461
  413MOL0     C54446  10.608   5.497   2.693 -0.9104 -1.3421 -0.5042
  413MOL0     C54447  10.738   5.450   2.659 -0.4221  0.1322  0.1177
  413MOL0     C54448  10.831   5.383   2.631 -0.6904 -0.2531 -0.3982
  413MOL0     C54449  10.485   5.839   3.030 -0.9039 -0.2711 -1.1326
  413MOL0     C54450  10.391   5.950   3.030  0.2361  0.0530 -0.0307
  413MOL0     H54451   9.949   6.216   2.945  0.0829 -1.2572  0.4566
  413MOL0     H54452   9.770   6.383   3.003  3.9133  2.7489 -0.1313
  413MOL0     H54453   9.702   6.472   3.453 -1.8957 -1.3256  2.5839
  413MOL0     H54454   9.584   6.365   3.390 -1.8294  0.6887 -0.8275
  413MOL0     H54455   9.615   6.668   3.361 -2.4258  2.4070 -1.3953
  413MOL0     H54456   9.501   6.595   3.469  3.2932 -2.2019  1.3714
  413MOL0     H54457   9.524   6.593   3.168 -0.2295  1.7157 -1.2094
  413MOL0     H54458   9.407   6.694   3.249 -3.1674 -1.7351  1.9558
  413MOL0     H54459   9.349   6.469   3.126  2.0190  1.2907  0.2690
  413MOL0     H54460   9.381   6.395   3.284 -1.7943 -1.3906  0.6741
  413MOL0     H54461   9.144   6.559   3.196  0.2408 -1.9251 -0.6319
  413MOL0     H54462   9.223   6.605   3.355  3.9060 -0.9035 -0.8744
  413MOL0     H54463   9.036   6.452   3.376 -0.2203 -1.1308 -0.8879
  413MOL0     H54464   9.174   6.374   3.436  0.6118  0.2211  0.1698
  413MOL0     H54465   9.175   6.233   3.220 -0.2201 -1.6936  3.9581
  413MOL0     H54466   9.019   6.237   3.289 -1.1448 -0.0137  0.2244
  413MOL0     H54467   9.087   6.428   3.056 -2.3804  1.6085 -1.7097
  413MOL0     H54468   8.942   6.419   3.145  0.6767  0.0131 -0.2444
  413MOL0     H54469   8.777   6.230   3.095  0.9615 -0.8909  1.0155
  413MOL0     H54470   8.686   6.113   2.805  1.5199 -1.0984 -3.4314
  413MOL0     H54471   8.663   6.011   2.951  0.5528  1.0365  1.6780
  413MOL0     H54472   8.857   5.864   2.845 -1.4025 -1.4271  1.8745
  413MOL0     H54473   8.824   5.960   2.702  1.8784 -2.6947  0.8653
  413MOL0     H54474   8.604   5.789   2.853 -0.8886  0.1575 -0.7268
  413MOL0     H54475   8.589   5.880   2.704  1.5349  0.6779 -0.0748
  413MOL0     H54476   8.631   5.621   2.741  0.0492  0.4932  2.0535
  413MOL0     H54477   8.798   5.675   2.738 -1.0191 -1.0316 -0.0311
  413MOL0     H54478   8.428   5.658   2.670 -0.6370 -0.9661 -0.2859
  413MOL0     H54479   8.228   5.594   2.496  0.4948 -3.0429  0.5448
  413MOL0     H54480   8.083   5.351   2.102  1.3939 -0.1936  1.4792
  413MOL0     H54481   7.899   5.333   1.977  1.7400  0.0586  0.3015
  413MOL0     H54482   7.528   5.636   2.051  2.3051  0.0653  2.9593
  413MOL0     H54483   7.512   5.497   2.163  2.9339 -1.3782 -0.0289
  413MOL0     H54484   7.391   5.366   2.012  1.1180  0.9894  1.2394
  413MOL0     H54485   7.419   5.487   1.882 -1.0901 -0.5910 -0.5528
  413MOL0     H54486   7.278   5.649   2.052 -2.3878 -0.2059  1.1812
  413MOL0     H54487   7.253   5.495   2.140  2.0428 -3.3740 -1.6349
  413MOL0     H54488   7.190   5.530   1.845 -2.8425  0.8188 -0.9571
  413MOL0     H54489   7.119   5.416   1.968  1.1093 -0.2115  1.9492
  413MOL0     H54490   7.073   5.714   1.933  0.4039 -1.2496 -1.7345
  413MOL0     H54491   7.044   5.620   2.087 -0.9455 -2.4074  0.5768
  413MOL0     H54492   6.860   5.495   1.957 -1.8233  0.1391 -2.6713
  413MOL0     H54493   6.907   5.563   1.813 -1.1324  0.9820 -0.5423
  413MOL0     H54494   6.864   5.800   1.939 -0.5371 -0.5612 -2.0902
  413MOL0     H54495   6.724   5.710   1.878 -0.7794 -0.0415  0.5468
  413MOL0     H54496   6.843   5.670   2.151 -1.0011  1.4239  2.8383
  413MOL0     H54497   6.693   5.598   2.082  0.4837  0.2554 -0.9692
  413MOL0     H54498   7.691   5.638   2.214 -0.1947 -2.0364  3.1919
  413MOL0     H54499   7.887   5.638   2.350  1.1355  1.2294 -1.7917
  413MOL0     H54500   8.482   5.702   2.174  0.6353  3.3326  0.7141
  413MOL0     H54501   8.659   5.727   2.313  1.2532 -3.0209 -0.2503
  413MOL0     H54502   9.787   6.265   3.413 -0.2484  0.8262 -0.5881
  413MOL0     H54503   9.945   6.101   3.364  0.7207  2.9062  0.6181
  413MOL0     H54504  10.097   5.770   3.088  1.3773 -1.2884  0.9689
  413MOL0     H54505  10.265   5.596   3.108 -1.7914  0.6357 -1.9595
  413MOL0     H54506  10.717   5.597   3.061 -0.6051  0.8156 -0.3547
  413MOL0     H54507  10.655   5.659   2.925  0.4359  0.3021 -0.2074
  413MOL0     H54508  10.744   5.409   2.914  1.5490  1.8038  0.0253
  413MOL0     H54509  10.621   5.375   3.019 -0.9338  3.1239  1.4643
  413MOL0     H54510  10.451   5.480   2.830  0.3737  0.1040  0.8152
  413MOL0     H54511  10.525   5.327   2.793 -0.1884 -0.4605  0.2633
  413MOL0     H54512  10.557   5.484   2.597  0.3266  3.8852 -2.2051
  413MOL0     H54513  10.617   5.605   2.708 -0.6472 -1.6228  1.6591
  413MOL0     H54514  10.913   5.315   2.622 -1.1403 -1.4843  3.1067
  413MOL0     H54515  10.589   5.857   3.004 -0.0172  1.0077  2.6900
  413MOL0     H54516  10.435   6.042   2.994 -0.7874  0.7017  0.3358
  414MOL0     O54517   9.267   9.957   2.171  0.1031 -0.1272 -0.4417
  414MOL0     C54518   9.302  10.077   2.184 -0.2066 -0.4577  1.5312
  414MOL0     O54519   9.212  10.181   2.161 -0.3872 -0.0190  1.2359
  414MOL0     C54520   9.078  10.163   2.150 -0.4715 -1.0755  0.6454
  414MOL0     C54521   9.013  10.276   2.090  0.9407  0.3716 -0.8509
  414MOL0     C54522   8.873  10.288   2.074  0.1418 -0.8594  0.4879
  414MOL0     C54523   8.792  10.188   2.127  1.0474  1.0728 -0.1782
  414MOL0     O54524   8.657  10.191   2.126  0.1359  0.2640 -0.3262
  414MOL0     C54525   8.585  10.274   2.037 -0.1766 -0.2073  0.0892
  414MOL0     C54526   8.435  10.274   2.073 -0.5079  0.0220  0.7743
  414MOL0     C54527   8.414  10.301   2.227 -0.3270 -0.4155  0.5376
  414MOL0     C54528   8.268  10.318   2.256 -0.1320  0.4083  0.0591
  414MOL0     C54529   8.248  10.333   2.408  0.2958  0.3569  0.3172
  414MOL0     C54530   8.101  10.370   2.446 -0.3099  0.0577  0.6223
  414MOL0     C54531   8.080  10.365   2.603 -0.1105 -1.0104 -0.3068
  414MOL0     C54532   7.926  10.348   2.634  0.0378  0.0327  0.3953
  414MOL0     N54533   7.876  10.198   2.644  0.8448 -0.4763  0.1319
  414MOL0     C54534   7.851  10.119   2.751  0.9175 -1.0642 -0.4359
  414MOL0     C54535   7.814   9.994   2.709 -0.7476 -1.0591  0.6011
  414MOL0     C54536   7.778   9.876   2.800  0.0105 -0.0296  0.1213
  414MOL0     C54537   7.625   9.885   2.825  0.5432 -0.8510 -0.1590
  414MOL0     C54538   7.591   9.998   2.930 -0.3060 -0.3810  0.1194
  414MOL0     C54539   7.442  10.001   2.976  0.6121  0.9177 -0.0200
  414MOL0     O54540   7.355  10.035   2.873  0.7844 -0.1752  0.8695
  414MOL0     C54541   7.219  10.072   2.887  0.0960  0.4171 -0.1894
  414MOL0     C54542   7.135   9.993   2.968 -0.8878  0.1223  0.7491
  414MOL0     C54543   7.000  10.032   2.980 -1.4190  0.2374 -0.5231
  414MOL0     C54544   6.945  10.148   2.923 -0.3936 -0.4663  0.6778
  414MOL0     C54545   6.799  10.179   2.931 -0.3758 -0.0673 -0.6074
  414MOL0     O54546   6.719  10.086   2.986  0.8686 -0.8292  0.5880
  414MOL0     C54547   6.596  10.115   3.048  0.7246  0.3383  0.1972
  414MOL0     C54548   6.566  10.238   3.095 -0.0491  0.6939 -1.4837
  414MOL0     C54549   6.446  10.258   3.162 -0.5793 -0.7301 -0.3103
  414MOL0     C54550   6.356  10.156   3.180  0.0711 -0.1571 -0.2374
  414MOL0     O54551   6.234  10.184   3.242 -0.0968 -0.0176 -0.0805
  414MOL0     C54552   6.125  10.092   3.245 -0.1544  0.4243  0.6524
  414MOL0     C54553   6.155  10.000   3.370  0.3029 -0.2452  0.4413
  414MOL0     C54554   6.041   9.897   3.379  0.4933  0.5831  0.5170
  414MOL0     C54555   5.901   9.944   3.432  0.4777 -0.0616  0.2289
  414MOL0     C54556   5.791   9.833   3.441  0.4409  0.3459 -0.4845
  414MOL0     C54557   5.664   9.890   3.509 -0.1144  0.6136 -1.0105
  414MOL0     C54558   5.571   9.775   3.568 -0.1452 -0.3850  0.6500
  414MOL0     C54559   5.453   9.848   3.643 -0.9417  0.4733 -0.7953
  414MOL0    Cl54560   5.312   9.755   3.665  0.7565 -0.0315  0.1600
  414MOL0     C54561   6.382  10.028   3.127  0.2251  0.5004 -0.3209
  414MOL0     C54562   6.502  10.006   3.068 -0.0886  0.2538  0.2430
  414MOL0     O54563   6.761  10.286   2.883 -0.0051  0.7527 -0.3218
  414MOL0     C54564   7.032  10.233   2.859 -1.0558 -0.0012  0.0497
  414MOL0     C54565   7.162  10.192   2.835 -0.9286 -0.0060 -0.1982
  414MOL0     N54566   7.832  10.001   2.574  0.3732 -0.0642  0.8923
  414MOL0     N54567   7.854  10.123   2.540  0.2151  0.7464  0.3406
  414MOL0     C54568   8.854  10.075   2.177  0.8294  0.3445  1.0872
  414MOL0     C54569   8.988  10.064   2.187  0.1164  0.4357  0.4282
  414MOL0     C54570   9.448  10.116   2.196 -0.5219 -0.7549  0.5958
  414MOL0     C54571   9.496  10.245   2.210 -0.0610  0.9114  0.3822
  414MOL0     C54572   9.636  10.270   2.210  0.6064  0.0033 -0.0512
  414MOL0     C54573   9.726  10.168   2.221 -1.2266  0.8436 -0.3010
  414MOL0     O54574   9.857  10.212   2.241 -0.0345  0.2089 -0.8234
  414MOL0     C54575   9.956  10.109   2.200  0.1116 -0.3126  0.0135
  414MOL0     C54576   9.978  10.013   2.316 -0.4549  0.3267 -0.0871
  414MOL0     C54577  10.027  10.094   2.437  0.0212 -0.2167  0.7952
  414MOL0     C54578  10.141  10.013   2.520  0.0204  0.7772 -0.2888
  414MOL0     C54579  10.269  10.007   2.446 -0.5239 -0.6309  0.7430
  414MOL0     C54580  10.369  10.017   2.383  0.2597  0.7764  0.1002
  414MOL0     C54581   9.670  10.043   2.191  0.6367  0.0332  0.2158
  414MOL0     C54582   9.539  10.010   2.176 -0.2425 -0.0322  0.5689
  414MOL0     H54583   9.069  10.358   2.046 -2.4695  1.7774 -2.9563
  414MOL0     H54584   8.843  10.373   2.014  0.4742 -0.8133  0.3820
  414MOL0     H54585   8.586  10.242   1.932 -1.8070  0.7265 -0.2391
  414MOL0     H54586   8.616  10.379   2.041 -2.7408  0.8177 -2.6090
  414MOL0     H54587   8.400  10.176   2.040 -1.9425  1.1221 -1.1538
  414MOL0     H54588   8.382  10.352   2.018 -3.0642 -1.7992  0.4626
  414MOL0     H54589   8.451  10.399   2.258 -1.5374  0.1776  0.1872
  414MOL0     H54590   8.475  10.226   2.278 -0.2601 -3.3093 -3.2809
  414MOL0     H54591   8.220  10.405   2.209 -0.3361  0.7586  0.8968
  414MOL0     H54592   8.217  10.226   2.226 -1.3176 -0.1311  3.3166
  414MOL0     H54593   8.320  10.408   2.443  0.7295 -1.2376  3.1997
  414MOL0     H54594   8.271  10.237   2.455 -1.8918 -2.5157 -3.8419
  414MOL0     H54595   8.053  10.281   2.403  3.7454 -0.7712 -2.7952
  414MOL0     H54596   8.063  10.457   2.391  0.0220 -1.1127 -1.5769
  414MOL0     H54597   8.140  10.282   2.640  1.1701  0.7636  1.8147
  414MOL0     H54598   8.119  10.456   2.649  3.8386 -2.7417  0.1205
  414MOL0     H54599   7.875  10.391   2.547  2.4465 -0.4856 -1.3730
  414MOL0     H54600   7.904  10.387   2.734 -1.5494 -2.9303  1.3036
  414MOL0     H54601   7.866  10.133   2.858 -1.9982 -2.3179  0.2240
  414MOL0     H54602   7.838   9.870   2.891 -0.2787 -2.0426  0.2309
  414MOL0     H54603   7.803   9.781   2.750 -0.7883  0.7793 -1.9296
  414MOL0     H54604   7.589   9.797   2.880 -2.7531  0.2996 -0.2613
  414MOL0     H54605   7.566   9.902   2.735  0.2414 -0.5434  0.0943
  414MOL0     H54606   7.665   9.992   3.010  2.0242  2.1926 -1.6204
  414MOL0     H54607   7.602  10.099   2.888 -2.0181 -0.7067 -1.2709
  414MOL0     H54608   7.427  10.081   3.049 -4.7101 -0.1933  0.5520
  414MOL0     H54609   7.408   9.908   3.024 -0.7327  0.9075 -0.9491
  414MOL0     H54610   7.173   9.906   3.021 -0.4748  0.4886  1.0647
  414MOL0     H54611   6.943   9.969   3.047  0.4842  0.4709  1.4121
  414MOL0     H54612   6.631  10.320   3.067 -1.0491  1.0513 -2.8666
  414MOL0     H54613   6.435  10.354   3.212  0.0837 -0.7597 -0.1003
  414MOL0     H54614   6.108  10.034   3.154  0.1062  0.1447  0.7804
  414MOL0     H54615   6.028  10.140   3.257 -0.9326 -1.0769  0.5757
  414MOL0     H54616   6.163  10.059   3.462 -0.3672  2.5005 -1.1359
  414MOL0     H54617   6.248   9.947   3.349 -0.0107 -1.0550  1.0469
  414MOL0     H54618   6.061   9.803   3.430 -6.0174 -0.6838  1.6166
  414MOL0     H54619   6.018   9.868   3.276  1.7146  3.3107 -0.6201
  414MOL0     H54620   5.917   9.992   3.529 -1.2693  1.4876 -0.1761
  414MOL0     H54621   5.862  10.024   3.369  1.2248  0.5442  0.5288
  414MOL0     H54622   5.821   9.741   3.493  1.2495 -0.0275 -1.5686
  414MOL0     H54623   5.757   9.788   3.347  0.1420  0.2091 -0.3142
  414MOL0     H54624   5.610   9.947   3.432 -0.7458 -0.7509 -1.6271
  414MOL0     H54625   5.689   9.953   3.594 -0.7258  1.3225 -1.3422
  414MOL0     H54626   5.538   9.714   3.483 -0.8486  1.0507 -0.1530
  414MOL0     H54627   5.632   9.726   3.644 -1.0435  1.5579  2.7527
  414MOL0     H54628   5.427   9.939   3.587 -1.5471 -0.5209 -2.1860
  414MOL0     H54629   5.483   9.881   3.743 -3.6329 -0.3880  0.3968
  414MOL0     H54630   6.304   9.953   3.123  0.7935 -0.3062  2.1340
  414MOL0     H54631   6.530   9.905   3.040 -1.1199 -0.2876  1.1443
  414MOL0     H54632   7.002  10.335   2.840  1.4158  1.5843  3.6729
  414MOL0     H54633   7.227  10.261   2.781 -1.4699 -1.0801 -2.3177
  414MOL0     H54634   8.791  10.002   2.226 -0.9355  1.1020  0.0721
  414MOL0     H54635   9.035   9.970   2.214  1.0339  0.6925 -0.1991
  414MOL0     H54636   9.424  10.326   2.214 -1.3007  0.1089 -2.7824
  414MOL0     H54637   9.669  10.370   2.236  1.8493 -0.5222  0.4817
  414MOL0     H54638  10.053  10.151   2.172  0.3107  0.4153  1.6766
  414MOL0     H54639   9.926  10.055   2.111  2.6434 -1.7382 -0.0703
  414MOL0     H54640   9.885   9.965   2.351  0.5439 -0.5501  1.4929
  414MOL0     H54641  10.046   9.934   2.284 -1.9135 -2.4736  3.0444
  414MOL0     H54642   9.948  10.122   2.507 -1.7743 -1.1145 -0.7963
  414MOL0     H54643  10.069  10.186   2.393 -0.8223 -0.8222 -1.3979
  414MOL0     H54644  10.158  10.049   2.622 -3.1402  1.2015  0.1817
  414MOL0     H54645  10.102   9.912   2.539 -1.2375  1.3346  0.2215
  414MOL0     H54646  10.464  10.038   2.338  0.8243 -1.2105  0.2998
  414MOL0     H54647   9.732   9.955   2.176 -0.3040 -0.7819  0.9883
  414MOL0     H54648   9.507   9.917   2.130 -1.3360  0.8655 -0.5788
  415MOL0     O54649   7.235   5.121   0.538 -0.3973  0.6666  0.2345
  415MOL0     C54650   7.315   5.098   0.446 -0.4556 -0.5656  0.7805
  415MOL0     O54651   7.284   5.066   0.318  0.9734 -0.3393 -0.0791
  415MOL0     C54652   7.161   5.010   0.313 -0.1087 -0.2886 -0.7316
  415MOL0     C54653   7.149   4.873   0.351 -0.3812 -0.4884 -0.5521
  415MOL0     C54654   7.024   4.814   0.352  0.4925 -0.0875  0.9213
  415MOL0     C54655   6.908   4.880   0.294  0.1215  0.6012  0.1290
  415MOL0     O54656   6.776   4.837   0.290  0.1521  0.3764 -0.9715
  415MOL0     C54657   6.744   4.706   0.358 -0.9591 -0.3184 -0.3701
  415MOL0     C54658   6.594   4.670   0.347 -0.4596  0.7109  0.7485
  415MOL0     C54659   6.502   4.775   0.394 -0.6516  0.4226 -0.3350
  415MOL0     C54660   6.364   4.764   0.335 -0.3796 -0.4630 -0.0549
  415MOL0     C54661   6.268   4.883   0.385 -0.7012  0.3519  0.4480
  415MOL0     C54662   6.132   4.857   0.333 -0.0500 -0.0261 -0.7024
  415MOL0     C54663   6.025   4.911   0.432 -0.5194  1.1455  0.0428
  415MOL0     C54664   5.886   4.914   0.360  0.1226 -0.1666  0.8631
  415MOL0     N54665   5.825   4.782   0.370  0.5825  0.6464  0.7123
  415MOL0     C54666   5.836   4.681   0.276  0.0962 -1.1115  0.0756
  415MOL0     C54667   5.758   4.583   0.329 -0.4275 -0.1012 -0.3510
  415MOL0     C54668   5.732   4.442   0.287 -0.3644 -0.4544  0.3799
  415MOL0     C54669   5.614   4.451   0.179  0.4174 -0.6236 -1.3658
  415MOL0     C54670   5.570   4.321   0.118  0.1081 -0.4524  0.0575
  415MOL0     C54671   5.492   4.219   0.209  0.7259 -0.9168  0.0977
  415MOL0     O54672   5.369   4.277   0.255 -0.6248 -0.1941 -0.0074
  415MOL0     C54673   5.275   4.206   0.324 -0.4312  0.4664 -0.2016
  415MOL0     C54674   5.149   4.269   0.341 -0.2027 -0.4160 -0.3577
  415MOL0     C54675   5.055   4.198   0.414  0.4688 -0.2986  0.0062
  415MOL0     C54676   5.067   4.064   0.456  0.4217 -0.0144  0.1606
  415MOL0     C54677   4.953   3.997   0.507 -0.3069 -0.2934 -0.6641
  415MOL0     O54678   4.827   4.063   0.498 -0.2586  0.0093 -0.1747
  415MOL0     C54679   4.710   4.016   0.546 -0.2534 -0.3455 -0.3358
  415MOL0     C54680   4.611   4.110   0.584  0.2179  0.8733 -0.4886
  415MOL0     C54681   4.485   4.072   0.644 -0.3588 -0.9172  0.4261
  415MOL0     C54682   4.456   3.939   0.657  0.5426  0.2635  0.3234
  415MOL0     O54683   4.342   3.896   0.714  0.0497  0.5404  0.5596
  415MOL0     C54684   4.224   3.985   0.715 -0.4045 -0.6511  0.0929
  415MOL0     C54685   4.098   3.909   0.741  0.4073  0.1371  0.2695
  415MOL0     C54686   4.062   3.813   0.632  0.6291 -0.7634  0.5890
  415MOL0     C54687   3.947   3.707   0.683 -0.7185 -0.6018  0.4791
  415MOL0     C54688   3.975   3.560   0.633 -0.0127 -0.6241 -0.7786
  415MOL0     C54689   3.855   3.462   0.650 -0.1657 -0.3508 -1.5843
  415MOL0     C54690   3.858   3.338   0.574  0.1285  0.0402  0.0330
  415MOL0     C54691   3.798   3.329   0.436  0.7579 -1.2357 -0.3618
  415MOL0    Cl54692   3.627   3.394   0.424 -0.0418  0.2884 -0.1446
  415MOL0     C54693   4.550   3.840   0.619  0.7551  0.9936 -0.3318
  415MOL0     C54694   4.675   3.879   0.561  0.6736  0.7463 -0.2579
  415MOL0     O54695   4.973   3.892   0.562  0.2779 -0.0311 -0.0468
  415MOL0     C54696   5.185   4.002   0.432 -0.4048  0.0113  0.1854
  415MOL0     C54697   5.293   4.076   0.378 -0.2042  0.3381  0.6194
  415MOL0     N54698   5.686   4.632   0.440 -0.3587 -0.4639  0.4660
  415MOL0     N54699   5.719   4.751   0.455  0.5397 -0.1224 -0.2550
  415MOL0     C54700   6.926   5.016   0.255  0.4142  0.0060 -0.1168
  415MOL0     C54701   7.050   5.085   0.265 -0.0372  0.0385 -0.1566
  415MOL0     C54702   7.458   5.119   0.475  0.1801  0.4349  0.4013
  415MOL0     C54703   7.510   5.154   0.599 -0.2665 -0.2458  0.2336
  415MOL0     C54704   7.649   5.154   0.615  0.4231  0.2654  0.4720
  415MOL0     C54705   7.738   5.148   0.505  0.1646  0.1290 -0.3543
  415MOL0     O54706   7.877   5.159   0.533  1.0229  0.1366  0.2022
  415MOL0     C54707   7.973   5.163   0.428 -0.3823 -0.4201 -0.1932
  415MOL0     C54708   8.120   5.183   0.482  0.0763  0.5806 -0.4616
  415MOL0     C54709   8.189   5.073   0.575  0.8170 -0.6988 -0.0112
  415MOL0     C54710   8.327   5.127   0.623 -0.5429 -0.5071  0.1326
  415MOL0     C54711   8.388   5.056   0.734  0.4422 -0.0040 -0.2636
  415MOL0     C54712   8.428   4.983   0.820  0.6298 -0.3577 -0.4358
  415MOL0     C54713   7.682   5.117   0.379 -0.1157  0.3581 -0.2539
  415MOL0     C54714   7.547   5.093   0.364  0.2881  0.0470  0.3379
  415MOL0     H54715   7.236   4.821   0.390  0.0229  0.5075 -0.0885
  415MOL0     H54716   7.026   4.718   0.403  0.7682  1.1817  3.5183
  415MOL0     H54717   6.773   4.713   0.463  3.0470 -0.1459 -1.3182
  415MOL0     H54718   6.811   4.629   0.317  1.7661  1.1649  1.0859
  415MOL0     H54719   6.575   4.580   0.406 -0.2462  1.0500  1.3492
  415MOL0     H54720   6.579   4.641   0.243  0.6364  0.1741  0.7207
  415MOL0     H54721   6.551   4.869   0.368 -0.0967 -0.1994 -1.5868
  415MOL0     H54722   6.497   4.769   0.504 -1.3909  0.2818 -0.3683
  415MOL0     H54723   6.361   4.751   0.226 -7.4275 -2.1529 -0.1195
  415MOL0     H54724   6.324   4.667   0.364  1.8990 -0.8898  1.9373
  415MOL0     H54725   6.304   4.981   0.356  1.3908 -0.2789  0.7589
  415MOL0     H54726   6.263   4.871   0.494 -0.2787  1.5391  0.6105
  415MOL0     H54727   6.107   4.751   0.326 -1.6464  0.2877 -0.2160
  415MOL0     H54728   6.121   4.900   0.233  0.4713 -0.3946 -0.9210
  415MOL0     H54729   6.025   4.862   0.530  2.1359  3.9803  1.6643
  415MOL0     H54730   6.059   5.014   0.445  0.7427  0.7340  0.1765
  415MOL0     H54731   5.900   4.945   0.256  0.2856 -1.7693  0.3806
  415MOL0     H54732   5.823   4.986   0.411  2.9439 -0.0040  4.5393
  415MOL0     H54733   5.911   4.677   0.197  3.0214  2.0328  2.3925
  415MOL0     H54734   5.716   4.390   0.382  0.6007  0.6076  1.1496
  415MOL0     H54735   5.814   4.392   0.235  0.1711 -1.1966  1.8833
  415MOL0     H54736   5.651   4.517   0.099  1.1456  0.7747  0.0592
  415MOL0     H54737   5.537   4.520   0.214  0.9904 -0.1111 -1.0824
  415MOL0     H54738   5.511   4.340   0.028  0.6177 -0.2784 -0.2430
  415MOL0     H54739   5.659   4.270   0.082 -0.0872 -0.2650 -0.7256
  415MOL0     H54740   5.560   4.189   0.289 -0.1480 -0.5212  0.9911
  415MOL0     H54741   5.472   4.131   0.147  2.5990 -0.5527 -1.1136
  415MOL0     H54742   5.128   4.371   0.308 -2.8500 -0.2752  1.4589
  415MOL0     H54743   4.958   4.245   0.427  0.1228 -0.7785 -0.7820
  415MOL0     H54744   4.634   4.216   0.572 -0.2751  0.8930 -1.2871
  415MOL0     H54745   4.410   4.147   0.667  1.0967  1.3340 -1.6140
  415MOL0     H54746   4.207   4.041   0.623  0.9420 -0.7590 -0.2378
  415MOL0     H54747   4.234   4.056   0.798  1.4427 -4.0083  3.0360
  415MOL0     H54748   4.010   3.968   0.769  0.8679  1.3332 -0.7242
  415MOL0     H54749   4.118   3.847   0.829  0.1032  0.5271  0.6175
  415MOL0     H54750   4.145   3.742   0.625 -0.9234 -2.4971 -1.5425
  415MOL0     H54751   4.061   3.858   0.533  0.2405 -1.6311  0.1805
  415MOL0     H54752   3.958   3.697   0.791 -0.5515 -1.1687  0.4101
  415MOL0     H54753   3.841   3.733   0.682 -0.0192  2.8702 -1.5359
  415MOL0     H54754   4.066   3.519   0.679 -0.4508 -0.1134  0.5856
  415MOL0     H54755   3.985   3.562   0.524  0.9030 -2.1830 -0.7480
  415MOL0     H54756   3.763   3.518   0.629 -0.6320 -0.4014  0.1343
  415MOL0     H54757   3.847   3.443   0.758  0.0786 -0.0247 -1.5075
  415MOL0     H54758   3.962   3.303   0.573  0.1602  0.1366 -0.3208
  415MOL0     H54759   3.808   3.270   0.643 -1.0538  0.7724 -0.0912
  415MOL0     H54760   3.808   3.228   0.395 -0.3738 -0.5909 -2.3829
  415MOL0     H54761   3.854   3.397   0.370 -1.9473  1.2225 -0.3381
  415MOL0     H54762   4.530   3.734   0.629  2.0515  0.9551  2.6936
  415MOL0     H54763   4.740   3.803   0.519 -0.1511  1.0774 -2.2723
  415MOL0     H54764   5.210   3.897   0.436 -1.0828 -0.2329 -1.2679
  415MOL0     H54765   5.391   4.028   0.371 -0.8626 -0.9339 -0.2273
  415MOL0     H54766   6.844   5.076   0.218  0.8126 -0.5544 -2.0365
  415MOL0     H54767   7.061   5.190   0.242  5.4650 -0.3542 -0.6528
  415MOL0     H54768   7.454   5.170   0.691  1.8319  1.8906  1.2477
  415MOL0     H54769   7.685   5.186   0.712 -1.5395  1.4669  0.8797
  415MOL0     H54770   7.965   5.255   0.369  1.5093  0.3564  0.6810
  415MOL0     H54771   7.975   5.067   0.376  0.2016 -2.2779  3.0230
  415MOL0     H54772   8.188   5.190   0.397  1.2122  2.1552  0.5413
  415MOL0     H54773   8.111   5.276   0.539 -0.1361  0.1020  0.3011
  415MOL0     H54774   8.208   4.980   0.520  1.6406 -0.4907 -0.0911
  415MOL0     H54775   8.129   5.052   0.663  0.8249  0.7640  0.3729
  415MOL0     H54776   8.406   5.145   0.550  1.2869 -3.0454  1.3404
  415MOL0     H54777   8.307   5.222   0.674 -0.4919 -0.8607  0.8177
  415MOL0     H54778   8.479   4.927   0.896 -0.0569 -0.4118 -0.0086
  415MOL0     H54779   7.747   5.121   0.292  0.0870  1.4101 -0.0711
  415MOL0     H54780   7.508   5.066   0.266  1.8202 -2.1000  0.2408
  416MOL0     O54781   8.462  10.949   2.787 -0.0988 -0.1784  0.1821
  416MOL0     C54782   8.550  10.955   2.875  0.1799  0.0751  0.3845
  416MOL0     O54783   8.529  10.947   3.011 -0.3241 -0.2487  0.3282
  416MOL0     C54784   8.404  10.945   3.071 -0.4288  1.5160  0.5846
  416MOL0     C54785   8.404  10.901   3.200  0.6803 -0.3497  0.9054
  416MOL0     C54786   8.290  10.911   3.285  0.0416 -0.0723  0.1599
  416MOL0     C54787   8.176  10.975   3.228  0.2214  0.2279 -1.0263
  416MOL0     O54788   8.059  10.998   3.302  0.0666 -0.6475 -0.3960
  416MOL0     C54789   7.962  10.895   3.280 -0.5589  1.0898  0.5751
  416MOL0     C54790   7.865  10.892   3.405  0.1707  0.0641 -0.0673
  416MOL0     C54791   7.743  10.802   3.385 -0.5751  0.0986  1.0768
  416MOL0     C54792   7.641  10.819   3.500 -0.9019 -0.1920  0.2443
  416MOL0     C54793   7.526  10.731   3.479 -0.0571 -0.8123  0.0223
  416MOL0     C54794   7.421  10.740   3.580 -0.3733  0.1489  0.1332
  416MOL0     C54795   7.320  10.626   3.568 -0.2643  0.1883  0.1010
  416MOL0     C54796   7.196  10.647   3.660  0.3611 -0.1523  0.6098
  416MOL0     N54797   7.074  10.585   3.611 -0.5090  0.5929 -0.8716
  416MOL0     C54798   7.057  10.443   3.595  0.3662 -0.4189  0.5052
  416MOL0     C54799   6.951  10.434   3.513  1.1470  0.9050 -0.2052
  416MOL0     C54800   6.891  10.300   3.453  0.0563 -0.1852  0.0953
  416MOL0     C54801   6.758  10.256   3.523  0.1530  1.0679 -0.3422
  416MOL0     C54802   6.700  10.138   3.450 -0.3107 -0.1945 -0.3197
  416MOL0     C54803   6.555  10.121   3.490  0.0147 -0.1857 -0.3747
  416MOL0     O54804   6.536  10.083   3.626 -0.1755 -0.2645  0.2292
  416MOL0     C54805   6.410  10.100   3.678  0.0831  1.3568 -0.5078
  416MOL0     C54806   6.354  10.227   3.681 -0.9703  0.2506  1.3278
  416MOL0     C54807   6.222  10.243   3.717 -0.7961  0.4259  0.5692
  416MOL0     C54808   6.144  10.139   3.764 -0.2419  0.7045 -0.5458
  416MOL0     C54809   6.011  10.173   3.825  0.3180 -0.7344  0.3963
  416MOL0     O54810   5.936  10.064   3.868 -0.1065  0.2384  0.1279
  416MOL0     C54811   5.810  10.068   3.922 -0.9831  0.3339 -0.3688
  416MOL0     C54812   5.747  10.188   3.959 -0.9630  0.6241  0.1635
  416MOL0     C54813   5.616  10.183   4.010  0.4751 -1.1820 -0.1976
  416MOL0     C54814   5.555  10.056   4.025  1.1535 -0.3880 -0.2667
  416MOL0     O54815   5.430  10.053   4.075 -0.5298  0.5433 -0.0452
  416MOL0     C54816   5.335   9.968   4.007  0.6315  0.3622  0.5940
  416MOL0     C54817   5.291   9.844   4.092  0.7371 -0.3286 -0.7019
  416MOL0     C54818   5.193   9.757   4.013  0.4947 -0.1085  0.3069
  416MOL0     C54819   5.122   9.653   4.098  0.2576 -0.1348  0.2412
  416MOL0     C54820   4.996   9.713   4.176  0.5849  0.6723 -0.2714
  416MOL0     C54821   4.927   9.590   4.244 -0.3465 -0.5511  0.2744
  416MOL0     C54822   4.791   9.633   4.308 -0.9115  1.0200 -0.5279
  416MOL0     C54823   4.672   9.632   4.211  1.1833 -0.1516  0.7299
  416MOL0    Cl54824   4.605   9.477   4.165  0.2709  0.1051 -0.1595
  416MOL0     C54825   5.628   9.941   3.996 -0.2801 -0.4343  0.2258
  416MOL0     C54826   5.753   9.944   3.943  0.7603 -0.3200  0.6331
  416MOL0     O54827   5.978  10.292   3.832 -0.3806 -0.2004 -0.2174
  416MOL0     C54828   6.194  10.008   3.756 -0.4807 -0.4778 -0.1813
  416MOL0     C54829   6.328   9.990   3.715 -0.9613  0.4234 -0.0337
  416MOL0     N54830   6.897  10.562   3.497  0.4425  0.2570  0.3417
  416MOL0     N54831   6.971  10.647   3.548 -0.4283 -0.3474 -0.1528
  416MOL0     C54832   8.176  11.026   3.104  0.5370  0.7339 -0.6126
  416MOL0     C54833   8.287  11.009   3.019 -0.1276  0.5590 -0.3685
  416MOL0     C54834   8.687  10.972   2.821 -0.2471  1.5537 -0.4314
  416MOL0     C54835   8.708  11.008   2.687 -0.1164  0.2456 -0.3869
  416MOL0     C54836   8.832  11.027   2.634 -0.3380 -0.0693  0.3099
  416MOL0     C54837   8.941  11.000   2.713  0.1233  0.0697 -0.1438
  416MOL0     O54838   9.064  11.019   2.655  0.8980  0.1312  0.1288
  416MOL0     C54839   9.183  11.026   2.734 -0.2922  0.9226 -0.5714
  416MOL0     C54840   9.298  11.088   2.656  0.4466 -0.2856 -0.8914
  416MOL0     C54841   9.319  10.994   2.536 -0.0603 -0.3371 -0.2058
  416MOL0     C54842   9.416  11.050   2.426  0.2872  0.4117  0.2488
  416MOL0     C54843   9.554  11.062   2.482 -0.5092  0.3778 -0.2511
  416MOL0     C54844   9.670  11.074   2.536  0.6741  0.2738  0.5575
  416MOL0     C54845   8.930  10.948   2.843  0.2963 -0.0940  0.2575
  416MOL0     C54846   8.803  10.937   2.899  0.8367  0.6657 -0.2022
  416MOL0     H54847   8.498  10.858   3.233  1.6336 -1.4154 -2.7594
  416MOL0     H54848   8.284  10.868   3.384 -2.2196  3.9140  2.0162
  416MOL0     H54849   8.014  10.801   3.258 -2.8713  0.0919 -1.0209
  416MOL0     H54850   7.908  10.911   3.187  0.6122  0.5657 -0.2188
  416MOL0     H54851   7.824  10.991   3.425 -1.1682  0.2976 -3.2724
  416MOL0     H54852   7.920  10.861   3.494 -0.1731 -0.6372 -0.0886
  416MOL0     H54853   7.779  10.699   3.390  0.2159  0.3345  0.4865
  416MOL0     H54854   7.697  10.812   3.286  0.6020  0.4323  0.5530
  416MOL0     H54855   7.682  10.794   3.599 -1.0115 -1.2820  0.0305
  416MOL0     H54856   7.614  10.925   3.507  3.9661  1.2356  1.4982
  416MOL0     H54857   7.552  10.626   3.460 -2.2498 -1.2959 -0.5663
  416MOL0     H54858   7.487  10.765   3.383  0.8124  2.3910  0.6950
  416MOL0     H54859   7.360  10.830   3.575 -1.9524 -0.8758  0.2711
  416MOL0     H54860   7.465  10.723   3.679  0.3658 -1.8507 -0.5008
  416MOL0     H54861   7.294  10.610   3.463  0.1265  1.5492 -0.2248
  416MOL0     H54862   7.370  10.532   3.593  1.4861  0.7143 -1.2059
  416MOL0     H54863   7.178  10.754   3.673  1.4353  0.0823  0.2522
  416MOL0     H54864   7.215  10.599   3.757 -0.9309  1.8582  1.9385
  416MOL0     H54865   7.130  10.370   3.629  0.7769 -1.7643 -2.9195
  416MOL0     H54866   6.967  10.226   3.480  1.5743  1.6844  1.1932
  416MOL0     H54867   6.893  10.293   3.344 -1.3754 -1.2236  0.1040
  416MOL0     H54868   6.700  10.348   3.513  3.0886  2.8345 -2.4456
  416MOL0     H54869   6.769  10.235   3.630  0.6194  0.5561 -0.4833
  416MOL0     H54870   6.702  10.152   3.342 -0.6968  4.6789  0.0795
  416MOL0     H54871   6.758  10.047   3.470 -0.0095 -0.2627 -1.4476
  416MOL0     H54872   6.521  10.047   3.417 -0.3331 -0.5766  0.1762
  416MOL0     H54873   6.505  10.215   3.466 -0.5493 -1.1872 -3.6783
  416MOL0     H54874   6.409  10.308   3.635 -3.9330  1.8466  0.2946
  416MOL0     H54875   6.182  10.342   3.698 -1.2730  0.1589  0.1230
  416MOL0     H54876   5.797  10.284   3.961 -2.1349  1.2626  2.3048
  416MOL0     H54877   5.565  10.276   4.034 -0.4000 -1.7080  0.0286
  416MOL0     H54878   5.384   9.927   3.919 -1.7671  0.7719 -1.0163
  416MOL0     H54879   5.245  10.025   3.980  0.3397 -0.4330 -0.1347
  416MOL0     H54880   5.244   9.880   4.184 -2.7748 -1.9536 -1.6765
  416MOL0     H54881   5.383   9.790   4.116  0.1285 -0.4317  1.5857
  416MOL0     H54882   5.249   9.700   3.937 -1.1690 -3.0747  1.1324
  416MOL0     H54883   5.111   9.811   3.965 -0.3530 -1.3012  0.3765
  416MOL0     H54884   5.083   9.574   4.034 -2.3832  0.2754  1.1882
  416MOL0     H54885   5.189   9.611   4.173 -2.6779 -1.3121  2.4043
  416MOL0     H54886   4.927   9.774   4.116  2.7142  1.4590 -2.0828
  416MOL0     H54887   5.034   9.787   4.247 -1.0433  1.8519 -0.5541
  416MOL0     H54888   4.993   9.551   4.322  0.5011  2.1245  1.0004
  416MOL0     H54889   4.905   9.510   4.173 -1.8123  1.6410 -1.9047
  416MOL0     H54890   4.782   9.556   4.385  0.4921 -0.9756 -2.2349
  416MOL0     H54891   4.801   9.734   4.349  0.0013  0.4620  0.6891
  416MOL0     H54892   4.694   9.695   4.124  1.6179  0.1154  1.0333
  416MOL0     H54893   4.586   9.687   4.250 -0.9830 -3.4705  0.9635
  416MOL0     H54894   5.592   9.841   4.018  0.6201 -0.2479  2.9993
  416MOL0     H54895   5.807   9.854   3.916  2.7576  0.7708  0.7925
  416MOL0     H54896   6.138   9.923   3.796  1.4896 -2.9297 -2.2502
  416MOL0     H54897   6.372   9.891   3.708 -0.6432  0.6631 -2.1626
  416MOL0     H54898   8.084  11.077   3.075 -1.1042  0.0780  2.9411
  416MOL0     H54899   8.282  11.049   2.919 -2.7725 -0.4402 -0.7125
  416MOL0     H54900   8.621  11.029   2.625 -0.6970 -1.8487 -0.3693
  416MOL0     H54901   8.848  11.052   2.529 -0.6604 -2.9023 -0.4855
  416MOL0     H54902   9.220  10.930   2.772 -2.6900 -1.2877 -3.3378
  416MOL0     H54903   9.158  11.084   2.823 -0.8862 -0.0575 -0.0775
  416MOL0     H54904   9.260  11.188   2.635 -1.7777  0.2279  4.0736
  416MOL0     H54905   9.388  11.088   2.717 -0.2087  0.6576  0.1126
  416MOL0     H54906   9.223  10.976   2.487 -0.1911  1.2168 -0.5860
  416MOL0     H54907   9.355  10.901   2.580 -1.9290  0.3964  3.2528
  416MOL0     H54908   9.433  10.984   2.341  0.0374 -0.4577  0.8635
  416MOL0     H54909   9.389  11.148   2.384  0.3665 -0.1999 -1.2771
  416MOL0     H54910   9.770  11.096   2.570  2.6247  0.8768 -4.7094
  416MOL0     H54911   9.017  10.908   2.896  0.1978  2.0574  2.2029
  416MOL0     H54912   8.786  10.879   2.989 -2.2037 -0.0196 -1.0771
  417MOL0     O54913   5.837   1.912   4.579 -0.1462  1.0606 -0.3780
  417MOL0     C54914   5.937   1.984   4.579  0.2041 -0.3737 -0.6472
  417MOL0     O54915   5.992   2.044   4.484 -0.6319 -0.4380 -0.2550
  417MOL0     C54916   5.928   2.077   4.371 -0.9922 -0.2222  0.4303
  417MOL0     C54917   5.796   2.047   4.334  0.2099  0.8627  0.2858
  417MOL0     C54918   5.731   2.106   4.223  0.3182 -1.2301 -0.5941
  417MOL0     C54919   5.791   2.217   4.157 -0.1329  0.5732 -0.9244
  417MOL0     O54920   5.737   2.292   4.058  1.0518 -0.3433 -0.0316
  417MOL0     C54921   5.652   2.220   3.953  0.2354  0.6359  0.3070
  417MOL0     C54922   5.710   2.228   3.809  0.2650 -0.6081 -1.3583
  417MOL0     C54923   5.594   2.217   3.711  0.1625 -0.2432  0.8025
  417MOL0     C54924   5.628   2.274   3.578  0.1302  0.4717 -0.0327
  417MOL0     C54925   5.698   2.175   3.496 -0.4879  0.3504  0.4009
  417MOL0     C54926   5.716   2.238   3.354  0.5949  0.1510  0.1467
  417MOL0     C54927   5.788   2.131   3.273  0.3081  0.0666 -0.3002
  417MOL0     C54928   5.824   2.169   3.137 -0.6482  0.3196  0.6196
  417MOL0     N54929   5.908   2.063   3.078  0.3429 -0.1229  0.1634
  417MOL0     C54930   6.032   2.088   3.038  0.2649  0.7911  0.2471
  417MOL0     C54931   6.085   1.962   3.020  0.3738  0.5289 -0.9078
  417MOL0     C54932   6.219   1.911   2.964 -0.9943 -0.2805  0.5797
  417MOL0     C54933   6.320   1.942   3.074 -0.0748 -0.4661  0.4017
  417MOL0     C54934   6.454   1.856   3.047  0.0781  0.5724 -0.6255
  417MOL0     C54935   6.553   1.932   2.955  0.1019 -0.7238  0.1604
  417MOL0     O54936   6.646   1.841   2.907 -0.0248  0.8915 -0.3938
  417MOL0     C54937   6.779   1.864   2.897 -0.5052  0.0826  0.8086
  417MOL0     C54938   6.839   1.992   2.913  1.4756  0.0431  0.4128
  417MOL0     C54939   6.974   2.023   2.888  0.4527 -0.3305 -0.9978
  417MOL0     C54940   7.056   1.921   2.843 -0.6990 -0.1824  0.4958
  417MOL0     C54941   7.203   1.946   2.833  0.2961 -1.1756 -0.2060
  417MOL0     O54942   7.284   1.841   2.798  0.7698 -0.5800  0.6714
  417MOL0     C54943   7.414   1.870   2.765 -0.2415  0.1434  1.1134
  417MOL0     C54944   7.472   1.813   2.645 -0.3405 -0.0509 -0.1700
  417MOL0     C54945   7.609   1.836   2.615  0.4379  0.4144  0.8326
  417MOL0     C54946   7.691   1.914   2.701  1.5528  0.7848 -0.1943
  417MOL0     O54947   7.809   1.942   2.659 -0.6843  0.3411  0.0867
  417MOL0     C54948   7.861   2.058   2.714 -0.3367 -0.6358 -0.1251
  417MOL0     C54949   7.980   2.085   2.612  0.3502  0.6780  0.1413
  417MOL0     C54950   8.117   2.030   2.657 -0.6559  0.2284 -0.4765
  417MOL0     C54951   8.239   2.090   2.581  0.8918  0.1739  0.3547
  417MOL0     C54952   8.372   2.011   2.613 -0.2629 -0.3702 -0.2918
  417MOL0     C54953   8.398   1.983   2.754 -0.9295  0.1745  0.8081
  417MOL0     C54954   8.541   1.943   2.771 -0.9634  0.3486  0.8161
  417MOL0     C54955   8.603   1.917   2.908 -1.0905  0.6195 -0.2603
  417MOL0    Cl54956   8.613   2.061   2.998 -0.5016  0.1693 -0.1775
  417MOL0     C54957   7.632   1.956   2.819  0.5554  0.0513  0.0019
  417MOL0     C54958   7.502   1.932   2.852 -0.7966 -0.7293 -0.2154
  417MOL0     O54959   7.244   2.064   2.829 -0.1324  0.1016  0.3200
  417MOL0     C54960   7.002   1.794   2.808 -0.5136 -0.5333 -0.5134
  417MOL0     C54961   6.865   1.769   2.842 -0.1954 -0.2716  0.6063
  417MOL0     N54962   5.983   1.868   3.040  0.6470 -0.3007  0.0653
  417MOL0     N54963   5.881   1.932   3.076  1.0250 -0.3333 -0.5800
  417MOL0     C54964   5.911   2.266   4.205 -0.1274  0.0868  0.6264
  417MOL0     C54965   5.983   2.192   4.308 -0.6288 -0.2433  0.2653
  417MOL0     C54966   6.011   2.005   4.709  0.2260  0.1348 -0.4727
  417MOL0     C54967   6.135   2.060   4.712  0.8086 -0.1498  0.2706
  417MOL0     C54968   6.218   2.069   4.823 -0.3042  0.3380  0.1517
  417MOL0     C54969   6.156   2.030   4.946 -1.3112  0.5208 -0.5564
  417MOL0     O54970   6.238   2.031   5.053 -0.1265 -0.9713  0.0483
  417MOL0     C54971   6.174   2.033   5.189 -0.7471  0.4565 -0.8714
  417MOL0     C54972   6.278   2.054   5.293 -0.1218  0.0305 -0.9533
  417MOL0     C54973   6.200   2.059   5.435  0.3177 -0.4724 -0.2065
  417MOL0     C54974   6.284   2.065   5.562 -0.2418  0.4424  0.4129
  417MOL0     C54975   6.359   1.946   5.593  0.5508 -0.0257  0.3331
  417MOL0     C54976   6.432   1.852   5.610  0.2652 -0.3208 -0.0542
  417MOL0     C54977   6.029   1.985   4.951  0.2267 -0.0196 -0.0056
  417MOL0     C54978   5.961   1.972   4.834  0.1607  0.2791  0.5710
  417MOL0     H54979   5.740   1.968   4.383  1.3182 -0.0550  0.1100
  417MOL0     H54980   5.627   2.081   4.204 -0.5190  1.2647  0.3410
  417MOL0     H54981   5.559   2.278   3.949 -0.7978 -1.0417 -1.1558
  417MOL0     H54982   5.623   2.118   3.979  1.5219 -0.7175 -3.0248
  417MOL0     H54983   5.790   2.154   3.819  0.0173 -0.5947  1.8145
  417MOL0     H54984   5.741   2.333   3.804  0.1379 -0.5381 -0.7746
  417MOL0     H54985   5.513   2.278   3.751  1.9930  2.6857  0.3517
  417MOL0     H54986   5.558   2.114   3.702 -2.6861  0.3385  3.7799
  417MOL0     H54987   5.538   2.301   3.523  1.4757  0.3417 -2.4498
  417MOL0     H54988   5.690   2.365   3.579  1.1443  0.1531 -5.3599
  417MOL0     H54989   5.636   2.086   3.480 -2.8088  1.9912 -0.3157
  417MOL0     H54990   5.789   2.132   3.538 -1.0270  0.4974  1.7469
  417MOL0     H54991   5.771   2.332   3.365 -0.4619  0.8618 -0.5236
  417MOL0     H54992   5.618   2.259   3.309  0.7085 -1.5657 -1.0030
  417MOL0     H54993   5.880   2.109   3.328 -1.5950 -2.9673  1.9551
  417MOL0     H54994   5.732   2.038   3.273 -0.6215  0.6016 -1.3373
  417MOL0     H54995   5.883   2.259   3.157 -0.4778 -0.0264  1.7334
  417MOL0     H54996   5.730   2.179   3.082 -0.8564  1.8679  1.1957
  417MOL0     H54997   6.084   2.182   3.019  0.7273  0.2944 -1.0932
  417MOL0     H54998   6.256   1.960   2.873 -1.3070  2.2116  1.7071
  417MOL0     H54999   6.222   1.805   2.938 -0.6782 -0.2034  0.2916
  417MOL0     H55000   6.282   1.907   3.170 -1.2265 -0.4179 -0.0270
  417MOL0     H55001   6.339   2.050   3.074 -2.6156  0.0467  0.1336
  417MOL0     H55002   6.502   1.839   3.143  3.6396  2.3402 -1.9403
  417MOL0     H55003   6.431   1.759   3.003  3.0563  0.5913 -2.4866
  417MOL0     H55004   6.601   2.015   3.008  0.9044 -2.1131  1.6798
  417MOL0     H55005   6.492   1.970   2.873  1.3543  1.0677 -0.0060
  417MOL0     H55006   6.780   2.077   2.946 -2.0836 -2.4150  1.0247
  417MOL0     H55007   7.004   2.119   2.928 -1.0482 -0.9981  2.0141
  417MOL0     H55008   7.408   1.759   2.575 -1.4984 -0.3771  1.0992
  417MOL0     H55009   7.651   1.806   2.520 -0.4258  0.5232  0.4093
  417MOL0     H55010   7.896   2.048   2.817  3.1813 -0.6547 -1.1831
  417MOL0     H55011   7.790   2.142   2.706 -2.3893 -2.3742 -1.2259
  417MOL0     H55012   7.994   2.193   2.602 -0.9018  0.7961 -0.4805
  417MOL0     H55013   7.952   2.065   2.509  4.6314  0.8861 -1.2865
  417MOL0     H55014   8.125   1.922   2.646  2.4045  0.3558 -0.3174
  417MOL0     H55015   8.139   2.058   2.761  1.1216  4.8098 -1.8444
  417MOL0     H55016   8.225   2.092   2.473  1.0282 -1.8594  0.2620
  417MOL0     H55017   8.267   2.191   2.611  0.3364 -0.1177  1.9940
  417MOL0     H55018   8.448   2.081   2.577  0.4929  1.2658  3.8487
  417MOL0     H55019   8.384   1.923   2.551  0.8146 -1.6407  1.6174
  417MOL0     H55020   8.330   1.906   2.793 -0.8095 -0.0698  0.5350
  417MOL0     H55021   8.388   2.073   2.816 -1.1318  0.6464  0.1041
  417MOL0     H55022   8.548   1.852   2.711  0.1790  1.8122 -1.3557
  417MOL0     H55023   8.609   2.016   2.728 -3.3537  1.1633 -1.8596
  417MOL0     H55024   8.700   1.867   2.896  0.3073  3.6471 -3.1182
  417MOL0     H55025   8.535   1.848   2.958  0.7287 -1.1564 -0.0894
  417MOL0     H55026   7.690   2.029   2.875 -1.2017  0.8157  0.9013
  417MOL0     H55027   7.455   1.956   2.947 -0.1720  0.6506 -0.2218
  417MOL0     H55028   7.061   1.721   2.754  0.0651 -2.0476  2.0071
  417MOL0     H55029   6.817   1.674   2.819 -2.9600  0.9767  0.8748
  417MOL0     H55030   5.946   2.348   4.145  0.4130 -0.3179  0.3856
  417MOL0     H55031   6.085   2.217   4.334 -0.1653 -2.7469  1.1488
  417MOL0     H55032   6.170   2.080   4.611  0.6133  1.5872  0.5291
  417MOL0     H55033   6.317   2.113   4.816 -0.8780  1.6900  0.0961
  417MOL0     H55034   6.119   1.941   5.212 -0.2424  0.3973  0.1211
  417MOL0     H55035   6.097   2.109   5.197  0.5350  1.7006  0.1853
  417MOL0     H55036   6.353   1.974   5.298  1.1563  1.2859  1.5044
  417MOL0     H55037   6.328   2.148   5.271  0.2320  0.2897  0.8383
  417MOL0     H55038   6.136   1.970   5.439 -0.3898  0.0624  0.7199
  417MOL0     H55039   6.128   2.142   5.433 -1.2328 -1.7680 -1.1847
  417MOL0     H55040   6.363   2.139   5.545 -0.2487  0.0829 -1.3799
  417MOL0     H55041   6.218   2.100   5.642 -3.2334  1.5096 -2.2718
  417MOL0     H55042   6.497   1.767   5.623 -0.2974 -0.5325  1.7116
  417MOL0     H55043   5.986   1.943   5.041 -1.4401 -0.4375 -0.9558
  417MOL0     H55044   5.859   1.941   4.853 -0.1251  1.5095  1.1237
  418MOL0     O55045   2.034   0.329   5.806  0.2817  0.0910  0.7512
  418MOL0     C55046   1.965   0.422   5.779 -0.0460  0.0874  0.0467
  418MOL0     O55047   1.986   0.554   5.826 -0.6714  0.4101 -0.3410
  418MOL0     C55048   2.108   0.570   5.889 -0.3472 -0.1096 -0.4004
  418MOL0     C55049   2.210   0.642   5.824 -0.0858 -0.3174 -1.0990
  418MOL0     C55050   2.344   0.639   5.868  0.5341  0.3950 -0.2280
  418MOL0     C55051   2.372   0.571   5.986  0.4119 -0.5049  0.0800
  418MOL0     O55052   2.500   0.575   6.040  0.2125  0.6656  0.1375
  418MOL0     C55053   2.529   0.503   6.162 -0.0228 -0.3222 -0.1925
  418MOL0     C55054   2.683   0.501   6.186 -0.3323 -0.0816 -0.4994
  418MOL0     C55055   2.741   0.634   6.175 -0.4080 -0.6821 -0.1850
  418MOL0     C55056   2.892   0.635   6.193 -0.3787  0.1183 -0.1704
  418MOL0     C55057   2.976   0.550   6.092 -0.1749  1.0175  0.5404
  418MOL0     C55058   3.121   0.522   6.136 -0.0870 -0.6382 -0.2717
  418MOL0     C55059   3.185   0.624   6.223  0.2593  1.0066  0.7029
  418MOL0     C55060   3.222   0.753   6.149 -0.3233 -0.2886  0.1971
  418MOL0     N55061   3.333   0.720   6.063 -0.0934 -0.2926 -0.0247
  418MOL0     C55062   3.470   0.708   6.095  0.4732 -0.6330 -0.4497
  418MOL0     C55063   3.533   0.675   5.975  0.3912  0.0789 -0.4783
  418MOL0     C55064   3.669   0.642   5.940  0.3403  0.1231 -0.1391
  418MOL0     C55065   3.759   0.760   5.992  0.1382 -0.6174 -0.0431
  418MOL0     C55066   3.897   0.776   5.919  0.0791 -0.2598 -0.5174
  418MOL0     C55067   3.986   0.645   5.921 -0.0955 -0.7136 -0.9185
  418MOL0     O55068   4.116   0.680   5.872 -0.2314  0.2555 -0.1649
  418MOL0     C55069   4.205   0.577   5.858 -0.1181 -0.0793 -0.3618
  418MOL0     C55070   4.173   0.439   5.844  0.0708 -0.1932  0.1341
  418MOL0     C55071   4.276   0.349   5.826  0.7386  0.0804 -0.8379
  418MOL0     C55072   4.415   0.385   5.824 -0.7491  0.2567 -1.1201
  418MOL0     C55073   4.529   0.287   5.802  0.6689  0.2248 -0.4330
  418MOL0     O55074   4.643   0.350   5.783 -0.0449  0.2488 -0.2374
  418MOL0     C55075   4.760   0.278   5.775  0.3748  0.3894 -0.1872
  418MOL0     C55076   4.812   0.182   5.871  0.2810  0.7150  0.0241
  418MOL0     C55077   4.942   0.139   5.860 -0.0103  0.4815  0.6566
  418MOL0     C55078   5.031   0.185   5.763  0.6504  2.1122  0.3052
  418MOL0     O55079   5.155   0.129   5.747 -0.7168  0.6085 -0.3308
  418MOL0     C55080   5.251   0.200   5.816 -1.6783  0.5899 -0.6354
  418MOL0     C55081   5.390   0.133   5.794 -0.6109 -0.5535  0.3174
  418MOL0     C55082   5.420   0.015   5.894 -0.0565 -0.6319  0.1278
  418MOL0     C55083   5.324  -0.101   5.878  0.8584  0.9240 -0.4682
  418MOL0     C55084   5.364  -0.213   5.978 -0.7099  0.5004 -0.1955
  418MOL0     C55085   5.305  -0.356   5.956 -0.1742  1.4341  0.2075
  418MOL0     C55086   5.376  -0.417   5.835  0.5960 -0.5036 -0.4614
  418MOL0     C55087   5.355  -0.563   5.813  0.1837  0.5983  0.1558
  418MOL0    Cl55088   5.403  -0.662   5.944 -0.3666  0.0175 -0.3687
  418MOL0     C55089   4.984   0.276   5.670  0.0182  0.9351  0.4005
  418MOL0     C55090   4.853   0.328   5.682  0.1456 -0.1984  1.0007
  418MOL0     O55091   4.511   0.169   5.781  0.1484 -0.1257  0.4518
  418MOL0     C55092   4.438   0.524   5.838  1.0708 -0.6720 -0.3992
  418MOL0     C55093   4.340   0.619   5.840  0.5632  0.1230 -0.2409
  418MOL0     N55094   3.438   0.697   5.878 -0.3748  0.0402 -0.2193
  418MOL0     N55095   3.322   0.710   5.925 -0.2048 -1.0107 -0.2289
  418MOL0     C55096   2.264   0.519   6.059 -0.2777  0.3225  0.0031
  418MOL0     C55097   2.137   0.517   6.016 -0.4260  0.6990 -0.1410
  418MOL0     C55098   1.855   0.399   5.680 -0.5267 -0.2628 -0.2905
  418MOL0     C55099   1.836   0.269   5.637 -0.3266  0.2395  0.9065
  418MOL0     C55100   1.724   0.232   5.561 -0.0126  0.6907 -0.4124
  418MOL0     C55101   1.633   0.332   5.524 -0.3979  1.0416  0.4643
  418MOL0     O55102   1.525   0.314   5.445  0.0593  0.5881  0.2204
  418MOL0     C55103   1.506   0.203   5.354 -0.3313 -1.0900  0.2188
  418MOL0     C55104   1.593   0.208   5.234 -0.2191  0.3442  0.4821
  418MOL0     C55105   1.752   0.206   5.255  0.1685 -0.1543 -0.0626
  418MOL0     C55106   1.811   0.217   5.113 -0.2202 -0.1914 -0.8443
  418MOL0     C55107   1.955   0.221   5.130  1.0644  0.6298 -0.5015
  418MOL0     C55108   2.086   0.226   5.137  0.6530 -0.4114  0.6166
  418MOL0     C55109   1.658   0.470   5.557  0.4362 -0.2530 -0.2302
  418MOL0     C55110   1.768   0.498   5.628 -1.1738  0.1240  0.1265
  418MOL0     H55111   2.187   0.690   5.729  3.7710 -0.4476 -2.2724
  418MOL0     H55112   2.423   0.694   5.818 -1.0724  1.4872 -1.6711
  418MOL0     H55113   2.508   0.398   6.140  3.3454 -0.9189 -1.1841
  418MOL0     H55114   2.472   0.552   6.241 -2.6104 -0.5801 -1.7651
  418MOL0     H55115   2.712   0.428   6.109 -1.5423 -1.5870  0.4059
  418MOL0     H55116   2.702   0.440   6.276  1.9354  0.9167 -0.2388
  418MOL0     H55117   2.700   0.708   6.244 -0.1428  0.3750 -1.1196
  418MOL0     H55118   2.723   0.680   6.077  0.3120 -0.9108 -0.4300
  418MOL0     H55119   2.918   0.741   6.186  0.7830 -0.0902  0.6440
  418MOL0     H55120   2.915   0.596   6.292 -1.1498 -0.3241 -0.1603
  418MOL0     H55121   2.976   0.608   5.999  1.4167  1.8560  1.0113
  418MOL0     H55122   2.925   0.455   6.074 -1.5906  1.4319  2.1956
  418MOL0     H55123   3.182   0.492   6.051 -2.1699 -2.5336 -1.2005
  418MOL0     H55124   3.131   0.434   6.199 -2.3060  0.8316  2.3737
  418MOL0     H55125   3.130   0.656   6.312  2.5107 -0.6363  2.8241
  418MOL0     H55126   3.282   0.586   6.256  0.6558  1.7396  0.4154
  418MOL0     H55127   3.239   0.833   6.221  0.6376 -0.6476  0.3819
  418MOL0     H55128   3.136   0.790   6.093  1.2594  1.1119 -1.4579
  418MOL0     H55129   3.512   0.717   6.194 -1.9299  1.0857  0.5273
  418MOL0     H55130   3.685   0.625   5.833 -2.5405 -1.4310 -0.4527
  418MOL0     H55131   3.702   0.550   5.990 -0.1743 -0.1889 -0.3532
  418MOL0     H55132   3.775   0.743   6.098  1.0998 -5.9434 -0.7989
  418MOL0     H55133   3.705   0.855   5.981  1.2955  0.5396  3.2573
  418MOL0     H55134   3.883   0.797   5.813 -1.9221 -1.4942 -0.5412
  418MOL0     H55135   3.956   0.858   5.961  1.0040 -0.4430 -1.4030
  418MOL0     H55136   3.941   0.565   5.861  1.2439 -1.4757 -0.9563
  418MOL0     H55137   3.990   0.602   6.021  0.4014 -0.6485 -0.9091
  418MOL0     H55138   4.074   0.395   5.836  0.2419 -0.3925 -1.0049
  418MOL0     H55139   4.240   0.250   5.798  4.0404 -0.8219 -2.5144
  418MOL0     H55140   4.743   0.154   5.949 -0.7738  2.6701 -0.1256
  418MOL0     H55141   4.982   0.064   5.928  0.3206 -1.1341 -1.2451
  418MOL0     H55142   5.227   0.201   5.923 -0.4298  0.0872 -0.3297
  418MOL0     H55143   5.258   0.298   5.769  0.6892  0.6589 -0.2561
  418MOL0     H55144   5.467   0.210   5.806  2.8714 -3.7356  0.2471
  418MOL0     H55145   5.404   0.105   5.689  1.3464  2.2796 -0.2893
  418MOL0     H55146   5.398   0.062   5.991 -1.5905  0.0818 -0.5462
  418MOL0     H55147   5.525  -0.012   5.880  0.7096  1.7634  0.7655
  418MOL0     H55148   5.222  -0.071   5.905  0.6115 -0.9803  0.8981
  418MOL0     H55149   5.337  -0.135   5.775 -1.9618 -1.0861 -0.2616
  418MOL0     H55150   5.328  -0.182   6.077  0.5484  1.3206  0.0310
  418MOL0     H55151   5.474  -0.214   5.975 -0.6850 -2.0113 -2.4973
  418MOL0     H55152   5.197  -0.357   5.937 -0.2782  0.6239  0.8198
  418MOL0     H55153   5.318  -0.410   6.050  1.4705  1.5783  0.0893
  418MOL0     H55154   5.322  -0.362   5.757  0.1682  1.6674  1.2733
  418MOL0     H55155   5.481  -0.386   5.838  0.3300  0.4272 -0.4909
  418MOL0     H55156   5.399  -0.604   5.721  2.0624 -1.1793  1.7519
  418MOL0     H55157   5.247  -0.575   5.799  0.1992  0.8844 -0.2201
  418MOL0     H55158   5.056   0.316   5.601 -0.7457 -0.4823 -1.3115
  418MOL0     H55159   4.835   0.413   5.617  1.2487  1.2426  2.5028
  418MOL0     H55160   4.536   0.572   5.845  0.6820 -0.1003  1.9029
  418MOL0     H55161   4.367   0.724   5.843 -0.3381  0.3442  1.2408
  418MOL0     H55162   2.274   0.482   6.161 -0.2098 -4.4731 -1.4967
  418MOL0     H55163   2.054   0.466   6.064 -0.3793 -0.6289 -1.4059
  418MOL0     H55164   1.909   0.194   5.668 -0.8130 -0.2023  0.9955
  418MOL0     H55165   1.718   0.127   5.535  1.6913  0.4609 -0.0419
  418MOL0     H55166   1.408   0.194   5.307 -0.2706  1.7195 -0.6167
  418MOL0     H55167   1.526   0.109   5.406  2.5934  0.8255  2.9347
  418MOL0     H55168   1.561   0.133   5.162 -2.3891  1.1055  0.5801
  418MOL0     H55169   1.567   0.301   5.183  0.7205 -0.6723 -1.9662
  418MOL0     H55170   1.781   0.112   5.303 -0.5394 -0.0730  0.5337
  418MOL0     H55171   1.779   0.294   5.312  1.4803 -1.7543  1.9339
  418MOL0     H55172   1.769   0.139   5.049 -0.9864  0.0266 -0.6252
  418MOL0     H55173   1.785   0.310   5.062 -3.3543  0.0871  0.9966
  418MOL0     H55174   2.191   0.224   5.155  0.5099  2.0219  2.2655
  418MOL0     H55175   1.592   0.548   5.518 -0.3871  0.0270  1.6034
  418MOL0     H55176   1.801   0.600   5.644  0.1101 -0.5513  2.2143
  419MOL0     O55177   6.228   4.665   0.662 -0.2261 -0.1438 -0.1219
  419MOL0     C55178   6.205   4.598   0.766  0.7548 -0.6440 -0.3275
  419MOL0     O55179   6.275   4.604   0.881 -0.4783 -0.1006 -0.1903
  419MOL0     C55180   6.387   4.684   0.874 -0.1486 -0.1846 -0.9053
  419MOL0     C55181   6.377   4.819   0.897  0.4096 -0.6623 -0.5433
  419MOL0     C55182   6.487   4.910   0.881  0.5770  0.2252  0.1440
  419MOL0     C55183   6.613   4.854   0.851 -0.1519  0.3770 -0.1508
  419MOL0     O55184   6.726   4.938   0.826 -0.5888 -0.0386  0.0198
  419MOL0     C55185   6.827   4.911   0.727  0.4475 -0.0276  0.4430
  419MOL0     C55186   6.942   5.007   0.734 -0.3161 -0.7863  0.1425
  419MOL0     C55187   7.010   4.997   0.868 -0.0710  0.4068 -0.3179
  419MOL0     C55188   7.150   5.059   0.854 -0.2049  1.2483 -0.8662
  419MOL0     C55189   7.228   4.999   0.971  0.2746  0.9364 -0.0404
  419MOL0     C55190   7.374   5.047   0.969  0.0681  1.3274  0.6551
  419MOL0     C55191   7.457   5.017   1.096 -0.2415 -0.9616  0.2719
  419MOL0     C55192   7.451   4.878   1.157 -0.8395 -0.0215 -0.0535
  419MOL0     N55193   7.561   4.860   1.246 -0.0330  0.1025 -0.1382
  419MOL0     C55194   7.563   4.925   1.373  0.7017 -0.3606  0.0357
  419MOL0     C55195   7.676   4.896   1.436 -0.1032  1.1628 -0.0610
  419MOL0     C55196   7.730   4.969   1.554 -0.0898 -1.5932  0.3465
  419MOL0     C55197   7.643   4.944   1.687 -0.0477  0.0694  0.6953
  419MOL0     C55198   7.604   5.073   1.757  0.2505 -0.1417  0.3166
  419MOL0     C55199   7.456   5.098   1.762 -0.1339 -1.0789 -0.3257
  419MOL0     O55200   7.401   4.996   1.844  0.5741 -0.1256 -0.6398
  419MOL0     C55201   7.274   5.017   1.875  0.2016  1.1112  0.4300
  419MOL0     C55202   7.196   5.124   1.823 -0.1696 -0.1128  1.1441
  419MOL0     C55203   7.063   5.137   1.865  0.2107 -0.3876 -0.2306
  419MOL0     C55204   7.006   5.045   1.951  0.2361  0.4323 -0.0388
  419MOL0     C55205   6.864   5.056   1.989 -0.0251 -0.1937 -0.6416
  419MOL0     O55206   6.832   4.970   2.086 -0.3028  0.9356 -0.6136
  419MOL0     C55207   6.694   4.948   2.103  0.7674 -0.3508 -0.0701
  419MOL0     C55208   6.608   5.042   2.152  0.6006 -0.1403 -0.0090
  419MOL0     C55209   6.470   5.019   2.155 -0.4674 -0.8434 -0.1964
  419MOL0     C55210   6.417   4.897   2.112 -0.8386  0.3761  0.1509
  419MOL0     O55211   6.284   4.888   2.125  0.1906 -0.1559  0.6172
  419MOL0     C55212   6.209   4.767   2.095  0.2321 -0.9620 -0.2600
  419MOL0     C55213   6.063   4.808   2.121  0.1844 -0.2938  0.1122
  419MOL0     C55214   5.976   4.692   2.085  0.4887 -0.0916 -0.1511
  419MOL0     C55215   5.837   4.752   2.049  0.4492  0.1060  0.0891
  419MOL0     C55216   5.752   4.640   2.005  0.2124  0.6160 -0.0117
  419MOL0     C55217   5.603   4.661   1.985 -0.5801 -0.1080 -0.6294
  419MOL0     C55218   5.567   4.800   1.931 -0.3807 -0.1578  0.3665
  419MOL0     C55219   5.423   4.797   1.894 -0.1462 -0.3009  0.1869
  419MOL0    Cl55220   5.321   4.780   2.035 -0.0276  0.4016  0.2726
  419MOL0     C55221   6.502   4.791   2.066  0.4635 -0.5469  0.3291
  419MOL0     C55222   6.636   4.824   2.059  0.2682  0.0880  0.6169
  419MOL0     O55223   6.781   5.105   1.912  0.2955 -0.6184 -0.6416
  419MOL0     C55224   7.084   4.933   1.997 -0.4571 -1.0954  1.0595
  419MOL0     C55225   7.217   4.924   1.966  0.5058  0.0172 -0.1125
  419MOL0     N55226   7.747   4.796   1.355 -0.3151  0.2660 -0.2503
  419MOL0     N55227   7.670   4.774   1.246 -1.1651 -1.2529 -0.6746
  419MOL0     C55228   6.622   4.716   0.839  0.0769 -0.6030  1.1852
  419MOL0     C55229   6.512   4.633   0.850  0.2336  0.2907  0.1157
  419MOL0     C55230   6.085   4.518   0.762 -0.4694 -0.3039  0.4634
  419MOL0     C55231   6.007   4.522   0.643 -0.0776  0.5713 -0.5199
  419MOL0     C55232   5.879   4.468   0.652 -0.6594 -0.4048 -0.4322
  419MOL0     C55233   5.828   4.396   0.769  0.4948 -0.1317  0.2539
  419MOL0     O55234   5.706   4.334   0.777  0.4455 -0.7900 -0.1596
  419MOL0     C55235   5.610   4.326   0.667 -0.8590 -1.1741  0.1212
  419MOL0     C55236   5.519   4.203   0.692 -0.0367  0.3896  0.0288
  419MOL0     C55237   5.599   4.074   0.665  0.1973 -0.6978  0.1579
  419MOL0     C55238   5.547   3.966   0.748 -0.2127  0.2760  0.8589
  419MOL0     C55239   5.404   3.947   0.745 -0.5173  0.0727  0.6878
  419MOL0     C55240   5.280   3.932   0.742 -0.1793 -0.0036 -0.0486
  419MOL0     C55241   5.912   4.394   0.880 -0.1835  0.2488 -0.1376
  419MOL0     C55242   6.039   4.452   0.870  0.1378  0.4445 -0.3799
  419MOL0     H55243   6.279   4.862   0.914  1.4295  1.0026  1.6585
  419MOL0     H55244   6.465   5.016   0.889 -3.0729 -0.4343  0.3344
  419MOL0     H55245   6.788   4.911   0.625  0.1695 -0.4113  0.5452
  419MOL0     H55246   6.875   4.815   0.748  4.5872  1.4299 -1.4742
  419MOL0     H55247   6.908   5.109   0.714 -0.5557 -1.1762 -1.7014
  419MOL0     H55248   7.011   4.974   0.655  1.7524  1.6162  0.8493
  419MOL0     H55249   7.015   4.891   0.894 -0.7388  0.3540 -0.3965
  419MOL0     H55250   6.962   5.055   0.947  1.0793  1.2843 -0.2397
  419MOL0     H55251   7.198   5.020   0.764 -0.8221 -1.1963 -0.2233
  419MOL0     H55252   7.149   5.167   0.866  0.0599  1.1069  0.6533
  419MOL0     H55253   7.215   4.892   0.952  1.7535  0.8924 -0.9724
  419MOL0     H55254   7.176   5.023   1.064 -0.6293 -0.2396 -0.2133
  419MOL0     H55255   7.367   5.156   0.969  0.6737  1.4090 -1.3521
  419MOL0     H55256   7.422   5.005   0.879  0.7002 -2.9846  2.7258
  419MOL0     H55257   7.561   5.039   1.071 -0.5114 -0.7311 -0.6821
  419MOL0     H55258   7.434   5.092   1.172 -0.5971 -2.0041  1.2149
  419MOL0     H55259   7.459   4.807   1.074 -0.3689 -0.0293 -0.0040
  419MOL0     H55260   7.356   4.867   1.210 -0.3760 -3.2378  0.3140
  419MOL0     H55261   7.491   5.000   1.403 -0.7112 -1.6460 -0.0239
  419MOL0     H55262   7.715   5.073   1.524  2.7539 -1.2459 -0.1526
  419MOL0     H55263   7.839   4.968   1.563  0.0935  3.0253  1.2485
  419MOL0     H55264   7.693   4.873   1.753 -3.7549 -3.2812  0.3176
  419MOL0     H55265   7.555   4.888   1.652  0.7255 -0.3504 -0.6430
  419MOL0     H55266   7.648   5.084   1.856  2.2318  1.1028 -0.6129
  419MOL0     H55267   7.657   5.159   1.712  0.0513  0.9015  2.0056
  419MOL0     H55268   7.408   5.107   1.664  1.2302  1.5299 -0.8465
  419MOL0     H55269   7.460   5.198   1.806 -0.2440 -1.1935 -0.0522
  419MOL0     H55270   7.245   5.195   1.758  2.2578 -2.8987 -0.3299
  419MOL0     H55271   6.994   5.208   1.820 -0.4040 -1.3900 -0.8965
  419MOL0     H55272   6.649   5.139   2.177  0.7867  0.0710 -1.0803
  419MOL0     H55273   6.415   5.112   2.168  0.7205 -0.3604  1.5990
  419MOL0     H55274   6.241   4.680   2.154  1.6419 -0.6286 -0.5027
  419MOL0     H55275   6.218   4.733   1.992  2.0774  0.8889 -0.7811
  419MOL0     H55276   6.038   4.896   2.061  0.2071  0.5783  1.3281
  419MOL0     H55277   6.052   4.836   2.227 -0.8791  0.1607 -0.1043
  419MOL0     H55278   5.963   4.616   2.162 -1.6572  0.9055  0.5436
  419MOL0     H55279   6.018   4.650   1.993  1.0757  0.8855 -0.3456
  419MOL0     H55280   5.798   4.788   2.145 -0.0436  0.8683 -0.3834
  419MOL0     H55281   5.843   4.828   1.971  0.4178  0.0152 -0.0006
  419MOL0     H55282   5.760   4.563   2.083  0.5972  0.8522  0.1856
  419MOL0     H55283   5.793   4.591   1.916 -2.5877 -0.4359 -0.8385
  419MOL0     H55284   5.547   4.637   2.076 -1.0712 -1.4642 -1.2617
  419MOL0     H55285   5.582   4.583   1.912  1.7817 -1.1480 -0.3038
  419MOL0     H55286   5.582   4.870   2.014 -2.3188 -0.1880  0.7706
  419MOL0     H55287   5.622   4.834   1.843 -1.7131  1.2002  0.0339
  419MOL0     H55288   5.398   4.722   1.819  0.5157  0.2199 -0.5630
  419MOL0     H55289   5.410   4.900   1.859  3.8965 -0.1900 -1.4250
  419MOL0     H55290   6.462   4.692   2.043  1.0313 -0.6156 -0.3857
  419MOL0     H55291   6.698   4.740   2.028  1.0014  0.6310  0.5785
  419MOL0     H55292   7.026   4.860   2.054 -3.5228  0.7614  0.5623
  419MOL0     H55293   7.277   4.844   2.007 -0.2687 -1.9821 -2.5834
  419MOL0     H55294   6.723   4.680   0.822  1.5202  2.6195  2.0711
  419MOL0     H55295   6.522   4.528   0.825 -4.3169 -0.2294 -0.4693
  419MOL0     H55296   6.025   4.571   0.548  2.2050  0.0968 -0.3737
  419MOL0     H55297   5.812   4.493   0.570  0.1648 -1.0660 -1.3313
  419MOL0     H55298   5.659   4.311   0.570 -2.1662 -5.0375 -0.1116
  419MOL0     H55299   5.550   4.418   0.665  0.1960 -0.4630  0.4685
  419MOL0     H55300   5.472   4.214   0.790 -1.1942 -1.6262 -0.2531
  419MOL0     H55301   5.428   4.219   0.634 -0.0688  3.6299  0.7476
  419MOL0     H55302   5.703   4.087   0.695  0.6612 -1.0530 -1.2283
  419MOL0     H55303   5.593   4.055   0.557  0.8855  1.4674 -0.3146
  419MOL0     H55304   5.589   3.872   0.712  1.9083  0.7241  1.9344
  419MOL0     H55305   5.577   3.995   0.849 -0.7252 -0.1584  1.1383
  419MOL0     H55306   5.178   3.902   0.752  0.1336 -2.4114 -2.8570
  419MOL0     H55307   5.889   4.334   0.968  3.0976 -1.1444 -0.0675
  419MOL0     H55308   6.102   4.445   0.958 -1.1885 -2.4327  0.4398
  420MOL0     O55309   5.943   3.920  11.132  0.2508  0.2944  0.6151
  420MOL0     C55310   6.015   3.836  11.192  0.1531 -0.1807 -0.3278
  420MOL0     O55311   5.978   3.712  11.236  0.4956  0.3560  0.4832
  420MOL0     C55312   5.868   3.654  11.183  0.3966  0.4494  0.1375
  420MOL0     C55313   5.793   3.575  11.264 -0.5776 -0.6420  0.2037
  420MOL0     C55314   5.672   3.513  11.221 -0.0511 -0.7726  0.0603
  420MOL0     C55315   5.630   3.523  11.087  0.5939  1.0369 -0.2756
  420MOL0     O55316   5.514   3.457  11.050 -0.7258 -0.3539  0.8468
  420MOL0     C55317   5.426   3.529  10.961 -0.3235 -0.7745 -0.1050
  420MOL0     C55318   5.350   3.643  11.025  0.0805 -1.1365  0.3968
  420MOL0     C55319   5.211   3.643  10.974 -1.0437  0.8851 -0.3725
  420MOL0     C55320   5.187   3.676  10.824 -0.4059 -0.3023 -0.1243
  420MOL0     C55321   5.033   3.648  10.800  0.1311 -0.5612  0.6176
  420MOL0     C55322   4.983   3.711  10.682  0.0634 -0.2502 -0.1170
  420MOL0     C55323   4.835   3.671  10.662  0.5296  0.2021 -0.3060
  420MOL0     C55324   4.735   3.712  10.768 -0.7466 -0.0498 -0.3050
  420MOL0     N55325   4.729   3.856  10.802  0.2709  0.2410  0.1209
  420MOL0     C55326   4.683   3.957  10.718  0.2578 -0.2145 -0.2809
  420MOL0     C55327   4.647   4.063  10.800  0.0887  0.4467 -0.2818
  420MOL0     C55328   4.599   4.192  10.749  0.0381  0.1991  0.1477
  420MOL0     C55329   4.457   4.190  10.700  0.7730  0.1763 -0.4516
  420MOL0     C55330   4.372   4.238  10.811 -0.8344  0.8580 -1.1178
  420MOL0     C55331   4.226   4.223  10.796  0.2005 -0.1825  0.4457
  420MOL0     O55332   4.151   4.207  10.918  0.3672  0.1629  0.1882
  420MOL0     C55333   4.026   4.241  10.923 -0.7790  1.2921  0.0892
  420MOL0     C55334   3.982   4.289  11.044 -1.1610 -0.3070 -0.5551
  420MOL0     C55335   3.855   4.328  11.060  0.5802  0.9717  1.0833
  420MOL0     C55336   3.764   4.320  10.954 -0.3123  0.3907  0.6692
  420MOL0     C55337   3.629   4.374  10.966  0.2860 -0.5041 -0.1041
  420MOL0     O55338   3.524   4.349  10.872 -0.4882  0.2717 -0.1777
  420MOL0     C55339   3.400   4.397  10.889 -0.1740  0.6493  1.2616
  420MOL0     C55340   3.330   4.384  10.999  0.6201  0.1997 -0.1539
  420MOL0     C55341   3.192   4.420  11.010 -0.2900 -0.1321  0.0245
  420MOL0     C55342   3.121   4.469  10.903 -0.2277 -0.4259  1.8601
  420MOL0     O55343   2.980   4.490  10.911 -0.5760  0.5324 -0.4264
  420MOL0     C55344   2.909   4.512  10.794  0.6605 -0.5025  0.4192
  420MOL0     C55345   2.755   4.502  10.816 -0.6477 -0.0593  0.5164
  420MOL0     C55346   2.690   4.539  10.687  0.7898  0.3506 -0.7540
  420MOL0     C55347   2.542   4.569  10.727 -0.8307  0.0600 -0.2468
  420MOL0     C55348   2.487   4.648  10.610  0.5584  1.0177  0.2872
  420MOL0     C55349   2.332   4.634  10.618  0.3403  0.5017 -0.6365
  420MOL0     C55350   2.260   4.655  10.488  0.5491 -0.1201  0.7028
  420MOL0     C55351   2.106   4.659  10.501  0.6925 -0.1118  0.6450
  420MOL0    Cl55352   2.052   4.808  10.591  0.1293 -0.2116  0.6446
  420MOL0     C55353   3.205   4.502  10.789  0.5102  0.2675 -0.5102
  420MOL0     C55354   3.339   4.453  10.777 -0.4945 -0.8572  0.1253
  420MOL0     O55355   3.612   4.459  11.058 -1.0063  0.5010  0.1578
  420MOL0     C55356   3.807   4.279  10.831 -1.0522  0.0516 -0.1902
  420MOL0     C55357   3.937   4.234  10.814  0.3839 -0.1346 -0.3558
  420MOL0     N55358   4.678   4.026  10.931 -0.6465 -0.9024 -0.7947
  420MOL0     N55359   4.719   3.902  10.930 -0.4980 -0.7270  0.2577
  420MOL0     C55360   5.711   3.604  11.000  0.4209  0.5051  0.2978
  420MOL0     C55361   5.816   3.678  11.047 -0.1454 -0.2374  0.0536
  420MOL0     C55362   6.148   3.882  11.218 -0.7683  0.0406  0.0862
  420MOL0     C55363   6.183   4.017  11.194  0.2155 -0.8330 -1.2100
  420MOL0     C55364   6.320   4.059  11.201  1.2723 -0.0580  0.4196
  420MOL0     C55365   6.416   3.964  11.224  0.4660 -0.2513  0.3166
  420MOL0     O55366   6.549   3.998  11.229 -0.4555 -0.7833  0.1926
  420MOL0     C55367   6.646   3.908  11.174  0.0950  0.1772  0.3504
  420MOL0     C55368   6.745   3.988  11.083  0.3614  0.0191 -0.6226
  420MOL0     C55369   6.833   4.076  11.170  0.1942 -0.0501 -0.2022
  420MOL0     C55370   6.970   4.109  11.111 -0.3975 -0.5296 -0.1172
  420MOL0     C55371   7.059   3.993  11.093 -0.5422  0.0038 -1.0621
  420MOL0     C55372   7.125   3.892  11.079  0.8993 -0.2009  0.9303
  420MOL0     C55373   6.379   3.836  11.253  0.5140  0.2930  0.2580
  420MOL0     C55374   6.246   3.793  11.254 -0.6812  0.0210  0.4384
  420MOL0     H55375   5.826   3.571  11.368  2.1421  1.6986 -0.4311
  420MOL0     H55376   5.608   3.463  11.293  0.6282 -2.0325 -0.1842
  420MOL0     H55377   5.355   3.455  10.924 -0.9577 -0.9429  1.3722
  420MOL0     H55378   5.477   3.562  10.870 -0.8698  0.7333  0.0981
  420MOL0     H55379   5.399   3.737  10.997 -3.5777  0.3044 -1.8257
  420MOL0     H55380   5.356   3.644  11.134 -2.0673 -0.2448  0.5542
  420MOL0     H55381   5.154   3.716  11.031 -3.7602  0.8692 -2.8597
  420MOL0     H55382   5.163   3.549  11.004 -0.1085 -1.7690 -6.0182
  420MOL0     H55383   5.213   3.779  10.798 -0.5218 -0.7546 -2.2297
  420MOL0     H55384   5.260   3.631  10.755 -0.3910 -0.1717 -0.1948
  420MOL0     H55385   4.980   3.690  10.886  0.7940  1.1448  0.2364
  420MOL0     H55386   5.034   3.539  10.789 -0.1881 -0.3135 -3.1435
  420MOL0     H55387   5.041   3.670  10.599 -0.7786 -1.0570 -0.3291
  420MOL0     H55388   5.001   3.818  10.695  1.1194 -0.6266  1.9575
  420MOL0     H55389   4.811   3.705  10.561 -0.6528  0.4969  0.0570
  420MOL0     H55390   4.824   3.562  10.657  3.2712 -0.1390 -0.3261
  420MOL0     H55391   4.746   3.654  10.861 -1.3212 -2.3327 -1.5772
  420MOL0     H55392   4.639   3.684  10.724 -1.3176  0.2343  0.7174
  420MOL0     H55393   4.673   3.959  10.610 -3.4461  3.5179 -0.1563
  420MOL0     H55394   4.650   4.223  10.657 -1.0790  2.2704  0.1636
  420MOL0     H55395   4.626   4.271  10.820  0.4302 -0.9723  1.3276
  420MOL0     H55396   4.435   4.090  10.661 -0.7194  1.7116 -4.0143
  420MOL0     H55397   4.433   4.266  10.625  6.0397  1.7263 -0.9812
  420MOL0     H55398   4.397   4.185  10.903 -3.3847 -1.7423 -1.7549
  420MOL0     H55399   4.404   4.341  10.826 -1.7204  1.0503 -0.4518
  420MOL0     H55400   4.212   4.143  10.723  0.6593 -0.5894  0.8018
  420MOL0     H55401   4.182   4.312  10.748 -1.3107  1.2181  4.0528
  420MOL0     H55402   4.069   4.292  11.109  0.3703  0.6712 -2.5487
  420MOL0     H55403   3.825   4.360  11.159  1.8367  0.3953  1.6812
  420MOL0     H55404   3.389   4.355  11.085 -1.3610  0.3916  1.3424
  420MOL0     H55405   3.144   4.415  11.108 -1.0151  0.3043 -0.3013
  420MOL0     H55406   2.931   4.442  10.712 -3.2113 -0.9872 -0.4435
  420MOL0     H55407   2.930   4.614  10.762 -1.6392 -0.4788 -1.3070
  420MOL0     H55408   2.732   4.571  10.897 -0.9651  1.0764 -0.5131
  420MOL0     H55409   2.725   4.404  10.853  1.5396 -1.0620 -0.1984
  420MOL0     H55410   2.703   4.457  10.616  1.3881 -0.6273  0.4408
  420MOL0     H55411   2.727   4.632  10.642 -0.0992  1.1706  0.1629
  420MOL0     H55412   2.498   4.471  10.747  1.8326 -1.1758  0.0267
  420MOL0     H55413   2.533   4.638  10.812  1.2808 -0.6263  0.5805
  420MOL0     H55414   2.513   4.604  10.513 -0.5301  1.8982 -0.4180
  420MOL0     H55415   2.518   4.752  10.619  0.4327  0.9421  2.0644
  420MOL0     H55416   2.306   4.702  10.699 -0.0774 -0.5504  0.1384
  420MOL0     H55417   2.307   4.531  10.646  2.7813  0.0492  0.0521
  420MOL0     H55418   2.297   4.746  10.439 -1.2294  0.9007  1.1569
  420MOL0     H55419   2.276   4.565  10.428 -5.9189 -0.9489 -0.5155
  420MOL0     H55420   2.076   4.563  10.544 -1.1621  0.5143  0.8370
  420MOL0     H55421   2.071   4.661  10.397  3.2873 -0.4608 -0.3139
  420MOL0     H55422   3.159   4.543  10.700 -1.6273 -2.6489 -0.9002
  420MOL0     H55423   3.396   4.464  10.686 -0.0194 -1.0477  0.3995
  420MOL0     H55424   3.732   4.278  10.753  0.0804  0.3370 -1.3125
  420MOL0     H55425   3.964   4.200  10.714  2.7929  1.8030 -0.4624
  420MOL0     H55426   5.683   3.608  10.895 -1.1295 -2.5015  0.4906
  420MOL0     H55427   5.863   3.748  10.980  0.8835  0.1529  1.1459
  420MOL0     H55428   6.111   4.095  11.170 -0.0085 -1.1213 -1.4885
  420MOL0     H55429   6.346   4.161  11.174 -1.2809  0.4021 -0.6124
  420MOL0     H55430   6.600   3.833  11.108  0.9144  1.6168 -1.9825
  420MOL0     H55431   6.695   3.855  11.256  1.1870 -2.1640 -1.6882
  420MOL0     H55432   6.810   3.929  11.018  0.0514 -0.8047 -0.1976
  420MOL0     H55433   6.675   4.042  11.018 -0.3158 -0.5342 -0.3618
  420MOL0     H55434   6.836   4.027  11.267 -0.9561  2.3387  1.1337
  420MOL0     H55435   6.778   4.168  11.194 -0.3151 -0.0978 -1.1237
  420MOL0     H55436   6.965   4.176  11.024  1.6788  1.1151  0.9662
  420MOL0     H55437   7.019   4.170  11.187 -2.0055 -0.5451  0.9990
  420MOL0     H55438   7.180   3.802  11.058 -2.2414 -3.0187  3.4596
  420MOL0     H55439   6.455   3.761  11.271  2.2989  1.1317 -3.0406
  420MOL0     H55440   6.229   3.688  11.275  2.4643 -0.6448  0.1280
  421MOL0     O55441   6.848   8.003   8.367 -0.0894 -0.4458  0.1078
  421MOL0     C55442   6.844   7.993   8.250  0.2895 -0.6541  0.1985
  421MOL0     O55443   6.729   7.983   8.179  0.7184  0.4686 -0.0037
  421MOL0     C55444   6.613   8.030   8.237 -0.4006 -0.4516 -0.9535
  421MOL0     C55445   6.601   8.170   8.233 -0.4835  0.7693 -0.9229
  421MOL0     C55446   6.472   8.222   8.269 -0.2588 -1.2334  0.3654
  421MOL0     C55447   6.361   8.142   8.300 -0.6870 -0.5564  0.3982
  421MOL0     O55448   6.241   8.205   8.297 -0.5834 -0.1064 -0.6050
  421MOL0     C55449   6.120   8.132   8.324 -0.2356  0.0132  0.7929
  421MOL0     C55450   6.014   8.238   8.315  0.1665  0.3593 -0.4772
  421MOL0     C55451   5.876   8.183   8.354  0.6924 -0.0778 -0.0264
  421MOL0     C55452   5.768   8.299   8.333  0.0795  0.8556  0.4950
  421MOL0     C55453   5.645   8.245   8.403 -0.5390 -0.7202  0.5523
  421MOL0     C55454   5.539   8.360   8.403 -0.9717  0.4266 -0.5907
  421MOL0     C55455   5.394   8.315   8.381  0.7879  0.4344  0.7665
  421MOL0     C55456   5.306   8.432   8.406  0.2364  0.4948 -0.4592
  421MOL0     N55457   5.173   8.407   8.358 -0.5356  0.0120 -0.1605
  421MOL0     C55458   5.132   8.381   8.228 -0.1942 -0.5728  0.0427
  421MOL0     C55459   5.000   8.389   8.234  0.1734  0.9103 -0.7145
  421MOL0     C55460   4.908   8.417   8.121  0.7337 -0.4527 -0.3848
  421MOL0     C55461   4.774   8.341   8.143 -0.1329  0.5930 -0.6412
  421MOL0     C55462   4.678   8.366   8.020  0.1760 -0.6966 -0.4779
  421MOL0     C55463   4.534   8.417   8.054  1.2463  0.2719  0.4408
  421MOL0     O55464   4.532   8.556   8.021  0.3998 -0.7165 -0.2255
  421MOL0     C55465   4.411   8.624   8.026 -0.8871 -0.2014 -0.9682
  421MOL0     C55466   4.407   8.752   7.964  0.5862  0.3408 -1.4244
  421MOL0     C55467   4.293   8.825   7.959 -0.4389  0.0633  0.1791
  421MOL0     C55468   4.183   8.782   8.033  0.3494 -0.5263 -0.5911
  421MOL0     C55469   4.062   8.869   8.045 -0.2255  0.5640 -0.3080
  421MOL0     O55470   3.994   8.877   8.158 -0.7439 -0.4549 -0.0878
  421MOL0     C55471   3.882   8.948   8.168  0.5322 -0.6323 -0.0271
  421MOL0     C55472   3.778   8.937   8.080 -0.1077  0.2698  0.8178
  421MOL0     C55473   3.664   9.020   8.099  0.2095  0.3737  0.3011
  421MOL0     C55474   3.662   9.109   8.208  0.1902  0.7586 -1.1173
  421MOL0     O55475   3.550   9.171   8.242 -0.0615  0.4267  0.2042
  421MOL0     C55476   3.427   9.132   8.181  0.8243 -0.9934  0.4377
  421MOL0     C55477   3.300   9.181   8.263 -0.0438 -0.7463 -0.1277
  421MOL0     C55478   3.303   9.168   8.413 -0.2851  0.4210  0.9238
  421MOL0     C55479   3.301   9.020   8.458 -0.2578  0.8975  0.3617
  421MOL0     C55480   3.298   9.005   8.616  0.4009 -0.4382  0.2754
  421MOL0     C55481   3.424   9.037   8.692 -0.0996 -0.6088  0.2934
  421MOL0     C55482   3.530   8.931   8.651 -0.7208 -0.4963 -0.3498
  421MOL0     C55483   3.675   8.940   8.707  0.2657  0.1182 -0.2820
  421MOL0    Cl55484   3.697   8.947   8.875  0.7368 -0.2902 -0.2490
  421MOL0     C55485   3.772   9.101   8.301  0.0056 -0.3009 -0.0924
  421MOL0     C55486   3.877   9.015   8.284  0.3427 -0.1651  0.4174
  421MOL0     O55487   4.026   8.918   7.937  0.4651  0.3701  0.0708
  421MOL0     C55488   4.184   8.663   8.093 -0.9308 -0.3479 -0.8897
  421MOL0     C55489   4.298   8.575   8.091  0.3684  0.2302 -0.6352
  421MOL0     N55490   4.962   8.386   8.371  0.3938  0.2528  0.4670
  421MOL0     N55491   5.060   8.405   8.438 -0.1945  0.1900 -0.6552
  421MOL0     C55492   6.384   8.006   8.316 -0.0264 -1.1160  0.0618
  421MOL0     C55493   6.512   7.954   8.283 -0.3792  0.1637 -0.4076
  421MOL0     C55494   6.972   7.997   8.172 -0.2328  0.7695  0.4024
  421MOL0     C55495   7.089   7.952   8.233 -0.0189 -0.2075 -0.2250
  421MOL0     C55496   7.209   7.943   8.162  0.1303 -0.5165  0.5375
  421MOL0     C55497   7.215   7.981   8.028 -0.2106  0.0196  0.4504
  421MOL0     O55498   7.333   7.965   7.971 -0.0757  0.1922 -0.7042
  421MOL0     C55499   7.372   8.073   7.879 -0.2198 -1.0930 -0.6813
  421MOL0     C55500   7.522   8.095   7.876 -0.0586  0.1981 -0.1783
  421MOL0     C55501   7.606   7.962   7.849  0.4833  0.8419  0.0169
  421MOL0     C55502   7.753   7.974   7.904 -0.1249 -0.1637  0.2520
  421MOL0     C55503   7.833   8.080   7.847  0.0657  0.3162 -0.9333
  421MOL0     C55504   7.910   8.165   7.796  0.2865  0.8602  0.1027
  421MOL0     C55505   7.099   8.034   7.967 -0.1981 -0.0558  0.6108
  421MOL0     C55506   6.983   8.050   8.040  0.0352  0.1401 -0.5733
  421MOL0     H55507   6.685   8.225   8.193  0.1399  0.3269 -0.2481
  421MOL0     H55508   6.452   8.327   8.249  0.4955 -1.4552 -1.8913
  421MOL0     H55509   6.123   8.093   8.426  1.1966 -0.3597  0.6234
  421MOL0     H55510   6.104   8.053   8.250  1.7721  1.6612 -1.5697
  421MOL0     H55511   6.006   8.284   8.216  1.2618 -0.7682 -1.1163
  421MOL0     H55512   6.042   8.324   8.377  0.7718  0.4104 -0.8057
  421MOL0     H55513   5.875   8.133   8.451 -0.6182  1.3210  0.7312
  421MOL0     H55514   5.849   8.106   8.282  0.8357  2.0600 -2.5299
  421MOL0     H55515   5.795   8.388   8.391  1.0368 -0.3232  1.9392
  421MOL0     H55516   5.760   8.324   8.227 -0.5041  0.3301  0.4058
  421MOL0     H55517   5.657   8.207   8.505  3.7459  0.7802  0.8163
  421MOL0     H55518   5.604   8.163   8.342  2.0126 -2.5178  1.0727
  421MOL0     H55519   5.559   8.440   8.330  0.7645 -0.0770 -0.7160
  421MOL0     H55520   5.551   8.409   8.500  1.2001 -1.3362  0.1140
  421MOL0     H55521   5.383   8.277   8.279 -1.4519  0.7541  0.8480
  421MOL0     H55522   5.368   8.234   8.450 -1.6834  1.5462  1.2397
  421MOL0     H55523   5.355   8.514   8.352  0.8892 -0.1845 -0.9153
  421MOL0     H55524   5.309   8.458   8.512 -0.7222 -0.6078 -0.1489
  421MOL0     H55525   5.200   8.388   8.143  0.6781 -0.7409  0.7206
  421MOL0     H55526   4.957   8.402   8.024  0.8489 -0.6235 -0.3018
  421MOL0     H55527   4.870   8.519   8.129  1.4415 -0.2034 -0.1073
  421MOL0     H55528   4.730   8.365   8.240 -1.8678  0.5779 -1.3935
  421MOL0     H55529   4.783   8.233   8.148  0.7863  0.7199  2.1591
  421MOL0     H55530   4.732   8.435   7.954 -0.4128  2.1037  1.7618
  421MOL0     H55531   4.667   8.270   7.969 -0.5035 -1.3023  0.7781
  421MOL0     H55532   4.507   8.396   8.158  0.2231 -0.5757  0.0201
  421MOL0     H55533   4.463   8.357   7.997  0.3897  0.6532  1.0729
  421MOL0     H55534   4.502   8.790   7.929  0.7298  0.3533 -1.0250
  421MOL0     H55535   4.285   8.915   7.899 -0.5956 -0.4467 -0.5778
  421MOL0     H55536   3.772   8.858   8.006 -0.1428  0.6869  0.3723
  421MOL0     H55537   3.575   8.999   8.041 -0.1411 -1.1697  1.3439
  421MOL0     H55538   3.426   9.023   8.178 -0.7227 -1.0120  0.6249
  421MOL0     H55539   3.426   9.170   8.078 -2.1367 -2.0982 -0.0483
  421MOL0     H55540   3.221   9.122   8.216  0.0964 -0.4745 -0.7218
  421MOL0     H55541   3.278   9.285   8.240  0.1349 -0.8954 -1.0280
  421MOL0     H55542   3.215   9.210   8.462  0.3181  0.2221  2.2094
  421MOL0     H55543   3.389   9.224   8.451 -1.3557  1.5346  1.7790
  421MOL0     H55544   3.210   8.972   8.421  0.0385  2.2703 -2.3541
  421MOL0     H55545   3.385   8.959   8.423 -1.3649 -1.0312  0.9415
  421MOL0     H55546   3.260   8.907   8.644  2.3253 -1.6145 -0.9159
  421MOL0     H55547   3.225   9.078   8.651  0.0000 -1.0253  0.6601
  421MOL0     H55548   3.399   9.021   8.797  0.1823 -2.7702  0.0911
  421MOL0     H55549   3.448   9.141   8.668  0.2064 -0.7496 -0.0300
  421MOL0     H55550   3.490   8.835   8.685 -1.0393 -0.8952 -1.7544
  421MOL0     H55551   3.550   8.935   8.543  2.8468  0.2097  0.2408
  421MOL0     H55552   3.734   9.025   8.672  0.1096  0.6755  0.7707
  421MOL0     H55553   3.731   8.855   8.667  2.4062  0.1925  2.3195
  421MOL0     H55554   3.774   9.157   8.395  3.0369 -0.4544  0.0172
  421MOL0     H55555   3.957   9.016   8.358  1.2884  0.4536 -0.5864
  421MOL0     H55556   4.096   8.630   8.147 -1.9529 -0.8282 -2.7718
  421MOL0     H55557   4.313   8.484   8.148  0.0648  0.9728  0.6448
  421MOL0     H55558   6.303   7.946   8.354  0.1125 -0.6209  1.1589
  421MOL0     H55559   6.527   7.847   8.285  2.5069  0.4618 -0.9339
  421MOL0     H55560   7.080   7.908   8.331 -0.7260 -1.7735 -0.9519
  421MOL0     H55561   7.280   7.879   8.214  1.3544  1.2711  1.1731
  421MOL0     H55562   7.308   8.156   7.913  1.2136  0.3672 -1.3963
  421MOL0     H55563   7.338   8.048   7.778  1.4578  0.9216 -1.8180
  421MOL0     H55564   7.536   8.166   7.794  1.6930 -1.6579 -1.6047
  421MOL0     H55565   7.545   8.128   7.978  0.6909 -1.3277  0.1771
  421MOL0     H55566   7.610   7.929   7.744  2.3383 -0.1504  0.3606
  421MOL0     H55567   7.572   7.877   7.909  1.9087  0.3195  0.1165
  421MOL0     H55568   7.742   8.003   8.009  0.0084  0.2138  0.1625
  421MOL0     H55569   7.804   7.877   7.903  0.3405  0.0734 -0.9056
  421MOL0     H55570   7.982   8.230   7.750  0.4091  0.3610 -0.4268
  421MOL0     H55571   7.100   8.061   7.862 -1.7694 -0.6639  0.4101
  421MOL0     H55572   6.889   8.065   7.987 -0.4740 -0.9410 -0.0203
  422MOL0     O55573   1.083   1.871   7.918  0.6685  0.2702 -0.1869
  422MOL0     C55574   1.127   1.850   8.030 -0.9760 -0.6212 -0.2142
  422MOL0     O55575   1.059   1.806   8.136 -0.0639 -0.5429  1.0180
  422MOL0     C55576   0.926   1.765   8.132  0.3822  0.0598  0.1328
  422MOL0     C55577   0.830   1.806   8.223 -0.0030  0.1150  0.3042
  422MOL0     C55578   0.695   1.772   8.211  0.2331  0.0757  0.5611
  422MOL0     C55579   0.651   1.692   8.098 -0.3147 -0.6932  0.2572
  422MOL0     O55580   0.518   1.681   8.066 -0.4186  1.1718  0.3756
  422MOL0     C55581   0.427   1.696   8.174  0.1311  0.5072  0.9376
  422MOL0     C55582   0.298   1.613   8.145 -0.1186  0.8995 -0.4795
  422MOL0     C55583   0.241   1.657   8.006  0.2607  0.4227  0.1142
  422MOL0     C55584   0.122   1.584   7.959  0.3905  0.3122  0.5944
  422MOL0     C55585   0.024   1.549   8.069 -0.1877  0.4689 -0.8311
  422MOL0     C55586  -0.093   1.465   8.006  0.3937  0.0005  0.0072
  422MOL0     C55587  -0.192   1.412   8.111  0.1445 -0.4038  1.1216
  422MOL0     C55588  -0.245   1.522   8.199  0.1225 -0.1393  0.4113
  422MOL0     N55589  -0.370   1.495   8.265 -0.4368  0.5611 -0.8970
  422MOL0     C55590  -0.500   1.481   8.207  0.0262  0.3150  0.0420
  422MOL0     C55591  -0.590   1.515   8.300  0.7134 -0.6077 -0.5981
  422MOL0     C55592  -0.737   1.553   8.292 -0.5280 -0.0793  0.7865
  422MOL0     C55593  -0.775   1.619   8.155 -0.1111 -0.1732 -0.7717
  422MOL0     C55594  -0.926   1.644   8.159  0.0405 -0.5998  0.3803
  422MOL0     C55595  -0.964   1.725   8.042  0.7745 -0.0643 -0.3827
  422MOL0     O55596  -1.106   1.751   8.046 -0.2864 -0.1538  0.0770
  422MOL0     C55597  -1.198   1.654   8.013  0.3101 -0.5655 -0.1504
  422MOL0     C55598  -1.327   1.704   8.021 -0.2703 -0.0200 -0.4893
  422MOL0     C55599  -1.440   1.629   8.008 -0.0311  0.0525  0.2631
  422MOL0     C55600  -1.423   1.497   7.965 -0.4328  0.4242  0.0551
  422MOL0     C55601  -1.539   1.396   7.961 -1.1574 -0.1073 -0.0442
  422MOL0     O55602  -1.658   1.438   8.006 -0.6840  0.3734 -0.1941
  422MOL0     C55603  -1.762   1.354   8.004  0.3497 -0.0436 -0.0698
  422MOL0     C55604  -1.805   1.270   7.902  0.3660 -0.1281  0.9181
  422MOL0     C55605  -1.925   1.209   7.893  0.1785  0.3035  0.5272
  422MOL0     C55606  -2.007   1.218   8.009 -0.7763 -0.2746  0.0393
  422MOL0     O55607  -2.127   1.153   7.989  0.1006 -0.0577 -0.0975
  422MOL0     C55608  -2.217   1.160   8.098 -0.4053 -0.0890 -0.0909
  422MOL0     C55609  -2.319   1.059   8.065  0.2192 -0.1313 -0.0672
  422MOL0     C55610  -2.409   1.040   8.187 -0.6704 -0.2520 -0.6678
  422MOL0     C55611  -2.529   0.951   8.154 -0.7052  0.1020 -0.0014
  422MOL0     C55612  -2.633   0.967   8.263  0.1435  0.8461 -0.4627
  422MOL0     C55613  -2.738   0.855   8.255  0.0375 -0.4519  0.2202
  422MOL0     C55614  -2.880   0.891   8.306  0.0272  0.0725  0.5518
  422MOL0     C55615  -2.970   0.771   8.334 -0.5174  0.0007  0.2161
  422MOL0    Cl55616  -3.146   0.796   8.366  0.0311 -0.3502  0.1047
  422MOL0     C55617  -1.975   1.296   8.119 -0.1376 -1.5422  0.3534
  422MOL0     C55618  -1.845   1.364   8.113 -0.7468 -0.1499  0.8479
  422MOL0     O55619  -1.508   1.284   7.920 -0.2378 -0.2616 -0.3787
  422MOL0     C55620  -1.291   1.445   7.942  0.2804  1.0023 -0.1115
  422MOL0     C55621  -1.176   1.524   7.973 -0.1849  0.0540 -0.1759
  422MOL0     N55622  -0.532   1.524   8.429 -0.0076 -0.3560  0.3914
  422MOL0     N55623  -0.398   1.512   8.399  0.0393 -0.3993  0.4574
  422MOL0     C55624   0.743   1.643   8.009  0.1371 -0.0823 -0.0561
  422MOL0     C55625   0.883   1.677   8.026 -0.6474 -0.3150  0.0810
  422MOL0     C55626   1.280   1.867   8.034 -0.6832 -1.1961 -0.0388
  422MOL0     C55627   1.366   1.887   7.922  0.1226 -0.4815  0.1969
  422MOL0     C55628   1.498   1.914   7.936  0.0234 -0.2561 -0.0598
  422MOL0     C55629   1.551   1.918   8.058 -0.1565  0.0945  0.3834
  422MOL0     O55630   1.681   1.950   8.081 -0.4761  0.5532  0.1839
  422MOL0     C55631   1.775   1.974   7.984 -0.4619  0.2095  0.8646
  422MOL0     C55632   1.903   2.011   8.038 -0.4246  0.2897 -0.3203
  422MOL0     C55633   1.962   1.887   8.108 -0.0291  0.4696 -0.2785
  422MOL0     C55634   2.099   1.937   8.151  0.0774  0.7338 -0.5120
  422MOL0     C55635   2.175   1.821   8.203 -0.5801 -0.3402  1.4443
  422MOL0     C55636   2.230   1.723   8.244  0.1719  0.1642  0.1600
  422MOL0     C55637   1.473   1.891   8.166  0.1689 -0.3873  0.1361
  422MOL0     C55638   1.338   1.877   8.162 -0.3112  0.8615  0.0689
  422MOL0     H55639   0.860   1.872   8.304  2.4285 -0.4168 -0.0861
  422MOL0     H55640   0.622   1.825   8.271  0.4502 -1.4688  2.2699
  422MOL0     H55641   0.407   1.799   8.203 -3.2589  0.9003 -2.1166
  422MOL0     H55642   0.466   1.660   8.269  0.9844  0.8340  0.7241
  422MOL0     H55643   0.232   1.629   8.230  0.0089  1.9537 -0.5673
  422MOL0     H55644   0.326   1.507   8.154 -0.8383  0.7275 -0.1840
  422MOL0     H55645   0.316   1.668   7.927 -0.6340  1.6527 -0.6083
  422MOL0     H55646   0.197   1.758   8.008 -4.0969 -1.2517 -0.8548
  422MOL0     H55647   0.078   1.634   7.872  2.7344  1.0203 -0.2561
  422MOL0     H55648   0.158   1.493   7.910  1.0948  0.2000  1.2987
  422MOL0     H55649  -0.017   1.641   8.113  1.6338  1.5990 -1.3642
  422MOL0     H55650   0.073   1.485   8.143 -3.1781 -0.9292  0.0959
  422MOL0     H55651  -0.060   1.379   7.947  1.0691  0.1860  0.1060
  422MOL0     H55652  -0.145   1.525   7.931 -1.1501  0.0750  1.0891
  422MOL0     H55653  -0.271   1.358   8.058 -0.8509 -2.7937  4.6564
  422MOL0     H55654  -0.135   1.337   8.166 -0.3719 -1.4562  0.2428
  422MOL0     H55655  -0.261   1.619   8.150 -0.5786 -0.9497 -1.0247
  422MOL0     H55656  -0.174   1.539   8.281  0.3984  0.3865  0.0663
  422MOL0     H55657  -0.519   1.459   8.102 -0.7779  0.9239  0.0506
  422MOL0     H55658  -0.748   1.625   8.374  1.5006  0.6220  0.4950
  422MOL0     H55659  -0.803   1.470   8.320  0.9558 -2.0902 -1.2811
  422MOL0     H55660  -0.767   1.553   8.068 -1.8280  0.2126 -1.2671
  422MOL0     H55661  -0.719   1.710   8.128 -0.2538 -0.0634 -0.7001
  422MOL0     H55662  -0.974   1.546   8.152  2.1859 -1.6074 -1.5342
  422MOL0     H55663  -0.960   1.700   8.246  1.6895  0.6907  0.2493
  422MOL0     H55664  -0.935   1.673   7.949  0.3390  0.6553 -0.9282
  422MOL0     H55665  -0.915   1.823   8.048 -0.1889  0.4202 -0.3862
  422MOL0     H55666  -1.345   1.801   8.067 -2.4587 -1.1506  1.2449
  422MOL0     H55667  -1.535   1.662   8.049 -0.2532 -0.9457  0.5781
  422MOL0     H55668  -1.738   1.258   7.818  1.8513  1.2230  1.8611
  422MOL0     H55669  -1.965   1.157   7.806 -2.1531 -0.3215  1.8791
  422MOL0     H55670  -2.257   1.261   8.089 -2.2644 -0.5652  1.9730
  422MOL0     H55671  -2.163   1.127   8.187  2.9331  2.1531 -1.0669
  422MOL0     H55672  -2.268   0.963   8.047 -2.3149 -1.9278  1.5613
  422MOL0     H55673  -2.379   1.091   7.980 -0.1889  0.7413  0.5355
  422MOL0     H55674  -2.447   1.136   8.222 -1.2074 -0.7947  0.2802
  422MOL0     H55675  -2.353   0.997   8.271 -0.5404 -1.5506 -1.3829
  422MOL0     H55676  -2.583   0.994   8.069 -0.3901 -1.3636 -0.9827
  422MOL0     H55677  -2.505   0.847   8.131  0.6270  0.5808 -0.8786
  422MOL0     H55678  -2.682   1.065   8.257  0.1709  0.8835 -0.0769
  422MOL0     H55679  -2.592   0.953   8.363  0.0628 -4.5319 -0.8939
  422MOL0     H55680  -2.702   0.775   8.320  0.4136  0.8308  1.6639
  422MOL0     H55681  -2.753   0.831   8.150 -1.4779  0.4210  0.2146
  422MOL0     H55682  -2.875   0.962   8.389  5.0388 -0.6609  1.1953
  422MOL0     H55683  -2.935   0.940   8.225  0.4293 -0.9571 -0.3668
  422MOL0     H55684  -2.925   0.722   8.421  0.2667  2.3857  1.2422
  422MOL0     H55685  -2.964   0.702   8.250  2.1798  1.6575 -1.0646
  422MOL0     H55686  -2.040   1.320   8.203 -1.2678  0.6154 -1.0386
  422MOL0     H55687  -1.814   1.426   8.197  2.0321  4.2582 -2.9693
  422MOL0     H55688  -1.271   1.345   7.907  0.6140  1.8436 -2.5413
  422MOL0     H55689  -1.082   1.471   7.964 -1.2281 -1.5572 -2.8394
  422MOL0     H55690   0.717   1.570   7.933  0.2130 -1.1317  0.8828
  422MOL0     H55691   0.942   1.638   7.944 -2.5362 -0.7778 -1.1438
  422MOL0     H55692   1.323   1.889   7.822 -0.1680  0.2822  0.3255
  422MOL0     H55693   1.566   1.929   7.853  0.7850 -0.4078  0.5248
  422MOL0     H55694   1.743   2.055   7.918 -2.4222  3.9026  5.6371
  422MOL0     H55695   1.788   1.891   7.915 -2.8106  2.6188 -2.8036
  422MOL0     H55696   1.963   2.039   7.951 -0.4537 -2.1731 -1.2044
  422MOL0     H55697   1.894   2.099   8.103 -2.0626 -0.1235  0.0703
  422MOL0     H55698   1.974   1.804   8.037  1.3093  0.7359 -0.3925
  422MOL0     H55699   1.893   1.868   8.191  0.7405 -0.1231  0.2440
  422MOL0     H55700   2.157   1.984   8.070  0.2033  1.1376 -0.1889
  422MOL0     H55701   2.095   2.004   8.237  0.2574 -0.0164  0.0921
  422MOL0     H55702   2.274   1.632   8.279 -1.1895 -0.0740  1.3834
  422MOL0     H55703   1.516   1.886   8.265  1.3660  0.5985 -0.3134
  422MOL0     H55704   1.267   1.858   8.242 -0.5665 -0.4075 -0.4418
  423MOL0     O55705   8.147   3.100   0.767 -0.4194 -0.2159  0.5239
  423MOL0     C55706   8.176   3.056   0.658  0.0325  0.5253  0.1040
  423MOL0     O55707   8.093   2.995   0.572 -0.0330  0.5423  0.5463
  423MOL0     C55708   7.964   2.972   0.616  0.3046  0.1519  1.1949
  423MOL0     C55709   7.862   3.035   0.552 -0.1018  0.6258  0.2257
  423MOL0     C55710   7.729   3.019   0.596  0.0295 -0.1340 -0.0321
  423MOL0     C55711   7.695   2.930   0.701 -0.5207  0.6779 -0.2607
  423MOL0     O55712   7.572   2.905   0.761  0.3497  0.6149 -0.0424
  423MOL0     C55713   7.466   3.000   0.737  0.5211 -0.2562 -0.3359
  423MOL0     C55714   7.362   2.949   0.639 -0.6680 -0.4955  1.0126
  423MOL0     C55715   7.308   2.813   0.675  0.4664  0.8988  0.6779
  423MOL0     C55716   7.165   2.782   0.624 -0.3413  0.5100  0.4581
  423MOL0     C55717   7.106   2.660   0.687 -0.3914 -0.3511 -0.2241
  423MOL0     C55718   6.969   2.612   0.639 -0.3142 -0.3094  0.1621
  423MOL0     C55719   6.971   2.572   0.486 -0.8624  0.5849 -0.2172
  423MOL0     C55720   6.831   2.576   0.424  0.1304  0.8851  0.3545
  423MOL0     N55721   6.728   2.487   0.483  0.3929  0.3087 -0.5813
  423MOL0     C55722   6.690   2.365   0.431  0.2851  1.1381 -0.8278
  423MOL0     C55723   6.581   2.336   0.508  0.7500 -0.3454 -0.2235
  423MOL0     C55724   6.500   2.211   0.491 -0.0126  0.3830  0.1545
  423MOL0     C55725   6.450   2.205   0.347  0.5104 -0.2693  0.9106
  423MOL0     C55726   6.345   2.083   0.333  0.1287  0.4669  0.7260
  423MOL0     C55727   6.213   2.093   0.402  0.3423 -0.6158 -0.0201
  423MOL0     O55728   6.209   1.983   0.512 -0.6948 -0.6382 -0.6146
  423MOL0     C55729   6.092   1.951   0.572  0.2794  0.4649  0.7745
  423MOL0     C55730   6.082   1.826   0.637 -0.2129  0.1360 -0.9409
  423MOL0     C55731   5.955   1.774   0.696 -0.5552 -0.8879  0.7416
  423MOL0     C55732   5.841   1.849   0.667  0.0168 -0.8291  0.3032
  423MOL0     C55733   5.707   1.805   0.719  0.0771 -0.4174 -0.3746
  423MOL0     O55734   5.608   1.855   0.647 -0.8671  0.2920 -0.1289
  423MOL0     C55735   5.480   1.818   0.676  0.2918  0.1428  0.2214
  423MOL0     C55736   5.421   1.827   0.807 -0.7570  0.4238  0.6217
  423MOL0     C55737   5.297   1.773   0.823 -0.2931 -0.3717  0.0314
  423MOL0     C55738   5.229   1.736   0.707  0.3955  0.2654 -0.6895
  423MOL0     O55739   5.095   1.694   0.706  0.4999  0.3371 -0.2076
  423MOL0     C55740   5.043   1.644   0.836  0.3014 -0.4606  1.1396
  423MOL0     C55741   4.896   1.587   0.823 -0.2408 -0.8262 -0.6742
  423MOL0     C55742   4.787   1.673   0.765  0.4561 -0.9937 -0.0649
  423MOL0     C55743   4.640   1.637   0.797 -0.6588  0.6445  0.9888
  423MOL0     C55744   4.538   1.714   0.716 -0.5491  0.9994 -0.1701
  423MOL0     C55745   4.393   1.695   0.758  0.0589 -0.5244 -0.9021
  423MOL0     C55746   4.304   1.821   0.715 -0.0535 -0.6451 -0.8678
  423MOL0     C55747   4.149   1.808   0.743 -0.9463  0.1895 -0.4408
  423MOL0    Cl55748   4.068   1.689   0.641  0.0393  0.0963  0.2477
  423MOL0     C55749   5.286   1.737   0.583  0.3422  0.0596 -0.0036
  423MOL0     C55750   5.417   1.770   0.565 -0.3117 -0.4743 -0.0682
  423MOL0     O55751   5.700   1.739   0.827  0.4680  0.5929 -0.0336
  423MOL0     C55752   5.850   1.966   0.595 -0.6309 -0.0438 -0.0091
  423MOL0     C55753   5.969   2.027   0.556 -0.5481  0.4540 -0.0084
  423MOL0     N55754   6.559   2.436   0.604  0.4919  0.2418 -0.0406
  423MOL0     N55755   6.643   2.533   0.578  0.5166  0.9857  0.1596
  423MOL0     C55756   7.803   2.876   0.773 -1.1545  0.1470  0.3651
  423MOL0     C55757   7.933   2.899   0.729  0.0201 -0.3544 -0.3032
  423MOL0     C55758   8.311   3.084   0.616 -0.5266  0.2795  0.7097
  423MOL0     C55759   8.385   3.005   0.519  0.2761  0.2678  0.1009
  423MOL0     C55760   8.519   3.037   0.476 -0.1330  0.0900 -0.6794
  423MOL0     C55761   8.581   3.152   0.523 -0.4686  0.0753 -0.4312
  423MOL0     O55762   8.712   3.178   0.474  0.5839 -0.2803 -0.5903
  423MOL0     C55763   8.784   3.290   0.521  0.7231  0.0322 -0.5119
  423MOL0     C55764   8.886   3.319   0.411 -1.6052 -0.0139 -0.0603
  423MOL0     C55765   8.934   3.470   0.420  0.0711 -0.4407 -0.2226
  423MOL0     C55766   9.026   3.514   0.300  0.2219  0.2354  0.1466
  423MOL0     C55767   9.146   3.446   0.312  0.5226 -0.2920  0.4150
  423MOL0     C55768   9.252   3.394   0.339  0.6425 -0.3892 -0.2138
  423MOL0     C55769   8.508   3.230   0.615 -0.5928 -0.0325 -0.5936
  423MOL0     C55770   8.375   3.203   0.653  0.2647  0.6354 -0.4286
  423MOL0     H55771   7.901   3.091   0.468  1.3786  1.5810  1.4875
  423MOL0     H55772   7.655   3.080   0.544  2.2503  1.1529 -1.8539
  423MOL0     H55773   7.499   3.098   0.699  0.8682 -0.8678 -1.6910
  423MOL0     H55774   7.420   3.020   0.834  2.4065  0.1090  0.5191
  423MOL0     H55775   7.404   2.944   0.538  0.7667  2.5107  1.3377
  423MOL0     H55776   7.286   3.027   0.645  1.0663  1.2372  1.4967
  423MOL0     H55777   7.296   2.802   0.783 -0.4878 -1.9926  0.3648
  423MOL0     H55778   7.379   2.738   0.639 -1.8418 -0.6159 -1.0185
  423MOL0     H55779   7.095   2.858   0.659 -1.5188  1.3528 -3.2649
  423MOL0     H55780   7.160   2.775   0.515  0.0093 -2.3580  0.5562
  423MOL0     H55781   7.103   2.671   0.796 -0.4437 -2.2188 -0.0068
  423MOL0     H55782   7.175   2.577   0.669  1.2174  0.8609  0.1906
  423MOL0     H55783   6.896   2.691   0.659  0.3919  0.2536  0.5738
  423MOL0     H55784   6.918   2.542   0.705 -2.2528 -0.7940 -1.7209
  423MOL0     H55785   7.038   2.626   0.419 -0.6245 -1.3695 -1.6580
  423MOL0     H55786   6.996   2.465   0.482 -0.3596  0.7078 -0.4403
  423MOL0     H55787   6.840   2.564   0.315 -1.2225  3.5329 -0.1394
  423MOL0     H55788   6.798   2.678   0.448  0.7169  1.4611 -1.1510
  423MOL0     H55789   6.736   2.311   0.349  0.9660  1.8081 -0.8968
  423MOL0     H55790   6.414   2.206   0.558  0.5504 -0.3893  0.8387
  423MOL0     H55791   6.563   2.122   0.502 -2.4725 -2.3482 -4.5288
  423MOL0     H55792   6.536   2.188   0.282  0.3765 -2.3584  1.2037
  423MOL0     H55793   6.405   2.300   0.316  1.1209  0.4507  2.1533
  423MOL0     H55794   6.317   2.061   0.230  1.1788 -0.5540  0.6272
  423MOL0     H55795   6.396   1.990   0.363  1.7598  1.4634  1.1958
  423MOL0     H55796   6.127   2.087   0.335 -1.4781  2.2219  1.8070
  423MOL0     H55797   6.202   2.195   0.440  0.4077 -0.8047  0.5129
  423MOL0     H55798   6.167   1.759   0.648 -0.6934 -0.3735 -0.2643
  423MOL0     H55799   5.959   1.683   0.756  1.2013 -2.4517 -1.5713
  423MOL0     H55800   5.476   1.870   0.890 -0.3256 -0.4822  0.8128
  423MOL0     H55801   5.260   1.760   0.925 -0.7225  2.3266  0.2857
  423MOL0     H55802   5.034   1.733   0.900 -1.1020 -1.6376  2.6809
  423MOL0     H55803   5.116   1.574   0.878  0.6946  1.2944  3.6705
  423MOL0     H55804   4.867   1.557   0.924  1.8937  1.1268  0.6249
  423MOL0     H55805   4.891   1.503   0.753 -1.3012 -0.6229 -0.8587
  423MOL0     H55806   4.806   1.674   0.658  0.1488  0.8387 -0.1330
  423MOL0     H55807   4.793   1.778   0.796  0.6705 -0.5054 -1.7005
  423MOL0     H55808   4.619   1.532   0.775  2.8961  0.2834 -1.6449
  423MOL0     H55809   4.627   1.653   0.904  2.2564  2.9215  1.1426
  423MOL0     H55810   4.549   1.660   0.621  1.4538  0.8524  0.0929
  423MOL0     H55811   4.571   1.819   0.716 -0.3496  1.0646  3.7532
  423MOL0     H55812   4.396   1.692   0.868 -1.1441 -2.7776 -0.8804
  423MOL0     H55813   4.338   1.612   0.714 -3.0360  0.2186  1.1993
  423MOL0     H55814   4.343   1.909   0.768  0.4002 -0.6533 -1.1825
  423MOL0     H55815   4.319   1.836   0.608  1.6138 -2.0679 -0.8657
  423MOL0     H55816   4.100   1.903   0.722 -1.2936  0.0106 -0.4359
  423MOL0     H55817   4.156   1.788   0.850  2.6931 -0.4789 -0.6715
  423MOL0     H55818   5.228   1.697   0.500  2.0889 -1.4604 -0.5779
  423MOL0     H55819   5.461   1.775   0.467  1.2236 -2.3971  0.4460
  423MOL0     H55820   5.753   2.011   0.577 -1.6801 -0.9952  2.7234
  423MOL0     H55821   5.958   2.122   0.504 -0.6575  0.3816 -0.1183
  423MOL0     H55822   7.793   2.812   0.860 -3.0388 -1.0995 -0.6918
  423MOL0     H55823   8.007   2.843   0.785  2.4082  2.1306 -0.7038
  423MOL0     H55824   8.334   2.923   0.469  0.2512 -0.6260  1.5281
  423MOL0     H55825   8.564   2.979   0.396  2.2756  0.4704  0.3131
  423MOL0     H55826   8.832   3.278   0.619 -1.2120  1.8168  0.7538
  423MOL0     H55827   8.723   3.381   0.525 -1.7175 -1.5532  0.2892
  423MOL0     H55828   8.974   3.253   0.417 -1.7512 -0.5648 -2.7275
  423MOL0     H55829   8.838   3.301   0.315 -2.8201 -2.8623  0.9601
  423MOL0     H55830   8.987   3.480   0.515 -1.2535  2.9778  0.3146
  423MOL0     H55831   8.843   3.532   0.421 -0.2776 -0.9328 -0.7531
  423MOL0     H55832   8.985   3.485   0.202  0.7716 -3.9577  0.9617
  423MOL0     H55833   9.043   3.622   0.303  1.1854  0.1273 -0.7791
  423MOL0     H55834   9.348   3.349   0.358  0.9044 -0.0762 -0.7889
  423MOL0     H55835   8.555   3.321   0.651  1.1757 -1.3225  0.5066
  423MOL0     H55836   8.323   3.269   0.721  0.2102 -1.8973  2.1570
  424MOL0     O55837   0.672   8.607   8.032 -0.0892 -0.0434  0.3899
  424MOL0     C55838   0.768   8.529   8.029  1.1221  0.9215 -0.4836
  424MOL0     O55839   0.761   8.398   7.992 -0.1554 -0.4926 -0.3369
  424MOL0     C55840   0.646   8.329   7.965  0.2486  0.2467  1.4405
  424MOL0     C55841   0.664   8.203   7.901 -0.4194  0.0594  0.8565
  424MOL0     C55842   0.562   8.112   7.878 -0.4433  0.0582 -0.0905
  424MOL0     C55843   0.431   8.149   7.917  0.3975  0.1007  0.0328
  424MOL0     O55844   0.314   8.081   7.899  0.6140 -0.3670  0.1347
  424MOL0     C55845   0.296   7.975   7.808 -1.5435 -0.1244  0.1046
  424MOL0     C55846   0.155   7.926   7.802  0.0481  0.8262 -0.1114
  424MOL0     C55847   0.073   8.038   7.746 -0.9580 -0.5715 -0.7905
  424MOL0     C55848  -0.054   7.979   7.706  1.5858  1.0332 -0.3133
  424MOL0     C55849  -0.166   8.085   7.684  0.7125  0.3915  0.0065
  424MOL0     C55850  -0.203   8.106   7.537 -0.0117 -0.3910  0.6053
  424MOL0     C55851  -0.087   8.172   7.452 -0.6177 -0.7416 -0.5186
  424MOL0     C55852  -0.069   8.324   7.483 -0.1968 -0.9229 -0.3493
  424MOL0     N55853  -0.164   8.406   7.425 -1.3825  0.0449  0.7264
  424MOL0     C55854  -0.143   8.502   7.326  0.1621  0.9536 -0.1649
  424MOL0     C55855  -0.266   8.562   7.310  0.4069  0.2954 -1.5482
  424MOL0     C55856  -0.313   8.665   7.221  0.0458  0.6074  0.1584
  424MOL0     C55857  -0.444   8.621   7.161  1.3824  0.3771  1.0763
  424MOL0     C55858  -0.511   8.718   7.056  0.4003 -0.0706 -0.4928
  424MOL0     C55859  -0.498   8.871   7.081 -1.4093 -0.3353  1.5562
  424MOL0     O55860  -0.544   8.917   7.203 -0.2130  0.4899 -0.2419
  424MOL0     C55861  -0.537   9.053   7.230  0.0473 -0.0183 -0.0222
  424MOL0     C55862  -0.650   9.132   7.220 -0.1801  0.1026 -1.5081
  424MOL0     C55863  -0.646   9.274   7.220  0.1449 -0.2663  0.4638
  424MOL0     C55864  -0.522   9.340   7.253 -0.0594 -0.4818  0.5510
  424MOL0     C55865  -0.508   9.489   7.265 -0.4826  0.0692  0.0509
  424MOL0     O55866  -0.613   9.569   7.225  0.2252 -0.3081  0.4712
  424MOL0     C55867  -0.586   9.707   7.208  0.3903 -0.1459 -0.1655
  424MOL0     C55868  -0.678   9.794   7.261  0.9198 -0.1777 -0.0729
  424MOL0     C55869  -0.665   9.933   7.250 -0.5106 -0.6181  0.0456
  424MOL0     C55870  -0.545   9.988   7.210 -0.4701  0.5305  0.0843
  424MOL0     O55871  -0.519  10.118   7.205 -0.8002 -0.8506 -1.6160
  424MOL0     C55872  -0.626  10.210   7.171 -1.7312  0.9963 -0.4821
  424MOL0     C55873  -0.583  10.342   7.113  0.1148  0.3330 -0.5919
  424MOL0     C55874  -0.688  10.395   7.016  0.1109  0.3410 -0.2853
  424MOL0     C55875  -0.700  10.306   6.884  0.9061 -0.7308 -0.7690
  424MOL0     C55876  -0.821  10.352   6.801  0.0566 -0.2080 -0.0630
  424MOL0     C55877  -0.964  10.320   6.845 -0.5803 -0.1255  0.4812
  424MOL0     C55878  -0.982  10.162   6.878 -0.5035 -0.0755 -0.6140
  424MOL0     C55879  -0.987  10.144   7.030 -1.1791  0.5535 -0.0920
  424MOL0    Cl55880  -1.146  10.181   7.107  0.0775  0.2747  0.2291
  424MOL0     C55881  -0.440   9.898   7.167  0.3144  0.4621 -0.5938
  424MOL0     C55882  -0.472   9.761   7.144 -1.3415  0.7793  0.5635
  424MOL0     O55883  -0.396   9.530   7.297 -0.2127 -0.1376 -0.4848
  424MOL0     C55884  -0.405   9.259   7.263 -0.1920 -0.8876  1.2165
  424MOL0     C55885  -0.414   9.122   7.250  0.6526 -0.2040 -0.2242
  424MOL0     N55886  -0.347   8.505   7.407  0.0553 -0.5647 -0.1475
  424MOL0     N55887  -0.290   8.419   7.472 -0.0478 -0.5312  0.1811
  424MOL0     C55888   0.413   8.269   7.990  0.2107 -0.1522 -0.4933
  424MOL0     C55889   0.521   8.353   8.017  0.3186 -0.3708  0.3599
  424MOL0     C55890   0.907   8.584   8.056  0.5484  0.3644 -0.5352
  424MOL0     C55891   1.005   8.486   8.092  0.3374 -0.1222  0.8120
  424MOL0     C55892   1.139   8.519   8.078  0.7440  0.1140 -0.3776
  424MOL0     C55893   1.177   8.651   8.037  0.0781  0.1825 -0.7150
  424MOL0     O55894   1.306   8.696   8.017  0.0117  0.2020 -0.1500
  424MOL0     C55895   1.411   8.610   8.019 -1.3915 -0.8911 -0.1865
  424MOL0     C55896   1.539   8.706   7.993  0.9465 -0.4045  0.2167
  424MOL0     C55897   1.664   8.622   7.960 -0.3395 -0.1104  1.4765
  424MOL0     C55898   1.785   8.704   7.982 -0.8169  0.4254 -0.4075
  424MOL0     C55899   1.811   8.764   8.119 -0.8037  0.1041  0.3960
  424MOL0     C55900   1.806   8.808   8.227  0.0834 -0.6253  0.6432
  424MOL0     C55901   1.082   8.749   8.020 -0.2255 -0.7065  1.1320
  424MOL0     C55902   0.942   8.712   8.027 -0.2152  0.0367  0.1637
  424MOL0     H55903   0.765   8.169   7.882  0.1816  0.8954  2.3838
  424MOL0     H55904   0.587   8.020   7.827  3.2117  2.5511 -3.4130
  424MOL0     H55905   0.369   7.898   7.833  1.7874  2.5449 -0.6146
  424MOL0     H55906   0.329   8.009   7.710  3.6347  0.4309  1.7219
  424MOL0     H55907   0.113   7.892   7.897 -0.0013  2.2559  0.4070
  424MOL0     H55908   0.163   7.843   7.731  4.0769 -0.7092  1.8282
  424MOL0     H55909   0.112   8.089   7.657  3.5349 -0.9381  0.7137
  424MOL0     H55910   0.062   8.120   7.817  0.0447  2.5557 -3.9440
  424MOL0     H55911  -0.047   7.910   7.621  0.6102 -2.2050  2.0377
  424MOL0     H55912  -0.086   7.919   7.791 -2.1863  5.6014  1.8875
  424MOL0     H55913  -0.129   8.173   7.738 -0.8948  1.1916 -0.1297
  424MOL0     H55914  -0.259   8.060   7.737  0.1201  5.2017  1.7861
  424MOL0     H55915  -0.293   8.166   7.523  0.1081  0.8811  4.2503
  424MOL0     H55916  -0.212   8.014   7.479 -1.1787  0.4879 -0.6801
  424MOL0     H55917   0.013   8.132   7.469 -0.3503 -0.4440 -1.3479
  424MOL0     H55918  -0.102   8.161   7.344  0.3253  0.7056 -0.8316
  424MOL0     H55919   0.030   8.358   7.452  0.1315 -2.2211 -0.7455
  424MOL0     H55920  -0.082   8.344   7.590 -4.1850  4.2702 -1.3885
  424MOL0     H55921  -0.052   8.522   7.270  1.9258 -3.2956  0.8013
  424MOL0     H55922  -0.238   8.680   7.143  0.5407 -0.7375  0.3505
  424MOL0     H55923  -0.321   8.764   7.267  0.3930  1.1461 -0.9046
  424MOL0     H55924  -0.518   8.611   7.241  0.0424 -0.6807 -0.2238
  424MOL0     H55925  -0.445   8.521   7.115 -0.4506  0.6320  0.4733
  424MOL0     H55926  -0.453   8.695   6.966 -0.8050 -1.2597 -0.9943
  424MOL0     H55927  -0.612   8.680   7.040  0.2071 -1.2160  2.7870
  424MOL0     H55928  -0.543   8.927   6.998 -0.0893 -1.9477 -0.3555
  424MOL0     H55929  -0.393   8.897   7.065 -2.1047  0.8003 -2.6365
  424MOL0     H55930  -0.745   9.088   7.189 -0.8547 -0.6478  1.3769
  424MOL0     H55931  -0.737   9.331   7.203  1.1575  0.5307 -2.9773
  424MOL0     H55932  -0.776   9.759   7.291  1.8232 -2.9738 -0.1474
  424MOL0     H55933  -0.745   9.979   7.306 -1.6713 -1.3723 -0.9467
  424MOL0     H55934  -0.695  10.227   7.254 -0.8032 -1.0142  0.7713
  424MOL0     H55935  -0.686  10.150   7.102  1.5200  0.4688 -3.1149
  424MOL0     H55936  -0.488  10.312   7.068  2.0561  0.5470  2.9943
  424MOL0     H55937  -0.568  10.414   7.194  0.8556  0.2700 -0.6688
  424MOL0     H55938  -0.662  10.500   6.998  2.1140 -0.3761 -1.8974
  424MOL0     H55939  -0.789  10.388   7.059 -0.0661 -3.1392 -0.9839
  424MOL0     H55940  -0.606  10.317   6.830 -0.7823  3.1206 -3.3840
  424MOL0     H55941  -0.712  10.200   6.909 -0.2676 -0.6180 -0.8090
  424MOL0     H55942  -0.810  10.297   6.707  0.1260  0.1223 -0.2494
  424MOL0     H55943  -0.816  10.457   6.771 -1.4524 -0.1792 -0.2758
  424MOL0     H55944  -1.040  10.355   6.774 -0.7527  1.8344  1.5621
  424MOL0     H55945  -0.988  10.380   6.933 -0.8350  3.6054 -1.8805
  424MOL0     H55946  -1.079  10.126   6.842 -0.5407  0.0369 -0.6254
  424MOL0     H55947  -0.901  10.104   6.834  1.5775 -1.4702  4.3755
  424MOL0     H55948  -0.913  10.210   7.078 -0.4744  2.3586 -3.3741
  424MOL0     H55949  -0.951  10.049   7.071  1.3170  2.0772  1.5303
  424MOL0     H55950  -0.341   9.936   7.146  0.0741  0.2631 -2.2143
  424MOL0     H55951  -0.391   9.706   7.096  0.0657 -1.0756  4.6001
  424MOL0     H55952  -0.304   9.298   7.270  1.8652 -5.4018  0.2722
  424MOL0     H55953  -0.323   9.064   7.259 -0.8861 -2.7671 -0.1048
  424MOL0     H55954   0.316   8.297   8.028 -1.2152 -2.3836 -2.1851
  424MOL0     H55955   0.497   8.439   8.079  0.1973  1.2207 -1.7842
  424MOL0     H55956   0.959   8.390   8.111  0.9887 -1.0818 -1.9929
  424MOL0     H55957   1.216   8.442   8.083  0.2905 -0.3286 -0.0925
  424MOL0     H55958   1.416   8.531   7.943 -2.6772 -0.7486 -0.4411
  424MOL0     H55959   1.430   8.562   8.116 -1.6390 -2.9484 -1.0984
  424MOL0     H55960   1.511   8.774   7.912  1.8190  1.6366  1.5778
  424MOL0     H55961   1.545   8.764   8.085 -3.5535  1.1751 -0.2194
  424MOL0     H55962   1.656   8.593   7.854 -0.9175 -1.0658  1.7676
  424MOL0     H55963   1.668   8.531   8.020 -0.2462  0.0850  1.7651
  424MOL0     H55964   1.871   8.649   7.944 -0.2538  1.7201 -1.0768
  424MOL0     H55965   1.780   8.785   7.908  1.9207  0.1633 -0.9758
  424MOL0     H55966   1.805   8.854   8.324 -1.0335 -0.4084  0.5411
  424MOL0     H55967   1.118   8.846   7.988  1.4636 -1.3223  1.0312
  424MOL0     H55968   0.872   8.788   7.993 -0.2940  0.5987  1.5199
  425MOL0     O55969   3.481   9.820   1.553 -0.4574 -0.6679  0.3435
  425MOL0     C55970   3.551   9.755   1.633  0.0621 -0.4038  0.1587
  425MOL0     O55971   3.538   9.619   1.655 -0.1646  0.8158 -0.2196
  425MOL0     C55972   3.439   9.547   1.590 -0.5437 -0.7206  0.3674
  425MOL0     C55973   3.306   9.592   1.567 -0.5581  0.5873  0.1853
  425MOL0     C55974   3.210   9.501   1.512 -0.2561 -0.7705 -0.4326
  425MOL0     C55975   3.234   9.365   1.494 -0.4904  0.5696  0.1214
  425MOL0     O55976   3.150   9.267   1.442  0.2791 -0.0002  0.6781
  425MOL0     C55977   3.025   9.305   1.377 -0.6688 -0.4430 -1.4395
  425MOL0     C55978   2.946   9.185   1.326 -0.1352 -0.0768  0.5720
  425MOL0     C55979   3.008   9.136   1.193 -0.2506  0.6641 -0.4348
  425MOL0     C55980   2.933   9.004   1.162  1.2420  0.7334 -0.9088
  425MOL0     C55981   2.989   8.918   1.042 -0.4031 -0.0587 -0.7081
  425MOL0     C55982   3.025   9.003   0.912 -0.8307  0.2175 -0.0274
  425MOL0     C55983   3.121   8.928   0.816  0.4078  0.1837 -0.7180
  425MOL0     C55984   3.197   9.026   0.728  0.3635 -0.5657  0.3480
  425MOL0     N55985   3.284   8.958   0.629 -0.6535 -0.0435 -0.6645
  425MOL0     C55986   3.345   8.837   0.640 -0.0041  0.0932  0.2905
  425MOL0     C55987   3.441   8.836   0.551  0.7091 -0.6824  0.3386
  425MOL0     C55988   3.538   8.722   0.534 -1.0414 -0.0880  0.4615
  425MOL0     C55989   3.491   8.610   0.441 -0.0699  0.4620  0.2578
  425MOL0     C55990   3.603   8.527   0.373  0.0109  0.6828 -0.9217
  425MOL0     C55991   3.685   8.598   0.258 -0.1158 -0.1664 -0.7939
  425MOL0     O55992   3.772   8.696   0.308  0.0221 -0.3230  0.3798
  425MOL0     C55993   3.898   8.664   0.289 -0.4137  0.4162  0.0310
  425MOL0     C55994   3.964   8.605   0.401  0.0146 -0.4151 -0.0874
  425MOL0     C55995   4.095   8.559   0.388  0.7225  0.3533  0.1064
  425MOL0     C55996   4.164   8.571   0.268 -0.4117 -0.1748 -0.0536
  425MOL0     C55997   4.305   8.522   0.261 -0.6143 -0.2624 -0.6262
  425MOL0     O55998   4.355   8.456   0.368 -0.0269 -0.0242  0.6724
  425MOL0     C55999   4.488   8.427   0.360 -0.3960 -0.2804  0.1257
  425MOL0     C56000   4.535   8.322   0.280  0.8172 -0.2858  0.3008
  425MOL0     C56001   4.664   8.278   0.300 -0.1677  0.5961  0.4722
  425MOL0     C56002   4.755   8.351   0.376 -0.5940 -0.3188  0.2134
  425MOL0     O56003   4.886   8.300   0.384 -0.8072 -0.3195  0.1814
  425MOL0     C56004   4.971   8.371   0.475 -0.0505  0.1897 -0.0119
  425MOL0     C56005   5.089   8.283   0.515 -0.2300 -0.2448  0.1838
  425MOL0     C56006   5.203   8.333   0.437 -0.5281  0.7418 -0.5749
  425MOL0     C56007   5.335   8.247   0.449  0.1451  0.0261  1.0712
  425MOL0     C56008   5.448   8.326   0.387  0.1130 -0.0891 -0.1831
  425MOL0     C56009   5.585   8.276   0.435  0.0553  0.0010 -0.5120
  425MOL0     C56010   5.633   8.164   0.351 -0.9956  0.7223 -0.1291
  425MOL0     C56011   5.779   8.129   0.393  0.0200 -0.8987 -0.3158
  425MOL0    Cl56012   5.882   8.264   0.320  0.3979  0.4830  0.3079
  425MOL0     C56013   4.710   8.473   0.432 -0.4553 -0.0407 -1.1302
  425MOL0     C56014   4.574   8.503   0.429  0.3178 -0.4079  0.0438
  425MOL0     O56015   4.365   8.545   0.154  0.3595 -0.4451  0.4572
  425MOL0     C56016   4.096   8.631   0.160 -0.2703  0.5251  1.0349
  425MOL0     C56017   3.963   8.672   0.162  0.7484  0.6357 -0.4457
  425MOL0     N56018   3.436   8.957   0.483  0.2149  0.9508  0.0510
  425MOL0     N56019   3.343   9.028   0.522  0.2605  0.2738 -0.7074
  425MOL0     C56020   3.364   9.322   1.518  0.4693 -0.8464  0.0592
  425MOL0     C56021   3.466   9.415   1.554  0.1151  0.3459 -0.8901
  425MOL0     C56022   3.669   9.827   1.679  0.0514  1.3172 -0.0937
  425MOL0     C56023   3.702   9.828   1.814 -1.0523 -0.1443 -0.3454
  425MOL0     C56024   3.796   9.918   1.866  0.0587 -0.2816  0.2079
  425MOL0     C56025   3.861  10.013   1.787  0.8832 -0.1107  0.4311
  425MOL0     O56026   3.956  10.109   1.823  0.1743  0.6333  0.0525
  425MOL0     C56027   4.017  10.095   1.949  0.2799 -0.6780 -0.4042
  425MOL0     C56028   4.097  10.219   1.993  0.3349 -0.2529 -0.8517
  425MOL0     C56029   4.219  10.257   1.900  0.8159 -0.0355 -0.2309
  425MOL0     C56030   4.331  10.146   1.889 -0.3096 -0.2979  0.0710
  425MOL0     C56031   4.463  10.203   1.863 -0.4754  0.5815 -0.0441
  425MOL0     C56032   4.569  10.255   1.826 -0.2305  0.3192  0.4023
  425MOL0     C56033   3.819  10.015   1.648 -0.3612 -0.2383 -0.2353
  425MOL0     C56034   3.732   9.922   1.597 -0.8382 -0.0174 -1.1437
  425MOL0     H56035   3.268   9.690   1.596  1.5077  1.6423 -0.4747
  425MOL0     H56036   3.108   9.531   1.491 -1.0378 -2.6148  0.4751
  425MOL0     H56037   3.053   9.374   1.297  2.8234  0.0159  0.0015
  425MOL0     H56038   2.969   9.357   1.456 -1.6663 -1.7841 -1.2334
  425MOL0     H56039   2.838   9.201   1.324 -0.3367 -0.8634  2.5013
  425MOL0     H56040   2.955   9.103   1.398  0.2913  0.0708  0.6905
  425MOL0     H56041   3.114   9.115   1.207  0.1324  0.8837 -2.7040
  425MOL0     H56042   2.991   9.217   1.121  1.9082  2.2297  0.6954
  425MOL0     H56043   2.934   8.946   1.254 -0.8507  3.5995  1.0782
  425MOL0     H56044   2.829   9.029   1.138 -0.2012 -2.9647  0.6563
  425MOL0     H56045   2.918   8.841   1.012 -1.2473  1.0245 -1.5306
  425MOL0     H56046   3.083   8.869   1.072 -0.2007  0.2269 -0.8716
  425MOL0     H56047   3.081   9.083   0.962 -1.2954 -1.7794  4.0058
  425MOL0     H56048   2.937   9.045   0.861 -0.7900  1.1667  0.6534
  425MOL0     H56049   3.193   8.863   0.866 -1.7920 -4.5558 -3.0718
  425MOL0     H56050   3.065   8.855   0.758  0.6908  0.4954 -1.4023
  425MOL0     H56051   3.256   9.082   0.800 -0.7639  0.6014  0.3942
  425MOL0     H56052   3.142   9.106   0.677 -0.2811 -0.0205  1.8396
  425MOL0     H56053   3.327   8.762   0.716  0.4409  1.4804  1.8103
  425MOL0     H56054   3.552   8.690   0.638 -1.9718 -1.3857  0.2109
  425MOL0     H56055   3.630   8.771   0.500  0.3202 -2.0188  1.1735
  425MOL0     H56056   3.443   8.660   0.356  1.1039 -0.5024 -1.0124
  425MOL0     H56057   3.408   8.552   0.482 -0.8570  0.2160 -1.5503
  425MOL0     H56058   3.672   8.506   0.455 -1.1288 -2.9939 -0.7243
  425MOL0     H56059   3.555   8.436   0.335  0.4127 -0.2340  0.6931
  425MOL0     H56060   3.612   8.639   0.188  0.2099 -1.2526 -1.7964
  425MOL0     H56061   3.736   8.521   0.199  1.1202  0.5676 -0.7164
  425MOL0     H56062   3.896   8.600   0.485 -0.1699 -2.0577 -0.3009
  425MOL0     H56063   4.146   8.507   0.468 -0.3259  1.3575  1.4851
  425MOL0     H56064   4.462   8.269   0.221 -0.0053 -0.4445  1.4237
  425MOL0     H56065   4.699   8.184   0.258  0.5055  0.7042  0.7757
  425MOL0     H56066   4.913   8.409   0.560 -0.5973 -2.3934  0.8603
  425MOL0     H56067   5.000   8.462   0.422 -3.3756  0.8757 -0.8810
  425MOL0     H56068   5.070   8.182   0.478 -1.3193  0.1209 -0.2966
  425MOL0     H56069   5.110   8.290   0.622 -1.6341 -0.1283  0.4830
  425MOL0     H56070   5.227   8.437   0.460  0.8592  0.4287 -0.4909
  425MOL0     H56071   5.172   8.330   0.332  1.9899  1.7236 -1.4297
  425MOL0     H56072   5.358   8.241   0.556  0.2572  2.1750  1.2006
  425MOL0     H56073   5.329   8.145   0.410  0.8549  0.5082 -0.3353
  425MOL0     H56074   5.425   8.429   0.414  1.7645  0.7465 -1.7945
  425MOL0     H56075   5.423   8.325   0.280  0.7433  2.8724 -0.4315
  425MOL0     H56076   5.572   8.241   0.538 -1.5992  0.6292 -0.4728
  425MOL0     H56077   5.652   8.362   0.420 -2.5823  1.7995 -3.2279
  425MOL0     H56078   5.577   8.073   0.373  1.1731 -0.6414 -0.0472
  425MOL0     H56079   5.624   8.178   0.243  0.6936 -3.8469 -1.0804
  425MOL0     H56080   5.806   8.028   0.360 -3.5309 -3.5440  3.7798
  425MOL0     H56081   5.793   8.123   0.501  0.3774 -3.0861 -0.4305
  425MOL0     H56082   4.774   8.547   0.479  0.6634 -0.6863 -1.5805
  425MOL0     H56083   4.538   8.576   0.500  1.8390 -0.5029  0.9654
  425MOL0     H56084   4.146   8.657   0.067 -1.4860 -1.0045 -0.1130
  425MOL0     H56085   3.912   8.715   0.076  1.9619 -2.3609 -2.8911
  425MOL0     H56086   3.389   9.225   1.476  3.2499 -0.6478  1.0477
  425MOL0     H56087   3.566   9.374   1.562  0.9380  2.4953  0.5903
  425MOL0     H56088   3.655   9.750   1.873  1.5124 -2.3305 -1.0112
  425MOL0     H56089   3.812   9.904   1.972  2.0591 -0.0349 -0.0154
  425MOL0     H56090   4.091  10.015   1.940  0.7243 -0.1574 -1.7502
  425MOL0     H56091   3.951  10.072   2.033  0.2327  1.4737  0.2195
  425MOL0     H56092   4.026  10.302   1.989  0.1855 -0.4077 -1.7887
  425MOL0     H56093   4.133  10.202   2.094 -0.9434 -2.2830 -0.6664
  425MOL0     H56094   4.278  10.336   1.946 -0.6724  1.2933 -0.5067
  425MOL0     H56095   4.190  10.278   1.796  0.5371 -0.6297 -0.2805
  425MOL0     H56096   4.340  10.094   1.984  0.1113 -0.9692 -0.3321
  425MOL0     H56097   4.294  10.073   1.817 -2.8045 -1.0005  1.9439
  425MOL0     H56098   4.666  10.296   1.806 -0.1716  1.2137  2.3187
  425MOL0     H56099   3.867  10.081   1.577  1.6463 -0.1566  1.1238
  425MOL0     H56100   3.702   9.930   1.493  0.2073  4.3099 -1.3042
  426MOL0     O56101   5.179   4.470   4.586  1.3928 -0.1268 -0.3388
  426MOL0     C56102   5.201   4.488   4.468 -0.8710  0.3299  0.3918
  426MOL0     O56103   5.167   4.403   4.367 -1.2799 -0.5104 -0.1679
  426MOL0     C56104   5.083   4.303   4.404  0.1168 -0.4205 -0.1011
  426MOL0     C56105   4.950   4.326   4.395 -0.1057 -0.1611 -0.0891
  426MOL0     C56106   4.854   4.225   4.407 -0.0692  0.3712  0.8131
  426MOL0     C56107   4.901   4.091   4.425  0.6442 -0.6453 -0.1442
  426MOL0     O56108   4.804   3.994   4.434 -0.3824 -0.3860 -0.3038
  426MOL0     C56109   4.806   3.895   4.322  0.0396 -0.2298  0.6942
  426MOL0     C56110   4.716   3.772   4.358  0.7445  0.2714 -0.0137
  426MOL0     C56111   4.566   3.809   4.380  0.5171  0.0988 -0.2168
  426MOL0     C56112   4.494   3.684   4.419 -0.3002  0.4330 -0.3865
  426MOL0     C56113   4.344   3.718   4.448 -0.2762 -0.5041  0.9135
  426MOL0     C56114   4.256   3.683   4.322 -0.0573 -0.2192 -0.0519
  426MOL0     C56115   4.101   3.697   4.345  0.0437 -0.9825  0.6439
  426MOL0     C56116   4.028   3.593   4.429  0.1154 -0.2483  0.0357
  426MOL0     N56117   3.909   3.648   4.495  0.0639  0.3172  0.5544
  426MOL0     C56118   3.917   3.743   4.591 -0.0749 -0.0401  0.3094
  426MOL0     C56119   3.789   3.765   4.625 -0.6133 -0.7217 -0.4999
  426MOL0     C56120   3.739   3.855   4.738 -0.5054  0.6479 -0.2191
  426MOL0     C56121   3.644   3.966   4.700 -0.0878 -1.0562  0.4876
  426MOL0     C56122   3.695   4.066   4.583 -0.0593 -0.2187  0.1075
  426MOL0     C56123   3.841   4.098   4.578  0.2057  0.8208 -0.1914
  426MOL0     O56124   3.902   4.144   4.703  1.3959 -0.3563  0.2226
  426MOL0     C56125   3.987   4.253   4.706  0.2305 -0.3846  0.0237
  426MOL0     C56126   4.079   4.282   4.601 -0.5459 -0.6409 -0.2906
  426MOL0     C56127   4.168   4.397   4.607  0.2694  0.2103  0.2467
  426MOL0     C56128   4.160   4.481   4.720 -0.2234 -0.4735  0.8054
  426MOL0     C56129   4.250   4.596   4.733  0.3099  1.0452 -1.1287
  426MOL0     O56130   4.257   4.642   4.861 -0.3787  0.4261 -0.3259
  426MOL0     C56131   4.352   4.736   4.875 -0.0279  0.6455 -0.8638
  426MOL0     C56132   4.472   4.695   4.922 -0.6822  0.8523  0.7016
  426MOL0     C56133   4.585   4.784   4.944  0.7278  0.6465 -0.1306
  426MOL0     C56134   4.555   4.923   4.938 -0.1096 -0.1495 -0.7577
  426MOL0     O56135   4.635   5.028   4.968  0.2440  0.2365  0.0931
  426MOL0     C56136   4.762   5.002   5.022  0.4065  0.5663 -0.0828
  426MOL0     C56137   4.838   5.124   5.066  1.2057  0.3627 -0.2545
  426MOL0     C56138   4.752   5.232   5.152 -0.3032 -0.2459  0.7454
  426MOL0     C56139   4.824   5.360   5.175 -0.2413 -0.4433 -0.5641
  426MOL0     C56140   4.938   5.346   5.277  0.0751 -0.7744  0.6191
  426MOL0     C56141   5.015   5.478   5.286 -0.7590  0.1466 -0.3737
  426MOL0     C56142   5.163   5.456   5.340  0.6343  0.4363 -0.4601
  426MOL0     C56143   5.263   5.550   5.285  0.4657  0.0653 -0.2365
  426MOL0    Cl56144   5.218   5.717   5.314 -0.1121 -0.5292  0.0592
  426MOL0     C56145   4.422   4.964   4.888  0.1949  0.0649 -1.6875
  426MOL0     C56146   4.321   4.871   4.872  0.8175 -0.4380 -0.1999
  426MOL0     O56147   4.313   4.632   4.639 -0.2635  0.0421  0.4558
  426MOL0     C56148   4.065   4.460   4.823  0.2907  0.6476 -0.4165
  426MOL0     C56149   3.974   4.354   4.813  0.1378  0.2703 -0.5667
  426MOL0     N56150   3.703   3.701   4.533  0.3072 -0.3094  0.4691
  426MOL0     N56151   3.775   3.623   4.461 -0.6008  0.2723 -0.3382
  426MOL0     C56152   5.033   4.061   4.410 -0.0251 -0.2250 -0.6352
  426MOL0     C56153   5.126   4.167   4.410 -0.0052  0.4499 -0.1952
  426MOL0     C56154   5.281   4.606   4.429  0.6107 -0.2164 -0.0525
  426MOL0     C56155   5.353   4.623   4.307 -0.0122 -0.8745  0.1886
  426MOL0     C56156   5.440   4.731   4.279  0.7084 -0.5966  1.0912
  426MOL0     C56157   5.462   4.833   4.378  0.1387 -0.2393 -0.6134
  426MOL0     O56158   5.544   4.936   4.354 -0.9595 -0.1685  0.0777
  426MOL0     C56159   5.477   5.065   4.348 -0.0014 -0.1286 -0.0523
  426MOL0     C56160   5.492   5.147   4.476  0.1927 -0.1285 -0.0328
  426MOL0     C56161   5.630   5.152   4.530 -0.4188 -0.1234  0.2530
  426MOL0     C56162   5.741   5.214   4.430  0.1523 -0.5487 -0.3753
  426MOL0     C56163   5.692   5.348   4.375  0.2577 -0.6101 -0.1187
  426MOL0     C56164   5.649   5.453   4.331  0.4370  0.2662  0.7413
  426MOL0     C56165   5.401   4.811   4.501 -0.3986  0.2514  0.1642
  426MOL0     C56166   5.313   4.702   4.524  0.1916 -0.6085  0.7607
  426MOL0     H56167   4.927   4.432   4.393  3.3826  0.7352 -2.0391
  426MOL0     H56168   4.747   4.243   4.401 -0.6660 -2.8928 -1.4501
  426MOL0     H56169   4.908   3.858   4.304  1.1002  1.9092  1.8789
  426MOL0     H56170   4.772   3.950   4.234  2.0032  1.3701  0.8542
  426MOL0     H56171   4.760   3.723   4.446  0.9337 -0.6207 -0.5952
  426MOL0     H56172   4.714   3.705   4.272 -0.8807 -0.1285  0.3056
  426MOL0     H56173   4.524   3.851   4.288  1.1311  0.9463 -0.1175
  426MOL0     H56174   4.553   3.888   4.454  1.0354 -2.1812  2.4711
  426MOL0     H56175   4.504   3.616   4.335  1.4561  2.1960 -1.6973
  426MOL0     H56176   4.533   3.646   4.514  1.8109  2.6703 -0.2702
  426MOL0     H56177   4.332   3.826   4.463  0.9808  0.1273 -1.8904
  426MOL0     H56178   4.324   3.671   4.544  2.7558 -3.0240  0.4674
  426MOL0     H56179   4.275   3.577   4.303  0.5216 -0.2403  0.5696
  426MOL0     H56180   4.281   3.747   4.237 -2.2266 -0.0748 -0.6433
  426MOL0     H56181   4.089   3.792   4.399  0.3220 -0.4751 -0.1593
  426MOL0     H56182   4.046   3.702   4.251  1.3876 -0.0166 -0.1174
  426MOL0     H56183   4.095   3.550   4.503 -1.2630 -2.0738  0.2917
  426MOL0     H56184   3.997   3.513   4.362 -1.0613  1.0258 -0.9870
  426MOL0     H56185   4.006   3.782   4.640 -0.6676  2.6752 -0.5765
  426MOL0     H56186   3.825   3.900   4.788 -1.1450  0.2982  1.2619
  426MOL0     H56187   3.681   3.793   4.807  0.6196 -1.2846 -0.9242
  426MOL0     H56188   3.626   4.029   4.788  1.0737  1.0305 -0.6854
  426MOL0     H56189   3.552   3.920   4.663 -0.6772  0.0904  0.4774
  426MOL0     H56190   3.678   4.014   4.489 -1.2378  1.5048 -0.6793
  426MOL0     H56191   3.640   4.160   4.577  0.6293  0.0849 -3.0521
  426MOL0     H56192   3.866   4.174   4.503  0.4407  1.6462  0.7065
  426MOL0     H56193   3.883   4.003   4.544 -1.6729  0.7007 -2.4407
  426MOL0     H56194   4.079   4.221   4.512 -1.5605  0.0615 -0.7996
  426MOL0     H56195   4.248   4.397   4.534  1.5347 -0.6692  1.5640
  426MOL0     H56196   4.480   4.588   4.938 -2.4874  0.6589  0.5436
  426MOL0     H56197   4.683   4.750   4.976  0.7256 -2.9651 -3.2984
  426MOL0     H56198   4.817   4.932   4.959 -0.9295 -0.5335 -0.0851
  426MOL0     H56199   4.744   4.947   5.114  2.3776 -3.3181 -1.7984
  426MOL0     H56200   4.869   5.184   4.980  0.7060  1.5483  0.3692
  426MOL0     H56201   4.932   5.096   5.116  0.9171 -3.1328 -1.3854
  426MOL0     H56202   4.732   5.187   5.250  1.8701  0.7573  1.7134
  426MOL0     H56203   4.658   5.260   5.103  0.1308 -0.6724 -0.3771
  426MOL0     H56204   4.862   5.394   5.078 -3.8667  2.2342 -1.2791
  426MOL0     H56205   4.755   5.439   5.208 -2.8670 -1.0388 -4.0098
  426MOL0     H56206   5.007   5.271   5.238  1.7676  1.1093 -0.2084
  426MOL0     H56207   4.898   5.307   5.371  0.3587 -2.0561  0.2161
  426MOL0     H56208   4.953   5.552   5.337  1.0180  2.1995 -1.0525
  426MOL0     H56209   5.028   5.535   5.194 -0.5599  1.2617  0.3258
  426MOL0     H56210   5.157   5.461   5.449  0.5830  3.1423 -0.5079
  426MOL0     H56211   5.197   5.356   5.315  0.8349 -1.6623  6.1964
  426MOL0     H56212   5.273   5.535   5.177  0.3400  2.6170 -0.6580
  426MOL0     H56213   5.359   5.540   5.337 -0.0396  0.1274  0.7263
  426MOL0     H56214   4.380   5.065   4.885 -2.2379 -0.8197 -0.5397
  426MOL0     H56215   4.222   4.894   4.834  1.4021 -0.1572 -1.6007
  426MOL0     H56216   4.048   4.524   4.909 -1.6161 -2.0550  1.3757
  426MOL0     H56217   3.897   4.338   4.887  0.0495  0.3858 -0.6341
  426MOL0     H56218   5.084   3.966   4.400  2.4582  1.1791 -2.3306
  426MOL0     H56219   5.234   4.153   4.411 -0.1531 -0.9705 -1.2098
  426MOL0     H56220   5.341   4.547   4.230  0.4990 -0.7624 -0.0062
  426MOL0     H56221   5.497   4.741   4.187  1.3541  0.6009  1.5987
  426MOL0     H56222   5.371   5.046   4.328  0.2475 -0.0505 -1.5710
  426MOL0     H56223   5.515   5.115   4.258  2.3213 -0.8742  0.4386
  426MOL0     H56224   5.442   5.244   4.469 -1.2977 -0.3905  4.1397
  426MOL0     H56225   5.414   5.111   4.544 -0.6515 -0.8447 -1.3429
  426MOL0     H56226   5.655   5.053   4.570  1.6685  0.8480  1.4715
  426MOL0     H56227   5.632   5.202   4.627 -1.9949  0.8548 -0.1913
  426MOL0     H56228   5.830   5.235   4.490 -0.1839 -0.3382  0.0640
  426MOL0     H56229   5.765   5.142   4.352 -1.6908  2.4780 -4.0940
  426MOL0     H56230   5.625   5.542   4.276  2.0064 -1.6385 -3.3803
  426MOL0     H56231   5.433   4.871   4.586  0.3186 -0.2897  0.2904
  426MOL0     H56232   5.267   4.697   4.622 -0.7111  0.2789  0.4008
  427MOL0     O56233   5.212   3.489   4.402  0.0708  0.6787 -0.4846
  427MOL0     C56234   5.179   3.404   4.314  0.0935  0.7991  0.2668
  427MOL0     O56235   5.268   3.311   4.246  0.0860  0.1243  0.3789
  427MOL0     C56236   5.405   3.334   4.264  0.3068  0.2876 -0.4107
  427MOL0     C56237   5.465   3.289   4.375  0.4576  0.1432  0.3896
  427MOL0     C56238   5.601   3.302   4.394  0.0437 -0.4450 -0.1458
  427MOL0     C56239   5.676   3.362   4.295 -0.5858  1.1702 -0.4634
  427MOL0     O56240   5.812   3.367   4.318 -0.2875 -0.2452  0.7136
  427MOL0     C56241   5.881   3.477   4.268 -0.1531 -0.0077 -0.2764
  427MOL0     C56242   5.998   3.505   4.363  0.0042 -0.2471  0.1104
  427MOL0     C56243   6.090   3.373   4.351 -0.5595  0.0371  0.6522
  427MOL0     C56244   6.210   3.397   4.449 -0.4578  0.1766  0.1249
  427MOL0     C56245   6.322   3.299   4.445  0.0288  0.1740 -0.6243
  427MOL0     C56246   6.439   3.368   4.521 -0.6844 -0.0055 -0.4949
  427MOL0     C56247   6.551   3.272   4.553 -0.2304 -0.3766 -0.1680
  427MOL0     C56248   6.611   3.311   4.690 -0.3355 -0.7541  0.4476
  427MOL0     N56249   6.724   3.227   4.724 -0.9831 -0.6382  0.0181
  427MOL0     C56250   6.845   3.223   4.653 -0.0704  0.6220  0.9756
  427MOL0     C56251   6.903   3.108   4.698 -0.5905 -0.4747 -0.1151
  427MOL0     C56252   7.022   3.041   4.640 -0.6386 -1.4832  0.8473
  427MOL0     C56253   7.151   3.079   4.708  0.0400  0.2355  1.4095
  427MOL0     C56254   7.185   3.228   4.703 -0.4596 -0.0733  0.2202
  427MOL0     C56255   7.332   3.248   4.743 -0.7493  0.5645 -0.0312
  427MOL0     O56256   7.416   3.173   4.657 -0.1308 -0.2006 -0.5425
  427MOL0     C56257   7.540   3.156   4.704  0.3246  0.5616 -0.2906
  427MOL0     C56258   7.615   3.256   4.761  0.2155 -0.0764 -0.3612
  427MOL0     C56259   7.740   3.230   4.817  0.0868  0.3962 -0.9022
  427MOL0     C56260   7.794   3.094   4.801 -0.4535  0.4644  0.0128
  427MOL0     C56261   7.926   3.060   4.869  0.3546 -0.2441 -0.7737
  427MOL0     O56262   8.001   3.172   4.907  0.0897 -0.4122  0.0454
  427MOL0     C56263   8.135   3.147   4.885 -0.1534  0.6938 -0.1657
  427MOL0     C56264   8.213   3.100   4.987 -0.2407 -0.6990 -0.8851
  427MOL0     C56265   8.361   3.101   4.980  0.1450  0.0459  1.0607
  427MOL0     C56266   8.433   3.150   4.877  0.2744 -1.0749  0.0238
  427MOL0     O56267   8.572   3.145   4.868 -0.7976  0.3667  0.1279
  427MOL0     C56268   8.637   3.190   4.750  0.1568 -0.0494 -1.1092
  427MOL0     C56269   8.779   3.157   4.770 -0.0080  0.0716 -0.0793
  427MOL0     C56270   8.851   3.241   4.880  0.6161 -0.6863 -0.6128
  427MOL0     C56271   8.986   3.195   4.909  0.4269 -0.1476 -0.6359
  427MOL0     C56272   8.997   3.062   4.987 -0.2925  0.0376 -0.8025
  427MOL0     C56273   9.134   3.026   5.043  0.8358 -0.7466  0.4518
  427MOL0     C56274   9.238   2.998   4.935  0.5180 -0.0068 -0.6146
  427MOL0     C56275   9.382   2.992   4.982  0.3288  0.3163 -0.2609
  427MOL0    Cl56276   9.386   2.876   5.114 -0.1932  0.2482 -0.2188
  427MOL0     C56277   8.344   3.207   4.772 -0.4760  0.0680  0.6614
  427MOL0     C56278   8.200   3.204   4.781  0.5686  0.5019 -0.3036
  427MOL0     O56279   7.964   2.947   4.870  1.1267 -0.5743  0.8633
  427MOL0     C56280   7.716   2.996   4.733 -0.7496  0.2364 -0.8117
  427MOL0     C56281   7.594   3.024   4.681 -0.5855 -0.2361  0.6542
  427MOL0     N56282   6.826   3.049   4.794  0.0980  0.1340 -0.3448
  427MOL0     N56283   6.730   3.129   4.816 -0.1051  0.2858 -0.3722
  427MOL0     C56284   5.611   3.406   4.184  0.4706 -0.5007  0.3076
  427MOL0     C56285   5.474   3.378   4.158 -1.2424 -0.6800 -0.2018
  427MOL0     C56286   5.040   3.369   4.304  0.5582 -0.6332 -0.1178
  427MOL0     C56287   5.003   3.262   4.219 -0.3243  0.5192  0.8444
  427MOL0     C56288   4.867   3.224   4.203 -0.1612 -0.4015  0.3329
  427MOL0     C56289   4.773   3.293   4.278 -0.2081  0.2714  0.4954
  427MOL0     O56290   4.632   3.265   4.273 -1.2174  0.3392  0.6741
  427MOL0     C56291   4.590   3.148   4.194  0.1370  0.0377  0.1611
  427MOL0     C56292   4.443   3.114   4.235 -0.8496  0.6693 -0.2711
  427MOL0     C56293   4.399   2.980   4.191  0.0958 -0.4781  0.0787
  427MOL0     C56294   4.247   2.935   4.184 -0.4647  0.1667 -0.4801
  427MOL0     C56295   4.165   3.004   4.079 -0.0576  0.1906 -0.5354
  427MOL0     C56296   4.099   3.071   4.009 -0.1680  0.6139  0.1137
  427MOL0     C56297   4.814   3.405   4.351 -0.5142 -0.6163 -0.2269
  427MOL0     C56298   4.944   3.440   4.377 -0.2395  0.3644  0.4745
  427MOL0     H56299   5.410   3.238   4.453  0.8255  0.0621  0.6001
  427MOL0     H56300   5.639   3.254   4.484 -2.0613  0.3414  1.2386
  427MOL0     H56301   5.828   3.573   4.274  0.2504  0.2112 -0.1751
  427MOL0     H56302   5.920   3.461   4.167 -2.4192 -2.4417 -0.8790
  427MOL0     H56303   5.964   3.516   4.466 -0.4415  1.5796 -0.1994
  427MOL0     H56304   6.051   3.596   4.333 -3.5989  1.4673 -1.6413
  427MOL0     H56305   6.124   3.358   4.248 -0.6494 -0.1411  0.6473
  427MOL0     H56306   6.039   3.281   4.381 -0.0298 -1.2563 -2.1041
  427MOL0     H56307   6.249   3.492   4.413 -1.7261 -0.5738 -3.7519
  427MOL0     H56308   6.177   3.414   4.552  0.4277  1.4219  0.2174
  427MOL0     H56309   6.346   3.254   4.348 -2.9056 -0.3037 -1.2361
  427MOL0     H56310   6.285   3.213   4.501  0.7624 -1.4663 -2.5210
  427MOL0     H56311   6.408   3.408   4.618  2.6114  0.8390  0.3292
  427MOL0     H56312   6.483   3.448   4.462  0.3944  1.2549  1.8761
  427MOL0     H56313   6.511   3.170   4.555 -0.4070 -0.3202 -0.6818
  427MOL0     H56314   6.629   3.275   4.477 -0.1376 -1.5024 -0.1243
  427MOL0     H56315   6.529   3.294   4.761 -1.1506 -1.0480 -0.5348
  427MOL0     H56316   6.632   3.418   4.697  0.6884 -1.0327  2.0689
  427MOL0     H56317   6.894   3.282   4.576  1.9073 -1.7329  0.2967
  427MOL0     H56318   7.026   3.075   4.536  2.3983 -0.8609  1.0700
  427MOL0     H56319   6.997   2.935   4.648 -0.0758 -1.5278  2.3094
  427MOL0     H56320   7.228   3.024   4.653 -2.1773 -0.4935 -1.1561
  427MOL0     H56321   7.139   3.038   4.809  0.1509 -5.0637 -0.4155
  427MOL0     H56322   7.163   3.279   4.609  3.2339  0.0397 -0.7447
  427MOL0     H56323   7.127   3.279   4.780  0.7254  0.0266  1.0649
  427MOL0     H56324   7.358   3.209   4.841  1.3682  1.3815 -0.2132
  427MOL0     H56325   7.352   3.355   4.750 -3.7313  1.3826 -1.7856
  427MOL0     H56326   7.582   3.359   4.766  0.8903  0.1354 -0.1773
  427MOL0     H56327   7.798   3.309   4.863 -0.7200  0.6355 -0.2774
  427MOL0     H56328   8.167   3.050   5.071 -2.4034  1.4813 -0.6504
  427MOL0     H56329   8.419   3.067   5.065 -2.7962 -3.4043  1.9613
  427MOL0     H56330   8.630   3.299   4.745 -2.6628 -0.0727  0.1293
  427MOL0     H56331   8.601   3.145   4.657  1.4420 -1.4434 -0.9681
  427MOL0     H56332   8.823   3.158   4.670  0.1146 -0.0567 -0.0278
  427MOL0     H56333   8.799   3.054   4.799  0.4526 -1.2077 -4.2282
  427MOL0     H56334   8.789   3.241   4.970 -0.3857  0.3179 -1.2777
  427MOL0     H56335   8.854   3.345   4.846 -1.0433  0.1308  1.5286
  427MOL0     H56336   9.061   3.182   4.830  0.8542 -0.4820 -0.1789
  427MOL0     H56337   9.034   3.273   4.967  0.8651 -0.0220 -1.1523
  427MOL0     H56338   8.976   2.981   4.917  1.7111 -1.5671  0.3486
  427MOL0     H56339   8.917   3.050   5.060 -0.6014 -0.7206 -1.2568
  427MOL0     H56340   9.112   2.930   5.090 -3.3002  1.0531  2.6486
  427MOL0     H56341   9.174   3.102   5.111 -2.9932  0.8999  1.1114
  427MOL0     H56342   9.194   2.909   4.889 -1.3209 -1.3818  3.3846
  427MOL0     H56343   9.226   3.067   4.850 -0.7016 -1.9062 -2.0613
  427MOL0     H56344   9.420   3.090   5.011  1.0717 -0.3964  1.2826
  427MOL0     H56345   9.443   2.964   4.895 -2.6261  1.0657 -2.7453
  427MOL0     H56346   8.388   3.265   4.692 -3.1764 -0.2496 -1.1839
  427MOL0     H56347   8.150   3.257   4.701  0.9662 -0.1825 -1.0218
  427MOL0     H56348   7.762   2.897   4.730  1.2746  1.0225  1.2306
  427MOL0     H56349   7.546   2.950   4.618 -1.2450  0.3254  0.4800
  427MOL0     H56350   5.678   3.446   4.108  0.8058  1.7923  1.7459
  427MOL0     H56351   5.423   3.398   4.064 -2.0381 -0.4572  0.2681
  427MOL0     H56352   5.077   3.217   4.155 -0.5279  0.6720  0.5010
  427MOL0     H56353   4.848   3.137   4.141 -0.2991  0.6985 -1.2456
  427MOL0     H56354   4.653   3.058   4.193  0.2366  0.0809 -1.8893
  427MOL0     H56355   4.586   3.186   4.092  3.2587  0.9156  0.2741
  427MOL0     H56356   4.449   3.122   4.344 -2.4459 -1.3926  0.0466
  427MOL0     H56357   4.382   3.198   4.201 -1.5650  1.6596  3.0587
  427MOL0     H56358   4.447   2.908   4.259 -0.8184  0.8519  2.2327
  427MOL0     H56359   4.439   2.971   4.089 -0.9314  0.1511 -0.3965
  427MOL0     H56360   4.247   2.828   4.161  1.0668  0.0195  0.1273
  427MOL0     H56361   4.200   2.957   4.281 -0.3861  0.0629 -0.4182
  427MOL0     H56362   4.038   3.129   3.943  0.7150  1.3224 -0.0993
  427MOL0     H56363   4.741   3.446   4.421  1.7564  2.3194  0.6512
  427MOL0     H56364   4.970   3.523   4.442  0.9467  0.2416  0.1619
  428MOL0     O56365   6.971   0.091   1.929  0.4315  0.8465  0.2601
  428MOL0     C56366   7.093   0.115   1.932 -0.6807  0.1902  0.3876
  428MOL0     O56367   7.156   0.225   1.982  0.0333  0.4802 -0.0736
  428MOL0     C56368   7.078   0.304   2.066  0.2833  0.3449 -0.0913
  428MOL0     C56369   7.097   0.295   2.206  0.0872  0.3002 -0.7258
  428MOL0     C56370   7.016   0.358   2.301 -0.1337 -0.5356  0.2622
  428MOL0     C56371   6.919   0.445   2.244  0.1511 -0.0886 -0.9989
  428MOL0     O56372   6.847   0.525   2.322 -0.6444 -0.4664  0.0385
  428MOL0     C56373   6.720   0.470   2.346  0.5938 -0.2800  0.2604
  428MOL0     C56374   6.670   0.550   2.460  0.5023  0.7717 -0.3596
  428MOL0     C56375   6.565   0.466   2.536  0.3232 -0.3803  0.8319
  428MOL0     C56376   6.626   0.363   2.625 -0.5260  0.5588  0.5170
  428MOL0     C56377   6.529   0.303   2.729 -0.3173 -0.0108  0.3658
  428MOL0     C56378   6.483   0.399   2.840 -0.2970  0.3529 -0.7219
  428MOL0     C56379   6.597   0.456   2.929  0.0793  0.3949  0.2261
  428MOL0     C56380   6.538   0.533   3.048 -0.5454 -0.1826 -0.2065
  428MOL0     N56381   6.641   0.513   3.158  0.0994  0.2955 -0.6666
  428MOL0     C56382   6.749   0.591   3.171  0.6870 -0.1493  1.0615
  428MOL0     C56383   6.811   0.553   3.282  0.7854 -0.3416 -0.5496
  428MOL0     C56384   6.945   0.621   3.324  0.9371  0.1429 -0.7795
  428MOL0     C56385   7.008   0.555   3.455  0.2965  0.6643  0.3027
  428MOL0     C56386   7.133   0.636   3.488  0.0463 -0.4544  0.0609
  428MOL0     C56387   7.204   0.561   3.592  0.5196  0.3525 -0.7073
  428MOL0     O56388   7.300   0.473   3.540 -0.3232  0.7669 -0.4244
  428MOL0     C56389   7.413   0.514   3.472 -1.1517  1.1432  0.5803
  428MOL0     C56390   7.498   0.422   3.412 -0.3391  0.2827 -0.4697
  428MOL0     C56391   7.613   0.461   3.347 -0.7098 -0.2783 -0.2653
  428MOL0     C56392   7.643   0.595   3.331 -0.6872 -0.1087  0.5199
  428MOL0     C56393   7.773   0.638   3.278 -0.3649  0.2263 -0.7383
  428MOL0     O56394   7.830   0.759   3.325 -0.4680 -0.1784 -0.2214
  428MOL0     C56395   7.961   0.792   3.295  0.2322 -0.0851  0.0577
  428MOL0     C56396   8.047   0.833   3.397  0.7405 -0.0248  0.0039
  428MOL0     C56397   8.174   0.864   3.377  0.8626  0.0479 -0.7467
  428MOL0     C56398   8.227   0.862   3.252 -0.3082  0.0736  0.0576
  428MOL0     O56399   8.358   0.901   3.231 -0.3551  0.3731 -0.0664
  428MOL0     C56400   8.431   0.969   3.330 -0.4298  0.6784  0.5511
  428MOL0     C56401   8.575   0.976   3.292  0.0261 -0.2593  0.5598
  428MOL0     C56402   8.674   0.970   3.411 -0.9494 -0.2437 -0.1858
  428MOL0     C56403   8.828   0.977   3.383 -0.6738  0.5909  0.4833
  428MOL0     C56404   8.915   0.959   3.511  0.0519 -0.2993  0.3372
  428MOL0     C56405   9.060   0.971   3.466 -0.1303  0.6362 -0.7832
  428MOL0     C56406   9.105   1.120   3.441  0.2679  0.8053 -0.4015
  428MOL0     C56407   9.259   1.143   3.466 -0.0710 -0.0601  0.5494
  428MOL0    Cl56408   9.367   1.068   3.344  0.1160 -0.0270  0.1270
  428MOL0     C56409   8.155   0.806   3.151  0.1277  0.4242 -0.1213
  428MOL0     C56410   8.020   0.774   3.166  0.5124 -0.2335 -0.7856
  428MOL0     O56411   7.824   0.562   3.201 -0.1487 -0.1206  0.0072
  428MOL0     C56412   7.557   0.690   3.384  0.1565  0.9674  0.1901
  428MOL0     C56413   7.447   0.645   3.459  0.1069 -0.0003  0.2213
  428MOL0     N56414   6.749   0.434   3.325  0.4143 -0.4842 -0.3685
  428MOL0     N56415   6.639   0.419   3.263 -0.3976 -0.4874  0.4923
  428MOL0     C56416   6.902   0.451   2.102 -0.2765  0.3326  0.3555
  428MOL0     C56417   6.982   0.378   2.015  0.4577 -1.0884  0.0605
  428MOL0     C56418   7.189   0.017   1.873 -0.0281  0.3905  0.3390
  428MOL0     C56419   7.327   0.030   1.867  0.7057 -0.0041 -0.0393
  428MOL0     C56420   7.406  -0.064   1.799  0.7302  0.0176 -0.1550
  428MOL0     C56421   7.342  -0.177   1.730  0.1049 -1.4100 -0.3994
  428MOL0     O56422   7.429  -0.262   1.675  0.0391 -0.3316  0.4312
  428MOL0     C56423   7.371  -0.378   1.613  0.0226 -0.9023  0.2017
  428MOL0     C56424   7.459  -0.434   1.500 -0.5266  0.3197  0.5073
  428MOL0     C56425   7.602  -0.489   1.538  0.3892 -0.2248 -0.2328
  428MOL0     C56426   7.666  -0.534   1.404  0.8339  0.1215 -0.1173
  428MOL0     C56427   7.596  -0.643   1.348  0.6905 -0.7568 -0.6478
  428MOL0     C56428   7.551  -0.743   1.294 -0.0177 -0.0519 -0.0173
  428MOL0     C56429   7.203  -0.198   1.750 -0.1261  0.1479 -0.5434
  428MOL0     C56430   7.136  -0.109   1.833  0.4262 -0.3855 -0.0280
  428MOL0     H56431   7.182   0.231   2.230 -0.6316 -1.0196 -1.5502
  428MOL0     H56432   7.046   0.373   2.404 -0.0207  0.1406  0.1362
  428MOL0     H56433   6.737   0.366   2.376 -1.8051 -0.8227 -0.0408
  428MOL0     H56434   6.658   0.484   2.257  2.3129  3.4979 -0.5315
  428MOL0     H56435   6.634   0.648   2.428 -0.6956  0.8982  1.2666
  428MOL0     H56436   6.747   0.583   2.532  0.6687 -0.6158  0.1397
  428MOL0     H56437   6.501   0.425   2.458 -1.2844  3.7436 -0.2971
  428MOL0     H56438   6.502   0.538   2.590  0.6652 -1.0540  2.1732
  428MOL0     H56439   6.644   0.277   2.559  0.0834  0.4193  0.8611
  428MOL0     H56440   6.715   0.411   2.666 -0.3819  2.2441 -1.5509
  428MOL0     H56441   6.583   0.223   2.780  1.5616  1.5937  1.0306
  428MOL0     H56442   6.436   0.272   2.680 -1.6185  1.7720  1.5396
  428MOL0     H56443   6.411   0.340   2.897 -1.6922  2.4422 -0.2371
  428MOL0     H56444   6.431   0.483   2.794 -5.0221 -2.6540 -1.5655
  428MOL0     H56445   6.641   0.361   2.961  1.0007 -0.3201 -2.8071
  428MOL0     H56446   6.676   0.513   2.880  0.8306 -0.5317  0.3236
  428MOL0     H56447   6.436   0.501   3.074 -1.4427  3.0272  0.7249
  428MOL0     H56448   6.534   0.640   3.022  0.5042 -0.3341 -1.0475
  428MOL0     H56449   6.791   0.674   3.116  0.9149  0.5245  2.2247
  428MOL0     H56450   6.934   0.729   3.333  4.0928  0.4209  1.4959
  428MOL0     H56451   7.023   0.601   3.249  0.1864 -0.9642 -1.2875
  428MOL0     H56452   7.035   0.452   3.430 -0.0540  0.6251  0.0720
  428MOL0     H56453   6.939   0.559   3.540 -2.1278 -2.0060 -1.3616
  428MOL0     H56454   7.191   0.654   3.397 -1.1302  1.0022 -0.4484
  428MOL0     H56455   7.109   0.738   3.521  2.6712  0.7902 -1.5446
  428MOL0     H56456   7.143   0.513   3.668  2.3261  1.2696  1.4242
  428MOL0     H56457   7.262   0.631   3.652 -1.9800  2.1313 -0.1724
  428MOL0     H56458   7.477   0.315   3.409 -0.6490  0.3125  0.4357
  428MOL0     H56459   7.677   0.380   3.313  0.6885  0.7753 -0.2209
  428MOL0     H56460   8.015   0.829   3.500  0.5493 -1.9870 -0.1025
  428MOL0     H56461   8.237   0.886   3.462 -0.9275  0.2049  0.5947
  428MOL0     H56462   8.426   0.913   3.424  0.8427 -1.1241 -0.3922
  428MOL0     H56463   8.382   1.065   3.349 -2.3329 -0.2230  0.4383
  428MOL0     H56464   8.582   1.070   3.237  0.0429  0.1891  1.3160
  428MOL0     H56465   8.596   0.887   3.232  0.4301 -1.1147  1.9137
  428MOL0     H56466   8.651   0.889   3.481 -1.0904  0.3137  0.4285
  428MOL0     H56467   8.664   1.061   3.470  1.2178  1.1364 -1.8034
  428MOL0     H56468   8.842   0.898   3.310 -2.1131  0.8973 -0.1662
  428MOL0     H56469   8.849   1.069   3.328 -0.3187  0.4162  0.3250
  428MOL0     H56470   8.899   0.856   3.546  2.1126  0.3090  3.4628
  428MOL0     H56471   8.883   1.031   3.586  2.4384  0.2543  0.9017
  428MOL0     H56472   9.074   0.922   3.369 -2.1865  0.4688 -1.0535
  428MOL0     H56473   9.128   0.931   3.541 -0.2438  1.5189 -0.1809
  428MOL0     H56474   9.062   1.149   3.345  1.6793 -1.0985 -1.6998
  428MOL0     H56475   9.056   1.185   3.514  1.2601  1.1382 -0.0151
  428MOL0     H56476   9.295   1.118   3.566  0.4124  0.4208  0.4978
  428MOL0     H56477   9.277   1.251   3.472  1.8659 -0.3892  1.6546
  428MOL0     H56478   8.209   0.790   3.058 -0.0691  1.7276 -0.4816
  428MOL0     H56479   7.971   0.728   3.080  0.9986 -2.2374 -0.0216
  428MOL0     H56480   7.582   0.794   3.363  4.4411  0.0766 -0.2168
  428MOL0     H56481   7.381   0.723   3.494 -1.6868 -0.6418 -1.5214
  428MOL0     H56482   6.827   0.518   2.062  0.8733  0.7058 -1.2694
  428MOL0     H56483   6.958   0.395   1.911  5.0847  0.3638 -1.0013
  428MOL0     H56484   7.384   0.119   1.893  0.9916 -0.0935 -0.3464
  428MOL0     H56485   7.513  -0.050   1.808  0.4855  2.2587 -0.0924
  428MOL0     H56486   7.285  -0.356   1.550  0.5443  0.0507 -0.1973
  428MOL0     H56487   7.349  -0.462   1.680 -0.9631 -2.8648 -2.3786
  428MOL0     H56488   7.398  -0.509   1.449 -1.7510  2.7576 -1.8906
  428MOL0     H56489   7.476  -0.355   1.426 -1.9703  0.7615  0.6214
  428MOL0     H56490   7.601  -0.568   1.614 -2.9922  0.0723  0.1925
  428MOL0     H56491   7.653  -0.404   1.586  0.2601  2.9276 -4.9724
  428MOL0     H56492   7.682  -0.456   1.329  2.4820 -0.3905 -0.3434
  428MOL0     H56493   7.770  -0.559   1.429  0.8476 -0.3513 -0.6425
  428MOL0     H56494   7.521  -0.838   1.255  1.8276 -0.1644 -1.2661
  428MOL0     H56495   7.158  -0.290   1.713 -3.0798  0.9462  0.7391
  428MOL0     H56496   7.032  -0.131   1.855  0.5744  0.4290  1.6261
  429MOL0     O56497   5.847   1.968   5.240 -0.3273 -0.1097  0.0023
  429MOL0     C56498   5.759   1.894   5.206  0.0045  0.1782  0.2068
  429MOL0     O56499   5.767   1.754   5.212  0.2356 -0.2162  0.5753
  429MOL0     C56500   5.885   1.700   5.258 -0.9150 -0.9620  0.7712
  429MOL0     C56501   5.984   1.672   5.168  0.1980 -0.0284  0.0576
  429MOL0     C56502   6.104   1.621   5.218  0.0024 -0.4030 -0.5944
  429MOL0     C56503   6.122   1.597   5.357  0.4736  0.3654  0.2594
  429MOL0     O56504   6.238   1.549   5.417  0.1676  0.0369  0.1503
  429MOL0     C56505   6.358   1.593   5.340 -0.3933 -0.0366 -0.4977
  429MOL0     C56506   6.469   1.522   5.411 -0.4211 -0.0618 -0.5784
  429MOL0     C56507   6.602   1.566   5.340 -0.2469 -0.3977  0.3516
  429MOL0     C56508   6.727   1.505   5.404  0.3625 -0.2766 -0.2493
  429MOL0     C56509   6.858   1.544   5.335  1.0295 -0.2239  0.6395
  429MOL0     C56510   6.881   1.477   5.205 -0.3123  0.1334  0.2677
  429MOL0     C56511   7.008   1.541   5.140  0.2839  0.0434 -0.4134
  429MOL0     C56512   7.137   1.465   5.166  0.9329  0.3648  0.2499
  429MOL0     N56513   7.239   1.533   5.090 -0.4172 -0.3393  0.7811
  429MOL0     C56514   7.319   1.633   5.141 -0.0739 -1.0204 -0.5700
  429MOL0     C56515   7.407   1.672   5.043  0.2627  0.6357  0.5639
  429MOL0     C56516   7.508   1.778   5.037 -0.5668  1.1240  0.4768
  429MOL0     C56517   7.651   1.723   5.071  0.5860  0.3913  0.9640
  429MOL0     C56518   7.665   1.680   5.214 -0.5290 -0.6546  0.7189
  429MOL0     C56519   7.640   1.528   5.229 -0.2332  0.1921 -0.5081
  429MOL0     O56520   7.635   1.499   5.374  0.1684  0.2399  0.1291
  429MOL0     C56521   7.536   1.409   5.407  0.3904  0.3625  0.1431
  429MOL0     C56522   7.422   1.461   5.460 -0.0449 -0.4150  0.1875
  429MOL0     C56523   7.309   1.382   5.489  0.7710 -0.1691  0.2150
  429MOL0     C56524   7.319   1.241   5.465 -0.7256 -0.0693 -0.1234
  429MOL0     C56525   7.205   1.147   5.475  0.2092  0.0265  0.1999
  429MOL0     O56526   7.077   1.210   5.468  0.7792 -0.1806  0.1175
  429MOL0     C56527   6.963   1.141   5.496  0.4680 -1.4352  0.3207
  429MOL0     C56528   6.924   1.120   5.629 -0.0614  0.5691 -0.6904
  429MOL0     C56529   6.809   1.034   5.647 -1.2881  0.5875 -0.0081
  429MOL0     C56530   6.736   0.985   5.528  0.0652 -0.7164 -0.4744
  429MOL0     O56531   6.609   0.932   5.527  0.6289  0.1789  0.8714
  429MOL0     C56532   6.551   0.889   5.656 -0.2739 -0.6871 -0.6777
  429MOL0     C56533   6.607   0.751   5.705 -0.2465 -0.1317 -0.1003
  429MOL0     C56534   6.543   0.702   5.831 -0.1655 -0.3098  0.8398
  429MOL0     C56535   6.583   0.555   5.855  0.0525  0.1480 -0.0170
  429MOL0     C56536   6.513   0.510   5.986 -0.0485 -0.6070  0.5059
  429MOL0     C56537   6.524   0.354   5.997  0.1946 -0.2932 -0.1051
  429MOL0     C56538   6.421   0.294   6.085  0.2108 -0.2277 -0.2356
  429MOL0     C56539   6.435   0.146   6.109 -0.0402 -0.8529 -0.3510
  429MOL0    Cl56540   6.311   0.084   6.221  0.0775  0.1486  0.2059
  429MOL0     C56541   6.795   1.008   5.404 -0.7515  0.2870  0.1623
  429MOL0     C56542   6.907   1.090   5.386  0.3759 -0.2639 -0.1412
  429MOL0     O56543   7.233   1.028   5.494  0.1156 -0.1963  0.0265
  429MOL0     C56544   7.442   1.192   5.424  0.1794 -0.0475 -0.9553
  429MOL0     C56545   7.546   1.270   5.397  0.1557  0.5909  0.9446
  429MOL0     N56546   7.379   1.587   4.938  1.1833  0.1151 -0.4104
  429MOL0     N56547   7.284   1.503   4.966  0.2484 -0.7796 -0.6235
  429MOL0     C56548   6.012   1.619   5.437 -0.3050 -0.1970  0.0320
  429MOL0     C56549   5.892   1.674   5.386  0.7467  0.5547  0.8079
  429MOL0     C56550   5.631   1.964   5.170 -0.2807 -0.4034  0.1886
  429MOL0     C56551   5.639   2.103   5.135  0.4618  0.5716 -0.2943
  429MOL0     C56552   5.523   2.184   5.113  0.8154  0.1412  0.3152
  429MOL0     C56553   5.394   2.127   5.125  0.5520 -0.0978  0.0307
  429MOL0     O56554   5.277   2.195   5.110  0.1832  0.0798 -0.6334
  429MOL0     C56555   5.267   2.333   5.088 -0.0263 -0.5260 -0.0697
  429MOL0     C56556   5.272   2.409   5.220 -0.2923  0.7552  0.1131
  429MOL0     C56557   5.311   2.552   5.194 -0.7409 -0.6483  0.1296
  429MOL0     C56558   5.205   2.631   5.124  0.4981 -0.1827  0.7731
  429MOL0     C56559   5.254   2.759   5.101 -0.2313 -0.0803  0.9511
  429MOL0     C56560   5.311   2.867   5.084 -0.2720 -0.5994 -1.1710
  429MOL0     C56561   5.386   1.992   5.161 -0.0922 -0.4558 -0.3119
  429MOL0     C56562   5.500   1.914   5.188 -1.1420  0.5334  0.5706
  429MOL0     H56563   5.961   1.687   5.063 -0.4937 -1.4464 -0.0273
  429MOL0     H56564   6.170   1.595   5.136 -0.6105 -1.4403 -0.7674
  429MOL0     H56565   6.366   1.701   5.350 -1.0986 -0.0980  1.0829
  429MOL0     H56566   6.365   1.570   5.233  1.2084  0.1837 -0.4659
  429MOL0     H56567   6.454   1.414   5.398  0.5140 -0.8466  3.6160
  429MOL0     H56568   6.478   1.537   5.519  0.0957 -2.1501 -0.2840
  429MOL0     H56569   6.616   1.672   5.363  0.7316 -0.8280  1.8534
  429MOL0     H56570   6.600   1.535   5.235 -1.2145  0.1458  0.1992
  429MOL0     H56571   6.736   1.534   5.510 -0.1983  3.0756 -1.0085
  429MOL0     H56572   6.714   1.397   5.400 -0.7434 -0.1659  0.0925
  429MOL0     H56573   6.943   1.526   5.402 -0.0359 -2.7557  1.4158
  429MOL0     H56574   6.854   1.652   5.322 -1.4464  0.4205  4.9902
  429MOL0     H56575   6.799   1.502   5.137 -0.3127  0.2060  0.2952
  429MOL0     H56576   6.894   1.369   5.198 -0.4309  0.1446 -0.1853
  429MOL0     H56577   6.992   1.559   5.033  0.8394  1.6282 -0.2630
  429MOL0     H56578   7.012   1.641   5.186 -3.0451  0.2491 -0.3536
  429MOL0     H56579   7.121   1.367   5.120  0.2573 -0.4726  2.1721
  429MOL0     H56580   7.154   1.462   5.274  0.4437 -0.2655  0.3163
  429MOL0     H56581   7.309   1.673   5.241  0.5942 -2.3865  0.0713
  429MOL0     H56582   7.497   1.851   5.117  1.4815  0.2742  1.6048
  429MOL0     H56583   7.510   1.831   4.942  0.0801  0.0588 -0.1313
  429MOL0     H56584   7.723   1.803   5.054  0.9771  0.2175  1.7275
  429MOL0     H56585   7.684   1.641   5.006 -0.0375 -0.5377  1.7750
  429MOL0     H56586   7.767   1.708   5.242 -1.4884  3.9678  0.3029
  429MOL0     H56587   7.595   1.740   5.272 -1.0458 -0.7689  0.2245
  429MOL0     H56588   7.726   1.472   5.191  0.9721  0.3669  1.7944
  429MOL0     H56589   7.545   1.489   5.192 -0.0502 -3.1907  2.0265
  429MOL0     H56590   7.430   1.566   5.483 -1.0890  0.5490 -3.2911
  429MOL0     H56591   7.217   1.427   5.523  0.5589 -1.8249  2.0455
  429MOL0     H56592   6.987   1.183   5.692 -0.2488  1.7791 -1.6791
  429MOL0     H56593   6.788   1.014   5.751  3.1754 -2.6739  0.5839
  429MOL0     H56594   6.443   0.893   5.640 -1.0531  6.3322  2.7766
  429MOL0     H56595   6.564   0.959   5.738 -3.2209  0.2111 -0.8807
  429MOL0     H56596   6.714   0.768   5.721  0.2158 -3.0255  0.5444
  429MOL0     H56597   6.592   0.675   5.627  1.5033  0.3858 -0.9926
  429MOL0     H56598   6.436   0.723   5.826 -0.1435 -0.3020  0.2628
  429MOL0     H56599   6.583   0.755   5.918  1.7675  0.2628 -0.3351
  429MOL0     H56600   6.539   0.495   5.775 -1.3966 -1.2424  1.7479
  429MOL0     H56601   6.688   0.524   5.854 -0.2564 -0.9476  0.4051
  429MOL0     H56602   6.415   0.559   5.979 -0.2891 -1.3337 -2.2226
  429MOL0     H56603   6.565   0.548   6.074  1.4315 -0.6752 -0.2982
  429MOL0     H56604   6.626   0.316   6.007  0.2726 -0.4077 -1.2835
  429MOL0     H56605   6.490   0.311   5.903  0.6876  1.4707 -1.1488
  429MOL0     H56606   6.438   0.346   6.180  3.9459  0.4965 -1.1323
  429MOL0     H56607   6.324   0.314   6.040 -0.6142 -0.5733  1.3216
  429MOL0     H56608   6.536   0.134   6.148 -0.5141  2.1733  2.2822
  429MOL0     H56609   6.419   0.090   6.017 -2.7072  0.6958 -0.9224
  429MOL0     H56610   6.747   0.970   5.314  1.0447 -0.1392 -0.6721
  429MOL0     H56611   6.936   1.111   5.284  2.2750 -4.6083 -0.7167
  429MOL0     H56612   7.463   1.086   5.419 -2.6456 -0.6393 -1.9411
  429MOL0     H56613   7.636   1.228   5.355  0.5768  3.2512 -1.0748
  429MOL0     H56614   6.010   1.575   5.537 -1.1986  1.4039  0.7524
  429MOL0     H56615   5.806   1.694   5.450  0.3689 -2.1383  1.2545
  429MOL0     H56616   5.733   2.157   5.126 -0.1129  1.6749  0.0287
  429MOL0     H56617   5.528   2.288   5.082  1.2973 -0.4172 -1.6575
  429MOL0     H56618   5.170   2.353   5.040 -0.1387  0.1831  0.4381
  429MOL0     H56619   5.339   2.368   5.013  0.9326 -1.2942  0.4722
  429MOL0     H56620   5.177   2.404   5.275  0.0073 -1.1124  0.5471
  429MOL0     H56621   5.349   2.365   5.284  0.7022 -0.4521 -1.8304
  429MOL0     H56622   5.404   2.539   5.137  0.1767 -2.6863  1.9539
  429MOL0     H56623   5.329   2.610   5.285 -1.4484  0.0268 -0.1479
  429MOL0     H56624   5.162   2.586   5.035 -2.1619  3.8775 -0.2427
  429MOL0     H56625   5.126   2.637   5.200  1.1273  1.3121  1.3608
  429MOL0     H56626   5.357   2.962   5.066 -0.2659 -0.8490 -2.6093
  429MOL0     H56627   5.286   1.953   5.179 -1.8313  2.4606 -2.7301
  429MOL0     H56628   5.476   1.817   5.229 -2.4560  1.0528  1.0609
  430MOL0     O56629   0.425   0.892   3.794 -0.3173  0.4061  0.0323
  430MOL0     C56630   0.366   0.856   3.689  0.7435  0.2776 -0.1743
  430MOL0     O56631   0.426   0.811   3.575  0.9805  0.1854 -0.0882
  430MOL0     C56632   0.566   0.798   3.576  0.3674  0.6269 -0.8574
  430MOL0     C56633   0.626   0.705   3.656  0.4230  0.5797 -0.5051
  430MOL0     C56634   0.768   0.686   3.657  0.1150 -0.7821 -1.1211
  430MOL0     C56635   0.850   0.761   3.574  0.5209 -1.0715  0.0210
  430MOL0     O56636   0.989   0.747   3.576 -0.1647 -0.2071  0.1703
  430MOL0     C56637   1.052   0.759   3.452 -0.5620 -0.4159 -0.1326
  430MOL0     C56638   1.185   0.680   3.460  1.1304 -0.4601 -0.1951
  430MOL0     C56639   1.307   0.771   3.448 -0.8403 -0.0051  0.1594
  430MOL0     C56640   1.417   0.677   3.393  0.5025 -0.2799 -0.7720
  430MOL0     C56641   1.552   0.734   3.427 -0.6532  0.2242 -0.1507
  430MOL0     C56642   1.662   0.638   3.380 -0.6646 -0.3405 -0.3964
  430MOL0     C56643   1.798   0.709   3.358 -0.9574 -0.3381  0.0825
  430MOL0     C56644   1.893   0.595   3.336  0.0388 -0.3485  0.6523
  430MOL0     N56645   2.033   0.634   3.321 -0.2984  0.6621  0.4449
  430MOL0     C56646   2.100   0.578   3.216  0.2747  0.4482 -0.1811
  430MOL0     C56647   2.207   0.659   3.203  0.5641 -0.0978 -0.5943
  430MOL0     C56648   2.325   0.644   3.114 -0.0819  0.4682 -0.2553
  430MOL0     C56649   2.433   0.555   3.174 -0.5235 -1.1021  0.5053
  430MOL0     C56650   2.554   0.524   3.086 -0.2458 -0.4361  0.2943
  430MOL0     C56651   2.616   0.656   3.021  0.2073  0.4873 -0.7010
  430MOL0     O56652   2.732   0.628   2.949  0.1170 -0.3142 -0.1093
  430MOL0     C56653   2.856   0.678   2.994 -0.2742 -0.3747 -0.4654
  430MOL0     C56654   2.919   0.779   2.922 -0.3586  0.2568  0.2323
  430MOL0     C56655   3.042   0.837   2.967  0.4662 -0.5380  0.3205
  430MOL0     C56656   3.103   0.783   3.084 -0.1865 -0.2912  0.2005
  430MOL0     C56657   3.242   0.820   3.126  0.8265 -0.1522  0.3674
  430MOL0     O56658   3.283   0.940   3.082 -0.2483 -0.6402  1.3897
  430MOL0     C56659   3.413   0.973   3.115  0.2770 -0.5249 -0.2360
  430MOL0     C56660   3.525   0.904   3.083 -0.1692  0.6774  0.5458
  430MOL0     C56661   3.652   0.949   3.112 -0.9300  0.3067 -0.0650
  430MOL0     C56662   3.672   1.074   3.175 -0.0460  0.4656 -0.1333
  430MOL0     O56663   3.792   1.121   3.222  0.8296  0.7488 -0.3211
  430MOL0     C56664   3.908   1.043   3.183 -0.6183 -0.5001 -0.9700
  430MOL0     C56665   4.032   1.102   3.250 -0.9793  0.4162  0.6036
  430MOL0     C56666   4.138   0.998   3.275 -0.4689 -0.2021  0.6223
  430MOL0     C56667   4.259   1.056   3.335  0.3354  0.8046 -0.6887
  430MOL0     C56668   4.353   1.122   3.239 -0.5048  0.6481 -0.3061
  430MOL0     C56669   4.492   1.149   3.300  0.0370  0.6246 -0.3517
  430MOL0     C56670   4.595   1.169   3.193  0.1482 -0.3253  0.0105
  430MOL0     C56671   4.598   1.299   3.122  0.6797 -0.3986 -0.7975
  430MOL0    Cl56672   4.767   1.364   3.121  0.1005  0.6441 -0.4211
  430MOL0     C56673   3.559   1.144   3.210  0.8839  0.0377  0.2483
  430MOL0     C56674   3.430   1.097   3.183  0.0371 -0.7526  0.3732
  430MOL0     O56675   3.306   0.741   3.199 -0.2366  0.2854 -0.7497
  430MOL0     C56676   3.031   0.683   3.156  0.0451 -0.3960  0.4603
  430MOL0     C56677   2.905   0.635   3.118  0.2380  0.3095  0.0376
  430MOL0     N56678   2.187   0.766   3.294  0.9068 -0.4166  0.0247
  430MOL0     N56679   2.078   0.753   3.357  0.1043 -0.4000  0.0901
  430MOL0     C56680   0.779   0.848   3.481  0.4114  0.1718 -0.1479
  430MOL0     C56681   0.640   0.874   3.491 -0.4999 -0.7087 -0.9776
  430MOL0     C56682   0.215   0.849   3.686  0.1470  0.8873  0.4130
  430MOL0     C56683   0.147   0.827   3.802  0.0820  0.8432  0.0082
  430MOL0     C56684   0.009   0.825   3.816  0.0878  0.1886  0.7428
  430MOL0     C56685  -0.063   0.867   3.700  0.2978 -0.8169  0.9413
  430MOL0     O56686  -0.196   0.886   3.692 -0.1576  0.1240  0.0686
  430MOL0     C56687  -0.286   0.800   3.764 -0.1262 -0.6396  0.1286
  430MOL0     C56688  -0.294   0.669   3.689  0.6539 -0.3071 -0.3160
  430MOL0     C56689  -0.371   0.684   3.548 -0.5950 -0.6860  0.1609
  430MOL0     C56690  -0.490   0.790   3.540 -0.0323 -0.1223  0.4228
  430MOL0     C56691  -0.595   0.759   3.642 -0.0840  0.2096  0.0628
  430MOL0     C56692  -0.673   0.728   3.723  0.4902 -0.3007 -0.4158
  430MOL0     C56693  -0.001   0.870   3.572  0.1079  0.0917  0.2818
  430MOL0     C56694   0.138   0.856   3.568  0.0246 -0.5718  0.4428
  430MOL0     H56695   0.579   0.650   3.736  3.6257  0.3698  1.4080
  430MOL0     H56696   0.820   0.621   3.726 -2.0823 -2.6258 -1.0765
  430MOL0     H56697   1.076   0.863   3.429  2.6482 -0.3249  2.7101
  430MOL0     H56698   0.993   0.702   3.380 -2.4284  0.3678  0.7015
  430MOL0     H56699   1.189   0.607   3.379 -1.0770 -1.2134  0.3227
  430MOL0     H56700   1.192   0.612   3.545 -0.7246  0.3528  0.6557
  430MOL0     H56701   1.338   0.824   3.538  1.6886 -2.0893  0.6742
  430MOL0     H56702   1.295   0.849   3.373  1.8484 -2.1224 -2.7539
  430MOL0     H56703   1.407   0.584   3.449 -2.2766  0.1177 -0.4500
  430MOL0     H56704   1.406   0.671   3.284 -0.5495 -1.8345 -0.6122
  430MOL0     H56705   1.565   0.764   3.532  1.1812 -1.0027  0.0113
  430MOL0     H56706   1.563   0.823   3.365  0.3236 -0.5514 -1.1283
  430MOL0     H56707   1.641   0.591   3.283  4.6095  1.6191 -2.9331
  430MOL0     H56708   1.659   0.559   3.456 -2.7487 -0.4367 -0.5192
  430MOL0     H56709   1.795   0.781   3.276 -2.6841 -2.2754 -1.6665
  430MOL0     H56710   1.825   0.776   3.440  0.3829  4.5634 -3.9194
  430MOL0     H56711   1.866   0.544   3.243  0.3264  1.0840 -0.2463
  430MOL0     H56712   1.870   0.526   3.418 -0.7190 -0.3625  0.4396
  430MOL0     H56713   2.075   0.487   3.162 -3.3704  0.3902  1.2717
  430MOL0     H56714   2.376   0.738   3.090 -0.4155 -0.3358 -4.9215
  430MOL0     H56715   2.288   0.593   3.025  0.8444 -1.1324  0.2320
  430MOL0     H56716   2.386   0.461   3.207 -0.8955 -0.8394  0.7254
  430MOL0     H56717   2.474   0.615   3.255  0.0536 -1.7317  0.6931
  430MOL0     H56718   2.621   0.462   3.146  1.9469  3.3937  2.1684
  430MOL0     H56719   2.526   0.461   3.001 -0.8598  2.8432 -2.1552
  430MOL0     H56720   2.630   0.734   3.097 -2.3199  3.0332 -2.6203
  430MOL0     H56721   2.533   0.702   2.967 -0.3266 -1.5446 -1.7128
  430MOL0     H56722   2.894   0.829   2.829 -0.9285 -0.0424  0.2160
  430MOL0     H56723   3.083   0.924   2.918  0.8343 -0.6803  0.3726
  430MOL0     H56724   3.516   0.808   3.033 -3.0578  0.0218  2.0899
  430MOL0     H56725   3.737   0.887   3.087 -1.0826  0.0543  0.0404
  430MOL0     H56726   3.925   1.058   3.076  1.4502  1.9417 -0.4025
  430MOL0     H56727   3.901   0.939   3.216  0.3620  0.1100  1.2936
  430MOL0     H56728   4.003   1.138   3.349 -1.1097 -1.4583  1.2990
  430MOL0     H56729   4.065   1.184   3.186 -2.2360  0.5658  0.1165
  430MOL0     H56730   4.170   0.947   3.183  1.8343 -3.7625  3.1669
  430MOL0     H56731   4.107   0.918   3.342  1.5019 -1.4747  0.0786
  430MOL0     H56732   4.226   1.131   3.408 -2.0893  1.6766 -2.5666
  430MOL0     H56733   4.319   0.977   3.382  0.3954  0.3799 -1.4684
  430MOL0     H56734   4.311   1.219   3.211  0.3366  0.9736 -0.4448
  430MOL0     H56735   4.354   1.052   3.155 -3.9635 -0.0414  0.0468
  430MOL0     H56736   4.527   1.066   3.363  0.5271  3.1805  3.0376
  430MOL0     H56737   4.490   1.236   3.366  0.2813  0.4756 -0.1446
  430MOL0     H56738   4.693   1.153   3.239  1.1604 -2.4842 -2.6415
  430MOL0     H56739   4.575   1.088   3.122  0.6911 -3.1013  2.8214
  430MOL0     H56740   4.538   1.365   3.186  3.5533 -0.2031  1.9532
  430MOL0     H56741   4.543   1.306   3.028 -0.3860  2.2563 -0.0686
  430MOL0     H56742   3.572   1.241   3.257 -1.3455  0.9828 -0.9234
  430MOL0     H56743   3.347   1.164   3.200  2.5961  3.1996 -1.1913
  430MOL0     H56744   3.066   0.629   3.244  0.2172 -2.4038 -0.7756
  430MOL0     H56745   2.858   0.562   3.183  2.3216 -0.2231  1.0164
  430MOL0     H56746   0.828   0.905   3.402 -1.1854 -2.7765 -3.5678
  430MOL0     H56747   0.580   0.944   3.434  0.9138  1.2846 -0.1432
  430MOL0     H56748   0.205   0.812   3.893  0.4502  0.5082 -0.2746
  430MOL0     H56749  -0.045   0.807   3.908 -1.4214 -0.4058 -0.2163
  430MOL0     H56750  -0.385   0.847   3.756  1.8890  4.3453  0.6309
  430MOL0     H56751  -0.257   0.805   3.870  1.1432 -0.3231 -0.2150
  430MOL0     H56752  -0.198   0.618   3.696  1.1372  0.7089  0.8714
  430MOL0     H56753  -0.355   0.597   3.745  2.4148 -2.6107 -1.1812
  430MOL0     H56754  -0.412   0.588   3.515  0.0468 -0.5923 -0.9634
  430MOL0     H56755  -0.302   0.698   3.465 -2.9805  0.0429 -1.7947
  430MOL0     H56756  -0.458   0.892   3.558 -0.6973 -0.3213  3.2041
  430MOL0     H56757  -0.527   0.777   3.438  1.9562  0.0673 -0.3593
  430MOL0     H56758  -0.740   0.690   3.798  3.2622 -2.4053  1.1971
  430MOL0     H56759  -0.067   0.905   3.493 -6.1298  1.6486  5.2853
  430MOL0     H56760   0.192   0.875   3.476  1.4471  0.6999  1.4927
  431MOL0     O56761   4.097   5.809  10.037  0.8727 -0.0135 -0.2390
  431MOL0     C56762   4.211   5.782  10.046 -1.1124  0.0116  0.3456
  431MOL0     O56763   4.291   5.759   9.946  0.2739  0.3832  0.4396
  431MOL0     C56764   4.244   5.750   9.824 -0.0744  0.2726  0.3682
  431MOL0     C56765   4.137   5.666   9.793 -0.1744 -0.5948 -0.0645
  431MOL0     C56766   4.083   5.660   9.661  0.4021 -0.4271 -1.2102
  431MOL0     C56767   4.135   5.748   9.564  0.6694  0.0522 -0.2349
  431MOL0     O56768   4.092   5.748   9.434  0.5142 -0.2702  0.2401
  431MOL0     C56769   3.949   5.781   9.424 -0.0148 -0.5086  0.3631
  431MOL0     C56770   3.899   5.748   9.286  0.2261 -0.0790  0.9140
  431MOL0     C56771   3.883   5.590   9.268 -0.4852  0.2116  0.2744
  431MOL0     C56772   4.003   5.492   9.227  0.2619 -0.1245 -0.1362
  431MOL0     C56773   3.971   5.345   9.278 -0.0572 -0.6374  0.6900
  431MOL0     C56774   4.089   5.253   9.240 -0.5354 -0.2739 -0.3616
  431MOL0     C56775   4.230   5.306   9.286  0.3367 -0.1015 -0.6083
  431MOL0     C56776   4.247   5.329   9.435  0.4391 -0.3471  0.4513
  431MOL0     N56777   4.210   5.222   9.525 -0.6446 -0.4754 -1.0753
  431MOL0     C56778   4.085   5.188   9.571 -0.0415  0.0029  0.7611
  431MOL0     C56779   4.109   5.088   9.670 -0.1473 -0.7430  0.0260
  431MOL0     C56780   4.019   5.015   9.765  0.0073  0.5487 -0.2938
  431MOL0     C56781   3.953   5.119   9.846  0.4035 -0.0539  0.2687
  431MOL0     C56782   3.836   5.058   9.937 -0.8181 -0.6003  0.7600
  431MOL0     C56783   3.725   5.168   9.953 -1.5959  0.4006  0.7412
  431MOL0     O56784   3.708   5.222  10.083 -0.0020 -0.6947 -0.4772
  431MOL0     C56785   3.594   5.294  10.115 -0.7862  0.0225  0.2007
  431MOL0     C56786   3.482   5.316  10.048 -0.9060  0.1924  0.1090
  431MOL0     C56787   3.376   5.386  10.105 -0.5095  0.0284 -0.6817
  431MOL0     C56788   3.379   5.452  10.226  0.2358 -0.0109 -0.7593
  431MOL0     C56789   3.262   5.542  10.274 -0.1911  0.7297 -0.0835
  431MOL0     O56790   3.282   5.642  10.363 -0.0376 -0.1823 -0.9370
  431MOL0     C56791   3.174   5.733  10.381 -0.1014  0.7716 -0.0984
  431MOL0     C56792   3.114   5.795  10.280 -0.0633  0.3393 -0.1023
  431MOL0     C56793   3.014   5.891  10.288  0.5830  0.3919  0.1654
  431MOL0     C56794   2.966   5.923  10.413  0.8917  0.5467  0.1180
  431MOL0     O56795   2.863   6.020  10.425  0.0375 -0.6129 -0.3959
  431MOL0     C56796   2.762   5.975  10.514 -0.5227  0.4248  0.0909
  431MOL0     C56797   2.644   6.084  10.510  0.6794  1.1184 -0.0730
  431MOL0     C56798   2.694   6.205  10.591 -0.5607 -0.2168 -0.4436
  431MOL0     C56799   2.602   6.328  10.600 -0.5338 -0.8468 -0.5062
  431MOL0     C56800   2.457   6.298  10.637 -0.5460 -0.7056  0.4696
  431MOL0     C56801   2.382   6.433  10.678  0.4736  0.3682  0.5864
  431MOL0     C56802   2.294   6.407  10.797  0.1324 -0.7412 -0.3448
  431MOL0     C56803   2.175   6.315  10.749 -0.0205 -0.3810 -0.0652
  431MOL0    Cl56804   2.067   6.328  10.884 -0.1217 -0.2045 -0.5464
  431MOL0     C56805   3.029   5.872  10.527  0.1937 -0.4133  0.3278
  431MOL0     C56806   3.129   5.770  10.513 -0.0978  0.4456 -0.4643
  431MOL0     O56807   3.157   5.512  10.226  0.4771  0.5411  0.7544
  431MOL0     C56808   3.495   5.433  10.294 -0.3712  0.0790  0.6239
  431MOL0     C56809   3.603   5.352  10.242  0.7827 -0.1644  0.2813
  431MOL0     N56810   4.247   5.088   9.688  1.1325  0.6995 -0.0373
  431MOL0     N56811   4.301   5.161   9.600  0.1737  0.6176  0.6283
  431MOL0     C56812   4.233   5.841   9.595 -0.8907 -0.2019 -0.1467
  431MOL0     C56813   4.295   5.833   9.717  0.6683  0.6855  0.4601
  431MOL0     C56814   4.271   5.790  10.175  0.3461  0.0543  0.0997
  431MOL0     C56815   4.408   5.767  10.199 -0.1040 -0.6338 -0.4821
  431MOL0     C56816   4.454   5.760  10.334  0.5260 -1.5259  0.7217
  431MOL0     C56817   4.369   5.808  10.438 -0.1292 -0.3319 -0.5706
  431MOL0     O56818   4.419   5.822  10.563 -0.5599 -0.1270 -0.7880
  431MOL0     C56819   4.507   5.724  10.635 -0.1953  0.0284 -0.8731
  431MOL0     C56820   4.555   5.795  10.771 -0.0333 -0.5666 -1.0244
  431MOL0     C56821   4.435   5.798  10.870  0.2906  0.4846  0.9323
  431MOL0     C56822   4.473   5.882  10.982  0.2906  0.6750  0.4242
  431MOL0     C56823   4.372   5.904  11.088 -0.0722  0.3986 -1.1206
  431MOL0     C56824   4.297   5.923  11.184 -0.5024 -0.3834 -0.5243
  431MOL0     C56825   4.234   5.836  10.415  0.5874  0.4102 -0.7468
  431MOL0     C56826   4.184   5.829  10.280 -1.4902 -0.2654 -0.6237
  431MOL0     H56827   4.094   5.605   9.871 -0.5631  1.4706  1.4166
  431MOL0     H56828   4.006   5.585   9.645 -0.0161 -0.7554  1.8164
  431MOL0     H56829   3.946   5.889   9.434  2.6741 -0.1806 -1.2777
  431MOL0     H56830   3.879   5.750   9.502 -1.3471 -1.5358 -1.1857
  431MOL0     H56831   3.959   5.790   9.205 -1.6312  1.3362  0.1998
  431MOL0     H56832   3.795   5.780   9.290  0.0163 -0.8318  1.9168
  431MOL0     H56833   3.805   5.570   9.194  0.5176 -0.2621 -0.6846
  431MOL0     H56834   3.842   5.561   9.365 -1.4666 -4.9085 -1.3454
  431MOL0     H56835   4.033   5.501   9.122  1.8690  0.8340  0.3713
  431MOL0     H56836   4.085   5.519   9.295 -0.8283 -0.9146  1.5624
  431MOL0     H56837   3.869   5.322   9.247 -0.1185  3.1397 -2.7033
  431MOL0     H56838   3.969   5.344   9.388 -2.5406  1.3953  0.7696
  431MOL0     H56839   4.095   5.249   9.131  0.7252  1.5326 -0.4128
  431MOL0     H56840   4.072   5.152   9.279 -2.3562  0.8556  2.0269
  431MOL0     H56841   4.303   5.227   9.264 -0.0138 -0.3216 -0.9919
  431MOL0     H56842   4.266   5.398   9.240 -2.4350  2.9252  2.6794
  431MOL0     H56843   4.184   5.415   9.457 -0.0856  0.4688 -3.4923
  431MOL0     H56844   4.352   5.360   9.440 -0.1183  1.9950 -0.8457
  431MOL0     H56845   3.986   5.218   9.537  0.4767  1.9335  0.8459
  431MOL0     H56846   4.068   4.946   9.834 -1.2937  0.9446  1.0590
  431MOL0     H56847   3.949   4.950   9.712  0.3649 -1.8707  2.0044
  431MOL0     H56848   3.901   5.191   9.782  2.0002 -1.2070 -2.4662
  431MOL0     H56849   4.017   5.178   9.913  0.1954  0.4895 -0.0095
  431MOL0     H56850   3.787   4.981   9.877 -3.0850 -1.5827  3.5975
  431MOL0     H56851   3.875   5.009  10.028 -0.6606  0.3144  1.1999
  431MOL0     H56852   3.638   5.112   9.917 -1.3168  0.1733  0.4155
  431MOL0     H56853   3.733   5.257   9.891 -0.6769  0.0188  0.2932
  431MOL0     H56854   3.461   5.285   9.946  0.5163  1.6334 -0.6847
  431MOL0     H56855   3.289   5.402  10.043  1.1652  1.6731 -2.7805
  431MOL0     H56856   3.141   5.779  10.176  1.6342  3.2908 -0.2307
  431MOL0     H56857   2.965   5.928  10.199  2.2526 -0.3626 -1.1137
  431MOL0     H56858   2.794   5.970  10.619 -0.3197 -0.3946 -0.0095
  431MOL0     H56859   2.732   5.872  10.494  2.1011 -0.5214  0.6201
  431MOL0     H56860   2.549   6.054  10.556 -0.1081  3.3752 -0.1048
  431MOL0     H56861   2.620   6.114  10.407  1.4530 -2.3044 -1.3956
  431MOL0     H56862   2.793   6.226  10.551 -0.4155 -1.8930 -1.0575
  431MOL0     H56863   2.709   6.172  10.694  0.8191 -1.4979 -1.0170
  431MOL0     H56864   2.642   6.403  10.668  0.1351  0.2656 -2.0685
  431MOL0     H56865   2.597   6.375  10.501 -1.2343 -0.3991 -0.2630
  431MOL0     H56866   2.456   6.234  10.725  1.5497  0.3852  1.3572
  431MOL0     H56867   2.405   6.253  10.552  0.4965  0.1660 -0.6659
  431MOL0     H56868   2.329   6.478  10.593  2.4954  0.1472 -0.8574
  431MOL0     H56869   2.450   6.511  10.713  0.9964  0.3463 -0.3537
  431MOL0     H56870   2.344   6.361  10.883 -2.9806 -1.1100  1.4379
  431MOL0     H56871   2.238   6.491  10.839  0.0932 -2.3640  3.2191
  431MOL0     H56872   2.209   6.212  10.732  2.2464 -0.3473  3.2954
  431MOL0     H56873   2.136   6.364  10.660 -0.6520  0.2890  0.5734
  431MOL0     H56874   3.006   5.890  10.632  1.3618 -0.9242  0.6889
  431MOL0     H56875   3.174   5.717  10.596  0.6108  0.8345 -0.5944
  431MOL0     H56876   3.525   5.470  10.392  3.3462 -2.9420  0.8657
  431MOL0     H56877   3.695   5.331  10.295  0.2903  0.2169  1.2968
  431MOL0     H56878   4.261   5.913   9.519 -0.3170 -0.3832 -0.1162
  431MOL0     H56879   4.380   5.900   9.729 -0.3325  2.3437 -1.2829
  431MOL0     H56880   4.482   5.746  10.123  2.3693 -0.6170  1.7834
  431MOL0     H56881   4.558   5.743  10.361  0.7351 -2.9747 -0.7938
  431MOL0     H56882   4.598   5.713  10.576  0.5076  0.0694  0.1794
  431MOL0     H56883   4.450   5.634  10.662  1.5405 -0.0857  3.1163
  431MOL0     H56884   4.636   5.734  10.811  1.0774  2.4139  1.7583
  431MOL0     H56885   4.601   5.893  10.756 -4.0677  2.2109  2.1621
  431MOL0     H56886   4.414   5.698  10.908  2.2849 -0.5749 -0.5915
  431MOL0     H56887   4.343   5.842  10.829 -0.7360  0.0778  2.7144
  431MOL0     H56888   4.558   5.835  11.033  1.7427  1.6527 -0.9823
  431MOL0     H56889   4.505   5.981  10.949 -1.1137  0.8734 -0.4000
  431MOL0     H56890   4.241   5.946  11.272  1.1994 -3.5832  1.5443
  431MOL0     H56891   4.170   5.873  10.495  1.2476  0.0338 -0.0281
  431MOL0     H56892   4.084   5.870  10.274 -1.1398  1.9926  4.2877
  432MOL0     O56893   3.903   6.277   9.584 -0.3047  0.1414  0.8715
  432MOL0     C56894   3.940   6.172   9.624  0.1665 -0.4875 -0.1554
  432MOL0     O56895   4.060   6.120   9.610 -0.7075  1.0302  1.1089
  432MOL0     C56896   4.152   6.184   9.526  0.4734  0.3546 -0.2864
  432MOL0     C56897   4.217   6.290   9.588 -0.3048  0.1589  0.0117
  432MOL0     C56898   4.328   6.348   9.522  0.1974 -0.3735 -0.9166
  432MOL0     C56899   4.352   6.320   9.390  0.1046 -0.2983  0.2055
  432MOL0     O56900   4.445   6.383   9.316  0.0246 -0.5141 -0.4379
  432MOL0     C56901   4.461   6.522   9.342 -0.9167  0.3288 -0.4871
  432MOL0     C56902   4.554   6.584   9.232 -0.2571  0.0827 -0.3302
  432MOL0     C56903   4.694   6.548   9.257 -0.1380  0.6471 -0.4492
  432MOL0     C56904   4.777   6.601   9.143 -0.2403  0.2258  0.6169
  432MOL0     C56905   4.923   6.570   9.160 -0.4233  0.0809  0.0578
  432MOL0     C56906   4.999   6.610   9.027  0.8700  0.7131 -1.0745
  432MOL0     C56907   5.119   6.519   9.012  0.0234  1.5562  0.0377
  432MOL0     C56908   5.211   6.536   9.131 -0.2731 -0.1995  0.3020
  432MOL0     N56909   5.335   6.469   9.103  0.4556 -0.8474  0.7290
  432MOL0     C56910   5.450   6.535   9.076 -1.2877 -0.6998 -0.2444
  432MOL0     C56911   5.539   6.427   9.055 -0.1744 -0.9898 -0.2673
  432MOL0     C56912   5.686   6.436   9.027  0.0532 -0.3243  0.3287
  432MOL0     C56913   5.772   6.341   9.117 -0.3094  0.1036 -0.0491
  432MOL0     C56914   5.747   6.330   9.267  0.6083 -0.4009 -0.8174
  432MOL0     C56915   5.813   6.449   9.336 -1.0351 -0.4597 -0.6678
  432MOL0     O56916   5.943   6.424   9.366 -0.6856  0.3724  0.0640
  432MOL0     C56917   6.034   6.521   9.343 -0.3373  0.1706 -0.7024
  432MOL0     C56918   6.162   6.475   9.337  0.1174 -0.5513  0.7836
  432MOL0     C56919   6.267   6.560   9.295  0.2445 -0.4059  0.0330
  432MOL0     C56920   6.249   6.697   9.278 -0.8134 -0.5833  0.2556
  432MOL0     C56921   6.372   6.778   9.236  0.3204 -0.2963 -0.1925
  432MOL0     O56922   6.349   6.914   9.224 -0.4117  0.0898  0.7717
  432MOL0     C56923   6.459   6.998   9.203 -0.6288  0.0405  1.2930
  432MOL0     C56924   6.454   7.072   9.088  0.7270 -0.5378 -0.1891
  432MOL0     C56925   6.552   7.163   9.049  0.0610  0.1743  0.3055
  432MOL0     C56926   6.673   7.177   9.122  0.8577 -0.4214  0.3084
  432MOL0     O56927   6.769   7.269   9.099 -0.2474 -0.1379 -0.7018
  432MOL0     C56928   6.779   7.317   8.962  0.2677  0.4296 -0.8797
  432MOL0     C56929   6.906   7.389   8.976 -0.6408 -0.6874  0.8546
  432MOL0     C56930   6.934   7.462   8.838  0.3837 -0.2305  0.1991
  432MOL0     C56931   7.093   7.471   8.829  0.1840 -0.0343 -0.1623
  432MOL0     C56932   7.125   7.536   8.699  0.4428  0.3485  0.1160
  432MOL0     C56933   7.266   7.576   8.705 -0.1099 -0.3530  0.0650
  432MOL0     C56934   7.314   7.644   8.581  0.5754 -0.6217 -0.1143
  432MOL0     C56935   7.460   7.683   8.582 -0.3623  0.3468  0.5069
  432MOL0    Cl56936   7.484   7.838   8.492 -0.0179  0.1971  0.1812
  432MOL0     C56937   6.686   7.090   9.236  0.2126  0.2068  0.2520
  432MOL0     C56938   6.584   7.001   9.270  0.4609 -0.0712  0.1139
  432MOL0     O56939   6.482   6.719   9.236 -0.8190  0.0601 -0.0440
  432MOL0     C56940   6.122   6.749   9.293  0.7627 -0.2731 -0.5462
  432MOL0     C56941   6.012   6.661   9.322 -0.4852 -0.3748 -0.6076
  432MOL0     N56942   5.472   6.307   9.077  0.0847 -0.1442 -0.1729
  432MOL0     N56943   5.354   6.337   9.107  1.3092 -0.4335  0.3386
  432MOL0     C56944   4.274   6.226   9.324  0.5275 -0.1266 -0.6865
  432MOL0     C56945   4.177   6.156   9.390 -0.0868  1.1398  0.3974
  432MOL0     C56946   3.850   6.084   9.703 -0.6768 -0.2995 -0.1795
  432MOL0     C56947   3.907   5.995   9.795 -0.3484 -0.2113 -1.0988
  432MOL0     C56948   3.824   5.919   9.876 -0.8344 -0.2796 -0.8596
  432MOL0     C56949   3.688   5.944   9.887 -0.1068 -0.0000  1.0119
  432MOL0     O56950   3.623   5.868   9.979  0.0086  0.7031 -0.3834
  432MOL0     C56951   3.499   5.916  10.029  0.8912  0.0849 -0.1795
  432MOL0     C56952   3.458   5.844  10.161 -0.4679 -0.0351 -0.0185
  432MOL0     C56953   3.583   5.843  10.260  0.8297 -0.9537 -0.7468
  432MOL0     C56954   3.549   5.865  10.409  0.5965  0.0026  0.0455
  432MOL0     C56955   3.480   5.997  10.430 -0.0132  0.1081 -0.1357
  432MOL0     C56956   3.437   6.110  10.421  0.5360 -0.6891 -0.4758
  432MOL0     C56957   3.630   6.017   9.783 -0.0524 -0.3091  0.9084
  432MOL0     C56958   3.709   6.094   9.692 -0.1235  0.5393 -0.6041
  432MOL0     H56959   4.205   6.312   9.694  0.1405  2.1915 -0.3283
  432MOL0     H56960   4.383   6.427   9.572  0.5970  0.1682 -2.1815
  432MOL0     H56961   4.500   6.543   9.442  1.8904  0.8648 -1.6002
  432MOL0     H56962   4.367   6.576   9.328 -1.6327 -1.2169 -2.1209
  432MOL0     H56963   4.538   6.692   9.225  0.3881  0.1585 -0.6993
  432MOL0     H56964   4.516   6.553   9.133 -2.9544  0.6369  0.4455
  432MOL0     H56965   4.703   6.439   9.252  1.5153  0.7886 -1.4155
  432MOL0     H56966   4.741   6.595   9.343  0.2611 -1.2447  0.4134
  432MOL0     H56967   4.738   6.551   9.055 -1.7332  0.1177  1.3056
  432MOL0     H56968   4.771   6.710   9.140  0.6053  0.3343  1.8729
  432MOL0     H56969   4.935   6.466   9.191 -2.1524 -0.1717 -0.0069
  432MOL0     H56970   4.967   6.636   9.236  1.8872 -1.6074  0.2809
  432MOL0     H56971   5.027   6.714   9.009 -0.8937  0.7454 -4.6083
  432MOL0     H56972   4.938   6.576   8.942  1.6341 -0.2752 -1.2447
  432MOL0     H56973   5.108   6.410   9.009  2.9924  1.1971 -1.5997
  432MOL0     H56974   5.172   6.545   8.920 -0.2856  0.2133 -0.5446
  432MOL0     H56975   5.173   6.494   9.225  1.9725 -1.1488  0.8424
  432MOL0     H56976   5.228   6.644   9.132 -1.2613  0.1099 -3.0555
  432MOL0     H56977   5.478   6.639   9.088 -3.8801  0.1349 -0.7008
  432MOL0     H56978   5.711   6.542   9.032 -2.7860  0.6312 -2.4907
  432MOL0     H56979   5.698   6.426   8.918  1.0511  3.5687 -0.0460
  432MOL0     H56980   5.879   6.361   9.102  0.1093 -0.9016  1.4121
  432MOL0     H56981   5.750   6.239   9.084  4.9254 -1.4885  0.5240
  432MOL0     H56982   5.639   6.329   9.289  1.1285 -1.8955  2.2250
  432MOL0     H56983   5.784   6.241   9.318 -1.6377 -1.1277 -0.3308
  432MOL0     H56984   5.764   6.491   9.424 -1.0216  1.4632 -1.5342
  432MOL0     H56985   5.793   6.528   9.263 -3.3384  0.6874  1.0871
  432MOL0     H56986   6.184   6.372   9.364  2.0798 -0.1992  0.7367
  432MOL0     H56987   6.359   6.505   9.278 -1.1579 -2.4026 -1.4827
  432MOL0     H56988   6.356   7.070   9.043 -0.7717 -0.1038  2.7747
  432MOL0     H56989   6.540   7.220   8.958  1.0375  1.0308  0.6910
  432MOL0     H56990   6.700   7.390   8.940  0.6976  0.6408 -1.7232
  432MOL0     H56991   6.774   7.233   8.893 -2.6575  0.2659 -0.6334
  432MOL0     H56992   6.987   7.320   9.003 -1.4557 -4.3257 -4.4059
  432MOL0     H56993   6.901   7.467   9.053  0.7802  0.8024 -0.5023
  432MOL0     H56994   6.893   7.563   8.846  0.0596 -0.3733  0.3360
  432MOL0     H56995   6.899   7.411   8.747  1.0276 -1.1688  0.4553
  432MOL0     H56996   7.123   7.528   8.917 -0.6030 -0.4854  0.4030
  432MOL0     H56997   7.143   7.374   8.841  1.9204  0.9778  1.1381
  432MOL0     H56998   7.054   7.617   8.679 -0.3854 -0.4854 -0.3256
  432MOL0     H56999   7.098   7.473   8.615 -1.1262 -0.5026  1.2112
  432MOL0     H57000   7.317   7.482   8.726 -1.3991 -1.7954 -2.6267
  432MOL0     H57001   7.284   7.645   8.788 -0.3913 -1.0224  0.6932
  432MOL0     H57002   7.290   7.584   8.492  1.6118 -0.7886 -0.2949
  432MOL0     H57003   7.259   7.737   8.567  0.7021 -0.6354 -0.7338
  432MOL0     H57004   7.521   7.606   8.535  0.4781  0.4432  1.3938
  432MOL0     H57005   7.494   7.690   8.686 -1.0976 -2.1529  0.9764
  432MOL0     H57006   6.786   7.091   9.279  0.4617  1.7985 -0.3137
  432MOL0     H57007   6.604   6.929   9.349 -1.0741 -0.9894 -0.2920
  432MOL0     H57008   6.101   6.855   9.299  0.1535 -0.4798  2.6517
  432MOL0     H57009   5.916   6.712   9.323 -1.2008 -1.6778  1.0900
  432MOL0     H57010   4.286   6.204   9.218 -0.7580  0.0728 -0.8995
  432MOL0     H57011   4.128   6.073   9.340  1.3348 -0.0824  0.9917
  432MOL0     H57012   4.013   5.986   9.814 -0.9090  0.6127  3.5978
  432MOL0     H57013   3.864   5.846   9.946  0.6728  2.7387  1.6662
  432MOL0     H57014   3.427   5.911   9.947  1.9980 -1.0165 -1.1207
  432MOL0     H57015   3.509   6.024  10.045 -2.0077  1.3008 -4.6315
  432MOL0     H57016   3.363   5.876  10.204 -0.3015  0.1055  0.2473
  432MOL0     H57017   3.443   5.741  10.130 -3.2120  0.4658 -0.5874
  432MOL0     H57018   3.650   5.914  10.211 -0.5522 -0.1061 -1.4744
  432MOL0     H57019   3.633   5.746  10.261  1.9867 -0.5760  4.0315
  432MOL0     H57020   3.487   5.784  10.448 -0.2655  0.4930 -0.2757
  432MOL0     H57021   3.641   5.863  10.468  0.0763  2.2601  1.0566
  432MOL0     H57022   3.401   6.211  10.418 -2.7556 -1.7427 -0.0798
  432MOL0     H57023   3.523   6.031   9.774  0.1766  0.0214 -2.1999
  432MOL0     H57024   3.659   6.162   9.624 -0.7256 -0.2349 -0.9401
  433MOL0     O57025   5.189   7.070   2.459 -0.0594  0.7556 -0.1307
  433MOL0     C57026   5.282   6.991   2.470  0.8246  0.7464 -0.3197
  433MOL0     O57027   5.277   6.854   2.439 -0.3406  0.7596  0.2136
  433MOL0     C57028   5.154   6.792   2.443 -0.4334  0.6591 -0.4100
  433MOL0     C57029   5.057   6.837   2.350 -0.8653 -0.2565 -0.5272
  433MOL0     C57030   4.936   6.768   2.342 -0.7142 -0.1689  0.3930
  433MOL0     C57031   4.915   6.653   2.421  0.0171  0.8034  0.1357
  433MOL0     O57032   4.798   6.582   2.403 -0.1921  0.1165 -0.1160
  433MOL0     C57033   4.708   6.597   2.510 -0.1987 -0.6905 -0.2494
  433MOL0     C57034   4.608   6.480   2.492  0.6314 -0.3099 -0.3767
  433MOL0     C57035   4.680   6.352   2.449 -0.8503  0.3166 -0.1032
  433MOL0     C57036   4.571   6.241   2.418  0.0370  0.4729 -0.9807
  433MOL0     C57037   4.611   6.129   2.326 -0.1182  0.3724 -0.6562
  433MOL0     C57038   4.497   6.038   2.314 -0.2917  0.2448  0.5410
  433MOL0     C57039   4.528   5.923   2.217 -0.7792  1.0038  0.4558
  433MOL0     C57040   4.426   5.799   2.233  0.1495  0.2545  0.6210
  433MOL0     N57041   4.498   5.677   2.295 -0.3917 -0.0698 -0.5657
  433MOL0     C57042   4.492   5.551   2.245  0.1662 -0.8976  0.5864
  433MOL0     C57043   4.587   5.480   2.305  0.9217 -0.0058  0.5437
  433MOL0     C57044   4.626   5.331   2.283  0.0594 -0.2203  0.3180
  433MOL0     C57045   4.606   5.252   2.415 -0.3497 -0.4112 -0.2738
  433MOL0     C57046   4.699   5.133   2.414 -0.1929  0.2941 -0.2289
  433MOL0     C57047   4.662   5.053   2.546 -0.1402  0.3309 -0.3234
  433MOL0     O57048   4.537   4.981   2.529 -0.2978 -0.4688 -0.4611
  433MOL0     C57049   4.470   4.942   2.642 -0.2428  0.5891 -0.3120
  433MOL0     C57050   4.340   4.894   2.635 -0.9983 -0.1966  0.1698
  433MOL0     C57051   4.259   4.861   2.745  0.0905 -0.3251 -0.2460
  433MOL0     C57052   4.315   4.853   2.875 -0.4994 -0.3949 -0.2973
  433MOL0     C57053   4.238   4.807   2.992  0.3587  0.9785  0.3489
  433MOL0     O57054   4.288   4.803   3.117 -0.1911 -0.0077  0.8382
  433MOL0     C57055   4.207   4.772   3.224 -1.0372  0.1207 -0.7154
  433MOL0     C57056   4.102   4.859   3.262 -0.2674 -0.7189 -0.5406
  433MOL0     C57057   4.013   4.815   3.363 -0.0478 -0.1869  0.0421
  433MOL0     C57058   4.036   4.698   3.442 -0.2324  0.5929  0.2692
  433MOL0     O57059   3.968   4.651   3.546  0.2084 -0.0843 -0.4671
  433MOL0     C57060   3.854   4.720   3.604  0.3071 -0.2614  0.1544
  433MOL0     C57061   3.771   4.628   3.682  0.2540 -0.2486 -0.2284
  433MOL0     C57062   3.644   4.693   3.739 -0.2227 -0.1387  0.0618
  433MOL0     C57063   3.563   4.610   3.842 -0.8570 -0.5578  0.5269
  433MOL0     C57064   3.430   4.673   3.879  0.6738 -0.4842  0.2039
  433MOL0     C57065   3.419   4.711   4.030 -0.5505  0.7639 -0.6432
  433MOL0     C57066   3.296   4.791   4.065 -0.2520  1.2800 -0.2637
  433MOL0     C57067   3.271   4.806   4.213 -0.0455  0.0273 -0.7448
  433MOL0    Cl57068   3.236   4.644   4.283  0.1623 -0.1262 -0.4942
  433MOL0     C57069   4.150   4.631   3.408 -0.0971  0.0132 -0.3821
  433MOL0     C57070   4.233   4.656   3.292 -0.7362  0.4484  0.0627
  433MOL0     O57071   4.126   4.776   2.963 -0.1501  0.2398 -0.5056
  433MOL0     C57072   4.445   4.905   2.891  1.1766  0.0547  0.3101
  433MOL0     C57073   4.520   4.949   2.781 -0.2035  1.0522 -0.1908
  433MOL0     N57074   4.650   5.565   2.398 -0.0197  1.0002  0.3160
  433MOL0     N57075   4.597   5.680   2.388 -0.2833  0.3167  0.6359
  433MOL0     C57076   5.018   6.612   2.508 -0.1325 -0.1949 -0.3099
  433MOL0     C57077   5.136   6.672   2.512  0.2252 -0.5401 -0.4695
  433MOL0     C57078   5.418   7.044   2.513  0.2091  0.0049 -0.0196
  433MOL0     C57079   5.523   6.970   2.553  0.2615 -0.5544 -0.2992
  433MOL0     C57080   5.646   7.019   2.595  0.3681  0.8916 -0.1675
  433MOL0     C57081   5.666   7.154   2.618 -0.1785 -0.0783 -0.5213
  433MOL0     O57082   5.786   7.192   2.653 -1.0194  0.0368 -0.1736
  433MOL0     C57083   5.818   7.329   2.641 -0.7072 -0.4895 -0.6644
  433MOL0     C57084   5.856   7.368   2.498  0.3750  0.0832  0.2114
  433MOL0     C57085   5.998   7.323   2.462 -0.2024  0.3139 -0.0051
  433MOL0     C57086   5.994   7.189   2.390  0.1423 -0.0750 -0.0759
  433MOL0     C57087   6.112   7.116   2.392 -0.2968 -0.6452  0.4651
  433MOL0     C57088   6.217   7.053   2.401  0.1323 -0.2370 -1.1048
  433MOL0     C57089   5.557   7.233   2.586 -0.4140 -0.4934 -0.1393
  433MOL0     C57090   5.440   7.181   2.530 -0.0497 -0.4372 -0.2308
  433MOL0     H57091   5.084   6.923   2.290 -0.1432  1.1583  1.6799
  433MOL0     H57092   4.869   6.793   2.260 -0.3094 -1.8718 -0.4991
  433MOL0     H57093   4.663   6.696   2.505  0.7184 -0.1488  1.5071
  433MOL0     H57094   4.760   6.591   2.606 -0.6444  0.9652  0.1330
  433MOL0     H57095   4.532   6.512   2.420  0.5376 -0.0401 -0.1582
  433MOL0     H57096   4.559   6.463   2.588  0.3014  0.6960 -0.3535
  433MOL0     H57097   4.747   6.315   2.527  0.4318  0.1989 -1.2336
  433MOL0     H57098   4.729   6.372   2.353 -0.5559 -0.6598 -0.1686
  433MOL0     H57099   4.551   6.204   2.519  0.7706  0.4354 -0.8440
  433MOL0     H57100   4.476   6.277   2.377 -0.3242  0.1785 -0.4248
  433MOL0     H57101   4.697   6.064   2.347 -1.2779 -0.8334  0.6092
  433MOL0     H57102   4.629   6.174   2.228  2.6271 -1.4534 -1.1009
  433MOL0     H57103   4.405   6.089   2.284  0.4128  0.7260 -0.9395
  433MOL0     H57104   4.480   5.987   2.409  1.4863 -1.7787 -0.1642
  433MOL0     H57105   4.513   5.971   2.120 -0.5744  1.7075  0.7668
  433MOL0     H57106   4.627   5.878   2.232 -1.5256 -0.5185  1.0348
  433MOL0     H57107   4.372   5.761   2.147 -0.8736 -0.3183  1.4959
  433MOL0     H57108   4.345   5.827   2.300  0.5088  3.7434 -0.1917
  433MOL0     H57109   4.426   5.519   2.164  1.0885  1.5345 -1.2232
  433MOL0     H57110   4.731   5.319   2.256  1.4268  3.4987  3.1206
  433MOL0     H57111   4.569   5.284   2.202 -0.4241  2.9124 -1.3195
  433MOL0     H57112   4.500   5.225   2.427 -0.4341  0.4894  1.2832
  433MOL0     H57113   4.638   5.311   2.502 -0.2783  0.4224 -0.8585
  433MOL0     H57114   4.688   5.067   2.327  1.4214 -1.7859  1.0458
  433MOL0     H57115   4.803   5.168   2.417  0.3181 -1.1695 -0.0038
  433MOL0     H57116   4.652   5.110   2.639  1.7698 -0.3371  0.3369
  433MOL0     H57117   4.744   4.983   2.560 -0.5891 -0.3373 -0.9830
  433MOL0     H57118   4.307   4.891   2.531 -1.9647 -1.6570  0.4895
  433MOL0     H57119   4.158   4.826   2.726 -0.7267  0.1723  2.7246
  433MOL0     H57120   4.090   4.943   3.194 -0.1286 -0.0865  0.1904
  433MOL0     H57121   3.931   4.878   3.396  3.4551  3.8058  2.1233
  433MOL0     H57122   3.795   4.745   3.516 -0.7720  2.4015  1.5121
  433MOL0     H57123   3.879   4.805   3.668 -2.4324  0.8235 -0.0826
  433MOL0     H57124   3.833   4.589   3.763  1.6654 -0.3039 -1.2905
  433MOL0     H57125   3.748   4.547   3.612  1.2428  0.7230 -1.7517
  433MOL0     H57126   3.586   4.720   3.650  0.8183  2.6162  0.1389
  433MOL0     H57127   3.681   4.786   3.782  2.1986 -1.9653  2.2551
  433MOL0     H57128   3.552   4.508   3.805 -3.0722 -1.7400  3.9835
  433MOL0     H57129   3.623   4.606   3.933 -1.1542  1.6491  0.8846
  433MOL0     H57130   3.349   4.603   3.854  0.0368  0.0675  0.6730
  433MOL0     H57131   3.398   4.757   3.817  0.0592 -1.3621 -0.6937
  433MOL0     H57132   3.515   4.753   4.062  1.1006 -2.7913 -0.3953
  433MOL0     H57133   3.410   4.615   4.084  3.3416  0.7738  0.3307
  433MOL0     H57134   3.312   4.890   4.020  3.4566 -0.1812 -2.6803
  433MOL0     H57135   3.200   4.751   4.031 -0.2934  0.9813  0.2009
  433MOL0     H57136   3.177   4.860   4.227  1.1688  2.5702 -1.7757
  433MOL0     H57137   3.348   4.865   4.264  1.5569 -0.2179 -2.7297
  433MOL0     H57138   4.176   4.541   3.463 -3.1161  0.1000  1.3817
  433MOL0     H57139   4.306   4.582   3.261 -0.0856  1.2827 -0.4529
  433MOL0     H57140   4.483   4.918   2.991 -0.3194  2.3164  0.6416
  433MOL0     H57141   4.619   4.983   2.810 -1.2130  0.8633  4.2067
  433MOL0     H57142   4.993   6.525   2.567 -2.0070 -0.7784 -1.8322
  433MOL0     H57143   5.222   6.637   2.568  2.5224  0.9785 -2.8163
  433MOL0     H57144   5.515   6.862   2.544 -0.5187 -0.4541 -0.9408
  433MOL0     H57145   5.724   6.954   2.633 -0.6145  0.9173  1.9978
  433MOL0     H57146   5.897   7.356   2.711  0.4503  0.3086 -2.2293
  433MOL0     H57147   5.733   7.393   2.666 -0.4864  0.8666 -3.0730
  433MOL0     H57148   5.779   7.337   2.427  1.4239  0.6959 -1.2317
  433MOL0     H57149   5.852   7.476   2.480  1.4579 -0.0992 -1.2752
  433MOL0     H57150   6.051   7.325   2.557  0.9939  3.1347 -0.6151
  433MOL0     H57151   6.044   7.402   2.400  0.7217 -0.4288 -0.2796
  433MOL0     H57152   5.926   7.137   2.459  0.0472  2.3898  1.8291
  433MOL0     H57153   5.958   7.209   2.289  1.3606 -2.3340 -1.0171
  433MOL0     H57154   6.311   7.008   2.423  0.1793  1.8778  4.4342
  433MOL0     H57155   5.550   7.337   2.615 -2.4331 -0.3600 -0.9638
  433MOL0     H57156   5.352   7.240   2.508 -1.6267 -2.4782  0.2606
  434MOL0     O57157   9.238   7.453   4.309  0.0936  0.5233  0.2285
  434MOL0     C57158   9.236   7.495   4.425 -1.0364 -0.3534  0.1066
  434MOL0     O57159   9.133   7.558   4.494 -0.1644 -0.2473 -0.1864
  434MOL0     C57160   9.017   7.587   4.420  1.1976  0.1102 -0.3037
  434MOL0     C57161   8.990   7.719   4.375 -0.2300 -0.5437 -0.1057
  434MOL0     C57162   8.889   7.740   4.279 -0.2463 -0.8342 -0.4637
  434MOL0     C57163   8.809   7.641   4.241 -0.0291  0.1157  0.0951
  434MOL0     O57164   8.705   7.650   4.155 -0.1300  0.7052 -0.0902
  434MOL0     C57165   8.642   7.780   4.159 -0.4133  1.7270 -0.0355
  434MOL0     C57166   8.503   7.775   4.098 -0.5798  0.8046 -0.3478
  434MOL0     C57167   8.426   7.903   4.113 -0.0597 -0.5829  0.1943
  434MOL0     C57168   8.298   7.888   4.027 -0.0381 -0.2238  0.0588
  434MOL0     C57169   8.181   7.983   4.045 -0.3174 -0.2362 -0.1111
  434MOL0     C57170   8.110   8.007   3.910 -0.1811  1.3553  0.2707
  434MOL0     C57171   7.991   8.095   3.926  0.0178 -0.6858  1.0161
  434MOL0     C57172   8.029   8.239   3.947 -0.1726  0.3804  0.1060
  434MOL0     N57173   7.914   8.332   3.975  0.4052 -0.0592 -0.0745
  434MOL0     C57174   7.790   8.333   3.922 -0.0199 -0.9027  0.1883
  434MOL0     C57175   7.733   8.445   3.966  0.2908 -0.8642  0.3658
  434MOL0     C57176   7.603   8.491   3.913 -0.3873  0.1291 -0.5034
  434MOL0     C57177   7.483   8.495   4.018 -0.7546  0.2948 -0.0125
  434MOL0     C57178   7.455   8.348   4.069 -0.1868  0.0300 -0.5394
  434MOL0     C57179   7.344   8.341   4.178  0.0556  0.7780 -0.0951
  434MOL0     O57180   7.243   8.441   4.145 -0.2914 -0.0522 -0.0398
  434MOL0     C57181   7.110   8.428   4.194 -0.4374  0.3304  0.1573
  434MOL0     C57182   7.072   8.322   4.285  0.3187 -0.1603  0.9011
  434MOL0     C57183   6.936   8.313   4.319  0.5904  0.1610  0.5203
  434MOL0     C57184   6.840   8.395   4.260  0.4747  1.5351 -0.3040
  434MOL0     C57185   6.692   8.392   4.304 -0.6221 -0.4769  0.5127
  434MOL0     O57186   6.658   8.289   4.393 -1.0341  0.3715 -0.4222
  434MOL0     C57187   6.530   8.289   4.455  0.1462  0.0948  0.0626
  434MOL0     C57188   6.432   8.203   4.405  0.6495 -0.9590 -0.9832
  434MOL0     C57189   6.303   8.199   4.463 -0.4678 -1.0868 -0.5976
  434MOL0     C57190   6.286   8.267   4.581  0.6094 -0.3139 -0.7390
  434MOL0     O57191   6.177   8.261   4.667 -0.1362 -0.4251  0.7220
  434MOL0     C57192   6.084   8.365   4.633 -0.2647 -0.2706 -0.2490
  434MOL0     C57193   5.968   8.363   4.733  0.9345  0.3047  0.2261
  434MOL0     C57194   5.852   8.274   4.673  0.3353  0.2617  0.6683
  434MOL0     C57195   5.710   8.275   4.757 -0.0243  0.0164  0.9995
  434MOL0     C57196   5.624   8.158   4.722  0.6490  0.1525 -0.4850
  434MOL0     C57197   5.471   8.178   4.748 -0.3602 -0.2108  0.9769
  434MOL0     C57198   5.404   8.044   4.755  0.4186  0.9104  0.5305
  434MOL0     C57199   5.259   8.052   4.782 -0.6378  0.1321 -1.0622
  434MOL0    Cl57200   5.167   7.940   4.688 -0.0042 -0.2494 -0.4773
  434MOL0     C57201   6.389   8.349   4.634 -0.2862 -0.0399  0.9447
  434MOL0     C57202   6.502   8.373   4.563  0.4314  0.2893 -0.5234
  434MOL0     O57203   6.619   8.478   4.271 -0.1605 -0.1039  0.2416
  434MOL0     C57204   6.879   8.499   4.176 -0.6501 -0.3093 -0.5120
  434MOL0     C57205   7.017   8.510   4.143  1.0237 -0.0543 -0.3146
  434MOL0     N57206   7.824   8.520   4.034  0.3784 -0.3386 -0.2020
  434MOL0     N57207   7.923   8.448   4.059  0.1762  0.3125  0.1143
  434MOL0     C57208   8.831   7.511   4.292  0.0863 -1.8873 -0.9788
  434MOL0     C57209   8.932   7.486   4.387 -0.2324 -0.1595 -0.6177
  434MOL0     C57210   9.353   7.462   4.502 -1.1201  0.0094 -0.0990
  434MOL0     C57211   9.483   7.432   4.442  0.5446  0.2819 -0.2348
  434MOL0     C57212   9.590   7.414   4.529 -0.9153 -0.1646  0.4643
  434MOL0     C57213   9.575   7.416   4.670 -0.0871 -0.5567  0.7775
  434MOL0     O57214   9.697   7.389   4.743  0.1546 -0.1105  0.2409
  434MOL0     C57215   9.704   7.403   4.881 -0.5803  0.1167 -0.2509
  434MOL0     C57216   9.844   7.358   4.915 -0.1763 -0.1956 -0.2573
  434MOL0     C57217   9.951   7.431   4.843  0.3146  0.5179  0.6429
  434MOL0     C57218  10.089   7.397   4.902 -0.6693  0.3204 -0.2989
  434MOL0     C57219  10.187   7.485   4.833 -0.6009  0.2751 -0.2527
  434MOL0     C57220  10.267   7.560   4.791 -0.5590  0.1275  1.1633
  434MOL0     C57221   9.448   7.441   4.724  0.5411 -0.4625 -0.2168
  434MOL0     C57222   9.341   7.475   4.642 -0.5547 -0.1971 -0.0005
  434MOL0     H57223   9.051   7.797   4.418 -2.2600  0.0191  1.9970
  434MOL0     H57224   8.864   7.838   4.240 -5.4351 -0.1602  3.5342
  434MOL0     H57225   8.712   7.850   4.111  0.6661 -0.5972 -2.0333
  434MOL0     H57226   8.637   7.820   4.261  0.7583  0.4898  0.5388
  434MOL0     H57227   8.448   7.692   4.143 -0.2823  0.5256 -0.4880
  434MOL0     H57228   8.517   7.756   3.991  1.7201  2.0648 -0.3270
  434MOL0     H57229   8.489   7.992   4.098  0.3484 -0.6564  1.3757
  434MOL0     H57230   8.390   7.907   4.216 -0.1951  1.9109  0.1318
  434MOL0     H57231   8.345   7.899   3.928  0.9791 -0.9753  0.4351
  434MOL0     H57232   8.254   7.788   4.034  2.7161 -1.7119 -1.8450
  434MOL0     H57233   8.226   8.074   4.085 -0.7215 -0.5530  1.0958
  434MOL0     H57234   8.109   7.947   4.119  0.3657  1.4018  1.4390
  434MOL0     H57235   8.082   7.907   3.876 -1.2163  0.8256  2.4988
  434MOL0     H57236   8.179   8.056   3.841  1.3368 -1.0286 -0.0030
  434MOL0     H57237   7.924   8.089   3.839 -0.5611 -0.0826  1.4129
  434MOL0     H57238   7.937   8.065   4.016  1.5542  1.1852  2.6432
  434MOL0     H57239   8.071   8.276   3.853 -1.1390 -1.9380 -1.3079
  434MOL0     H57240   8.115   8.244   4.015 -0.8717  1.0930  0.9684
  434MOL0     H57241   7.744   8.270   3.847  0.2402 -0.5019 -0.3142
  434MOL0     H57242   7.578   8.422   3.832  0.9368  0.2073 -1.0014
  434MOL0     H57243   7.605   8.590   3.865 -0.6840 -0.4864 -1.8464
  434MOL0     H57244   7.394   8.543   3.976 -1.2253  1.9622  2.6154
  434MOL0     H57245   7.508   8.567   4.097 -1.2311 -0.2281  0.6215
  434MOL0     H57246   7.419   8.285   3.987  1.1969 -3.3004  1.2071
  434MOL0     H57247   7.542   8.296   4.108 -0.6933 -1.0950 -0.8735
  434MOL0     H57248   7.381   8.361   4.279 -0.2650  1.5268 -0.1185
  434MOL0     H57249   7.300   8.241   4.187 -0.3956  1.1458  2.7783
  434MOL0     H57250   7.140   8.252   4.333  0.1265 -0.0708  1.3079
  434MOL0     H57251   6.901   8.234   4.385 -0.8926 -0.7157 -1.2139
  434MOL0     H57252   6.467   8.137   4.325  1.2319 -0.2755 -1.3024
  434MOL0     H57253   6.220   8.138   4.427 -0.5389 -0.5910 -1.2889
  434MOL0     H57254   6.058   8.359   4.527 -0.6666 -2.1967 -0.0723
  434MOL0     H57255   6.127   8.465   4.640  1.7119 -1.2010  2.1134
  434MOL0     H57256   5.934   8.462   4.764 -0.8467 -0.4767  0.8963
  434MOL0     H57257   5.999   8.329   4.832 -0.6836 -2.2493 -0.0710
  434MOL0     H57258   5.885   8.170   4.668  1.8937  0.5151  3.5909
  434MOL0     H57259   5.832   8.300   4.569  1.0999  0.1854  0.4999
  434MOL0     H57260   5.734   8.251   4.861  1.1928 -0.2991  0.6605
  434MOL0     H57261   5.670   8.372   4.726  2.7571  1.1939  0.7927
  434MOL0     H57262   5.653   8.069   4.779 -1.3482  0.2253  0.7569
  434MOL0     H57263   5.637   8.122   4.620 -2.6103 -2.9099 -0.0081
  434MOL0     H57264   5.434   8.241   4.667 -1.2042 -1.9603 -0.0555
  434MOL0     H57265   5.445   8.220   4.846 -0.0338 -2.2477  2.0032
  434MOL0     H57266   5.415   7.985   4.663  0.2716 -1.0021  1.6706
  434MOL0     H57267   5.455   7.984   4.831  0.8591  0.4936 -0.0827
  434MOL0     H57268   5.231   8.156   4.763 -2.6288  0.3641  2.2571
  434MOL0     H57269   5.228   8.019   4.882 -0.1205 -1.4618 -1.3921
  434MOL0     H57270   6.380   8.394   4.732 -0.0933 -0.7562  1.3044
  434MOL0     H57271   6.588   8.432   4.596  2.0729 -1.1185 -2.0515
  434MOL0     H57272   6.808   8.577   4.150 -0.9110 -1.2898 -3.0749
  434MOL0     H57273   7.057   8.592   4.084  1.1433 -0.2154 -0.4587
  434MOL0     H57274   8.763   7.434   4.256 -1.7972 -0.2918 -1.0367
  434MOL0     H57275   8.961   7.388   4.424  0.7711 -0.2576 -1.6176
  434MOL0     H57276   9.489   7.425   4.333 -0.4325  1.0484 -0.3490
  434MOL0     H57277   9.692   7.393   4.499 -0.3911 -1.4438  2.8836
  434MOL0     H57278   9.625   7.342   4.927  0.6721 -1.0365  0.4434
  434MOL0     H57279   9.703   7.506   4.920 -0.3918 -0.4785  1.3885
  434MOL0     H57280   9.871   7.357   5.021  1.4592 -1.1691 -0.6451
  434MOL0     H57281   9.856   7.254   4.886  1.7650  0.2743 -1.2755
  434MOL0     H57282   9.944   7.540   4.831  3.3079  0.8046  0.7432
  434MOL0     H57283   9.962   7.382   4.746  1.9243  1.5848  0.2493
  434MOL0     H57284  10.094   7.414   5.010  2.1603  1.5766 -0.5407
  434MOL0     H57285  10.114   7.293   4.881  4.1340  0.5410  2.6849
  434MOL0     H57286  10.330   7.626   4.735 -2.6162  1.9746  0.8849
  434MOL0     H57287   9.435   7.432   4.831  1.5718  0.9607  0.0565
  434MOL0     H57288   9.246   7.498   4.690 -0.8963 -2.9675  0.8350
  435MOL0     O57289   8.514   6.983   9.928 -0.0383  0.8970  0.1222
  435MOL0     C57290   8.492   7.021   9.808 -0.8120 -0.2564 -0.0479
  435MOL0     O57291   8.374   7.063   9.755 -0.7050  0.1727  0.4222
  435MOL0     C57292   8.257   7.094   9.817 -0.7426  0.2155 -0.6111
  435MOL0     C57293   8.159   7.164   9.758 -0.8636 -0.8634  0.5207
  435MOL0     C57294   8.035   7.197   9.820  0.0515  0.6253  1.1623
  435MOL0     C57295   8.005   7.134   9.945  0.5877  0.1470  1.1172
  435MOL0     O57296   7.875   7.155   9.988  0.3609  0.9137  0.0648
  435MOL0     C57297   7.837   7.104  10.123  0.1047 -0.2479 -0.4363
  435MOL0     C57298   7.692   7.113  10.142 -0.7709  0.0718 -1.0624
  435MOL0     C57299   7.643   7.030  10.260  0.7212 -0.2410  0.1897
  435MOL0     C57300   7.710   7.072  10.397  0.0148 -0.2821 -0.2672
  435MOL0     C57301   7.627   7.002  10.514 -0.0439  0.4337 -0.2696
  435MOL0     C57302   7.508   7.090  10.566 -0.3338  0.2108  0.6840
  435MOL0     C57303   7.431   7.033  10.684 -0.1641  0.2538  0.3097
  435MOL0     C57304   7.327   6.934  10.632  0.9139 -0.0136 -0.0350
  435MOL0     N57305   7.308   6.828  10.721 -0.6512  0.1192 -0.5131
  435MOL0     C57306   7.356   6.704  10.695  0.1808 -0.0288  0.2553
  435MOL0     C57307   7.299   6.642  10.799 -0.0488  0.0800 -0.1452
  435MOL0     C57308   7.305   6.505  10.821 -0.8074  0.7586 -0.1495
  435MOL0     C57309   7.395   6.466  10.940  0.3235  0.2857 -0.5566
  435MOL0     C57310   7.541   6.435  10.904 -0.4299 -0.1692 -0.3266
  435MOL0     C57311   7.615   6.545  10.830 -0.4968  0.3156 -0.0303
  435MOL0     O57312   7.755   6.503  10.817  0.1628  0.3614 -0.5560
  435MOL0     C57313   7.847   6.579  10.753 -0.2973 -0.5663  0.3365
  435MOL0     C57314   7.815   6.678  10.664  0.1800 -0.0724 -0.0682
  435MOL0     C57315   7.917   6.750  10.594 -0.6154 -0.1701 -0.8358
  435MOL0     C57316   8.048   6.712  10.607  0.1998  0.1234 -0.5346
  435MOL0     C57317   8.151   6.766  10.521 -0.1483 -0.1931 -0.2052
  435MOL0     O57318   8.276   6.764  10.576  0.2806  0.1578  0.2583
  435MOL0     C57319   8.388   6.754  10.499 -0.6167 -0.3816 -0.2821
  435MOL0     C57320   8.475   6.646  10.522  0.5478  0.4717 -0.1154
  435MOL0     C57321   8.594   6.629  10.454 -0.2133 -0.6887 -0.2230
  435MOL0     C57322   8.634   6.727  10.365  0.2508  0.1372  0.5867
  435MOL0     O57323   8.762   6.710  10.316  0.4771 -0.1650 -0.4899
  435MOL0     C57324   8.831   6.824  10.257 -0.0529  0.1126 -0.7344
  435MOL0     C57325   8.840   6.835  10.106 -0.5861  0.0501 -0.3459
  435MOL0     C57326   8.940   6.733  10.051 -0.3650  0.5381  0.4272
  435MOL0     C57327   9.078   6.818  10.041  0.8163  0.0077  0.8299
  435MOL0     C57328   9.179   6.753   9.942 -1.2077  0.5819  0.2944
  435MOL0     C57329   9.310   6.829   9.919 -0.3907 -0.4938 -0.8300
  435MOL0     C57330   9.377   6.766   9.808 -0.7506 -0.5272  0.6300
  435MOL0     C57331   9.515   6.834   9.764  0.0971  0.5274 -0.1079
  435MOL0    Cl57332   9.629   6.834   9.911 -0.6987 -0.2945 -0.1192
  435MOL0     C57333   8.541   6.823  10.315  0.1644  0.3736 -0.2378
  435MOL0     C57334   8.419   6.838  10.389 -0.1087 -0.1226  0.3094
  435MOL0     O57335   8.129   6.796  10.404  0.5571 -0.3090  0.0277
  435MOL0     C57336   8.078   6.609  10.701  0.7442  0.1340  0.2930
  435MOL0     C57337   7.981   6.542  10.771  1.2073 -0.6892  0.7879
  435MOL0     N57338   7.208   6.724  10.870  0.6783 -0.3733  0.4582
  435MOL0     N57339   7.222   6.836  10.821  0.9922  0.0240 -0.5446
  435MOL0     C57340   8.103   7.058  10.008 -0.5954 -0.1952  0.4213
  435MOL0     C57341   8.230   7.044   9.949  0.2033 -0.4992 -0.1350
  435MOL0     C57342   8.615   7.009   9.720 -1.8199  0.6329 -0.3125
  435MOL0     C57343   8.594   6.993   9.582  0.3492 -0.3039 -1.0094
  435MOL0     C57344   8.706   6.974   9.499  0.3529 -1.1975 -0.3610
  435MOL0     C57345   8.839   6.972   9.547  1.2260 -0.4774 -0.3351
  435MOL0     O57346   8.947   6.948   9.471  0.0321  0.0963 -0.1979
  435MOL0     C57347   9.083   6.953   9.512  0.3601 -0.3720 -0.4237
  435MOL0     C57348   9.173   6.937   9.391 -0.0003 -0.2563 -0.8992
  435MOL0     C57349   9.321   6.929   9.434 -0.1842  0.6033  0.3612
  435MOL0     C57350   9.402   6.930   9.302 -0.1032  0.4582  0.8613
  435MOL0     C57351   9.534   6.882   9.332 -0.1341  0.1418  0.0818
  435MOL0     C57352   9.637   6.828   9.366 -0.0808 -0.7860  0.3602
  435MOL0     C57353   8.858   6.976   9.689 -0.0030  0.5523  0.8073
  435MOL0     C57354   8.745   6.993   9.769  0.6829  0.2982  0.1533
  435MOL0     H57355   8.171   7.205   9.658 -0.5291 -0.1953  0.8269
  435MOL0     H57356   7.965   7.255   9.762  1.6680  3.5578  1.9464
  435MOL0     H57357   7.885   7.171  10.194 -1.4386  1.0724 -0.5678
  435MOL0     H57358   7.879   7.006  10.146 -0.3497  0.0613  1.9445
  435MOL0     H57359   7.641   7.077  10.052 -4.9553  1.6766  0.4151
  435MOL0     H57360   7.664   7.219  10.151  0.0069  0.3176 -1.4431
  435MOL0     H57361   7.652   6.923  10.238 -1.3597 -0.7437  1.5204
  435MOL0     H57362   7.537   7.049  10.276  1.1431  0.3560  2.7120
  435MOL0     H57363   7.816   7.043  10.396  0.2477 -0.0859 -5.1368
  435MOL0     H57364   7.706   7.181  10.413 -0.6474 -0.5616  1.7382
  435MOL0     H57365   7.698   6.987  10.595  2.2610 -2.5395 -2.5937
  435MOL0     H57366   7.593   6.900  10.494 -1.3947  0.5385  1.3410
  435MOL0     H57367   7.444   7.117  10.482  0.0564  2.4100  1.0438
  435MOL0     H57368   7.552   7.185  10.599 -2.1243  0.9125  1.1485
  435MOL0     H57369   7.509   6.980  10.740 -0.0416 -1.8223 -1.6736
  435MOL0     H57370   7.383   7.106  10.751 -3.2837 -2.6183  1.4583
  435MOL0     H57371   7.334   6.899  10.529 -0.8366 -0.9759  0.1269
  435MOL0     H57372   7.233   6.990  10.628  0.6652 -0.3913  0.4378
  435MOL0     H57373   7.422   6.665  10.618 -2.7783 -2.9235 -1.0797
  435MOL0     H57374   7.351   6.452  10.737 -2.6716 -1.2663  0.0130
  435MOL0     H57375   7.205   6.463  10.837  0.1556 -2.6397 -2.0093
  435MOL0     H57376   7.354   6.379  10.992 -3.2922  1.7553 -0.6472
  435MOL0     H57377   7.390   6.553  11.006 -0.8478  1.4464 -2.0748
  435MOL0     H57378   7.600   6.416  10.993 -0.3332 -0.5106 -0.4625
  435MOL0     H57379   7.549   6.335  10.862  0.5699 -1.3953  2.5428
  435MOL0     H57380   7.612   6.638  10.886 -3.3776 -0.8138  1.9561
  435MOL0     H57381   7.584   6.543  10.725 -0.0168 -0.5559 -0.1714
  435MOL0     H57382   7.712   6.707  10.647  0.2406  0.9645  1.1530
  435MOL0     H57383   7.901   6.845  10.544  1.0059  0.1662 -0.8002
  435MOL0     H57384   8.448   6.564  10.588  0.7076 -2.0294 -2.9624
  435MOL0     H57385   8.654   6.547  10.492  0.2912 -0.6629 -0.9579
  435MOL0     H57386   8.929   6.818  10.304 -2.0800 -2.3150  3.8073
  435MOL0     H57387   8.789   6.920  10.289 -0.2082 -0.3455  0.4568
  435MOL0     H57388   8.860   6.939  10.082 -3.1469  0.7926  0.3556
  435MOL0     H57389   8.738   6.822  10.069 -0.6966  0.5302 -0.2127
  435MOL0     H57390   8.899   6.707   9.953 -2.1316  1.2241  0.9276
  435MOL0     H57391   8.945   6.633  10.095 -3.7867 -1.6861 -3.4930
  435MOL0     H57392   9.060   6.918   9.998  1.8639 -0.4822 -0.8717
  435MOL0     H57393   9.125   6.824  10.139  1.7529 -2.4416  0.5997
  435MOL0     H57394   9.122   6.744   9.849 -3.6368  1.8393  1.5323
  435MOL0     H57395   9.202   6.652   9.978  1.5922  0.8728 -0.4726
  435MOL0     H57396   9.374   6.826  10.008  2.4390  0.0951 -2.6991
  435MOL0     H57397   9.292   6.935   9.899  0.1277  0.4283  2.8995
  435MOL0     H57398   9.398   6.661   9.828 -0.6366 -0.5469  0.4126
  435MOL0     H57399   9.311   6.765   9.721 -0.2654 -1.3141  0.2580
  435MOL0     H57400   9.490   6.937   9.735 -1.5730 -0.4548 -2.5146
  435MOL0     H57401   9.552   6.786   9.672  0.8504 -0.1093  0.5132
  435MOL0     H57402   8.564   6.892  10.235 -1.0860  0.8847 -0.1922
  435MOL0     H57403   8.355   6.921  10.362  0.0745  0.2006  0.8719
  435MOL0     H57404   8.180   6.574  10.710  2.2786  3.6298 -1.4443
  435MOL0     H57405   8.008   6.474  10.850 -0.4891 -2.2064  0.1408
  435MOL0     H57406   8.088   7.019  10.108  0.4751 -1.1993  0.2206
  435MOL0     H57407   8.305   6.996  10.011 -0.5469  0.3273  1.4932
  435MOL0     H57408   8.490   6.984   9.550 -0.9776  2.5968  1.8569
  435MOL0     H57409   8.705   6.969   9.391  0.1193  2.3200 -0.6396
  435MOL0     H57410   9.095   6.872   9.584 -1.8903 -1.8999 -1.6264
  435MOL0     H57411   9.110   7.042   9.570  0.6141 -0.9198  0.3166
  435MOL0     H57412   9.128   6.848   9.347  1.5374 -2.6841  2.0435
  435MOL0     H57413   9.154   7.012   9.314  3.5737  1.2735 -0.4632
  435MOL0     H57414   9.342   6.835   9.485 -1.0638 -1.7218 -3.2059
  435MOL0     H57415   9.348   7.011   9.501 -3.1771  2.2465 -0.2848
  435MOL0     H57416   9.362   6.857   9.231  2.5504 -1.2741  0.9990
  435MOL0     H57417   9.408   7.026   9.250 -2.1834 -0.0038 -0.3418
  435MOL0     H57418   9.736   6.795   9.393  0.2174  0.6906  1.1419
  435MOL0     H57419   8.953   6.969   9.741  0.6016  0.3636 -0.2949
  435MOL0     H57420   8.768   7.017   9.873  0.5189 -0.5878  0.4006
  436MOL0     O57421   7.961   3.264  11.005  0.1286 -0.1266 -0.1120
  436MOL0     C57422   7.966   3.202  11.111 -0.2342 -0.7103 -1.1829
  436MOL0     O57423   8.082   3.149  11.158 -0.2171  0.7267 -0.0010
  436MOL0     C57424   8.202   3.160  11.091  0.6847 -0.2078 -0.4487
  436MOL0     C57425   8.222   3.105  10.964  0.3233 -0.1300 -0.1366
  436MOL0     C57426   8.346   3.112  10.908  0.3516  0.1250 -0.6615
  436MOL0     C57427   8.456   3.180  10.964 -0.2216  0.4142  0.2569
  436MOL0     O57428   8.557   3.214  10.872 -1.0221 -0.0871 -0.9809
  436MOL0     C57429   8.691   3.164  10.869  0.1197 -0.5170 -0.2682
  436MOL0     C57430   8.772   3.223  10.761  0.3023 -0.9990 -0.0618
  436MOL0     C57431   8.917   3.188  10.771  0.6217 -0.3323 -0.0670
  436MOL0     C57432   9.001   3.217  10.650 -0.3694  0.0189 -0.3658
  436MOL0     C57433   9.156   3.176  10.645 -0.0887 -0.6430 -0.2121
  436MOL0     C57434   9.178   3.033  10.672 -0.9070  0.1006  0.7949
  436MOL0     C57435   9.331   3.003  10.660  0.3609 -0.1582  0.1489
  436MOL0     C57436   9.332   2.866  10.708 -0.2394 -0.0101 -0.0672
  436MOL0     N57437   9.459   2.803  10.673 -0.0409  0.4924 -0.3151
  436MOL0     C57438   9.579   2.848  10.629 -0.0462 -0.0308  0.2527
  436MOL0     C57439   9.664   2.740  10.632  0.5971  0.8389  0.0191
  436MOL0     C57440   9.815   2.743  10.598  0.0184  0.6817  0.1001
  436MOL0     C57441   9.821   2.652  10.479 -1.2907  0.0557  0.0717
  436MOL0     C57442   9.941   2.674  10.383 -0.2185  0.4205 -0.8054
  436MOL0     C57443  10.073   2.628  10.430 -0.2244  0.1585 -0.1560
  436MOL0     O57444  10.122   2.730  10.521 -0.1925 -0.3311 -0.2699
  436MOL0     C57445  10.255   2.765  10.498 -0.4312 -0.4423 -0.4812
  436MOL0     C57446  10.282   2.870  10.415 -0.3831  0.0616 -0.2141
  436MOL0     C57447  10.414   2.893  10.377  0.5118  0.2642  0.5659
  436MOL0     C57448  10.515   2.810  10.418 -0.3566  0.0967 -0.3418
  436MOL0     C57449  10.660   2.823  10.373 -0.5086  0.5763  0.1161
  436MOL0     O57450  10.737   2.706  10.363 -0.1630  1.1610  0.0034
  436MOL0     C57451  10.874   2.718  10.351  0.1345  0.0758  0.0999
  436MOL0     C57452  10.937   2.696  10.231  1.0864 -0.0826 -0.2163
  436MOL0     C57453  11.076   2.706  10.225  0.2925 -0.6589  0.1457
  436MOL0     C57454  11.149   2.748  10.330  0.1185  0.8546 -0.9980
  436MOL0     O57455  11.288   2.773  10.326  0.3152  0.1386 -0.6579
  436MOL0     C57456  11.353   2.803  10.198 -0.5999 -0.0681 -0.0651
  436MOL0     C57457  11.437   2.681  10.159 -0.7699  0.5379  0.4704
  436MOL0     C57458  11.493   2.695  10.024  0.3646  0.5640 -0.7797
  436MOL0     C57459  11.551   2.563   9.974 -0.7625  0.5346 -0.7206
  436MOL0     C57460  11.592   2.573   9.825  0.0073  0.6936 -0.4121
  436MOL0     C57461  11.496   2.622   9.721  0.1154 -0.6967 -0.5596
  436MOL0     C57462  11.548   2.611   9.576  0.6276 -0.4918 -0.0169
  436MOL0     C57463  11.433   2.645   9.479  0.0757  0.0453 -0.3450
  436MOL0    Cl57464  11.281   2.542   9.487 -0.0385 -0.1888 -0.3756
  436MOL0     C57465  11.089   2.776  10.456  0.0986  0.3380 -0.0980
  436MOL0     C57466  10.947   2.762  10.464  0.1827  0.2049  0.2365
  436MOL0     O57467  10.704   2.940  10.371  0.0361 -0.2525  0.0748
  436MOL0     C57468  10.496   2.704  10.501 -0.2716 -0.8032 -0.6115
  436MOL0     C57469  10.363   2.675  10.543  0.5250  0.3241  0.4211
  436MOL0     N57470   9.596   2.628  10.672 -0.1231 -0.2161 -0.2638
  436MOL0     N57471   9.477   2.665  10.694 -0.2497 -0.5507 -0.0701
  436MOL0     C57472   8.440   3.232  11.092  0.6043 -0.3424  1.0378
  436MOL0     C57473   8.311   3.224  11.151  0.2226  1.0075 -0.8079
  436MOL0     C57474   7.850   3.191  11.198 -0.0638 -0.1279  0.3088
  436MOL0     C57475   7.858   3.187  11.336 -0.0965 -0.0588 -0.0052
  436MOL0     C57476   7.751   3.158  11.417 -0.3184 -0.3617  0.4341
  436MOL0     C57477   7.629   3.125  11.349 -0.0034  0.8042 -1.3762
  436MOL0     O57478   7.529   3.078  11.431 -0.4623  0.1664 -0.6839
  436MOL0     C57479   7.405   3.024  11.379 -0.2347 -0.1168  0.4403
  436MOL0     C57480   7.304   3.131  11.339 -0.7830 -0.5681  0.5115
  436MOL0     C57481   7.162   3.067  11.311 -0.7057  0.5636 -0.4889
  436MOL0     C57482   7.069   3.182  11.288  0.1254  0.9886  0.4973
  436MOL0     C57483   6.936   3.135  11.319 -0.5800 -0.8056  0.3977
  436MOL0     C57484   6.818   3.121  11.359  0.1625 -0.7911  1.1836
  436MOL0     C57485   7.615   3.126  11.209  0.1558  0.4859 -0.0749
  436MOL0     C57486   7.724   3.169  11.132 -0.2081  0.5335 -0.7033
  436MOL0     H57487   8.138   3.050  10.923 -0.1097 -0.4863  1.1893
  436MOL0     H57488   8.346   3.080  10.804 -2.1281  1.4251 -1.1232
  436MOL0     H57489   8.688   3.056  10.854  4.0247 -0.4335 -3.2487
  436MOL0     H57490   8.746   3.196  10.959  0.6421 -0.3377 -0.6461
  436MOL0     H57491   8.766   3.332  10.769 -0.3291 -1.0809  0.5610
  436MOL0     H57492   8.728   3.207  10.662 -0.8718 -0.6379  0.3871
  436MOL0     H57493   8.926   3.080  10.785 -0.5735 -0.1521  2.7920
  436MOL0     H57494   8.964   3.235  10.858 -1.2834  1.2564  0.1533
  436MOL0     H57495   8.959   3.174  10.558  0.9687 -1.3712 -0.3578
  436MOL0     H57496   8.999   3.326  10.638  0.4057 -0.0511 -1.2449
  436MOL0     H57497   9.198   3.236  10.726  0.6135 -1.7835  0.2869
  436MOL0     H57498   9.203   3.195  10.548 -0.1049 -0.0047 -0.0957
  436MOL0     H57499   9.116   2.971  10.606 -0.6082  0.2123  0.4121
  436MOL0     H57500   9.142   3.018  10.775  2.5391 -0.5031  2.0357
  436MOL0     H57501   9.361   3.010  10.555 -0.9968  0.5153 -0.2153
  436MOL0     H57502   9.378   3.078  10.724  1.6013  0.0636 -0.9895
  436MOL0     H57503   9.246   2.814  10.665 -2.5601  3.1281  0.4288
  436MOL0     H57504   9.323   2.872  10.817 -1.5591 -0.8025 -0.1236
  436MOL0     H57505   9.598   2.952  10.602 -1.9752  0.7143  1.4645
  436MOL0     H57506   9.875   2.700  10.678  0.3016  0.5585 -0.1749
  436MOL0     H57507   9.841   2.845  10.569 -0.5411  0.5165 -1.0511
  436MOL0     H57508   9.736   2.672  10.414 -0.5411  0.1618 -0.9082
  436MOL0     H57509   9.818   2.546  10.508 -2.8666 -0.5525 -2.0483
  436MOL0     H57510   9.918   2.608  10.298 -1.3861 -0.5614  0.2267
  436MOL0     H57511   9.933   2.778  10.350 -1.0091  1.0326  1.1882
  436MOL0     H57512  10.144   2.611  10.349  2.3099  1.5576  1.6052
  436MOL0     H57513  10.058   2.537  10.489  0.8713  0.7277  1.0598
  436MOL0     H57514  10.208   2.937  10.374 -0.7609 -0.2597 -0.0683
  436MOL0     H57515  10.426   2.972  10.304 -0.3324 -0.6429 -0.5934
  436MOL0     H57516  10.884   2.662  10.142  0.5983 -2.6491  0.9635
  436MOL0     H57517  11.127   2.685  10.131 -2.7385  1.6796 -2.2613
  436MOL0     H57518  11.422   2.886  10.213  2.0752 -2.3100  0.8268
  436MOL0     H57519  11.289   2.835  10.116  0.7088  0.6458 -0.8327
  436MOL0     H57520  11.385   2.585  10.168  1.8105 -0.8816  1.3319
  436MOL0     H57521  11.514   2.670  10.236 -0.9225  0.2278  0.5817
  436MOL0     H57522  11.566   2.777  10.024  1.8377 -0.6897 -0.9996
  436MOL0     H57523  11.417   2.729   9.953 -1.4692  1.2524  1.4236
  436MOL0     H57524  11.639   2.536  10.034 -1.5897  1.4998  1.0175
  436MOL0     H57525  11.483   2.479   9.988 -2.6888  1.9906 -0.9502
  436MOL0     H57526  11.628   2.475   9.791  0.8720  1.2038 -1.0159
  436MOL0     H57527  11.680   2.637   9.813 -0.6638  1.3571 -2.0954
  436MOL0     H57528  11.458   2.722   9.744 -0.1261 -0.1806 -2.9569
  436MOL0     H57529  11.409   2.556   9.726 -1.7052  1.6235  0.4289
  436MOL0     H57530  11.627   2.685   9.561  1.4886 -1.0529  1.5083
  436MOL0     H57531  11.587   2.511   9.554  4.3664  1.1816 -1.7850
  436MOL0     H57532  11.476   2.629   9.379  0.2149 -1.8093 -0.0256
  436MOL0     H57533  11.414   2.746   9.517  3.7207  0.5564  0.4742
  436MOL0     H57534  11.146   2.821  10.537 -0.6683  1.0900  0.0351
  436MOL0     H57535  10.906   2.777  10.564 -0.4651 -2.2193  0.4129
  436MOL0     H57536  10.574   2.637  10.537  2.2245  2.2255  0.0340
  436MOL0     H57537  10.359   2.579  10.594 -0.3879  2.4300  4.7554
  436MOL0     H57538   8.524   3.273  11.147 -0.8921  1.7570  1.8988
  436MOL0     H57539   8.295   3.264  11.251  1.3779 -2.0350  0.7294
  436MOL0     H57540   7.953   3.204  11.384 -0.5269 -1.1302  1.2749
  436MOL0     H57541   7.754   3.155  11.525  0.0645 -1.0935  0.4071
  436MOL0     H57542   7.360   2.969  11.463  1.6589 -0.5690  1.2308
  436MOL0     H57543   7.419   2.955  11.295 -1.3645 -1.1149  1.0372
  436MOL0     H57544   7.301   3.205  11.419  0.9956 -0.9889  0.9983
  436MOL0     H57545   7.331   3.182  11.247 -1.7171 -3.5427 -1.5766
  436MOL0     H57546   7.137   3.005  11.398 -0.5016 -0.9533 -1.4782
  436MOL0     H57547   7.160   2.995  11.228 -1.0195  2.9591 -2.6865
  436MOL0     H57548   7.095   3.272  11.344 -0.2399  1.2054  0.3270
  436MOL0     H57549   7.072   3.206  11.181 -2.8028 -1.3478 -0.2368
  436MOL0     H57550   6.718   3.109  11.396 -0.1584 -1.6841  0.0775
  436MOL0     H57551   7.531   3.102  11.144  2.1212 -1.9206 -1.9184
  436MOL0     H57552   7.716   3.174  11.024 -3.1140  1.2531 -0.5487
  437MOL0     O57553   9.045   1.529   8.073 -0.7076  0.4872 -0.1402
  437MOL0     C57554   9.026   1.597   8.170 -0.0180 -0.1552  0.3387
  437MOL0     O57555   8.902   1.632   8.227  0.0030 -0.3866  0.3779
  437MOL0     C57556   8.788   1.557   8.191  0.2843  1.1110 -1.3690
  437MOL0     C57557   8.675   1.609   8.245 -0.0435 -0.0080  1.0310
  437MOL0     C57558   8.550   1.545   8.218  0.2923  0.4665  0.3966
  437MOL0     C57559   8.543   1.429   8.143  0.2933  0.6955 -0.1018
  437MOL0     O57560   8.421   1.376   8.135 -0.3605  0.0482  0.4495
  437MOL0     C57561   8.412   1.258   8.051 -0.1362  0.5542 -0.6595
  437MOL0     C57562   8.266   1.205   8.029  0.5139 -0.2455 -0.2397
  437MOL0     C57563   8.174   1.297   7.948  0.5086 -0.5016 -0.0381
  437MOL0     C57564   8.026   1.260   7.951  0.4083 -0.7674 -0.5370
  437MOL0     C57565   8.003   1.151   7.848 -0.9649  0.2537  0.0048
  437MOL0     C57566   7.864   1.091   7.854 -0.1090 -0.5232 -0.1505
  437MOL0     C57567   7.829   0.981   7.955  1.1358  0.5229 -0.7067
  437MOL0     C57568   7.848   1.023   8.098 -0.4166  0.2146 -0.2730
  437MOL0     N57569   7.783   0.932   8.185  0.8097 -0.7628 -0.3699
  437MOL0     C57570   7.652   0.929   8.183  0.3942 -0.6153 -0.3457
  437MOL0     C57571   7.615   0.847   8.282 -0.8658 -0.5555  0.2023
  437MOL0     C57572   7.478   0.811   8.324  0.6578 -0.1408  0.4375
  437MOL0     C57573   7.432   0.895   8.449  0.2312 -0.0197  0.5056
  437MOL0     C57574   7.304   0.827   8.501 -0.0635 -0.4200 -0.4796
  437MOL0     C57575   7.220   0.912   8.603  0.5908 -1.0600  0.3484
  437MOL0     O57576   7.260   1.046   8.592  0.0166 -0.5967 -0.5002
  437MOL0     C57577   7.174   1.146   8.645 -0.4768 -0.1825 -0.4968
  437MOL0     C57578   7.065   1.121   8.721 -0.7888  0.0751 -0.4503
  437MOL0     C57579   6.988   1.218   8.768 -0.1890  1.2146 -0.4538
  437MOL0     C57580   7.010   1.354   8.740  0.7368 -0.1506 -0.6731
  437MOL0     C57581   6.915   1.448   8.787 -0.6755  1.0115  0.4277
  437MOL0     O57582   6.921   1.572   8.727  0.6683  0.0286  0.3127
  437MOL0     C57583   6.839   1.677   8.767  0.4465 -1.5590  0.9759
  437MOL0     C57584   6.699   1.681   8.760  0.5441  0.6076  0.3420
  437MOL0     C57585   6.625   1.791   8.806  0.5303  0.4992 -0.0627
  437MOL0     C57586   6.690   1.902   8.861  0.0843  0.2977 -0.6819
  437MOL0     O57587   6.607   1.990   8.914  0.1012 -0.5043 -0.0849
  437MOL0     C57588   6.651   2.127   8.944 -0.3001  0.2847 -0.2103
  437MOL0     C57589   6.533   2.219   8.960 -0.3245 -0.5951  0.3677
  437MOL0     C57590   6.464   2.200   9.091  0.2531  0.2103 -0.3207
  437MOL0     C57591   6.323   2.266   9.095  0.4297 -1.1058 -0.6790
  437MOL0     C57592   6.250   2.219   9.220  0.0389  0.1505  0.7684
  437MOL0     C57593   6.105   2.270   9.211 -0.5508 -0.4497  0.1571
  437MOL0     C57594   6.027   2.246   9.341 -0.6071  0.0442  0.2590
  437MOL0     C57595   6.021   2.104   9.402 -0.3599  0.4923  0.3706
  437MOL0    Cl57596   5.881   2.077   9.495  0.2575 -0.0185  0.0858
  437MOL0     C57597   6.832   1.905   8.863  0.0830  0.1297 -0.7376
  437MOL0     C57598   6.907   1.793   8.823 -0.3299 -0.1179  0.3221
  437MOL0     O57599   6.863   1.422   8.891  0.2766 -0.1551  0.2608
  437MOL0     C57600   7.122   1.387   8.667 -1.5979 -0.1371  0.4465
  437MOL0     C57601   7.203   1.280   8.605 -0.5377  0.6260  0.9808
  437MOL0     N57602   7.735   0.798   8.341  0.8239 -0.9476 -0.3776
  437MOL0     N57603   7.831   0.842   8.274  0.2470 -0.0120  0.2925
  437MOL0     C57604   8.664   1.375   8.093  0.1169  0.5385 -0.1744
  437MOL0     C57605   8.780   1.435   8.120 -0.9211  0.0590 -0.5803
  437MOL0     C57606   9.132   1.686   8.211 -0.9758 -0.3896 -0.0095
  437MOL0     C57607   9.257   1.647   8.192 -0.5767  0.1186 -0.0227
  437MOL0     C57608   9.367   1.728   8.226  0.0140  0.3758  0.2191
  437MOL0     C57609   9.354   1.849   8.280 -0.0214 -0.1968  0.2204
  437MOL0     O57610   9.463   1.931   8.321 -0.6632 -0.1709 -0.1424
  437MOL0     C57611   9.575   1.942   8.235  0.2880  0.1017  0.0018
  437MOL0     C57612   9.699   1.949   8.324  0.3585 -0.0117  0.5480
  437MOL0     C57613   9.730   2.090   8.381 -1.1013 -0.6081 -0.9671
  437MOL0     C57614   9.874   2.088   8.448 -0.5483 -0.4103  0.4170
  437MOL0     C57615   9.906   2.219   8.493 -0.0347  0.7243 -0.2808
  437MOL0     C57616   9.923   2.336   8.533 -0.6009  0.1060 -0.0804
  437MOL0     C57617   9.218   1.891   8.312 -0.2436  0.0554 -0.1251
  437MOL0     C57618   9.112   1.817   8.277 -0.3814 -0.0133  0.6181
  437MOL0     H57619   8.686   1.708   8.290 -0.6793  0.7452 -0.4108
  437MOL0     H57620   8.460   1.595   8.250 -0.1238 -2.1540  3.7839
  437MOL0     H57621   8.475   1.174   8.082 -0.5668  0.4814  0.0498
  437MOL0     H57622   8.439   1.303   7.955 -0.6200  0.9375 -0.6223
  437MOL0     H57623   8.215   1.181   8.122  0.1352  0.1810 -0.3356
  437MOL0     H57624   8.257   1.111   7.974 -2.1861  0.0850 -0.5046
  437MOL0     H57625   8.206   1.298   7.843 -1.2819  1.0832 -0.6289
  437MOL0     H57626   8.183   1.399   7.985 -1.8749 -0.3136  0.2089
  437MOL0     H57627   8.006   1.230   8.054  0.9152  0.3627 -0.1005
  437MOL0     H57628   7.968   1.348   7.920 -0.0017 -1.2295 -1.1067
  437MOL0     H57629   8.069   1.064   7.857 -3.3117 -1.5372  0.9382
  437MOL0     H57630   8.012   1.197   7.749  0.0362  2.6297  1.1074
  437MOL0     H57631   7.839   1.053   7.755  1.4039  1.3797 -1.3476
  437MOL0     H57632   7.803   1.182   7.860  1.3297  0.5825 -1.2838
  437MOL0     H57633   7.721   0.975   7.942  0.7212  1.5652  1.8247
  437MOL0     H57634   7.884   0.886   7.954  1.8443  0.8385  1.9526
  437MOL0     H57635   7.808   1.123   8.116 -0.1436  0.3990 -0.6638
  437MOL0     H57636   7.956   1.010   8.112 -0.4635 -0.4593 -0.5106
  437MOL0     H57637   7.593   0.982   8.108 -0.3279 -3.6126 -2.0537
  437MOL0     H57638   7.481   0.701   8.322  0.1393 -0.1628 -1.7228
  437MOL0     H57639   7.406   0.841   8.247  0.1296 -0.3423  0.8473
  437MOL0     H57640   7.413   0.996   8.411  4.4583  0.6273 -0.3582
  437MOL0     H57641   7.507   0.885   8.527  1.2091 -5.2151 -0.7455
  437MOL0     H57642   7.246   0.810   8.410  0.9594  0.3004 -1.2974
  437MOL0     H57643   7.330   0.734   8.551  2.9086 -0.9336 -2.6965
  437MOL0     H57644   7.241   0.880   8.706 -1.6244 -0.9131  0.8906
  437MOL0     H57645   7.112   0.900   8.586  0.5669  0.3839 -0.7013
  437MOL0     H57646   7.055   1.017   8.748  3.7760 -1.0817 -2.4264
  437MOL0     H57647   6.914   1.177   8.837  1.4556 -0.8354  0.1933
  437MOL0     H57648   6.645   1.598   8.716 -3.0768  0.8955  3.7323
  437MOL0     H57649   6.518   1.778   8.815  0.8241 -0.9451  2.2832
  437MOL0     H57650   6.717   2.151   8.861  0.9521  0.2144  0.7355
  437MOL0     H57651   6.703   2.112   9.039  1.5080 -2.5652 -1.4919
  437MOL0     H57652   6.465   2.208   8.875  1.9761 -1.7057 -1.4538
  437MOL0     H57653   6.573   2.320   8.969  1.6760 -1.4545  1.9225
  437MOL0     H57654   6.533   2.254   9.157  0.7098  0.4052 -0.9477
  437MOL0     H57655   6.466   2.095   9.121 -2.1713 -0.2872 -1.6498
  437MOL0     H57656   6.316   2.375   9.097 -0.5824 -1.1291 -1.9527
  437MOL0     H57657   6.263   2.233   9.010 -1.6975  0.5401  0.1021
  437MOL0     H57658   6.302   2.263   9.306  0.4548  0.9444  0.1170
  437MOL0     H57659   6.266   2.111   9.216 -2.6000 -0.3928  1.9156
  437MOL0     H57660   6.058   2.213   9.131 -1.6678 -0.5000  0.8346
  437MOL0     H57661   6.098   2.379   9.199  3.6377  0.0267  0.4043
  437MOL0     H57662   6.049   2.320   9.418 -1.3609 -0.9320  1.4585
  437MOL0     H57663   5.927   2.266   9.301  0.4461  1.4896 -1.7923
  437MOL0     H57664   6.113   2.070   9.452 -1.1206 -0.5525  1.1226
  437MOL0     H57665   6.006   2.033   9.320 -2.5069  0.2325  0.9251
  437MOL0     H57666   6.878   1.992   8.908 -2.5859  1.3030 -0.0382
  437MOL0     H57667   7.016   1.791   8.829 -0.4022 -0.2466  1.8221
  437MOL0     H57668   7.134   1.492   8.641 -1.8091 -0.0912  0.5323
  437MOL0     H57669   7.284   1.301   8.536 -0.0273  0.9992  1.6845
  437MOL0     H57670   8.684   1.277   8.050  0.1609  0.8695 -0.9242
  437MOL0     H57671   8.873   1.386   8.092 -0.6922  0.8999 -1.3355
  437MOL0     H57672   9.273   1.559   8.131  3.0563 -0.4537  1.4611
  437MOL0     H57673   9.465   1.690   8.199 -0.2911 -0.9913  0.9289
  437MOL0     H57674   9.572   2.030   8.170 -0.0558  1.8513  2.2712
  437MOL0     H57675   9.581   1.854   8.170 -0.5421 -1.8900  2.4562
  437MOL0     H57676   9.692   1.860   8.388 -2.3250 -1.7010 -1.8191
  437MOL0     H57677   9.786   1.925   8.264 -0.5432 -0.0257 -0.7991
  437MOL0     H57678   9.651   2.123   8.449  1.7675  1.2361  1.7110
  437MOL0     H57679   9.727   2.167   8.304 -0.6588  1.3875  0.9172
  437MOL0     H57680   9.883   2.020   8.534  0.5031  1.0382  1.5017
  437MOL0     H57681   9.941   2.062   8.366  1.3836  1.8643  1.1631
  437MOL0     H57682   9.966   2.431   8.558  1.6680 -1.3250  1.9087
  437MOL0     H57683   9.185   1.980   8.363  0.2735  0.8690 -1.1833
  437MOL0     H57684   9.016   1.857   8.309 -0.7504  0.1393 -0.6353
  438MOL0     O57685   2.453   1.023   3.734 -0.4414  0.1228  0.0275
  438MOL0     C57686   2.472   1.062   3.846  0.1019 -0.7842 -0.0242
  438MOL0     O57687   2.577   1.039   3.925 -0.4203  0.3121 -0.2499
  438MOL0     C57688   2.670   0.939   3.884  0.0931 -1.0426  0.4926
  438MOL0     C57689   2.646   0.818   3.820 -0.4186  0.7180  0.3563
  438MOL0     C57690   2.747   0.724   3.792 -0.0153  0.8458 -0.4098
  438MOL0     C57691   2.879   0.739   3.836  0.4421 -1.2503 -0.0071
  438MOL0     O57692   2.980   0.653   3.822  0.4257  0.3336 -0.3251
  438MOL0     C57693   2.953   0.537   3.739 -0.2241 -0.7750 -0.5504
  438MOL0     C57694   2.899   0.417   3.818  1.2028  0.3884  0.1093
  438MOL0     C57695   2.858   0.289   3.759  0.2063  0.3873 -0.3474
  438MOL0     C57696   2.735   0.305   3.662  0.1020 -0.1004  0.4885
  438MOL0     C57697   2.712   0.188   3.574  0.2962 -0.0592 -1.1035
  438MOL0     C57698   2.580   0.208   3.486 -0.1536 -0.4436  0.2245
  438MOL0     C57699   2.574   0.079   3.399 -0.4870 -0.6967 -0.3439
  438MOL0     C57700   2.445   0.087   3.311  0.6185  0.2349  0.3276
  438MOL0     N57701   2.330   0.107   3.404 -0.4745 -0.2712  0.0473
  438MOL0     C57702   2.237   0.209   3.395  0.8500  1.2821  0.2812
  438MOL0     C57703   2.132   0.174   3.480 -0.0903  0.7000  0.2156
  438MOL0     C57704   2.025   0.272   3.505  0.0086  0.2021  0.2959
  438MOL0     C57705   1.891   0.196   3.507  0.0629 -0.0459  0.3459
  438MOL0     C57706   1.858   0.102   3.395 -0.7848  0.3412 -0.3735
  438MOL0     C57707   1.881   0.154   3.263  0.1061  0.3416 -0.2539
  438MOL0     O57708   1.846   0.062   3.159  0.2537 -0.2746  0.3365
  438MOL0     C57709   1.925  -0.046   3.129  0.2814 -0.9547 -0.0892
  438MOL0     C57710   2.063  -0.058   3.161 -0.2581  0.5473 -0.1531
  438MOL0     C57711   2.137  -0.183   3.155  0.2862  0.1128  0.0722
  438MOL0     C57712   2.074  -0.302   3.130  0.4875 -0.2222  1.0550
  438MOL0     C57713   2.132  -0.438   3.124  0.1376  0.4578  0.3097
  438MOL0     O57714   2.053  -0.545   3.164 -0.2574  0.3824 -0.1364
  438MOL0     C57715   2.110  -0.671   3.160  0.7567  0.2140  0.7851
  438MOL0     C57716   2.167  -0.730   3.271 -0.4779  0.4553  0.4580
  438MOL0     C57717   2.241  -0.855   3.267  0.0559 -0.8582  1.7642
  438MOL0     C57718   2.265  -0.918   3.136 -0.7307 -1.0440 -0.0290
  438MOL0     O57719   2.352  -1.030   3.124  0.0992  0.1438 -0.0763
  438MOL0     C57720   2.461  -1.024   3.034 -0.4136  0.2152 -0.1282
  438MOL0     C57721   2.589  -1.115   3.074 -0.4055  0.3845 -0.7512
  438MOL0     C57722   2.656  -1.077   3.204 -0.1642 -0.1573 -0.4801
  438MOL0     C57723   2.734  -0.939   3.196  0.2253 -1.1214  0.1568
  438MOL0     C57724   2.808  -0.906   3.327 -0.9654 -0.9760  0.2782
  438MOL0     C57725   2.906  -0.783   3.314 -0.3586 -0.2699 -0.2301
  438MOL0     C57726   2.951  -0.757   3.460  0.3399 -0.2072  0.2011
  438MOL0     C57727   3.087  -0.824   3.489 -0.5838  0.2349  0.1561
  438MOL0    Cl57728   3.159  -0.755   3.637  0.0004 -0.1260 -0.2756
  438MOL0     C57729   2.207  -0.853   3.024  0.1008  0.8881 -0.1198
  438MOL0     C57730   2.135  -0.732   3.038  0.4413  0.2018  1.9105
  438MOL0     O57731   2.251  -0.448   3.085 -0.3533  0.2366 -0.3473
  438MOL0     C57732   1.929  -0.296   3.109 -0.0308 -0.1604 -0.7718
  438MOL0     C57733   1.866  -0.170   3.099 -0.2296 -0.0550  0.2940
  438MOL0     N57734   2.167   0.055   3.549  0.7223 -0.2431 -0.3808
  438MOL0     N57735   2.281   0.018   3.496  0.0018 -0.5419  0.1369
  438MOL0     C57736   2.897   0.848   3.921  0.2041  0.7487 -0.4088
  438MOL0     C57737   2.799   0.952   3.944 -0.0057  0.3209 -0.2858
  438MOL0     C57738   2.363   1.147   3.897 -0.4197  1.2745  0.1465
  438MOL0     C57739   2.339   1.175   4.030 -1.1691 -0.6424  0.0409
  438MOL0     C57740   2.218   1.237   4.068 -0.6783 -0.5218 -0.6561
  438MOL0     C57741   2.114   1.263   3.976  0.2999 -0.8098 -0.7298
  438MOL0     O57742   1.999   1.325   4.025  1.0671 -0.1372  0.7644
  438MOL0     C57743   1.978   1.369   4.161  0.6501 -0.8116 -0.0093
  438MOL0     C57744   1.837   1.432   4.172  0.4557 -0.5461 -0.5329
  438MOL0     C57745   1.839   1.563   4.254  0.1860  0.8303 -0.3146
  438MOL0     C57746   1.708   1.652   4.234  0.4295  0.2959  0.0856
  438MOL0     C57747   1.598   1.595   4.314 -0.1983  0.6803 -0.5210
  438MOL0     C57748   1.495   1.557   4.361  0.2592 -0.3326 -0.1316
  438MOL0     C57749   2.139   1.234   3.845  0.4183 -0.9375 -0.1713
  438MOL0     C57750   2.261   1.185   3.803  0.5450 -0.1956 -0.0773
  438MOL0     H57751   2.541   0.799   3.803 -1.0867  1.9931  2.6493
  438MOL0     H57752   2.712   0.645   3.726  0.4289  1.2102 -1.0872
  438MOL0     H57753   3.051   0.512   3.698  0.1297 -1.3713  0.6155
  438MOL0     H57754   2.886   0.557   3.655 -3.4804 -1.5830  1.6644
  438MOL0     H57755   2.808   0.452   3.869 -0.9501 -3.0517 -1.0584
  438MOL0     H57756   2.977   0.402   3.892  2.1304  2.7016 -0.3010
  438MOL0     H57757   2.830   0.229   3.846  1.2815 -0.6577 -0.7020
  438MOL0     H57758   2.941   0.244   3.705 -2.2926 -2.0938 -2.4471
  438MOL0     H57759   2.649   0.334   3.722 -0.9832 -1.4661 -0.3356
  438MOL0     H57760   2.759   0.395   3.604  1.6009  0.4976  1.9616
  438MOL0     H57761   2.699   0.099   3.636  2.2580  1.7867  2.2887
  438MOL0     H57762   2.798   0.181   3.506  2.0557  0.5892  0.9354
  438MOL0     H57763   2.585   0.298   3.424 -3.7467 -1.3520 -1.7232
  438MOL0     H57764   2.497   0.218   3.557  2.1775 -1.5564  3.3375
  438MOL0     H57765   2.662   0.083   3.333 -1.8176 -1.6793 -2.2941
  438MOL0     H57766   2.588  -0.010   3.460  1.7311 -1.1250 -1.3791
  438MOL0     H57767   2.420   0.003   3.246  1.3596  0.5154 -0.3353
  438MOL0     H57768   2.457   0.172   3.243  0.5012  0.8690  1.0885
  438MOL0     H57769   2.253   0.294   3.329 -1.5528  1.8518  0.3504
  438MOL0     H57770   2.021   0.352   3.431  1.6177 -1.7374 -2.0535
  438MOL0     H57771   2.043   0.297   3.610  0.5409 -4.3267  1.4791
  438MOL0     H57772   1.813   0.273   3.509  1.4844  1.4823  2.6939
  438MOL0     H57773   1.894   0.132   3.595 -0.9723 -0.9906 -0.2788
  438MOL0     H57774   1.929   0.020   3.406 -0.6994 -0.2419 -4.1021
  438MOL0     H57775   1.756   0.067   3.412 -0.6029  0.8891  2.3356
  438MOL0     H57776   1.976   0.204   3.246  0.5785 -1.0314 -2.0903
  438MOL0     H57777   1.803   0.230   3.251 -0.3244  0.3036  1.9981
  438MOL0     H57778   2.119   0.030   3.192  3.1929 -0.6414 -2.3845
  438MOL0     H57779   2.240  -0.191   3.188 -0.5095 -4.3263  2.1576
  438MOL0     H57780   2.133  -0.679   3.361 -2.9929  1.2436 -0.8426
  438MOL0     H57781   2.278  -0.914   3.350  0.4300 -2.4083  0.5289
  438MOL0     H57782   2.495  -0.921   3.020  3.7580 -0.2328  4.2749
  438MOL0     H57783   2.425  -1.069   2.941 -0.1339 -1.6197  0.6091
  438MOL0     H57784   2.660  -1.090   2.995  0.1927  1.8761  0.2213
  438MOL0     H57785   2.572  -1.223   3.075  2.1886 -0.0751  0.1156
  438MOL0     H57786   2.727  -1.155   3.231  1.2592  0.7670 -1.4268
  438MOL0     H57787   2.576  -1.065   3.278 -0.3407  2.9184 -1.0132
  438MOL0     H57788   2.795  -0.934   3.105  1.6068 -0.9352  1.0671
  438MOL0     H57789   2.668  -0.855   3.175  1.3625 -0.3716 -0.5646
  438MOL0     H57790   2.863  -0.991   3.367 -1.4721 -1.9454 -1.0064
  438MOL0     H57791   2.726  -0.886   3.396  0.0700 -0.8866  1.5210
  438MOL0     H57792   2.862  -0.688   3.282 -2.4439 -0.4717  1.7873
  438MOL0     H57793   2.994  -0.817   3.259 -1.4437 -1.6896 -1.1566
  438MOL0     H57794   2.958  -0.649   3.476  2.0682 -0.4430  1.3680
  438MOL0     H57795   2.874  -0.787   3.531  0.7141  1.6332  1.4429
  438MOL0     H57796   3.151  -0.821   3.400 -1.4948  1.5112 -0.4820
  438MOL0     H57797   3.067  -0.931   3.498 -2.5398  0.4702 -0.7769
  438MOL0     H57798   2.211  -0.887   2.921  2.1313  1.0800 -0.1534
  438MOL0     H57799   2.103  -0.685   2.945 -0.5310 -1.7855  1.1814
  438MOL0     H57800   1.880  -0.393   3.111  0.4757 -0.4166 -0.5414
  438MOL0     H57801   1.758  -0.179   3.096 -0.0576 -2.8839 -0.4521
  438MOL0     H57802   2.997   0.876   3.953  0.9954  0.1848 -2.2536
  438MOL0     H57803   2.805   1.037   4.012 -0.5063  1.1852 -1.2940
  438MOL0     H57804   2.429   1.162   4.090 -1.0359 -1.3477 -0.3068
  438MOL0     H57805   2.210   1.246   4.176 -3.3112 -1.8264 -0.6570
  438MOL0     H57806   2.049   1.429   4.217  0.6635 -2.9413  2.4283
  438MOL0     H57807   1.981   1.282   4.228 -0.2662  0.3469  1.5974
  438MOL0     H57808   1.805   1.451   4.069  0.5849 -0.2459 -0.5180
  438MOL0     H57809   1.769   1.359   4.218 -0.5626 -0.7107 -2.2206
  438MOL0     H57810   1.929   1.615   4.220  2.4188 -2.0421  0.7802
  438MOL0     H57811   1.856   1.555   4.362  0.5510 -0.6232 -0.4516
  438MOL0     H57812   1.724   1.757   4.261 -2.8835  1.1632 -0.8665
  438MOL0     H57813   1.673   1.653   4.131  0.1736 -1.7025  0.1287
  438MOL0     H57814   1.398   1.534   4.398 -0.4474  0.1776 -1.5690
  438MOL0     H57815   2.050   1.239   3.782  0.7892 -0.6986 -0.6776
  438MOL0     H57816   2.261   1.146   3.702  0.7451 -0.2833 -0.0443
  439MOL0     O57817   6.864   8.022   3.255 -0.0543  0.9427 -0.2685
  439MOL0     C57818   6.869   8.133   3.310  0.7575 -0.1170  0.0287
  439MOL0     O57819   6.767   8.181   3.387 -0.5691  0.6176 -0.1141
  439MOL0     C57820   6.656   8.111   3.390 -0.0443 -0.4438  0.6530
  439MOL0     C57821   6.652   7.997   3.469  0.3657 -0.2544 -0.6616
  439MOL0     C57822   6.548   7.901   3.460 -0.1319 -0.8023 -0.5079
  439MOL0     C57823   6.437   7.923   3.382 -0.8723  1.0712  0.3083
  439MOL0     O57824   6.331   7.838   3.374  0.1381 -0.3495  0.2198
  439MOL0     C57825   6.225   7.894   3.452 -0.1202  0.8818  0.2734
  439MOL0     C57826   6.135   7.791   3.529 -0.5727 -0.1620 -0.5852
  439MOL0     C57827   5.994   7.782   3.482  0.1032 -0.1894 -0.2637
  439MOL0     C57828   5.928   7.670   3.564 -0.9235  0.2529 -0.1179
  439MOL0     C57829   5.777   7.671   3.545  0.2662 -0.2240  0.0221
  439MOL0     C57830   5.733   7.629   3.400 -0.0143 -0.4362  0.3192
  439MOL0     C57831   5.578   7.615   3.392 -0.2099  0.2585  0.5898
  439MOL0     C57832   5.525   7.555   3.260 -0.9925 -0.2486 -0.2419
  439MOL0     N57833   5.380   7.523   3.272 -0.6660 -0.8389 -0.1093
  439MOL0     C57834   5.327   7.406   3.326 -0.3259 -0.7436  0.1772
  439MOL0     C57835   5.197   7.399   3.298 -0.1806  0.2364  0.5676
  439MOL0     C57836   5.108   7.270   3.316 -0.1678  0.5363  1.0498
  439MOL0     C57837   4.991   7.290   3.409  0.7508 -0.5500  0.9150
  439MOL0     C57838   4.908   7.167   3.436 -0.8603  0.0668  0.0642
  439MOL0     C57839   4.783   7.179   3.512  0.7751  0.4446 -0.6060
  439MOL0     O57840   4.726   7.039   3.517  0.1221 -0.5566  0.3333
  439MOL0     C57841   4.611   7.014   3.591 -0.4878  0.0936 -0.8930
  439MOL0     C57842   4.537   7.100   3.664 -0.1883  0.6203  0.3438
  439MOL0     C57843   4.423   7.067   3.731  0.8138  1.0991  0.3614
  439MOL0     C57844   4.387   6.931   3.728 -0.1743  1.3883 -0.7305
  439MOL0     C57845   4.268   6.871   3.794  0.4749  0.2812  0.3750
  439MOL0     O57846   4.243   6.741   3.806 -0.8647  0.3177 -0.5217
  439MOL0     C57847   4.112   6.715   3.841  0.1405  0.9644 -0.1963
  439MOL0     C57848   4.071   6.716   3.976  0.5694 -0.5322 -0.9607
  439MOL0     C57849   3.949   6.674   4.030 -0.2099  0.2085  0.4099
  439MOL0     C57850   3.845   6.651   3.933  0.2026 -0.1722  0.5910
  439MOL0     O57851   3.719   6.622   3.974  0.2786 -0.4133  1.4288
  439MOL0     C57852   3.662   6.688   4.084 -0.6003  0.5750  0.3731
  439MOL0     C57853   3.665   6.587   4.189  0.3067  0.5319  0.1270
  439MOL0     C57854   3.598   6.648   4.315  0.2173  0.1495 -0.0080
  439MOL0     C57855   3.604   6.561   4.442  0.7113  0.3754  0.7329
  439MOL0     C57856   3.492   6.612   4.528 -0.5980 -0.3246 -0.3384
  439MOL0     C57857   3.454   6.513   4.638  1.3489  0.7756 -0.7849
  439MOL0     C57858   3.322   6.561   4.701 -0.0967  0.2274 -0.2304
  439MOL0     C57859   3.276   6.485   4.835  0.1808 -0.0779  0.1051
  439MOL0    Cl57860   3.266   6.309   4.826 -0.2230  0.3895  0.1938
  439MOL0     C57861   3.882   6.655   3.799  1.2312  0.1641 -0.2393
  439MOL0     C57862   4.011   6.685   3.754  0.3474  0.4499  0.5318
  439MOL0     O57863   4.203   6.955   3.851 -0.3057 -0.3832 -0.4157
  439MOL0     C57864   4.468   6.840   3.663  1.4981  0.3179 -0.2382
  439MOL0     C57865   4.569   6.879   3.585 -0.0712 -0.5212  0.9034
  439MOL0     N57866   5.158   7.520   3.234 -0.6894  0.2387  0.9478
  439MOL0     N57867   5.270   7.594   3.230  0.5148  0.8151  0.7536
  439MOL0     C57868   6.448   8.031   3.299 -0.3272  0.6180  0.4414
  439MOL0     C57869   6.554   8.128   3.301  0.1995  0.8723 -0.5879
  439MOL0     C57870   6.979   8.230   3.271  0.5146 -0.0146 -0.2622
  439MOL0     C57871   7.083   8.183   3.197  0.1618  0.2358  0.5288
  439MOL0     C57872   7.180   8.281   3.158 -0.1254 -0.0544  0.0986
  439MOL0     C57873   7.184   8.416   3.201  0.2818  0.3902  1.0822
  439MOL0     O57874   7.288   8.496   3.176  0.6243  0.9172 -0.1201
  439MOL0     C57875   7.391   8.456   3.084  0.3482  0.2666  0.1878
  439MOL0     C57876   7.503   8.560   3.067  0.9083 -0.0871 -0.2885
  439MOL0     C57877   7.573   8.595   3.201 -0.6881  0.3240  0.6665
  439MOL0     C57878   7.660   8.718   3.184  0.3999 -0.0310  0.1037
  439MOL0     C57879   7.713   8.762   3.311  0.4349  0.3903 -0.6611
  439MOL0     C57880   7.742   8.786   3.427 -0.3970  0.7119 -0.2329
  439MOL0     C57881   7.072   8.458   3.274 -0.0099  0.0181  0.3096
  439MOL0     C57882   6.969   8.365   3.298 -0.1748 -0.5487 -0.4950
  439MOL0     H57883   6.743   7.986   3.527  0.8929  1.6998 -1.0425
  439MOL0     H57884   6.557   7.811   3.520  0.8232 -0.8608 -0.7184
  439MOL0     H57885   6.160   7.951   3.385 -1.4269 -0.4061  0.3900
  439MOL0     H57886   6.261   7.966   3.525  3.1784 -0.4843  0.1639
  439MOL0     H57887   6.119   7.825   3.632 -0.4037 -0.3417 -0.5004
  439MOL0     H57888   6.186   7.695   3.521  0.4903  0.2284  0.9539
  439MOL0     H57889   5.993   7.760   3.375 -2.0296  1.8850 -0.7710
  439MOL0     H57890   5.938   7.876   3.492 -0.4785 -0.8168  4.3839
  439MOL0     H57891   5.968   7.576   3.523  1.3214  1.9332 -2.0712
  439MOL0     H57892   5.959   7.677   3.668 -1.9705 -0.5715  0.2691
  439MOL0     H57893   5.738   7.765   3.584  1.7854 -0.5015  2.4055
  439MOL0     H57894   5.747   7.591   3.613  2.7276 -1.9996 -0.8364
  439MOL0     H57895   5.765   7.529   3.372 -1.0118 -1.5296  2.7898
  439MOL0     H57896   5.763   7.705   3.327 -1.7655  1.3645  1.3570
  439MOL0     H57897   5.539   7.557   3.476  0.0915  0.4258  0.8447
  439MOL0     H57898   5.539   7.717   3.398 -0.1237  0.6060 -2.9034
  439MOL0     H57899   5.583   7.465   3.239  0.1894  0.7106 -1.2239
  439MOL0     H57900   5.546   7.630   3.184 -2.0632 -0.9920 -1.3007
  439MOL0     H57901   5.380   7.313   3.342  0.9454 -0.2886 -1.1424
  439MOL0     H57902   5.172   7.188   3.351  0.3293  0.2462 -0.4784
  439MOL0     H57903   5.084   7.250   3.211  2.0690  1.7230  0.2342
  439MOL0     H57904   4.920   7.364   3.370 -0.2188 -1.4446  0.9316
  439MOL0     H57905   5.029   7.324   3.506 -1.8243 -0.6525  2.0356
  439MOL0     H57906   4.883   7.124   3.338  0.0913 -0.6924  0.1351
  439MOL0     H57907   4.978   7.095   3.480  0.8177 -0.4233 -3.1149
  439MOL0     H57908   4.703   7.245   3.477 -0.6604  0.0256  1.6701
  439MOL0     H57909   4.808   7.221   3.609  0.5989  2.4231 -1.3707
  439MOL0     H57910   4.570   7.203   3.668 -3.0258  1.5688  1.8140
  439MOL0     H57911   4.371   7.134   3.799  3.9350  1.5034  2.5802
  439MOL0     H57912   4.150   6.729   4.048 -0.2088 -1.0623  0.0277
  439MOL0     H57913   3.939   6.646   4.135 -2.7277 -1.2763 -0.1373
  439MOL0     H57914   3.562   6.719   4.050  0.3425  1.6926 -1.5283
  439MOL0     H57915   3.714   6.781   4.108 -0.0907  1.9327 -4.8115
  439MOL0     H57916   3.767   6.565   4.220  0.6859  2.4095  0.3238
  439MOL0     H57917   3.623   6.488   4.169  0.5700  0.4467  0.0050
  439MOL0     H57918   3.495   6.663   4.283 -0.2150 -1.1291  0.6875
  439MOL0     H57919   3.643   6.746   4.334 -3.0075  1.9638 -1.0961
  439MOL0     H57920   3.589   6.455   4.418  2.0735 -0.0341  1.6047
  439MOL0     H57921   3.705   6.553   4.483  0.1530  1.9330  2.5303
  439MOL0     H57922   3.402   6.635   4.470 -0.6948 -0.3429 -0.1949
  439MOL0     H57923   3.524   6.706   4.574  0.4837 -1.6724  1.8010
  439MOL0     H57924   3.535   6.519   4.710 -0.2136  1.2499  1.0175
  439MOL0     H57925   3.447   6.411   4.599  0.8209  0.4423  0.1541
  439MOL0     H57926   3.329   6.667   4.727  0.3476 -0.1590  1.3202
  439MOL0     H57927   3.247   6.541   4.624  0.1677 -0.4929 -0.3138
  439MOL0     H57928   3.178   6.516   4.871 -0.0400  0.7699 -1.1644
  439MOL0     H57929   3.350   6.503   4.914  1.2650 -1.4775 -0.5618
  439MOL0     H57930   3.798   6.641   3.732 -1.0422  2.3542  1.9478
  439MOL0     H57931   4.021   6.698   3.647  1.5675  1.7024  0.7571
  439MOL0     H57932   4.445   6.734   3.671  3.9118 -0.1647  1.4034
  439MOL0     H57933   4.621   6.802   3.528 -1.9177 -0.2543 -1.2866
  439MOL0     H57934   6.368   8.056   3.229 -0.4416 -0.2709  0.2400
  439MOL0     H57935   6.546   8.209   3.229 -0.4220 -1.8984 -3.9136
  439MOL0     H57936   7.084   8.081   3.162 -0.0570 -0.2213  1.8248
  439MOL0     H57937   7.265   8.244   3.102  0.2772  0.4358  0.3683
  439MOL0     H57938   7.341   8.444   2.988  0.2212 -3.0702  0.5766
  439MOL0     H57939   7.432   8.360   3.117  1.0714 -0.0943 -1.6410
  439MOL0     H57940   7.573   8.520   2.993 -0.6766 -5.1009  0.5671
  439MOL0     H57941   7.456   8.650   3.026 -2.1609 -1.7461 -0.7244
  439MOL0     H57942   7.637   8.510   3.227 -2.1894 -2.2236 -3.1859
  439MOL0     H57943   7.500   8.606   3.282 -0.0265 -0.0008  1.3233
  439MOL0     H57944   7.752   8.695   3.128  0.2288  0.5395 -0.4157
  439MOL0     H57945   7.614   8.801   3.129  2.1777  1.4453  0.7394
  439MOL0     H57946   7.760   8.827   3.524  0.8848  0.2977 -0.2694
  439MOL0     H57947   7.066   8.556   3.320  1.4486 -0.2135  1.0463
  439MOL0     H57948   6.891   8.401   3.365  0.9460 -2.0479  1.7600
  440MOL0     O57949   8.813   9.676   2.214  0.5893  0.0260  0.9257
  440MOL0     C57950   8.810   9.571   2.150  0.8942  0.3749 -0.3656
  440MOL0     O57951   8.697   9.508   2.091  0.5711  0.0704 -0.0789
  440MOL0     C57952   8.587   9.580   2.072 -0.1126  0.3088  0.0427
  440MOL0     C57953   8.575   9.717   2.038  0.1052  0.1653  1.5209
  440MOL0     C57954   8.446   9.775   2.034  0.6386 -0.7954 -0.6558
  440MOL0     C57955   8.329   9.703   2.049 -0.2750  0.3372 -1.2008
  440MOL0     O57956   8.214   9.771   2.055 -0.6240  0.1332 -0.0489
  440MOL0     C57957   8.138   9.770   2.174  0.8274  0.2628 -0.1910
  440MOL0     C57958   8.190   9.845   2.294 -0.1877 -0.4195 -0.4118
  440MOL0     C57959   8.098   9.828   2.409 -0.4193  1.0467  0.1356
  440MOL0     C57960   8.138   9.700   2.479  0.4453 -0.1525 -0.5724
  440MOL0     C57961   8.057   9.680   2.604  0.2662 -0.3971  0.0489
  440MOL0     C57962   8.123   9.554   2.670 -0.2603  0.6489 -0.3651
  440MOL0     C57963   8.051   9.502   2.800 -0.1527  0.4542  0.2013
  440MOL0     C57964   7.909   9.443   2.766  0.4799  0.0405 -0.6020
  440MOL0     N57965   7.854   9.388   2.883 -0.9797  0.4899  0.7210
  440MOL0     C57966   7.920   9.329   2.988 -0.1061 -0.4965  0.1192
  440MOL0     C57967   7.820   9.304   3.080  0.3710 -0.2252  0.2358
  440MOL0     C57968   7.843   9.234   3.218 -0.2108  0.6208  0.0824
  440MOL0     C57969   7.740   9.119   3.234 -0.6984 -0.1428 -0.3548
  440MOL0     C57970   7.598   9.177   3.277 -0.2131 -0.1569 -0.0327
  440MOL0     C57971   7.489   9.062   3.286 -0.0099  0.5570  0.4620
  440MOL0     O57972   7.425   9.021   3.156  0.2965  0.1091  0.2555
  440MOL0     C57973   7.298   8.971   3.170  0.4710  0.2758 -0.9829
  440MOL0     C57974   7.231   8.911   3.278 -0.2037 -0.2608  0.6942
  440MOL0     C57975   7.097   8.864   3.270 -0.2776 -0.2191 -0.2785
  440MOL0     C57976   7.022   8.879   3.155  1.5240 -0.3451  0.2257
  440MOL0     C57977   6.880   8.845   3.150 -0.4490  0.8575 -0.2573
  440MOL0     O57978   6.841   8.772   3.257  0.3371  0.1157 -0.3499
  440MOL0     C57979   6.722   8.699   3.234 -0.4364  0.1058  0.3598
  440MOL0     C57980   6.726   8.578   3.168 -0.4780  0.0163  0.1172
  440MOL0     C57981   6.615   8.494   3.173 -0.2254 -0.5452  1.3507
  440MOL0     C57982   6.496   8.537   3.231 -0.3679  1.0248 -0.2361
  440MOL0     O57983   6.388   8.463   3.200  0.2516 -0.0628  0.0110
  440MOL0     C57984   6.271   8.475   3.283  1.1727 -0.4076  0.7227
  440MOL0     C57985   6.170   8.361   3.253 -0.5088  0.2480 -0.3181
  440MOL0     C57986   6.133   8.357   3.102 -0.4317 -0.4261  0.0797
  440MOL0     C57987   6.021   8.259   3.070 -0.2620 -0.1420  0.4981
  440MOL0     C57988   5.895   8.319   3.119 -0.9400 -0.9789 -0.1483
  440MOL0     C57989   5.790   8.212   3.121 -0.5170  0.1118  0.1415
  440MOL0     C57990   5.808   8.117   3.232 -1.1257 -0.1799  0.1407
  440MOL0     C57991   5.693   8.020   3.260 -0.5981 -0.5506  0.7272
  440MOL0    Cl57992   5.683   7.902   3.116  0.5564  0.2146  0.3033
  440MOL0     C57993   6.493   8.651   3.308  1.1193 -1.7317 -0.1771
  440MOL0     C57994   6.602   8.742   3.305 -0.1018 -0.1415  0.1006
  440MOL0     O57995   6.801   8.895   3.071  0.0531 -0.0620  0.0731
  440MOL0     C57996   7.082   8.950   3.048  0.0301  0.2846 -0.1312
  440MOL0     C57997   7.220   8.984   3.052  0.2167  0.0832 -0.4600
  440MOL0     N57998   7.697   9.339   3.031 -0.5711  0.9338  0.3738
  440MOL0     N57999   7.729   9.382   2.909 -0.1017  0.1618 -0.0286
  440MOL0     C58000   8.339   9.564   2.069  0.1779 -0.0333  0.4180
  440MOL0     C58001   8.471   9.508   2.080  1.1433  0.1914  0.9901
  440MOL0     C58002   8.934   9.491   2.158  0.9101 -0.2287 -0.7875
  440MOL0     C58003   8.931   9.365   2.105 -0.4842  1.4397 -0.8918
  440MOL0     C58004   9.037   9.275   2.126  0.2685  0.5813  0.9137
  440MOL0     C58005   9.146   9.307   2.204  1.2542 -0.5177  0.4312
  440MOL0     O58006   9.243   9.213   2.206 -0.2901 -0.7049  0.2662
  440MOL0     C58007   9.375   9.242   2.265 -0.4007  0.3538 -0.9681
  440MOL0     C58008   9.433   9.115   2.321  0.3887  0.1110  0.0720
  440MOL0     C58009   9.362   9.045   2.439  0.8053  0.0713  0.2653
  440MOL0     C58010   9.220   8.984   2.402  0.1657  0.1754  0.4574
  440MOL0     C58011   9.169   8.913   2.519  0.2577  0.6671  0.3420
  440MOL0     C58012   9.119   8.864   2.620  0.1876 -1.0733  0.3463
  440MOL0     C58013   9.152   9.446   2.257 -0.0185  0.7711 -0.6919
  440MOL0     C58014   9.051   9.531   2.230  0.1402  0.6787 -0.4285
  440MOL0     H58015   8.667   9.774   2.023  1.2048 -2.1229 -1.4579
  440MOL0     H58016   8.444   9.883   2.024  1.3026 -0.5306  1.4722
  440MOL0     H58017   8.132   9.670   2.218  1.1552  1.2357  2.2193
  440MOL0     H58018   8.040   9.819   2.169  1.3680  1.6645  1.8671
  440MOL0     H58019   8.197   9.952   2.274 -0.6894  0.0504  1.7148
  440MOL0     H58020   8.292   9.815   2.319  0.2054 -1.6791 -3.0807
  440MOL0     H58021   7.992   9.834   2.381 -0.2871 -1.7018 -1.2906
  440MOL0     H58022   8.125   9.919   2.464  0.2928  3.8139 -4.2666
  440MOL0     H58023   8.120   9.613   2.415 -4.4866  1.6712 -2.1648
  440MOL0     H58024   8.242   9.705   2.512  0.6833 -0.6936 -1.2311
  440MOL0     H58025   7.951   9.668   2.579  0.9836 -0.9666 -3.2536
  440MOL0     H58026   8.070   9.761   2.677  1.0351 -2.3343  2.1728
  440MOL0     H58027   8.222   9.579   2.709 -0.8756  2.2879  0.2555
  440MOL0     H58028   8.134   9.476   2.594  2.2949  1.0807 -0.5290
  440MOL0     H58029   8.112   9.420   2.838  0.7064  0.7599 -0.4665
  440MOL0     H58030   8.056   9.591   2.864 -0.1402 -0.2012  1.1321
  440MOL0     H58031   7.927   9.366   2.690 -1.6194 -1.0795 -0.0698
  440MOL0     H58032   7.847   9.526   2.730 -0.7715 -1.3662 -1.8563
  440MOL0     H58033   8.026   9.310   2.997  0.0202 -0.4091 -0.9753
  440MOL0     H58034   7.850   9.315   3.292 -3.0869  0.6539  0.4048
  440MOL0     H58035   7.940   9.183   3.212 -1.7416 -2.3127 -1.2483
  440MOL0     H58036   7.779   9.051   3.311  0.2504  0.6411 -0.1125
  440MOL0     H58037   7.736   9.078   3.133 -1.5405  0.7445 -0.7001
  440MOL0     H58038   7.609   9.212   3.380  1.9143 -1.0388  0.0770
  440MOL0     H58039   7.562   9.265   3.222 -2.3368 -0.4585  0.7534
  440MOL0     H58040   7.411   9.109   3.347 -3.1793 -1.1644 -1.9482
  440MOL0     H58041   7.519   8.970   3.337 -0.4003 -2.8602 -4.7310
  440MOL0     H58042   7.303   8.890   3.357  0.6132 -1.2679 -0.2738
  440MOL0     H58043   7.059   8.827   3.364 -1.9162  2.5113  0.2660
  440MOL0     H58044   6.806   8.540   3.105 -3.0320  0.9556 -4.1324
  440MOL0     H58045   6.631   8.398   3.124 -0.6603  1.0710 -2.3255
  440MOL0     H58046   6.218   8.569   3.265  1.9062  0.5209  3.0394
  440MOL0     H58047   6.302   8.485   3.388  1.1200  1.1736  0.6089
  440MOL0     H58048   6.084   8.379   3.319  1.0751  0.5575  1.7641
  440MOL0     H58049   6.217   8.263   3.269  0.5209  0.7714 -0.0697
  440MOL0     H58050   6.225   8.321   3.054  1.2259  1.3256  1.8157
  440MOL0     H58051   6.113   8.462   3.082  0.2209  0.5611  3.9234
  440MOL0     H58052   6.016   8.237   2.963  1.0264  1.4085  0.0836
  440MOL0     H58053   6.047   8.169   3.127 -1.7290  0.3126  1.9509
  440MOL0     H58054   5.860   8.403   3.059  0.2172  1.5227  2.4604
  440MOL0     H58055   5.892   8.374   3.213  1.8583 -0.1968 -0.4298
  440MOL0     H58056   5.796   8.158   3.026 -0.0725 -0.7869  0.6633
  440MOL0     H58057   5.690   8.255   3.118 -1.1955 -1.2882 -3.9538
  440MOL0     H58058   5.897   8.057   3.212  0.7994  2.6739 -0.3931
  440MOL0     H58059   5.829   8.164   3.329 -0.8551 -2.2498  1.1376
  440MOL0     H58060   5.600   8.070   3.291 -0.5831 -0.0401 -0.0117
  440MOL0     H58061   5.725   7.964   3.348 -0.8560 -1.1145  0.4614
  440MOL0     H58062   6.408   8.686   3.365  2.6635 -0.4242  1.4546
  440MOL0     H58063   6.607   8.825   3.373  0.4963  0.7910 -1.0390
  440MOL0     H58064   7.031   8.960   2.953  1.6183 -1.5985 -1.2600
  440MOL0     H58065   7.252   9.027   2.957 -2.2755 -0.3832 -1.5789
  440MOL0     H58066   8.244   9.514   2.061  0.1772  0.2121 -1.8994
  440MOL0     H58067   8.485   9.403   2.103 -0.8834 -0.7801 -1.6728
  440MOL0     H58068   8.844   9.329   2.050 -2.4707  2.3287  1.4738
  440MOL0     H58069   9.040   9.171   2.095 -1.1877  0.6098  0.5830
  440MOL0     H58070   9.375   9.322   2.341 -2.5981 -0.1904 -0.3128
  440MOL0     H58071   9.450   9.276   2.194  0.4369 -0.4086 -0.4641
  440MOL0     H58072   9.438   9.041   2.241 -1.8645  2.0326 -2.0384
  440MOL0     H58073   9.533   9.138   2.358 -0.1211 -1.3899  2.6084
  440MOL0     H58074   9.346   9.108   2.528 -0.0963  0.4648 -0.1594
  440MOL0     H58075   9.425   8.965   2.479 -0.7318 -0.8859  0.8273
  440MOL0     H58076   9.153   9.061   2.363 -0.9400 -0.3549  1.2405
  440MOL0     H58077   9.236   8.916   2.317 -1.9376  0.7107 -0.4364
  440MOL0     H58078   9.062   8.839   2.707 -1.3787 -3.7594 -1.3352
  440MOL0     H58079   9.243   9.470   2.312 -0.9256 -0.7497  1.6056
  440MOL0     H58080   9.073   9.632   2.264 -3.1040  0.8321  1.7132
  441MOL0     O58081   3.406   6.110   3.555  0.2723  0.7427  0.3503
  441MOL0     C58082   3.369   6.002   3.505 -0.3221 -0.9598 -0.5091
  441MOL0     O58083   3.417   5.947   3.388  0.1396 -0.7101  0.2091
  441MOL0     C58084   3.507   6.033   3.322 -0.4262 -0.8997  0.0233
  441MOL0     C58085   3.642   6.027   3.362  0.1150 -0.9562  0.3047
  441MOL0     C58086   3.739   6.090   3.287 -0.9571 -0.2057 -0.8524
  441MOL0     C58087   3.710   6.144   3.166 -0.2124  0.6638  0.6528
  441MOL0     O58088   3.799   6.185   3.074 -0.6401  0.6202  0.5008
  441MOL0     C58089   3.904   6.276   3.107 -0.1554 -0.1579  0.6763
  441MOL0     C58090   4.042   6.213   3.114  0.4859  0.5331  0.0541
  441MOL0     C58091   4.080   6.131   2.990 -0.7654  0.1448  0.7357
  441MOL0     C58092   4.153   6.214   2.883 -0.0423 -0.0792 -0.3971
  441MOL0     C58093   4.180   6.121   2.768 -0.2777 -0.9727 -0.0817
  441MOL0     C58094   4.310   6.040   2.788 -0.2134 -0.3921 -0.0658
  441MOL0     C58095   4.372   5.981   2.664 -0.8192  0.1908  0.0028
  441MOL0     C58096   4.360   5.833   2.648  0.0996  0.2769  0.3865
  441MOL0     N58097   4.225   5.779   2.650  0.4322  0.2792  0.6201
  441MOL0     C58098   4.151   5.749   2.763 -0.5355 -0.0423 -0.2374
  441MOL0     C58099   4.020   5.729   2.721 -0.0511  0.0004 -0.0321
  441MOL0     C58100   3.910   5.697   2.819 -0.3946  0.7667  0.1883
  441MOL0     C58101   3.876   5.825   2.891 -0.5669 -0.3018  0.0527
  441MOL0     C58102   3.756   5.803   2.981 -0.1373 -0.1814 -0.4015
  441MOL0     C58103   3.620   5.789   2.906 -0.1038  0.0769 -0.3844
  441MOL0     O58104   3.501   5.793   2.990  0.1797 -0.3801  0.6364
  441MOL0     C58105   3.451   5.692   3.055  0.1582  0.0159  0.2577
  441MOL0     C58106   3.515   5.571   3.077 -0.0225  0.5676 -0.4580
  441MOL0     C58107   3.437   5.464   3.124  0.1294  0.7595  1.6153
  441MOL0     C58108   3.309   5.481   3.169 -0.1048 -0.4843  0.9293
  441MOL0     C58109   3.233   5.369   3.229  0.5534  0.3426  0.3554
  441MOL0     O58110   3.133   5.399   3.310 -0.0198  0.1658 -0.0311
  441MOL0     C58111   3.042   5.304   3.350  0.3821 -0.1059  0.2843
  441MOL0     C58112   3.013   5.305   3.481  0.1671 -0.8032  0.1001
  441MOL0     C58113   2.919   5.212   3.544 -0.0793 -0.9730 -0.1149
  441MOL0     C58114   2.857   5.122   3.461  0.2652 -0.5457 -0.0555
  441MOL0     O58115   2.781   5.027   3.528 -0.1559 -0.0495 -0.2005
  441MOL0     C58116   2.686   4.957   3.452 -0.6016 -0.2703  0.2725
  441MOL0     C58117   2.569   4.936   3.552 -0.2320  0.3353 -0.5802
  441MOL0     C58118   2.592   4.833   3.669  0.2754  0.3411 -0.1941
  441MOL0     C58119   2.610   4.695   3.610  0.0613  1.0492 -0.4567
  441MOL0     C58120   2.629   4.572   3.709  0.5579  0.2545  0.8096
  441MOL0     C58121   2.615   4.436   3.629 -0.2737 -0.6862  0.4579
  441MOL0     C58122   2.624   4.320   3.730 -0.0148 -0.5194  1.0405
  441MOL0     C58123   2.592   4.200   3.644 -0.2199  0.8090 -0.1973
  441MOL0    Cl58124   2.727   4.152   3.535 -0.4606 -0.3002 -0.2033
  441MOL0     C58125   2.897   5.115   3.332 -0.1088 -0.3544 -0.6480
  441MOL0     C58126   2.989   5.201   3.274  0.4625  0.8312  0.6068
  441MOL0     O58127   3.272   5.256   3.197  0.5931  0.3426  0.3969
  441MOL0     C58128   3.246   5.607   3.156 -0.0841 -0.6479 -0.3141
  441MOL0     C58129   3.311   5.707   3.092  0.5209 -0.4157 -0.5991
  441MOL0     N58130   4.018   5.743   2.586  0.1528 -0.1402  0.1086
  441MOL0     N58131   4.133   5.770   2.542 -0.9691 -0.6441  0.3158
  441MOL0     C58132   3.583   6.133   3.112 -0.5691  0.8227 -1.2386
  441MOL0     C58133   3.477   6.078   3.202  0.2891 -1.0103  0.3544
  441MOL0     C58134   3.247   5.930   3.557 -0.1492 -0.3474  0.1291
  441MOL0     C58135   3.218   5.801   3.506 -0.0750  0.5364  0.6698
  441MOL0     C58136   3.104   5.725   3.565 -0.2780 -1.5046 -0.3315
  441MOL0     C58137   3.027   5.778   3.667  0.5099  0.1018 -1.1370
  441MOL0     O58138   2.938   5.694   3.718  0.6330 -0.5714 -0.1519
  441MOL0     C58139   2.917   5.697   3.869 -0.3582  0.0762 -0.2918
  441MOL0     C58140   2.888   5.557   3.927 -0.1611 -0.1528 -0.6095
  441MOL0     C58141   2.749   5.507   3.888 -0.1232  0.7105  0.0991
  441MOL0     C58142   2.697   5.388   3.975 -0.5120 -0.5787  0.0975
  441MOL0     C58143   2.757   5.261   3.937 -0.0885  0.6355 -0.0658
  441MOL0     C58144   2.805   5.152   3.909  1.0280  0.5370  0.0817
  441MOL0     C58145   3.056   5.909   3.712  0.1421  0.6321 -0.5153
  441MOL0     C58146   3.164   5.983   3.658  0.7069 -0.9947 -0.4227
  441MOL0     H58147   3.666   5.973   3.453  0.0561  1.3109  1.7346
  441MOL0     H58148   3.844   6.090   3.316 -0.7257 -0.0579 -1.6555
  441MOL0     H58149   3.883   6.314   3.207 -0.3193  0.1406  0.5299
  441MOL0     H58150   3.901   6.362   3.040 -1.3990  0.1896  1.1669
  441MOL0     H58151   4.038   6.144   3.199  1.7453 -1.7797 -1.6432
  441MOL0     H58152   4.119   6.289   3.131 -0.7643  1.5147  1.5823
  441MOL0     H58153   3.998   6.078   2.941 -0.5262  0.9181 -0.5371
  441MOL0     H58154   4.166   6.069   3.015 -0.5341  0.5369  0.9271
  441MOL0     H58155   4.078   6.287   2.851 -4.0387 -3.7244 -0.2376
  441MOL0     H58156   4.239   6.272   2.919 -1.0180  0.8685  0.4668
  441MOL0     H58157   4.200   6.177   2.676  6.0180 -3.6757 -0.8466
  441MOL0     H58158   4.091   6.059   2.752 -2.7668  2.2896 -0.0045
  441MOL0     H58159   4.299   5.967   2.869  2.3368 -1.1390 -0.2972
  441MOL0     H58160   4.378   6.117   2.826 -3.0453  2.3078 -0.0878
  441MOL0     H58161   4.324   6.034   2.582  1.3295  2.8666  0.3500
  441MOL0     H58162   4.475   6.015   2.669 -0.1393 -1.8947  1.6008
  441MOL0     H58163   4.419   5.785   2.727  2.6433  0.2832 -1.3869
  441MOL0     H58164   4.410   5.807   2.555  1.1056 -0.1599  1.0331
  441MOL0     H58165   4.198   5.729   2.859 -3.8767 -2.0961  1.1476
  441MOL0     H58166   3.954   5.634   2.897  1.1915  0.0990 -1.1642
  441MOL0     H58167   3.826   5.645   2.772 -0.5197 -1.8006  2.9331
  441MOL0     H58168   3.851   5.900   2.815  1.9090  2.6336  1.9026
  441MOL0     H58169   3.954   5.854   2.961 -0.2542 -1.3622  0.1645
  441MOL0     H58170   3.771   5.713   3.042 -1.7138 -1.5058 -1.8671
  441MOL0     H58171   3.740   5.888   3.048  2.7519 -0.2743  0.5505
  441MOL0     H58172   3.610   5.696   2.849 -0.0358  0.5568 -1.2130
  441MOL0     H58173   3.612   5.876   2.839  0.6102 -0.2147 -0.8605
  441MOL0     H58174   3.621   5.545   3.075  0.1754  1.3687 -0.9181
  441MOL0     H58175   3.487   5.368   3.126  1.5867  1.4405  0.2644
  441MOL0     H58176   3.051   5.393   3.533 -0.1395 -2.7858  4.0763
  441MOL0     H58177   2.893   5.227   3.648  0.6324 -1.6284  0.1615
  441MOL0     H58178   2.719   4.862   3.410 -2.0783  0.3508 -2.6194
  441MOL0     H58179   2.636   5.010   3.370  0.0680 -0.3960 -0.2281
  441MOL0     H58180   2.480   4.905   3.497 -1.6289  0.8765  1.2969
  441MOL0     H58181   2.547   5.034   3.594 -0.1829  0.8319 -1.6642
  441MOL0     H58182   2.510   4.830   3.742  0.9748 -0.8787  0.5660
  441MOL0     H58183   2.690   4.854   3.713  0.4245  0.7515 -0.7133
  441MOL0     H58184   2.523   4.665   3.550 -1.0425  0.3911  1.3923
  441MOL0     H58185   2.697   4.693   3.544 -0.1924 -0.3240 -0.7922
  441MOL0     H58186   2.554   4.583   3.788 -0.4781  0.6237 -0.2019
  441MOL0     H58187   2.728   4.583   3.754 -0.9657  1.0581  4.2736
  441MOL0     H58188   2.692   4.427   3.553 -1.1098  1.8836 -0.8306
  441MOL0     H58189   2.526   4.436   3.566  0.6071 -1.5904 -0.8341
  441MOL0     H58190   2.721   4.311   3.780  0.6685  1.0712  0.0679
  441MOL0     H58191   2.547   4.338   3.806 -0.1135  1.5117  0.5200
  441MOL0     H58192   2.502   4.208   3.582 -0.1998 -0.9215 -0.5021
  441MOL0     H58193   2.561   4.123   3.715 -2.7129  1.1910 -0.7672
  441MOL0     H58194   2.857   5.034   3.272 -0.1920  0.3680 -1.5902
  441MOL0     H58195   3.020   5.181   3.172  0.5373 -0.9636  0.9646
  441MOL0     H58196   3.144   5.634   3.182  0.2705  0.3250  0.1080
  441MOL0     H58197   3.263   5.803   3.078 -0.9040 -1.0655 -0.2927
  441MOL0     H58198   3.558   6.175   3.016  2.0392  0.1492 -2.3152
  441MOL0     H58199   3.379   6.073   3.156  0.8719  4.1512 -2.1942
  441MOL0     H58200   3.292   5.755   3.441 -0.3395  3.4445 -1.9033
  441MOL0     H58201   3.090   5.623   3.529  2.1453 -1.7359 -0.8392
  441MOL0     H58202   2.834   5.762   3.898  0.1651 -0.3185  2.3755
  441MOL0     H58203   3.014   5.722   3.914 -0.1332 -0.4495 -0.4690
  441MOL0     H58204   2.973   5.490   3.913  1.9317  1.0834  4.2215
  441MOL0     H58205   2.885   5.576   4.035 -3.6139  0.4397 -0.6862
  441MOL0     H58206   2.746   5.499   3.779  1.3348  1.6373 -0.0281
  441MOL0     H58207   2.686   5.593   3.915 -0.9651 -0.3799  1.7360
  441MOL0     H58208   2.727   5.414   4.077 -0.8485  1.8210 -0.3574
  441MOL0     H58209   2.588   5.394   3.975 -0.4703  0.2828  0.7698
  441MOL0     H58210   2.839   5.054   3.881 -1.8650  0.4177 -3.9930
  441MOL0     H58211   2.996   5.934   3.799 -1.2985  0.4314 -1.4183
  441MOL0     H58212   3.193   6.082   3.692 -3.6347  0.2387  0.3406
  442MOL0     O58213   3.154   1.768   8.363 -0.2440 -0.1206  0.6659
  442MOL0     C58214   3.141   1.878   8.312  0.0811 -0.1636  0.6521
  442MOL0     O58215   3.030   1.957   8.314  0.5847  0.2811 -0.3864
  442MOL0     C58216   2.921   1.906   8.373 -0.2608 -0.2038 -0.0247
  442MOL0     C58217   2.906   1.908   8.511 -0.0690 -0.4162 -0.4717
  442MOL0     C58218   2.779   1.858   8.561  0.2368  0.9284  0.3405
  442MOL0     C58219   2.681   1.810   8.468 -0.0910 -0.4159  0.6270
  442MOL0     O58220   2.559   1.754   8.501 -0.8970  0.5171  0.2133
  442MOL0     C58221   2.520   1.778   8.642 -0.4602  0.6470  1.1785
  442MOL0     C58222   2.378   1.737   8.652 -0.4595  0.2374 -0.1044
  442MOL0     C58223   2.277   1.857   8.641  0.1844  0.1214 -0.2115
  442MOL0     C58224   2.141   1.812   8.601 -0.1143 -0.0404 -0.2863
  442MOL0     C58225   2.034   1.913   8.569 -0.4961 -0.4284 -1.0258
  442MOL0     C58226   1.909   1.847   8.516 -0.7415 -0.5072  0.5670
  442MOL0     C58227   1.790   1.954   8.496 -0.0178  0.2228 -0.2509
  442MOL0     C58228   1.688   1.955   8.610  0.3139  0.2427  0.3315
  442MOL0     N58229   1.562   1.888   8.582  0.4115 -0.2277 -0.0744
  442MOL0     C58230   1.543   1.755   8.615 -0.4650 -0.4494 -0.3184
  442MOL0     C58231   1.405   1.739   8.599  0.3614  0.1132  0.3537
  442MOL0     C58232   1.334   1.606   8.625  0.2554 -0.3636 -0.7115
  442MOL0     C58233   1.209   1.626   8.715  1.2605 -0.1350 -0.3531
  442MOL0     C58234   1.090   1.704   8.657  0.4977 -0.0700  0.3108
  442MOL0     C58235   1.059   1.671   8.507  0.9058  0.5797 -0.5296
  442MOL0     O58236   1.010   1.537   8.474 -0.2252  0.3470  0.1764
  442MOL0     C58237   0.873   1.521   8.513  0.5403  0.6163 -1.0707
  442MOL0     C58238   0.794   1.502   8.398  0.6848  0.6407 -0.2766
  442MOL0     C58239   0.659   1.466   8.411 -0.0954  0.4025  0.1903
  442MOL0     C58240   0.605   1.471   8.540 -0.1351  0.9209  0.4077
  442MOL0     C58241   0.464   1.433   8.556  0.1503  0.1737 -0.1316
  442MOL0     O58242   0.400   1.358   8.450 -0.1309 -0.3746 -0.3286
  442MOL0     C58243   0.262   1.331   8.443  0.6208  0.2630 -1.0785
  442MOL0     C58244   0.218   1.261   8.339  0.5562 -0.2206  0.3143
  442MOL0     C58245   0.086   1.233   8.312 -0.1652  0.4846  0.7333
  442MOL0     C58246  -0.014   1.254   8.406 -0.5763  0.4104  0.5783
  442MOL0     O58247  -0.143   1.196   8.397 -0.6265 -0.4760 -0.4960
  442MOL0     C58248  -0.158   1.083   8.312  1.1265  1.1112  0.6158
  442MOL0     C58249  -0.304   1.031   8.326 -0.4724 -0.0538  0.0288
  442MOL0     C58250  -0.416   1.130   8.296 -0.0208 -0.2912 -0.2050
  442MOL0     C58251  -0.553   1.062   8.320 -0.1465  0.3607  0.1845
  442MOL0     C58252  -0.663   1.161   8.289 -0.3158  0.5639 -1.2448
  442MOL0     C58253  -0.797   1.094   8.325 -0.5091  0.1220 -0.0051
  442MOL0     C58254  -0.909   1.177   8.265 -0.3911 -0.6610 -0.7643
  442MOL0     C58255  -1.052   1.120   8.279  0.3755  0.8724 -0.4159
  442MOL0    Cl58256  -1.167   1.235   8.187 -0.0230 -0.0383 -0.0043
  442MOL0     C58257   0.027   1.314   8.526 -0.0409  0.7457  0.4527
  442MOL0     C58258   0.168   1.354   8.549 -0.2426 -0.3897 -0.2166
  442MOL0     O58259   0.417   1.465   8.662 -0.2244  0.3678 -0.0122
  442MOL0     C58260   0.682   1.488   8.659 -0.4348 -0.5924  0.0284
  442MOL0     C58261   0.818   1.514   8.646  0.0091  0.5306 -0.0874
  442MOL0     N58262   1.353   1.847   8.538  0.7383 -0.1188  0.8334
  442MOL0     N58263   1.446   1.937   8.526  0.3228  0.0150 -0.1283
  442MOL0     C58264   2.713   1.800   8.332 -0.6496 -0.1361  0.1109
  442MOL0     C58265   2.833   1.858   8.287  0.7086  0.2558  0.1132
  442MOL0     C58266   3.270   1.921   8.257 -0.6013 -0.4562  0.4907
  442MOL0     C58267   3.285   2.057   8.217  0.4173  0.3646 -0.3745
  442MOL0     C58268   3.412   2.105   8.179  0.2467  0.0679 -0.2333
  442MOL0     C58269   3.529   2.020   8.182  1.2278 -0.7210 -0.4791
  442MOL0     O58270   3.639   2.085   8.135 -0.1088 -0.0451 -0.5359
  442MOL0     C58271   3.735   2.025   8.047  0.0863 -0.3076  0.1764
  442MOL0     C58272   3.857   2.117   8.033  0.3352 -0.3273 -0.2652
  442MOL0     C58273   3.958   2.058   7.931  1.5749 -0.4604  0.7349
  442MOL0     C58274   4.001   1.919   7.973 -0.1433 -0.9896 -0.3820
  442MOL0     C58275   4.102   1.861   7.884 -0.5939 -0.9192  0.2561
  442MOL0     C58276   4.201   1.837   7.813  0.3098  0.1658 -0.1914
  442MOL0     C58277   3.509   1.887   8.210  0.1606 -0.4152 -0.0146
  442MOL0     C58278   3.387   1.839   8.260  0.7518 -0.5301 -0.1427
  442MOL0     H58279   2.993   1.948   8.561 -1.8598  3.1104  0.1761
  442MOL0     H58280   2.758   1.854   8.667  1.1325  1.4185  0.5468
  442MOL0     H58281   2.524   1.884   8.669  0.4739  1.1357 -0.6466
  442MOL0     H58282   2.591   1.712   8.692  0.6176 -3.6225 -4.8255
  442MOL0     H58283   2.357   1.686   8.747 -2.4521  4.3380  1.9254
  442MOL0     H58284   2.356   1.662   8.576  0.7282 -0.8688  0.5984
  442MOL0     H58285   2.321   1.930   8.573 -0.3153  0.4194 -0.2187
  442MOL0     H58286   2.256   1.909   8.735 -3.5833  1.2586 -1.5077
  442MOL0     H58287   2.152   1.757   8.506 -0.0674  0.1875 -0.4136
  442MOL0     H58288   2.116   1.733   8.672 -1.1396  0.7350  0.2353
  442MOL0     H58289   2.067   1.990   8.499 -1.6239  1.5244  0.5071
  442MOL0     H58290   2.004   1.960   8.663 -1.9307 -1.0621 -1.1519
  442MOL0     H58291   1.879   1.771   8.589  1.1897 -2.2243 -0.3202
  442MOL0     H58292   1.940   1.792   8.427 -0.0682 -1.5039  1.3846
  442MOL0     H58293   1.828   2.056   8.503  1.0624 -0.1834  0.0997
  442MOL0     H58294   1.733   1.940   8.404 -2.5627  0.0330  1.2726
  442MOL0     H58295   1.656   2.055   8.638 -3.0093 -0.6246  0.0245
  442MOL0     H58296   1.726   1.901   8.697 -1.0492  0.1612  0.8934
  442MOL0     H58297   1.619   1.685   8.650  0.7331  1.9776  2.3137
  442MOL0     H58298   1.406   1.534   8.664 -1.2078 -1.1331  0.6712
  442MOL0     H58299   1.299   1.566   8.529 -0.3996  2.0593 -1.5573
  442MOL0     H58300   1.246   1.680   8.802  5.3737  1.4765 -2.8296
  442MOL0     H58301   1.184   1.531   8.763  1.5170  0.0933  0.2467
  442MOL0     H58302   0.995   1.710   8.710  1.7275 -0.4458  2.7059
  442MOL0     H58303   1.130   1.806   8.661  3.2111 -1.0495  0.5383
  442MOL0     H58304   1.149   1.685   8.447  1.7777  1.8168  0.9988
  442MOL0     H58305   0.984   1.745   8.478 -0.8518 -0.7616  0.3563
  442MOL0     H58306   0.832   1.490   8.297 -2.2271 -2.6953 -1.2081
  442MOL0     H58307   0.609   1.435   8.319 -0.4902 -1.1940  0.9207
  442MOL0     H58308   0.298   1.242   8.268  1.0253  0.0047  0.7736
  442MOL0     H58309   0.067   1.178   8.220  1.1096  0.6536  0.3422
  442MOL0     H58310  -0.092   1.000   8.338 -0.4615 -0.0836  0.9594
  442MOL0     H58311  -0.140   1.112   8.208 -0.4781 -1.5051 -0.4959
  442MOL0     H58312  -0.325   1.003   8.429  2.1250  0.5975  0.8063
  442MOL0     H58313  -0.321   0.958   8.246 -1.4379 -0.6477  0.7538
  442MOL0     H58314  -0.413   1.169   8.193 -0.5741 -0.8046 -0.4229
  442MOL0     H58315  -0.404   1.221   8.356  3.7378 -1.4066  0.9559
  442MOL0     H58316  -0.573   0.979   8.252 -3.1295 -0.2287  1.6294
  442MOL0     H58317  -0.554   1.030   8.425  1.5415  1.8624  0.7140
  442MOL0     H58318  -0.660   1.179   8.181  0.8689  3.8808 -0.7637
  442MOL0     H58319  -0.653   1.260   8.334  0.0228  0.7783 -1.7853
  442MOL0     H58320  -0.805   1.094   8.434 -0.1391  1.3895  0.0413
  442MOL0     H58321  -0.820   0.990   8.299 -0.0222  0.0023  0.0465
  442MOL0     H58322  -0.905   1.276   8.311  1.4617 -0.9472 -0.2180
  442MOL0     H58323  -0.875   1.196   8.163  3.4852  1.1255  0.6646
  442MOL0     H58324  -1.090   1.112   8.382 -0.3938 -0.9624 -0.8132
  442MOL0     H58325  -1.059   1.017   8.244  1.3791 -0.8680  3.8827
  442MOL0     H58326  -0.048   1.339   8.600  0.6408  3.7406  0.2410
  442MOL0     H58327   0.183   1.405   8.643 -0.5722 -0.1518 -0.2936
  442MOL0     H58328   0.651   1.480   8.763  3.3296 -1.6648  1.2272
  442MOL0     H58329   0.875   1.521   8.738  0.6568  1.0651 -0.5217
  442MOL0     H58330   2.640   1.760   8.262 -2.6826  0.8817  1.5407
  442MOL0     H58331   2.870   1.832   8.189  0.3965 -0.6441  0.2223
  442MOL0     H58332   3.204   2.129   8.211 -0.9419 -0.8609  2.0501
  442MOL0     H58333   3.429   2.209   8.154 -0.2707  0.3137  0.3964
  442MOL0     H58334   3.695   2.008   7.946  0.2881  0.0194  0.0396
  442MOL0     H58335   3.766   1.931   8.095 -1.9215  0.8156  4.0970
  442MOL0     H58336   3.827   2.216   7.999  1.0563 -0.5740 -1.7269
  442MOL0     H58337   3.909   2.122   8.129 -1.4098 -0.0081  0.6875
  442MOL0     H58338   4.045   2.125   7.936 -0.0942  1.7491  1.6064
  442MOL0     H58339   3.914   2.060   7.831 -0.0341 -0.0407  1.4135
  442MOL0     H58340   4.039   1.918   8.076 -0.5422  0.0873 -0.2178
  442MOL0     H58341   3.916   1.852   7.954 -1.1435  0.1404 -0.0087
  442MOL0     H58342   4.293   1.810   7.764  1.0260 -1.4688  1.8704
  442MOL0     H58343   3.599   1.827   8.199 -2.3958 -4.1995 -2.8456
  442MOL0     H58344   3.374   1.733   8.276  2.4466 -0.3736  3.0690
  443MOL0     O58345   4.287   8.453   6.309  0.5250 -0.6197 -0.5405
  443MOL0     C58346   4.270   8.572   6.325  0.3276 -0.6174 -0.4207
  443MOL0     O58347   4.166   8.656   6.288 -0.2217 -0.3139 -0.2032
  443MOL0     C58348   4.039   8.619   6.245 -1.3918 -0.9014 -0.0113
  443MOL0     C58349   3.989   8.497   6.229  0.6750 -0.3684  0.5098
  443MOL0     C58350   3.852   8.491   6.202 -0.2950  0.0080 -0.0496
  443MOL0     C58351   3.771   8.606   6.185  0.0506  0.6636 -0.6635
  443MOL0     O58352   3.646   8.597   6.130  0.5479  0.0849 -0.2229
  443MOL0     C58353   3.601   8.697   6.036 -0.6770 -0.0549 -0.6268
  443MOL0     C58354   3.528   8.635   5.919 -0.0102 -0.5705  0.1207
  443MOL0     C58355   3.619   8.534   5.857 -0.0515  0.1647  0.0357
  443MOL0     C58356   3.616   8.397   5.925 -0.1888 -0.2358  0.6904
  443MOL0     C58357   3.718   8.301   5.849  0.3880  0.2163 -0.8042
  443MOL0     C58358   3.659   8.235   5.724 -0.6843  0.8354  0.5187
  443MOL0     C58359   3.771   8.138   5.670  1.0275  0.5940  0.0338
  443MOL0     C58360   3.765   8.102   5.522 -0.9951 -0.2511 -0.5170
  443MOL0     N58361   3.682   7.981   5.502 -0.9629 -0.4914 -0.5784
  443MOL0     C58362   3.546   7.977   5.505 -0.2165  0.2255 -0.1198
  443MOL0     C58363   3.523   7.850   5.472 -0.1283  0.1194  0.1665
  443MOL0     C58364   3.389   7.788   5.470  0.5756 -0.3125  0.5722
  443MOL0     C58365   3.332   7.793   5.606 -0.0619 -0.5321  0.1877
  443MOL0     C58366   3.194   7.736   5.636  0.7939 -0.0894 -0.4891
  443MOL0     C58367   3.100   7.795   5.539  0.4920  0.4320 -0.4449
  443MOL0     O58368   2.968   7.752   5.572  0.1800 -0.8140 -0.0829
  443MOL0     C58369   2.930   7.613   5.576 -0.3620 -0.1092 -0.0287
  443MOL0     C58370   2.993   7.505   5.513 -0.0629  0.0169 -0.2746
  443MOL0     C58371   2.928   7.381   5.495 -0.1452 -0.1928  0.2785
  443MOL0     C58372   2.802   7.356   5.550  0.1177 -0.4302 -0.0020
  443MOL0     C58373   2.726   7.233   5.529 -0.4385 -0.2273  0.5518
  443MOL0     O58374   2.617   7.221   5.595  0.6782 -0.2149 -0.0330
  443MOL0     C58375   2.529   7.117   5.561 -0.3983  0.2984  0.4729
  443MOL0     C58376   2.404   7.154   5.498 -0.2597 -0.9847 -0.0521
  443MOL0     C58377   2.319   7.056   5.454 -0.2247 -0.6607  0.2985
  443MOL0     C58378   2.353   6.916   5.473  0.5931 -0.0477  1.3157
  443MOL0     O58379   2.245   6.840   5.432 -0.6484 -0.5705  0.5835
  443MOL0     C58380   2.246   6.696   5.468  0.9162 -0.4504 -0.3793
  443MOL0     C58381   2.101   6.658   5.457  0.2317  0.0687 -0.8994
  443MOL0     C58382   2.004   6.733   5.550  0.2698  0.4464  0.0459
  443MOL0     C58383   1.862   6.680   5.568  0.1789 -0.5982 -1.1914
  443MOL0     C58384   1.774   6.750   5.672 -0.0657 -0.6989 -0.2108
  443MOL0     C58385   1.626   6.698   5.667  0.1805  0.3811  0.9712
  443MOL0     C58386   1.623   6.539   5.676  0.4306  0.5712 -0.6602
  443MOL0     C58387   1.487   6.485   5.717 -1.2483  0.3322 -0.5590
  443MOL0    Cl58388   1.442   6.516   5.883  0.1182 -0.2517  0.2431
  443MOL0     C58389   2.471   6.876   5.540 -0.2959  0.3659 -0.8628
  443MOL0     C58390   2.559   6.979   5.578 -0.2002  0.5260  1.1069
  443MOL0     O58391   2.785   7.146   5.461  0.1503  0.4785 -0.2094
  443MOL0     C58392   2.746   7.463   5.617  0.3898  0.4812  0.1938
  443MOL0     C58393   2.801   7.585   5.626  0.6952 -0.2605  0.3558
  443MOL0     N58394   3.639   7.785   5.443 -0.2407 -0.6951 -0.4125
  443MOL0     N58395   3.737   7.858   5.473  0.4499 -0.6792  0.2705
  443MOL0     C58396   3.829   8.732   6.207  0.4219  0.6451 -0.1975
  443MOL0     C58397   3.960   8.737   6.241 -0.2948 -0.5119  0.6544
  443MOL0     C58398   4.391   8.644   6.382 -0.4637  0.6621  0.1158
  443MOL0     C58399   4.389   8.785   6.403  0.6828  0.2667 -0.9250
  443MOL0     C58400   4.507   8.851   6.440  0.1869  1.0598 -0.1361
  443MOL0     C58401   4.628   8.786   6.445  1.5546  0.8778  0.0001
  443MOL0     O58402   4.742   8.855   6.469 -1.2296 -0.4684 -0.1068
  443MOL0     C58403   4.858   8.798   6.420 -0.2081  0.4757  0.1188
  443MOL0     C58404   4.930   8.723   6.545  0.0208  0.1076  1.2680
  443MOL0     C58405   5.066   8.668   6.479  1.2512 -0.4766 -0.2550
  443MOL0     C58406   5.099   8.534   6.551 -0.4573  0.0161  0.2879
  443MOL0     C58407   5.114   8.537   6.695 -0.3776  0.5394 -0.5323
  443MOL0     C58408   5.116   8.525   6.819 -0.7726  0.8840  0.4255
  443MOL0     C58409   4.624   8.642   6.443 -0.4147  0.3073  0.3187
  443MOL0     C58410   4.508   8.575   6.403 -0.1737 -0.0773 -0.1209
  443MOL0     H58411   4.053   8.410   6.240 -1.1319 -2.2585 -2.4800
  443MOL0     H58412   3.813   8.392   6.181  0.2529  0.0145 -1.2022
  443MOL0     H58413   3.685   8.759   6.004  0.4645 -1.1324  0.2216
  443MOL0     H58414   3.533   8.765   6.090  1.5068  0.8380  1.1325
  443MOL0     H58415   3.505   8.708   5.841  3.2878 -1.6369 -2.0872
  443MOL0     H58416   3.431   8.601   5.956  0.9198 -0.5434  2.7812
  443MOL0     H58417   3.723   8.568   5.852 -0.8644  3.8066  2.9223
  443MOL0     H58418   3.573   8.522   5.758 -0.4425  0.5123  0.1737
  443MOL0     H58419   3.640   8.395   6.032 -2.1106 -0.2525  1.1598
  443MOL0     H58420   3.518   8.351   5.907 -0.1568  0.1863 -0.6002
  443MOL0     H58421   3.734   8.221   5.922 -2.4564  0.8818  0.6698
  443MOL0     H58422   3.813   8.352   5.827  1.0562 -0.8248 -0.3801
  443MOL0     H58423   3.630   8.306   5.646 -1.9570 -1.5636 -1.3174
  443MOL0     H58424   3.575   8.174   5.758  1.1004 -0.7140  2.4501
  443MOL0     H58425   3.865   8.191   5.685  0.9200  0.8882 -0.3076
  443MOL0     H58426   3.768   8.047   5.731  1.0696  1.3682  1.2284
  443MOL0     H58427   3.871   8.086   5.499  0.1636  3.0145  1.7692
  443MOL0     H58428   3.726   8.175   5.450  4.6128  1.6281 -2.1285
  443MOL0     H58429   3.476   8.056   5.532  1.0644  0.4217  3.1124
  443MOL0     H58430   3.390   7.683   5.437 -0.2284  0.3964 -1.9916
  443MOL0     H58431   3.328   7.848   5.402  1.1435  0.6575  0.8967
  443MOL0     H58432   3.330   7.899   5.632  0.8692 -0.5551  0.3736
  443MOL0     H58433   3.399   7.741   5.675 -3.0183  0.1372  3.9007
  443MOL0     H58434   3.197   7.628   5.622  0.7861 -0.0754 -0.5927
  443MOL0     H58435   3.143   7.758   5.731 -2.8163 -2.3152 -1.7156
  443MOL0     H58436   3.118   7.762   5.436  4.4758  3.1819 -0.8497
  443MOL0     H58437   3.116   7.903   5.533  0.8295  0.3623 -0.9003
  443MOL0     H58438   3.096   7.522   5.482  0.2787  1.0720  1.2931
  443MOL0     H58439   2.973   7.301   5.436 -2.8017 -0.6835 -1.2241
  443MOL0     H58440   2.374   7.257   5.483 -0.8397 -1.4373 -2.3559
  443MOL0     H58441   2.224   7.090   5.414 -0.6321 -2.3169 -0.2175
  443MOL0     H58442   2.271   6.677   5.573 -1.4392 -0.8046  0.1774
  443MOL0     H58443   2.313   6.641   5.402  0.3719 -1.3121 -0.2224
  443MOL0     H58444   2.095   6.552   5.482 -1.2869  0.3194 -0.0426
  443MOL0     H58445   2.065   6.660   5.354  0.8470 -0.3410 -1.1307
  443MOL0     H58446   1.998   6.826   5.494 -1.3958  0.3289 -0.0138
  443MOL0     H58447   2.047   6.765   5.645  0.6185 -0.7460  0.3045
  443MOL0     H58448   1.808   6.692   5.474 -1.3795  2.6086 -0.0474
  443MOL0     H58449   1.883   6.577   5.597  2.5755 -0.3348 -1.8217
  443MOL0     H58450   1.759   6.853   5.639 -0.3620 -0.6082  0.2054
  443MOL0     H58451   1.817   6.747   5.773  1.8348  4.3785 -0.5733
  443MOL0     H58452   1.572   6.728   5.577  3.2749 -0.6086 -1.4162
  443MOL0     H58453   1.566   6.737   5.750  1.0054 -1.3605  2.4725
  443MOL0     H58454   1.638   6.491   5.579 -1.1729 -3.5933  0.9522
  443MOL0     H58455   1.704   6.506   5.741 -2.5331 -1.1325  2.4927
  443MOL0     H58456   1.483   6.376   5.709  4.1348 -0.0536 -1.7966
  443MOL0     H58457   1.418   6.521   5.641 -0.5955 -0.0569 -1.3567
  443MOL0     H58458   2.502   6.776   5.567  3.9271  1.0251 -2.5303
  443MOL0     H58459   2.654   6.959   5.626 -0.6696 -3.6608  0.6448
  443MOL0     H58460   2.646   7.455   5.658  1.0568  1.6961  2.2133
  443MOL0     H58461   2.751   7.669   5.673 -0.2225 -0.2146 -0.6630
  443MOL0     H58462   3.775   8.826   6.210 -0.4436  0.1191  1.0897
  443MOL0     H58463   4.009   8.831   6.265 -1.9220  0.5696 -0.0638
  443MOL0     H58464   4.294   8.836   6.389  0.7451  0.6397 -0.0889
  443MOL0     H58465   4.497   8.960   6.442  1.0515  1.1387  0.2015
  443MOL0     H58466   4.933   8.868   6.381 -0.5880  1.0041  0.3356
  443MOL0     H58467   4.842   8.727   6.338  0.4311  0.7233 -0.2339
  443MOL0     H58468   4.943   8.802   6.620 -1.3036  1.6013  0.0027
  443MOL0     H58469   4.867   8.645   6.589 -0.5044  0.4873  1.1971
  443MOL0     H58470   5.141   8.747   6.490 -0.4902  1.2259 -0.0819
  443MOL0     H58471   5.038   8.632   6.380 -2.6926 -1.0265  0.8553
  443MOL0     H58472   5.023   8.461   6.522 -1.8233  2.0717 -1.5180
  443MOL0     H58473   5.196   8.507   6.509 -0.1131 -1.3240  1.8379
  443MOL0     H58474   5.110   8.507   6.924 -0.0614  0.0422  0.3287
  443MOL0     H58475   4.715   8.582   6.451  0.5426  1.5062 -0.9478
  443MOL0     H58476   4.527   8.469   6.388  1.9834 -0.4443  3.9243
  444MOL0     O58477  11.133   8.786   4.605 -0.7701 -0.3461  0.4950
  444MOL0     C58478  11.160   8.713   4.705 -0.2411 -0.1805  0.4784
  444MOL0     O58479  11.080   8.690   4.813 -0.2057  0.5224 -0.1713
  444MOL0     C58480  10.954   8.739   4.802 -0.1878 -0.1976  0.1911
  444MOL0     C58481  10.888   8.774   4.920 -0.5665 -0.8651  0.1837
  444MOL0     C58482  10.777   8.858   4.904  0.0226  0.2290 -0.0086
  444MOL0     C58483  10.695   8.848   4.794 -0.0202  0.1509  0.7996
  444MOL0     O58484  10.561   8.878   4.785  0.1199 -0.1258 -0.0479
  444MOL0     C58485  10.521   9.001   4.853 -0.2573 -0.0116 -0.3668
  444MOL0     C58486  10.373   9.015   4.842  0.0218 -0.1388 -0.3929
  444MOL0     C58487  10.322   9.151   4.894  0.0213 -0.1943  0.2168
  444MOL0     C58488  10.173   9.173   4.870 -0.0231 -0.7490 -0.3621
  444MOL0     C58489  10.134   9.305   4.920  0.3044  0.5590  0.3972
  444MOL0     C58490   9.983   9.321   4.916 -0.5115  0.1880 -0.0944
  444MOL0     C58491   9.936   9.472   4.932  0.2556  0.0317 -0.4957
  444MOL0     C58492   9.784   9.469   4.901 -0.8113  0.1796  0.2322
  444MOL0     N58493   9.704   9.398   5.003  0.2603  0.4200  0.3578
  444MOL0     C58494   9.668   9.438   5.125 -0.1494  1.3751 -0.1885
  444MOL0     C58495   9.612   9.327   5.190 -0.1743 -0.0024 -0.2313
  444MOL0     C58496   9.579   9.320   5.331 -0.0791  0.2713  0.5530
  444MOL0     C58497   9.693   9.271   5.428  0.2058  0.3364  0.0104
  444MOL0     C58498   9.731   9.119   5.409  0.1174  0.3630 -0.8336
  444MOL0     C58499   9.883   9.091   5.424 -0.6505  0.9557 -0.0745
  444MOL0     O58500   9.947   9.141   5.540 -0.0085 -0.0741 -0.1551
  444MOL0     C58501  10.083   9.121   5.560 -0.1094 -0.4844  0.8072
  444MOL0     C58502  10.179   9.119   5.458 -0.3949 -0.0983 -0.1757
  444MOL0     C58503  10.314   9.123   5.493 -1.1303  0.1231 -0.9485
  444MOL0     C58504  10.359   9.112   5.627  0.8454  0.6368  0.5329
  444MOL0     C58505  10.502   9.113   5.666  0.5235  0.2508 -0.4269
  444MOL0     O58506  10.515   9.097   5.803  0.3695 -0.4953 -0.4456
  444MOL0     C58507  10.637   9.090   5.849  0.5770  0.3799 -0.0286
  444MOL0     C58508  10.687   9.166   5.956 -0.3440  0.1718 -0.0656
  444MOL0     C58509  10.826   9.156   6.000 -0.1872  0.6670  0.1420
  444MOL0     C58510  10.910   9.062   5.944  0.5140 -0.8601 -0.2052
  444MOL0     O58511  11.040   9.050   5.994  0.8183 -0.3643  0.0156
  444MOL0     C58512  11.131   9.114   5.907 -1.1042 -0.4397  0.2455
  444MOL0     C58513  11.272   9.109   5.974 -0.1206  0.8040 -0.4891
  444MOL0     C58514  11.378   9.184   5.896 -0.4714  0.4948  0.0180
  444MOL0     C58515  11.492   9.230   5.984  0.1290  0.1608 -0.1337
  444MOL0     C58516  11.619   9.277   5.908 -0.4459 -0.3412 -0.6191
  444MOL0     C58517  11.681   9.175   5.811 -0.1600  0.4407  0.4676
  444MOL0     C58518  11.817   9.227   5.762  0.2515  0.5617 -0.1410
  444MOL0     C58519  11.896   9.129   5.679  0.1143  0.0005  0.5771
  444MOL0    Cl58520  11.895   8.972   5.746  0.1790  0.2503  0.6465
  444MOL0     C58521  10.866   8.981   5.843  0.5687  0.1058 -0.3621
  444MOL0     C58522  10.730   8.996   5.799  0.2248  1.5616 -0.0263
  444MOL0     O58523  10.594   9.136   5.585 -0.1258 -0.1800  0.7952
  444MOL0     C58524  10.257   9.123   5.725  0.3306  0.3150 -0.1830
  444MOL0     C58525  10.120   9.129   5.690 -0.2278  0.0262 -0.2874
  444MOL0     N58526   9.602   9.226   5.095 -0.2354 -0.2154  0.1383
  444MOL0     N58527   9.661   9.268   4.984  0.9031 -0.5980 -0.2739
  444MOL0     C58528  10.745   8.783   4.686  0.9411 -0.4452  0.0739
  444MOL0     C58529  10.875   8.739   4.684  0.2749  1.1891  0.0144
  444MOL0     C58530  11.283   8.632   4.677 -0.6195  0.2796 -0.4051
  444MOL0     C58531  11.298   8.496   4.713 -0.0030 -1.0197 -0.3654
  444MOL0     C58532  11.412   8.425   4.681 -0.2896  0.0895 -0.0425
  444MOL0     C58533  11.515   8.482   4.605 -0.4590  0.4710 -0.1661
  444MOL0     O58534  11.638   8.430   4.583  0.3460  0.7306 -0.0355
  444MOL0     C58535  11.706   8.320   4.651  0.7281  0.5256  0.1689
  444MOL0     C58536  11.662   8.180   4.593 -0.6410 -0.1716  0.9947
  444MOL0     C58537  11.694   8.175   4.443  1.1564  0.0245  0.5428
  444MOL0     C58538  11.622   8.048   4.386  0.4199  0.1213  0.1636
  444MOL0     C58539  11.674   8.013   4.248 -0.8242  0.1134 -0.1543
  444MOL0     C58540  11.721   8.001   4.136  0.3834 -0.5598 -0.3647
  444MOL0     C58541  11.497   8.611   4.552  0.6224 -0.1788 -0.4169
  444MOL0     C58542  11.385   8.689   4.595 -0.4561 -0.2510 -0.1533
  444MOL0     H58543  10.941   8.764   5.014 -0.0150  1.4682  0.1899
  444MOL0     H58544  10.727   8.912   4.984 -2.7604  0.2512 -1.6082
  444MOL0     H58545  10.581   9.088   4.824 -2.5060  0.8350 -2.9107
  444MOL0     H58546  10.534   8.983   4.960 -0.2208 -1.8257 -0.6510
  444MOL0     H58547  10.323   8.939   4.902 -1.4823 -0.0102 -1.3984
  444MOL0     H58548  10.343   9.018   4.737 -1.3742  2.5878 -0.0206
  444MOL0     H58549  10.385   9.223   4.841 -0.6024 -0.2775 -0.6564
  444MOL0     H58550  10.337   9.145   5.002 -2.7795 -2.0984  0.6059
  444MOL0     H58551  10.145   9.156   4.766 -0.6227  0.9681 -0.5145
  444MOL0     H58552  10.126   9.095   4.930 -1.5225  1.3714  1.3943
  444MOL0     H58553  10.189   9.385   4.869 -1.4919  0.5992 -1.6130
  444MOL0     H58554  10.172   9.296   5.023  0.9866 -3.8717 -0.0458
  444MOL0     H58555   9.950   9.263   5.003  1.9314 -0.1890  0.6486
  444MOL0     H58556   9.946   9.278   4.822  2.2242 -2.9236  0.0854
  444MOL0     H58557   9.961   9.516   5.029 -1.0975 -0.0985 -0.0617
  444MOL0     H58558   9.985   9.535   4.857  2.6490 -1.1019  0.0211
  444MOL0     H58559   9.777   9.422   4.803  1.2356  1.7644 -0.7576
  444MOL0     H58560   9.741   9.568   4.882  0.2198  0.6993  0.5350
  444MOL0     H58561   9.690   9.537   5.164 -2.9785  0.7962  3.4280
  444MOL0     H58562   9.501   9.244   5.328  2.0930 -2.0835 -0.6548
  444MOL0     H58563   9.530   9.416   5.351  0.3858  0.3035  1.5969
  444MOL0     H58564   9.659   9.279   5.531  1.1511  3.0319  0.2093
  444MOL0     H58565   9.787   9.326   5.414  1.5414 -1.6404  0.7382
  444MOL0     H58566   9.678   9.060   5.484  0.3926  0.3252 -0.6686
  444MOL0     H58567   9.708   9.091   5.305  4.1425  0.0540 -1.7895
  444MOL0     H58568   9.930   9.147   5.343 -0.3420  3.9850  2.0205
  444MOL0     H58569   9.884   8.982   5.422 -2.6618  0.8317  1.8662
  444MOL0     H58570  10.152   9.114   5.353 -1.1351 -1.9245  0.0568
  444MOL0     H58571  10.396   9.129   5.422  1.4045  0.0066  1.7409
  444MOL0     H58572  10.620   9.235   6.008 -0.2947  0.0420  0.1727
  444MOL0     H58573  10.869   9.220   6.077  0.9487  2.5104 -1.9133
  444MOL0     H58574  11.093   9.216   5.895  1.3079  0.5356  0.3248
  444MOL0     H58575  11.142   9.060   5.813  1.5816  0.1002  0.1539
  444MOL0     H58576  11.312   9.009   5.991 -0.2275  0.7516 -0.5397
  444MOL0     H58577  11.252   9.151   6.073 -0.7175 -0.2394 -0.1487
  444MOL0     H58578  11.325   9.263   5.842 -1.5961  1.4896  2.4474
  444MOL0     H58579  11.420   9.115   5.822 -1.7857 -0.6772  0.3197
  444MOL0     H58580  11.457   9.319   6.037  1.2663 -0.5821  1.9533
  444MOL0     H58581  11.521   9.153   6.056 -0.9227  0.2987  0.4564
  444MOL0     H58582  11.694   9.303   5.984 -0.3406  0.9383 -1.1330
  444MOL0     H58583  11.603   9.372   5.856  1.1947 -0.1723 -0.8636
  444MOL0     H58584  11.623   9.167   5.719  2.2076  1.2417 -1.1810
  444MOL0     H58585  11.700   9.076   5.853  2.6610 -0.6427 -2.9146
  444MOL0     H58586  11.803   9.316   5.700  1.7467  1.7698  1.1831
  444MOL0     H58587  11.874   9.264   5.848 -0.6805  0.8249  0.3747
  444MOL0     H58588  11.999   9.166   5.672 -0.0770  0.2774 -1.3305
  444MOL0     H58589  11.848   9.115   5.583 -1.9916 -2.1714  1.8573
  444MOL0     H58590  10.936   8.913   5.795  0.0429  0.9642 -2.4425
  444MOL0     H58591  10.688   8.930   5.723 -2.2524  1.1228  1.6015
  444MOL0     H58592  10.274   9.111   5.831 -3.5986 -2.8112  0.3425
  444MOL0     H58593  10.052   9.148   5.773  0.3398 -0.2964  0.2588
  444MOL0     H58594  10.680   8.778   4.599  1.5707  2.6839 -0.7179
  444MOL0     H58595  10.920   8.713   4.588  0.9369  1.5471  0.2199
  444MOL0     H58596  11.215   8.457   4.772  1.6392 -1.8496  1.5126
  444MOL0     H58597  11.417   8.321   4.711 -3.0771  0.7094  3.2771
  444MOL0     H58598  11.686   8.335   4.758 -2.8023 -0.1798 -0.2622
  444MOL0     H58599  11.812   8.334   4.626  0.6719  0.0040 -0.3678
  444MOL0     H58600  11.723   8.107   4.647  1.4428  0.4459 -0.3848
  444MOL0     H58601  11.560   8.154   4.621 -0.6334 -1.6943 -0.2492
  444MOL0     H58602  11.803   8.174   4.432  0.9975  0.4735 -1.4405
  444MOL0     H58603  11.645   8.262   4.399  0.8504 -0.0249  0.7808
  444MOL0     H58604  11.647   7.965   4.454  1.7240  0.5365  0.2253
  444MOL0     H58605  11.515   8.067   4.395  0.6680  0.9253  1.7171
  444MOL0     H58606  11.755   7.998   4.034 -2.2366 -2.0963 -1.2968
  444MOL0     H58607  11.559   8.664   4.481 -1.6541  0.0594 -2.3400
  444MOL0     H58608  11.375   8.793   4.564 -2.6849 -0.9956 -2.2225
  445MOL0     O58609   9.199   9.494   7.299  0.0402  0.0287  0.4962
  445MOL0     C58610   9.212   9.612   7.343  0.6360 -0.3551  0.1600
  445MOL0     O58611   9.111   9.695   7.378  0.0844  0.3527 -0.3880
  445MOL0     C58612   8.975   9.654   7.383  0.6168  1.4048  0.2445
  445MOL0     C58613   8.895   9.715   7.475  0.3125 -0.8287  0.3567
  445MOL0     C58614   8.759   9.698   7.474  0.0243 -0.4685 -0.8676
  445MOL0     C58615   8.692   9.625   7.375  0.1989  0.8592  0.0071
  445MOL0     O58616   8.558   9.621   7.390  0.4281  0.3112  0.8790
  445MOL0     C58617   8.486   9.596   7.273  0.3277 -0.6455  0.2451
  445MOL0     C58618   8.499   9.708   7.167  0.1123  0.1111 -0.0383
  445MOL0     C58619   8.377   9.707   7.086  0.8208  0.8137 -1.2085
  445MOL0     C58620   8.381   9.826   6.991  0.1395  0.2775  0.4171
  445MOL0     C58621   8.239   9.837   6.916 -0.2321 -0.6375  0.0623
  445MOL0     C58622   8.191   9.697   6.858 -0.2125 -0.3941 -0.1208
  445MOL0     C58623   8.091   9.706   6.733 -0.2347  0.0825  0.0916
  445MOL0     C58624   7.960   9.765   6.764  0.5015 -0.6177 -0.2911
  445MOL0     N58625   7.862   9.734   6.662  0.5723  0.0977  0.6899
  445MOL0     C58626   7.807   9.616   6.644 -0.9272 -0.3468 -0.6366
  445MOL0     C58627   7.760   9.624   6.517  0.2626 -0.4070 -0.7632
  445MOL0     C58628   7.696   9.509   6.448  0.5689  0.0427 -0.9434
  445MOL0     C58629   7.548   9.488   6.495 -0.2393 -0.1635 -0.6609
  445MOL0     C58630   7.484   9.368   6.423 -0.4846  0.3679  0.3125
  445MOL0     C58631   7.334   9.361   6.455 -1.1845  0.1222 -0.0521
  445MOL0     O58632   7.330   9.329   6.591 -0.2852  0.7441 -0.4644
  445MOL0     C58633   7.207   9.323   6.656  0.2762  0.7813 -0.9147
  445MOL0     C58634   7.213   9.262   6.786  0.0451  0.1046  0.6415
  445MOL0     C58635   7.100   9.257   6.871  0.8500  0.2329 -0.7437
  445MOL0     C58636   6.971   9.315   6.833 -0.0172 -0.0591  0.3781
  445MOL0     C58637   6.851   9.322   6.927 -0.1321 -0.2131  0.7110
  445MOL0     O58638   6.876   9.308   7.060  0.1902  0.1513 -0.2828
  445MOL0     C58639   6.772   9.310   7.147 -0.0635  0.3108 -0.3362
  445MOL0     C58640   6.758   9.395   7.252 -1.2596 -0.4359 -0.9254
  445MOL0     C58641   6.654   9.379   7.343 -0.1915 -1.3351 -0.0172
  445MOL0     C58642   6.566   9.273   7.336 -0.4260  0.5597  0.3284
  445MOL0     O58643   6.462   9.274   7.426  0.1665 -0.0771 -0.0602
  445MOL0     C58644   6.366   9.166   7.415 -0.5361 -0.0123  0.1136
  445MOL0     C58645   6.250   9.161   7.514 -0.3372  0.1959 -0.0474
  445MOL0     C58646   6.128   9.233   7.468  0.6267 -0.6628 -0.2255
  445MOL0     C58647   6.007   9.200   7.560 -0.2331  0.0514  0.6810
  445MOL0     C58648   5.877   9.247   7.521  0.8385  0.5343  0.8328
  445MOL0     C58649   5.777   9.231   7.642 -0.2335  0.0190 -0.0039
  445MOL0     C58650   5.637   9.299   7.610 -0.2259 -0.7449 -0.5733
  445MOL0     C58651   5.527   9.270   7.712 -0.3852 -0.1416  0.4025
  445MOL0    Cl58652   5.576   9.374   7.849  0.1863 -0.0623  0.1586
  445MOL0     C58653   6.590   9.179   7.235 -0.3654  0.2713  0.4286
  445MOL0     C58654   6.692   9.194   7.143  0.5599 -1.2971 -0.4942
  445MOL0     O58655   6.741   9.341   6.876 -0.0193  0.3277 -0.2582
  445MOL0     C58656   6.971   9.363   6.697  0.6894  0.2620  0.0567
  445MOL0     C58657   7.085   9.369   6.614 -0.4590  0.5209  0.0473
  445MOL0     N58658   7.791   9.748   6.458 -0.2538  0.6467  0.3220
  445MOL0     N58659   7.848   9.817   6.554  0.3465 -0.1164 -0.1126
  445MOL0     C58660   8.775   9.563   7.275  0.3081  0.3076 -0.1889
  445MOL0     C58661   8.915   9.582   7.284 -0.5619 -0.7132  0.3053
  445MOL0     C58662   9.350   9.667   7.349 -0.3557  0.1830  0.5393
  445MOL0     C58663   9.462   9.586   7.375 -0.0840 -0.3245 -0.6185
  445MOL0     C58664   9.589   9.645   7.375 -0.6058 -0.2268 -0.2954
  445MOL0     C58665   9.599   9.785   7.351  0.2041 -0.0142  0.2412
  445MOL0     O58666   9.730   9.838   7.365  0.2637 -0.6204 -0.3226
  445MOL0     C58667   9.804   9.856   7.245  0.8191  0.1345  0.2217
  445MOL0     C58668   9.890   9.984   7.257  0.0101  0.8845  0.1473
  445MOL0     C58669   9.815  10.104   7.312  0.6789 -0.3905  0.2034
  445MOL0     C58670   9.901  10.225   7.284 -0.2780 -0.6109 -0.7022
  445MOL0     C58671   9.871  10.340   7.367  0.2753 -0.1649 -0.2157
  445MOL0     C58672   9.846  10.487   7.489  1.2905 -1.6347  0.5823
  445MOL0     C58673   9.482   9.867   7.353 -0.2997  1.1855  0.8240
  445MOL0     C58674   9.364   9.805   7.344 -0.7881  0.2282  1.3013
  445MOL0     H58675   8.933   9.792   7.542 -2.0592 -1.3175  2.4189
  445MOL0     H58676   8.686   9.737   7.545 -0.0325 -1.4022 -0.4043
  445MOL0     H58677   8.383   9.569   7.296 -0.0484 -1.9806 -2.5892
  445MOL0     H58678   8.518   9.500   7.232 -1.1415  0.2869 -3.4441
  445MOL0     H58679   8.591   9.701   7.110 -0.7565 -0.0389 -1.4721
  445MOL0     H58680   8.499   9.807   7.214 -2.4545  0.9657 -1.6228
  445MOL0     H58681   8.289   9.703   7.151  1.0572 -1.1376 -0.9664
  445MOL0     H58682   8.380   9.609   7.039 -0.8782 -0.0483  0.3541
  445MOL0     H58683   8.407   9.916   7.046 -0.0324  1.1183 -0.8333
  445MOL0     H58684   8.451   9.808   6.908 -0.4049  0.9128 -0.1883
  445MOL0     H58685   8.243   9.915   6.839  2.1982 -2.4147 -1.7675
  445MOL0     H58686   8.162   9.890   6.973  2.0692  1.9507  1.0064
  445MOL0     H58687   8.151   9.636   6.939  3.1912 -2.1458  0.4282
  445MOL0     H58688   8.284   9.653   6.821  0.1015 -0.3687  0.6184
  445MOL0     H58689   8.119   9.758   6.640 -0.6977 -0.4969 -0.3757
  445MOL0     H58690   8.067   9.602   6.709 -1.4069  0.7317 -1.7981
  445MOL0     H58691   7.960   9.873   6.778 -1.1204 -0.5159 -0.8677
  445MOL0     H58692   7.922   9.736   6.862  3.2500 -2.7884  0.2546
  445MOL0     H58693   7.816   9.531   6.712  2.7343 -0.1558 -0.7182
  445MOL0     H58694   7.756   9.424   6.483 -0.7051  0.6398  3.3153
  445MOL0     H58695   7.698   9.530   6.341 -1.4324  0.8592 -0.8458
  445MOL0     H58696   7.490   9.580   6.498  1.5168  0.9683  0.0790
  445MOL0     H58697   7.561   9.459   6.600  2.4019 -0.8666 -1.1036
  445MOL0     H58698   7.500   9.366   6.314  2.3758 -0.6092  0.6663
  445MOL0     H58699   7.522   9.273   6.460 -1.5310 -0.4500 -0.6310
  445MOL0     H58700   7.286   9.291   6.387  1.4709 -3.5806  1.5627
  445MOL0     H58701   7.292   9.461   6.442 -2.5542 -0.1836  1.5857
  445MOL0     H58702   7.313   9.228   6.812  1.1469  2.7660  0.2485
  445MOL0     H58703   7.125   9.215   6.968  1.6513  0.1987 -0.9557
  445MOL0     H58704   6.832   9.475   7.253  1.8709 -2.9278 -4.3765
  445MOL0     H58705   6.638   9.450   7.423  2.3286 -0.6498 -0.0536
  445MOL0     H58706   6.410   9.066   7.414 -1.3119 -0.4005 -1.9055
  445MOL0     H58707   6.324   9.178   7.314  0.4067  2.6770 -0.0385
  445MOL0     H58708   6.286   9.192   7.612 -1.1097 -1.7691  0.9027
  445MOL0     H58709   6.216   9.059   7.533  1.3949 -0.0810  1.8862
  445MOL0     H58710   6.117   9.182   7.372  0.5261 -1.7060  0.3180
  445MOL0     H58711   6.147   9.340   7.455  0.2847 -0.5444  0.2521
  445MOL0     H58712   5.992   9.092   7.571 -1.6139 -0.0888 -1.8877
  445MOL0     H58713   6.027   9.233   7.662 -2.9035 -1.2271  1.7215
  445MOL0     H58714   5.840   9.190   7.435 -0.0247  3.3135 -0.7775
  445MOL0     H58715   5.892   9.347   7.478 -0.6515 -0.3138 -1.9532
  445MOL0     H58716   5.821   9.281   7.729  1.6031 -1.5691  0.0338
  445MOL0     H58717   5.768   9.125   7.665  1.2948  0.2794  2.0721
  445MOL0     H58718   5.661   9.404   7.591 -0.4012 -1.0140 -2.5165
  445MOL0     H58719   5.607   9.257   7.513  1.1720 -1.0225 -0.9100
  445MOL0     H58720   5.525   9.164   7.738  1.1790 -1.5526 -4.3571
  445MOL0     H58721   5.429   9.301   7.675  0.2877 -0.7640 -2.0340
  445MOL0     H58722   6.547   9.079   7.232  0.4756 -0.0842 -0.1085
  445MOL0     H58723   6.709   9.120   7.066  2.7566 -2.1216  0.6920
  445MOL0     H58724   6.884   9.405   6.648  1.8036  1.7968 -0.6795
  445MOL0     H58725   7.080   9.416   6.517  1.7318 -0.7119 -0.7498
  445MOL0     H58726   8.736   9.508   7.190 -0.5587 -0.0195  0.4062
  445MOL0     H58727   8.982   9.558   7.202 -0.0955  0.7920  0.2158
  445MOL0     H58728   9.450   9.482   7.404 -0.7786 -0.5277 -1.6034
  445MOL0     H58729   9.683   9.597   7.401  0.9373  2.2238 -0.9033
  445MOL0     H58730   9.733   9.846   7.162  1.3921 -0.8246 -0.1764
  445MOL0     H58731   9.863   9.764   7.234 -2.3997 -2.1091  0.3632
  445MOL0     H58732   9.977   9.960   7.319 -0.0302 -2.1128 -0.7876
  445MOL0     H58733   9.909  10.004   7.151 -1.2351 -3.3878 -1.0906
  445MOL0     H58734   9.801  10.088   7.419 -0.4928  3.0581  0.7022
  445MOL0     H58735   9.718  10.113   7.262  1.2029  0.3720 -0.7089
  445MOL0     H58736  10.003  10.201   7.314 -0.5628 -1.3181 -0.2920
  445MOL0     H58737   9.896  10.260   7.180  3.2202 -1.3084 -1.2247
  445MOL0     H58738   9.834  10.569   7.556 -1.7916 -1.7711  0.3405
  445MOL0     H58739   9.498   9.973   7.342 -1.9290  1.1921 -3.4029
  445MOL0     H58740   9.277   9.866   7.320 -0.4046 -0.0317 -0.9825
  446MOL0     O58741   4.048  10.665   7.342  0.2405 -0.6509 -0.4189
  446MOL0     C58742   4.128  10.586   7.395 -0.0653  0.2870 -0.9449
  446MOL0     O58743   4.116  10.541   7.524 -0.3090 -0.1126  0.3973
  446MOL0     C58744   4.009  10.571   7.601  0.1172 -0.4336 -0.5084
  446MOL0     C58745   3.909  10.480   7.625  0.3874 -0.0744 -0.3701
  446MOL0     C58746   3.798  10.512   7.702 -0.4403  0.2441 -0.0047
  446MOL0     C58747   3.789  10.639   7.753  0.7390 -0.4846 -0.2065
  446MOL0     O58748   3.699  10.679   7.849 -0.2197 -0.0766 -0.6880
  446MOL0     C58749   3.601  10.584   7.898 -0.7275 -0.6311  0.0968
  446MOL0     C58750   3.521  10.627   8.016  0.1943 -0.6477  0.4033
  446MOL0     C58751   3.404  10.726   7.990 -0.9379 -0.1326  0.0392
  446MOL0     C58752   3.305  10.718   8.112 -0.9564 -0.3806  0.1943
  446MOL0     C58753   3.195  10.825   8.083  0.5013  0.4641  0.1808
  446MOL0     C58754   3.072  10.787   8.006  0.5504  0.0125 -0.1722
  446MOL0     C58755   2.962  10.892   8.008  0.2386 -0.0712 -0.9857
  446MOL0     C58756   2.906  10.892   8.149  0.7108  0.2571 -0.0920
  446MOL0     N58757   2.779  10.958   8.149  0.8149  0.1133  0.4260
  446MOL0     C58758   2.760  11.093   8.131 -1.4037 -0.4870  0.4416
  446MOL0     C58759   2.629  11.114   8.149  0.2999  0.0523  0.7286
  446MOL0     C58760   2.554  11.240   8.121  0.9833  0.5184  0.0689
  446MOL0     C58761   2.580  11.362   8.208  0.7583 -0.5769 -0.1837
  446MOL0     C58762   2.551  11.356   8.360 -0.2477 -0.3052 -0.4324
  446MOL0     C58763   2.655  11.283   8.437 -1.1031  0.0079  0.1639
  446MOL0     O58764   2.780  11.354   8.428 -0.0229  0.1367  0.8963
  446MOL0     C58765   2.903  11.297   8.451  0.4011 -0.1210  0.6870
  446MOL0     C58766   3.013  11.337   8.369  0.2279 -0.4760 -0.5347
  446MOL0     C58767   3.131  11.268   8.387  0.0998 -0.7885 -0.5946
  446MOL0     C58768   3.151  11.176   8.489  1.0545 -0.9098  0.1078
  446MOL0     C58769   3.280  11.107   8.498  0.4396  0.3457 -0.2826
  446MOL0     O58770   3.357  11.097   8.387  0.0071  0.2357  0.2379
  446MOL0     C58771   3.488  11.092   8.400 -0.1246 -0.1649 -0.5391
  446MOL0     C58772   3.565  11.171   8.490 -0.8183 -0.6992  0.5350
  446MOL0     C58773   3.707  11.180   8.472  0.5768 -0.2313  0.7647
  446MOL0     C58774   3.770  11.084   8.385  0.3555 -0.4815  1.0859
  446MOL0     O58775   3.910  11.089   8.401  0.1473  0.4581  0.0840
  446MOL0     C58776   3.979  11.000   8.311 -0.0081  0.3987  0.2134
  446MOL0     C58777   4.131  11.016   8.344 -0.6122 -0.4267 -1.9007
  446MOL0     C58778   4.184  11.148   8.293 -0.0981 -0.4156 -0.4215
  446MOL0     C58779   4.321  11.169   8.340 -0.1879 -0.7086 -0.2006
  446MOL0     C58780   4.386  11.273   8.252 -0.4209  0.9407  0.2356
  446MOL0     C58781   4.533  11.269   8.278  0.8192 -0.2763 -0.2233
  446MOL0     C58782   4.595  11.373   8.185  0.6562 -0.7078 -0.0701
  446MOL0     C58783   4.743  11.370   8.190 -0.2605  0.0425 -0.0289
  446MOL0    Cl58784   4.806  11.383   8.356 -0.1862 -0.6952  0.1783
  446MOL0     C58785   3.690  11.005   8.289  0.4839 -0.8670 -0.4491
  446MOL0     C58786   3.552  11.021   8.305  0.7399  0.2668 -0.0946
  446MOL0     O58787   3.308  11.056   8.604 -0.7702  0.4982  0.3838
  446MOL0     C58788   3.037  11.142   8.562 -0.3840 -0.1774  0.2631
  446MOL0     C58789   2.915  11.199   8.546  0.5653 -0.2491  0.0670
  446MOL0     N58790   2.577  10.993   8.192 -1.0826 -0.1004 -0.1174
  446MOL0     N58791   2.667  10.900   8.192 -0.2666  0.8337  0.2723
  446MOL0     C58792   3.887  10.743   7.712  0.2861  0.6984  0.5316
  446MOL0     C58793   3.994  10.703   7.634 -1.1830 -0.1547  0.1175
  446MOL0     C58794   4.230  10.523   7.316  0.4041 -0.8124  1.1374
  446MOL0     C58795   4.301  10.414   7.355  0.0525  0.8178  1.1285
  446MOL0     C58796   4.410  10.367   7.277  0.2765  0.7036  0.0736
  446MOL0     C58797   4.450  10.431   7.164  0.2657  0.0567 -0.6017
  446MOL0     O58798   4.543  10.382   7.080  0.5697  0.3358 -0.2024
  446MOL0     C58799   4.516  10.245   7.043 -0.5029  0.1753 -0.7532
  446MOL0     C58800   4.510  10.237   6.894 -0.1530 -0.0536 -1.4614
  446MOL0     C58801   4.496  10.084   6.870  0.6684 -0.1666  0.0961
  446MOL0     C58802   4.507  10.036   6.722  0.1675  0.6753  0.2121
  446MOL0     C58803   4.642  10.080   6.662  0.7082  0.4719  0.4108
  446MOL0     C58804   4.743  10.128   6.613 -0.3623 -0.0795 -0.2619
  446MOL0     C58805   4.386  10.546   7.131 -0.2184  0.8161 -0.0879
  446MOL0     C58806   4.272  10.597   7.195  0.3628  1.4675 -0.1199
  446MOL0     H58807   3.919  10.376   7.593 -0.7870 -0.1425 -0.5736
  446MOL0     H58808   3.717  10.441   7.712 -0.1788 -0.0586 -0.0105
  446MOL0     H58809   3.643  10.491   7.935 -0.8914 -0.1553  1.5748
  446MOL0     H58810   3.529  10.558   7.820 -0.6365 -1.0183  0.1430
  446MOL0     H58811   3.592  10.666   8.089  0.2157 -2.9516  1.6971
  446MOL0     H58812   3.475  10.535   8.053 -1.0875 -0.2412 -0.1423
  446MOL0     H58813   3.364  10.701   7.891  0.4277 -2.0676 -0.0700
  446MOL0     H58814   3.447  10.826   8.003  1.2752 -1.2463  2.0704
  446MOL0     H58815   3.263  10.619   8.128 -0.4350 -0.3950  1.5994
  446MOL0     H58816   3.362  10.753   8.198  2.7060  0.6535 -2.3701
  446MOL0     H58817   3.241  10.907   8.027  0.2421 -0.7942 -1.9907
  446MOL0     H58818   3.168  10.857   8.184 -1.2147 -4.6791  1.6654
  446MOL0     H58819   3.032  10.696   8.053  0.7310  0.8283  1.6379
  446MOL0     H58820   3.089  10.763   7.901 -2.7535 -3.3182 -0.1869
  446MOL0     H58821   3.000  10.990   7.976  0.2785  0.2154 -0.0938
  446MOL0     H58822   2.891  10.860   7.932  0.5293 -2.6234 -0.2754
  446MOL0     H58823   2.972  10.943   8.220 -1.2577  1.3555  1.0346
  446MOL0     H58824   2.895  10.786   8.174  4.2386 -0.6391 -1.6119
  446MOL0     H58825   2.833  11.173   8.120 -1.3925 -0.3482  1.4420
  446MOL0     H58826   2.446  11.224   8.137  1.0287  1.2458  1.2480
  446MOL0     H58827   2.550  11.268   8.016  1.2603  0.6838  0.1013
  446MOL0     H58828   2.521  11.442   8.162  0.1900 -0.4239  0.7765
  446MOL0     H58829   2.682  11.400   8.200 -0.0555  1.3328 -2.6495
  446MOL0     H58830   2.558  11.458   8.398 -0.2517  0.7030 -2.9001
  446MOL0     H58831   2.450  11.314   8.372  0.0319 -0.8025  0.1717
  446MOL0     H58832   2.653  11.176   8.416 -3.7639  0.2051 -1.0599
  446MOL0     H58833   2.633  11.296   8.543 -0.8016  2.2716 -0.0074
  446MOL0     H58834   2.982  11.418   8.303  0.2258  1.2945  1.5102
  446MOL0     H58835   3.210  11.298   8.319  1.3076  1.8953  1.7828
  446MOL0     H58836   3.514  11.247   8.548 -3.4897 -0.5727 -1.8035
  446MOL0     H58837   3.768  11.219   8.553  1.5212  0.0000 -0.0424
  446MOL0     H58838   3.962  11.042   8.212  1.3795  2.0310  0.6171
  446MOL0     H58839   3.952  10.895   8.297  2.8197 -0.6390  1.5617
  446MOL0     H58840   4.185  10.932   8.299  0.9187 -0.6781  0.2435
  446MOL0     H58841   4.154  11.002   8.450  0.7185  1.8247 -1.8438
  446MOL0     H58842   4.123  11.232   8.329  1.4470  0.4001  0.3683
  446MOL0     H58843   4.184  11.149   8.184 -2.5325 -0.9929 -0.4855
  446MOL0     H58844   4.334  11.198   8.444  0.4398 -1.7310  0.0284
  446MOL0     H58845   4.380  11.076   8.338  1.4098  0.2709 -1.9734
  446MOL0     H58846   4.343  11.369   8.282  1.6751  1.9926  0.0690
  446MOL0     H58847   4.357  11.264   8.147  0.2074  2.4889 -0.1005
  446MOL0     H58848   4.561  11.165   8.257 -1.2072 -0.8259 -0.4327
  446MOL0     H58849   4.551  11.280   8.386  0.2679 -1.2693 -0.0140
  446MOL0     H58850   4.568  11.370   8.079 -0.7909  0.9362  0.2045
  446MOL0     H58851   4.559  11.464   8.234 -1.1428 -2.8749  3.0794
  446MOL0     H58852   4.775  11.455   8.128  1.8204 -1.6090 -1.3370
  446MOL0     H58853   4.770  11.276   8.141  1.2947  2.1617 -3.7175
  446MOL0     H58854   3.746  10.958   8.209  5.3002  0.3582  1.8389
  446MOL0     H58855   3.501  10.979   8.219 -1.6024 -1.6696  2.0705
  446MOL0     H58856   3.045  11.070   8.643 -1.6529 -0.3184  0.2885
  446MOL0     H58857   2.817  11.167   8.581 -0.5338  2.9189  0.1791
  446MOL0     H58858   3.870  10.845   7.743 -1.2061  0.9411 -0.9668
  446MOL0     H58859   4.070  10.778   7.611 -1.5125 -0.1648 -1.0341
  446MOL0     H58860   4.269  10.361   7.444 -3.6197 -2.8517 -1.9677
  446MOL0     H58861   4.465  10.282   7.316  0.1930  0.6876  0.1530
  446MOL0     H58862   4.426  10.210   7.095 -0.3063  3.6635  2.3717
  446MOL0     H58863   4.602  10.187   7.076 -0.7001  1.1257  1.6249
  446MOL0     H58864   4.433  10.303   6.852  3.0501  2.8700 -3.2720
  446MOL0     H58865   4.600  10.278   6.847 -1.7936 -0.6483 -5.6382
  446MOL0     H58866   4.396  10.044   6.891  0.7280 -0.0217  0.6689
  446MOL0     H58867   4.581  10.031   6.914  1.6262 -0.7937 -2.3663
  446MOL0     H58868   4.502   9.926   6.718  2.4583  0.5522 -0.5884
  446MOL0     H58869   4.426  10.059   6.652 -0.8800 -1.5190  0.6092
  446MOL0     H58870   4.832  10.178   6.580 -3.1163  4.1367 -2.0372
  446MOL0     H58871   4.420  10.597   7.042 -0.7782 -0.7882 -1.2567
  446MOL0     H58872   4.216  10.687   7.171  0.0817  0.7662 -2.4125
  447MOL0     O58873   0.872   1.031   9.202 -0.3526 -0.6890 -0.1057
  447MOL0     C58874   0.919   1.034   9.089 -0.2924  0.2345 -0.1455
  447MOL0     O58875   0.857   1.075   8.976 -0.3685 -0.4178  1.0462
  447MOL0     C58876   0.716   1.090   8.971 -0.5965 -0.2328  0.3134
  447MOL0     C58877   0.669   1.222   8.987  0.4648 -0.1661  0.3605
  447MOL0     C58878   0.527   1.249   8.993  0.4772 -0.8252 -0.5286
  447MOL0     C58879   0.435   1.145   8.993  0.7906  0.4086  0.0845
  447MOL0     O58880   0.296   1.145   9.023 -0.9703 -0.0454  0.1787
  447MOL0     C58881   0.245   1.276   9.047  1.1365 -1.2789  0.5797
  447MOL0     C58882   0.195   1.346   8.919  0.0149  0.0147 -0.4676
  447MOL0     C58883   0.047   1.385   8.915  0.2808  0.2018  0.2959
  447MOL0     C58884  -0.057   1.274   8.937  0.0131  0.5672 -0.7094
  447MOL0     C58885  -0.186   1.265   8.847 -0.8004 -0.2795 -0.3109
  447MOL0     C58886  -0.267   1.386   8.828  0.9528 -0.2866 -0.1019
  447MOL0     C58887  -0.377   1.384   8.728  0.5118  0.8617  0.9134
  447MOL0     C58888  -0.493   1.278   8.771 -0.0589 -0.3596 -0.7127
  447MOL0     N58889  -0.574   1.318   8.883  0.3437  0.1532 -0.2658
  447MOL0     C58890  -0.662   1.425   8.892 -0.2721  0.7481  0.5789
  447MOL0     C58891  -0.734   1.394   9.003  0.3689  0.0371  0.6304
  447MOL0     C58892  -0.852   1.478   9.053 -0.0871 -0.0249  0.4923
  447MOL0     C58893  -0.821   1.563   9.173 -0.4708  0.0019  0.6529
  447MOL0     C58894  -0.770   1.494   9.305  0.1990  0.3283 -0.8432
  447MOL0     C58895  -0.882   1.430   9.395 -1.0400 -0.1396 -0.2841
  447MOL0     O58896  -0.925   1.322   9.313 -0.3433 -0.0354  0.6755
  447MOL0     C58897  -1.041   1.253   9.354  0.0044  0.7871  0.0367
  447MOL0     C58898  -1.163   1.313   9.363 -0.2589 -0.2385  0.0695
  447MOL0     C58899  -1.268   1.245   9.420 -0.0088  0.0590 -0.4491
  447MOL0     C58900  -1.271   1.109   9.440  0.3250 -0.3839  0.3300
  447MOL0     C58901  -1.387   1.040   9.505  0.1123  0.5773 -0.4134
  447MOL0     O58902  -1.478   1.128   9.553  0.1409  0.4448  0.4943
  447MOL0     C58903  -1.588   1.089   9.628 -0.0793  0.5166  1.0148
  447MOL0     C58904  -1.646   0.966   9.650 -1.2181 -0.1074 -0.1138
  447MOL0     C58905  -1.756   0.943   9.733  0.5750  0.4607  0.8578
  447MOL0     C58906  -1.832   1.053   9.781  0.5137 -0.4672  0.0297
  447MOL0     O58907  -1.945   1.038   9.850 -0.8735 -0.0979  1.0782
  447MOL0     C58908  -2.053   1.001   9.762  0.4046 -0.1779 -0.2098
  447MOL0     C58909  -2.191   1.017   9.827  0.0359  0.0889 -0.1901
  447MOL0     C58910  -2.205   0.981   9.982  0.5327 -0.0022  0.1693
  447MOL0     C58911  -2.351   1.000  10.018  0.5356  0.6433  0.3431
  447MOL0     C58912  -2.370   1.025  10.165  0.0829  0.6193 -0.0694
  447MOL0     C58913  -2.496   1.094  10.210 -0.9831 -0.1830 -0.0432
  447MOL0     C58914  -2.611   1.006  10.253  0.1823  0.5521 -0.6869
  447MOL0     C58915  -2.744   1.083  10.267 -0.6997 -1.2138  0.3660
  447MOL0    Cl58916  -2.727   1.188  10.410 -0.1175 -0.2945 -0.4625
  447MOL0     C58917  -1.785   1.178   9.745 -0.7306 -0.0151 -0.0963
  447MOL0     C58918  -1.662   1.192   9.677 -0.5252  0.2743  0.1545
  447MOL0     O58919  -1.388   0.914   9.499 -0.1774 -0.1022 -0.0346
  447MOL0     C58920  -1.150   1.044   9.408  0.8082 -0.6784  0.1933
  447MOL0     C58921  -1.042   1.115   9.364 -0.9075 -0.2613 -0.3923
  447MOL0     N58922  -0.688   1.270   9.059 -0.0500 -0.4642 -0.8581
  447MOL0     N58923  -0.592   1.238   8.987 -0.0167 -0.4196 -0.4009
  447MOL0     C58924   0.484   1.014   8.972  0.1458 -0.3053 -0.2079
  447MOL0     C58925   0.626   0.988   8.967  0.2380  0.5660  0.4560
  447MOL0     C58926   1.065   1.004   9.076 -1.0465  0.5550  0.3463
  447MOL0     C58927   1.138   0.989   8.955 -0.0449 -1.0201 -0.0669
  447MOL0     C58928   1.273   0.958   8.954 -0.5085  0.0369 -0.3924
  447MOL0     C58929   1.348   0.939   9.081  0.2253  0.5074  0.1534
  447MOL0     O58930   1.481   0.913   9.067 -0.1441 -0.2037  0.3323
  447MOL0     C58931   1.555   0.858   9.181 -0.2747  0.9336  0.1902
  447MOL0     C58932   1.676   0.805   9.111 -1.0598  0.3379 -0.6448
  447MOL0     C58933   1.758   0.712   9.214  0.0682 -0.0268  0.7789
  447MOL0     C58934   1.907   0.709   9.180 -0.9461 -0.2097  0.5612
  447MOL0     C58935   1.940   0.623   9.063 -0.7053 -0.2141  0.4762
  447MOL0     C58936   1.980   0.555   8.964  0.1953 -0.7008 -0.1137
  447MOL0     C58937   1.276   0.954   9.199  0.1220  1.0199  0.4410
  447MOL0     C58938   1.143   0.986   9.198 -0.4049 -0.2611  0.0754
  447MOL0     H58939   0.744   1.299   8.969  1.4690 -1.5195 -1.6220
  447MOL0     H58940   0.503   1.354   9.007  0.1673 -0.6300 -2.3664
  447MOL0     H58941   0.319   1.339   9.098  1.3121  0.9093 -2.1201
  447MOL0     H58942   0.162   1.269   9.118  0.3185 -0.6733 -0.2980
  447MOL0     H58943   0.217   1.271   8.843  0.0187 -1.8375  1.2786
  447MOL0     H58944   0.267   1.429   8.915  2.4172 -1.9088  0.2463
  447MOL0     H58945   0.017   1.430   8.820  1.0639  0.2437  0.0571
  447MOL0     H58946   0.032   1.460   8.993  0.8979 -0.1194  0.7316
  447MOL0     H58947  -0.002   1.181   8.919  1.0012  0.8793  0.5776
  447MOL0     H58948  -0.085   1.274   9.043 -1.9478  2.2840 -1.1626
  447MOL0     H58949  -0.245   1.183   8.889 -0.0876  0.5297  2.4683
  447MOL0     H58950  -0.153   1.233   8.747 -1.3651 -2.2450  0.0822
  447MOL0     H58951  -0.205   1.471   8.798  2.7553 -1.1126  1.1059
  447MOL0     H58952  -0.312   1.412   8.924 -1.8666 -0.5639 -1.2664
  447MOL0     H58953  -0.421   1.483   8.710 -1.6297 -0.2660 -0.6220
  447MOL0     H58954  -0.338   1.347   8.632 -1.6988 -0.8880  0.5998
  447MOL0     H58955  -0.435   1.190   8.799  1.1938  0.4350 -0.7220
  447MOL0     H58956  -0.555   1.261   8.682  0.0722  1.9581 -1.3349
  447MOL0     H58957  -0.657   1.507   8.822  1.0483 -0.7019 -1.1291
  447MOL0     H58958  -0.925   1.401   9.078  1.9886 -2.4318 -0.4714
  447MOL0     H58959  -0.887   1.539   8.968  3.0446  1.3801  0.0744
  447MOL0     H58960  -0.911   1.617   9.201 -0.4621 -0.4207  1.5202
  447MOL0     H58961  -0.746   1.636   9.142 -0.2923  0.0374  1.1658
  447MOL0     H58962  -0.683   1.430   9.287  0.8155  1.6465 -2.9123
  447MOL0     H58963  -0.735   1.566   9.380  3.4882 -2.5241  0.6524
  447MOL0     H58964  -0.964   1.498   9.418 -0.6766  1.7356 -3.7889
  447MOL0     H58965  -0.835   1.391   9.485 -1.0962  0.2008 -0.1074
  447MOL0     H58966  -1.184   1.418   9.347 -3.0973 -1.0862 -2.6804
  447MOL0     H58967  -1.356   1.304   9.442  0.6938  0.4804  1.3818
  447MOL0     H58968  -1.584   0.881   9.622 -0.7971  0.4843 -1.0333
  447MOL0     H58969  -1.781   0.843   9.767  0.9221 -0.0313 -0.2869
  447MOL0     H58970  -2.033   0.897   9.735  0.7279  0.0344 -0.8253
  447MOL0     H58971  -2.062   1.066   9.674  1.6260  1.1953  0.6143
  447MOL0     H58972  -2.259   0.948   9.776 -0.4156 -0.9705  1.7601
  447MOL0     H58973  -2.226   1.117   9.802  0.7815  1.3448  3.2503
  447MOL0     H58974  -2.142   1.040  10.049  0.9719 -0.6300  0.3144
  447MOL0     H58975  -2.183   0.874   9.995 -0.2996 -0.0909  0.9432
  447MOL0     H58976  -2.393   1.088   9.968 -0.5365  0.3709  0.7441
  447MOL0     H58977  -2.407   0.908  10.001  1.8702  0.1858 -2.1466
  447MOL0     H58978  -2.296   1.097  10.201 -1.1243  0.6643  2.5994
  447MOL0     H58979  -2.353   0.929  10.215  1.4191 -0.8632 -3.1218
  447MOL0     H58980  -2.523   1.165  10.131  0.0030 -1.2326 -1.3732
  447MOL0     H58981  -2.466   1.157  10.295  1.6487 -1.3922  0.0365
  447MOL0     H58982  -2.618   0.928  10.177  0.7162  1.2968 -1.5169
  447MOL0     H58983  -2.584   0.960  10.348 -0.0028  2.2090  0.2097
  447MOL0     H58984  -2.832   1.023  10.292  0.2766 -1.8457  2.5612
  447MOL0     H58985  -2.754   1.144  10.177  0.6794  0.0209  0.9992
  447MOL0     H58986  -1.829   1.262   9.799 -1.7375  0.2682 -1.3076
  447MOL0     H58987  -1.616   1.288   9.655  0.4407 -0.3961 -0.9084
  447MOL0     H58988  -1.135   0.937   9.414 -0.6885 -0.8582  1.2407
  447MOL0     H58989  -0.948   1.062   9.351  1.2190  2.5905  1.9751
  447MOL0     H58990   0.416   0.930   8.978  1.6544 -1.5926 -0.5505
  447MOL0     H58991   0.667   0.889   8.950 -1.0437  0.1882 -0.6650
  447MOL0     H58992   1.080   1.000   8.864  1.4520  3.4978 -0.7527
  447MOL0     H58993   1.335   0.950   8.866  1.8618  0.9368  1.1027
  447MOL0     H58994   1.504   0.771   9.225 -1.9669  0.7330 -2.0173
  447MOL0     H58995   1.581   0.942   9.246  2.8443  1.8455 -1.9949
  447MOL0     H58996   1.647   0.738   9.030 -0.3825 -1.7704  0.7653
  447MOL0     H58997   1.744   0.883   9.076  2.6431 -0.3575  3.9317
  447MOL0     H58998   1.707   0.616   9.215 -2.1653  1.1053  0.6683
  447MOL0     H58999   1.760   0.762   9.312  2.7357 -0.6652  1.1237
  447MOL0     H59000   1.938   0.810   9.150  0.6454 -0.5824  0.8508
  447MOL0     H59001   1.973   0.674   9.260 -0.2882 -1.8055 -0.6197
  447MOL0     H59002   2.021   0.500   8.881  0.8002  1.1051 -1.0643
  447MOL0     H59003   1.335   0.942   9.290  2.0829 -3.0048 -1.1118
  447MOL0     H59004   1.088   0.985   9.291 -0.8331 -3.1817 -0.1299
  448MOL0     O59005   6.674   9.718   8.190 -0.6130 -0.0903 -0.7062
  448MOL0     C59006   6.632   9.612   8.151  0.2401 -0.0254 -0.9156
  448MOL0     O59007   6.523   9.595   8.078  1.0497 -0.6116  0.1771
  448MOL0     C59008   6.451   9.713   8.031 -1.2712 -0.5082 -0.1121
  448MOL0     C59009   6.512   9.781   7.924  0.5601  0.6910  0.1600
  448MOL0     C59010   6.443   9.884   7.858 -0.1969 -0.7569 -0.9872
  448MOL0     C59011   6.323   9.934   7.916  0.8337 -0.5196  0.7298
  448MOL0     O59012   6.254  10.033   7.851 -0.5502 -0.0097 -0.0230
  448MOL0     C59013   6.252  10.157   7.919  0.6490 -0.1389  0.8614
  448MOL0     C59014   6.179  10.265   7.837  0.8660  0.0181  0.9197
  448MOL0     C59015   6.258  10.311   7.713  0.2445 -0.7435 -0.6864
  448MOL0     C59016   6.232  10.459   7.673 -0.0093 -0.0571  0.2560
  448MOL0     C59017   6.095  10.478   7.599 -0.8053  0.1222 -0.5532
  448MOL0     C59018   6.068  10.628   7.569  0.4885  0.1352 -0.0440
  448MOL0     C59019   5.912  10.663   7.573 -0.1113 -0.4492  0.1809
  448MOL0     C59020   5.823  10.558   7.502  0.3024  0.4385  0.3802
  448MOL0     N59021   5.694  10.604   7.451  1.2306  0.6385  0.1665
  448MOL0     C59022   5.592  10.658   7.527 -0.2395 -0.0334  0.1954
  448MOL0     C59023   5.504  10.704   7.434 -0.8245 -0.2533  0.3568
  448MOL0     C59024   5.383  10.789   7.465 -0.0221  0.4440 -0.4592
  448MOL0     C59025   5.254  10.711   7.432  0.0944  0.2525 -0.0225
  448MOL0     C59026   5.220  10.615   7.547 -0.7860  0.2589 -0.1735
  448MOL0     C59027   5.121  10.516   7.493  0.5089  0.1312 -0.1802
  448MOL0     O59028   5.059  10.434   7.596 -0.0569 -0.0030 -0.0355
  448MOL0     C59029   4.939  10.368   7.573  0.9607  0.7155  0.2565
  448MOL0     C59030   4.891  10.300   7.678 -0.0068  0.0149 -0.4479
  448MOL0     C59031   4.779  10.221   7.674 -0.9799 -0.2471 -0.2019
  448MOL0     C59032   4.704  10.204   7.558  0.7255 -0.2716 -0.2392
  448MOL0     C59033   4.579  10.125   7.570  0.1624 -0.5762 -0.2917
  448MOL0     O59034   4.508  10.110   7.450  0.1179  0.9512 -0.2694
  448MOL0     C59035   4.389  10.041   7.451  0.5751  0.5608 -0.1829
  448MOL0     C59036   4.374   9.959   7.340 -0.9068  0.3387 -0.6843
  448MOL0     C59037   4.244   9.906   7.315  0.0532  0.7425 -0.2996
  448MOL0     C59038   4.129   9.928   7.396 -0.8023 -0.0056 -0.9900
  448MOL0     O59039   4.003   9.880   7.381  0.2272  0.0800  0.4736
  448MOL0     C59040   3.977   9.802   7.257  0.5706  0.1008 -0.4595
  448MOL0     C59041   3.823   9.781   7.235  0.7100 -0.4389  0.2449
  448MOL0     C59042   3.756   9.921   7.222  0.0475  0.6373  0.2213
  448MOL0     C59043   3.615   9.877   7.180 -0.1043  0.7358  0.8945
  448MOL0     C59044   3.520   9.999   7.156  0.9905 -0.2033 -0.3030
  448MOL0     C59045   3.371   9.939   7.135 -0.5048 -0.4210 -0.0851
  448MOL0     C59046   3.252  10.037   7.155 -0.5095  0.9509 -0.0027
  448MOL0     C59047   3.121   9.952   7.133  0.4712  1.3829  0.4559
  448MOL0    Cl59048   3.093   9.901   6.961  0.0870 -0.3238 -0.1114
  448MOL0     C59049   4.150  10.006   7.515 -0.1635  0.2553 -0.4030
  448MOL0     C59050   4.276  10.069   7.537 -0.1729  0.2693  0.0288
  448MOL0     O59051   4.544  10.070   7.673 -0.0409  0.4442 -0.0912
  448MOL0     C59052   4.747  10.270   7.444 -0.0371  0.6192  0.0001
  448MOL0     C59053   4.863  10.361   7.455 -0.7287  0.7805  0.0180
  448MOL0     N59054   5.552  10.672   7.311 -0.2678 -0.3936  1.1148
  448MOL0     N59055   5.652  10.601   7.316 -0.6705  0.3108  0.0066
  448MOL0     C59056   6.281   9.884   8.037 -0.4177 -0.5107 -0.6512
  448MOL0     C59057   6.338   9.766   8.090  0.0292  0.2346 -0.1555
  448MOL0     C59058   6.707   9.497   8.189 -0.1560  0.3831 -0.1901
  448MOL0     C59059   6.663   9.366   8.155  0.3822 -0.0928 -1.3903
  448MOL0     C59060   6.738   9.255   8.157 -0.0866 -0.3573  0.3454
  448MOL0     C59061   6.863   9.256   8.218  0.0660 -0.3652  1.3641
  448MOL0     O59062   6.940   9.147   8.242  0.0965 -0.5242  0.6860
  448MOL0     C59063   6.914   9.023   8.175 -0.3601  0.5557  0.3180
  448MOL0     C59064   7.031   8.931   8.192 -0.0967  0.1068 -0.4326
  448MOL0     C59065   7.028   8.812   8.092 -0.1140  0.0243 -0.3964
  448MOL0     C59066   7.064   8.828   7.933  0.6549  0.6784 -0.0512
  448MOL0     C59067   7.208   8.801   7.906  0.3708 -0.2375  0.1436
  448MOL0     C59068   7.321   8.780   7.891  0.1707  0.6808 -0.3303
  448MOL0     C59069   6.906   9.380   8.272  0.4186  0.2071 -0.5290
  448MOL0     C59070   6.828   9.497   8.262 -0.4025  0.5829  0.1277
  448MOL0     H59071   6.602   9.734   7.885  0.2472  0.8767 -0.8189
  448MOL0     H59072   6.474   9.927   7.763 -1.1808  0.8326 -0.6422
  448MOL0     H59073   6.356  10.176   7.948  0.6461  0.4089  0.5270
  448MOL0     H59074   6.196  10.146   8.012  0.2059  0.9258  0.7315
  448MOL0     H59075   6.160  10.351   7.902 -1.8871 -0.7938  1.3072
  448MOL0     H59076   6.083  10.221   7.807  1.6003  0.1337 -1.8289
  448MOL0     H59077   6.229  10.239   7.635  0.3304 -0.5927 -0.8582
  448MOL0     H59078   6.363  10.294   7.737 -0.2930  0.0631  2.8684
  448MOL0     H59079   6.250  10.521   7.761 -2.5048  0.5872  0.3944
  448MOL0     H59080   6.303  10.494   7.598  0.7016 -2.3589 -0.2153
  448MOL0     H59081   6.016  10.428   7.656 -1.8355 -2.0761 -3.6539
  448MOL0     H59082   6.094  10.426   7.503  0.1913 -1.3602  0.1833
  448MOL0     H59083   6.108  10.648   7.469 -1.7490 -1.1231 -1.2791
  448MOL0     H59084   6.123  10.688   7.642  0.3776 -2.5593  2.4271
  448MOL0     H59085   5.886  10.669   7.679  1.6660  0.2951  0.6042
  448MOL0     H59086   5.894  10.763   7.533  1.2267 -0.3154 -0.1447
  448MOL0     H59087   5.809  10.463   7.554 -0.3007 -2.3460 -4.3571
  448MOL0     H59088   5.885  10.539   7.415  1.3025  2.5288  0.5592
  448MOL0     H59089   5.591  10.669   7.635 -0.3137  0.7399  0.1193
  448MOL0     H59090   5.395  10.877   7.401 -4.1643 -0.3580 -2.7577
  448MOL0     H59091   5.381  10.816   7.571 -0.7776  1.8482 -0.8097
  448MOL0     H59092   5.267  10.654   7.339  2.1167 -0.9874  0.9518
  448MOL0     H59093   5.170  10.781   7.420  0.5820  0.9808  0.7162
  448MOL0     H59094   5.314  10.567   7.576 -0.7953  1.0790  1.3113
  448MOL0     H59095   5.183  10.673   7.632  0.4251  2.4548 -1.0666
  448MOL0     H59096   5.162  10.450   7.416 -1.1888 -0.3286 -0.7342
  448MOL0     H59097   5.044  10.575   7.442 -1.2841  0.2046  2.4245
  448MOL0     H59098   4.934  10.309   7.777  0.0134  1.4744 -0.5674
  448MOL0     H59099   4.754  10.162   7.762  1.1980  0.7812  1.2017
  448MOL0     H59100   4.457   9.959   7.271 -1.8493 -1.9105 -1.9105
  448MOL0     H59101   4.237   9.847   7.224 -0.5053  1.0525 -0.4624
  448MOL0     H59102   4.029   9.707   7.270  1.6720  0.9386  1.9026
  448MOL0     H59103   4.028   9.854   7.176  3.5200  0.6936  1.6005
  448MOL0     H59104   3.786   9.722   7.319 -0.5294 -1.0745 -0.7147
  448MOL0     H59105   3.808   9.720   7.145 -1.3206 -1.2072  1.0569
  448MOL0     H59106   3.790   9.975   7.133 -2.0956 -2.5791 -2.8249
  448MOL0     H59107   3.740   9.979   7.314 -1.4594 -0.2294  0.5473
  448MOL0     H59108   3.625   9.815   7.090 -0.4750  3.0529 -0.8549
  448MOL0     H59109   3.579   9.821   7.266 -0.6573 -1.4180 -0.6565
  448MOL0     H59110   3.535  10.050   7.061 -1.0687  1.9405  0.3983
  448MOL0     H59111   3.514  10.079   7.231 -2.7383  0.6587 -1.3255
  448MOL0     H59112   3.359   9.863   7.213  1.2558  0.1939  0.8273
  448MOL0     H59113   3.378   9.889   7.038 -0.2869  2.2508 -1.5429
  448MOL0     H59114   3.256  10.094   7.248  0.2575  1.0534 -0.0946
  448MOL0     H59115   3.247  10.112   7.075 -2.3646  2.3333  1.3191
  448MOL0     H59116   3.036  10.005   7.177 -0.5529 -0.3154  0.6154
  448MOL0     H59117   3.120   9.854   7.182 -4.2152  1.1128  0.2548
  448MOL0     H59118   4.068  10.013   7.586  0.7600 -2.2451  1.0455
  448MOL0     H59119   4.296  10.139   7.618  0.3557  0.3472 -0.1711
  448MOL0     H59120   4.697  10.270   7.347 -0.1454  1.7169  0.0458
  448MOL0     H59121   4.901  10.413   7.368 -1.5322 -1.1671 -1.5811
  448MOL0     H59122   6.194   9.935   8.078  0.6656 -0.2212  1.4051
  448MOL0     H59123   6.296   9.728   8.182 -1.6324  2.3101  0.0414
  448MOL0     H59124   6.566   9.357   8.108  0.4264 -0.2291 -1.4550
  448MOL0     H59125   6.702   9.160   8.121 -0.3224 -0.5705  1.1335
  448MOL0     H59126   6.888   9.044   8.071 -0.4656 -0.5555  0.1057
  448MOL0     H59127   6.821   8.997   8.226 -1.6767  2.5001 -0.9536
  448MOL0     H59128   7.122   8.990   8.177  1.6877 -1.8260  2.0838
  448MOL0     H59129   7.028   8.889   8.292 -0.2236 -2.8197 -1.5607
  448MOL0     H59130   6.931   8.762   8.089  1.2958 -2.8873 -1.5928
  448MOL0     H59131   7.100   8.737   8.125  0.3295  1.9307  3.5867
  448MOL0     H59132   7.008   8.752   7.878  1.4133  0.5178 -0.6280
  448MOL0     H59133   7.049   8.926   7.887  2.3024  0.5097 -1.0564
  448MOL0     H59134   7.422   8.750   7.871  0.9314  3.0311 -0.3306
  448MOL0     H59135   7.000   9.381   8.327  0.2942 -3.3559 -0.0151
  448MOL0     H59136   6.877   9.592   8.282  2.6947 -0.4576 -1.8469
  449MOL0     O59137   6.581   1.364   9.310 -0.4857 -0.0092  0.1534
  449MOL0     C59138   6.665   1.337   9.399  0.5543 -0.1547  0.3465
  449MOL0     O59139   6.636   1.334   9.533 -0.9751 -0.5409  0.1718
  449MOL0     C59140   6.502   1.332   9.563 -0.2368  0.2597 -0.0099
  449MOL0     C59141   6.410   1.241   9.511 -0.6275  0.0662 -0.6302
  449MOL0     C59142   6.273   1.232   9.548  0.2094  0.5119  0.0224
  449MOL0     C59143   6.227   1.331   9.631  0.0612 -0.2665 -0.1027
  449MOL0     O59144   6.096   1.363   9.666  0.0466 -0.0366 -0.5204
  449MOL0     C59145   6.013   1.249   9.698 -0.0182  0.3801  0.6334
  449MOL0     C59146   5.862   1.263   9.734  0.6218  0.0168 -0.7709
  449MOL0     C59147   5.779   1.342   9.623 -0.3920  0.9431 -1.1545
  449MOL0     C59148   5.629   1.331   9.659 -0.5676 -0.3778  0.1442
  449MOL0     C59149   5.537   1.434   9.593 -0.3275  0.3310 -0.1438
  449MOL0     C59150   5.405   1.434   9.669 -0.2953 -0.1744  0.6087
  449MOL0     C59151   5.348   1.296   9.700 -0.7722  0.1789  0.2963
  449MOL0     C59152   5.199   1.304   9.743 -0.4192 -0.5982  0.4228
  449MOL0     N59153   5.117   1.322   9.622  0.2843 -0.0344  0.1782
  449MOL0     C59154   5.068   1.225   9.540  0.4623 -0.5196  0.4736
  449MOL0     C59155   4.994   1.288   9.453  0.8990  0.2204  0.3239
  449MOL0     C59156   4.909   1.230   9.335  0.0097  0.2662  0.9217
  449MOL0     C59157   4.780   1.156   9.377 -0.0612  0.7266  0.2741
  449MOL0     C59158   4.688   1.236   9.471  0.4963 -0.4696 -0.4528
  449MOL0     C59159   4.620   1.159   9.577 -0.0184 -0.8368 -0.2709
  449MOL0     O59160   4.530   1.047   9.541 -0.5755  0.3556 -0.0256
  449MOL0     C59161   4.392   1.080   9.554 -0.7263  0.9558  0.0421
  449MOL0     C59162   4.341   1.208   9.526 -0.6165  0.1717  0.3685
  449MOL0     C59163   4.205   1.239   9.537 -0.7694  1.0311 -0.5938
  449MOL0     C59164   4.123   1.144   9.598  0.8453 -0.7961  0.9072
  449MOL0     C59165   3.978   1.175   9.622  0.1968  0.7051 -0.5030
  449MOL0     O59166   3.897   1.066   9.631 -0.4661 -0.6522  0.8863
  449MOL0     C59167   3.760   1.091   9.647 -0.7639  0.5414  0.4854
  449MOL0     C59168   3.696   1.058   9.767  1.1488  0.2037 -0.0128
  449MOL0     C59169   3.557   1.086   9.788 -0.9708 -0.4324 -0.2371
  449MOL0     C59170   3.485   1.152   9.690 -0.9594 -0.1170  0.3690
  449MOL0     O59171   3.346   1.164   9.700 -0.4573 -0.1374 -0.1163
  449MOL0     C59172   3.289   1.183   9.827  0.5486 -1.0087 -0.3326
  449MOL0     C59173   3.150   1.253   9.835 -0.1810  0.0287  0.4826
  449MOL0     C59174   3.035   1.184   9.756 -0.8869 -0.0173 -0.5418
  449MOL0     C59175   2.892   1.237   9.781  0.7103  0.0763  0.4282
  449MOL0     C59176   2.782   1.145   9.730  0.0045 -0.0711 -0.0215
  449MOL0     C59177   2.636   1.203   9.716 -0.5209 -0.1442 -0.4426
  449MOL0     C59178   2.572   1.196   9.854 -0.3245  0.3513  0.2225
  449MOL0     C59179   2.530   1.058   9.916  0.8880 -0.1509  0.3071
  449MOL0    Cl59180   2.492   0.950   9.778  0.0298 -0.0701 -0.3950
  449MOL0     C59181   3.550   1.191   9.567  0.1640  0.0807 -0.3516
  449MOL0     C59182   3.685   1.156   9.543  0.0271  0.4874 -0.8584
  449MOL0     O59183   3.944   1.285   9.645  0.9893 -0.7035  0.7693
  449MOL0     C59184   4.171   1.019   9.633 -0.4908  0.2022 -0.2170
  449MOL0     C59185   4.303   0.985   9.594  0.0131  1.3034 -0.5826
  449MOL0     N59186   5.007   1.427   9.464  0.1339  0.5241 -0.8741
  449MOL0     N59187   5.077   1.442   9.570 -0.4385  0.4426  0.0131
  449MOL0     C59188   6.322   1.402   9.702  0.1031 -1.3190 -0.2726
  449MOL0     C59189   6.453   1.417   9.666  0.0672 -0.1020  0.0406
  449MOL0     C59190   6.814   1.322   9.359  0.2632 -0.2355  0.0852
  449MOL0     C59191   6.857   1.326   9.223 -0.6978  0.4019 -0.2841
  449MOL0     C59192   6.996   1.326   9.190 -0.0660  0.3713  0.2163
  449MOL0     C59193   7.089   1.299   9.291 -1.0312  0.4214 -0.7018
  449MOL0     O59194   7.224   1.299   9.263  0.0440  0.4686 -0.0470
  449MOL0     C59195   7.266   1.235   9.144  0.3804 -0.3031  0.8950
  449MOL0     C59196   7.311   1.328   9.031  0.3254  0.2233  0.1325
  449MOL0     C59197   7.397   1.255   8.919  0.3058 -0.2528 -0.1967
  449MOL0     C59198   7.454   1.376   8.835 -0.1050 -1.4957  0.7871
  449MOL0     C59199   7.513   1.341   8.704 -0.0454  0.7862 -0.5301
  449MOL0     C59200   7.532   1.291   8.594 -0.8638 -0.6477  0.3471
  449MOL0     C59201   7.046   1.290   9.428 -0.1071 -0.0486  0.3389
  449MOL0     C59202   6.907   1.307   9.463 -0.9554  0.2803  0.3933
  449MOL0     H59203   6.435   1.173   9.430 -1.9057 -0.2857 -0.7538
  449MOL0     H59204   6.207   1.160   9.501  0.8253 -0.7798  1.1022
  449MOL0     H59205   6.061   1.195   9.780  0.0713  1.5966  1.4066
  449MOL0     H59206   6.010   1.177   9.616  0.1362 -0.8827  1.6919
  449MOL0     H59207   5.849   1.314   9.829 -0.5858 -2.6542  0.6009
  449MOL0     H59208   5.821   1.162   9.744 -1.8148  0.8529 -1.5630
  449MOL0     H59209   5.803   1.297   9.527  2.4838  0.3392 -0.2492
  449MOL0     H59210   5.815   1.446   9.623 -1.1742  1.2504  0.2188
  449MOL0     H59211   5.604   1.230   9.627  4.0852 -1.4282 -0.9639
  449MOL0     H59212   5.615   1.339   9.767  1.4889 -0.9648  0.4953
  449MOL0     H59213   5.527   1.408   9.487  0.2306  1.7535 -0.5694
  449MOL0     H59214   5.582   1.534   9.598  1.8180 -0.4171 -2.5648
  449MOL0     H59215   5.330   1.504   9.633  1.3911  2.3951  1.7635
  449MOL0     H59216   5.432   1.465   9.771 -0.2530 -1.4131  0.9904
  449MOL0     H59217   5.361   1.239   9.607 -0.5629  2.6484 -1.2678
  449MOL0     H59218   5.403   1.241   9.777 -1.3218  1.9303  2.0246
  449MOL0     H59219   5.183   1.381   9.818 -0.7027 -0.4236  0.1833
  449MOL0     H59220   5.176   1.206   9.786  2.6785 -1.8506 -0.5020
  449MOL0     H59221   5.070   1.116   9.540 -0.2180 -0.5791 -1.4463
  449MOL0     H59222   4.976   1.168   9.275  0.0126  2.4161 -1.4844
  449MOL0     H59223   4.883   1.317   9.273  3.0793  0.7595  0.1777
  449MOL0     H59224   4.815   1.057   9.407  0.3610  0.6171 -0.5602
  449MOL0     H59225   4.721   1.136   9.286 -2.2472  0.3305  1.6929
  449MOL0     H59226   4.731   1.328   9.509 -1.0823  0.1395 -0.0475
  449MOL0     H59227   4.612   1.283   9.407  0.9448  2.0969  0.7908
  449MOL0     H59228   4.572   1.225   9.650 -0.7638 -0.7057 -0.8721
  449MOL0     H59229   4.703   1.118   9.636  0.3712  0.1063 -0.1553
  449MOL0     H59230   4.411   1.275   9.478  0.9776 -0.6748  1.3956
  449MOL0     H59231   4.153   1.321   9.489 -1.8405 -0.2639 -1.7218
  449MOL0     H59232   3.747   0.993   9.838  1.1890 -2.8380 -2.5613
  449MOL0     H59233   3.516   1.039   9.877 -0.3510  0.2547  0.4204
  449MOL0     H59234   3.359   1.247   9.881  0.2238 -0.8927 -0.0427
  449MOL0     H59235   3.274   1.086   9.875  3.6249 -1.1121  0.6120
  449MOL0     H59236   3.151   1.360   9.810 -1.5714  0.6008  2.6526
  449MOL0     H59237   3.114   1.252   9.938  0.7096  3.1818  0.9294
  449MOL0     H59238   3.045   1.082   9.792  2.4482  1.0676  2.1686
  449MOL0     H59239   3.050   1.188   9.648 -4.4434  2.1522 -1.1211
  449MOL0     H59240   2.871   1.263   9.885 -0.9898  2.5856 -0.4568
  449MOL0     H59241   2.890   1.327   9.718 -0.5410 -0.5042 -0.3923
  449MOL0     H59242   2.774   1.067   9.806 -1.2916 -0.1483 -0.2160
  449MOL0     H59243   2.815   1.100   9.635 -0.1624 -4.6338  1.8394
  449MOL0     H59244   2.576   1.147   9.644 -1.7895 -0.8172  1.0785
  449MOL0     H59245   2.643   1.305   9.676  2.7927 -0.5182 -1.0171
  449MOL0     H59246   2.638   1.248   9.924  0.9126 -3.7090  2.4554
  449MOL0     H59247   2.476   1.245   9.835 -0.4144 -0.8722 -3.2499
  449MOL0     H59248   2.445   1.085   9.979  0.1094  2.8948 -1.7950
  449MOL0     H59249   2.613   1.020   9.976 -0.3067 -1.4118  1.2227
  449MOL0     H59250   3.492   1.238   9.487  1.9844  0.3231 -1.5988
  449MOL0     H59251   3.734   1.182   9.450  0.4637 -1.7988 -1.3196
  449MOL0     H59252   4.106   0.939   9.667 -1.9728  0.2451 -2.7480
  449MOL0     H59253   4.337   0.884   9.614 -0.5907  0.3795 -3.6464
  449MOL0     H59254   6.286   1.478   9.771  2.3160  0.8634 -1.3719
  449MOL0     H59255   6.521   1.487   9.714  0.6071  0.5715 -1.6376
  449MOL0     H59256   6.789   1.347   9.140  0.8641  3.5998 -0.8704
  449MOL0     H59257   7.027   1.342   9.087 -1.3170  0.0581 -0.2316
  449MOL0     H59258   7.203   1.158   9.099  1.5039 -2.7985  3.3155
  449MOL0     H59259   7.366   1.196   9.165  0.7715  0.6569  0.8737
  449MOL0     H59260   7.228   1.391   8.998 -0.8193 -0.5942  1.3902
  449MOL0     H59261   7.377   1.407   9.070  1.0116 -0.9104  1.3416
  449MOL0     H59262   7.341   1.185   8.857 -0.8546  0.5431 -0.0624
  449MOL0     H59263   7.479   1.205   8.972  0.6332 -0.2161 -0.6609
  449MOL0     H59264   7.370   1.445   8.833  0.1612 -0.9186  3.8268
  449MOL0     H59265   7.531   1.421   8.899 -0.9556 -0.1621  0.9177
  449MOL0     H59266   7.559   1.246   8.501  3.4624  1.3068  0.4150
  449MOL0     H59267   7.128   1.274   9.498  0.7849 -0.9177 -0.8425
  449MOL0     H59268   6.870   1.308   9.565 -2.0382 -1.5737  0.0697
  450MOL0     O59269   4.618   2.312   8.954 -0.2506 -0.6737 -0.2516
  450MOL0     C59270   4.591   2.398   8.874  0.9259 -0.1350  0.5649
  450MOL0     O59271   4.678   2.458   8.794  0.1301 -0.1403 -0.1612
  450MOL0     C59272   4.811   2.437   8.781 -0.5770 -0.1853  0.2180
  450MOL0     C59273   4.854   2.531   8.688 -0.2047 -0.1923  0.5349
  450MOL0     C59274   4.990   2.540   8.658 -0.8305 -0.7887 -0.4834
  450MOL0     C59275   5.089   2.447   8.711  0.3151 -0.0604 -0.0497
  450MOL0     O59276   5.221   2.444   8.690 -0.1483 -0.2880 -0.1281
  450MOL0     C59277   5.279   2.523   8.580 -0.1887  0.1076  0.5925
  450MOL0     C59278   5.423   2.466   8.579 -0.6061 -0.8825 -0.1434
  450MOL0     C59279   5.526   2.521   8.476  0.1916  0.2901  0.0897
  450MOL0     C59280   5.663   2.452   8.448  0.6022  0.8089  0.3747
  450MOL0     C59281   5.665   2.339   8.345 -0.8195  1.3705  1.0327
  450MOL0     C59282   5.689   2.394   8.199  0.4550  0.0061 -0.2920
  450MOL0     C59283   5.825   2.458   8.180 -0.4306  0.4083 -0.2231
  450MOL0     C59284   5.858   2.479   8.032 -0.9001 -0.8214 -0.5480
  450MOL0     N59285   5.758   2.567   7.969 -0.1198  0.0579 -0.2281
  450MOL0     C59286   5.643   2.530   7.900  0.1710  0.0781  0.3660
  450MOL0     C59287   5.550   2.633   7.907  0.7868  0.4337  0.9088
  450MOL0     C59288   5.403   2.633   7.863 -0.4323 -0.1015  0.1557
  450MOL0     C59289   5.349   2.494   7.858 -0.1900  0.5365  0.5703
  450MOL0     C59290   5.207   2.469   7.810 -0.4092  1.1598  0.5475
  450MOL0     C59291   5.185   2.322   7.783  1.3192 -0.2582 -0.0356
  450MOL0     O59292   5.125   2.273   7.904  0.8083 -0.4010 -0.1150
  450MOL0     C59293   5.023   2.181   7.907  0.4067  0.2731  1.3063
  450MOL0     C59294   4.956   2.127   7.801 -0.0924  0.7073 -0.3361
  450MOL0     C59295   4.856   2.030   7.828  0.4143 -0.0690 -0.1472
  450MOL0     C59296   4.825   1.985   7.959 -1.7333 -0.2747 -0.2649
  450MOL0     C59297   4.716   1.887   7.990  0.4474 -0.2440  0.0898
  450MOL0     O59298   4.704   1.839   8.112  0.5580 -0.1901  1.0117
  450MOL0     C59299   4.591   1.773   8.147 -0.2988  0.6082 -0.4279
  450MOL0     C59300   4.598   1.647   8.201 -0.2263  0.0559 -0.9488
  450MOL0     C59301   4.488   1.570   8.248 -0.3079 -0.9288  1.1699
  450MOL0     C59302   4.364   1.636   8.231  0.2970  0.2972 -0.0740
  450MOL0     O59303   4.264   1.553   8.274  0.1605  1.1841 -0.1047
  450MOL0     C59304   4.145   1.622   8.290 -0.6257 -0.7976  0.4909
  450MOL0     C59305   4.027   1.528   8.332 -0.5988  0.1966 -0.0616
  450MOL0     C59306   3.900   1.594   8.375  0.2960 -0.1512 -0.3857
  450MOL0     C59307   3.777   1.504   8.358 -0.8030  0.2906  0.7705
  450MOL0     C59308   3.658   1.573   8.426  0.2184  0.4670  0.0165
  450MOL0     C59309   3.547   1.477   8.436  0.3944  0.3155  0.3223
  450MOL0     C59310   3.487   1.435   8.304 -1.0406  0.1316  0.5708
  450MOL0     C59311   3.395   1.313   8.315 -0.2734 -0.0943  0.0540
  450MOL0    Cl59312   3.267   1.339   8.430 -0.1177 -0.4847  0.0056
  450MOL0     C59313   4.352   1.765   8.182  0.3799  0.6404  0.0141
  450MOL0     C59314   4.469   1.836   8.155  0.9257  0.1212 -0.6797
  450MOL0     O59315   4.650   1.847   7.892  0.3410 -0.7978 -0.2039
  450MOL0     C59316   4.904   2.040   8.066  0.4988  0.4473  0.2435
  450MOL0     C59317   5.001   2.131   8.039  1.3274 -0.0959  0.3921
  450MOL0     N59318   5.628   2.742   7.967  0.4912  0.2151  0.3040
  450MOL0     N59319   5.741   2.700   8.009  0.3816  0.0473  0.0436
  450MOL0     C59320   5.040   2.341   8.793  0.0702 -0.0922 -0.6307
  450MOL0     C59321   4.900   2.342   8.836 -0.0438 -0.7602 -0.0417
  450MOL0     C59322   4.451   2.439   8.857 -0.4213  0.3672  0.1111
  450MOL0     C59323   4.352   2.353   8.897  0.1365 -0.1542 -0.3572
  450MOL0     C59324   4.219   2.388   8.884  0.0842 -0.8038  1.0705
  450MOL0     C59325   4.177   2.512   8.824 -0.7610  0.5309 -0.2245
  450MOL0     O59326   4.050   2.537   8.820  0.0203  1.2242  0.5234
  450MOL0     C59327   4.008   2.659   8.759 -0.6015  0.4609 -0.4612
  450MOL0     C59328   3.849   2.662   8.730 -0.7585  0.7623 -0.4858
  450MOL0     C59329   3.763   2.645   8.855  0.9092  0.2480 -0.1918
  450MOL0     C59330   3.644   2.741   8.854  0.1088  0.1927 -0.1998
  450MOL0     C59331   3.531   2.680   8.778 -1.0188  0.1458 -0.6646
  450MOL0     C59332   3.442   2.649   8.699 -0.1516 -0.1127 -0.4127
  450MOL0     C59333   4.280   2.590   8.777  0.1039 -0.0320  0.0756
  450MOL0     C59334   4.413   2.566   8.796  0.4766 -0.5892 -0.8821
  450MOL0     H59335   4.778   2.592   8.640  2.2487  1.3088 -1.7580
  450MOL0     H59336   5.024   2.617   8.590 -0.4276 -1.1484 -0.6876
  450MOL0     H59337   5.296   2.629   8.599 -1.4871  1.1958 -3.3566
  450MOL0     H59338   5.223   2.508   8.488 -0.3267 -0.7153  0.8020
  450MOL0     H59339   5.404   2.367   8.536 -1.8219 -1.2296  1.1097
  450MOL0     H59340   5.474   2.436   8.671  0.2488 -3.7061 -1.4377
  450MOL0     H59341   5.556   2.613   8.526  1.8566  0.3893 -1.0070
  450MOL0     H59342   5.476   2.550   8.383 -1.4683  1.7138  1.3593
  450MOL0     H59343   5.724   2.532   8.406 -1.3397 -0.0638 -4.7724
  450MOL0     H59344   5.685   2.404   8.544 -3.0186 -0.8702  0.5305
  450MOL0     H59345   5.567   2.290   8.341  0.6234 -2.0433  3.0779
  450MOL0     H59346   5.731   2.255   8.370 -1.6371 -1.4039 -4.5247
  450MOL0     H59347   5.605   2.464   8.186 -0.2454 -0.5480  1.0485
  450MOL0     H59348   5.672   2.315   8.126  0.5573 -0.0315 -0.2748
  450MOL0     H59349   5.820   2.554   8.232 -4.1344 -0.1675  0.7686
  450MOL0     H59350   5.898   2.390   8.225 -0.4577 -0.9516 -2.1182
  450MOL0     H59351   5.870   2.378   7.991  0.9640 -0.7083 -0.3615
  450MOL0     H59352   5.958   2.523   8.027 -1.6907  2.1961  4.0293
  450MOL0     H59353   5.626   2.435   7.851  2.0028  0.3018 -0.7709
  450MOL0     H59354   5.394   2.672   7.761  1.1156 -0.4906 -0.1576
  450MOL0     H59355   5.340   2.695   7.927  0.3905  1.5623 -0.5998
  450MOL0     H59356   5.366   2.450   7.957  1.0485 -0.6615 -0.1412
  450MOL0     H59357   5.407   2.440   7.782  0.1139 -1.8214  2.3637
  450MOL0     H59358   5.153   2.504   7.898  1.6249  2.3882  1.4004
  450MOL0     H59359   5.180   2.522   7.718 -0.4153 -3.2879 -2.2883
  450MOL0     H59360   5.279   2.272   7.761 -0.0280 -2.2189 -1.8264
  450MOL0     H59361   5.135   2.316   7.686  3.5007 -0.4512 -1.2042
  450MOL0     H59362   4.981   2.154   7.698  1.2225 -2.3797 -0.9449
  450MOL0     H59363   4.798   1.984   7.748  1.1397 -1.4320  0.0740
  450MOL0     H59364   4.699   1.607   8.212 -0.2761  0.0505 -0.5011
  450MOL0     H59365   4.485   1.470   8.292  2.6407  0.2483  4.4859
  450MOL0     H59366   4.121   1.661   8.191  1.1106  0.4711  0.5329
  450MOL0     H59367   4.160   1.711   8.351  2.0566  0.1211 -1.3350
  450MOL0     H59368   4.056   1.450   8.403 -1.0280 -1.9878 -2.1630
  450MOL0     H59369   4.002   1.476   8.238 -2.0732  1.3097 -0.3144
  450MOL0     H59370   3.888   1.688   8.320  0.9334  1.0671  1.4528
  450MOL0     H59371   3.909   1.608   8.483  1.8259 -3.0703 -0.0461
  450MOL0     H59372   3.762   1.479   8.253 -0.5698  0.3365  0.7261
  450MOL0     H59373   3.797   1.410   8.411 -1.8588  0.4558  1.5115
  450MOL0     H59374   3.631   1.667   8.375 -0.7435 -0.9280 -2.2171
  450MOL0     H59375   3.691   1.593   8.528 -1.1059 -2.4545  1.1243
  450MOL0     H59376   3.469   1.525   8.495 -1.4814  1.7226 -3.0320
  450MOL0     H59377   3.584   1.391   8.493 -0.0553 -0.2390 -0.2048
  450MOL0     H59378   3.431   1.520   8.263  0.0195  2.3313  3.2908
  450MOL0     H59379   3.560   1.412   8.225 -1.6723  1.5148 -0.4699
  450MOL0     H59380   3.461   1.235   8.353 -2.2901 -1.9351 -0.0559
  450MOL0     H59381   3.355   1.295   8.215 -0.9302  0.1291  0.2697
  450MOL0     H59382   4.258   1.820   8.179 -0.8426 -0.8870  3.8395
  450MOL0     H59383   4.465   1.945   8.152 -1.4251  0.1772  1.1004
  450MOL0     H59384   4.887   2.017   8.171  1.5612  1.7399  0.7209
  450MOL0     H59385   5.061   2.182   8.113 -2.3417  2.7590  1.7237
  450MOL0     H59386   5.104   2.262   8.830 -3.1052 -1.2253  3.2441
  450MOL0     H59387   4.862   2.271   8.908 -2.5730 -2.2879 -2.6580
  450MOL0     H59388   4.376   2.257   8.943  1.1387  0.6857  0.9376
  450MOL0     H59389   4.150   2.318   8.930  1.0843 -2.1141  0.6446
  450MOL0     H59390   4.052   2.677   8.661  2.8014  2.9681  1.2944
  450MOL0     H59391   4.025   2.745   8.825  0.6469 -0.1583  0.0557
  450MOL0     H59392   3.837   2.766   8.700 -0.1617  2.5020  4.4397
  450MOL0     H59393   3.816   2.591   8.653 -0.8417  0.7650 -0.4519
  450MOL0     H59394   3.829   2.672   8.938 -0.4141  1.1979  0.5933
  450MOL0     H59395   3.727   2.542   8.858 -1.4678  1.0015 -0.6366
  450MOL0     H59396   3.617   2.768   8.957 -0.0038 -0.8392  0.0548
  450MOL0     H59397   3.669   2.835   8.804 -0.7646 -0.6334 -2.3302
  450MOL0     H59398   3.367   2.625   8.627 -2.1102  5.1984 -0.5861
  450MOL0     H59399   4.253   2.680   8.724 -2.1400 -0.3650  0.5540
  450MOL0     H59400   4.487   2.635   8.756 -0.7423  0.7379 -0.9139
  451MOL0     O59401   6.824   0.050   3.081  0.4446 -0.4153  1.0390
  451MOL0     C59402   6.747  -0.024   3.022 -0.0864 -0.4024  0.5771
  451MOL0     O59403   6.776  -0.154   2.964  0.3411  0.1793  0.2162
  451MOL0     C59404   6.906  -0.209   2.986  0.6077  0.3384  0.8082
  451MOL0     C59405   6.984  -0.236   2.867 -0.1491  0.0624  0.2384
  451MOL0     C59406   7.117  -0.295   2.883  0.2386  0.3639  0.6417
  451MOL0     C59407   7.156  -0.338   3.015  0.0210 -0.2447  0.1032
  451MOL0     O59408   7.264  -0.420   3.044  0.2380  0.1667  0.9322
  451MOL0     C59409   7.356  -0.456   2.940 -0.3327  0.1598  0.4872
  451MOL0     C59410   7.482  -0.532   2.998  0.7980  0.8201 -0.8322
  451MOL0     C59411   7.594  -0.582   2.896 -0.1788 -0.1410 -0.5731
  451MOL0     C59412   7.538  -0.692   2.802 -0.0965  0.9845  0.2848
  451MOL0     C59413   7.518  -0.823   2.875 -0.1089 -0.1235 -0.0401
  451MOL0     C59414   7.468  -0.934   2.776  0.0910 -0.5451 -0.3813
  451MOL0     C59415   7.567  -0.963   2.670 -0.2405  0.8898 -0.4637
  451MOL0     C59416   7.530  -1.103   2.611 -0.2604 -0.4011 -0.1011
  451MOL0     N59417   7.414  -1.108   2.540 -0.0817  0.4674 -0.1867
  451MOL0     C59418   7.317  -1.203   2.544 -0.2803 -0.2658 -0.1394
  451MOL0     C59419   7.220  -1.151   2.464 -0.0360 -0.2775  0.0067
  451MOL0     C59420   7.090  -1.229   2.430 -0.0892 -0.3997  0.9680
  451MOL0     C59421   7.003  -1.259   2.549 -0.0077  0.0280  0.2536
  451MOL0     C59422   6.865  -1.322   2.493  0.1655 -0.3938  0.3439
  451MOL0     C59423   6.768  -1.334   2.595  0.9807  0.0319 -0.6097
  451MOL0     O59424   6.692  -1.450   2.572  0.0674 -0.0625 -0.5872
  451MOL0     C59425   6.569  -1.478   2.631 -0.0385  0.9591 -0.5546
  451MOL0     C59426   6.502  -1.385   2.716 -0.2940  0.1258 -0.7340
  451MOL0     C59427   6.392  -1.415   2.792  0.4709 -0.3278 -0.2422
  451MOL0     C59428   6.336  -1.543   2.791 -0.9438 -0.6025 -0.4448
  451MOL0     C59429   6.213  -1.557   2.877 -0.3743 -0.5769  0.3183
  451MOL0     O59430   6.183  -1.686   2.900 -0.9291 -0.2309 -0.1549
  451MOL0     C59431   6.084  -1.724   2.986 -0.0325 -0.7227  0.7223
  451MOL0     C59432   5.978  -1.796   2.939  0.4977  1.1952  0.0492
  451MOL0     C59433   5.882  -1.847   3.029 -0.0487 -0.1746 -0.4370
  451MOL0     C59434   5.885  -1.812   3.171 -0.5594 -0.1812  0.6248
  451MOL0     O59435   5.790  -1.853   3.268 -0.2049 -0.0773  1.1507
  451MOL0     C59436   5.675  -1.926   3.213 -0.4788 -0.1208  0.7387
  451MOL0     C59437   5.584  -1.965   3.331 -0.1162  0.9829 -1.0356
  451MOL0     C59438   5.638  -2.082   3.407 -0.1516 -0.0873 -0.8112
  451MOL0     C59439   5.526  -2.151   3.494  0.8351 -0.6102  0.0788
  451MOL0     C59440   5.583  -2.192   3.630  0.4444  0.5222 -0.2493
  451MOL0     C59441   5.687  -2.304   3.624 -0.4918 -0.2925 -0.0705
  451MOL0     C59442   5.750  -2.315   3.766  0.2917  1.0148  0.3040
  451MOL0     C59443   5.860  -2.430   3.790  0.3603 -0.1981 -0.3003
  451MOL0    Cl59444   5.792  -2.584   3.738 -0.4130  0.3973  0.1247
  451MOL0     C59445   5.988  -1.737   3.219  0.1889  0.1447  0.1897
  451MOL0     C59446   6.093  -1.700   3.124  0.8347  0.4042 -0.1300
  451MOL0     O59447   6.146  -1.456   2.919 -0.5300  0.5132  0.2583
  451MOL0     C59448   6.395  -1.635   2.708 -0.0036 -0.6328 -0.4569
  451MOL0     C59449   6.509  -1.606   2.627  0.0910 -0.5252  0.2387
  451MOL0     N59450   7.253  -1.028   2.414  0.3269 -0.1274 -0.8374
  451MOL0     N59451   7.362  -1.003   2.466 -0.4015 -0.2769 -0.1874
  451MOL0     C59452   7.085  -0.291   3.130  0.0577  0.0447  0.1234
  451MOL0     C59453   6.959  -0.221   3.109 -0.2245  0.0518  0.6607
  451MOL0     C59454   6.614   0.021   3.000  0.0666  0.1999 -1.0792
  451MOL0     C59455   6.551   0.112   3.089  0.3855  0.1450 -0.7178
  451MOL0     C59456   6.419   0.149   3.072  0.1409 -0.0584 -0.3987
  451MOL0     C59457   6.333   0.097   2.972  0.0152 -0.5376 -0.3806
  451MOL0     O59458   6.199   0.132   2.976 -0.7950 -0.5523 -0.3867
  451MOL0     C59459   6.132   0.109   2.850  0.7134  0.4017 -0.3612
  451MOL0     C59460   6.005   0.186   2.877  0.3079 -0.0184 -0.3075
  451MOL0     C59461   5.899   0.195   2.762  0.0643 -0.6041 -0.3577
  451MOL0     C59462   5.793   0.309   2.790 -0.2561 -0.3865 -0.2636
  451MOL0     C59463   5.712   0.276   2.909 -0.1337 -0.3692  0.0478
  451MOL0     C59464   5.660   0.238   3.008  0.1300 -0.3090 -1.4816
  451MOL0     C59465   6.399   0.005   2.889  0.1371 -0.3540  0.6384
  451MOL0     C59466   6.533  -0.020   2.903 -0.4158  1.2027 -0.1075
  451MOL0     H59467   6.931  -0.212   2.775 -0.6960  0.3857  0.6285
  451MOL0     H59468   7.172  -0.325   2.794 -1.2956 -2.8744  0.6382
  451MOL0     H59469   7.385  -0.368   2.882  0.4224  2.6204  4.2948
  451MOL0     H59470   7.304  -0.532   2.880 -0.6675  0.5101  0.3349
  451MOL0     H59471   7.448  -0.616   3.059 -1.1885  1.2684 -1.2557
  451MOL0     H59472   7.526  -0.469   3.075  0.4789  0.2044 -0.1341
  451MOL0     H59473   7.685  -0.620   2.942  0.2852  2.4956  0.9087
  451MOL0     H59474   7.631  -0.506   2.827  2.7279 -0.7193  0.2014
  451MOL0     H59475   7.448  -0.652   2.757  0.6757  1.2961 -1.0218
  451MOL0     H59476   7.611  -0.703   2.721 -2.1620  1.2424 -1.6788
  451MOL0     H59477   7.442  -0.805   2.952  0.1755  0.9679 -0.0028
  451MOL0     H59478   7.613  -0.848   2.922  0.0780  1.9432  0.7593
  451MOL0     H59479   7.377  -0.902   2.725 -0.8638 -1.3254  0.7723
  451MOL0     H59480   7.444  -1.025   2.831  1.8452 -1.8678 -1.7303
  451MOL0     H59481   7.559  -0.886   2.592 -1.4206 -1.6722 -3.0658
  451MOL0     H59482   7.668  -0.967   2.712  0.3990 -0.5422 -2.0225
  451MOL0     H59483   7.534  -1.170   2.697 -0.4282  0.2112  0.3890
  451MOL0     H59484   7.608  -1.128   2.538  0.3846 -1.1658  0.8170
  451MOL0     H59485   7.306  -1.292   2.604 -3.7129  0.8965  1.1907
  451MOL0     H59486   7.106  -1.311   2.359  1.3608  1.1229 -0.5621
  451MOL0     H59487   7.038  -1.152   2.371  0.3647 -0.3014  0.6925
  451MOL0     H59488   6.985  -1.173   2.614 -0.0853  0.5344 -0.4289
  451MOL0     H59489   7.056  -1.337   2.605  2.6128 -0.9216 -3.1455
  451MOL0     H59490   6.837  -1.255   2.412  0.8444  3.1484  2.8022
  451MOL0     H59491   6.894  -1.420   2.454  0.9444 -1.2745  2.9302
  451MOL0     H59492   6.707  -1.243   2.601 -0.5117 -0.8840 -1.3550
  451MOL0     H59493   6.821  -1.343   2.690  0.0444 -0.9836 -0.1556
  451MOL0     H59494   6.547  -1.287   2.706 -0.0189  0.2271  1.0276
  451MOL0     H59495   6.350  -1.333   2.848  1.1671  1.7118 -2.5447
  451MOL0     H59496   5.986  -1.834   2.837  2.7090  0.0814  0.5691
  451MOL0     H59497   5.800  -1.910   2.999 -2.4780  0.6723  3.5911
  451MOL0     H59498   5.698  -2.017   3.156 -1.7374 -0.9598  1.5216
  451MOL0     H59499   5.628  -1.854   3.146  0.7683  1.1658  1.2030
  451MOL0     H59500   5.486  -1.988   3.289 -0.0061 -1.8927  0.0002
  451MOL0     H59501   5.571  -1.879   3.397 -2.8949  0.1082 -0.3255
  451MOL0     H59502   5.705  -2.037   3.481 -2.2098  0.9459  0.5477
  451MOL0     H59503   5.692  -2.157   3.348 -0.8088 -2.4446  1.4025
  451MOL0     H59504   5.451  -2.073   3.509 -0.8841 -2.6260  2.9287
  451MOL0     H59505   5.483  -2.229   3.432 -0.3404  0.3122 -0.2900
  451MOL0     H59506   5.502  -2.236   3.691  2.3448 -5.3439 -1.3583
  451MOL0     H59507   5.619  -2.099   3.674 -0.3435  1.2800 -1.1794
  451MOL0     H59508   5.759  -2.276   3.546 -1.0774  0.2720 -0.4240
  451MOL0     H59509   5.632  -2.395   3.599 -1.5067  0.3813 -0.3377
  451MOL0     H59510   5.789  -2.215   3.789 -0.6359  2.0948 -2.4486
  451MOL0     H59511   5.671  -2.333   3.840 -1.3699  0.6285 -1.4984
  451MOL0     H59512   5.886  -2.437   3.896 -4.1944 -0.2058  1.0424
  451MOL0     H59513   5.951  -2.402   3.736  0.3757 -0.0720 -0.2089
  451MOL0     H59514   5.986  -1.724   3.327 -3.2582 -2.4637  0.6063
  451MOL0     H59515   6.193  -1.667   3.150  0.6641  0.6063  0.2783
  451MOL0     H59516   6.332  -1.723   2.699 -1.0769  0.1827 -1.1440
  451MOL0     H59517   6.558  -1.681   2.566 -0.7592 -1.2631  0.4364
  451MOL0     H59518   7.117  -0.322   3.229 -0.7910 -3.0287 -0.4582
  451MOL0     H59519   6.908  -0.180   3.196 -0.5180  0.8270  0.1253
  451MOL0     H59520   6.613   0.156   3.167  1.9960 -2.2374 -0.5541
  451MOL0     H59521   6.375   0.221   3.139 -0.4017 -0.8517  0.1115
  451MOL0     H59522   6.096   0.007   2.832 -1.3056  1.4400 -2.9248
  451MOL0     H59523   6.193   0.148   2.767  1.4706  1.9388  0.8561
  451MOL0     H59524   5.949   0.130   2.953 -1.9588  0.1533 -1.7655
  451MOL0     H59525   6.043   0.282   2.911  1.0995 -0.4912  0.1783
  451MOL0     H59526   5.851   0.102   2.730 -2.6879  0.3546  0.6579
  451MOL0     H59527   5.956   0.230   2.675  1.4906 -0.8044  0.4669
  451MOL0     H59528   5.853   0.398   2.813  1.4013 -1.4498 -0.2905
  451MOL0     H59529   5.731   0.325   2.701  0.5283 -1.6671 -1.0720
  451MOL0     H59530   5.621   0.202   3.102  2.4582  0.6225 -0.0879
  451MOL0     H59531   6.353  -0.056   2.812  1.3699 -1.1184  0.4895
  451MOL0     H59532   6.573  -0.094   2.832 -2.5664 -0.3835  0.2401
  452MOL0     O59533   9.754   9.643   2.345 -0.2827 -0.0427 -0.0231
  452MOL0     C59534   9.780   9.521   2.337  0.6447  0.0828  0.6310
  452MOL0     O59535   9.711   9.435   2.252 -0.1290  0.1271 -0.3360
  452MOL0     C59536   9.622   9.481   2.161  0.6618  0.4281  0.0730
  452MOL0     C59537   9.641   9.431   2.033  0.3136  0.4025  1.0883
  452MOL0     C59538   9.541   9.462   1.934  0.1380  0.3665 -0.3079
  452MOL0     C59539   9.429   9.542   1.967  0.3669  0.1621 -0.4571
  452MOL0     O59540   9.352   9.574   1.848 -0.1698  1.2172 -0.0791
  452MOL0     C59541   9.228   9.638   1.876  0.7656 -0.1534 -0.1553
  452MOL0     C59542   9.129   9.610   1.757 -0.1170 -0.6872  0.7101
  452MOL0     C59543   8.983   9.606   1.808  0.2227  0.1939  0.3742
  452MOL0     C59544   8.885   9.576   1.691 -0.0755  0.5764  0.1028
  452MOL0     C59545   8.745   9.601   1.741 -0.7889 -0.4352  0.6725
  452MOL0     C59546   8.635   9.595   1.622  0.0222  0.3834 -0.6536
  452MOL0     C59547   8.506   9.583   1.698 -0.1932 -0.4790  0.4068
  452MOL0     C59548   8.396   9.587   1.586 -0.7158  1.0463 -0.2669
  452MOL0     N59549   8.255   9.596   1.630  0.0569 -0.1842 -0.1449
  452MOL0     C59550   8.179   9.498   1.697  0.4682  0.3361  0.1667
  452MOL0     C59551   8.049   9.552   1.697 -0.4760 -0.6810 -0.1939
  452MOL0     C59552   7.931   9.480   1.747  0.7736  0.0961 -0.2320
  452MOL0     C59553   7.962   9.382   1.861  0.1057 -0.7168 -0.3669
  452MOL0     C59554   7.832   9.305   1.886 -0.2065  0.1774 -0.2113
  452MOL0     C59555   7.711   9.395   1.944  0.0619  0.6621 -1.1966
  452MOL0     O59556   7.762   9.446   2.066  0.4976 -0.1383  0.4313
  452MOL0     C59557   7.689   9.531   2.149 -0.5358  1.4410  0.0116
  452MOL0     C59558   7.546   9.521   2.147  0.2180 -1.2506 -0.1986
  452MOL0     C59559   7.481   9.604   2.243  0.5566  0.2007 -0.3360
  452MOL0     C59560   7.547   9.688   2.337  1.0064  0.8469 -0.3579
  452MOL0     C59561   7.462   9.745   2.441  0.2245  0.5917 -0.5417
  452MOL0     O59562   7.338   9.694   2.445  0.4564  0.1858  0.3424
  452MOL0     C59563   7.264   9.698   2.559 -0.2557  0.2097  0.9155
  452MOL0     C59564   7.307   9.682   2.696 -0.6483  0.8046  0.3348
  452MOL0     C59565   7.204   9.654   2.798 -0.3995 -0.2784  0.5072
  452MOL0     C59566   7.067   9.665   2.761 -0.2201  0.4482  0.1295
  452MOL0     O59567   6.972   9.640   2.862  0.3458  0.3054 -0.2000
  452MOL0     C59568   6.834   9.630   2.833  0.7457  0.0194  0.7190
  452MOL0     C59569   6.778   9.566   2.959 -0.3595 -0.0443  0.0596
  452MOL0     C59570   6.770   9.666   3.082 -0.9772  0.7170 -0.4473
  452MOL0     C59571   6.705   9.602   3.209 -0.2848  0.3443  0.2360
  452MOL0     C59572   6.556   9.623   3.220 -0.2098  0.3278 -0.3580
  452MOL0     C59573   6.508   9.536   3.335  0.1806 -0.6610  0.4861
  452MOL0     C59574   6.366   9.592   3.388 -1.0863  0.5288  0.3310
  452MOL0     C59575   6.368   9.623   3.545  0.0978 -0.1443 -0.5002
  452MOL0    Cl59576   6.216   9.680   3.629  0.0502  0.8434 -0.1022
  452MOL0     C59577   7.028   9.712   2.636  0.6625  0.3100  0.3491
  452MOL0     C59578   7.130   9.718   2.533  0.5412 -0.2477 -0.5758
  452MOL0     O59579   7.510   9.831   2.518  1.0981 -0.3514 -0.3917
  452MOL0     C59580   7.688   9.690   2.330  0.6047  0.0577  0.0486
  452MOL0     C59581   7.761   9.616   2.234 -0.6573 -0.7191 -0.3521
  452MOL0     N59582   8.049   9.674   1.628  0.1285 -0.0666 -0.3342
  452MOL0     N59583   8.165   9.701   1.588 -0.2763 -0.4726  1.3646
  452MOL0     C59584   9.416   9.597   2.092  0.0701  0.8055 -0.1582
  452MOL0     C59585   9.516   9.565   2.190  1.0983 -0.0911 -0.3604
  452MOL0     C59586   9.890   9.473   2.420  1.4401 -0.4244 -0.4287
  452MOL0     C59587   9.906   9.335   2.433  1.0508 -0.1442 -0.7240
  452MOL0     C59588  10.000   9.279   2.526 -0.0667 -1.2785 -0.4996
  452MOL0     C59589  10.067   9.373   2.609  1.1979 -0.4019 -0.7091
  452MOL0     O59590  10.148   9.332   2.715 -1.2423 -0.1294 -0.7925
  452MOL0     C59591  10.204   9.197   2.728  0.1068  0.1425  1.0332
  452MOL0     C59592  10.297   9.168   2.609 -0.1998  0.7778  0.6268
  452MOL0     C59593  10.399   9.289   2.593 -0.2040 -0.1418  0.3520
  452MOL0     C59594  10.496   9.301   2.716  0.4997  0.4265 -0.1464
  452MOL0     C59595  10.602   9.398   2.682  0.7971 -0.8574 -0.2841
  452MOL0     C59596  10.690   9.471   2.650 -0.7099 -0.3609 -0.1576
  452MOL0     C59597  10.055   9.508   2.588  0.5546 -0.3263  0.2043
  452MOL0     C59598   9.966   9.556   2.492 -0.6080 -0.0374 -0.6767
  452MOL0     H59599   9.732   9.389   1.993  0.7950  1.4372  1.0592
  452MOL0     H59600   9.551   9.432   1.830 -0.8633 -2.2248  0.2796
  452MOL0     H59601   9.238   9.744   1.899 -0.5771  0.0203 -0.3241
  452MOL0     H59602   9.185   9.598   1.968 -1.2849  0.0126 -0.9929
  452MOL0     H59603   9.141   9.510   1.716 -1.6117 -0.3307 -0.6940
  452MOL0     H59604   9.132   9.691   1.683 -1.4993  0.2250  1.5898
  452MOL0     H59605   8.952   9.700   1.853 -0.3730 -0.5199  1.5019
  452MOL0     H59606   8.975   9.527   1.883 -2.5010  0.0837  0.0460
  452MOL0     H59607   8.901   9.644   1.607  0.0799 -0.2855 -0.5828
  452MOL0     H59608   8.897   9.471   1.663 -2.0909 -0.0929  1.4857
  452MOL0     H59609   8.756   9.702   1.782  0.7607 -0.1503 -0.3642
  452MOL0     H59610   8.722   9.526   1.817  0.0331 -0.6555  0.7045
  452MOL0     H59611   8.649   9.503   1.564 -2.5428 -1.3886  1.2913
  452MOL0     H59612   8.633   9.678   1.551 -2.3652  0.5391 -0.4774
  452MOL0     H59613   8.509   9.496   1.764  0.4976 -0.4219  0.4515
  452MOL0     H59614   8.496   9.676   1.756 -3.1862  1.8074 -3.2150
  452MOL0     H59615   8.399   9.495   1.527  2.6242  1.9752 -1.7707
  452MOL0     H59616   8.421   9.673   1.523 -1.0196  0.5373 -1.0999
  452MOL0     H59617   8.213   9.405   1.739  1.0241  0.4679  0.0093
  452MOL0     H59618   7.885   9.428   1.662 -0.4778  3.0972 -1.5306
  452MOL0     H59619   7.860   9.551   1.791  0.9138 -1.6550  3.1381
  452MOL0     H59620   7.990   9.430   1.955 -1.5482  1.3479 -0.8426
  452MOL0     H59621   8.042   9.313   1.832  1.1664  0.1402  0.4751
  452MOL0     H59622   7.793   9.263   1.793 -0.0732  0.8956 -0.5971
  452MOL0     H59623   7.861   9.229   1.959  0.1947  1.4682  1.0124
  452MOL0     H59624   7.622   9.335   1.965 -0.2352  1.0491 -1.3374
  452MOL0     H59625   7.684   9.474   1.874 -0.5045  0.6765 -0.9670
  452MOL0     H59626   7.486   9.479   2.067 -1.4882  0.9907 -0.2104
  452MOL0     H59627   7.374   9.617   2.232 -0.1573 -0.7079  3.7637
  452MOL0     H59628   7.411   9.690   2.727 -0.3208  5.1185 -1.2003
  452MOL0     H59629   7.229   9.645   2.903 -0.9294 -1.1944  0.5648
  452MOL0     H59630   6.828   9.558   2.751 -1.9595  1.2500 -0.2584
  452MOL0     H59631   6.782   9.723   2.810 -1.3174 -1.1377  0.5426
  452MOL0     H59632   6.828   9.471   2.981 -0.1432 -0.3422 -1.5914
  452MOL0     H59633   6.679   9.525   2.938 -1.1701 -0.1159  3.4467
  452MOL0     H59634   6.718   9.758   3.056 -1.6382  1.2465  2.4062
  452MOL0     H59635   6.876   9.684   3.105 -0.0812 -1.3587 -2.4798
  452MOL0     H59636   6.718   9.494   3.211 -0.0152  0.3159 -1.6397
  452MOL0     H59637   6.749   9.647   3.299 -1.2495  2.8728 -0.4628
  452MOL0     H59638   6.499   9.606   3.129  0.8925 -0.4509 -0.9211
  452MOL0     H59639   6.541   9.727   3.251  1.0258  0.4007  0.0322
  452MOL0     H59640   6.582   9.527   3.416  3.8713  2.1878 -2.2542
  452MOL0     H59641   6.490   9.437   3.291 -2.4739  0.3398 -0.9569
  452MOL0     H59642   6.340   9.684   3.334  0.8758  0.1013 -1.4710
  452MOL0     H59643   6.287   9.519   3.371  0.5792 -1.2479 -0.1338
  452MOL0     H59644   6.449   9.695   3.558  0.2678 -0.6654  1.7412
  452MOL0     H59645   6.394   9.533   3.601 -0.0849  1.0303  1.5612
  452MOL0     H59646   6.932   9.752   2.608 -0.0097 -2.8947 -2.6620
  452MOL0     H59647   7.102   9.757   2.436  1.3980  3.0095  0.3601
  452MOL0     H59648   7.751   9.743   2.400  0.7134 -0.4132  0.3102
  452MOL0     H59649   7.869   9.623   2.236 -0.7276  0.7347  1.2051
  452MOL0     H59650   9.343   9.674   2.114  3.2332  3.7561  1.0490
  452MOL0     H59651   9.505   9.606   2.290 -1.3792  2.2869 -1.4851
  452MOL0     H59652   9.837   9.266   2.387  1.9970 -0.4942 -1.6821
  452MOL0     H59653  10.003   9.174   2.552  0.9216 -0.9402  0.8589
  452MOL0     H59654  10.132   9.115   2.723  0.4232 -0.0899 -0.1008
  452MOL0     H59655  10.258   9.188   2.823 -0.2538  1.8083  1.4233
  452MOL0     H59656  10.350   9.073   2.621 -1.1248  0.1058 -0.4008
  452MOL0     H59657  10.232   9.146   2.524 -0.2016 -1.4562  1.1334
  452MOL0     H59658  10.343   9.381   2.573 -0.1057 -0.5908 -2.4467
  452MOL0     H59659  10.473   9.260   2.518 -0.2397  0.4968  0.0636
  452MOL0     H59660  10.437   9.341   2.799 -0.9344 -0.0962 -0.8702
  452MOL0     H59661  10.549   9.213   2.753  1.9895  0.3069 -2.4460
  452MOL0     H59662  10.766   9.544   2.632 -1.1856  0.4259  0.9297
  452MOL0     H59663  10.115   9.574   2.649  2.8634 -3.4048  1.5382
  452MOL0     H59664   9.955   9.664   2.484 -0.3047  0.1635  1.1100
  453MOL0     O59665   1.016   6.974   7.638 -0.2465  0.5392 -0.2931
  453MOL0     C59666   1.008   7.072   7.569  0.1580  0.2432  1.1296
  453MOL0     O59667   1.061   7.193   7.604  0.7631 -0.0247 -0.2931
  453MOL0     C59668   1.164   7.204   7.700 -0.0635  0.1170 -0.1274
  453MOL0     C59669   1.253   7.102   7.734 -0.3634  0.2253  0.6460
  453MOL0     C59670   1.351   7.131   7.838  1.0128 -0.3169 -0.0198
  453MOL0     C59671   1.360   7.258   7.897  0.3283  0.1456  0.9109
  453MOL0     O59672   1.443   7.287   8.007 -0.4430 -0.0717 -0.1560
  453MOL0     C59673   1.580   7.310   7.972  0.4886  0.2188 -0.0059
  453MOL0     C59674   1.667   7.255   8.090 -0.8671 -0.5388  0.3861
  453MOL0     C59675   1.614   7.313   8.221 -0.5875  0.3618  0.0959
  453MOL0     C59676   1.721   7.313   8.339  0.7700 -0.1756  0.2029
  453MOL0     C59677   1.673   7.400   8.448  0.0200 -0.3344 -0.0752
  453MOL0     C59678   1.782   7.458   8.532 -0.4035  0.5404 -0.1152
  453MOL0     C59679   1.843   7.350   8.622 -0.2931 -0.0345 -0.1511
  453MOL0     C59680   1.974   7.391   8.697 -1.0333 -1.1144 -0.7240
  453MOL0     N59681   1.961   7.519   8.775  0.3471  0.0792 -0.8505
  453MOL0     C59682   1.846   7.564   8.838 -0.9073 -0.7425  0.1307
  453MOL0     C59683   1.876   7.692   8.880  0.0462 -0.8931  0.1696
  453MOL0     C59684   1.781   7.778   8.960  1.1994  0.6411  0.8724
  453MOL0     C59685   1.631   7.769   8.922  0.2364  0.1472 -0.2298
  453MOL0     C59686   1.548   7.873   9.000 -0.6208  0.0806  0.4251
  453MOL0     C59687   1.541   7.827   9.150 -0.4464 -0.1493 -0.0497
  453MOL0     O59688   1.458   7.708   9.179  0.9049 -0.2350  0.5926
  453MOL0     C59689   1.322   7.720   9.162  0.2125 -0.5821 -0.7403
  453MOL0     C59690   1.260   7.600   9.162 -0.1858 -0.0660 -0.0182
  453MOL0     C59691   1.121   7.596   9.160 -0.3024  0.9307 -0.0924
  453MOL0     C59692   1.045   7.710   9.152 -0.4291  0.4558  0.6490
  453MOL0     C59693   0.899   7.701   9.149 -0.5241  1.7349 -0.5663
  453MOL0     O59694   0.832   7.809   9.092 -0.6244 -0.0161 -0.4221
  453MOL0     C59695   0.692   7.818   9.093 -0.7219 -1.1355 -0.9519
  453MOL0     C59696   0.645   7.888   8.979 -1.2004  0.7459  0.4330
  453MOL0     C59697   0.509   7.911   8.956  0.5595 -0.1168  0.5867
  453MOL0     C59698   0.421   7.867   9.055 -0.3102  0.2953 -0.3563
  453MOL0     O59699   0.290   7.878   9.040 -0.1407 -0.0987  0.1444
  453MOL0     C59700   0.251   7.993   9.114 -0.1420  0.2892  0.4733
  453MOL0     C59701   0.099   8.011   9.090 -0.0226 -0.0202  0.3372
  453MOL0     C59702   0.052   8.152   9.153 -1.2579 -0.4690  0.7806
  453MOL0     C59703  -0.084   8.198   9.159  0.9029 -0.4479  0.6171
  453MOL0     C59704  -0.097   8.338   9.229 -0.6748  1.2604 -0.8212
  453MOL0     C59705  -0.236   8.405   9.221 -0.5949  0.8965  0.1336
  453MOL0     C59706  -0.236   8.543   9.292  0.0663  0.3167 -0.5840
  453MOL0     C59707  -0.371   8.624   9.296  0.3078 -0.0436 -0.4903
  453MOL0    Cl59708  -0.479   8.574   9.164 -0.1616  0.3053 -0.0903
  453MOL0     C59709   0.470   7.804   9.174  0.6442 -0.7640 -0.3134
  453MOL0     C59710   0.600   7.777   9.191 -0.0641  0.4846 -0.3551
  453MOL0     O59711   0.845   7.601   9.203  0.5555 -0.1048  0.1308
  453MOL0     C59712   1.112   7.829   9.173 -1.1666 -0.3093  0.0317
  453MOL0     C59713   1.251   7.841   9.171 -0.4965  0.3652  0.1622
  453MOL0     N59714   2.007   7.714   8.846 -0.2754  0.1655 -0.2446
  453MOL0     N59715   2.060   7.611   8.781  0.0756  0.8556  0.1180
  453MOL0     C59716   1.262   7.355   7.857  0.1535 -0.1336  0.3338
  453MOL0     C59717   1.161   7.324   7.763  0.4652 -1.5849 -0.8514
  453MOL0     C59718   0.929   7.072   7.450 -0.5706  0.6287  0.5587
  453MOL0     C59719   0.893   6.950   7.385 -1.2819  0.1923  0.7170
  453MOL0     C59720   0.835   6.946   7.260  0.1296 -0.0150 -0.0868
  453MOL0     C59721   0.787   7.066   7.202  0.0735 -0.3584 -0.0242
  453MOL0     O59722   0.715   7.046   7.083  0.9447  0.5294  0.2181
  453MOL0     C59723   0.703   7.144   6.984 -0.3498 -0.2871  0.5737
  453MOL0     C59724   0.587   7.122   6.875 -0.4546  0.2724  0.1872
  453MOL0     C59725   0.524   6.982   6.846 -0.4448  0.6850  0.0799
  453MOL0     C59726   0.608   6.884   6.767  0.1247  0.4281 -1.1573
  453MOL0     C59727   0.532   6.780   6.703  1.2023 -0.1991  0.5186
  453MOL0     C59728   0.486   6.688   6.640  0.4340 -0.7720 -0.4202
  453MOL0     C59729   0.817   7.183   7.264 -0.3142 -0.0780  0.3961
  453MOL0     C59730   0.884   7.187   7.388  0.1313 -0.0922 -0.5607
  453MOL0     H59731   1.266   7.003   7.691 -1.4473  0.0601  0.6794
  453MOL0     H59732   1.413   7.049   7.873  1.0695 -0.9135 -1.4815
  453MOL0     H59733   1.596   7.418   7.966  2.0644 -0.0263 -0.7967
  453MOL0     H59734   1.597   7.260   7.876 -1.1878  0.8052 -0.6358
  453MOL0     H59735   1.769   7.293   8.079 -0.7847 -0.1524  2.2018
  453MOL0     H59736   1.665   7.147   8.102 -3.1492 -0.5031  0.6940
  453MOL0     H59737   1.524   7.256   8.244  0.0909 -0.4908  0.7152
  453MOL0     H59738   1.580   7.416   8.209  2.7467  1.3962 -1.9558
  453MOL0     H59739   1.721   7.212   8.382 -0.1473 -0.8188 -1.1996
  453MOL0     H59740   1.821   7.343   8.307  0.9339 -3.2216 -2.7525
  453MOL0     H59741   1.593   7.355   8.507  2.0414 -0.8560  2.4471
  453MOL0     H59742   1.639   7.494   8.403 -0.5349 -0.6450 -0.3144
  453MOL0     H59743   1.745   7.544   8.587  3.7343  1.0897  2.2226
  453MOL0     H59744   1.867   7.506   8.483 -0.9678  3.3473  1.4375
  453MOL0     H59745   1.768   7.325   8.697 -0.1410  1.4478  0.5180
  453MOL0     H59746   1.867   7.259   8.565  1.5092 -0.2289  0.8180
  453MOL0     H59747   2.055   7.396   8.623  0.2523 -0.5513  0.6863
  453MOL0     H59748   1.990   7.305   8.762  0.1860  0.0120  0.5244
  453MOL0     H59749   1.750   7.518   8.860 -2.0358  0.7856 -1.3907
  453MOL0     H59750   1.820   7.880   8.958  2.0093  0.3551 -2.1073
  453MOL0     H59751   1.784   7.742   9.064 -0.2658 -1.9221  0.1258
  453MOL0     H59752   1.583   7.675   8.950 -2.0860  0.4199 -2.8061
  453MOL0     H59753   1.607   7.788   8.817 -2.9745  2.0620  0.6961
  453MOL0     H59754   1.599   7.969   9.008  0.9472 -0.7574  1.1913
  453MOL0     H59755   1.450   7.867   8.952  0.4761 -2.1709 -1.7472
  453MOL0     H59756   1.499   7.910   9.207 -2.0762 -0.8295 -0.1859
  453MOL0     H59757   1.640   7.812   9.192 -0.7463  0.5151  0.9156
  453MOL0     H59758   1.313   7.505   9.157  0.2924  0.1729  0.4085
  453MOL0     H59759   1.085   7.493   9.165 -0.0394  0.8190 -0.4531
  453MOL0     H59760   0.714   7.946   8.919  0.8715 -0.5779  1.4073
  453MOL0     H59761   0.468   7.976   8.878  0.9432  0.1132  0.5717
  453MOL0     H59762   0.283   8.085   9.065 -0.2812 -0.5867 -1.3369
  453MOL0     H59763   0.291   7.988   9.216  0.2917  0.4877  0.3111
  453MOL0     H59764   0.044   7.926   9.132  3.1403 -2.5613 -0.2264
  453MOL0     H59765   0.078   8.015   8.983 -0.1197 -0.1173  0.3536
  453MOL0     H59766   0.122   8.230   9.122 -2.8924  0.9855  0.5731
  453MOL0     H59767   0.079   8.145   9.259 -2.4670  1.0271  1.2276
  453MOL0     H59768  -0.131   8.203   9.060  1.3460 -2.0274  0.2887
  453MOL0     H59769  -0.139   8.124   9.218 -2.0424  0.9355 -0.1911
  453MOL0     H59770  -0.013   8.400   9.196  0.3377  0.8499  0.8597
  453MOL0     H59771  -0.069   8.322   9.333 -1.6768  0.4418 -0.6544
  453MOL0     H59772  -0.312   8.345   9.272  0.0969 -0.3817 -0.3086
  453MOL0     H59773  -0.249   8.412   9.113 -0.0992 -1.4900 -0.1384
  453MOL0     H59774  -0.197   8.526   9.394  1.2771  1.9287 -0.7331
  453MOL0     H59775  -0.162   8.605   9.241 -1.1527  2.6109  0.3100
  453MOL0     H59776  -0.347   8.728   9.275  0.2927  0.5896  2.2256
  453MOL0     H59777  -0.419   8.620   9.395 -0.4222  0.0697 -0.8360
  453MOL0     H59778   0.396   7.797   9.253 -0.4268 -0.2942 -1.2463
  453MOL0     H59779   0.628   7.742   9.290  1.7833  1.1317 -0.6099
  453MOL0     H59780   1.048   7.917   9.170 -1.2590 -0.3854 -1.5447
  453MOL0     H59781   1.294   7.938   9.193 -1.3142  0.5422  1.0548
  453MOL0     H59782   1.255   7.441   7.922  1.3350 -0.1952  0.5656
  453MOL0     H59783   1.081   7.396   7.753  2.8581  2.0308  2.8012
  453MOL0     H59784   0.932   6.858   7.426  1.0593  0.9828  0.4476
  453MOL0     H59785   0.808   6.855   7.208  2.4636 -0.1605 -1.1773
  453MOL0     H59786   0.799   7.136   6.932 -0.2175  0.1466  0.7458
  453MOL0     H59787   0.671   7.238   7.030  2.0720 -1.1166  4.4780
  453MOL0     H59788   0.499   7.184   6.890 -0.5503  0.1249  0.2313
  453MOL0     H59789   0.632   7.157   6.781  1.0234 -0.4992  0.5673
  453MOL0     H59790   0.431   6.998   6.789  2.0228 -0.4930 -4.8057
  453MOL0     H59791   0.502   6.930   6.939 -0.5724  1.1669  0.3234
  453MOL0     H59792   0.664   6.928   6.684 -1.5418 -0.5699 -2.8852
  453MOL0     H59793   0.677   6.844   6.841  0.8646  1.5161 -1.2357
  453MOL0     H59794   0.466   6.603   6.579  1.6120 -1.4591  0.1339
  453MOL0     H59795   0.787   7.277   7.217 -1.2792 -1.3605 -1.6933
  453MOL0     H59796   0.912   7.277   7.440 -0.2067  0.3777 -1.1750
  454MOL0     O59797   5.033   5.075   8.666  0.2071  0.6462 -0.5075
  454MOL0     C59798   5.089   5.095   8.562  0.7847  0.3137 -0.6360
  454MOL0     O59799   5.025   5.137   8.448 -0.4727 -0.3548  0.6189
  454MOL0     C59800   4.890   5.162   8.434 -0.7722  0.0217  0.4412
  454MOL0     C59801   4.853   5.271   8.358  0.3420  0.0176 -0.9718
  454MOL0     C59802   4.720   5.286   8.317 -0.4690  0.4295 -0.1356
  454MOL0     C59803   4.621   5.202   8.356 -0.2356 -0.2554 -0.3476
  454MOL0     O59804   4.497   5.237   8.322 -0.9974  0.5580  0.3586
  454MOL0     C59805   4.400   5.146   8.360 -0.3714 -0.0679  0.3730
  454MOL0     C59806   4.267   5.191   8.303 -0.2097  0.0044 -0.5957
  454MOL0     C59807   4.159   5.084   8.338  0.4731 -0.6524  0.4061
  454MOL0     C59808   4.172   4.943   8.286  0.6107  0.2057 -0.4596
  454MOL0     C59809   4.045   4.867   8.285  0.0404 -0.3434  0.2737
  454MOL0     C59810   3.938   4.909   8.178 -0.2665  0.0008 -1.2449
  454MOL0     C59811   3.976   4.918   8.036 -1.1417  0.3729  0.9172
  454MOL0     C59812   3.884   4.988   7.935  0.0796 -0.1136  0.3260
  454MOL0     N59813   3.872   5.134   7.979  0.4089  1.1188  0.7078
  454MOL0     C59814   3.954   5.243   7.952  0.2586  0.3203 -0.3876
  454MOL0     C59815   3.885   5.346   8.010 -0.7027  0.0255 -0.4019
  454MOL0     C59816   3.916   5.492   7.978 -0.5076  0.1348  0.1058
  454MOL0     C59817   3.949   5.579   8.102  0.0499 -0.6211 -0.8095
  454MOL0     C59818   4.075   5.536   8.189  1.0843 -1.0260  0.2572
  454MOL0     C59819   4.091   5.616   8.322 -0.3004 -0.6853  0.0962
  454MOL0     O59820   4.181   5.730   8.289  0.4085 -0.7902 -1.2818
  454MOL0     C59821   4.321   5.711   8.307  0.3115  1.2630  0.3450
  454MOL0     C59822   4.401   5.809   8.252 -0.5598 -1.0062 -0.4492
  454MOL0     C59823   4.536   5.812   8.257 -0.1812 -0.2951  0.4462
  454MOL0     C59824   4.607   5.709   8.323  0.5184  0.5068 -0.1643
  454MOL0     C59825   4.759   5.705   8.332 -0.5283  0.1739 -1.1999
  454MOL0     O59826   4.815   5.610   8.412  0.1374 -0.2636  0.3392
  454MOL0     C59827   4.949   5.572   8.404 -0.1278  0.1478  0.1943
  454MOL0     C59828   5.025   5.540   8.523  0.4287 -0.2222  0.0516
  454MOL0     C59829   5.155   5.504   8.513  0.3355 -0.1921  0.5348
  454MOL0     C59830   5.228   5.512   8.397  0.1125  0.0241  0.6374
  454MOL0     O59831   5.366   5.480   8.388 -1.0848 -0.0794 -0.7194
  454MOL0     C59832   5.427   5.422   8.503  0.8277 -0.1384 -0.0871
  454MOL0     C59833   5.572   5.409   8.479 -0.6524  0.7595 -0.3910
  454MOL0     C59834   5.641   5.367   8.609 -0.0730  0.3813  0.8521
  454MOL0     C59835   5.775   5.318   8.588 -0.1768  0.1492  0.5458
  454MOL0     C59836   5.852   5.255   8.705  0.4411  0.9018  0.2725
  454MOL0     C59837   5.848   5.345   8.826 -0.1286  0.0826 -0.2614
  454MOL0     C59838   5.945   5.312   8.937 -0.0789 -0.2179 -0.9000
  454MOL0     C59839   5.937   5.399   9.056 -0.3392 -0.7461  0.2077
  454MOL0    Cl59840   5.978   5.563   9.010 -0.3205  0.4735  0.0992
  454MOL0     C59841   5.168   5.554   8.283  0.8490 -0.6176 -0.2483
  454MOL0     C59842   5.026   5.582   8.282  0.3584  0.1027  0.4810
  454MOL0     O59843   4.828   5.789   8.263  0.4652 -0.3341 -0.4503
  454MOL0     C59844   4.533   5.606   8.388 -0.5176 -0.5197 -0.6129
  454MOL0     C59845   4.391   5.611   8.384 -0.2552  0.1054  0.8651
  454MOL0     N59846   3.784   5.294   8.089 -0.2439 -0.0762 -0.1109
  454MOL0     N59847   3.772   5.170   8.069  0.3398 -0.4073  0.7491
  454MOL0     C59848   4.660   5.095   8.444  0.6842  0.4252 -0.3732
  454MOL0     C59849   4.793   5.071   8.483  0.1659 -0.0955  0.2281
  454MOL0     C59850   5.230   5.063   8.546  0.8322 -0.6821 -0.3256
  454MOL0     C59851   5.304   5.086   8.422  1.0569 -0.5499  0.0077
  454MOL0     C59852   5.441   5.075   8.409  1.0175  0.5208 -0.2480
  454MOL0     C59853   5.508   5.023   8.515 -0.8007  0.5028 -0.0073
  454MOL0     O59854   5.643   4.998   8.522  0.7154 -0.5259 -0.1899
  454MOL0     C59855   5.714   4.998   8.403 -0.5591  0.1277 -0.0791
  454MOL0     C59856   5.686   4.873   8.318  0.4939 -0.0402 -0.5154
  454MOL0     C59857   5.740   4.741   8.381  0.7332 -0.7820  0.5431
  454MOL0     C59858   5.631   4.640   8.406  0.4870 -0.2182 -0.3949
  454MOL0     C59859   5.661   4.516   8.489 -0.5046 -0.0393 -0.5369
  454MOL0     C59860   5.692   4.438   8.582 -0.0892 -0.0219 -0.4130
  454MOL0     C59861   5.447   4.990   8.635  0.8439 -0.6481 -0.0158
  454MOL0     C59862   5.305   5.004   8.649 -0.3436  0.1146 -0.1059
  454MOL0     H59863   4.935   5.329   8.316  1.4701 -1.5504 -1.0268
  454MOL0     H59864   4.686   5.367   8.254 -3.5732 -0.4373  0.2930
  454MOL0     H59865   4.398   5.134   8.469  1.6816 -1.1309  0.3491
  454MOL0     H59866   4.412   5.053   8.303  1.7727  0.8290 -0.7467
  454MOL0     H59867   4.292   5.201   8.197  0.1513 -1.1272 -0.6299
  454MOL0     H59868   4.231   5.289   8.336  0.0320 -0.3222  0.7211
  454MOL0     H59869   4.066   5.129   8.303  1.0912 -0.3486 -0.9026
  454MOL0     H59870   4.150   5.084   8.447 -0.8797 -1.0368  0.3167
  454MOL0     H59871   4.215   4.940   8.185 -1.9563 -1.6738 -1.6247
  454MOL0     H59872   4.228   4.890   8.364  3.1011  4.7766  1.2056
  454MOL0     H59873   4.014   4.872   8.390 -0.4045  2.2014  0.0814
  454MOL0     H59874   4.070   4.765   8.255 -0.3244 -0.4787  0.4269
  454MOL0     H59875   3.900   5.007   8.210  1.9046  0.1420  1.3296
  454MOL0     H59876   3.855   4.840   8.195 -0.0565  0.0281  0.0625
  454MOL0     H59877   4.073   4.962   8.010  0.1749 -2.7288  0.1063
  454MOL0     H59878   3.978   4.812   8.010 -1.4419  0.5715  0.0330
  454MOL0     H59879   3.786   4.940   7.941 -0.9326  1.9544  1.9281
  454MOL0     H59880   3.921   4.990   7.832  0.0732 -0.6462  0.3091
  454MOL0     H59881   4.050   5.258   7.904  0.3798  0.7724 -0.0183
  454MOL0     H59882   3.835   5.540   7.923 -0.7403  0.1009  0.4148
  454MOL0     H59883   4.002   5.502   7.910  1.6567 -4.5036  1.7486
  454MOL0     H59884   3.858   5.586   8.161 -3.2827 -1.7592 -5.3185
  454MOL0     H59885   3.969   5.678   8.060 -2.4614 -1.4892 -4.5842
  454MOL0     H59886   4.051   5.435   8.223  0.0819 -1.6302 -2.0447
  454MOL0     H59887   4.169   5.534   8.132  2.3506 -0.9153  2.2428
  454MOL0     H59888   4.128   5.551   8.401 -1.5255  1.4025  2.5630
  454MOL0     H59889   3.993   5.644   8.361  1.0932  1.3377  2.3732
  454MOL0     H59890   4.366   5.905   8.216  3.2380  1.2786  1.2549
  454MOL0     H59891   4.599   5.887   8.210  1.5040 -0.0687  2.8562
  454MOL0     H59892   4.980   5.547   8.622 -2.2203 -0.9942 -1.0233
  454MOL0     H59893   5.200   5.490   8.611 -1.6987 -2.0132  1.2756
  454MOL0     H59894   5.387   5.322   8.526  2.3784 -0.5551  0.9916
  454MOL0     H59895   5.410   5.488   8.589  0.4614  2.5298 -2.0829
  454MOL0     H59896   5.621   5.503   8.451  2.4319 -0.4948  0.3271
  454MOL0     H59897   5.589   5.333   8.402  0.3037 -3.8293  3.8586
  454MOL0     H59898   5.584   5.284   8.649 -1.7483 -1.1618 -4.0218
  454MOL0     H59899   5.644   5.448   8.683 -2.2130  0.6202  0.7370
  454MOL0     H59900   5.775   5.241   8.510 -1.0889 -0.1704  0.8525
  454MOL0     H59901   5.831   5.403   8.550 -1.0260  0.4852  0.0161
  454MOL0     H59902   5.951   5.223   8.673  0.6549  0.6852  1.1276
  454MOL0     H59903   5.794   5.169   8.739 -4.7489  3.3936 -1.2033
  454MOL0     H59904   5.744   5.350   8.860  0.1301 -0.6232  0.6376
  454MOL0     H59905   5.879   5.448   8.803 -0.2666  0.0405 -0.6593
  454MOL0     H59906   5.918   5.212   8.972 -1.4834  0.7043  0.8156
  454MOL0     H59907   6.048   5.297   8.903 -0.0570 -2.2559 -0.0426
  454MOL0     H59908   6.008   5.358   9.128 -0.4634 -0.5266  0.4572
  454MOL0     H59909   5.838   5.400   9.101 -1.1125  0.8259 -1.4096
  454MOL0     H59910   5.234   5.554   8.197  2.8009  0.5745  1.1517
  454MOL0     H59911   4.988   5.618   8.187  0.8536 -1.1932 -0.2389
  454MOL0     H59912   4.578   5.519   8.436  0.1112 -1.5680 -2.9506
  454MOL0     H59913   4.327   5.538   8.433  1.8779 -0.4995  2.9196
  454MOL0     H59914   4.590   5.023   8.485  2.0500 -0.7101  0.0393
  454MOL0     H59915   4.818   4.984   8.542  2.2036  0.9731  1.0479
  454MOL0     H59916   5.243   5.111   8.336  1.3871 -0.3664 -0.1769
  454MOL0     H59917   5.489   5.119   8.322  0.8769 -0.0102 -0.5965
  454MOL0     H59918   5.822   5.008   8.417 -0.8101  1.6618  1.0384
  454MOL0     H59919   5.700   5.090   8.345  1.2574  2.1521  2.4612
  454MOL0     H59920   5.579   4.869   8.293  0.8833  1.0132 -2.6043
  454MOL0     H59921   5.730   4.879   8.218 -2.3833  1.0027 -1.8265
  454MOL0     H59922   5.794   4.762   8.474  1.4089  0.1049 -0.0253
  454MOL0     H59923   5.809   4.697   8.308 -1.4540  0.3662 -2.4156
  454MOL0     H59924   5.539   4.685   8.443  1.1595  0.1110  0.9396
  454MOL0     H59925   5.601   4.611   8.305  0.5172 -2.6526  0.2482
  454MOL0     H59926   5.709   4.357   8.651  0.7122  1.2826  0.9668
  454MOL0     H59927   5.504   4.954   8.720  0.3800 -3.6323 -0.8427
  454MOL0     H59928   5.255   4.982   8.743  0.1114  0.6255  0.2625
  455MOL0     O59929   8.897   6.324  10.211  0.7624 -0.1105 -0.0670
  455MOL0     C59930   8.850   6.213  10.238 -0.3017 -0.0366 -0.0959
  455MOL0     O59931   8.916   6.098  10.224  0.2789  0.2979 -0.1742
  455MOL0     C59932   9.049   6.108  10.190 -0.1495  0.3116 -0.5160
  455MOL0     C59933   9.153   6.129  10.279 -0.2703 -0.9885  0.6935
  455MOL0     C59934   9.272   6.160  10.223 -0.3836 -0.4120  0.5078
  455MOL0     C59935   9.299   6.144  10.081 -0.0032 -0.0495 -0.9201
  455MOL0     O59936   9.428   6.178  10.041 -0.2872  0.7452 -0.3105
  455MOL0     C59937   9.451   6.266   9.932  0.0514 -0.6926  0.4489
  455MOL0     C59938   9.488   6.207   9.800 -0.2490  0.9208  0.2452
  455MOL0     C59939   9.637   6.185   9.787  0.3593 -0.1850 -0.6750
  455MOL0     C59940   9.670   6.109   9.651 -0.4739 -0.1536  0.7289
  455MOL0     C59941   9.824   6.085   9.619 -0.0440  0.0947  0.2556
  455MOL0     C59942   9.888   5.985   9.718 -0.1159 -0.8471  1.2867
  455MOL0     C59943  10.036   5.985   9.703 -0.4895 -0.3209  0.0707
  455MOL0     C59944  10.104   5.870   9.795 -0.2149 -0.1399 -0.9750
  455MOL0     N59945  10.253   5.875   9.783 -0.0438  0.2077 -0.6561
  455MOL0     C59946  10.340   5.981   9.766  0.9360  0.5609  0.1093
  455MOL0     C59947  10.469   5.931   9.767 -0.5027  0.2899 -0.3403
  455MOL0     C59948  10.600   5.995   9.759 -0.1789  1.2294  0.3123
  455MOL0     C59949  10.631   6.068   9.890 -0.2320  0.4691 -0.8798
  455MOL0     C59950  10.778   6.104   9.917  0.0560 -0.0062  1.2214
  455MOL0     C59951  10.817   6.124  10.062  0.2917  0.2829  0.2019
  455MOL0     O59952  10.864   6.002  10.116  0.9965  0.6818 -0.7611
  455MOL0     C59953  11.000   5.974  10.131 -0.1026  0.2189  0.0890
  455MOL0     C59954  11.045   5.876  10.231  0.0370  0.4039  0.2476
  455MOL0     C59955  11.187   5.830  10.237  0.1349 -1.6757  0.9345
  455MOL0     C59956  11.277   5.901  10.159 -0.2428 -0.1798 -0.7149
  455MOL0     C59957  11.419   5.869  10.169  0.5317 -0.2241  0.4584
  455MOL0     O59958  11.468   5.818  10.280 -0.2619  0.5378  0.4075
  455MOL0     C59959  11.606   5.792  10.292  1.1609 -1.0611 -0.0739
  455MOL0     C59960  11.659   5.691  10.211  0.4704  0.0261 -0.2656
  455MOL0     C59961  11.789   5.648  10.216 -0.2431 -0.7421 -0.0630
  455MOL0     C59962  11.871   5.727  10.299  0.0892  0.8508 -0.4934
  455MOL0     O59963  12.004   5.693  10.287 -0.1274 -0.0983  0.4104
  455MOL0     C59964  12.094   5.775  10.356 -0.0321  0.2060 -0.7655
  455MOL0     C59965  12.231   5.749  10.296 -0.0146 -0.7737 -0.1794
  455MOL0     C59966  12.237   5.785  10.153  0.0019 -0.2056  0.2105
  455MOL0     C59967  12.376   5.754  10.087  0.7997 -0.4626 -0.7524
  455MOL0     C59968  12.395   5.820   9.946  0.5631 -0.4821 -0.0905
  455MOL0     C59969  12.510   5.760   9.871  0.2731 -0.3129  0.6014
  455MOL0     C59970  12.648   5.744   9.943 -0.1900  0.4320 -0.2020
  455MOL0     C59971  12.713   5.864   9.985 -0.4748 -0.3622  0.3208
  455MOL0    Cl59972  12.825   5.934   9.845 -0.5366  0.2338 -0.3419
  455MOL0     C59973  11.821   5.832  10.380 -0.9744  0.4481  0.5230
  455MOL0     C59974  11.680   5.853  10.388 -0.1971 -0.0754 -0.3449
  455MOL0     O59975  11.478   5.894  10.064  0.3166 -0.8734 -0.5155
  455MOL0     C59976  11.231   6.006  10.068  0.2301  1.1496  0.0245
  455MOL0     C59977  11.096   6.037  10.049 -0.7563  0.5500  0.1387
  455MOL0     N59978  10.457   5.797   9.798 -0.0439 -0.2131 -0.1062
  455MOL0     N59979  10.334   5.770   9.797  0.1312  0.4737  0.0300
  455MOL0     C59980   9.196   6.095  10.004  1.3738 -0.1647  0.9033
  455MOL0     C59981   9.073   6.076  10.056 -0.2460 -1.6405 -0.2529
  455MOL0     C59982   8.718   6.208  10.291  0.4880 -0.7603 -0.7381
  455MOL0     C59983   8.673   6.088  10.346  0.0614 -0.1806 -0.8447
  455MOL0     C59984   8.546   6.088  10.407 -0.6152  0.2562 -0.4226
  455MOL0     C59985   8.471   6.204  10.426  0.7560 -0.0570  0.8608
  455MOL0     O59986   8.340   6.194  10.482 -0.9455 -0.1250  0.0618
  455MOL0     C59987   8.238   6.292  10.473 -0.4418  1.4858 -0.7379
  455MOL0     C59988   8.109   6.238  10.545  0.6645  0.2027  0.2344
  455MOL0     C59989   8.131   6.211  10.693  0.1538  0.6677 -0.7064
  455MOL0     C59990   8.051   6.088  10.734  0.1218  0.4817  0.6342
  455MOL0     C59991   8.049   6.077  10.878 -0.1533 -1.0006  0.0592
  455MOL0     C59992   8.039   6.054  11.000 -0.1586  0.3126 -0.3572
  455MOL0     C59993   8.512   6.321  10.352 -0.2985  0.4173 -0.4071
  455MOL0     C59994   8.642   6.327  10.298  0.6527  0.2953 -0.4479
  455MOL0     H59995   9.125   6.145  10.382 -0.4780 -1.9522  0.7893
  455MOL0     H59996   9.356   6.209  10.272  1.5966 -2.0189 -1.1357
  455MOL0     H59997   9.526   6.336   9.968 -0.4243 -0.4501  0.9731
  455MOL0     H59998   9.358   6.318   9.909 -0.6642 -2.4733 -0.9206
  455MOL0     H59999   9.476   6.289   9.729  0.8385  0.5902 -0.3471
  455MOL0     H60000   9.427   6.118   9.778 -1.8516  2.3173 -1.2606
  455MOL0     H60001   9.655   6.109   9.864 -0.2664  1.3142  1.0240
  455MOL0     H60002   9.700   6.271   9.811 -1.2134  0.6124  0.8127
  455MOL0     H60003   9.603   6.022   9.650 -0.7697  0.0274 -1.6955
  455MOL0     H60004   9.635   6.168   9.566  1.2537  0.9491  0.7297
  455MOL0     H60005   9.881   6.178   9.634  1.7461 -1.0757  1.1014
  455MOL0     H60006   9.842   6.051   9.516 -2.5825  2.0148 -0.9295
  455MOL0     H60007   9.847   5.884   9.708  0.0704 -0.8260  0.1679
  455MOL0     H60008   9.872   6.028   9.817 -1.3800  2.2542 -0.1237
  455MOL0     H60009  10.053   5.946   9.602 -3.0738 -3.4052  0.6430
  455MOL0     H60010  10.077   6.084   9.725  0.6778 -1.1741  2.0356
  455MOL0     H60011  10.075   5.769   9.766 -0.8825  0.2617 -1.7579
  455MOL0     H60012  10.072   5.879   9.899 -3.7025  0.3925 -1.9758
  455MOL0     H60013  10.309   6.083   9.749 -1.6628 -0.2621 -0.6009
  455MOL0     H60014  10.616   6.062   9.674 -0.9612  0.7518 -0.2164
  455MOL0     H60015  10.677   5.920   9.741 -1.7707 -0.4700  0.3526
  455MOL0     H60016  10.585   6.005   9.967  0.9778  1.5273  0.7755
  455MOL0     H60017  10.568   6.155   9.874 -2.3335 -1.4064 -3.8912
  455MOL0     H60018  10.847   6.034   9.869  0.6807  0.7659  0.9654
  455MOL0     H60019  10.790   6.196   9.859  3.7396 -0.2564  1.3779
  455MOL0     H60020  10.720   6.147  10.108 -2.3336 -4.9703 -1.8967
  455MOL0     H60021  10.883   6.210  10.080  0.3982  0.2536 -0.0329
  455MOL0     H60022  10.988   5.823  10.307  1.2661  1.6376  2.1057
  455MOL0     H60023  11.200   5.754  10.313 -2.3935 -0.9301  2.2507
  455MOL0     H60024  11.600   5.660  10.126 -2.4474 -0.6890  1.8755
  455MOL0     H60025  11.825   5.571  10.148  4.8413  1.4858 -0.3185
  455MOL0     H60026  12.079   5.748  10.461 -0.0293 -1.9087 -1.2624
  455MOL0     H60027  12.083   5.883  10.343  0.0899  0.7770  2.7703
  455MOL0     H60028  12.239   5.642  10.318 -1.1744 -0.4214  2.3420
  455MOL0     H60029  12.301   5.806  10.358 -1.3360  0.1021  0.5641
  455MOL0     H60030  12.217   5.892  10.138 -1.6428 -0.3897  0.8600
  455MOL0     H60031  12.166   5.724  10.097  0.2989  1.0449 -1.6115
  455MOL0     H60032  12.452   5.813  10.140  0.0379  0.2072 -0.3789
  455MOL0     H60033  12.401   5.648  10.091  0.9818 -0.3860  0.2676
  455MOL0     H60034  12.409   5.928   9.956  0.2867 -0.2770 -1.6694
  455MOL0     H60035  12.301   5.802   9.892  0.1476 -0.1966  0.5279
  455MOL0     H60036  12.532   5.815   9.779  3.5134  2.9019  3.0229
  455MOL0     H60037  12.476   5.657   9.854 -0.4480 -0.4749  2.7307
  455MOL0     H60038  12.626   5.677  10.028 -0.4421  0.1955 -0.4511
  455MOL0     H60039  12.722   5.690   9.884 -0.3453  0.8642 -0.8011
  455MOL0     H60040  12.781   5.840  10.068  1.2878  0.9648 -0.6647
  455MOL0     H60041  12.636   5.938  10.007  1.6255  3.5517 -3.7525
  455MOL0     H60042  11.893   5.886  10.441 -0.3535  0.7795 -0.4731
  455MOL0     H60043  11.635   5.919  10.462  0.7905 -2.4388  2.5796
  455MOL0     H60044  11.291   6.062   9.997 -0.0426 -1.8633 -2.7960
  455MOL0     H60045  11.071   6.090   9.958 -3.1758  0.6312  0.7703
  455MOL0     H60046   9.217   6.062   9.902  2.8694 -2.1032  1.7636
  455MOL0     H60047   8.991   6.038   9.996  0.4471 -2.7761 -0.5309
  455MOL0     H60048   8.737   6.001  10.338  0.8064  0.2807 -0.0567
  455MOL0     H60049   8.511   5.993  10.447 -0.3661  1.1805  2.1474
  455MOL0     H60050   8.215   6.321  10.370 -1.9384 -0.2788 -0.9685
  455MOL0     H60051   8.276   6.379  10.527  1.4933  0.3013 -0.0957
  455MOL0     H60052   8.023   6.304  10.546 -0.4237 -1.0664  3.3015
  455MOL0     H60053   8.070   6.151  10.491  0.5304  0.8897 -0.8089
  455MOL0     H60054   8.103   6.294  10.757  3.8407  0.1100  1.9663
  455MOL0     H60055   8.236   6.187  10.713 -0.8113 -1.6281  2.4649
  455MOL0     H60056   7.949   6.106  10.698  0.5405 -1.1376 -1.5775
  455MOL0     H60057   8.087   5.994  10.690  1.5302 -1.3957  5.2564
  455MOL0     H60058   8.014   6.042  11.104 -0.1854  1.8262 -0.1754
  455MOL0     H60059   8.452   6.412  10.351 -1.0869 -0.0584 -2.6545
  455MOL0     H60060   8.676   6.427  10.272 -1.1999  0.0601 -4.7610
  456MOL0     O60061   5.559   5.599  10.716  0.2488 -0.8973 -0.2418
  456MOL0     C60062   5.553   5.633  10.599  0.4559  0.9278  0.5514
  456MOL0     O60063   5.497   5.746  10.544  0.0219 -0.2905  0.5144
  456MOL0     C60064   5.443   5.849  10.621 -0.1079  0.2727 -0.6324
  456MOL0     C60065   5.487   5.885  10.752 -0.1528 -1.4889  0.1002
  456MOL0     C60066   5.425   5.979  10.832  0.4422 -0.4948  0.8112
  456MOL0     C60067   5.315   6.044  10.781  0.1711  0.6040  0.4014
  456MOL0     O60068   5.261   6.142  10.863  0.2839 -0.1112  0.2639
  456MOL0     C60069   5.154   6.222  10.812  0.2637 -1.3714  1.0042
  456MOL0     C60070   5.125   6.338  10.907  0.4455  0.0052  0.4498
  456MOL0     C60071   5.253   6.422  10.921  0.0069  0.4164 -0.2967
  456MOL0     C60072   5.230   6.541  11.017  1.0919 -0.5601 -0.2787
  456MOL0     C60073   5.175   6.664  10.944  0.5299 -0.0121  0.5287
  456MOL0     C60074   5.154   6.780  11.048 -0.8532 -1.0891 -0.0589
  456MOL0     C60075   5.116   6.915  10.971  0.0994 -1.1283 -0.8496
  456MOL0     C60076   5.136   7.030  11.065 -0.4419  0.3993  0.2959
  456MOL0     N60077   5.033   7.037  11.164 -0.1623 -1.0387  0.5013
  456MOL0     C60078   5.038   7.115  11.272 -0.2171  0.3498 -0.6339
  456MOL0     C60079   4.910   7.110  11.316 -0.2490 -0.1481 -0.8803
  456MOL0     C60080   4.858   7.188  11.435  0.3253  0.1205 -0.4683
  456MOL0     C60081   4.778   7.109  11.537 -0.8791 -0.5429  0.5348
  456MOL0     C60082   4.628   7.106  11.501 -0.3265  0.6434  0.2787
  456MOL0     C60083   4.545   7.034  11.605 -0.5224 -0.6392 -0.0745
  456MOL0     O60084   4.526   7.133  11.707 -0.4303 -0.2290  0.1778
  456MOL0     C60085   4.398   7.142  11.751 -0.0271  0.3207 -0.1701
  456MOL0     C60086   4.336   7.031  11.820 -0.1054 -0.2228 -0.1548
  456MOL0     C60087   4.210   7.050  11.873 -0.5084 -0.8785  0.1194
  456MOL0     C60088   4.134   7.164  11.846 -0.4305 -0.7648  0.6601
  456MOL0     C60089   3.992   7.181  11.904 -0.8014  0.1753  0.5984
  456MOL0     O60090   3.917   7.279  11.840  0.2760 -0.3694 -0.0778
  456MOL0     C60091   3.813   7.338  11.902  0.3617 -0.1292  0.2815
  456MOL0     C60092   3.808   7.481  11.905  0.0897  0.7642 -0.1576
  456MOL0     C60093   3.705   7.553  11.958  0.6719  0.4290 -0.6312
  456MOL0     C60094   3.601   7.478  12.028 -0.0217  0.2684  0.6084
  456MOL0     O60095   3.483   7.535  12.077 -0.1842  0.1931  0.3911
  456MOL0     C60096   3.493   7.679  12.094  0.6369 -0.5739 -0.3666
  456MOL0     C60097   3.375   7.741  12.178  0.1290 -0.5173  0.5423
  456MOL0     C60098   3.246   7.764  12.098  0.0341  0.0018 -0.5467
  456MOL0     C60099   3.121   7.811  12.183 -0.1305  0.5245 -0.9553
  456MOL0     C60100   2.987   7.838  12.111 -0.3378  0.7624 -0.7928
  456MOL0     C60101   2.955   7.727  12.010  0.6624 -1.1111  0.2894
  456MOL0     C60102   2.831   7.771  11.931 -1.0405 -0.4624 -0.2004
  456MOL0     C60103   2.702   7.753  12.013 -0.4230 -0.0765 -0.6358
  456MOL0    Cl60104   2.661   7.872  12.132 -0.0124 -0.3450  1.0240
  456MOL0     C60105   3.609   7.334  12.025  0.0097 -0.4124 -0.3268
  456MOL0     C60106   3.713   7.263  11.968 -0.7712  0.2285  0.1698
  456MOL0     O60107   3.955   7.113  11.997  0.6973  0.2694  0.1597
  456MOL0     C60108   4.192   7.264  11.769 -0.7984 -0.6822  0.6302
  456MOL0     C60109   4.325   7.256  11.720  0.5853 -0.0598 -0.8222
  456MOL0     N60110   4.833   7.027  11.234 -0.5102 -0.4567  0.3934
  456MOL0     N60111   4.913   6.989  11.144  0.8133  0.7383 -0.2749
  456MOL0     C60112   5.268   6.010  10.655 -0.5749 -0.5816 -0.1389
  456MOL0     C60113   5.330   5.911  10.574 -0.9525 -1.0647  0.5851
  456MOL0     C60114   5.628   5.555  10.493 -0.8364 -1.1039 -0.9063
  456MOL0     C60115   5.572   5.538  10.362  0.2647 -0.3853  0.2223
  456MOL0     C60116   5.626   5.468  10.261 -0.8347 -0.7195  1.1152
  456MOL0     C60117   5.752   5.415  10.278  0.3181  0.1496  0.0937
  456MOL0     O60118   5.830   5.352  10.187 -0.1790  0.1439 -1.1469
  456MOL0     C60119   5.777   5.303  10.060 -0.8202  0.1745  0.1127
  456MOL0     C60120   5.682   5.189  10.078 -0.7442  0.7729  0.0690
  456MOL0     C60121   5.614   5.143   9.944  0.6005 -0.0084  0.6878
  456MOL0     C60122   5.700   5.054   9.853 -0.0392 -0.7290 -0.0313
  456MOL0     C60123   5.729   4.933   9.923  0.2061  0.9230 -0.4188
  456MOL0     C60124   5.753   4.836   9.997 -1.0538 -1.1077 -0.4912
  456MOL0     C60125   5.817   5.431  10.406  0.1398 -0.0648 -0.4773
  456MOL0     C60126   5.755   5.501  10.516  0.3503  0.1780  0.6384
  456MOL0     H60127   5.583   5.846  10.784 -0.3308 -1.7419  0.3362
  456MOL0     H60128   5.459   6.007  10.931  2.3876  0.9117 -0.1646
  456MOL0     H60129   5.070   6.152  10.807  1.1723 -2.4327 -1.6316
  456MOL0     H60130   5.175   6.252  10.709 -1.1526 -2.5871  0.3172
  456MOL0     H60131   5.093   6.304  11.007 -2.0692  0.4706 -0.1340
  456MOL0     H60132   5.051   6.405  10.864 -0.4290  1.0775  3.3543
  456MOL0     H60133   5.281   6.448  10.819 -0.5186  1.5965 -0.1568
  456MOL0     H60134   5.335   6.363  10.964 -1.1363 -2.5136 -1.8500
  456MOL0     H60135   5.159   6.498  11.089  1.6187 -1.2671 -0.1667
  456MOL0     H60136   5.317   6.565  11.078  0.3718 -0.5351  0.7765
  456MOL0     H60137   5.080   6.647  10.892 -0.4517 -0.2835  2.3184
  456MOL0     H60138   5.250   6.698  10.871 -0.4145  0.0677 -0.4335
  456MOL0     H60139   5.254   6.797  11.090 -0.2717 -0.5347 -1.6064
  456MOL0     H60140   5.089   6.743  11.128  1.9180 -0.7401  2.5326
  456MOL0     H60141   5.178   6.932  10.882  4.1758  1.5942  2.1221
  456MOL0     H60142   5.016   6.912  10.926 -0.0454 -0.2583 -0.6051
  456MOL0     H60143   5.143   7.122  11.007  0.4004  0.8160  1.0333
  456MOL0     H60144   5.236   7.017  11.108 -0.9097 -0.7904  1.0785
  456MOL0     H60145   5.120   7.164  11.322 -0.1760 -0.1553 -0.1940
  456MOL0     H60146   4.796   7.275  11.415  1.2059  1.1006  0.8986
  456MOL0     H60147   4.944   7.239  11.479  1.2354 -1.7813  0.0686
  456MOL0     H60148   4.792   7.145  11.639 -0.0084 -0.7515  0.4987
  456MOL0     H60149   4.812   7.005  11.541  0.5358 -0.2224 -1.6006
  456MOL0     H60150   4.599   7.211  11.489  1.1449  1.0111 -0.3656
  456MOL0     H60151   4.623   7.047  11.409  1.5204 -3.5816  2.6010
  456MOL0     H60152   4.595   6.951  11.656  1.4664  1.6088  1.8717
  456MOL0     H60153   4.448   7.016  11.558 -2.1248  0.8946  2.4042
  456MOL0     H60154   4.391   6.938  11.835 -0.6791 -0.8634 -1.8222
  456MOL0     H60155   4.162   6.965  11.921 -2.5351 -0.8645 -1.7303
  456MOL0     H60156   3.891   7.528  11.853  0.5814  1.4660  1.2109
  456MOL0     H60157   3.709   7.661  11.966 -1.2463  0.5331 -0.6698
  456MOL0     H60158   3.496   7.737  12.001  1.9317 -1.6817 -1.0564
  456MOL0     H60159   3.580   7.706  12.155 -0.5569  1.3287  0.5828
  456MOL0     H60160   3.407   7.840  12.212 -0.2851  0.4978 -1.7612
  456MOL0     H60161   3.354   7.666  12.255  1.2835 -0.6493  0.7440
  456MOL0     H60162   3.229   7.670  12.044  1.3321  0.3880 -1.6863
  456MOL0     H60163   3.260   7.838  12.019 -1.1950 -1.9624 -2.7235
  456MOL0     H60164   3.095   7.714  12.227  1.5466 -1.6591 -4.3656
  456MOL0     H60165   3.144   7.883  12.263 -2.4695 -0.7552  0.9831
  456MOL0     H60166   2.990   7.936  12.063 -0.9007  0.3189 -1.7651
  456MOL0     H60167   2.910   7.841  12.190  1.8620  2.9121  1.4603
  456MOL0     H60168   2.955   7.627  12.053 -0.9036 -1.3971 -0.3203
  456MOL0     H60169   3.042   7.722  11.945 -0.8484  0.3271 -1.9628
  456MOL0     H60170   2.850   7.873  11.899  1.6578 -1.6312 -2.7576
  456MOL0     H60171   2.827   7.713  11.838  1.7893  2.3752 -2.2588
  456MOL0     H60172   2.692   7.653  12.058  1.4047 -0.1548 -0.3490
  456MOL0     H60173   2.623   7.767  11.938 -0.4382  1.6080 -0.3328
  456MOL0     H60174   3.521   7.279  12.059 -0.5463  0.7197  0.1086
  456MOL0     H60175   3.709   7.155  11.977  0.1658  0.3519  3.7300
  456MOL0     H60176   4.154   7.365  11.753 -0.0353 -0.3988  0.5459
  456MOL0     H60177   4.385   7.337  11.681 -0.0880  1.1223  0.5192
  456MOL0     H60178   5.178   6.056  10.617 -0.0334  0.6173 -0.0203
  456MOL0     H60179   5.298   5.880  10.475  2.2019  1.3246 -1.4123
  456MOL0     H60180   5.480   5.584  10.327  1.1057  1.6583  0.5546
  456MOL0     H60181   5.579   5.474  10.163  0.2338  0.7323  0.6469
  456MOL0     H60182   5.854   5.289   9.984  0.3088  2.1613  0.8037
  456MOL0     H60183   5.719   5.382  10.010 -1.4095 -0.2816  0.0525
  456MOL0     H60184   5.747   5.112  10.122  1.2997  2.4853  0.1754
  456MOL0     H60185   5.604   5.235  10.140 -0.9673  1.4198 -0.6777
  456MOL0     H60186   5.573   5.231   9.892 -3.3122 -2.2324 -0.3932
  456MOL0     H60187   5.538   5.069   9.972  1.6488 -1.0265  0.9221
  456MOL0     H60188   5.662   5.028   9.753  0.0769  1.2759 -0.6265
  456MOL0     H60189   5.791   5.109   9.826 -0.1533  0.0304  1.1023
  456MOL0     H60190   5.788   4.749  10.048  3.2821  1.8011  2.1911
  456MOL0     H60191   5.917   5.393  10.424  0.3778  0.9072  0.3931
  456MOL0     H60192   5.801   5.516  10.613 -1.9591  0.6063  1.7448
  457MOL0     O60193   9.045   4.014  10.374 -1.0646  0.4476  0.0204
  457MOL0     C60194   8.945   4.031  10.314 -0.1157 -0.2250 -0.0526
  457MOL0     O60195   8.917   4.001  10.180  0.4880  0.3709  0.0434
  457MOL0     C60196   9.000   3.923  10.108  0.3493 -1.3003 -0.1194
  457MOL0     C60197   9.067   3.810  10.164 -0.2684  1.0120 -0.1358
  457MOL0     C60198   9.153   3.737  10.076  0.1540 -0.5218  0.1734
  457MOL0     C60199   9.180   3.776   9.941  0.0156 -0.8875  0.6425
  457MOL0     O60200   9.273   3.705   9.865 -0.3058  0.3827  1.1081
  457MOL0     C60201   9.338   3.779   9.760 -0.8089 -0.0277 -1.2767
  457MOL0     C60202   9.429   3.687   9.679  0.9580 -0.0914 -0.2975
  457MOL0     C60203   9.487   3.578   9.764 -0.1008  0.2059  0.9734
  457MOL0     C60204   9.580   3.491   9.689 -0.1048 -0.4901  0.6249
  457MOL0     C60205   9.590   3.348   9.741  0.2733  0.6139  0.3943
  457MOL0     C60206   9.651   3.345   9.883  1.0285  0.0100 -0.3334
  457MOL0     C60207   9.677   3.205   9.917 -0.3243  0.4157 -0.1588
  457MOL0     C60208   9.562   3.129   9.985  0.1736  0.1247  0.5951
  457MOL0     N60209   9.424   3.148   9.939 -0.8492 -0.0384  0.0966
  457MOL0     C60210   9.345   3.262   9.969 -0.4894  0.5518  0.6148
  457MOL0     C60211   9.221   3.245   9.916  0.1341  0.2800  0.2532
  457MOL0     C60212   9.111   3.341   9.951 -0.4785 -0.0949  0.2161
  457MOL0     C60213   8.977   3.283   9.920 -0.4529  1.2710 -0.0638
  457MOL0     C60214   8.866   3.377   9.974 -0.5628  0.6606  0.2682
  457MOL0     C60215   8.869   3.529   9.933  0.9445  0.3059  0.4600
  457MOL0     O60216   8.740   3.563   9.878 -0.0545  0.2143  0.2353
  457MOL0     C60217   8.638   3.605   9.966  0.8273  0.0254 -0.2642
  457MOL0     C60218   8.658   3.668  10.101  0.7277  0.0212 -0.7273
  457MOL0     C60219   8.548   3.693  10.189 -0.8779 -0.4415 -0.9562
  457MOL0     C60220   8.419   3.677  10.147  0.3385 -0.0601 -0.0416
  457MOL0     C60221   8.299   3.710  10.228 -1.0830 -0.5722  0.5967
  457MOL0     O60222   8.325   3.750  10.352  0.0839 -0.0493 -0.1503
  457MOL0     C60223   8.224   3.822  10.418  0.9964  0.1576 -0.2071
  457MOL0     C60224   8.135   3.915  10.350  0.3652 -0.1693  0.5821
  457MOL0     C60225   8.036   3.981  10.419 -0.5990 -0.7442  1.0066
  457MOL0     C60226   8.028   3.966  10.559  0.1853 -0.0714 -0.5155
  457MOL0     O60227   7.930   4.031  10.634  0.5588  0.0200  0.0640
  457MOL0     C60228   7.854   4.138  10.561 -0.4764 -0.0279  0.3921
  457MOL0     C60229   7.752   4.203  10.656 -0.1539 -0.4288  0.2682
  457MOL0     C60230   7.818   4.245  10.783  0.5709 -0.7223  0.2073
  457MOL0     C60231   7.730   4.331  10.873 -0.1477 -0.2885 -0.0823
  457MOL0     C60232   7.602   4.246  10.939 -0.5362  1.1950  0.2725
  457MOL0     C60233   7.469   4.280  10.870  0.4708 -0.3790 -0.4932
  457MOL0     C60234   7.351   4.187  10.904 -0.5898  0.1790 -0.3514
  457MOL0     C60235   7.223   4.242  10.852  0.4982 -0.1108  0.1754
  457MOL0    Cl60236   7.232   4.256  10.676 -0.6126  0.0955 -0.0760
  457MOL0     C60237   8.105   3.869  10.621  0.3781 -0.4733 -0.1908
  457MOL0     C60238   8.206   3.798  10.554  0.4114 -0.3586  0.0448
  457MOL0     O60239   8.187   3.691  10.178 -0.4742  0.6855 -0.6234
  457MOL0     C60240   8.400   3.640  10.013 -0.4590 -0.1606  0.4210
  457MOL0     C60241   8.504   3.601   9.923 -0.2423  0.9934  0.3529
  457MOL0     N60242   9.225   3.128   9.839  0.0932  0.1497 -0.3569
  457MOL0     N60243   9.343   3.068   9.859  0.4274 -0.4270 -0.1115
  457MOL0     C60244   9.093   3.878   9.890 -0.3579  0.9766  0.4343
  457MOL0     C60245   9.014   3.949   9.974 -0.8216 -1.5139  0.4289
  457MOL0     C60246   8.825   4.083  10.388 -0.0588  1.4609 -0.1549
  457MOL0     C60247   8.840   4.124  10.526  0.1687  0.7275 -0.5028
  457MOL0     C60248   8.729   4.161  10.604  0.2933  0.0141 -0.3731
  457MOL0     C60249   8.598   4.152  10.557  0.7260  0.4185 -0.7652
  457MOL0     O60250   8.498   4.197  10.632  0.0794  0.2898 -0.2830
  457MOL0     C60251   8.370   4.209  10.570  0.5006 -0.1360 -0.3020
  457MOL0     C60252   8.268   4.268  10.673 -0.2297 -0.1525  0.8488
  457MOL0     C60253   8.304   4.408  10.735 -0.3121 -0.1387  0.8385
  457MOL0     C60254   8.293   4.525  10.638 -0.1446  0.8139  0.3727
  457MOL0     C60255   8.358   4.657  10.686 -0.2259  0.2625 -0.1179
  457MOL0     C60256   8.395   4.756  10.732 -1.1638  0.3787  0.7674
  457MOL0     C60257   8.589   4.110  10.422  0.6568 -0.1065 -0.1884
  457MOL0     C60258   8.696   4.086  10.336 -0.0562 -0.1164  0.5524
  457MOL0     H60259   9.047   3.774  10.265 -0.8558 -1.9232 -1.2022
  457MOL0     H60260   9.178   3.635  10.104 -1.4626 -0.7554  0.9153
  457MOL0     H60261   9.404   3.854   9.805  1.1143 -1.2118 -1.9645
  457MOL0     H60262   9.272   3.836   9.694  1.3180  1.2056 -2.4785
  457MOL0     H60263   9.508   3.745   9.630  0.3476 -0.0714 -1.2688
  457MOL0     H60264   9.374   3.644   9.595  2.5861  0.3454 -1.6515
  457MOL0     H60265   9.400   3.516   9.785 -1.5138  0.9745 -2.0868
  457MOL0     H60266   9.529   3.617   9.857  2.6065  1.9889 -0.8560
  457MOL0     H60267   9.548   3.496   9.584  1.1373  0.4442  0.2653
  457MOL0     H60268   9.681   3.534   9.690 -0.1409 -0.3271 -0.8580
  457MOL0     H60269   9.665   3.303   9.675  0.2678 -0.9528  1.4059
  457MOL0     H60270   9.489   3.306   9.737 -0.4831  2.3463  0.5744
  457MOL0     H60271   9.584   3.405   9.946  0.9403 -0.7623  0.3216
  457MOL0     H60272   9.742   3.404   9.877  1.3719 -0.5279 -0.4846
  457MOL0     H60273   9.726   3.145   9.840  2.2723  0.5836  1.2566
  457MOL0     H60274   9.752   3.217   9.996 -0.3747  0.2203 -0.0829
  457MOL0     H60275   9.565   3.147  10.092 -3.7095 -2.4036  1.3322
  457MOL0     H60276   9.577   3.024   9.958 -2.0091  0.2690 -1.5054
  457MOL0     H60277   9.382   3.334  10.041 -1.2180  0.8411  0.7088
  457MOL0     H60278   9.125   3.424   9.880 -0.0738 -1.0447 -0.8434
  457MOL0     H60279   9.109   3.364  10.058 -0.3665 -0.8553  0.3817
  457MOL0     H60280   8.974   3.192   9.980 -1.5285  1.4142  0.1195
  457MOL0     H60281   8.959   3.267   9.813  0.7842 -2.0051  0.0833
  457MOL0     H60282   8.774   3.336   9.932  1.9778 -1.8435 -3.4303
  457MOL0     H60283   8.870   3.374  10.083 -0.8943  3.4897  0.4472
  457MOL0     H60284   8.936   3.566   9.855  1.6432  2.3570  1.9429
  457MOL0     H60285   8.895   3.582  10.025  2.7853  0.6097 -0.1956
  457MOL0     H60286   8.757   3.679  10.144  0.9632  0.1053 -1.2788
  457MOL0     H60287   8.563   3.730  10.290  1.9253 -2.2952 -0.5914
  457MOL0     H60288   8.143   3.929  10.243  0.3184  1.5524  0.7829
  457MOL0     H60289   7.979   4.048  10.355  2.1007 -1.4069 -2.3853
  457MOL0     H60290   7.792   4.094  10.483  0.7901 -2.3275  0.6010
  457MOL0     H60291   7.935   4.199  10.519 -0.8696 -1.4526 -2.6954
  457MOL0     H60292   7.674   4.131  10.680  0.4838 -0.4026  2.6962
  457MOL0     H60293   7.703   4.283  10.598 -2.5474 -0.2081  2.4200
  457MOL0     H60294   7.905   4.303  10.750  0.7526 -0.4874  1.0759
  457MOL0     H60295   7.848   4.161  10.848 -3.5236 -1.7542  1.0434
  457MOL0     H60296   7.790   4.364  10.959  1.6803  0.7336 -1.6765
  457MOL0     H60297   7.697   4.426  10.832  0.1635 -0.3971 -0.5906
  457MOL0     H60298   7.614   4.261  11.047  4.0787 -0.8077  0.3149
  457MOL0     H60299   7.611   4.138  10.920 -1.5666  1.1570 -0.0188
  457MOL0     H60300   7.474   4.287  10.761  1.3826 -0.0386 -0.4329
  457MOL0     H60301   7.458   4.380  10.912  2.5607 -0.8603  1.3702
  457MOL0     H60302   7.373   4.082  10.884  0.5292  0.0125  1.5147
  457MOL0     H60303   7.349   4.191  11.013  1.2508 -0.0567 -0.2815
  457MOL0     H60304   7.203   4.342  10.892  2.4711  0.8108 -0.9632
  457MOL0     H60305   7.140   4.173  10.861  1.4430 -1.5251 -1.3193
  457MOL0     H60306   8.097   3.866  10.730 -1.4693 -0.5199 -0.2972
  457MOL0     H60307   8.278   3.732  10.603  1.5909  0.4333 -0.5604
  457MOL0     H60308   8.296   3.628   9.985 -0.5063  1.2405 -0.0744
  457MOL0     H60309   8.473   3.561   9.828 -0.0114 -1.6002  1.2921
  457MOL0     H60310   9.096   3.916   9.789  0.8247  0.3461  0.2206
  457MOL0     H60311   8.938   4.018   9.938  0.0692 -1.0578 -0.6215
  457MOL0     H60312   8.937   4.121  10.574 -0.1150 -1.2458  0.0460
  457MOL0     H60313   8.748   4.204  10.701 -0.5148  1.9913 -1.0501
  457MOL0     H60314   8.345   4.109  10.533  3.6064 -0.1750 -2.7334
  457MOL0     H60315   8.363   4.263  10.475 -1.7028  1.4674  0.6879
  457MOL0     H60316   8.173   4.271  10.619  0.9714  0.7477 -1.3438
  457MOL0     H60317   8.246   4.203  10.759  0.1912  0.0863  1.1459
  457MOL0     H60318   8.406   4.387  10.769 -0.1615 -0.1675  0.3803
  457MOL0     H60319   8.248   4.432  10.826 -2.5250 -0.2933 -0.4007
  457MOL0     H60320   8.349   4.492  10.550  0.6618 -0.3326  1.2737
  457MOL0     H60321   8.186   4.540  10.625 -0.2948  1.8405  2.3992
  457MOL0     H60322   8.422   4.846  10.783 -2.0179 -0.3193  2.5574
  457MOL0     H60323   8.493   4.106  10.373  0.8382  3.2099 -1.0603
  457MOL0     H60324   8.673   4.071  10.231 -0.5375 -1.0887  0.7871
  458MOL0     O60325   4.633   1.458   3.689  0.2709  0.3197  0.7798
  458MOL0     C60326   4.605   1.530   3.597  0.1451 -1.2947  0.3301
  458MOL0     O60327   4.685   1.627   3.544 -0.2979  0.6198  0.0429
  458MOL0     C60328   4.771   1.685   3.637 -0.9299 -0.4181 -0.3381
  458MOL0     C60329   4.756   1.821   3.656 -0.6944 -0.0998 -0.7946
  458MOL0     C60330   4.843   1.892   3.738 -0.4066 -0.5283 -0.3332
  458MOL0     C60331   4.945   1.824   3.809  0.2039  0.5834  0.7097
  458MOL0     O60332   5.023   1.894   3.905  0.5704 -0.7241  1.0137
  458MOL0     C60333   4.962   1.927   4.033 -0.0506  0.3574  0.6556
  458MOL0     C60334   4.909   1.808   4.109  0.6051 -0.0855 -0.4067
  458MOL0     C60335   4.782   1.740   4.058 -0.2522  0.7225  0.3105
  458MOL0     C60336   4.710   1.655   4.170  0.2475 -0.2976 -0.3798
  458MOL0     C60337   4.606   1.564   4.115  0.3022  0.3294  0.5146
  458MOL0     C60338   4.495   1.621   4.032 -0.8158 -0.5618 -0.1151
  458MOL0     C60339   4.379   1.532   4.028  0.3761 -0.1465  0.0073
  458MOL0     C60340   4.272   1.564   3.921 -0.6149 -0.3428 -0.3520
  458MOL0     N60341   4.155   1.473   3.930 -0.7480 -0.1450  0.5694
  458MOL0     C60342   4.041   1.483   3.995 -0.0466 -0.1939 -0.8364
  458MOL0     C60343   3.959   1.380   3.969 -0.0912  0.6993 -0.8803
  458MOL0     C60344   3.810   1.365   3.996  0.1100  0.3813 -0.4435
  458MOL0     C60345   3.718   1.280   3.898  0.3617 -0.4298  0.0058
  458MOL0     C60346   3.725   1.341   3.760 -0.5254  0.3983  0.3404
  458MOL0     C60347   3.600   1.313   3.676 -0.6933 -0.5560 -0.5063
  458MOL0     O60348   3.484   1.359   3.744 -0.2938  0.1594 -0.0106
  458MOL0     C60349   3.365   1.362   3.671  1.7695  0.2720 -1.1798
  458MOL0     C60350   3.261   1.432   3.743 -0.1301 -1.1642  0.4695
  458MOL0     C60351   3.131   1.459   3.677  0.4613  0.5938  1.1296
  458MOL0     C60352   3.104   1.413   3.547  0.5398 -0.9444 -0.1889
  458MOL0     C60353   2.967   1.452   3.490 -0.5819  0.2641  0.3134
  458MOL0     O60354   2.906   1.541   3.566  0.7914  0.0031 -0.1969
  458MOL0     C60355   2.780   1.587   3.543  0.4514 -0.4211 -0.5411
  458MOL0     C60356   2.769   1.726   3.532 -0.6244  0.5684  0.3095
  458MOL0     C60357   2.641   1.786   3.512 -0.6217 -0.4998  0.5665
  458MOL0     C60358   2.526   1.706   3.506 -0.6109 -0.2063 -0.7762
  458MOL0     O60359   2.407   1.757   3.503 -0.2340 -0.2044  0.0027
  458MOL0     C60360   2.371   1.892   3.465  0.4043 -0.1764 -0.3876
  458MOL0     C60361   2.250   1.886   3.374  0.9432  0.2581  0.3175
  458MOL0     C60362   2.270   1.789   3.258  0.6071  0.2081  0.5649
  458MOL0     C60363   2.159   1.784   3.156  0.3010  0.4352  0.0664
  458MOL0     C60364   2.087   1.922   3.128  0.1149  0.7232 -0.6633
  458MOL0     C60365   1.987   1.911   3.018 -0.1838 -0.1404 -0.3497
  458MOL0     C60366   1.914   2.044   3.000 -0.0032  0.1173  0.2178
  458MOL0     C60367   1.994   2.133   2.900 -1.2443 -0.2699 -0.0631
  458MOL0    Cl60368   1.999   2.057   2.740 -0.0622  0.1032 -0.1395
  458MOL0     C60369   2.543   1.566   3.525 -0.6687 -1.0396 -0.1338
  458MOL0     C60370   2.671   1.505   3.536 -0.3055 -0.0662  0.4491
  458MOL0     O60371   2.940   1.420   3.378  1.0073 -0.1462  0.5092
  458MOL0     C60372   3.202   1.336   3.488 -0.1420 -0.1391  0.4198
  458MOL0     C60373   3.331   1.314   3.553 -0.3516  0.9429 -0.2260
  458MOL0     N60374   4.033   1.297   3.884 -0.0748 -0.2894  1.0350
  458MOL0     N60375   4.145   1.361   3.849 -0.4844  0.3775 -0.7470
  458MOL0     C60376   4.979   1.697   3.766 -0.3231  0.1236 -0.1164
  458MOL0     C60377   4.886   1.622   3.686 -0.4695 -1.0566 -0.2081
  458MOL0     C60378   4.473   1.515   3.529 -0.0136 -0.0576 -0.3018
  458MOL0     C60379   4.446   1.578   3.407 -0.5728 -0.3438 -0.1565
  458MOL0     C60380   4.326   1.553   3.338 -0.1231  0.1240  0.0117
  458MOL0     C60381   4.226   1.472   3.400  0.1376  0.5079  0.7256
  458MOL0     O60382   4.114   1.428   3.324  0.8367 -0.5656 -0.2294
  458MOL0     C60383   4.048   1.534   3.257 -0.0565 -0.7252  0.0435
  458MOL0     C60384   3.933   1.455   3.195 -0.3120 -0.1067 -0.6872
  458MOL0     C60385   3.842   1.543   3.116  0.1742 -0.1903  1.0686
  458MOL0     C60386   3.862   1.532   2.957 -0.5346 -0.5308 -0.4825
  458MOL0     C60387   3.973   1.618   2.923  0.0724 -0.5501 -0.3009
  458MOL0     C60388   4.081   1.683   2.916  0.1892  0.4531  0.4257
  458MOL0     C60389   4.253   1.415   3.520 -0.1199  1.0087 -0.3197
  458MOL0     C60390   4.374   1.433   3.588 -0.0128  0.8963 -0.0973
  458MOL0     H60391   4.681   1.876   3.601  1.2213  0.8903 -2.5393
  458MOL0     H60392   4.824   1.996   3.766 -0.9406 -0.1256 -2.0938
  458MOL0     H60393   4.891   2.010   4.029  0.3703  0.7323 -3.1822
  458MOL0     H60394   5.057   1.959   4.078  0.1790 -2.0610  2.0925
  458MOL0     H60395   4.891   1.856   4.206  1.8125 -2.6369  1.1647
  458MOL0     H60396   4.995   1.741   4.118  1.1132  0.1312 -2.8160
  458MOL0     H60397   4.805   1.671   3.976 -1.9448  0.8278 -0.2901
  458MOL0     H60398   4.715   1.822   4.030 -1.1963  1.3082  3.8281
  458MOL0     H60399   4.783   1.589   4.218  0.9496  0.7324 -0.0061
  458MOL0     H60400   4.666   1.728   4.239 -1.7454  0.2133 -2.0877
  458MOL0     H60401   4.561   1.500   4.191  1.0164 -0.2239  0.4803
  458MOL0     H60402   4.666   1.496   4.054 -0.9940  1.1986 -1.8350
  458MOL0     H60403   4.533   1.645   3.932 -1.8333  1.0851 -0.1321
  458MOL0     H60404   4.456   1.714   4.071 -0.6450 -0.4905 -0.1121
  458MOL0     H60405   4.421   1.433   4.005  2.0193  0.1831  1.3532
  458MOL0     H60406   4.334   1.528   4.128 -0.7840 -0.5254 -0.5152
  458MOL0     H60407   4.327   1.552   3.827 -1.6540  1.9905 -1.3406
  458MOL0     H60408   4.248   1.668   3.942  1.6733 -0.0483  1.0651
  458MOL0     H60409   4.031   1.569   4.059  2.2666 -1.7448  1.8188
  458MOL0     H60410   3.763   1.464   3.996 -0.7633 -0.0165 -1.7090
  458MOL0     H60411   3.799   1.332   4.100  1.8889  1.7078  0.2242
  458MOL0     H60412   3.617   1.293   3.938 -0.3661 -2.1247 -1.1437
  458MOL0     H60413   3.750   1.175   3.904 -0.8730 -0.7745  0.9946
  458MOL0     H60414   3.741   1.448   3.775  2.5232  0.1846 -0.5699
  458MOL0     H60415   3.814   1.299   3.712 -0.9730  1.3363 -1.3913
  458MOL0     H60416   3.600   1.206   3.650 -0.1918 -1.0669  1.4156
  458MOL0     H60417   3.611   1.373   3.585 -0.3833 -0.1938 -0.2320
  458MOL0     H60418   3.280   1.475   3.841  1.9262  0.7596 -0.6779
  458MOL0     H60419   3.061   1.525   3.728 -0.5783 -0.2409  0.8068
  458MOL0     H60420   2.855   1.791   3.534  2.1971 -2.8150 -0.8414
  458MOL0     H60421   2.644   1.892   3.489  0.9127 -0.2647  1.6246
  458MOL0     H60422   2.450   1.943   3.407  2.0888 -3.1163 -0.9078
  458MOL0     H60423   2.357   1.948   3.557 -1.9902 -0.5549 -0.4762
  458MOL0     H60424   2.209   1.976   3.328 -0.7577 -1.6350 -2.1432
  458MOL0     H60425   2.171   1.855   3.444  1.8747  1.4415  1.9762
  458MOL0     H60426   2.266   1.689   3.303 -2.2249  0.7857  1.7656
  458MOL0     H60427   2.366   1.803   3.208 -1.1904  2.1351 -2.6664
  458MOL0     H60428   2.210   1.762   3.062  1.1895  0.7779  0.4544
  458MOL0     H60429   2.094   1.701   3.185  1.5538 -0.3469  0.7358
  458MOL0     H60430   2.169   1.992   3.116  2.8066 -1.7892  1.3507
  458MOL0     H60431   2.028   1.953   3.215 -0.6876  2.0830 -1.6632
  458MOL0     H60432   1.926   1.830   3.059  1.0043  0.6222  3.3166
  458MOL0     H60433   2.028   1.876   2.923  0.5908  1.5769 -0.6784
  458MOL0     H60434   1.812   2.028   2.965 -0.4457 -0.6310  1.7466
  458MOL0     H60435   1.913   2.100   3.094 -0.2368 -0.6865  0.7054
  458MOL0     H60436   2.101   2.140   2.920 -0.3299 -0.6857 -3.9803
  458MOL0     H60437   1.951   2.234   2.904  3.4004  2.0219 -1.1411
  458MOL0     H60438   2.449   1.517   3.503 -1.5578  0.6426 -0.2477
  458MOL0     H60439   2.699   1.401   3.526  2.2370  0.2905  2.7008
  458MOL0     H60440   3.186   1.283   3.394  2.3472 -0.3013 -0.0003
  458MOL0     H60441   3.403   1.259   3.493 -2.5644 -0.1804 -2.0320
  458MOL0     H60442   5.058   1.636   3.809  0.1310 -1.0796 -2.5076
  458MOL0     H60443   4.899   1.516   3.667 -1.0828 -0.9645 -1.2265
  458MOL0     H60444   4.515   1.648   3.361 -0.4793  0.0596  0.5793
  458MOL0     H60445   4.323   1.589   3.236 -1.0456 -1.7088 -0.6395
  458MOL0     H60446   4.107   1.568   3.171  2.1696 -3.3491  0.3919
  458MOL0     H60447   4.037   1.609   3.336  2.0058  0.1531 -0.4407
  458MOL0     H60448   3.973   1.382   3.123  2.9523  1.0281 -0.1983
  458MOL0     H60449   3.879   1.413   3.280  0.2216  1.8282  0.6697
  458MOL0     H60450   3.859   1.644   3.154 -1.4781 -0.5293  2.9227
  458MOL0     H60451   3.738   1.513   3.134 -1.0598  0.4951 -3.7580
  458MOL0     H60452   3.867   1.428   2.926 -0.9722 -0.2488 -1.5372
  458MOL0     H60453   3.768   1.574   2.920 -0.0637 -0.1989 -1.3196
  458MOL0     H60454   4.180   1.722   2.923  0.2735  0.0776  1.3877
  458MOL0     H60455   4.179   1.357   3.574  0.5510 -0.5598 -1.0205
  458MOL0     H60456   4.383   1.373   3.678 -1.7685 -0.5923 -0.8465
  459MOL0     O60457   6.940   2.570   5.781  0.1715  0.2910  0.1383
  459MOL0     C60458   6.822   2.522   5.784 -1.0385  0.0113 -0.3743
  459MOL0     O60459   6.764   2.449   5.686 -0.5042  0.4792  0.0560
  459MOL0     C60460   6.857   2.400   5.584 -0.7631  0.2848  0.6069
  459MOL0     C60461   6.953   2.297   5.599  0.3367 -0.5584  0.5624
  459MOL0     C60462   7.040   2.259   5.490 -0.8604  0.9435  0.7356
  459MOL0     C60463   7.024   2.322   5.367  0.8300 -0.8567  0.3232
  459MOL0     O60464   7.094   2.296   5.248 -0.0329 -0.0839  0.2075
  459MOL0     C60465   7.187   2.182   5.246 -0.2078 -0.9378 -0.3951
  459MOL0     C60466   7.257   2.178   5.114 -0.8774  0.7912  1.1227
  459MOL0     C60467   7.166   2.140   5.002  0.4775 -0.0065 -0.2177
  459MOL0     C60468   7.116   1.997   5.001 -0.4333 -0.0999 -0.0338
  459MOL0     C60469   7.025   1.988   4.872 -0.2338  0.3673 -0.4781
  459MOL0     C60470   6.975   1.843   4.848  0.4543 -0.0186  0.3765
  459MOL0     C60471   6.942   1.826   4.700  0.7312  0.7669  0.7418
  459MOL0     C60472   6.964   1.682   4.656 -0.1327 -0.0912  0.1404
  459MOL0     N60473   6.941   1.661   4.517 -0.4821  0.4987 -0.2296
  459MOL0     C60474   6.838   1.724   4.448  0.7506  0.4068  1.1926
  459MOL0     C60475   6.859   1.670   4.323 -0.7622 -0.3281  1.0930
  459MOL0     C60476   6.775   1.707   4.209  0.4303 -0.0236 -0.0958
  459MOL0     C60477   6.690   1.580   4.183  0.0999 -0.4976 -0.2229
  459MOL0     C60478   6.605   1.580   4.057  0.3214 -0.5449  0.8445
  459MOL0     C60479   6.572   1.438   4.009 -0.3803 -0.3470 -0.7596
  459MOL0     O60480   6.491   1.383   4.117  0.2221  0.2218  0.4877
  459MOL0     C60481   6.351   1.382   4.112  0.4846 -0.0794 -0.0500
  459MOL0     C60482   6.292   1.297   4.204  0.6824  0.0778 -0.9967
  459MOL0     C60483   6.156   1.270   4.200 -0.3122  0.7900 -0.6123
  459MOL0     C60484   6.074   1.321   4.098 -2.0696 -0.0447  0.9559
  459MOL0     C60485   5.936   1.289   4.081 -0.5488  0.5875 -0.2259
  459MOL0     O60486   5.873   1.339   3.969  0.0555 -0.1742 -0.2865
  459MOL0     C60487   5.735   1.318   3.973  0.6405  0.1212 -0.3486
  459MOL0     C60488   5.652   1.390   4.056  0.2383 -1.0576  0.1474
  459MOL0     C60489   5.514   1.393   4.031  0.1558  0.0971 -0.5694
  459MOL0     C60490   5.452   1.312   3.937  0.1302 -0.9129  0.3766
  459MOL0     O60491   5.313   1.313   3.934  0.1573 -0.0076  0.7966
  459MOL0     C60492   5.249   1.238   3.834 -0.1971 -0.4915 -0.2504
  459MOL0     C60493   5.197   1.112   3.881 -0.4439  1.2267 -0.5429
  459MOL0     C60494   5.059   1.140   3.961  0.1859 -0.4201  0.4636
  459MOL0     C60495   5.081   1.190   4.114 -0.0072 -0.4849  0.2976
  459MOL0     C60496   4.947   1.166   4.197  0.3560 -0.4943  0.2996
  459MOL0     C60497   4.958   1.213   4.335 -0.6717 -0.0209 -0.8845
  459MOL0     C60498   4.832   1.206   4.412 -0.6005  0.3823 -0.4453
  459MOL0     C60499   4.833   1.250   4.558  0.2638  0.0110 -0.7713
  459MOL0    Cl60500   4.967   1.172   4.651  0.2013 -0.1239  0.4955
  459MOL0     C60501   5.535   1.204   3.885  0.3232 -0.0398 -0.9801
  459MOL0     C60502   5.675   1.217   3.896  0.3964  0.4265  0.1927
  459MOL0     O60503   5.895   1.212   4.169  0.2136 -0.9770  0.5380
  459MOL0     C60504   6.142   1.402   4.004  0.1052  0.2075  0.4719
  459MOL0     C60505   6.278   1.435   4.012  0.5423 -0.9076 -0.5227
  459MOL0     N60506   6.967   1.583   4.312 -0.0258  0.3239 -0.0339
  459MOL0     N60507   7.006   1.564   4.437 -0.0778 -0.5862  0.1212
  459MOL0     C60508   6.938   2.425   5.358  0.3329 -0.1836  0.3328
  459MOL0     C60509   6.852   2.467   5.461  0.3196  0.4171  0.3061
  459MOL0     C60510   6.733   2.577   5.895 -0.8550  0.1457  0.0379
  459MOL0     C60511   6.596   2.588   5.873  0.3721  0.0967 -0.3482
  459MOL0     C60512   6.510   2.644   5.973 -0.2635  0.3563 -0.4404
  459MOL0     C60513   6.558   2.682   6.100 -0.4726 -0.4666  0.5235
  459MOL0     O60514   6.465   2.737   6.189  0.6975 -0.0421 -0.1383
  459MOL0     C60515   6.464   2.671   6.313  0.5835 -0.3681 -0.9413
  459MOL0     C60516   6.323   2.710   6.379  0.3327 -0.9738 -1.1626
  459MOL0     C60517   6.209   2.626   6.346 -0.1873  0.5221  0.9214
  459MOL0     C60518   6.082   2.697   6.355 -0.1030 -0.2314  0.3029
  459MOL0     C60519   5.978   2.608   6.316  0.6917 -0.6223  0.5900
  459MOL0     C60520   5.889   2.535   6.273 -0.1688 -0.2344  0.1069
  459MOL0     C60521   6.694   2.678   6.114 -0.7338 -0.2766  0.3191
  459MOL0     C60522   6.784   2.630   6.011 -0.0168 -0.5175 -0.1393
  459MOL0     H60523   6.944   2.236   5.689 -1.7458  1.8308  2.1353
  459MOL0     H60524   7.108   2.175   5.497  0.6176  1.9628 -0.4651
  459MOL0     H60525   7.126   2.095   5.271 -1.3443 -0.2263 -0.6129
  459MOL0     H60526   7.265   2.192   5.321  0.1593 -0.5579 -0.8197
  459MOL0     H60527   7.343   2.111   5.118 -0.7233  0.7435 -1.3614
  459MOL0     H60528   7.289   2.280   5.091 -0.3899  0.0998 -1.6136
  459MOL0     H60529   7.216   2.157   4.906  1.5201  1.6524  0.5778
  459MOL0     H60530   7.078   2.203   5.009 -1.2867 -2.1880 -1.3499
  459MOL0     H60531   7.203   1.930   4.994 -0.3319  0.0259  0.0045
  459MOL0     H60532   7.067   1.973   5.096  1.9960 -1.8842  0.8921
  459MOL0     H60533   7.092   2.018   4.790  0.6252 -1.0594 -0.3279
  459MOL0     H60534   6.940   2.057   4.873 -0.6004 -0.0005 -2.1908
  459MOL0     H60535   6.895   1.822   4.919  1.3760 -0.5368  1.2896
  459MOL0     H60536   7.049   1.764   4.865 -2.6621 -3.4937 -0.7214
  459MOL0     H60537   6.835   1.846   4.686  0.3481 -1.6916 -0.3653
  459MOL0     H60538   6.981   1.903   4.633  0.4179 -1.1630 -1.8172
  459MOL0     H60539   6.901   1.608   4.706  0.7365 -1.4615 -0.7398
  459MOL0     H60540   7.069   1.664   4.681  1.2962 -0.4860 -4.9556
  459MOL0     H60541   6.758   1.793   4.472  0.9480  2.5389 -3.2509
  459MOL0     H60542   6.837   1.725   4.121  1.0203 -1.1560  0.0605
  459MOL0     H60543   6.728   1.803   4.231  2.4101  0.2980  3.7093
  459MOL0     H60544   6.629   1.567   4.273 -0.3800  1.2701 -0.2506
  459MOL0     H60545   6.765   1.501   4.170  1.1071  0.2503  0.8787
  459MOL0     H60546   6.515   1.637   4.079 -0.9975 -1.1891 -2.3729
  459MOL0     H60547   6.650   1.638   3.975 -0.5605 -0.8683  0.1143
  459MOL0     H60548   6.668   1.391   3.989  0.3501  0.5421  0.5265
  459MOL0     H60549   6.520   1.442   3.912  1.2924  3.3535 -1.6912
  459MOL0     H60550   6.357   1.252   4.278 -0.4961 -0.0502 -0.0286
  459MOL0     H60551   6.113   1.198   4.268 -0.9409 -1.7053 -3.4311
  459MOL0     H60552   5.682   1.456   4.137 -0.1417  1.6586 -1.8216
  459MOL0     H60553   5.457   1.449   4.104  0.9464 -1.9634  1.7623
  459MOL0     H60554   5.314   1.211   3.750  0.0941  1.8578 -0.8368
  459MOL0     H60555   5.175   1.302   3.786 -0.5227 -2.4698 -2.5995
  459MOL0     H60556   5.268   1.058   3.945 -0.3841  1.9553  0.0160
  459MOL0     H60557   5.168   1.051   3.795  1.5033  1.0843 -1.1333
  459MOL0     H60558   4.998   1.050   3.966  0.7499 -0.7554  1.6808
  459MOL0     H60559   5.012   1.222   3.906  2.0061  1.3009  1.3245
  459MOL0     H60560   5.164   1.151   4.173 -0.5341  1.6180  2.6011
  459MOL0     H60561   5.110   1.295   4.104  0.6658 -0.6420  0.5640
  459MOL0     H60562   4.918   1.061   4.199  0.5734 -0.5993  3.5959
  459MOL0     H60563   4.868   1.219   4.143  0.8847  1.3521  1.2338
  459MOL0     H60564   4.987   1.318   4.329  0.5936 -0.3541 -1.0977
  459MOL0     H60565   5.040   1.160   4.385 -0.6550  1.5182  0.8220
  459MOL0     H60566   4.754   1.267   4.366 -0.2794  2.5262  1.6504
  459MOL0     H60567   4.791   1.105   4.401  1.3965 -0.6854  1.2575
  459MOL0     H60568   4.742   1.207   4.601  2.9315 -5.4220  0.3599
  459MOL0     H60569   4.829   1.359   4.566 -3.5784 -0.0919  0.9134
  459MOL0     H60570   5.496   1.120   3.829 -0.8221 -2.0865  2.5929
  459MOL0     H60571   5.731   1.140   3.844  0.9277  0.2455  1.0198
  459MOL0     H60572   6.086   1.448   3.924  2.4502  2.1310 -0.1844
  459MOL0     H60573   6.313   1.512   3.943 -0.1946  1.0248  1.1769
  459MOL0     H60574   6.912   2.475   5.265 -2.1555  0.9007  1.5115
  459MOL0     H60575   6.787   2.554   5.464 -0.9712 -0.5036  3.0804
  459MOL0     H60576   6.550   2.557   5.780  2.6246  0.7650 -1.7915
  459MOL0     H60577   6.408   2.669   5.945  0.3978  2.0882 -1.5073
  459MOL0     H60578   6.544   2.702   6.381 -0.6325  2.6368 -0.7290
  459MOL0     H60579   6.470   2.564   6.292 -1.1175 -1.0164  1.4361
  459MOL0     H60580   6.342   2.712   6.486  1.2675  2.7406 -1.2525
  459MOL0     H60581   6.306   2.812   6.345 -1.7386 -1.4574 -1.7169
  459MOL0     H60582   6.200   2.542   6.415 -2.2049  0.4464  0.6331
  459MOL0     H60583   6.222   2.599   6.240 -2.7779 -0.2740  0.7322
  459MOL0     H60584   6.061   2.718   6.460  2.4728  2.3075  0.4509
  459MOL0     H60585   6.092   2.782   6.286  0.3041 -1.5057 -1.2777
  459MOL0     H60586   5.820   2.460   6.238  0.0410  0.4976 -1.9985
  459MOL0     H60587   6.733   2.724   6.204 -1.7911  0.8282  0.2443
  459MOL0     H60588   6.891   2.623   6.025 -0.1607  0.2794  1.6171
  460MOL0     O60589   3.114  10.540   5.247 -0.1161 -0.1910  0.5958
  460MOL0     C60590   3.102  10.627   5.336  0.5993 -0.0755 -0.1183
  460MOL0     O60591   3.202  10.702   5.383 -0.2777 -0.2305  0.0312
  460MOL0     C60592   3.310  10.705   5.305 -0.4994 -0.0903  0.0308
  460MOL0     C60593   3.393  10.601   5.297  0.3894 -0.6717 -0.6838
  460MOL0     C60594   3.510  10.620   5.224 -0.7341 -0.9285  0.4331
  460MOL0     C60595   3.532  10.740   5.146 -0.1385 -0.0943 -0.1067
  460MOL0     O60596   3.638  10.751   5.059 -0.2037 -0.1893  0.2151
  460MOL0     C60597   3.672  10.866   4.993  0.0171  0.3786 -0.2154
  460MOL0     C60598   3.786  10.835   4.900 -0.2060  0.7691  0.1100
  460MOL0     C60599   3.807  10.939   4.790  0.0758  0.3199  0.5187
  460MOL0     C60600   3.819  11.084   4.827  0.7740  0.8226  0.2194
  460MOL0     C60601   3.824  11.168   4.700  1.2255  0.5077 -0.3371
  460MOL0     C60602   3.959  11.167   4.626  0.0216 -0.0902  0.4430
  460MOL0     C60603   3.965  11.278   4.517  0.0507  0.4695 -0.2600
  460MOL0     C60604   4.091  11.367   4.533 -0.2548  0.0976  0.1279
  460MOL0     N60605   4.080  11.449   4.647 -0.2741  0.0220  0.2613
  460MOL0     C60606   4.058  11.590   4.642  0.4323  0.2797 -0.5949
  460MOL0     C60607   4.046  11.621   4.770  0.9246 -0.3061 -0.7846
  460MOL0     C60608   3.993  11.760   4.830 -0.2123  0.6025 -1.0886
  460MOL0     C60609   3.843  11.775   4.824  0.7036 -0.2090 -0.4319
  460MOL0     C60610   3.802  11.925   4.851  0.4127  0.2578 -1.4637
  460MOL0     C60611   3.803  11.943   5.006  0.2768 -0.1202 -0.3088
  460MOL0     O60612   3.711  11.843   5.067  0.3756 -0.2036 -0.1138
  460MOL0     C60613   3.576  11.858   5.052  0.1739  0.0010 -0.5868
  460MOL0     C60614   3.493  11.760   5.114  0.4680  0.2758  0.2307
  460MOL0     C60615   3.353  11.764   5.086 -0.1280  0.5560 -0.8459
  460MOL0     C60616   3.292  11.873   5.019 -0.3937  0.7153 -0.3297
  460MOL0     C60617   3.154  11.888   4.987  0.5280 -0.2490 -0.4165
  460MOL0     O60618   3.068  11.818   5.060  0.6534 -0.0988  0.2212
  460MOL0     C60619   2.925  11.811   5.056  0.6085 -0.0538  0.1033
  460MOL0     C60620   2.860  11.735   5.156 -0.2208  1.1022 -0.5817
  460MOL0     C60621   2.719  11.720   5.152  0.1448 -0.1963 -0.5104
  460MOL0     C60622   2.642  11.781   5.054  0.7173  0.5144 -0.6313
  460MOL0     O60623   2.507  11.749   5.051 -0.7287  0.6034  0.0321
  460MOL0     C60624   2.420  11.849   5.011  0.9864  0.2672 -0.1721
  460MOL0     C60625   2.402  11.957   5.118 -0.4393  0.6660 -0.3281
  460MOL0     C60626   2.388  11.915   5.263  0.3545  0.3164 -0.2958
  460MOL0     C60627   2.274  11.811   5.296  0.2660 -0.0227  0.1774
  460MOL0     C60628   2.282  11.764   5.447  0.4739 -0.5381  0.1714
  460MOL0     C60629   2.351  11.623   5.449 -0.8996  0.1350  0.1189
  460MOL0     C60630   2.374  11.580   5.595  0.4506  0.0043 -0.0460
  460MOL0     C60631   2.452  11.447   5.618  0.2681  0.4356 -0.9616
  460MOL0    Cl60632   2.578  11.418   5.489  0.5040 -0.1841 -0.1332
  460MOL0     C60633   2.710  11.855   4.953  0.1336  0.0427  0.4709
  460MOL0     C60634   2.854  11.867   4.952  0.7304 -0.0943  0.3232
  460MOL0     O60635   3.123  11.964   4.896 -0.3258 -0.4724 -0.8651
  460MOL0     C60636   3.377  11.969   4.964 -0.3626 -0.6889 -0.0398
  460MOL0     C60637   3.516  11.965   4.987 -0.5835  0.0212 -0.0848
  460MOL0     N60638   4.084  11.517   4.852 -0.2697  0.0899 -0.5846
  460MOL0     N60639   4.088  11.409   4.775 -0.0429 -0.6216 -0.6433
  460MOL0     C60640   3.452  10.850   5.169  0.2663 -0.5972 -0.0605
  460MOL0     C60641   3.338  10.831   5.251  0.1637 -0.3022  0.7426
  460MOL0     C60642   2.970  10.629   5.399  0.7087 -0.4888  0.4615
  460MOL0     C60643   2.898  10.505   5.413  0.4889 -0.6000 -0.6465
  460MOL0     C60644   2.777  10.508   5.486 -0.6604  0.2312 -0.0294
  460MOL0     C60645   2.718  10.628   5.532  0.5250  0.4111 -0.2796
  460MOL0     O60646   2.594  10.609   5.583  0.4631 -0.7122 -0.6621
  460MOL0     C60647   2.488  10.710   5.605 -0.4419  0.5173 -0.0278
  460MOL0     C60648   2.379  10.611   5.651  0.5157 -0.5685  0.2801
  460MOL0     C60649   2.274  10.692   5.715  0.5344  0.1801  0.0225
  460MOL0     C60650   2.141  10.628   5.685  0.3087  0.5962  0.0737
  460MOL0     C60651   2.027  10.698   5.745 -0.2258 -0.6185 -0.5958
  460MOL0     C60652   1.937  10.758   5.795  0.5733  0.5225 -0.4635
  460MOL0     C60653   2.791  10.748   5.514 -0.4718 -0.1580 -0.3829
  460MOL0     C60654   2.911  10.754   5.448 -0.5591 -0.1758 -0.9823
  460MOL0     H60655   3.363  10.500   5.322  0.5689 -0.8086 -1.0204
  460MOL0     H60656   3.572  10.535   5.198  0.0785 -0.0379 -0.6665
  460MOL0     H60657   3.695  10.947   5.063  0.0203 -1.0235  1.4605
  460MOL0     H60658   3.587  10.900   4.932  0.1074  1.5669  0.2947
  460MOL0     H60659   3.782  10.746   4.837  2.6960  1.0309 -0.5918
  460MOL0     H60660   3.879  10.844   4.956  0.2283 -0.6001 -0.3484
  460MOL0     H60661   3.727  10.928   4.716 -0.8260 -2.4999  1.8043
  460MOL0     H60662   3.898  10.905   4.739 -1.6211 -0.5175 -2.1875
  460MOL0     H60663   3.732  11.111   4.888  2.8292  1.8113  2.8731
  460MOL0     H60664   3.903  11.103   4.894  1.6631 -2.3112  0.1613
  460MOL0     H60665   3.805  11.270   4.734  0.0434  0.6271 -1.2691
  460MOL0     H60666   3.737  11.142   4.639 -1.0260  2.8893  1.6512
  460MOL0     H60667   3.974  11.070   4.578  1.4054 -0.7070  2.0024
  460MOL0     H60668   4.039  11.179   4.700  0.8001  0.6955 -0.4972
  460MOL0     H60669   3.977  11.217   4.427 -0.7418 -0.5623  0.3149
  460MOL0     H60670   3.869  11.329   4.504  0.0226  0.6433  0.6030
  460MOL0     H60671   4.101  11.428   4.443 -0.9350  0.9614  0.6303
  460MOL0     H60672   4.181  11.305   4.547  1.1266  1.6891 -1.2282
  460MOL0     H60673   4.045  11.642   4.548  0.8363 -2.6255 -2.3894
  460MOL0     H60674   4.037  11.845   4.777 -0.5431  2.6244  1.6411
  460MOL0     H60675   4.029  11.770   4.933  0.4893 -1.2825 -1.1103
  460MOL0     H60676   3.796  11.702   4.892  1.5621 -1.2784 -0.9535
  460MOL0     H60677   3.824  11.759   4.718  1.1808 -1.7802 -0.3125
  460MOL0     H60678   3.877  11.997   4.816  2.3056 -2.3856 -3.2518
  460MOL0     H60679   3.710  11.945   4.797  0.1271  0.1880 -1.0109
  460MOL0     H60680   3.780  12.047   5.035  1.9770  0.2305 -0.1278
  460MOL0     H60681   3.899  11.913   5.049 -1.0082 -2.4985  1.0952
  460MOL0     H60682   3.546  11.680   5.164  4.3176  3.2596  1.3924
  460MOL0     H60683   3.297  11.678   5.121  0.1768  0.6796 -0.0392
  460MOL0     H60684   2.922  11.673   5.219 -0.3411  0.6001 -0.9508
  460MOL0     H60685   2.668  11.652   5.221 -1.0307  0.4513 -0.7047
  460MOL0     H60686   2.322  11.802   4.997  1.2103  0.3050 -2.1295
  460MOL0     H60687   2.444  11.892   4.914 -1.4650  2.5654  0.1281
  460MOL0     H60688   2.311  12.011   5.089 -1.1332  0.5942  1.5923
  460MOL0     H60689   2.481  12.032   5.110 -1.2005  1.4555 -0.5825
  460MOL0     H60690   2.348  11.998   5.322 -1.5327 -0.1330 -0.8443
  460MOL0     H60691   2.485  11.882   5.299  0.4030 -0.9062 -1.4670
  460MOL0     H60692   2.174  11.851   5.277  0.8216  0.7169 -1.3466
  460MOL0     H60693   2.288  11.732   5.222  3.4658  0.8655 -0.3532
  460MOL0     H60694   2.182  11.747   5.487  0.0623  0.0027 -0.5923
  460MOL0     H60695   2.340  11.838   5.503 -2.2704  0.8715  1.3153
  460MOL0     H60696   2.447  11.641   5.400 -0.7890  3.5145  1.3204
  460MOL0     H60697   2.292  11.549   5.394  0.3542 -0.5431 -0.3388
  460MOL0     H60698   2.437  11.650   5.650  0.2430 -0.3835  0.6908
  460MOL0     H60699   2.276  11.568   5.642  0.3679 -3.0058 -0.7766
  460MOL0     H60700   2.385  11.361   5.612 -1.5369  1.8088 -1.7766
  460MOL0     H60701   2.496  11.449   5.717 -2.0484 -0.3919  0.1564
  460MOL0     H60702   2.653  11.898   4.871  0.0583 -0.6025  0.1717
  460MOL0     H60703   2.903  11.911   4.865  2.4097 -0.6547  0.9648
  460MOL0     H60704   3.342  12.054   4.907 -0.2741 -0.4397  0.2790
  460MOL0     H60705   3.573  12.053   4.959  0.6039 -0.4759  0.6586
  460MOL0     H60706   3.478  10.939   5.112  1.7496 -1.0038 -0.0689
  460MOL0     H60707   3.261  10.902   5.281 -2.0146 -2.7667  1.4696
  460MOL0     H60708   2.922  10.406   5.375  0.8015 -0.0901 -1.8296
  460MOL0     H60709   2.720  10.418   5.504 -0.9460  0.7831  1.9729
  460MOL0     H60710   2.467  10.772   5.518  0.8120  2.1808  0.7967
  460MOL0     H60711   2.510  10.773   5.691 -1.8143  2.0044 -0.7257
  460MOL0     H60712   2.344  10.559   5.562  0.4558  0.5512 -0.3659
  460MOL0     H60713   2.430  10.543   5.720  3.9249  1.8947  0.4664
  460MOL0     H60714   2.274  10.801   5.698  0.3362  0.1429 -0.2393
  460MOL0     H60715   2.283  10.685   5.823 -0.9413 -0.8251  0.1103
  460MOL0     H60716   2.131  10.643   5.577  1.4961  1.5381  0.0722
  460MOL0     H60717   2.140  10.522   5.712 -0.3729  0.5164 -0.2388
  460MOL0     H60718   1.850  10.808   5.834  0.6560 -1.0690  1.9846
  460MOL0     H60719   2.760  10.850   5.535  0.8539  0.7196 -2.3717
  460MOL0     H60720   2.971  10.843   5.430 -1.2141 -0.1443 -3.2454
  461MOL0     O60721   2.550   5.631   4.201  0.8461 -0.2915  0.5907
  461MOL0     C60722   2.601   5.742   4.188 -0.3375 -0.3033 -0.5659
  461MOL0     O60723   2.545   5.839   4.114 -0.0614  0.7206 -0.1791
  461MOL0     C60724   2.412   5.812   4.078 -0.2764  0.3672 -0.4894
  461MOL0     C60725   2.372   5.841   3.954 -0.7653 -0.0744  0.6209
  461MOL0     C60726   2.243   5.837   3.908 -0.0246  0.5587 -0.2573
  461MOL0     C60727   2.144   5.798   4.005  1.2982 -0.2324 -0.5844
  461MOL0     O60728   2.015   5.773   3.970  0.2620 -0.3612 -0.0162
  461MOL0     C60729   1.951   5.872   3.886  0.7621 -0.3231  0.4415
  461MOL0     C60730   1.807   5.847   3.881 -0.0842  0.6682  0.8678
  461MOL0     C60731   1.759   5.712   3.825  0.5788 -0.1662 -0.8050
  461MOL0     C60732   1.609   5.688   3.807 -1.2162  0.0636  0.0385
  461MOL0     C60733   1.591   5.579   3.707  0.4398 -0.2802  0.6339
  461MOL0     C60734   1.617   5.622   3.557  0.4012  0.0802  1.0950
  461MOL0     C60735   1.662   5.498   3.481  0.0157  0.4195  0.5320
  461MOL0     C60736   1.710   5.530   3.335  0.6103 -0.4538  0.3859
  461MOL0     N60737   1.832   5.614   3.330 -0.0720  0.0512  0.4657
  461MOL0     C60738   1.860   5.722   3.247 -0.4785 -0.2894  0.4341
  461MOL0     C60739   1.980   5.746   3.281 -0.3159 -0.2236  0.9365
  461MOL0     C60740   2.065   5.865   3.225 -0.1626 -0.3970  0.0796
  461MOL0     C60741   2.125   5.825   3.092  0.4366 -0.2790  0.2515
  461MOL0     C60742   2.257   5.748   3.115 -0.8199 -0.1379  0.7850
  461MOL0     C60743   2.389   5.838   3.123  0.9050  0.3203  0.6088
  461MOL0     O60744   2.501   5.757   3.159  0.1968  0.3611 -0.4145
  461MOL0     C60745   2.632   5.802   3.124  0.1261  0.0829 -0.1013
  461MOL0     C60746   2.669   5.878   3.013  0.6467 -0.2644 -0.0186
  461MOL0     C60747   2.789   5.938   3.008 -0.3914  0.5050 -0.3608
  461MOL0     C60748   2.890   5.926   3.109  0.0094  0.2323  0.6242
  461MOL0     C60749   3.009   5.996   3.082  0.3823  0.5381 -0.1580
  461MOL0     O60750   3.017   6.088   2.970 -0.6017  0.2859 -0.0096
  461MOL0     C60751   3.145   6.118   2.927 -0.4859  0.6441 -1.4671
  461MOL0     C60752   3.209   6.040   2.827  0.9360 -0.4764  0.2733
  461MOL0     C60753   3.324   6.080   2.766 -1.2654  1.1204  0.3474
  461MOL0     C60754   3.390   6.198   2.801  0.8471  0.3273 -0.9065
  461MOL0     O60755   3.493   6.248   2.724  0.9451 -0.3248  0.2733
  461MOL0     C60756   3.603   6.152   2.718  0.1026 -0.1835  0.3310
  461MOL0     C60757   3.704   6.219   2.621 -0.1832 -0.2436  0.0471
  461MOL0     C60758   3.797   6.116   2.571 -0.3090  0.0988 -0.9451
  461MOL0     C60759   3.878   6.156   2.448 -0.0317 -0.6216 -0.6539
  461MOL0     C60760   3.965   6.050   2.399 -0.2286 -0.0947  1.0456
  461MOL0     C60761   4.024   6.099   2.262 -0.3091  0.0300 -0.1055
  461MOL0     C60762   4.115   5.994   2.199 -0.2373  0.4357 -0.2954
  461MOL0     C60763   4.192   6.061   2.088  0.5523 -0.6650 -0.1075
  461MOL0    Cl60764   4.289   5.938   2.001 -0.2269 -0.0059  0.2399
  461MOL0     C60765   3.326   6.283   2.900 -0.0257  0.6731 -0.0383
  461MOL0     C60766   3.210   6.243   2.955  0.6290 -0.3421  0.6252
  461MOL0     O60767   3.095   5.979   3.163  0.3499 -0.1327 -0.5229
  461MOL0     C60768   2.860   5.841   3.216  1.0018  0.2234  0.0719
  461MOL0     C60769   2.727   5.784   3.225  0.2956 -0.8265  0.2268
  461MOL0     N60770   2.033   5.655   3.371 -0.3389 -0.4910  0.3295
  461MOL0     N60771   1.941   5.571   3.396 -0.5731  0.5281 -1.3381
  461MOL0     C60772   2.188   5.754   4.129  1.2578 -1.1664 -1.1374
  461MOL0     C60773   2.312   5.783   4.174 -0.0880 -0.0824 -0.2193
  461MOL0     C60774   2.741   5.748   4.235 -0.8237  0.4369  0.0571
  461MOL0     C60775   2.793   5.651   4.322 -0.5550 -0.0694 -0.0961
  461MOL0     C60776   2.920   5.653   4.376 -0.1728 -0.5134  0.5619
  461MOL0     C60777   3.007   5.763   4.337  0.4037 -0.0866  0.5725
  461MOL0     O60778   3.129   5.772   4.393 -0.1608 -0.3521  0.0168
  461MOL0     C60779   3.197   5.893   4.384  0.4500 -0.5269  0.4804
  461MOL0     C60780   3.321   5.911   4.475  0.4243 -0.1966 -0.2902
  461MOL0     C60781   3.289   5.899   4.618  0.8219  0.0178 -0.9971
  461MOL0     C60782   3.186   6.006   4.658 -0.2605 -0.0245  1.1818
  461MOL0     C60783   3.051   5.949   4.647 -0.1206 -0.3334  0.2858
  461MOL0     C60784   2.943   5.904   4.676  0.6989  0.5589  0.5380
  461MOL0     C60785   2.954   5.855   4.238  0.0540 -0.2121 -0.5214
  461MOL0     C60786   2.821   5.841   4.186 -0.9913 -0.2559  1.1524
  461MOL0     H60787   2.455   5.851   3.884 -3.7849  2.0493 -3.0231
  461MOL0     H60788   2.202   5.869   3.813 -3.5766  0.4043  1.0653
  461MOL0     H60789   1.982   5.862   3.782 -0.7469  1.8044 -0.2626
  461MOL0     H60790   1.973   5.972   3.926 -0.6020 -1.1380  3.5519
  461MOL0     H60791   1.755   5.914   3.811 -2.9671 -0.8776  1.3752
  461MOL0     H60792   1.757   5.867   3.976  0.4093  1.4996  0.9636
  461MOL0     H60793   1.792   5.633   3.893 -0.1694 -0.3726 -0.6787
  461MOL0     H60794   1.807   5.709   3.726 -1.1692 -1.1959 -1.6650
  461MOL0     H60795   1.563   5.654   3.900 -5.1196 -0.1147 -1.7560
  461MOL0     H60796   1.553   5.775   3.773 -0.4436  0.6646  0.2693
  461MOL0     H60797   1.494   5.530   3.702 -0.5232  1.6366 -0.6698
  461MOL0     H60798   1.666   5.506   3.739  1.1215  0.3167  0.4200
  461MOL0     H60799   1.696   5.697   3.557 -1.1698  1.8044 -0.1640
  461MOL0     H60800   1.532   5.675   3.513  0.2168 -0.5437  0.6804
  461MOL0     H60801   1.748   5.459   3.536  0.7461  2.1383  0.6567
  461MOL0     H60802   1.583   5.422   3.483 -0.2034  0.6165 -0.3198
  461MOL0     H60803   1.627   5.587   3.292  0.8144  0.2148  0.8706
  461MOL0     H60804   1.726   5.438   3.277  1.2338 -0.8296  1.1303
  461MOL0     H60805   1.797   5.794   3.195 -0.9192 -1.9934 -1.5371
  461MOL0     H60806   2.139   5.894   3.301 -1.3157 -0.6040  1.3312
  461MOL0     H60807   1.998   5.949   3.205  1.2536  0.1182 -3.1245
  461MOL0     H60808   2.149   5.909   3.026  3.9084 -2.6502 -1.8637
  461MOL0     H60809   2.059   5.759   3.034  1.0818 -1.8703  1.2771
  461MOL0     H60810   2.248   5.693   3.209 -1.9024  2.1307  2.1018
  461MOL0     H60811   2.275   5.691   3.023 -3.2190 -0.8141  0.6569
  461MOL0     H60812   2.377   5.915   3.200 -0.3745 -0.4472  1.2212
  461MOL0     H60813   2.396   5.886   3.025 -4.6899  2.1420  0.7533
  461MOL0     H60814   2.599   5.908   2.936 -0.1725  0.5534  1.0043
  461MOL0     H60815   2.795   6.021   2.939  1.3762  1.3804  0.7718
  461MOL0     H60816   3.173   5.939   2.812  0.2575 -0.6302  2.5285
  461MOL0     H60817   3.370   6.025   2.684  2.7183 -0.1974  3.1658
  461MOL0     H60818   3.568   6.061   2.670 -3.9190  2.4427 -2.2687
  461MOL0     H60819   3.656   6.133   2.812  1.6107 -0.4029 -0.5199
  461MOL0     H60820   3.767   6.298   2.662  0.2082 -1.0748  1.0881
  461MOL0     H60821   3.644   6.252   2.536 -0.6199  0.0399  0.4604
  461MOL0     H60822   3.740   6.025   2.547 -0.1960 -0.0297 -0.7361
  461MOL0     H60823   3.872   6.080   2.642  1.6508 -0.6106 -3.2466
  461MOL0     H60824   3.799   6.186   2.378 -3.8472 -0.1427  3.3887
  461MOL0     H60825   3.940   6.242   2.476  1.8444 -2.2162  0.3532
  461MOL0     H60826   3.900   5.962   2.389 -3.2509  1.9694  1.1641
  461MOL0     H60827   4.039   6.022   2.475 -2.1501 -0.8561  2.7328
  461MOL0     H60828   4.083   6.190   2.276 -0.8514  0.6252 -1.4992
  461MOL0     H60829   3.944   6.133   2.195 -1.6531  0.6287  1.7088
  461MOL0     H60830   4.180   5.949   2.275  0.0302 -0.0568 -0.8155
  461MOL0     H60831   4.049   5.913   2.167 -0.7049  0.2322  1.1055
  461MOL0     H60832   4.260   6.137   2.125 -1.5441  1.1469  0.2713
  461MOL0     H60833   4.121   6.102   2.015 -1.1934 -1.9789  0.7606
  461MOL0     H60834   3.390   6.369   2.918  2.3017 -0.7572 -0.9653
  461MOL0     H60835   3.164   6.307   3.030  1.1095 -0.1396  0.7515
  461MOL0     H60836   2.934   5.831   3.295  0.1623 -1.3246  0.7011
  461MOL0     H60837   2.709   5.746   3.325 -0.3061 -0.4750  0.2557
  461MOL0     H60838   2.110   5.717   4.195 -1.7931  4.1763 -1.1263
  461MOL0     H60839   2.341   5.767   4.277  0.0800 -0.5299 -0.3344
  461MOL0     H60840   2.724   5.576   4.360 -0.7717  0.0399 -0.2737
  461MOL0     H60841   2.957   5.581   4.448  2.4984  0.1034 -0.1177
  461MOL0     H60842   3.133   5.977   4.414  2.0365  0.7470  0.4220
  461MOL0     H60843   3.221   5.905   4.278 -3.7701  0.2645 -0.6007
  461MOL0     H60844   3.406   5.852   4.440  2.1010  2.2757 -0.6333
  461MOL0     H60845   3.363   6.009   4.454  2.6560 -1.4252 -2.0418
  461MOL0     H60846   3.379   5.910   4.680 -0.7167  0.5960  1.2418
  461MOL0     H60847   3.248   5.799   4.631 -3.0260  1.1551 -2.8511
  461MOL0     H60848   3.205   6.027   4.764  2.4297 -2.4757  1.3134
  461MOL0     H60849   3.196   6.093   4.593 -0.8810 -0.4214  0.5370
  461MOL0     H60850   2.842   5.871   4.687  0.1332  1.6708 -0.9616
  461MOL0     H60851   3.009   5.946   4.214  0.9562  0.5980  3.8131
  461MOL0     H60852   2.789   5.903   4.103 -0.1239  1.5959  2.1292
  462MOL0     O60853  10.163   5.028  10.853  0.0287  0.1959 -0.2983
  462MOL0     C60854  10.267   5.027  10.787 -0.6281  0.0456  0.1792
  462MOL0     O60855  10.280   5.105  10.676 -0.3074 -0.2822 -0.0773
  462MOL0     C60856  10.172   5.159  10.610  0.1474 -0.2440  0.7757
  462MOL0     C60857  10.062   5.222  10.675 -0.1413 -0.3027  0.7199
  462MOL0     C60858   9.949   5.268  10.609 -0.4411  0.4079  0.2478
  462MOL0     C60859   9.946   5.247  10.471 -0.5678  0.2846 -0.3367
  462MOL0     O60860   9.837   5.272  10.397 -0.2668 -0.8843  1.2301
  462MOL0     C60861   9.727   5.356  10.452  0.7056  0.5848 -0.4989
  462MOL0     C60862   9.633   5.414  10.349  0.6664 -0.6140 -0.0030
  462MOL0     C60863   9.557   5.539  10.415  0.7187  0.6058 -0.0931
  462MOL0     C60864   9.444   5.606  10.340  0.2378  0.3920 -0.2891
  462MOL0     C60865   9.466   5.639  10.191 -0.3911  0.1570 -0.0888
  462MOL0     C60866   9.362   5.729  10.120 -0.7488  0.4793 -0.7907
  462MOL0     C60867   9.387   5.743   9.965  0.6473 -0.2320  0.1120
  462MOL0     C60868   9.516   5.813   9.911  0.2664  0.3446  0.5620
  462MOL0     N60869   9.645   5.754   9.947  0.1493  0.5342 -0.2573
  462MOL0     C60870   9.679   5.620   9.940 -0.1010  0.1319  0.6522
  462MOL0     C60871   9.803   5.618   9.999  0.3921  0.8923  0.0041
  462MOL0     C60872   9.892   5.498   9.987 -0.9178  0.2079  0.6346
  462MOL0     C60873  10.045   5.515  10.003 -0.2043 -0.6631  0.1831
  462MOL0     C60874  10.118   5.380   9.994  0.6766 -0.9511 -0.9716
  462MOL0     C60875  10.260   5.421   9.972  0.5973  0.2563  0.0480
  462MOL0     O60876  10.322   5.293   9.975 -0.1922 -0.2361  0.0556
  462MOL0     C60877  10.447   5.278   9.931 -0.0201  0.3277  0.1779
  462MOL0     C60878  10.525   5.388   9.902 -0.8567  0.2451 -0.4550
  462MOL0     C60879  10.663   5.365   9.857  0.8365  0.3753 -0.6557
  462MOL0     C60880  10.712   5.237   9.842  0.6687  0.1375  0.1225
  462MOL0     C60881  10.852   5.217   9.801 -0.0787  0.0181  0.0071
  462MOL0     O60882  10.915   5.309   9.720 -0.2451  0.8063  0.3853
  462MOL0     C60883  11.044   5.276   9.666  0.6460 -0.2796 -0.2432
  462MOL0     C60884  11.146   5.371   9.686 -0.2745  0.5391  0.0352
  462MOL0     C60885  11.270   5.337   9.627 -0.2654  0.9778  0.1300
  462MOL0     C60886  11.295   5.213   9.579  0.2551  0.0989 -0.2309
  462MOL0     O60887  11.425   5.169   9.542  0.4801  0.3340 -0.0069
  462MOL0     C60888  11.483   5.253   9.436 -0.0481  0.1256 -0.1839
  462MOL0     C60889  11.604   5.174   9.366  0.4029 -1.3428  0.1649
  462MOL0     C60890  11.542   5.084   9.253 -0.3624 -0.0734 -0.5426
  462MOL0     C60891  11.653   5.029   9.163 -0.5078  0.8147 -0.9217
  462MOL0     C60892  11.609   4.912   9.071  1.0437  0.1324 -0.8594
  462MOL0     C60893  11.546   4.786   9.137  0.0930 -0.0463  0.6017
  462MOL0     C60894  11.636   4.731   9.244 -0.3185 -0.9747  0.2269
  462MOL0     C60895  11.606   4.584   9.269  0.2631 -0.3427 -0.3263
  462MOL0    Cl60896  11.649   4.481   9.129 -0.2918  0.2054  0.5119
  462MOL0     C60897  11.193   5.123   9.552 -0.0227  0.0316  0.4680
  462MOL0     C60898  11.061   5.152   9.595 -0.3320 -0.4038  0.2166
  462MOL0     O60899  10.909   5.116   9.847  0.4494  0.5204 -0.6471
  462MOL0     C60900  10.625   5.129   9.873  1.0641  0.3267 -0.1229
  462MOL0     C60901  10.494   5.148   9.922 -0.4485 -0.6516 -0.2445
  462MOL0     N60902   9.832   5.743  10.049  0.7876  0.3094 -0.4740
  462MOL0     N60903   9.736   5.816  10.027 -0.8026  0.6102 -0.1168
  462MOL0     C60904  10.056   5.191  10.404  0.5893 -0.6758  0.7633
  462MOL0     C60905  10.167   5.143  10.473  0.4138 -0.0085 -0.3723
  462MOL0     C60906  10.391   4.953  10.833 -0.1729 -0.1031 -0.6318
  462MOL0     C60907  10.511   4.957  10.762 -1.1372  0.4704 -0.1244
  462MOL0     C60908  10.617   4.874  10.797 -0.9887  0.1975  0.4521
  462MOL0     C60909  10.604   4.783  10.903  0.1885 -0.0466 -0.4752
  462MOL0     O60910  10.695   4.688  10.933  0.3329  0.7840  0.0797
  462MOL0     C60911  10.822   4.681  10.861  0.2151  0.7959 -0.2965
  462MOL0     C60912  10.891   4.549  10.901  0.7979 -0.3243 -0.0198
  462MOL0     C60913  11.036   4.549  10.879  0.4591 -0.2127  0.6066
  462MOL0     C60914  11.113   4.438  10.959  0.0740  0.4117 -0.5913
  462MOL0     C60915  11.230   4.393  10.892 -0.2952  0.4463 -0.3395
  462MOL0     C60916  11.322   4.331  10.839 -0.1933 -0.7261  1.2523
  462MOL0     C60917  10.486   4.785  10.981  0.3293  0.4263  1.5530
  462MOL0     C60918  10.376   4.861  10.940  0.1681 -0.3624  0.2161
  462MOL0     H60919  10.074   5.236  10.782 -0.2293  1.1504  0.5506
  462MOL0     H60920   9.865   5.312  10.663 -0.4376 -0.0128  0.6052
  462MOL0     H60921   9.766   5.445  10.503 -1.0065  1.7870 -1.1901
  462MOL0     H60922   9.673   5.291  10.520 -2.0998  3.0435 -0.1680
  462MOL0     H60923   9.570   5.330  10.318 -0.9802  1.0502 -1.3963
  462MOL0     H60924   9.698   5.457  10.273  1.3833 -2.2245 -0.3329
  462MOL0     H60925   9.636   5.611  10.438 -0.4166  0.8666  3.8804
  462MOL0     H60926   9.524   5.516  10.517 -0.8918  0.6506 -0.5697
  462MOL0     H60927   9.353   5.545  10.340  0.0256  0.6925  0.8185
  462MOL0     H60928   9.408   5.703  10.376  0.2057  2.0022 -4.1034
  462MOL0     H60929   9.473   5.543  10.139  0.9515 -0.0261  0.3911
  462MOL0     H60930   9.563   5.688  10.190  0.9435 -1.9082  3.9138
  462MOL0     H60931   9.356   5.834  10.151  2.5998  1.0702 -1.6839
  462MOL0     H60932   9.264   5.685  10.136 -1.2439  0.8216 -2.6015
  462MOL0     H60933   9.386   5.645   9.917  0.3194  0.7788 -2.0409
  462MOL0     H60934   9.299   5.795   9.926 -0.3578 -2.6751 -1.0366
  462MOL0     H60935   9.525   5.919   9.936  0.7860  0.4897 -0.1920
  462MOL0     H60936   9.517   5.802   9.802  1.4581  1.2930  0.4544
  462MOL0     H60937   9.632   5.542   9.882  0.3828  0.8430 -0.7649
  462MOL0     H60938   9.874   5.445   9.893  0.5858 -1.4257  1.2068
  462MOL0     H60939   9.865   5.432  10.070 -1.7226 -0.0997  0.1418
  462MOL0     H60940  10.069   5.566  10.097 -1.8759  0.4423  0.0500
  462MOL0     H60941  10.083   5.594   9.936  0.4780  0.9052  2.3069
  462MOL0     H60942  10.123   5.329  10.091  0.5068 -2.0982 -1.5428
  462MOL0     H60943  10.070   5.324   9.913 -0.8714  0.9529 -1.4499
  462MOL0     H60944  10.307   5.485  10.047  1.3943  0.0924 -0.3064
  462MOL0     H60945  10.271   5.467   9.873  2.9653 -0.8856 -0.3005
  462MOL0     H60946  10.493   5.491   9.915 -0.3730  0.5234 -1.4561
  462MOL0     H60947  10.727   5.452   9.848 -1.6297  2.5068  0.8126
  462MOL0     H60948  11.129   5.470   9.725  1.4897  0.8007  0.2187
  462MOL0     H60949  11.356   5.401   9.639 -0.3948  1.2816 -0.5230
  462MOL0     H60950  11.526   5.346   9.475 -0.8110 -0.1552  1.4238
  462MOL0     H60951  11.404   5.274   9.363 -1.3261  3.5620  1.9234
  462MOL0     H60952  11.656   5.106   9.434  1.9655 -0.9300 -0.5694
  462MOL0     H60953  11.671   5.250   9.325 -2.2681  2.3321  2.0356
  462MOL0     H60954  11.470   5.140   9.192 -1.6913  0.0764  1.0762
  462MOL0     H60955  11.488   5.005   9.307  1.5210 -1.6705 -0.8719
  462MOL0     H60956  11.696   5.098   9.090 -0.1655  1.1759 -0.3809
  462MOL0     H60957  11.731   4.992   9.230 -2.4452  0.9677  1.5490
  462MOL0     H60958  11.697   4.900   9.008 -0.3303 -0.5675 -2.7388
  462MOL0     H60959  11.528   4.961   9.016 -0.0175  0.8836  1.2709
  462MOL0     H60960  11.520   4.713   9.060  0.5461 -0.4638  0.8428
  462MOL0     H60961  11.445   4.811   9.172 -0.8228 -1.9959 -0.4931
  462MOL0     H60962  11.743   4.747   9.231 -0.1235 -0.1589  2.3568
  462MOL0     H60963  11.608   4.785   9.335 -0.6158 -0.6512 -0.0463
  462MOL0     H60964  11.499   4.574   9.286  0.6971 -0.5369  2.9236
  462MOL0     H60965  11.648   4.538   9.358 -0.6662 -0.3070  0.1444
  462MOL0     H60966  11.216   5.032   9.497 -1.6790  0.8068 -1.6361
  462MOL0     H60967  10.978   5.084   9.581 -1.9219  0.4717  4.0393
  462MOL0     H60968  10.664   5.029   9.860  1.3488  0.2482  1.2224
  462MOL0     H60969  10.451   5.054   9.954  1.9324 -1.4345  0.8430
  462MOL0     H60970  10.049   5.179  10.297 -0.1019  1.6260  0.5102
  462MOL0     H60971  10.252   5.091  10.431  3.3842  2.5997  1.9383
  462MOL0     H60972  10.514   5.016  10.670 -2.5084  1.3025  0.3434
  462MOL0     H60973  10.702   4.872  10.730 -1.0726 -0.6536  0.3548
  462MOL0     H60974  10.877   4.767  10.900  0.6801  0.1235  0.5478
  462MOL0     H60975  10.817   4.691  10.752  0.2515  1.7520 -0.2202
  462MOL0     H60976  10.881   4.536  11.010  3.5466 -0.9486  0.2518
  462MOL0     H60977  10.853   4.459  10.852 -0.2727  0.4837 -0.7080
  462MOL0     H60978  11.088   4.643  10.900  3.3146 -1.5707  0.0440
  462MOL0     H60979  11.046   4.539  10.771 -0.3160  0.5894  0.4436
  462MOL0     H60980  11.137   4.461  11.063  2.0926 -0.9627 -0.7096
  462MOL0     H60981  11.052   4.347  10.958  1.1780 -0.3630  0.2649
  462MOL0     H60982  11.411   4.283  10.803 -0.5696 -0.9684  0.6286
  462MOL0     H60983  10.474   4.711  11.060 -0.4164 -1.2893 -0.0780
  462MOL0     H60984  10.284   4.844  10.994  1.0327 -2.3009  1.1568
  463MOL0     O60985   5.870   8.840   2.483  0.0647  0.9933  0.3383
  463MOL0     C60986   5.969   8.856   2.415  0.3830 -0.8110 -0.7928
  463MOL0     O60987   6.001   8.787   2.305 -0.0787  0.1624  0.3702
  463MOL0     C60988   5.908   8.701   2.245  0.8280  0.7954 -0.1305
  463MOL0     C60989   5.846   8.587   2.313  0.1057 -0.4481 -0.2446
  463MOL0     C60990   5.745   8.519   2.252 -0.2329 -0.0895  0.5734
  463MOL0     C60991   5.706   8.544   2.124 -0.1903 -0.0160  0.7545
  463MOL0     O60992   5.613   8.454   2.067  0.0955  0.2310 -0.1238
  463MOL0     C60993   5.560   8.490   1.932  0.0236  0.3717 -0.4894
  463MOL0     C60994   5.475   8.372   1.882 -0.7196  0.0280 -0.3965
  463MOL0     C60995   5.373   8.344   1.994  0.0050  1.2058  0.2890
  463MOL0     C60996   5.320   8.207   1.963  0.4271  0.1815 -0.2774
  463MOL0     C60997   5.229   8.140   2.069  0.8828 -1.1916  0.5866
  463MOL0     C60998   5.166   8.017   1.999  0.1200 -0.3863  0.2515
  463MOL0     C60999   5.028   7.983   2.046  0.6356 -0.1262 -0.0773
  463MOL0     C61000   4.973   7.847   1.993 -0.5684  0.2011 -0.0344
  463MOL0     N61001   4.827   7.834   2.034  0.4882  0.7574 -0.3187
  463MOL0     C61002   4.778   7.719   2.095  0.9501 -0.1610  0.1485
  463MOL0     C61003   4.652   7.755   2.126 -0.3280  1.0483 -0.3012
  463MOL0     C61004   4.560   7.663   2.205  0.0888  0.0216  0.4309
  463MOL0     C61005   4.455   7.599   2.104 -0.1584 -0.9193  0.4202
  463MOL0     C61006   4.380   7.493   2.177  0.0300  0.4995  0.2967
  463MOL0     C61007   4.256   7.548   2.254 -0.3841  0.7750  0.4160
  463MOL0     O61008   4.203   7.438   2.324 -0.0013  0.4730 -0.0703
  463MOL0     C61009   4.106   7.460   2.423 -0.7708  0.5295  0.6185
  463MOL0     C61010   4.082   7.356   2.523  0.1048  0.0671 -1.3850
  463MOL0     C61011   3.980   7.363   2.616  0.2826 -0.2279 -0.1366
  463MOL0     C61012   3.886   7.468   2.606 -0.5909  0.1498 -0.8500
  463MOL0     C61013   3.763   7.467   2.688 -0.2980  1.9125  0.5034
  463MOL0     O61014   3.725   7.351   2.763  0.0442  0.4975 -0.0414
  463MOL0     C61015   3.596   7.344   2.810 -0.2838  0.3308 -0.4119
  463MOL0     C61016   3.564   7.253   2.914  0.8299  0.1948  0.5351
  463MOL0     C61017   3.435   7.231   2.964 -0.2357 -1.4953  0.3203
  463MOL0     C61018   3.335   7.305   2.923 -0.0384 -0.3479 -0.4478
  463MOL0     O61019   3.202   7.269   2.962  0.2479  0.2074 -0.2370
  463MOL0     C61020   3.086   7.287   2.882 -0.4182 -0.1612  0.4134
  463MOL0     C61021   2.963   7.207   2.913 -0.2834  0.1373 -0.4411
  463MOL0     C61022   2.860   7.237   2.807  1.1785 -0.2701  1.0939
  463MOL0     C61023   2.719   7.189   2.860  0.8052 -0.1355  0.1606
  463MOL0     C61024   2.603   7.258   2.788  1.2779  0.9776  0.4623
  463MOL0     C61025   2.461   7.197   2.827 -0.5010  0.1098 -0.3921
  463MOL0     C61026   2.359   7.282   2.741 -1.0301  0.4016  0.3320
  463MOL0     C61027   2.228   7.218   2.776  0.1127 -0.8432  0.1847
  463MOL0    Cl61028   2.082   7.273   2.675  0.2187  0.2569 -0.3743
  463MOL0     C61029   3.355   7.392   2.815  0.2340  0.4833 -0.8813
  463MOL0     C61030   3.482   7.410   2.760  0.0730 -0.0253  0.1462
  463MOL0     O61031   3.702   7.571   2.689 -0.2992  0.2680 -0.2449
  463MOL0     C61032   3.914   7.573   2.514  0.4535 -0.0501 -0.4017
  463MOL0     C61033   4.017   7.573   2.418 -0.3433  0.5707 -0.4989
  463MOL0     N61034   4.623   7.884   2.078  0.3382  0.2448  0.6870
  463MOL0     N61035   4.728   7.929   2.026  0.0171 -0.7296  0.3036
  463MOL0     C61036   5.758   8.646   2.048  0.4237 -0.6353  0.2922
  463MOL0     C61037   5.847   8.735   2.119 -0.0662  0.5698  0.7127
  463MOL0     C61038   6.066   8.956   2.458 -0.0562  0.5154  0.1932
  463MOL0     C61039   6.029   9.048   2.563  0.7773  0.4793  0.3938
  463MOL0     C61040   6.118   9.154   2.593  0.0309 -0.1279  0.7055
  463MOL0     C61041   6.235   9.173   2.524 -0.0165  0.0816  0.3192
  463MOL0     O61042   6.318   9.278   2.558 -0.4777 -0.0441 -0.2613
  463MOL0     C61043   6.443   9.292   2.497  0.7202  0.2208 -0.2859
  463MOL0     C61044   6.552   9.202   2.564  0.5020 -0.2575  0.6715
  463MOL0     C61045   6.554   9.236   2.713  0.0327 -0.4169  0.8964
  463MOL0     C61046   6.674   9.175   2.790 -0.5611  0.4795  1.5894
  463MOL0     C61047   6.797   9.248   2.763  0.1492 -1.1739  0.2379
  463MOL0     C61048   6.911   9.290   2.743  0.0658 -0.2734 -1.0856
  463MOL0     C61049   6.274   9.070   2.436  0.1724 -0.4291  0.0427
  463MOL0     C61050   6.190   8.964   2.398  0.1010 -0.3948 -0.8199
  463MOL0     H61051   5.878   8.555   2.411 -0.6621 -2.3106 -0.5626
  463MOL0     H61052   5.703   8.439   2.312 -0.9520  1.5232  2.3322
  463MOL0     H61053   5.626   8.519   1.851 -1.0928  2.5915 -0.6704
  463MOL0     H61054   5.496   8.577   1.950  1.2046  1.0074  0.8374
  463MOL0     H61055   5.552   8.295   1.871  0.8057  1.3594  0.4458
  463MOL0     H61056   5.422   8.395   1.789  0.8599 -2.3549 -1.9931
  463MOL0     H61057   5.289   8.414   1.986  1.1612  2.8281  1.5277
  463MOL0     H61058   5.421   8.346   2.093  3.6773 -0.8003 -1.2549
  463MOL0     H61059   5.260   8.227   1.873 -2.7570  0.4114  1.7521
  463MOL0     H61060   5.393   8.127   1.951  0.7406  0.4976 -0.4795
  463MOL0     H61061   5.153   8.218   2.077  2.9314  0.8891  0.6533
  463MOL0     H61062   5.287   8.126   2.161  1.1863  0.0316  0.5865
  463MOL0     H61063   5.230   7.933   2.030  0.2954 -0.1449  0.5526
  463MOL0     H61064   5.176   8.023   1.891 -2.0180 -1.8239 -0.0690
  463MOL0     H61065   5.020   7.990   2.155 -0.4690  3.2741 -0.2850
  463MOL0     H61066   4.969   8.067   2.009 -0.4308 -0.1097  1.5496
  463MOL0     H61067   5.017   7.756   2.034 -0.0525 -1.6812 -4.3369
  463MOL0     H61068   4.996   7.850   1.887  4.6544 -3.3124  0.6223
  463MOL0     H61069   4.827   7.623   2.096  0.3135 -0.5091 -0.7387
  463MOL0     H61070   4.511   7.717   2.286 -2.0933  2.5293 -2.3465
  463MOL0     H61071   4.611   7.580   2.255 -0.9357 -0.7062  0.2954
  463MOL0     H61072   4.515   7.558   2.022  0.8135  0.0267  0.6393
  463MOL0     H61073   4.388   7.671   2.055  2.8174  0.1765 -2.4423
  463MOL0     H61074   4.344   7.420   2.104  0.9673 -1.0960  1.3541
  463MOL0     H61075   4.438   7.439   2.253 -0.6992  0.2249  0.6639
  463MOL0     H61076   4.185   7.612   2.202 -1.8126 -0.1540  1.1633
  463MOL0     H61077   4.304   7.608   2.332 -3.7007  1.2096  2.2860
  463MOL0     H61078   4.147   7.269   2.513 -1.7432 -1.5942  0.2865
  463MOL0     H61079   3.965   7.286   2.692 -0.0220 -0.9555 -0.9224
  463MOL0     H61080   3.643   7.188   2.949 -1.2647 -3.1090 -0.3625
  463MOL0     H61081   3.426   7.143   3.028  2.8844 -1.8861  0.3496
  463MOL0     H61082   3.103   7.263   2.776 -0.4896  0.7770  0.1854
  463MOL0     H61083   3.059   7.392   2.890  4.3133  1.2402  0.6748
  463MOL0     H61084   2.939   7.247   3.012  1.8000  0.7855 -0.1443
  463MOL0     H61085   2.980   7.099   2.918  0.5669  0.1851 -1.7630
  463MOL0     H61086   2.884   7.191   2.711  0.5877 -1.3913  1.4703
  463MOL0     H61087   2.862   7.345   2.789  0.2225 -0.4922 -0.5504
  463MOL0     H61088   2.715   7.082   2.839  0.8180 -0.0245 -0.4145
  463MOL0     H61089   2.700   7.205   2.967 -2.5220 -0.4571 -0.2869
  463MOL0     H61090   2.608   7.249   2.679 -1.8932 -3.5826  0.4149
  463MOL0     H61091   2.615   7.362   2.820 -0.3678  1.3738 -0.1374
  463MOL0     H61092   2.439   7.197   2.934 -3.5767  1.5816 -0.9028
  463MOL0     H61093   2.466   7.096   2.785  2.1943  0.7480 -1.8297
  463MOL0     H61094   2.356   7.389   2.764 -5.0887  0.8326 -1.3884
  463MOL0     H61095   2.394   7.272   2.637 -0.2756 -0.7591  0.6764
  463MOL0     H61096   2.208   7.242   2.881 -0.6463 -0.9773  0.0810
  463MOL0     H61097   2.246   7.110   2.769  1.4721 -0.7527  1.8413
  463MOL0     H61098   3.275   7.456   2.779  0.6403  0.8258 -1.1773
  463MOL0     H61099   3.477   7.470   2.670 -0.2621  0.9168  0.7768
  463MOL0     H61100   3.849   7.660   2.510 -2.2630 -1.7058  2.8471
  463MOL0     H61101   4.037   7.653   2.348 -0.2514  0.8113 -0.2006
  463MOL0     H61102   5.721   8.674   1.950 -1.3969 -1.2630  0.7588
  463MOL0     H61103   5.893   8.811   2.056 -1.9456  0.6413 -0.6545
  463MOL0     H61104   5.939   9.031   2.620  1.0289  1.4535  1.1063
  463MOL0     H61105   6.093   9.207   2.684  1.3083 -0.3751  1.2242
  463MOL0     H61106   6.481   9.395   2.502  1.7996 -0.1681 -0.3909
  463MOL0     H61107   6.431   9.267   2.391 -0.9156  1.5600 -0.4679
  463MOL0     H61108   6.524   9.097   2.552 -2.6428  0.3817  1.4350
  463MOL0     H61109   6.648   9.212   2.512  0.0794 -1.4603 -0.3786
  463MOL0     H61110   6.459   9.215   2.762  0.8586  1.4731  3.4921
  463MOL0     H61111   6.564   9.344   2.721 -2.9319 -0.0516  0.6357
  463MOL0     H61112   6.660   9.174   2.898  1.9391  1.7445  2.0034
  463MOL0     H61113   6.679   9.072   2.754 -0.8555  0.7598  0.7184
  463MOL0     H61114   7.012   9.308   2.714  0.4480  0.4500  0.5663
  463MOL0     H61115   6.370   9.071   2.386 -0.3373  1.8775 -1.0068
  463MOL0     H61116   6.216   8.887   2.327  0.4725  0.2070 -1.3447
  464MOL0     O61117   9.879   4.054   6.311  0.1259 -0.0848 -0.2717
  464MOL0     C61118   9.833   4.155   6.362  0.5989 -0.9249  0.3486
  464MOL0     O61119   9.710   4.167   6.404 -0.3057 -0.0876  0.4649
  464MOL0     C61120   9.629   4.059   6.384  0.4099  0.0356  0.4329
  464MOL0     C61121   9.651   3.948   6.475 -1.0003 -1.6730  0.0785
  464MOL0     C61122   9.563   3.846   6.476 -0.1147  0.0220 -0.3794
  464MOL0     C61123   9.449   3.840   6.398 -0.5063  0.3023  0.1986
  464MOL0     O61124   9.360   3.733   6.412 -0.2812 -0.2124  0.2653
  464MOL0     C61125   9.237   3.765   6.348  0.1282  0.4122  0.2462
  464MOL0     C61126   9.125   3.660   6.396 -0.5761  0.3526 -0.4892
  464MOL0     C61127   9.048   3.712   6.523  0.0207  0.8963 -0.1648
  464MOL0     C61128   9.137   3.762   6.635  0.0199  0.9743  0.1201
  464MOL0     C61129   9.056   3.770   6.770 -0.2224  0.1505  0.1649
  464MOL0     C61130   8.950   3.881   6.762  0.0191  0.5102  0.2573
  464MOL0     C61131   8.844   3.884   6.882 -0.5113  0.5014  0.5946
  464MOL0     C61132   8.920   3.897   7.017 -0.5310  0.2363 -0.8783
  464MOL0     N61133   9.007   4.011   7.022 -0.5295  0.5096 -0.5943
  464MOL0     C61134   8.960   4.134   7.064 -0.7528 -1.2554 -0.0500
  464MOL0     C61135   9.074   4.197   7.099 -0.5899 -1.0577 -0.2291
  464MOL0     C61136   9.073   4.355   7.132 -0.3901  0.6603  0.4029
  464MOL0     C61137   9.068   4.359   7.290  0.4625  0.0060 -0.1145
  464MOL0     C61138   9.076   4.505   7.342 -0.2255  0.4575 -0.0452
  464MOL0     C61139   9.217   4.567   7.345 -0.5418  0.2532 -0.1163
  464MOL0     O61140   9.295   4.503   7.449 -1.2046 -0.5209 -0.0650
  464MOL0     C61141   9.418   4.542   7.483 -0.7237 -0.1387  0.0285
  464MOL0     C61142   9.498   4.641   7.425  0.8661  0.6876  0.3600
  464MOL0     C61143   9.634   4.654   7.452 -0.3426 -0.0202 -0.2660
  464MOL0     C61144   9.697   4.571   7.551  0.2144  0.0141  0.8263
  464MOL0     C61145   9.839   4.595   7.574 -0.1813 -0.2467 -0.5450
  464MOL0     O61146   9.911   4.677   7.489  0.7760 -0.5953 -0.6230
  464MOL0     C61147  10.049   4.681   7.503  0.0825  0.2115 -1.0155
  464MOL0     C61148  10.110   4.800   7.548 -0.1078 -0.2187  0.0203
  464MOL0     C61149  10.248   4.809   7.590  0.7620  0.4870  0.9399
  464MOL0     C61150  10.329   4.690   7.579  0.1082  0.0327 -0.2611
  464MOL0     O61151  10.459   4.689   7.619  0.8374  0.5283 -0.3746
  464MOL0     C61152  10.482   4.769   7.736  0.1260 -0.2109  0.1054
  464MOL0     C61153  10.619   4.745   7.799  0.3465  0.1293 -0.1766
  464MOL0     C61154  10.741   4.778   7.700  0.3915  1.4086 -0.2775
  464MOL0     C61155  10.881   4.750   7.760  0.3027 -0.1579  0.0232
  464MOL0     C61156  10.980   4.843   7.687 -0.9963  0.6392 -0.0939
  464MOL0     C61157  11.121   4.844   7.746  0.0271  0.6232 -0.3310
  464MOL0     C61158  11.180   4.703   7.725 -0.1744 -0.3542  0.1688
  464MOL0     C61159  11.321   4.693   7.783 -0.1013 -0.1283  0.7556
  464MOL0    Cl61160  11.431   4.829   7.731  0.3756  0.1348  0.2734
  464MOL0     C61161  10.265   4.566   7.531 -0.1382 -0.5029 -0.2723
  464MOL0     C61162  10.125   4.565   7.490 -0.1523  0.3691 -0.3798
  464MOL0     O61163   9.887   4.541   7.676  0.0672  0.3259  0.0109
  464MOL0     C61164   9.622   4.473   7.608  0.1658 -0.4602 -0.9383
  464MOL0     C61165   9.483   4.460   7.576 -0.3045 -0.1445 -0.3814
  464MOL0     N61166   9.185   4.117   7.084 -0.0872 -0.2888  0.7016
  464MOL0     N61167   9.146   4.005   7.041  0.1661  0.4513  0.4680
  464MOL0     C61168   9.432   3.947   6.303 -0.2187  0.1673  0.5432
  464MOL0     C61169   9.521   4.058   6.301  0.4288 -0.3938 -0.1085
  464MOL0     C61170   9.915   4.282   6.367  0.1822 -0.2025  0.4042
  464MOL0     C61171   9.859   4.400   6.421  0.8540  0.2443  0.5553
  464MOL0     C61172   9.930   4.521   6.431  0.3221 -0.1336  0.4552
  464MOL0     C61173  10.063   4.526   6.390 -0.4151  0.3729  0.4282
  464MOL0     O61174  10.149   4.627   6.422 -0.4042  0.3684  0.2755
  464MOL0     C61175  10.234   4.588   6.534 -0.4466  0.2438 -0.4407
  464MOL0     C61176  10.177   4.676   6.642  0.5331  0.3650  0.7409
  464MOL0     C61177  10.231   4.630   6.776 -0.8603 -0.7447 -0.3438
  464MOL0     C61178  10.149   4.683   6.887  0.5791 -0.3687 -0.7592
  464MOL0     C61179  10.183   4.674   7.029 -0.1919 -1.5320  0.6293
  464MOL0     C61180  10.219   4.679   7.147  0.6470 -0.1260  0.0424
  464MOL0     C61181  10.106   4.416   6.319  0.3546 -0.4987  0.9276
  464MOL0     C61182  10.030   4.298   6.303 -0.3025  0.8822  1.1955
  464MOL0     H61183   9.743   3.958   6.530 -1.6939  0.8725  0.9217
  464MOL0     H61184   9.586   3.762   6.542 -0.4373 -0.0865 -0.4056
  464MOL0     H61185   9.242   3.754   6.239  1.1508 -2.4719  0.4869
  464MOL0     H61186   9.204   3.868   6.366 -0.7996  0.5679 -1.9236
  464MOL0     H61187   9.168   3.564   6.426 -0.5367  0.8250  1.0145
  464MOL0     H61188   9.060   3.644   6.309 -2.5995  1.9795  0.6384
  464MOL0     H61189   8.984   3.631   6.561 -0.9575  2.1539  0.9850
  464MOL0     H61190   8.981   3.795   6.501  0.1375  0.8246 -0.7939
  464MOL0     H61191   9.212   3.684   6.645  1.7308  2.5247  0.0038
  464MOL0     H61192   9.177   3.862   6.617  0.3190  0.9581  0.6602
  464MOL0     H61193   9.124   3.785   6.854  1.0525 -3.2646 -0.0705
  464MOL0     H61194   9.018   3.670   6.796  0.2115 -0.0981 -0.1438
  464MOL0     H61195   8.896   3.856   6.670 -0.3258 -0.2180  0.6436
  464MOL0     H61196   9.000   3.977   6.749 -0.1484  0.6467  0.6204
  464MOL0     H61197   8.776   3.968   6.866  1.7150  2.5784  1.4682
  464MOL0     H61198   8.783   3.793   6.880 -1.3593  1.0352  1.3748
  464MOL0     H61199   8.982   3.811   7.040  0.1010  0.8135 -0.3825
  464MOL0     H61200   8.839   3.906   7.090  1.0004  0.7423  0.8332
  464MOL0     H61201   8.857   4.167   7.076 -0.2833 -0.4547  2.2415
  464MOL0     H61202   8.989   4.405   7.085 -2.6428 -1.6115  1.7478
  464MOL0     H61203   9.172   4.386   7.098  0.6506  0.1181  2.7443
  464MOL0     H61204   9.146   4.303   7.343  1.9676  1.4369 -0.7344
  464MOL0     H61205   8.974   4.314   7.322  0.5677  0.9179  1.6066
  464MOL0     H61206   9.012   4.565   7.276 -1.8697  0.3243  1.3812
  464MOL0     H61207   9.019   4.520   7.434 -1.3068  0.6383 -0.7311
  464MOL0     H61208   9.215   4.676   7.353  1.0579  0.2536  0.7129
  464MOL0     H61209   9.263   4.542   7.249 -2.1704 -1.3975 -0.5444
  464MOL0     H61210   9.451   4.696   7.344 -0.2574 -0.6286  0.0571
  464MOL0     H61211   9.691   4.738   7.415  1.0858  0.0358  1.9073
  464MOL0     H61212  10.047   4.888   7.559 -2.2785 -1.9194  2.5966
  464MOL0     H61213  10.282   4.907   7.620 -2.9880  2.8707 -1.7066
  464MOL0     H61214  10.405   4.755   7.812 -0.6127  1.7100 -0.2351
  464MOL0     H61215  10.489   4.876   7.715 -0.5355 -0.2372 -0.2688
  464MOL0     H61216  10.633   4.640   7.829 -0.0203  0.0684 -0.2233
  464MOL0     H61217  10.644   4.811   7.883  0.7541  2.4979 -2.0604
  464MOL0     H61218  10.731   4.881   7.663 -1.8986  0.6274 -2.0479
  464MOL0     H61219  10.725   4.722   7.608 -0.0799  2.2363 -0.7150
  464MOL0     H61220  10.876   4.791   7.862 -0.7882  0.1573 -0.1461
  464MOL0     H61221  10.912   4.646   7.749  2.5522  0.6047 -1.4528
  464MOL0     H61222  10.941   4.946   7.687  0.4400  1.2085 -0.8554
  464MOL0     H61223  11.001   4.815   7.584  2.3855 -4.0346  1.5341
  464MOL0     H61224  11.134   4.867   7.852 -2.7279 -0.8935  0.4136
  464MOL0     H61225  11.188   4.915   7.695  2.8936  1.4012  3.9710
  464MOL0     H61226  11.129   4.624   7.781 -1.0831 -0.2273 -0.4647
  464MOL0     H61227  11.178   4.685   7.617 -1.2955 -1.3086  0.3279
  464MOL0     H61228  11.365   4.602   7.740 -0.2488  0.4685 -0.7364
  464MOL0     H61229  11.320   4.677   7.891 -2.6711 -2.9173  0.4781
  464MOL0     H61230  10.323   4.474   7.531  0.4083 -0.2434 -2.8379
  464MOL0     H61231  10.066   4.478   7.464  1.0827 -1.7370  3.1598
  464MOL0     H61232   9.671   4.403   7.675 -1.6630 -0.8578  0.0494
  464MOL0     H61233   9.449   4.376   7.635  1.2372  0.1362  0.9808
  464MOL0     H61234   9.357   3.945   6.225  2.5739  0.6305 -2.3199
  464MOL0     H61235   9.491   4.153   6.258 -2.0837 -1.3621 -0.6609
  464MOL0     H61236   9.760   4.398   6.464  1.1030  2.6171  1.4000
  464MOL0     H61237   9.885   4.603   6.486  2.2030  2.6766 -1.8780
  464MOL0     H61238  10.336   4.621   6.512  0.1388 -1.6634 -0.7501
  464MOL0     H61239  10.232   4.482   6.560  2.9456 -0.2114 -1.6087
  464MOL0     H61240  10.206   4.780   6.624 -1.4351  0.6479 -1.2348
  464MOL0     H61241  10.068   4.682   6.647  0.4988 -0.7302  1.8288
  464MOL0     H61242  10.334   4.667   6.787 -1.1741 -0.1436  0.7232
  464MOL0     H61243  10.230   4.523   6.794 -1.0701 -0.5618  0.7738
  464MOL0     H61244  10.132   4.788   6.859 -1.1468 -0.7467 -1.2669
  464MOL0     H61245  10.047   4.650   6.867  0.3893  1.7390 -3.9971
  464MOL0     H61246  10.251   4.689   7.248  2.2544 -1.4399 -0.3038
  464MOL0     H61247  10.204   4.412   6.272  0.1881  0.4574  0.4824
  464MOL0     H61248  10.070   4.213   6.248 -0.2605  0.2263  2.2257
  465MOL0     O61249   8.488   0.302   4.619  0.2045  0.1095  0.0919
  465MOL0     C61250   8.532   0.200   4.659 -0.4171  1.3063  0.1011
  465MOL0     O61251   8.452   0.087   4.692  0.3460  0.1844 -0.0385
  465MOL0     C61252   8.322   0.099   4.650  0.0184 -0.3131 -0.1427
  465MOL0     C61253   8.221   0.119   4.748 -0.0635 -0.0759  0.1180
  465MOL0     C61254   8.089   0.145   4.712  0.4605 -0.0956  0.4131
  465MOL0     C61255   8.052   0.155   4.574 -0.1115 -0.1844 -0.3377
  465MOL0     O61256   7.927   0.193   4.536 -0.3261 -0.2052  0.0070
  465MOL0     C61257   7.810   0.198   4.621 -0.7487  0.2342  0.2259
  465MOL0     C61258   7.688   0.234   4.535  0.2459 -0.3160  0.7541
  465MOL0     C61259   7.641   0.124   4.436  0.9793  0.7367  0.1818
  465MOL0     C61260   7.522   0.159   4.352  0.2059 -0.0420 -0.1832
  465MOL0     C61261   7.393   0.207   4.425 -0.0413 -0.2811  0.0027
  465MOL0     C61262   7.286   0.235   4.322  0.4091 -0.2431  0.5819
  465MOL0     C61263   7.157   0.310   4.385  0.6172 -0.1911 -0.3963
  465MOL0     C61264   7.061   0.356   4.278 -0.7850  0.6538 -0.2985
  465MOL0     N61265   6.935   0.404   4.343  0.7193  0.2606  0.6379
  465MOL0     C61266   6.889   0.531   4.334  0.7893 -0.4651 -0.5747
  465MOL0     C61267   6.753   0.514   4.351  0.3906 -0.1506 -0.2960
  465MOL0     C61268   6.649   0.629   4.344 -0.3875  0.6939 -0.1659
  465MOL0     C61269   6.584   0.641   4.208  0.1344 -0.0679  0.6121
  465MOL0     C61270   6.495   0.760   4.204 -0.3600  0.4818  0.1490
  465MOL0     C61271   6.382   0.742   4.100  0.1616 -0.5020  0.1518
  465MOL0     O61272   6.307   0.863   4.087 -0.0915  1.1300  0.0097
  465MOL0     C61273   6.202   0.860   4.002  0.7954 -0.3080  0.3309
  465MOL0     C61274   6.201   0.779   3.885  0.1871 -0.2328  0.6416
  465MOL0     C61275   6.090   0.788   3.801  0.6132  0.4846 -0.3327
  465MOL0     C61276   5.971   0.867   3.843  0.4773  1.4933  0.7713
  465MOL0     C61277   5.847   0.847   3.766  0.4079  1.0397 -0.0671
  465MOL0     O61278   5.730   0.901   3.804 -0.3108  0.5139 -0.1995
  465MOL0     C61279   5.615   0.860   3.744 -0.0102  0.1342  0.2626
  465MOL0     C61280   5.595   0.914   3.618  0.5440  0.0780 -0.1044
  465MOL0     C61281   5.479   0.886   3.543 -0.3607 -1.0956 -0.2723
  465MOL0     C61282   5.378   0.815   3.600 -0.0310  0.6191  0.7040
  465MOL0     O61283   5.265   0.821   3.523 -0.0854 -0.0305 -0.2966
  465MOL0     C61284   5.158   0.783   3.605 -0.2642  0.4400 -0.2484
  465MOL0     C61285   5.026   0.823   3.534  0.0340 -0.1183 -0.8619
  465MOL0     C61286   5.010   0.736   3.411  0.6514 -0.8852  0.2580
  465MOL0     C61287   4.879   0.769   3.342  0.3424  0.3448  0.2414
  465MOL0     C61288   4.839   0.680   3.222  0.8578  0.3124  0.7782
  465MOL0     C61289   4.693   0.716   3.194  0.4117 -0.8018  0.3971
  465MOL0     C61290   4.633   0.646   3.072 -0.6091  0.2633 -0.9256
  465MOL0     C61291   4.483   0.649   3.084  0.7987 -0.2188 -0.1203
  465MOL0    Cl61292   4.424   0.563   3.235  0.4242 -0.0139 -0.2431
  465MOL0     C61293   5.405   0.753   3.728  0.6825  0.5983  0.0890
  465MOL0     C61294   5.516   0.780   3.802 -0.6338  0.3529  0.1297
  465MOL0     O61295   5.861   0.777   3.665 -0.1152 -0.4946  0.6407
  465MOL0     C61296   5.984   0.942   3.961  0.6429 -0.5240 -0.1701
  465MOL0     C61297   6.099   0.949   4.042 -0.4906 -0.3052 -0.7454
  465MOL0     N61298   6.731   0.387   4.379 -0.1285 -0.3171  0.2649
  465MOL0     N61299   6.840   0.317   4.372 -0.3216  0.3169 -0.9374
  465MOL0     C61300   8.142   0.112   4.481 -0.1795  0.4915 -0.5712
  465MOL0     C61301   8.282   0.097   4.518  0.4131  0.0983 -0.1396
  465MOL0     C61302   8.680   0.189   4.664  0.0791 -0.5464 -0.7520
  465MOL0     C61303   8.751   0.070   4.690 -0.7442 -0.0651 -0.4885
  465MOL0     C61304   8.888   0.063   4.705 -0.6564 -0.3935  0.5758
  465MOL0     C61305   8.956   0.188   4.691 -0.4400  1.2799  0.7712
  465MOL0     O61306   9.084   0.209   4.718  0.8026  0.0421 -0.2785
  465MOL0     C61307   9.158   0.103   4.777 -0.2359 -0.1654  0.7855
  465MOL0     C61308   9.299   0.156   4.799  0.4447 -0.6004 -0.0382
  465MOL0     C61309   9.353   0.241   4.686 -0.0283 -0.1394  0.1464
  465MOL0     C61310   9.493   0.282   4.738  0.4224 -1.7712  0.3246
  465MOL0     C61311   9.589   0.181   4.782  0.3402  0.9059 -0.5883
  465MOL0     C61312   9.681   0.105   4.813  0.5154  1.1188  0.3792
  465MOL0     C61313   8.891   0.298   4.651 -0.3887  0.6470 -0.4143
  465MOL0     C61314   8.757   0.307   4.643  0.6889 -0.4935  0.3249
  465MOL0     H61315   8.243   0.106   4.853  1.2561  0.2732 -0.0909
  465MOL0     H61316   8.020   0.158   4.795  1.2905  0.1692  1.0773
  465MOL0     H61317   7.814   0.275   4.699 -0.2482  1.8079 -1.3021
  465MOL0     H61318   7.799   0.100   4.668 -1.1153  0.9874  1.7912
  465MOL0     H61319   7.717   0.316   4.469 -2.2518  0.5131  0.6068
  465MOL0     H61320   7.607   0.270   4.599 -0.0757  0.9976 -0.3568
  465MOL0     H61321   7.629   0.031   4.492 -0.5859  1.7586  1.6498
  465MOL0     H61322   7.723   0.105   4.366  0.1167 -0.7089 -0.4990
  465MOL0     H61323   7.556   0.249   4.301  0.0227 -0.2120 -0.6048
  465MOL0     H61324   7.489   0.077   4.287 -0.8174  1.2032 -1.2840
  465MOL0     H61325   7.408   0.298   4.484 -2.8552  1.8793 -2.2868
  465MOL0     H61326   7.369   0.128   4.497 -2.2008 -1.0007 -1.4208
  465MOL0     H61327   7.250   0.153   4.259 -2.8527  1.7677 -0.4276
  465MOL0     H61328   7.336   0.305   4.254 -1.5579 -0.3728 -1.0759
  465MOL0     H61329   7.110   0.231   4.444 -2.0506  1.1910 -0.5113
  465MOL0     H61330   7.179   0.397   4.448  1.1099  0.6199 -1.6490
  465MOL0     H61331   7.034   0.275   4.210  1.8103  0.0374 -0.6717
  465MOL0     H61332   7.105   0.439   4.222  1.7048 -0.6649 -0.4265
  465MOL0     H61333   6.940   0.626   4.327 -0.6525  0.3525 -0.2014
  465MOL0     H61334   6.704   0.720   4.368  2.3575 -0.5494 -1.3093
  465MOL0     H61335   6.567   0.614   4.414 -0.1388 -0.8602 -0.1712
  465MOL0     H61336   6.530   0.548   4.185 -0.2278  0.3822 -0.4256
  465MOL0     H61337   6.659   0.661   4.131 -0.8975  0.4526 -0.2904
  465MOL0     H61338   6.433   0.774   4.293 -1.2202  1.1131 -0.5360
  465MOL0     H61339   6.561   0.844   4.182  0.5155 -0.5660 -1.4109
  465MOL0     H61340   6.314   0.666   4.140 -3.5560  2.8135  0.7632
  465MOL0     H61341   6.427   0.718   4.004 -0.5698  1.2550 -0.6677
  465MOL0     H61342   6.289   0.738   3.838  0.5303  2.5980 -1.4547
  465MOL0     H61343   6.092   0.741   3.703  0.2963 -0.9343  0.3208
  465MOL0     H61344   5.663   0.989   3.577  2.1316 -1.4567 -0.3876
  465MOL0     H61345   5.457   0.937   3.450 -1.1171  0.7457  0.8646
  465MOL0     H61346   5.160   0.833   3.703 -2.1534  0.8249 -0.3671
  465MOL0     H61347   5.176   0.675   3.609 -1.2010  0.2888  0.1015
  465MOL0     H61348   5.014   0.930   3.519 -1.2416  0.1135  1.3676
  465MOL0     H61349   4.952   0.799   3.610  0.4632  1.8611  0.2429
  465MOL0     H61350   4.984   0.636   3.446 -1.8683 -0.9579 -1.5290
  465MOL0     H61351   5.100   0.738   3.348 -0.3674 -1.3990 -1.2625
  465MOL0     H61352   4.809   0.779   3.426  1.7340 -1.2543  1.6719
  465MOL0     H61353   4.888   0.869   3.299 -0.3966  0.3939  0.1812
  465MOL0     H61354   4.856   0.574   3.242  2.0951  0.1167 -1.0211
  465MOL0     H61355   4.901   0.708   3.136  1.7876 -2.0560  0.6036
  465MOL0     H61356   4.685   0.825   3.183  1.2704 -0.8737 -1.3744
  465MOL0     H61357   4.629   0.689   3.278 -2.0610  0.6356 -0.9253
  465MOL0     H61358   4.674   0.698   2.985  0.6820  3.6466  1.5098
  465MOL0     H61359   4.658   0.540   3.070 -0.5603  0.2073  1.1826
  465MOL0     H61360   4.445   0.592   2.999 -1.0097 -1.2715  1.3368
  465MOL0     H61361   4.437   0.747   3.067  1.1436  0.6487  3.2174
  465MOL0     H61362   5.336   0.689   3.784  1.7162 -0.0617  0.6541
  465MOL0     H61363   5.528   0.735   3.900 -3.3670 -1.0814 -0.0910
  465MOL0     H61364   5.895   0.996   3.993  0.1941 -2.7638  2.8251
  465MOL0     H61365   6.105   0.992   4.141 -1.0317  1.3666 -1.4168
  465MOL0     H61366   8.108   0.092   4.379  1.8992 -2.6606 -0.7893
  465MOL0     H61367   8.343   0.070   4.433  0.5427 -1.6475  0.4728
  465MOL0     H61368   8.683  -0.014   4.700 -2.2874  0.8606 -2.5057
  465MOL0     H61369   8.946  -0.027   4.725  0.2250  0.1647  0.5630
  465MOL0     H61370   9.165   0.014   4.713 -3.8282 -0.5257  0.7067
  465MOL0     H61371   9.129   0.068   4.876  2.2730  2.3441  2.5704
  465MOL0     H61372   9.308   0.220   4.886  4.6447 -1.4913  0.4132
  465MOL0     H61373   9.363   0.071   4.824 -0.3117 -1.2420 -0.2042
  465MOL0     H61374   9.294   0.326   4.650 -0.7985 -0.4113  0.7455
  465MOL0     H61375   9.367   0.176   4.599  0.0820 -1.5537  1.1715
  465MOL0     H61376   9.554   0.348   4.676  4.0511  1.0480  6.0007
  465MOL0     H61377   9.470   0.350   4.821  0.7667 -1.7858  0.4352
  465MOL0     H61378   9.761   0.041   4.843 -1.1060 -2.5970 -2.4670
  465MOL0     H61379   8.945   0.392   4.640 -0.6151  1.0483  1.5773
  465MOL0     H61380   8.716   0.405   4.622  0.2260 -0.7430  0.0386
  466MOL0     O61381   8.791   8.463   3.248  0.1713 -0.4012 -0.9545
  466MOL0     C61382   8.906   8.467   3.279  0.7478 -0.2643 -0.2510
  466MOL0     O61383   8.957   8.554   3.373  0.0088  0.3098 -0.3301
  466MOL0     C61384   8.884   8.616   3.469  0.2967 -0.6364 -0.0145
  466MOL0     C61385   8.758   8.556   3.514 -0.1054  0.1546 -0.4691
  466MOL0     C61386   8.680   8.618   3.610  0.1557  0.9332  0.7288
  466MOL0     C61387   8.723   8.725   3.679 -0.5991 -0.7546  0.2133
  466MOL0     O61388   8.658   8.796   3.777 -0.0955  0.2548  0.0870
  466MOL0     C61389   8.517   8.806   3.796 -0.0005 -0.2275 -1.0477
  466MOL0     C61390   8.465   8.936   3.735 -0.4558  0.0470 -0.4965
  466MOL0     C61391   8.478   9.052   3.829 -0.1085 -0.6279  0.2227
  466MOL0     C61392   8.486   9.171   3.735  0.1313 -0.6769  0.2790
  466MOL0     C61393   8.432   9.302   3.796 -0.3149  0.2863  0.5032
  466MOL0     C61394   8.310   9.303   3.878 -0.5796 -0.2928 -0.1771
  466MOL0     C61395   8.178   9.246   3.814  0.7101 -0.1479  0.4251
  466MOL0     C61396   8.061   9.245   3.920 -0.2626  1.0255 -0.2051
  466MOL0     N61397   7.957   9.162   3.864  0.1779  0.2334 -0.0222
  466MOL0     C61398   7.916   9.037   3.901  0.2893 -1.4816  0.4423
  466MOL0     C61399   7.813   9.016   3.817 -0.3664  0.7297  0.6230
  466MOL0     C61400   7.732   8.887   3.835  0.3333  0.4744  0.2919
  466MOL0     C61401   7.671   8.869   3.979  0.0090 -0.9171  0.1562
  466MOL0     C61402   7.608   8.996   4.038  1.1320  0.4916 -0.2491
  466MOL0     C61403   7.545   8.971   4.173  1.2759 -0.8698  0.8032
  466MOL0     O61404   7.428   8.892   4.166  0.2767 -0.5957 -0.3736
  466MOL0     C61405   7.306   8.953   4.132 -0.1471 -0.0341 -0.2149
  466MOL0     C61406   7.202   8.871   4.156 -0.5874 -1.3737 -0.0807
  466MOL0     C61407   7.079   8.915   4.121 -0.5253 -0.5370 -0.3943
  466MOL0     C61408   7.052   9.042   4.075  0.3368 -0.3721 -0.0834
  466MOL0     C61409   6.926   9.092   4.046  0.4740 -0.3933  0.8799
  466MOL0     O61410   6.828   9.016   4.101 -0.7202  0.7123  0.4614
  466MOL0     C61411   6.697   9.020   4.056 -0.3456 -0.4892  0.6172
  466MOL0     C61412   6.660   9.067   3.930 -0.7240 -0.2751 -0.5695
  466MOL0     C61413   6.527   9.054   3.882 -0.4115  0.0687  0.5982
  466MOL0     C61414   6.425   9.003   3.967  0.7958 -0.7883 -0.0032
  466MOL0     O61415   6.294   8.989   3.939 -0.2928 -0.0520 -0.8523
  466MOL0     C61416   6.264   8.919   3.819  0.9087  0.1946 -0.4686
  466MOL0     C61417   6.204   8.781   3.857 -0.4810 -0.3463 -0.3240
  466MOL0     C61418   6.316   8.680   3.890  0.0371  0.1549  0.3159
  466MOL0     C61419   6.429   8.669   3.783  0.8225 -0.2290  0.1110
  466MOL0     C61420   6.514   8.542   3.786  0.1027 -0.4859  0.9488
  466MOL0     C61421   6.599   8.517   3.656  0.0990 -1.1442  0.2439
  466MOL0     C61422   6.681   8.641   3.614 -0.2162  0.6495  0.9134
  466MOL0     C61423   6.799   8.677   3.703  0.5438  0.1243 -0.3874
  466MOL0    Cl61424   6.912   8.802   3.651 -0.0010  0.1752 -0.5023
  466MOL0     C61425   6.465   8.972   4.097  0.4573  0.7286  0.3508
  466MOL0     C61426   6.599   8.980   4.140  0.1844 -0.1963 -0.2526
  466MOL0     O61427   6.914   9.198   3.975  0.9417  0.6060  0.6383
  466MOL0     C61428   7.156   9.128   4.059 -0.6979  0.6062 -0.0681
  466MOL0     C61429   7.293   9.088   4.093  0.7704  0.4241  0.4348
  466MOL0     N61430   7.791   9.117   3.730  0.2330 -0.4050  0.0031
  466MOL0     N61431   7.880   9.205   3.757  0.2204 -0.1698  0.8120
  466MOL0     C61432   8.848   8.770   3.640  0.1856 -0.0425 -1.5446
  466MOL0     C61433   8.919   8.725   3.537  0.4142 -0.0831 -0.1573
  466MOL0     C61434   9.009   8.379   3.212 -0.4112 -0.0171  0.3917
  466MOL0     C61435   8.958   8.280   3.122 -0.1071  0.0694  0.1319
  466MOL0     C61436   9.047   8.192   3.060  0.6502 -0.6211 -0.0004
  466MOL0     C61437   9.184   8.195   3.090  0.5120 -1.1661  0.7604
  466MOL0     O61438   9.276   8.106   3.029  0.7273 -0.1915  0.3282
  466MOL0     C61439   9.388   8.056   3.102 -0.4950 -0.7449 -0.6160
  466MOL0     C61440   9.523   8.115   3.062 -0.2077  0.1760  0.9029
  466MOL0     C61441   9.631   8.053   3.149 -0.5711 -0.8819  0.0223
  466MOL0     C61442   9.760   8.122   3.118  0.3658  0.4709  0.2222
  466MOL0     C61443   9.868   8.050   3.189  0.6317 -0.1334  0.9871
  466MOL0     C61444   9.942   7.969   3.224  0.4079  0.0640  0.9775
  466MOL0     C61445   9.223   8.290   3.180 -0.1440  0.0841 -0.6318
  466MOL0     C61446   9.139   8.378   3.250  0.2407 -0.7388  0.6589
  466MOL0     H61447   8.705   8.478   3.461 -0.1791 -1.8706  2.3567
  466MOL0     H61448   8.579   8.599   3.644 -0.0433 -0.3094 -0.4739
  466MOL0     H61449   8.496   8.802   3.903 -0.9682 -0.2053 -1.2252
  466MOL0     H61450   8.467   8.726   3.740 -0.7368  1.5068 -2.9843
  466MOL0     H61451   8.361   8.915   3.710  0.0494  0.8293 -3.5719
  466MOL0     H61452   8.516   8.948   3.639 -0.2733 -2.2753 -0.7429
  466MOL0     H61453   8.567   9.045   3.891  0.6226 -2.6945 -0.9276
  466MOL0     H61454   8.392   9.056   3.896 -1.2162  1.2107 -1.2005
  466MOL0     H61455   8.588   9.177   3.697  0.4606 -1.0873  1.0866
  466MOL0     H61456   8.418   9.153   3.651  0.9480  3.0423 -1.3897
  466MOL0     H61457   8.414   9.370   3.712  0.3745  0.7178  0.6921
  466MOL0     H61458   8.520   9.339   3.848  1.3894 -0.7133 -1.5384
  466MOL0     H61459   8.287   9.407   3.900 -2.7478 -1.2788  3.1689
  466MOL0     H61460   8.329   9.256   3.975  1.2402  0.6534 -0.0442
  466MOL0     H61461   8.146   9.313   3.734 -0.8204 -1.0826  0.2160
  466MOL0     H61462   8.191   9.143   3.779 -0.9683 -0.8437  1.7140
  466MOL0     H61463   8.029   9.348   3.936 -0.0935  1.0917 -0.2971
  466MOL0     H61464   8.089   9.203   4.017 -0.4195 -1.6698 -1.2279
  466MOL0     H61465   7.947   8.974   3.983  2.0504 -0.3764  0.6876
  466MOL0     H61466   7.792   8.797   3.819 -0.8307  0.0749 -2.5020
  466MOL0     H61467   7.654   8.896   3.759  0.6491  3.4163  0.1887
  466MOL0     H61468   7.757   8.837   4.038  1.1686  3.2426  1.0217
  466MOL0     H61469   7.594   8.792   3.968 -2.6508  1.8355 -2.9452
  466MOL0     H61470   7.681   9.075   4.058  3.4587 -1.4075 -0.7448
  466MOL0     H61471   7.540   9.039   3.963 -0.9012 -4.1026 -1.4442
  466MOL0     H61472   7.514   9.061   4.226 -1.8324 -0.4514 -1.4287
  466MOL0     H61473   7.623   8.931   4.238  1.0240 -0.1902  1.5365
  466MOL0     H61474   7.225   8.771   4.190 -3.3581 -0.9577  3.5547
  466MOL0     H61475   7.004   8.839   4.142  0.7991 -1.7477  0.1175
  466MOL0     H61476   6.729   9.093   3.850 -1.1687 -0.4035 -0.9954
  466MOL0     H61477   6.504   9.083   3.779 -0.2293  2.3298  1.1296
  466MOL0     H61478   6.353   8.914   3.755  1.1372 -2.9881 -0.0380
  466MOL0     H61479   6.178   8.970   3.773 -0.0791 -3.2505 -2.8495
  466MOL0     H61480   6.146   8.736   3.776  2.6998 -2.3345 -1.6697
  466MOL0     H61481   6.143   8.785   3.948  0.1442 -0.8774  0.1287
  466MOL0     H61482   6.266   8.583   3.900 -2.4513  1.1236 -1.6328
  466MOL0     H61483   6.357   8.708   3.988  0.0101  1.8158 -0.1237
  466MOL0     H61484   6.381   8.679   3.685  2.7191  1.2941 -0.7258
  466MOL0     H61485   6.491   8.759   3.783 -1.3694  1.3411 -0.3036
  466MOL0     H61486   6.459   8.449   3.806  1.0251 -1.3746 -0.4936
  466MOL0     H61487   6.579   8.545   3.874 -0.3874 -0.1149  1.3048
  466MOL0     H61488   6.523   8.493   3.582  1.5291 -2.9666 -0.7401
  466MOL0     H61489   6.657   8.424   3.651 -0.5660 -1.5491 -0.0740
  466MOL0     H61490   6.722   8.624   3.514  1.6689 -1.8071  2.0036
  466MOL0     H61491   6.610   8.724   3.613 -1.2033 -0.1593  1.8277
  466MOL0     H61492   6.859   8.588   3.723  1.0201  0.6197  0.4441
  466MOL0     H61493   6.743   8.712   3.790 -1.5970 -0.5417 -1.4339
  466MOL0     H61494   6.398   8.926   4.169 -1.8304 -0.6928 -2.4800
  466MOL0     H61495   6.614   8.940   4.240  0.2613 -1.2031 -0.6591
  466MOL0     H61496   7.152   9.231   4.025 -2.0784 -0.2392 -2.7911
  466MOL0     H61497   7.375   9.158   4.077 -1.5446  2.6923 -2.6936
  466MOL0     H61498   8.888   8.863   3.681 -2.1811 -0.4403  2.1243
  466MOL0     H61499   9.014   8.771   3.511  0.0406  0.9056  0.2102
  466MOL0     H61500   8.853   8.279   3.097 -0.6202 -0.7390  2.0855
  466MOL0     H61501   9.017   8.117   2.988  1.9041 -1.4277  0.2717
  466MOL0     H61502   9.405   7.949   3.084  3.8582  0.0218 -2.3227
  466MOL0     H61503   9.374   8.064   3.210  0.6043  0.7353 -0.5488
  466MOL0     H61504   9.529   8.094   2.955 -1.5299  3.1769  0.1284
  466MOL0     H61505   9.531   8.221   3.086 -1.1737  0.6386 -0.6673
  466MOL0     H61506   9.626   7.945   3.131 -2.8490 -0.6085 -1.4105
  466MOL0     H61507   9.611   8.080   3.253 -1.4886 -0.3208 -0.2903
  466MOL0     H61508   9.783   8.124   3.011  0.4642  1.5425  0.2484
  466MOL0     H61509   9.754   8.224   3.159  0.1928  1.4365 -2.0660
  466MOL0     H61510  10.016   7.902   3.265 -3.0268 -3.4682  2.0067
  466MOL0     H61511   9.324   8.291   3.219 -1.0491  2.2606  1.9713
  466MOL0     H61512   9.181   8.446   3.323 -0.3001  0.1911  0.1270
  467MOL0     O61513  10.544   5.099   1.991 -0.4054 -0.1372  0.3792
  467MOL0     C61514  10.570   5.213   1.950  0.6293  0.3997 -1.3632
  467MOL0     O61515  10.502   5.280   1.863 -0.4314 -0.3276  0.0208
  467MOL0     C61516  10.395   5.218   1.809 -0.4715 -0.0177  0.0435
  467MOL0     C61517  10.263   5.218   1.867 -0.0666 -1.6858  0.5617
  467MOL0     C61518  10.155   5.152   1.805  0.8950  0.8547 -0.0335
  467MOL0     C61519  10.172   5.091   1.683  0.0643 -1.1115  0.1459
  467MOL0     O61520  10.065   5.034   1.622 -0.1159  0.0833  0.5793
  467MOL0     C61521  10.083   4.981   1.489  0.0183 -0.0457  0.1226
  467MOL0     C61522   9.941   4.938   1.442 -1.6288  0.0963 -1.0836
  467MOL0     C61523   9.886   4.798   1.473 -0.8439  0.3287 -0.0017
  467MOL0     C61524   9.748   4.771   1.427  0.5465 -0.7601  0.1061
  467MOL0     C61525   9.713   4.816   1.283 -0.4538 -0.5006  0.8537
  467MOL0     C61526   9.593   4.739   1.240  0.6173  0.5276 -0.0763
  467MOL0     C61527   9.563   4.776   1.092  0.2854  0.1835  0.0266
  467MOL0     C61528   9.432   4.716   1.044  0.2686  0.9229 -0.5339
  467MOL0     N61529   9.415   4.758   0.909  0.3532 -0.5260 -0.8095
  467MOL0     C61530   9.390   4.680   0.800 -0.0164  1.3890  0.1337
  467MOL0     C61531   9.375   4.759   0.696 -0.9399  0.5913  0.2885
  467MOL0     C61532   9.361   4.721   0.543  0.2554  0.5487 -0.4757
  467MOL0     C61533   9.500   4.731   0.468 -0.5247  0.3903  0.0441
  467MOL0     C61534   9.604   4.619   0.502 -0.1772 -0.0125 -0.9627
  467MOL0     C61535   9.734   4.653   0.441 -1.7639  0.1747 -0.8916
  467MOL0     O61536   9.789   4.791   0.465  0.0166  0.3802  0.7957
  467MOL0     C61537   9.862   4.807   0.578  0.0969  0.0722 -0.3310
  467MOL0     C61538   9.799   4.862   0.687 -0.0425 -0.0049 -0.8221
  467MOL0     C61539   9.860   4.878   0.803  0.5312 -0.2852 -0.2101
  467MOL0     C61540   9.998   4.849   0.810 -0.5171  0.3064  0.2390
  467MOL0     C61541  10.074   4.868   0.929 -0.1280 -0.6166  0.0066
  467MOL0     O61542  10.218   4.872   0.923  0.1545  0.1286  0.0882
  467MOL0     C61543  10.285   4.921   1.038 -0.0227 -0.4965  0.2505
  467MOL0     C61544  10.402   4.849   1.081  0.3397 -0.3988 -0.6660
  467MOL0     C61545  10.478   4.886   1.191 -0.7291  0.0945  0.3954
  467MOL0     C61546  10.437   4.996   1.269 -0.1538 -0.1960  0.3771
  467MOL0     O61547  10.503   5.043   1.382 -0.0168 -0.2742  0.5271
  467MOL0     C61548  10.635   4.982   1.411 -0.7479 -0.5303  0.0086
  467MOL0     C61549  10.694   5.059   1.530  0.0400 -0.6642 -0.7195
  467MOL0     C61550  10.840   5.024   1.560  0.0877 -1.7049 -1.3306
  467MOL0     C61551  10.893   5.137   1.664  0.3087  0.3626  1.4012
  467MOL0     C61552  11.025   5.089   1.718  0.2419 -0.9344 -0.4971
  467MOL0     C61553  11.141   5.086   1.620 -0.3664 -0.5161  1.0210
  467MOL0     C61554  11.167   5.225   1.568 -0.1980  0.8050 -0.5910
  467MOL0     C61555  11.290   5.219   1.479  0.0679  0.2227  0.2314
  467MOL0    Cl61556  11.441   5.194   1.566 -0.3759  0.0367 -0.0876
  467MOL0     C61557  10.324   5.063   1.230 -0.1841  0.6126 -0.2496
  467MOL0     C61558  10.247   5.032   1.116 -0.8746 -0.3802  0.0178
  467MOL0     O61559  10.001   4.887   1.031 -0.4954 -0.0237  0.0410
  467MOL0     C61560  10.065   4.808   0.696  0.0255 -0.4014  0.0039
  467MOL0     C61561   9.999   4.774   0.580  0.2915  0.0005 -0.4242
  467MOL0     N61562   9.376   4.885   0.744 -0.4812 -0.6179  0.1684
  467MOL0     N61563   9.409   4.885   0.878  0.0017  0.5507 -0.1515
  467MOL0     C61564  10.291   5.110   1.617 -0.7607 -0.4496  0.0920
  467MOL0     C61565  10.402   5.173   1.676 -0.1117 -0.7753 -0.0543
  467MOL0     C61566  10.684   5.282   2.026  0.5003 -0.7752  0.0174
  467MOL0     C61567  10.761   5.384   1.969  0.0892  0.0957 -0.0853
  467MOL0     C61568  10.882   5.424   2.027 -0.0474  0.2065 -0.0524
  467MOL0     C61569  10.926   5.362   2.139 -0.1488  0.1036  0.0441
  467MOL0     O61570  11.043   5.394   2.208 -0.4423 -0.0562 -0.2483
  467MOL0     C61571  11.161   5.414   2.133 -0.2735  0.8535 -0.0971
  467MOL0     C61572  11.278   5.415   2.232  0.0063 -1.1480  0.1300
  467MOL0     C61573  11.290   5.566   2.266  0.5318  0.1469 -0.2181
  467MOL0     C61574  11.410   5.629   2.183 -0.7573  0.4351  0.4632
  467MOL0     C61575  11.418   5.765   2.221  0.1073  0.0581 -0.4986
  467MOL0     C61576  11.429   5.879   2.271 -0.8218 -0.8425  0.4602
  467MOL0     C61577  10.841   5.272   2.207  0.1392 -0.8429  0.6787
  467MOL0     C61578  10.720   5.242   2.151  0.5585 -0.6209  0.3950
  467MOL0     H61579  10.247   5.263   1.965 -1.2338 -0.8843  0.0205
  467MOL0     H61580  10.058   5.137   1.851  0.5246  1.7893 -0.4769
  467MOL0     H61581  10.157   4.900   1.486 -0.2795 -0.2991 -0.7090
  467MOL0     H61582  10.114   5.054   1.414  0.0044  0.8265  0.9580
  467MOL0     H61583   9.941   4.951   1.333  1.2524 -0.5210 -1.2435
  467MOL0     H61584   9.877   5.019   1.479 -1.5794 -1.0224  1.6801
  467MOL0     H61585   9.887   4.785   1.581  0.7342 -2.1971 -0.2357
  467MOL0     H61586   9.954   4.729   1.421  0.1255  0.5674  0.9255
  467MOL0     H61587   9.724   4.665   1.442 -0.1141 -0.4294  1.5521
  467MOL0     H61588   9.672   4.828   1.482  0.3980 -1.3953  0.5783
  467MOL0     H61589   9.798   4.797   1.217  0.8409 -2.5637  2.9373
  467MOL0     H61590   9.704   4.925   1.287 -0.0785 -0.5063  2.4506
  467MOL0     H61591   9.516   4.761   1.315 -1.1712 -0.5442 -1.5087
  467MOL0     H61592   9.621   4.634   1.252 -1.7329 -0.0713  0.7203
  467MOL0     H61593   9.560   4.885   1.081 -1.4893 -0.0069 -2.3330
  467MOL0     H61594   9.650   4.738   1.038  0.4890 -0.3548  0.7277
  467MOL0     H61595   9.347   4.736   1.110 -1.2533  1.0764 -2.4634
  467MOL0     H61596   9.448   4.608   1.048  0.9567  1.0277  3.3203
  467MOL0     H61597   9.390   4.571   0.795  2.2024  1.3835 -1.9845
  467MOL0     H61598   9.298   4.799   0.500 -0.8728 -1.0707 -1.8573
  467MOL0     H61599   9.322   4.621   0.525  2.5024 -0.1488 -1.7954
  467MOL0     H61600   9.551   4.827   0.484  0.0627 -0.1465  1.5856
  467MOL0     H61601   9.481   4.721   0.361 -0.8516 -3.9114  0.3412
  467MOL0     H61602   9.629   4.609   0.608  0.7011 -2.9088 -1.3664
  467MOL0     H61603   9.581   4.518   0.469  2.6707 -0.7348 -1.0404
  467MOL0     H61604   9.718   4.639   0.334 -2.6951  0.0032 -0.7312
  467MOL0     H61605   9.811   4.580   0.468 -0.4835  1.7771  0.0434
  467MOL0     H61606   9.696   4.893   0.677 -0.1828 -0.4494 -0.7743
  467MOL0     H61607   9.789   4.895   0.884 -2.3692  0.5077 -2.7318
  467MOL0     H61608  10.431   4.765   1.020 -2.1293 -0.6216 -1.6536
  467MOL0     H61609  10.568   4.834   1.221  0.6761  1.5735 -0.9789
  467MOL0     H61610  10.702   4.986   1.325 -0.4382 -1.4467  0.1913
  467MOL0     H61611  10.624   4.876   1.434  0.5162 -1.1381 -1.9145
  467MOL0     H61612  10.645   5.031   1.624 -0.8278  1.5938 -0.4434
  467MOL0     H61613  10.685   5.167   1.515 -1.2003 -0.3463  1.8086
  467MOL0     H61614  10.902   5.021   1.471  1.0786  0.5514 -0.7845
  467MOL0     H61615  10.847   4.921   1.596 -1.1354 -1.9519 -1.7277
  467MOL0     H61616  10.891   5.237   1.619 -0.2944 -0.6616 -0.9979
  467MOL0     H61617  10.816   5.135   1.741 -0.9162 -1.3067  0.2061
  467MOL0     H61618  11.006   4.984   1.743 -1.0012 -0.5198  0.4119
  467MOL0     H61619  11.040   5.141   1.813 -0.3975 -1.8671  0.1408
  467MOL0     H61620  11.125   5.012   1.541 -1.2229  2.2461 -1.6102
  467MOL0     H61621  11.219   5.039   1.680 -1.3949 -0.6859  2.2747
  467MOL0     H61622  11.085   5.269   1.511 -1.8015  0.3756  1.2636
  467MOL0     H61623  11.182   5.285   1.658 -0.1204  0.2959 -0.2634
  467MOL0     H61624  11.292   5.308   1.415 -0.2630  0.6715  0.8378
  467MOL0     H61625  11.289   5.132   1.412 -0.1640  0.6744 -0.3540
  467MOL0     H61626  10.281   5.137   1.296 -1.1724 -0.8936  0.8664
  467MOL0     H61627  10.146   5.069   1.101 -1.2669 -0.3022  2.4358
  467MOL0     H61628  10.173   4.797   0.688  0.4382  2.6218  0.2972
  467MOL0     H61629  10.048   4.730   0.494  0.5364 -0.1151 -0.2283
  467MOL0     H61630  10.308   5.084   1.513  0.1520 -1.6734  0.5282
  467MOL0     H61631  10.498   5.190   1.629  3.0416 -2.5765  4.9218
  467MOL0     H61632  10.718   5.426   1.879 -3.2113 -0.1436  1.2599
  467MOL0     H61633  10.935   5.508   1.984 -0.0704 -0.1847 -0.8625
  467MOL0     H61634  11.163   5.500   2.065  1.5695 -0.0304 -1.2651
  467MOL0     H61635  11.172   5.314   2.089  0.0764  0.0507  1.7361
  467MOL0     H61636  11.266   5.345   2.316 -0.7349 -1.6972 -0.4217
  467MOL0     H61637  11.377   5.385   2.197  0.8191  1.9186 -0.4972
  467MOL0     H61638  11.302   5.582   2.374  0.2102 -0.3310 -0.1089
  467MOL0     H61639  11.196   5.619   2.249 -1.5640 -1.9115  3.6002
  467MOL0     H61640  11.500   5.574   2.209  0.2864  1.4267 -0.9608
  467MOL0     H61641  11.401   5.623   2.074  0.8445 -1.8749  0.3951
  467MOL0     H61642  11.452   5.975   2.311  0.8415  0.1537 -2.5328
  467MOL0     H61643  10.871   5.229   2.302  1.8011  1.6912  1.4148
  467MOL0     H61644  10.659   5.167   2.201 -0.0540 -0.6314 -0.3619
  468MOL0     O61645   0.176   0.873   6.082  0.2494 -0.3560  0.1233
  468MOL0     C61646   0.178   0.850   6.210  0.8610 -0.0858  1.1248
  468MOL0     O61647   0.062   0.821   6.275  0.4380 -0.1525  0.1222
  468MOL0     C61648  -0.061   0.881   6.247 -0.8685 -0.7832  0.1632
  468MOL0     C61649  -0.088   1.002   6.173 -0.0288  0.2807 -0.3686
  468MOL0     C61650  -0.215   1.064   6.180  0.7092  0.2964 -0.2417
  468MOL0     C61651  -0.319   1.006   6.247 -0.2889  1.5365 -1.4542
  468MOL0     O61652  -0.448   1.053   6.260 -0.3087 -0.0834 -0.6664
  468MOL0     C61653  -0.476   1.170   6.181  0.4178  0.2968  0.4618
  468MOL0     C61654  -0.615   1.201   6.182  0.4635  0.6827  0.4086
  468MOL0     C61655  -0.660   1.340   6.132 -0.2502  0.0767  0.5722
  468MOL0     C61656  -0.809   1.335   6.107 -0.1077  0.3946  1.0068
  468MOL0     C61657  -0.847   1.457   6.027  0.3432  0.6250  0.1081
  468MOL0     C61658  -0.988   1.433   5.989 -0.2091  0.2903 -0.1332
  468MOL0     C61659  -1.052   1.545   5.895 -0.2201 -0.7159 -1.1890
  468MOL0     C61660  -1.195   1.525   5.853  0.2849  0.7270  1.2441
  468MOL0     N61661  -1.293   1.529   5.956  0.1219  1.0880 -0.5657
  468MOL0     C61662  -1.357   1.644   5.993 -0.4332  0.9821  0.3283
  468MOL0     C61663  -1.440   1.612   6.092  0.0450 -0.7114  0.4622
  468MOL0     C61664  -1.546   1.700   6.146  0.1995  0.1141  0.5633
  468MOL0     C61665  -1.671   1.643   6.205 -0.3008  0.1813 -0.2751
  468MOL0     C61666  -1.789   1.749   6.194  0.1806 -0.1409 -0.0661
  468MOL0     C61667  -1.901   1.706   6.280 -0.4825 -0.1782  0.2645
  468MOL0     O61668  -2.020   1.716   6.210  0.0684 -0.5847  0.5936
  468MOL0     C61669  -2.125   1.680   6.286 -0.2802 -0.4037 -0.5211
  468MOL0     C61670  -2.130   1.569   6.370  0.4042 -0.3447 -0.4280
  468MOL0     C61671  -2.239   1.532   6.436  1.1805 -0.0813 -0.1544
  468MOL0     C61672  -2.358   1.604   6.430  0.3511 -0.0916 -0.0754
  468MOL0     C61673  -2.486   1.560   6.499 -1.1803  0.1438  0.0411
  468MOL0     O61674  -2.498   1.427   6.506 -0.3027  0.4559 -0.2934
  468MOL0     C61675  -2.609   1.363   6.569  0.5905 -0.0245  0.7976
  468MOL0     C61676  -2.585   1.240   6.639 -0.4204  0.2707  0.2852
  468MOL0     C61677  -2.690   1.162   6.704 -1.0220 -0.0121  0.2909
  468MOL0     C61678  -2.821   1.207   6.687 -1.2720 -0.3460  0.4039
  468MOL0     O61679  -2.919   1.128   6.748  0.0628  0.0949 -0.4231
  468MOL0     C61680  -3.042   1.188   6.783  0.1044 -0.8670  0.3312
  468MOL0     C61681  -3.109   1.095   6.876  0.1450 -0.6354 -0.6857
  468MOL0     C61682  -3.258   1.098   6.867  0.2257 -0.3973 -0.6806
  468MOL0     C61683  -3.326   1.036   6.985 -0.0802  1.0848  0.5880
  468MOL0     C61684  -3.470   1.007   6.946 -0.2491 -0.1133  0.0012
  468MOL0     C61685  -3.529   0.912   7.060  0.9512  0.4358  0.2119
  468MOL0     C61686  -3.685   0.894   7.053 -0.0654 -0.0006  0.5928
  468MOL0     C61687  -3.733   0.779   7.134 -0.2953 -0.3157  0.8361
  468MOL0    Cl61688  -3.726   0.821   7.303 -0.0073  0.0061  0.1378
  468MOL0     C61689  -2.846   1.325   6.610  0.8663  0.8807  0.2494
  468MOL0     C61690  -2.742   1.405   6.557 -0.4286  0.1114 -0.0811
  468MOL0     O61691  -2.566   1.650   6.535  0.8318 -0.0418  1.6647
  468MOL0     C61692  -2.366   1.716   6.346 -1.2524 -0.9966  0.0345
  468MOL0     C61693  -2.249   1.752   6.280 -0.0347  0.1551  0.5991
  468MOL0     N61694  -1.417   1.482   6.123 -0.3574 -0.1007  0.6248
  468MOL0     N61695  -1.319   1.428   6.050  0.3739 -1.1567  0.0935
  468MOL0     C61696  -0.302   0.880   6.313 -0.6371 -0.4970 -0.5979
  468MOL0     C61697  -0.177   0.828   6.300 -0.2243  0.0152  0.0759
  468MOL0     C61698   0.312   0.848   6.269  0.3710 -0.7761  0.1683
  468MOL0     C61699   0.422   0.892   6.190 -0.8341  0.2508 -0.7466
  468MOL0     C61700   0.554   0.912   6.240  1.1458 -0.0786  0.2510
  468MOL0     C61701   0.585   0.878   6.371 -0.0539  1.0129 -0.4907
  468MOL0     O61702   0.711   0.870   6.427  0.0478  0.0413 -0.2899
  468MOL0     C61703   0.807   0.976   6.386 -0.6482  0.0335 -0.6846
  468MOL0     C61704   0.925   0.942   6.460 -1.3026 -0.4855  0.1134
  468MOL0     C61705   1.029   1.052   6.455  0.1746 -0.0445  0.4539
  468MOL0     C61706   1.164   1.038   6.532 -0.4998 -0.5087 -0.5772
  468MOL0     C61707   1.256   1.142   6.480 -0.7311 -0.3235  0.0264
  468MOL0     C61708   1.340   1.223   6.448 -0.3942  0.0376  0.3596
  468MOL0     C61709   0.477   0.818   6.446  0.4272  0.8693  0.3020
  468MOL0     C61710   0.350   0.805   6.399  0.2565  0.2536  0.4373
  468MOL0     H61711  -0.007   1.047   6.116  0.2114  1.5042  0.8995
  468MOL0     H61712  -0.213   1.163   6.136 -3.0407  0.1903 -0.9548
  468MOL0     H61713  -0.454   1.155   6.074  1.4604 -0.6012  0.7769
  468MOL0     H61714  -0.417   1.258   6.210  2.7488 -1.3318  0.9881
  468MOL0     H61715  -0.646   1.188   6.286  1.7904 -1.0174  0.6155
  468MOL0     H61716  -0.664   1.132   6.113  1.1633  0.0995  0.4931
  468MOL0     H61717  -0.612   1.366   6.037 -0.2147  0.8967  0.8038
  468MOL0     H61718  -0.642   1.412   6.213 -3.5927 -0.1599  1.6943
  468MOL0     H61719  -0.846   1.246   6.056  1.9951  1.4679 -2.7302
  468MOL0     H61720  -0.873   1.342   6.195 -0.5827  3.8122  0.4999
  468MOL0     H61721  -0.778   1.468   5.944  1.6755 -1.7983  0.8049
  468MOL0     H61722  -0.842   1.544   6.094  1.4811 -0.2964  1.2660
  468MOL0     H61723  -1.046   1.421   6.081  0.2678 -3.4955 -0.1685
  468MOL0     H61724  -0.984   1.350   5.918 -0.8235 -1.1115  1.4105
  468MOL0     H61725  -1.043   1.630   5.963 -1.8277 -1.9924  0.7553
  468MOL0     H61726  -0.990   1.558   5.806  1.0113 -0.7276 -0.3656
  468MOL0     H61727  -1.205   1.435   5.791 -1.0231 -0.4014  2.9904
  468MOL0     H61728  -1.204   1.610   5.785  1.1252  0.6326  1.0072
  468MOL0     H61729  -1.338   1.740   5.946  0.7177  1.1416  1.0648
  468MOL0     H61730  -1.560   1.774   6.066 -0.4751  1.4518  1.8597
  468MOL0     H61731  -1.502   1.755   6.229 -1.2499  2.2876  0.0116
  468MOL0     H61732  -1.647   1.613   6.308 -1.2889  0.2796 -0.0060
  468MOL0     H61733  -1.698   1.552   6.151 -2.0383  0.2231  0.4817
  468MOL0     H61734  -1.766   1.854   6.210 -0.3950 -0.2246  1.4903
  468MOL0     H61735  -1.815   1.754   6.088 -3.4923 -3.1481  0.4782
  468MOL0     H61736  -1.920   1.767   6.369  0.7217 -0.9311  1.0655
  468MOL0     H61737  -1.874   1.605   6.315  2.8906  1.1515  1.9564
  468MOL0     H61738  -2.048   1.499   6.374  0.0072 -0.7963  3.5096
  468MOL0     H61739  -2.229   1.450   6.507  1.7901 -0.1686 -0.3349
  468MOL0     H61740  -2.481   1.211   6.638  0.0238  1.7460 -1.5443
  468MOL0     H61741  -2.672   1.072   6.761 -1.0149 -0.3939 -0.3034
  468MOL0     H61742  -3.095   1.193   6.687  0.3226 -4.6136 -0.1488
  468MOL0     H61743  -3.030   1.283   6.835 -0.0511  0.3315 -1.7059
  468MOL0     H61744  -3.077   1.120   6.977 -0.3242  1.8813 -1.1069
  468MOL0     H61745  -3.075   0.991   6.865 -2.2381 -1.4429 -1.1107
  468MOL0     H61746  -3.290   1.050   6.774  0.9390 -2.3963  0.0393
  468MOL0     H61747  -3.306   1.196   6.868  0.4260 -0.2413 -2.6138
  468MOL0     H61748  -3.282   0.939   7.009 -1.9611  0.0969  0.2148
  468MOL0     H61749  -3.333   1.093   7.078 -1.9048 -2.8565  3.1234
  468MOL0     H61750  -3.477   0.962   6.847  0.5240  0.9368 -0.5505
  468MOL0     H61751  -3.537   1.093   6.949 -0.3681 -0.2248  1.8256
  468MOL0     H61752  -3.484   0.944   7.154 -2.8500 -0.2523  2.4494
  468MOL0     H61753  -3.494   0.813   7.028 -1.8569  0.5697 -4.1816
  468MOL0     H61754  -3.725   0.987   7.094 -1.8924 -0.2260 -0.5588
  468MOL0     H61755  -3.723   0.889   6.950  0.7440  3.5216 -0.0145
  468MOL0     H61756  -3.673   0.689   7.114  0.9808  0.7339 -0.2466
  468MOL0     H61757  -3.839   0.764   7.111 -0.7777  0.1989  2.6120
  468MOL0     H61758  -2.951   1.354   6.610  0.0908 -1.6897  1.0930
  468MOL0     H61759  -2.770   1.491   6.497  3.9178  2.3569  0.6915
  468MOL0     H61760  -2.462   1.767   6.351 -0.5473  0.3435  0.5006
  468MOL0     H61761  -2.249   1.830   6.204 -2.3288  0.7469  1.1397
  468MOL0     H61762  -0.362   0.824   6.384 -2.6386  1.6715 -0.4503
  468MOL0     H61763  -0.170   0.738   6.359 -2.0062  0.7485  1.4721
  468MOL0     H61764   0.396   0.930   6.092 -2.9596  2.5007  0.5816
  468MOL0     H61765   0.623   0.961   6.172  1.0316  0.1929  0.3291
  468MOL0     H61766   0.770   1.076   6.408  2.3678  1.0209  0.4201
  468MOL0     H61767   0.836   0.949   6.284  0.3865 -2.5562  0.2138
  468MOL0     H61768   0.901   0.916   6.564 -7.3663 -1.3703 -1.1342
  468MOL0     H61769   0.963   0.851   6.413  2.5982  0.0021  1.8860
  468MOL0     H61770   0.973   1.137   6.494 -1.0195 -1.7539  2.6456
  468MOL0     H61771   1.055   1.074   6.351  2.2999 -3.2349  0.1591
  468MOL0     H61772   1.149   1.056   6.639 -4.4233  0.8713 -1.1681
  468MOL0     H61773   1.215   0.943   6.517  2.9678  1.0800  0.2932
  468MOL0     H61774   1.406   1.301   6.413 -0.3713  0.2620  0.8981
  468MOL0     H61775   0.501   0.775   6.543 -2.0199  0.7654  0.9214
  468MOL0     H61776   0.273   0.753   6.455  0.5992 -0.2759  0.4283
  469MOL0     O61777   3.537   2.748   9.813 -0.0896  0.2846  0.2107
  469MOL0     C61778   3.508   2.659   9.738  1.0502 -1.0453 -0.2040
  469MOL0     O61779   3.577   2.552   9.721  0.6275  0.1733 -0.0860
  469MOL0     C61780   3.714   2.550   9.749  0.4917 -0.2629 -0.8513
  469MOL0     C61781   3.792   2.531   9.640 -0.4131  0.2649 -0.0824
  469MOL0     C61782   3.929   2.507   9.657  0.2282  0.6499 -0.4419
  469MOL0     C61783   3.985   2.500   9.785  0.9791  0.9719 -0.3332
  469MOL0     O61784   4.118   2.476   9.823 -0.1861 -0.0625 -0.9169
  469MOL0     C61785   4.223   2.480   9.724  0.9108 -0.6629 -0.2190
  469MOL0     C61786   4.352   2.473   9.806  1.0840 -0.8102 -0.0333
  469MOL0     C61787   4.362   2.555   9.944 -0.9364 -0.1485 -0.7187
  469MOL0     C61788   4.477   2.502  10.031  0.5823  0.2373 -0.2717
  469MOL0     C61789   4.554   2.619  10.094  1.0094  0.5235 -0.2660
  469MOL0     C61790   4.639   2.582  10.208 -0.2149  0.2393  0.8868
  469MOL0     C61791   4.756   2.494  10.183 -0.2250  0.2507 -0.4322
  469MOL0     C61792   4.825   2.457  10.318 -0.1151 -0.6213  0.1983
  469MOL0     N61793   4.742   2.354  10.390 -0.5042  0.1118  0.9149
  469MOL0     C61794   4.670   2.393  10.500  0.8260 -0.0280 -0.3692
  469MOL0     C61795   4.628   2.275  10.556 -0.8347  1.1784  0.1897
  469MOL0     C61796   4.556   2.263  10.688  0.1328 -0.1546  0.3940
  469MOL0     C61797   4.553   2.118  10.737  1.5336 -0.3488  0.0286
  469MOL0     C61798   4.459   2.103  10.863  0.6199  0.5600 -0.5943
  469MOL0     C61799   4.313   2.079  10.827 -1.0085  0.1395 -1.0895
  469MOL0     O61800   4.260   2.176  10.729 -0.3801  0.1451 -0.0491
  469MOL0     C61801   4.127   2.160  10.700 -0.8133 -0.8145  0.9553
  469MOL0     C61802   4.070   2.264  10.622 -0.1006 -0.0083 -0.2478
  469MOL0     C61803   3.935   2.273  10.602  0.4406 -0.0552  0.0093
  469MOL0     C61804   3.851   2.172  10.652  0.3395 -0.5368  0.7880
  469MOL0     C61805   3.711   2.173  10.629  0.5123 -0.3401 -0.1754
  469MOL0     O61806   3.669   2.256  10.536  0.8841 -0.1536  0.2430
  469MOL0     C61807   3.541   2.288  10.519 -0.0894 -0.4217  1.0253
  469MOL0     C61808   3.429   2.203  10.500  0.4147 -0.0382  0.3500
  469MOL0     C61809   3.303   2.253  10.485  0.0782  0.0375 -0.3399
  469MOL0     C61810   3.283   2.390  10.515  0.3463 -0.0748  1.5094
  469MOL0     O61811   3.150   2.432  10.523 -0.1909  0.1531 -0.6622
  469MOL0     C61812   3.121   2.561  10.585  0.2741  0.6734 -0.5352
  469MOL0     C61813   2.971   2.562  10.609 -0.3808 -0.0701 -0.9622
  469MOL0     C61814   2.881   2.574  10.491  0.4535  0.5041  0.4021
  469MOL0     C61815   2.729   2.587  10.523 -0.9692  0.2517 -1.0150
  469MOL0     C61816   2.686   2.474  10.621 -0.6351  0.0881  0.7800
  469MOL0     C61817   2.544   2.439  10.577 -0.1029 -0.4147  0.1257
  469MOL0     C61818   2.465   2.363  10.682  0.1144  0.4156 -0.2768
  469MOL0     C61819   2.323   2.333  10.636 -0.2315 -0.3116  0.4753
  469MOL0    Cl61820   2.223   2.477  10.655 -0.0706 -0.6076  0.1309
  469MOL0     C61821   3.394   2.472  10.538  0.2698  0.6160  0.4671
  469MOL0     C61822   3.517   2.426  10.538  0.4464 -0.1282  0.3601
  469MOL0     O61823   3.639   2.106  10.710 -0.5464  0.2454  0.1067
  469MOL0     C61824   3.907   2.070  10.726 -0.6102  0.4896 -0.9977
  469MOL0     C61825   4.045   2.054  10.745  0.3455 -0.5699 -0.4131
  469MOL0     N61826   4.681   2.169  10.480  0.5192  0.5569  0.1603
  469MOL0     N61827   4.744   2.219  10.380  0.1401  1.0243  0.3657
  469MOL0     C61828   3.905   2.526   9.899 -0.2638 -0.2393  0.5624
  469MOL0     C61829   3.767   2.553   9.876 -0.1701 -0.5314  0.0803
  469MOL0     C61830   3.358   2.653   9.697  0.8347 -0.9791  0.3072
  469MOL0     C61831   3.274   2.757   9.749 -0.5046 -0.2713 -0.3132
  469MOL0     C61832   3.140   2.771   9.714  0.1403  0.1319  0.0377
  469MOL0     C61833   3.084   2.673   9.637  0.2881  1.1656  0.1015
  469MOL0     O61834   2.955   2.655   9.596  0.1073  0.4677  0.0167
  469MOL0     C61835   2.855   2.742   9.635  1.3489 -0.1553  0.2941
  469MOL0     C61836   2.732   2.708   9.543 -0.1413 -0.2950 -0.4452
  469MOL0     C61837   2.699   2.555   9.562 -0.9544 -0.0502  0.2761
  469MOL0     C61838   2.558   2.524   9.586  1.0329  0.4736  0.3636
  469MOL0     C61839   2.492   2.591   9.702 -1.0349 -0.8105  0.0697
  469MOL0     C61840   2.455   2.648   9.806 -0.1188  0.9534  0.5173
  469MOL0     C61841   3.167   2.563   9.608  0.6460  0.0795  0.3768
  469MOL0     C61842   3.300   2.548   9.620 -0.5536 -0.9155 -0.6083
  469MOL0     H61843   3.746   2.524   9.542  1.9804 -0.4908 -1.2093
  469MOL0     H61844   3.995   2.479   9.576  2.6591 -0.7200  1.8262
  469MOL0     H61845   4.213   2.573   9.668 -0.6667  0.3371  1.5858
  469MOL0     H61846   4.225   2.390   9.662 -1.4168 -1.6861  1.0193
  469MOL0     H61847   4.435   2.498   9.740 -0.4531  1.9261 -1.0979
  469MOL0     H61848   4.353   2.364   9.821  0.8317 -0.5467  2.4480
  469MOL0     H61849   4.269   2.557  10.003  0.2582 -1.3492  1.3406
  469MOL0     H61850   4.395   2.657   9.919  0.4200  0.4037  2.6994
  469MOL0     H61851   4.434   2.429  10.100 -0.3825  1.8385  0.8877
  469MOL0     H61852   4.543   2.439   9.971 -2.4724 -0.6071 -3.0475
  469MOL0     H61853   4.484   2.698  10.124 -1.8571 -2.5499  1.9990
  469MOL0     H61854   4.630   2.658  10.026  0.4243  0.2460 -1.0900
  469MOL0     H61855   4.572   2.534  10.279  1.7214  0.6778  3.1203
  469MOL0     H61856   4.687   2.674  10.241  0.3721 -0.0740  0.9122
  469MOL0     H61857   4.725   2.403  10.131 -1.4092 -0.7148  1.8167
  469MOL0     H61858   4.830   2.548  10.123 -1.2109  0.1998 -1.7313
  469MOL0     H61859   4.856   2.545  10.375  4.1733 -1.6494 -0.1606
  469MOL0     H61860   4.917   2.401  10.301  1.3838  0.7790  2.9784
  469MOL0     H61861   4.636   2.492  10.528  0.2452 -0.1138 -0.7646
  469MOL0     H61862   4.461   2.316  10.675  1.5282  2.2239 -0.8043
  469MOL0     H61863   4.621   2.319  10.756  0.4768 -0.9598  0.7349
  469MOL0     H61864   4.657   2.109  10.770  1.8749 -1.0583 -1.1862
  469MOL0     H61865   4.533   2.039  10.664  1.1725  0.1881 -0.4657
  469MOL0     H61866   4.505   2.017  10.913  1.0074  1.6171  0.9334
  469MOL0     H61867   4.474   2.192  10.924  0.6518 -0.1662  0.4734
  469MOL0     H61868   4.240   2.084  10.909  1.4473 -0.3509  1.2574
  469MOL0     H61869   4.308   1.984  10.774  1.6959  0.9072 -2.9307
  469MOL0     H61870   4.126   2.341  10.570  0.2012  1.5249  2.1519
  469MOL0     H61871   3.885   2.335  10.528 -0.1752 -1.1927 -0.5591
  469MOL0     H61872   3.444   2.097  10.483  2.9476  0.2222  0.5068
  469MOL0     H61873   3.218   2.185  10.480  0.2400 -0.1248 -0.8477
  469MOL0     H61874   3.147   2.651  10.528  0.1417  1.2459  0.2913
  469MOL0     H61875   3.179   2.567  10.677  2.2271 -4.6561 -1.0798
  469MOL0     H61876   2.963   2.645  10.679  1.5799  0.7635 -1.6308
  469MOL0     H61877   2.943   2.471  10.662 -0.8408  0.9000  0.5002
  469MOL0     H61878   2.894   2.485  10.428 -2.0104 -1.0196  1.8736
  469MOL0     H61879   2.912   2.660  10.433  2.4315  0.5104  1.3845
  469MOL0     H61880   2.700   2.685  10.562 -0.6360  0.2445 -0.7460
  469MOL0     H61881   2.685   2.574  10.423  0.4099 -0.2362 -1.5868
  469MOL0     H61882   2.697   2.504  10.725  1.0158 -0.1608  0.6933
  469MOL0     H61883   2.756   2.394  10.594  1.8033  2.5961 -0.7939
  469MOL0     H61884   2.543   2.381  10.484 -0.6187 -0.2428  0.0187
  469MOL0     H61885   2.485   2.530  10.567 -2.4298 -1.6430  1.5819
  469MOL0     H61886   2.520   2.270  10.698 -1.5399 -0.3862  1.1276
  469MOL0     H61887   2.472   2.413  10.779  0.1489 -0.0340 -0.0450
  469MOL0     H61888   2.295   2.255  10.707  3.9577 -0.5823  2.1042
  469MOL0     H61889   2.322   2.293  10.534 -1.6210  1.1361 -0.1286
  469MOL0     H61890   3.380   2.576  10.562 -1.1103  2.4206 -6.1735
  469MOL0     H61891   3.596   2.495  10.563  0.1123  0.2785  0.2986
  469MOL0     H61892   3.850   1.990  10.772  0.1228  0.7614  0.4564
  469MOL0     H61893   4.081   1.961  10.789  1.1252 -0.4177 -0.7292
  469MOL0     H61894   3.945   2.547   9.998 -0.0251  0.6868  0.2809
  469MOL0     H61895   3.706   2.572   9.964  1.7858 -1.8184  1.8075
  469MOL0     H61896   3.309   2.831   9.820 -1.0103  0.9165 -1.2726
  469MOL0     H61897   3.092   2.858   9.757 -0.7851  0.1389 -0.9580
  469MOL0     H61898   2.884   2.847   9.617 -1.5355  0.5065 -1.0450
  469MOL0     H61899   2.840   2.724   9.742  1.1929 -2.9520 -0.1242
  469MOL0     H61900   2.658   2.777   9.584  2.8936  3.3032 -0.4188
  469MOL0     H61901   2.752   2.732   9.438 -1.4854 -0.6426 -0.7986
  469MOL0     H61902   2.750   2.517   9.651 -1.5588  0.9010  1.0562
  469MOL0     H61903   2.736   2.497   9.477 -3.4989 -1.1441 -0.1621
  469MOL0     H61904   2.497   2.558   9.501 -0.7535 -1.4685  0.7811
  469MOL0     H61905   2.557   2.415   9.590  0.8810  0.4435 -0.3146
  469MOL0     H61906   2.410   2.688   9.895 -2.1978  0.0173 -0.0696
  469MOL0     H61907   3.126   2.486   9.542 -0.9654 -0.1193  1.5530
  469MOL0     H61908   3.358   2.470   9.573  1.4084  1.0316 -1.6258
  470MOL0     O61909   5.857   3.386   5.109 -0.1342 -0.4140  0.4740
  470MOL0     C61910   5.808   3.378   5.225  0.4455 -0.7364 -0.4918
  470MOL0     O61911   5.881   3.381   5.347  0.5808  0.2935  0.3721
  470MOL0     C61912   6.009   3.359   5.353  0.8282 -0.0382 -0.3159
  470MOL0     C61913   6.074   3.415   5.458 -0.4159  0.6160 -0.2223
  470MOL0     C61914   6.208   3.388   5.481  0.8381 -0.9368  0.1907
  470MOL0     C61915   6.277   3.304   5.398 -0.7708  0.0121  0.4289
  470MOL0     O61916   6.409   3.264   5.436  0.4395  0.5642 -0.1380
  470MOL0     C61917   6.496   3.374   5.391 -0.1528 -0.1276 -0.1751
  470MOL0     C61918   6.644   3.340   5.418  0.4846 -0.5081 -1.0142
  470MOL0     C61919   6.710   3.225   5.336  0.5847 -0.2632  0.0224
  470MOL0     C61920   6.860   3.225   5.363  0.8404 -0.4180 -0.9607
  470MOL0     C61921   6.940   3.124   5.283 -0.1999  0.4319 -0.5164
  470MOL0     C61922   6.899   2.974   5.284  0.2572  0.0897 -0.0398
  470MOL0     C61923   6.972   2.891   5.183 -0.0273 -0.4328  0.3910
  470MOL0     C61924   6.911   2.756   5.164 -0.0019  0.6204 -0.1591
  470MOL0     N61925   6.768   2.747   5.145 -0.2148 -0.1870 -0.2682
  470MOL0     C61926   6.697   2.795   5.034 -0.6311 -0.0586 -0.0525
  470MOL0     C61927   6.583   2.721   5.029  0.4353 -1.1362  0.1374
  470MOL0     C61928   6.477   2.738   4.926 -0.3757  0.5135  0.6459
  470MOL0     C61929   6.349   2.793   4.984 -0.2112 -0.3100  0.2066
  470MOL0     C61930   6.365   2.943   5.049  0.9944  0.6026  0.2554
  470MOL0     C61931   6.457   3.046   4.970  0.0268  0.0611 -0.6881
  470MOL0     O61932   6.410   3.072   4.839  0.8150  0.2830 -0.1729
  470MOL0     C61933   6.288   3.140   4.820  0.3717 -0.0410 -0.7148
  470MOL0     C61934   6.261   3.260   4.878 -0.1541 -0.1637 -0.1191
  470MOL0     C61935   6.138   3.321   4.862 -0.1003 -0.0479  0.2866
  470MOL0     C61936   6.033   3.263   4.780  0.0204 -1.0800 -0.1762
  470MOL0     C61937   5.901   3.331   4.758 -0.2103 -0.9591  0.9331
  470MOL0     O61938   5.880   3.459   4.809 -0.0748 -0.0647 -0.2345
  470MOL0     C61939   5.767   3.528   4.772 -0.0911 -0.1370 -0.4895
  470MOL0     C61940   5.702   3.528   4.646 -0.3180 -0.8499 -0.4388
  470MOL0     C61941   5.569   3.579   4.649 -0.5171 -0.5468  0.8521
  470MOL0     C61942   5.501   3.625   4.761  0.0715 -0.2115 -0.7701
  470MOL0     O61943   5.368   3.666   4.758 -0.9067  0.0613  0.3484
  470MOL0     C61944   5.325   3.744   4.643  0.6921 -0.1823  0.5902
  470MOL0     C61945   5.187   3.804   4.661  0.4654  0.5723  0.3323
  470MOL0     C61946   5.087   3.692   4.696 -0.5638  0.0670  0.1599
  470MOL0     C61947   4.946   3.742   4.707  0.7169  0.5707  0.1158
  470MOL0     C61948   4.847   3.633   4.752  1.1036  0.2842 -0.0578
  470MOL0     C61949   4.723   3.688   4.826  0.8905  0.7098  0.0210
  470MOL0     C61950   4.611   3.579   4.839 -0.2667 -0.2356 -0.5500
  470MOL0     C61951   4.476   3.651   4.868  0.8930  0.0829  0.8276
  470MOL0    Cl61952   4.469   3.669   5.049 -0.1451 -0.2488 -0.0350
  470MOL0     C61953   5.572   3.619   4.880 -0.3405 -0.1924  0.4316
  470MOL0     C61954   5.704   3.576   4.878  0.4330 -0.0685  0.3222
  470MOL0     O61955   5.823   3.274   4.681  0.4825 -0.1067 -0.8771
  470MOL0     C61956   6.063   3.150   4.718 -0.0017  0.0129  0.6499
  470MOL0     C61957   6.192   3.086   4.731  0.4937  0.7892 -0.8704
  470MOL0     N61958   6.586   2.633   5.131  0.4266  0.3154 -0.8867
  470MOL0     N61959   6.690   2.648   5.203  0.0835 -0.1111 -0.4287
  470MOL0     C61960   6.218   3.253   5.281  0.0390  0.6510 -0.2171
  470MOL0     C61961   6.085   3.284   5.265 -0.3509  0.4193  0.8575
  470MOL0     C61962   5.666   3.365   5.249  0.3739 -1.0015 -0.1381
  470MOL0     C61963   5.579   3.332   5.145  0.5787 -0.0180  1.3702
  470MOL0     C61964   5.446   3.306   5.172 -0.0871  0.4543  0.1237
  470MOL0     C61965   5.389   3.327   5.299  0.2748 -0.7735  0.5648
  470MOL0     O61966   5.253   3.299   5.308  0.5787  0.3819 -0.3586
  470MOL0     C61967   5.179   3.315   5.433 -0.4656 -0.2900  0.5658
  470MOL0     C61968   5.192   3.185   5.519 -0.1399  0.5627  0.6506
  470MOL0     C61969   5.072   3.092   5.506  0.0100  0.1370  0.2402
  470MOL0     C61970   5.054   3.022   5.372  0.4595 -0.0564 -0.2919
  470MOL0     C61971   4.918   2.962   5.370 -0.3150 -0.2040 -0.3152
  470MOL0     C61972   4.800   2.952   5.357  0.1582 -0.3024  0.1160
  470MOL0     C61973   5.472   3.373   5.400 -1.4684 -0.1553  1.2819
  470MOL0     C61974   5.606   3.409   5.368  0.2097 -1.0514 -0.0683
  470MOL0     H61975   6.023   3.491   5.517  1.5811  0.1541  2.2470
  470MOL0     H61976   6.250   3.441   5.566 -0.7553 -0.5691  0.7731
  470MOL0     H61977   6.474   3.468   5.444  0.7261 -0.8002  1.4481
  470MOL0     H61978   6.477   3.387   5.284 -2.8651  0.8979  0.3430
  470MOL0     H61979   6.659   3.321   5.524  1.7622  0.0370 -1.0820
  470MOL0     H61980   6.698   3.434   5.402  1.1390 -1.0642 -2.1500
  470MOL0     H61981   6.699   3.234   5.228  3.8668  1.5842 -0.3012
  470MOL0     H61982   6.660   3.134   5.371  2.2972 -0.3660  2.5401
  470MOL0     H61983   6.898   3.325   5.339  0.5409  0.6663  2.4768
  470MOL0     H61984   6.875   3.201   5.469  0.9859  2.1173 -0.3500
  470MOL0     H61985   7.042   3.135   5.319 -0.2478 -1.3532  0.2785
  470MOL0     H61986   6.942   3.163   5.181 -2.3344 -1.4061 -1.3501
  470MOL0     H61987   6.791   2.967   5.268  0.4227 -5.0239 -0.7586
  470MOL0     H61988   6.916   2.921   5.378 -0.5232  0.8675  0.5465
  470MOL0     H61989   6.971   2.948   5.090 -2.3949  0.3553  0.8194
  470MOL0     H61990   7.075   2.884   5.217 -0.2947  0.5256  1.4446
  470MOL0     H61991   6.936   2.694   5.251 -1.6223 -1.2540 -0.9392
  470MOL0     H61992   6.947   2.713   5.070 -2.3837 -0.9786 -0.4255
  470MOL0     H61993   6.732   2.865   4.960  2.8889  0.1995  1.6583
  470MOL0     H61994   6.460   2.646   4.870 -0.6411 -0.1193  1.7409
  470MOL0     H61995   6.515   2.804   4.848  2.7329 -3.8696 -1.9814
  470MOL0     H61996   6.327   2.718   5.059  4.2748 -2.8073 -0.6124
  470MOL0     H61997   6.274   2.786   4.904 -0.8470 -1.2965  0.8638
  470MOL0     H61998   6.262   2.978   5.046  0.7429 -0.0736  0.6838
  470MOL0     H61999   6.390   2.945   5.156  0.8706 -1.0470  0.3390
  470MOL0     H62000   6.560   3.010   4.971  0.8015  2.0934  1.0107
  470MOL0     H62001   6.468   3.131   5.038  1.4171 -2.2660  2.2299
  470MOL0     H62002   6.341   3.301   4.939  1.7152  0.9889 -3.1229
  470MOL0     H62003   6.125   3.415   4.915 -1.4834 -1.2249  2.1955
  470MOL0     H62004   5.755   3.487   4.561  5.5085  0.7727  1.9342
  470MOL0     H62005   5.510   3.574   4.558  0.4810 -1.1476  0.2223
  470MOL0     H62006   5.328   3.683   4.552  0.7603  1.2382 -0.4089
  470MOL0     H62007   5.391   3.830   4.625 -0.4682  1.1597  2.3386
  470MOL0     H62008   5.151   3.853   4.570 -0.8560  0.5331  0.8168
  470MOL0     H62009   5.199   3.873   4.744 -0.1551  0.0907  0.8299
  470MOL0     H62010   5.114   3.650   4.793 -1.4747 -2.1410 -0.4775
  470MOL0     H62011   5.091   3.609   4.626  1.2192 -1.4939  1.9948
  470MOL0     H62012   4.937   3.817   4.787 -0.2561  0.2266  0.3544
  470MOL0     H62013   4.913   3.771   4.607  3.9166 -1.3681 -1.6680
  470MOL0     H62014   4.892   3.555   4.815 -0.2474  0.9964  1.8845
  470MOL0     H62015   4.821   3.579   4.661 -0.5585 -2.4496  1.8691
  470MOL0     H62016   4.680   3.768   4.765 -0.1263 -0.6601 -1.1288
  470MOL0     H62017   4.750   3.727   4.925  0.1377  1.9028 -0.2183
  470MOL0     H62018   4.617   3.519   4.747 -0.6928  0.8275 -1.2823
  470MOL0     H62019   4.629   3.507   4.920 -3.0000 -1.7961 -1.1857
  470MOL0     H62020   4.382   3.604   4.836 -1.7952  4.2147  1.8543
  470MOL0     H62021   4.477   3.746   4.814 -1.8289 -0.5339 -0.4792
  470MOL0     H62022   5.521   3.644   4.972 -4.1878 -1.8517 -1.0509
  470MOL0     H62023   5.761   3.570   4.971  2.3829 -2.0382 -0.8922
  470MOL0     H62024   5.999   3.099   4.647  0.8053  1.9848 -1.6310
  470MOL0     H62025   6.215   2.997   4.672  0.8981  1.6339 -2.0088
  470MOL0     H62026   6.266   3.184   5.212 -0.1009 -0.2980  0.6032
  470MOL0     H62027   6.046   3.239   5.174  2.4787  1.0581 -0.8205
  470MOL0     H62028   5.623   3.301   5.051  0.0170  0.6960  0.8620
  470MOL0     H62029   5.383   3.266   5.093  0.2747 -0.7699  0.4185
  470MOL0     H62030   5.074   3.327   5.402 -0.0035 -0.9372 -1.4149
  470MOL0     H62031   5.207   3.405   5.486 -3.8853  0.9010  0.6031
  470MOL0     H62032   5.276   3.122   5.490 -1.0370 -0.0923 -0.6307
  470MOL0     H62033   5.210   3.221   5.621 -2.8159 -2.7654  2.4868
  470MOL0     H62034   4.995   3.168   5.520  0.9272  1.0857  0.2875
  470MOL0     H62035   5.069   3.014   5.583  0.4921 -0.1271 -0.0034
  470MOL0     H62036   5.073   3.082   5.283 -1.6410 -1.2414 -1.6279
  470MOL0     H62037   5.119   2.935   5.358  0.4684  0.1025 -1.2907
  470MOL0     H62038   4.694   2.938   5.342  0.1959  0.3542 -0.8153
  470MOL0     H62039   5.427   3.387   5.498 -2.6283  1.7988  0.5266
  470MOL0     H62040   5.674   3.459   5.437 -0.0291 -1.1932  0.2702
  471MOL0     O62041   7.607   2.360   8.700 -0.5861 -0.1205  0.0003
  471MOL0     C62042   7.656   2.422   8.603 -0.4222  0.9629 -0.6482
  471MOL0     O62043   7.580   2.492   8.511  0.6329 -0.6818 -0.4694
  471MOL0     C62044   7.450   2.523   8.550 -0.1202  0.6055  0.0747
  471MOL0     C62045   7.415   2.638   8.619  0.4060 -0.5399 -0.8253
  471MOL0     C62046   7.280   2.672   8.638 -0.4976  0.0595  0.8215
  471MOL0     C62047   7.182   2.597   8.572 -0.3368 -0.6434 -0.0939
  471MOL0     O62048   7.052   2.630   8.605  0.8249 -0.1286 -0.6616
  471MOL0     C62049   6.945   2.571   8.535 -1.1527  0.3660 -0.0624
  471MOL0     C62050   6.810   2.612   8.583  0.2033 -0.4052 -0.5231
  471MOL0     C62051   6.754   2.735   8.493 -0.4848  0.9063 -0.5291
  471MOL0     C62052   6.642   2.812   8.562  0.1978 -0.6053 -0.8515
  471MOL0     C62053   6.540   2.882   8.469  0.1499 -0.1892  0.8356
  471MOL0     C62054   6.605   2.990   8.400 -0.6917 -1.0416  0.1306
  471MOL0     C62055   6.512   3.071   8.314  0.6254 -0.2538  0.2026
  471MOL0     C62056   6.409   3.155   8.384  0.2880 -0.5834 -0.9716
  471MOL0     N62057   6.373   3.276   8.304  0.0573  0.6927  0.3052
  471MOL0     C62058   6.361   3.284   8.173  0.0269  0.7802  0.3814
  471MOL0     C62059   6.336   3.416   8.146 -0.6460  0.3230 -0.9558
  471MOL0     C62060   6.302   3.475   8.018 -0.3467 -0.5747 -0.1790
  471MOL0     C62061   6.159   3.458   7.965  0.3908 -0.0988  0.0003
  471MOL0     C62062   6.166   3.517   7.819 -0.0832 -0.8248 -0.1661
  471MOL0     C62063   6.215   3.416   7.716  0.2967 -0.0308 -0.0699
  471MOL0     O62064   6.138   3.295   7.725  0.4453  0.0413  0.4926
  471MOL0     C62065   6.035   3.277   7.639 -0.1076 -0.5853 -0.7509
  471MOL0     C62066   5.984   3.150   7.656  0.2308 -0.3592  0.0119
  471MOL0     C62067   5.877   3.103   7.585  0.0804  0.3131  0.8860
  471MOL0     C62068   5.828   3.193   7.474  0.1979  0.1473  0.0521
  471MOL0     C62069   5.696   3.161   7.413  0.0950 -0.9565 -0.0858
  471MOL0     O62070   5.628   3.058   7.466 -0.4266 -0.4745  0.4683
  471MOL0     C62071   5.499   3.048   7.436 -0.3356 -0.5898 -0.3058
  471MOL0     C62072   5.404   3.108   7.510 -0.9100 -0.8568  0.0711
  471MOL0     C62073   5.268   3.095   7.481 -0.1238 -0.7748 -0.5566
  471MOL0     C62074   5.225   3.018   7.363 -0.2201  0.6803 -0.1025
  471MOL0     O62075   5.098   2.980   7.334 -0.1242  0.5510 -0.4274
  471MOL0     C62076   5.013   3.088   7.340  0.8327  0.4524 -0.2960
  471MOL0     C62077   4.860   3.051   7.315 -0.4737  0.7986 -0.4159
  471MOL0     C62078   4.842   2.931   7.217 -0.8287  0.3169 -0.4095
  471MOL0     C62079   4.694   2.922   7.180 -0.7207 -0.0272  0.6136
  471MOL0     C62080   4.654   2.828   7.064 -0.4675  0.3430  0.6500
  471MOL0     C62081   4.504   2.832   7.038  0.3727 -0.2506 -0.2919
  471MOL0     C62082   4.485   2.715   6.946 -1.1069  0.2780 -0.4835
  471MOL0     C62083   4.340   2.707   6.899 -1.0836 -0.0552 -0.5219
  471MOL0    Cl62084   4.252   2.606   7.012  0.4390  0.0462 -0.0950
  471MOL0     C62085   5.327   2.951   7.291  0.6784  0.2057 -0.9708
  471MOL0     C62086   5.462   2.961   7.333  0.1805 -0.1075  0.2356
  471MOL0     O62087   5.657   3.232   7.318 -0.1849  0.2068  0.4135
  471MOL0     C62088   5.872   3.317   7.462 -0.9643 -0.4779  0.5040
  471MOL0     C62089   5.980   3.357   7.534  0.0387  1.0052 -0.1795
  471MOL0     N62090   6.348   3.477   8.264 -0.1455 -1.1745  0.1141
  471MOL0     N62091   6.366   3.395   8.362 -0.9705 -0.5502 -0.3721
  471MOL0     C62092   7.213   2.475   8.500  0.2442 -0.3776 -0.2280
  471MOL0     C62093   7.347   2.447   8.494 -0.0358 -0.0023 -0.3090
  471MOL0     C62094   7.799   2.393   8.573 -0.3476  0.4163  0.2983
  471MOL0     C62095   7.867   2.302   8.656  0.4540  0.4318  0.3425
  471MOL0     C62096   8.005   2.274   8.623 -0.2298 -0.7126  0.1196
  471MOL0     C62097   8.077   2.339   8.520 -0.2735 -0.5823  0.0375
  471MOL0     O62098   8.209   2.321   8.487  0.1388 -0.2921 -0.1387
  471MOL0     C62099   8.302   2.229   8.555 -0.2814 -0.4041 -0.3411
  471MOL0     C62100   8.343   2.277   8.693  0.5253 -0.1582  0.4976
  471MOL0     C62101   8.463   2.191   8.740  0.1754 -0.1180  0.4986
  471MOL0     C62102   8.489   2.252   8.876  0.8407 -0.4060  0.1231
  471MOL0     C62103   8.591   2.180   8.946 -0.6252 -0.1635 -0.9749
  471MOL0     C62104   8.697   2.127   8.983 -0.4942  0.2033 -0.3622
  471MOL0     C62105   8.005   2.435   8.447 -0.1307 -0.3154 -1.4121
  471MOL0     C62106   7.864   2.455   8.470  0.4668 -0.5674  0.3910
  471MOL0     H62107   7.499   2.698   8.654 -1.4292  0.0444  3.1373
  471MOL0     H62108   7.260   2.765   8.690 -0.7277 -0.3237  1.4294
  471MOL0     H62109   6.953   2.464   8.557  2.1368  0.3878 -0.7345
  471MOL0     H62110   6.969   2.588   8.430  0.2907 -1.8975 -0.1618
  471MOL0     H62111   6.805   2.653   8.684  0.6872 -1.0510 -0.2241
  471MOL0     H62112   6.734   2.533   8.579  1.8842 -2.3636  2.2968
  471MOL0     H62113   6.723   2.690   8.398  3.9167 -2.0228 -0.8851
  471MOL0     H62114   6.831   2.811   8.479  1.8293 -0.9590  1.2571
  471MOL0     H62115   6.590   2.742   8.628  0.6202  0.9434  1.2114
  471MOL0     H62116   6.676   2.888   8.632 -1.1260  0.6948 -1.5450
  471MOL0     H62117   6.458   2.921   8.530  0.8978  0.5857  1.3688
  471MOL0     H62118   6.494   2.813   8.397  0.3981 -0.1697  0.6597
  471MOL0     H62119   6.685   2.942   8.344  0.2128 -0.5885  1.0062
  471MOL0     H62120   6.662   3.050   8.472  0.0110 -1.6909  0.1314
  471MOL0     H62121   6.570   3.133   8.246  0.3177 -1.0433 -0.8073
  471MOL0     H62122   6.465   2.998   8.247 -2.7385  2.5138 -0.7814
  471MOL0     H62123   6.440   3.199   8.480 -2.6207 -2.9831  1.2365
  471MOL0     H62124   6.320   3.095   8.401  0.5716 -1.6011 -2.7915
  471MOL0     H62125   6.363   3.204   8.100  1.9746  0.6585  0.5275
  471MOL0     H62126   6.371   3.427   7.949  0.9838 -0.5881  1.1009
  471MOL0     H62127   6.333   3.580   8.027 -0.1178 -0.6983  0.5424
  471MOL0     H62128   6.079   3.520   8.008  0.9616  1.4635 -1.0953
  471MOL0     H62129   6.138   3.351   7.965  2.2150 -0.5307  2.0237
  471MOL0     H62130   6.064   3.548   7.794 -1.2612 -1.1225  3.7134
  471MOL0     H62131   6.222   3.611   7.825 -1.8259  0.1492  1.6466
  471MOL0     H62132   6.319   3.393   7.737 -0.1173  0.3470  2.8047
  471MOL0     H62133   6.207   3.462   7.616 -1.5458  2.1737  0.9956
  471MOL0     H62134   6.022   3.092   7.740  1.5567  0.3088 -0.1059
  471MOL0     H62135   5.835   3.003   7.594  1.3591 -0.1226  2.2652
  471MOL0     H62136   5.445   3.174   7.585 -1.0492  0.0709 -0.6544
  471MOL0     H62137   5.201   3.136   7.555 -0.5494  1.7352 -2.2058
  471MOL0     H62138   5.048   3.167   7.274  0.2523 -0.1696 -1.3874
  471MOL0     H62139   5.021   3.116   7.445  2.6475 -1.8698  0.2791
  471MOL0     H62140   4.803   3.143   7.295  0.3953  1.7291  1.1357
  471MOL0     H62141   4.822   3.010   7.409  4.0701 -2.9239  0.1273
  471MOL0     H62142   4.882   2.835   7.253 -0.7383  0.7278  0.6482
  471MOL0     H62143   4.908   2.955   7.133 -0.5251 -2.3368 -1.0342
  471MOL0     H62144   4.637   2.890   7.268  0.0774 -0.3960  1.0066
  471MOL0     H62145   4.659   3.019   7.141  0.2421 -0.1769 -0.6726
  471MOL0     H62146   4.671   2.723   7.090  0.9130  0.3768  0.0053
  471MOL0     H62147   4.711   2.855   6.975 -2.9393 -1.5764 -1.7061
  471MOL0     H62148   4.480   2.922   6.979  1.6830 -0.1996 -0.7851
  471MOL0     H62149   4.450   2.816   7.132 -0.5229 -0.5321 -0.8449
  471MOL0     H62150   4.553   2.715   6.861  2.6130  2.7755  2.1905
  471MOL0     H62151   4.510   2.624   7.001  0.3894  0.3484 -1.0025
  471MOL0     H62152   4.334   2.666   6.797 -2.9120 -0.1268 -0.4202
  471MOL0     H62153   4.295   2.804   6.875 -0.0397  0.7439  0.6742
  471MOL0     H62154   5.290   2.882   7.215 -3.1263  0.1853  0.6843
  471MOL0     H62155   5.532   2.902   7.275 -2.2279  1.0316 -4.3225
  471MOL0     H62156   5.842   3.387   7.384  1.4905 -1.5941 -1.6072
  471MOL0     H62157   5.996   3.463   7.515  0.2575  0.5873 -2.5794
  471MOL0     H62158   7.134   2.412   8.460 -0.9638 -0.1830  1.7313
  471MOL0     H62159   7.387   2.365   8.435  3.5206 -0.3490  2.2253
  471MOL0     H62160   7.824   2.243   8.736  5.5735 -0.8687  2.4765
  471MOL0     H62161   8.053   2.214   8.699 -0.6763 -0.3024  0.7379
  471MOL0     H62162   8.398   2.228   8.502 -0.0244  0.7422  0.0908
  471MOL0     H62163   8.258   2.128   8.552  2.2701 -1.5993 -0.3561
  471MOL0     H62164   8.369   2.383   8.684 -2.3336  0.8825  2.7406
  471MOL0     H62165   8.255   2.270   8.757  0.8936 -2.6577  0.8231
  471MOL0     H62166   8.556   2.189   8.683  1.4641 -0.4971  2.4988
  471MOL0     H62167   8.436   2.085   8.749  0.8822 -0.1927  2.3155
  471MOL0     H62168   8.516   2.354   8.846  0.0835 -0.6109 -1.3293
  471MOL0     H62169   8.395   2.266   8.930  0.1630  4.0973 -1.7820
  471MOL0     H62170   8.789   2.076   9.005 -0.4757  0.1313 -0.6051
  471MOL0     H62171   8.056   2.498   8.375 -1.9448  2.4924 -0.3877
  471MOL0     H62172   7.807   2.522   8.406  2.3246  0.3147 -0.4109
  472MOL0     O62173  10.153   7.092   6.928  0.5391  0.0069  0.4144
  472MOL0     C62174  10.160   7.214   6.933  0.2234  0.0850 -0.3786
  472MOL0     O62175  10.056   7.299   6.950  0.3218 -0.2339  0.3354
  472MOL0     C62176   9.930   7.233   6.943 -0.3539  0.3029  0.3033
  472MOL0     C62177   9.880   7.210   6.812 -0.2560 -1.2997 -1.3801
  472MOL0     C62178   9.754   7.161   6.783  0.6150  0.1364 -0.3180
  472MOL0     C62179   9.668   7.137   6.889 -0.2673  0.0058 -0.0409
  472MOL0     O62180   9.546   7.077   6.882  0.3851 -0.2781 -0.1194
  472MOL0     C62181   9.517   6.995   6.767 -0.4689  0.2482  0.3390
  472MOL0     C62182   9.390   6.919   6.810  0.5122  0.2332  0.2854
  472MOL0     C62183   9.314   6.855   6.693  0.2724  0.9602  0.3609
  472MOL0     C62184   9.180   6.806   6.726  0.4448 -0.2819 -0.8259
  472MOL0     C62185   9.093   6.790   6.604  0.1368 -0.0147  0.0753
  472MOL0     C62186   9.146   6.683   6.505  0.1339 -0.0088  0.0757
  472MOL0     C62187   9.147   6.546   6.575  0.4153  0.1362  0.2932
  472MOL0     C62188   9.183   6.441   6.478 -0.2819  0.0110 -0.7565
  472MOL0     N62189   9.322   6.453   6.442 -0.1813 -0.3678 -0.1985
  472MOL0     C62190   9.417   6.477   6.531  0.1240 -0.4247  0.3759
  472MOL0     C62191   9.536   6.471   6.462  0.0014 -0.2561  0.1308
  472MOL0     C62192   9.674   6.500   6.517  0.4359  1.1347 -0.2415
  472MOL0     C62193   9.747   6.378   6.552 -0.5043  0.0899 -0.7944
  472MOL0     C62194   9.797   6.287   6.434  0.1869 -0.2181 -0.2968
  472MOL0     C62195   9.921   6.322   6.353 -0.6900  0.2932  0.1376
  472MOL0     O62196  10.018   6.407   6.420 -0.6437 -0.1983  0.0340
  472MOL0     C62197  10.154   6.364   6.452  0.8716  0.6144 -0.2664
  472MOL0     C62198  10.228   6.446   6.543 -0.1120  0.6598  0.6472
  472MOL0     C62199  10.341   6.396   6.604  0.5891  0.5567 -0.4910
  472MOL0     C62200  10.388   6.261   6.587  0.2564 -0.1918  0.5646
  472MOL0     C62201  10.508   6.208   6.661 -0.1774 -0.3992 -0.0117
  472MOL0     O62202  10.507   6.074   6.675 -0.2087 -0.1334 -0.1426
  472MOL0     C62203  10.605   6.009   6.754 -0.8559 -0.1621  0.7579
  472MOL0     C62204  10.691   5.922   6.694  0.4575 -0.3960  0.4196
  472MOL0     C62205  10.779   5.840   6.762 -0.3382 -0.9416  0.0240
  472MOL0     C62206  10.790   5.855   6.906  0.2575 -0.1734 -0.7362
  472MOL0     O62207  10.909   5.804   6.960  0.3151 -0.3110 -0.8242
  472MOL0     C62208  10.939   5.843   7.095  0.7561  0.3981  0.2974
  472MOL0     C62209  11.070   5.773   7.133 -0.2302  0.2129 -0.0981
  472MOL0     C62210  11.087   5.776   7.286 -0.0826  0.8268 -0.2844
  472MOL0     C62211  11.076   5.920   7.356 -0.4069  1.2391  0.0335
  472MOL0     C62212  11.170   6.025   7.295  0.0826  0.0178  0.6837
  472MOL0     C62213  11.311   5.990   7.323 -0.8633 -0.0242 -0.4463
  472MOL0     C62214  11.410   6.087   7.233  0.2584  0.5373 -0.1599
  472MOL0     C62215  11.556   6.045   7.264  0.8875 -0.5422 -0.4024
  472MOL0    Cl62216  11.603   5.894   7.202  0.2095 -0.0453 -0.4483
  472MOL0     C62217  10.690   5.917   6.965 -0.0043  0.4311 -0.4147
  472MOL0     C62218  10.603   6.006   6.895 -0.4705 -0.4018 -0.3133
  472MOL0     O62219  10.593   6.284   6.705 -0.2401 -0.0271  0.2764
  472MOL0     C62220  10.318   6.181   6.491 -0.1781  0.3360  0.0274
  472MOL0     C62221  10.210   6.234   6.415 -0.5925  0.3534 -0.3525
  472MOL0     N62222   9.496   6.454   6.327 -0.6227 -0.2617 -0.7968
  472MOL0     N62223   9.370   6.444   6.321  0.2967  0.7294  0.2019
  472MOL0     C62224   9.713   7.150   7.016  0.6010 -0.9231  0.2298
  472MOL0     C62225   9.833   7.205   7.047  0.0005  1.0102 -0.1837
  472MOL0     C62226  10.299   7.265   6.940 -0.1211  0.5123 -0.0843
  472MOL0     C62227  10.317   7.398   6.986 -0.3914 -0.4570  0.6920
  472MOL0     C62228  10.451   7.458   6.981  0.0371  0.0412 -0.2049
  472MOL0     C62229  10.557   7.378   6.940  0.4914  0.2284 -1.0039
  472MOL0     O62230  10.689   7.427   6.940  0.2152  0.0318 -0.7213
  472MOL0     C62231  10.713   7.567   6.968  0.1543 -0.1751  0.6103
  472MOL0     C62232  10.725   7.602   7.123  0.4548 -0.2684  0.3025
  472MOL0     C62233  10.862   7.561   7.169 -0.9604  0.1587 -1.0351
  472MOL0     C62234  10.871   7.583   7.321 -1.0396 -0.1569 -0.2537
  472MOL0     C62235  10.774   7.492   7.391 -0.6524  0.2765 -0.2364
  472MOL0     C62236  10.691   7.430   7.456 -0.1747 -0.4932 -0.1626
  472MOL0     C62237  10.537   7.252   6.907  0.9584  0.1158  0.1450
  472MOL0     C62238  10.413   7.191   6.899 -0.2563 -1.0289  0.3393
  472MOL0     H62239   9.953   7.233   6.735  1.7269 -1.5088  0.3417
  472MOL0     H62240   9.736   7.134   6.679  3.3903 -1.8930 -0.3914
  472MOL0     H62241   9.596   6.921   6.754 -0.1912 -0.0335  3.0216
  472MOL0     H62242   9.499   7.052   6.676 -0.0180  1.5962  1.0617
  472MOL0     H62243   9.314   6.984   6.855 -2.2826 -1.8821 -1.0266
  472MOL0     H62244   9.419   6.853   6.892  0.8082  0.4672  0.3706
  472MOL0     H62245   9.379   6.777   6.654  3.9142  2.6841  2.5071
  472MOL0     H62246   9.294   6.926   6.612 -2.3016 -0.1343 -0.0691
  472MOL0     H62247   9.180   6.719   6.791 -0.2238  1.8200  2.2078
  472MOL0     H62248   9.142   6.888   6.788  3.2243  0.7897 -0.3811
  472MOL0     H62249   9.089   6.888   6.556  0.8545  0.7450  1.5257
  472MOL0     H62250   8.994   6.764   6.642  0.4288  0.0900  0.9297
  472MOL0     H62251   9.244   6.714   6.467 -0.1333  1.3900  0.4813
  472MOL0     H62252   9.095   6.684   6.409  0.7914  1.0227 -0.2745
  472MOL0     H62253   9.213   6.539   6.661  1.2039 -1.9381 -0.4185
  472MOL0     H62254   9.047   6.522   6.613  0.8033  0.2879  1.4439
  472MOL0     H62255   9.116   6.454   6.392 -1.6561 -1.6048  0.0199
  472MOL0     H62256   9.144   6.347   6.517 -2.4063 -0.3883 -3.5072
  472MOL0     H62257   9.409   6.505   6.636  1.2289  1.2760  0.0440
  472MOL0     H62258   9.668   6.559   6.609  2.8670 -0.6883  1.1936
  472MOL0     H62259   9.721   6.549   6.432 -2.7748  0.1061 -2.8444
  472MOL0     H62260   9.682   6.321   6.619 -2.1059  0.8723 -1.6090
  472MOL0     H62261   9.834   6.410   6.611  1.3637 -0.4667 -3.0941
  472MOL0     H62262   9.825   6.189   6.475  0.1346 -0.8485 -1.7075
  472MOL0     H62263   9.717   6.270   6.362  1.7855 -1.8621 -1.7714
  472MOL0     H62264   9.888   6.390   6.273  2.2684  1.1431 -0.4619
  472MOL0     H62265   9.961   6.229   6.312 -1.4497 -0.9365  2.0734
  472MOL0     H62266  10.196   6.547   6.564 -0.7289  1.0148 -1.7284
  472MOL0     H62267  10.395   6.461   6.672  2.5001 -2.4216  1.0167
  472MOL0     H62268  10.689   5.905   6.587  1.8242 -0.4891  0.3987
  472MOL0     H62269  10.853   5.779   6.713  0.3584 -0.1911  0.1285
  472MOL0     H62270  10.856   5.806   7.155  1.3862 -2.6401 -0.5438
  472MOL0     H62271  10.946   5.950   7.116 -3.2933  0.9352 -0.3705
  472MOL0     H62272  11.151   5.817   7.074  0.9362  1.0507  2.0270
  472MOL0     H62273  11.059   5.672   7.093 -2.1207 -0.2730  1.4537
  472MOL0     H62274  11.179   5.725   7.316 -1.0262 -2.1026 -1.9555
  472MOL0     H62275  11.004   5.726   7.337  0.4718  0.5175  0.3329
  472MOL0     H62276  10.974   5.955   7.338 -0.3356 -0.0849 -3.6707
  472MOL0     H62277  11.097   5.906   7.463 -1.5244  0.2669  0.1475
  472MOL0     H62278  11.137   6.118   7.344 -1.2989  0.5955 -1.2417
  472MOL0     H62279  11.175   6.028   7.186  1.2228 -3.8254  0.5088
  472MOL0     H62280  11.329   5.886   7.294 -0.3582 -0.3599  0.9621
  472MOL0     H62281  11.332   6.010   7.429 -0.5362  0.6061 -0.6278
  472MOL0     H62282  11.390   6.076   7.126  1.4914  1.0895 -0.4636
  472MOL0     H62283  11.381   6.186   7.269 -1.1417 -0.3045  1.1683
  472MOL0     H62284  11.575   6.043   7.372 -0.1567 -0.9056 -0.2207
  472MOL0     H62285  11.633   6.116   7.231  1.5034 -0.9426  0.1449
  472MOL0     H62286  10.671   5.918   7.072  1.8435 -0.0132 -0.0446
  472MOL0     H62287  10.529   6.055   6.958 -3.7063  0.2660 -4.1964
  472MOL0     H62288  10.342   6.078   6.465 -0.8460  0.4740 -1.1959
  472MOL0     H62289  10.165   6.171   6.339 -1.0445  0.5037 -0.2142
  472MOL0     H62290   9.640   7.134   7.095  0.2963 -1.8400 -0.2230
  472MOL0     H62291   9.846   7.240   7.149  2.3912  2.7733 -0.9889
  472MOL0     H62292  10.239   7.462   7.026  0.4483  1.6866 -0.8839
  472MOL0     H62293  10.471   7.565   6.992 -0.3988 -0.0106  1.3630
  472MOL0     H62294  10.643   7.633   6.916  0.4779  0.2137  0.6579
  472MOL0     H62295  10.801   7.594   6.910 -0.5248 -0.5205 -0.6162
  472MOL0     H62296  10.694   7.703   7.149  1.6962  0.2981 -0.3773
  472MOL0     H62297  10.651   7.535   7.168  2.3243 -2.7021 -0.0372
  472MOL0     H62298  10.941   7.619   7.120 -0.3935 -2.0315 -2.8296
  472MOL0     H62299  10.892   7.459   7.147  1.9408  1.2115 -2.4652
  472MOL0     H62300  10.970   7.573   7.366 -1.7666  1.3936  1.8376
  472MOL0     H62301  10.848   7.689   7.340  1.1139  0.3531 -0.2351
  472MOL0     H62302  10.615   7.384   7.515 -3.0770  0.2491 -3.0600
  472MOL0     H62303  10.613   7.179   6.881  0.4459 -0.6635  0.7711
  472MOL0     H62304  10.404   7.094   6.851  1.2249 -2.1773  2.2610
  473MOL0     O62305  10.123   2.367   4.052 -0.3913  0.2750  0.0342
  473MOL0     C62306  10.110   2.487   4.013  0.1052  0.2085  0.1033
  473MOL0     O62307   9.992   2.547   3.991 -0.1763  0.4449 -0.2652
  473MOL0     C62308   9.889   2.506   4.079 -0.3346 -0.2061  0.1421
  473MOL0     C62309   9.777   2.444   4.024 -0.5273 -1.3435 -0.0207
  473MOL0     C62310   9.667   2.413   4.101 -0.3473  0.1133 -1.0359
  473MOL0     C62311   9.664   2.456   4.240  0.5951  0.3177  0.2828
  473MOL0     O62312   9.561   2.430   4.328 -0.5445 -0.1386  0.9162
  473MOL0     C62313   9.452   2.344   4.291  0.2950 -0.2430  0.1754
  473MOL0     C62314   9.348   2.435   4.222 -0.4291 -0.2337  0.2478
  473MOL0     C62315   9.236   2.355   4.161 -0.0698 -0.7662 -0.0670
  473MOL0     C62316   9.165   2.427   4.042 -0.6752  0.4265 -1.0381
  473MOL0     C62317   9.037   2.349   4.020  0.2666 -0.2996  0.2584
  473MOL0     C62318   8.976   2.382   3.876 -0.4135  0.4879  0.7244
  473MOL0     C62319   9.066   2.332   3.760  0.2306  0.1116 -0.0221
  473MOL0     C62320   9.091   2.180   3.765 -0.7534  0.8659 -0.1174
  473MOL0     N62321   8.966   2.097   3.758  0.0172  0.0394 -0.2112
  473MOL0     C62322   8.890   2.050   3.865  0.3305  0.2203 -0.0367
  473MOL0     C62323   8.807   1.954   3.811 -0.1854  0.4116  0.5305
  473MOL0     C62324   8.738   1.848   3.890  0.2999  0.5750 -0.1402
  473MOL0     C62325   8.588   1.863   3.928 -0.2784  0.0412 -0.5301
  473MOL0     C62326   8.495   1.865   3.810 -0.0998  0.6826 -0.0789
  473MOL0     C62327   8.348   1.871   3.827  0.5063 -0.9440  0.3242
  473MOL0     O62328   8.298   1.795   3.722  0.0444 -0.2068  0.6963
  473MOL0     C62329   8.169   1.773   3.703  0.3035  0.9223  0.1026
  473MOL0     C62330   8.064   1.831   3.779  0.6639  0.0174  0.9937
  473MOL0     C62331   7.926   1.806   3.752 -0.2141 -0.4234 -0.4668
  473MOL0     C62332   7.894   1.750   3.622 -0.5750  1.7189 -0.3497
  473MOL0     C62333   7.754   1.758   3.573 -0.0795  0.0755  0.3986
  473MOL0     O62334   7.667   1.835   3.648 -0.3238 -0.6949  0.0690
  473MOL0     C62335   7.526   1.828   3.627 -0.3214 -0.7421 -0.3496
  473MOL0     C62336   7.470   1.930   3.703  0.0570  0.4138  0.3049
  473MOL0     C62337   7.326   1.923   3.712 -0.8718  0.1603  0.5190
  473MOL0     C62338   7.247   1.826   3.652 -0.3090 -0.0936  0.6572
  473MOL0     O62339   7.113   1.808   3.671  0.7500  0.7033 -0.2436
  473MOL0     C62340   7.048   1.911   3.747  0.7952  0.3127 -0.0671
  473MOL0     C62341   6.901   1.880   3.735  0.7244  0.4101 -0.2397
  473MOL0     C62342   6.827   1.961   3.835 -0.3564  0.1189  0.9540
  473MOL0     C62343   6.684   1.929   3.834 -0.2488  0.0396 -0.1955
  473MOL0     C62344   6.585   2.044   3.855 -0.4570 -0.3150 -0.0149
  473MOL0     C62345   6.436   1.997   3.890  0.5303  0.1900  0.0223
  473MOL0     C62346   6.344   2.103   3.844  0.5161 -0.5116 -0.1130
  473MOL0     C62347   6.195   2.073   3.891 -0.2175  0.1896 -1.2662
  473MOL0    Cl62348   6.087   2.209   3.831  0.3613  0.0441 -0.4414
  473MOL0     C62349   7.313   1.726   3.572 -0.4159  0.1953  0.2356
  473MOL0     C62350   7.449   1.727   3.561 -0.2538  0.3219  0.5896
  473MOL0     O62351   7.731   1.715   3.462  0.0206  0.2271 -0.6707
  473MOL0     C62352   7.997   1.697   3.546 -0.2572 -0.0240 -0.2213
  473MOL0     C62353   8.129   1.710   3.580 -0.6164 -0.5599  0.0350
  473MOL0     N62354   8.813   1.972   3.676  0.2054 -0.0008 -0.3836
  473MOL0     N62355   8.907   2.054   3.642 -0.3216  0.5512  0.2536
  473MOL0     C62356   9.776   2.527   4.290 -0.0978  0.0055 -1.0809
  473MOL0     C62357   9.884   2.545   4.210 -0.1588 -0.0747  0.5101
  473MOL0     C62358  10.233   2.545   3.959  0.1086 -0.1724 -0.4019
  473MOL0     C62359  10.356   2.491   4.000 -0.4683  0.4243 -0.4507
  473MOL0     C62360  10.481   2.537   3.937  0.8328 -0.1738 -0.0265
  473MOL0     C62361  10.469   2.647   3.852 -0.6082 -0.4503 -0.0683
  473MOL0     O62362  10.559   2.723   3.790 -0.0483 -0.2543  0.1449
  473MOL0     C62363  10.698   2.685   3.829 -0.1425  0.4183  0.4173
  473MOL0     C62364  10.797   2.769   3.752  0.1811  0.3290  0.6362
  473MOL0     C62365  10.942   2.726   3.789  1.0292 -0.0563  0.2001
  473MOL0     C62366  10.994   2.611   3.705 -0.4203  0.1226 -0.2180
  473MOL0     C62367  11.049   2.647   3.577  0.4625 -0.1063  0.0090
  473MOL0     C62368  11.084   2.665   3.464 -0.8240  0.2382 -0.5124
  473MOL0     C62369  10.345   2.705   3.830  0.0633 -0.3372 -1.0796
  473MOL0     C62370  10.222   2.659   3.875 -0.9698  0.3441  0.4688
  473MOL0     H62371   9.784   2.411   3.921  0.2148 -0.3814 -0.2924
  473MOL0     H62372   9.579   2.365   4.057  0.5033 -2.5189 -0.0643
  473MOL0     H62373   9.392   2.298   4.370 -2.2883  2.6085  0.0420
  473MOL0     H62374   9.499   2.270   4.225  1.2402 -0.7101  1.3443
  473MOL0     H62375   9.381   2.498   4.139 -2.9979 -0.0617 -0.7312
  473MOL0     H62376   9.310   2.506   4.296 -1.9055 -0.3274 -0.4041
  473MOL0     H62377   9.163   2.331   4.239  0.4644  1.2942  1.1570
  473MOL0     H62378   9.269   2.262   4.114  1.1152 -0.9115  0.9865
  473MOL0     H62379   9.144   2.529   4.076  1.4195  1.6698 -3.1093
  473MOL0     H62380   9.232   2.429   3.955  1.4854 -0.6932  0.5172
  473MOL0     H62381   8.954   2.381   4.084  0.8547  1.3549  0.2412
  473MOL0     H62382   9.045   2.240   4.031  0.2023 -0.2146  1.2595
  473MOL0     H62383   8.954   2.488   3.858 -0.8603  0.1429 -0.9196
  473MOL0     H62384   8.874   2.342   3.879 -0.2052 -0.0423  0.8437
  473MOL0     H62385   9.006   2.360   3.673 -3.4044  0.9552  2.5439
  473MOL0     H62386   9.162   2.383   3.753 -0.6503  2.1266  1.6095
  473MOL0     H62387   9.147   2.149   3.854 -1.2731  0.7034  0.1628
  473MOL0     H62388   9.153   2.159   3.678  3.6722  1.0744  2.6909
  473MOL0     H62389   8.888   2.084   3.967  0.0600 -0.8522  0.3316
  473MOL0     H62390   8.800   1.839   3.980 -3.0774  1.3190  2.4654
  473MOL0     H62391   8.732   1.756   3.831 -0.1795 -0.6395  1.7137
  473MOL0     H62392   8.575   1.964   3.970  1.0820  0.0326 -0.0598
  473MOL0     H62393   8.561   1.784   3.998 -0.7809 -1.3553 -2.2229
  473MOL0     H62394   8.524   1.959   3.761 -0.0607  2.3138  2.8300
  473MOL0     H62395   8.511   1.774   3.751 -4.1562 -1.7531  2.1147
  473MOL0     H62396   8.311   1.974   3.818  2.0399 -0.3803  0.2081
  473MOL0     H62397   8.306   1.832   3.920 -0.9678  0.5355  0.3323
  473MOL0     H62398   8.076   1.893   3.868  0.4098 -1.5901  2.2057
  473MOL0     H62399   7.854   1.848   3.821  0.6891 -0.4036  0.4994
  473MOL0     H62400   7.535   2.001   3.754  1.5356  0.3829 -1.4600
  473MOL0     H62401   7.276   1.999   3.772 -1.2761 -2.0723  3.1765
  473MOL0     H62402   7.067   2.015   3.717 -1.6340  0.7169 -0.3806
  473MOL0     H62403   7.091   1.903   3.848 -0.6445 -0.4451  0.5089
  473MOL0     H62404   6.888   1.774   3.756 -0.5575  0.4371 -0.8050
  473MOL0     H62405   6.872   1.881   3.630 -1.5650 -3.2515  0.1928
  473MOL0     H62406   6.840   2.067   3.813  0.3490  0.0764  1.1508
  473MOL0     H62407   6.865   1.953   3.937  0.6710  1.8878  0.7451
  473MOL0     H62408   6.656   1.880   3.741  0.3815  0.3300 -0.5471
  473MOL0     H62409   6.672   1.855   3.915 -1.6733  0.8939  0.3986
  473MOL0     H62410   6.586   2.079   3.751 -1.2565 -2.9384 -0.9950
  473MOL0     H62411   6.622   2.120   3.924 -1.9769  0.0480  0.4440
  473MOL0     H62412   6.433   1.984   3.999  1.2276 -1.4066 -0.1203
  473MOL0     H62413   6.426   1.898   3.844  1.5066 -0.0327  0.2632
  473MOL0     H62414   6.370   2.199   3.889 -2.0206 -0.5386  1.6282
  473MOL0     H62415   6.344   2.106   3.735 -1.3117 -1.3690 -0.1762
  473MOL0     H62416   6.189   2.058   3.999 -1.9146  1.4506 -1.1409
  473MOL0     H62417   6.150   1.980   3.854 -1.0069 -0.7147  1.6714
  473MOL0     H62418   7.264   1.639   3.531  2.8971 -0.7972 -2.0625
  473MOL0     H62419   7.499   1.649   3.504 -1.4867 -1.0668  1.3101
  473MOL0     H62420   7.964   1.651   3.454 -0.9172  2.4162 -1.2960
  473MOL0     H62421   8.206   1.671   3.515 -1.1489 -0.4280 -0.6892
  473MOL0     H62422   9.773   2.566   4.391  0.2441 -0.1835 -0.9946
  473MOL0     H62423   9.966   2.596   4.260 -1.0106 -2.0132  4.2472
  473MOL0     H62424  10.374   2.410   4.070  0.8731  0.8973 -0.2178
  473MOL0     H62425  10.572   2.479   3.948 -0.1273 -2.1666 -1.8587
  473MOL0     H62426  10.724   2.580   3.817  0.9548  0.4556  2.1563
  473MOL0     H62427  10.718   2.697   3.936  2.4197 -1.0983  0.1918
  473MOL0     H62428  10.776   2.749   3.646  1.9259 -2.5927  0.7357
  473MOL0     H62429  10.764   2.871   3.775  2.0472  1.1822 -0.1621
  473MOL0     H62430  10.954   2.702   3.895  1.1704 -0.0215  0.1926
  473MOL0     H62431  11.007   2.812   3.766 -0.1448  0.5162 -1.1586
  473MOL0     H62432  11.072   2.556   3.758  0.8940  1.8946 -0.2276
  473MOL0     H62433  10.911   2.546   3.676 -0.2740  0.0292 -0.4303
  473MOL0     H62434  11.082   2.684   3.359 -0.1854 -0.0041 -0.5701
  473MOL0     H62435  10.349   2.792   3.766  1.5430  0.0324 -0.5285
  473MOL0     H62436  10.130   2.709   3.845 -0.7634  0.4919  0.0786
  474MOL0     O62437   4.748  10.566   3.732  0.7361  0.0190  1.1406
  474MOL0     C62438   4.809  10.531   3.624  0.2648 -0.3674 -0.6365
  474MOL0     O62439   4.756  10.442   3.534 -0.9757  0.2955  0.3923
  474MOL0     C62440   4.647  10.363   3.572 -0.0121 -0.9429  0.2026
  474MOL0     C62441   4.537  10.339   3.490  0.3428  0.3603  0.8756
  474MOL0     C62442   4.433  10.248   3.522  0.1950  0.6158 -0.3609
  474MOL0     C62443   4.436  10.180   3.643  0.8626 -0.3779 -1.0356
  474MOL0     O62444   4.337  10.099   3.688  0.8789 -0.1834  0.8094
  474MOL0     C62445   4.267  10.031   3.591  1.2561  0.3918 -0.2355
  474MOL0     C62446   4.172   9.937   3.665  0.1013  0.5412 -0.1182
  474MOL0     C62447   4.063  10.011   3.754  0.1961 -0.6918  0.3166
  474MOL0     C62448   3.951   9.924   3.810 -0.9070  1.2949 -0.1538
  474MOL0     C62449   3.837  10.006   3.874  0.4199  1.3739 -0.4248
  474MOL0     C62450   3.734   9.920   3.942  0.0250  1.0674 -0.0975
  474MOL0     C62451   3.661   9.992   4.048 -0.5787  1.0744  0.2859
  474MOL0     C62452   3.622  10.129   4.024 -0.0021  0.7422  0.5289
  474MOL0     N62453   3.519  10.170   4.119  0.0654 -0.3607  0.0031
  474MOL0     C62454   3.535  10.268   4.212  0.5382  0.2070 -0.6619
  474MOL0     C62455   3.411  10.299   4.259  0.1278  0.8070 -0.7133
  474MOL0     C62456   3.376  10.398   4.369 -0.5030  0.0311  0.4172
  474MOL0     C62457   3.366  10.340   4.507 -0.4685 -0.0218 -0.2235
  474MOL0     C62458   3.255  10.234   4.508  0.3918 -0.2232 -0.6665
  474MOL0     C62459   3.113  10.291   4.468 -0.5402  0.0290 -0.5103
  474MOL0     O62460   3.067  10.373   4.572  0.2277 -0.1274 -0.0024
  474MOL0     C62461   2.942  10.363   4.638 -0.3169  0.2407 -0.8329
  474MOL0     C62462   2.899  10.463   4.728 -0.2336  0.4098 -0.8081
  474MOL0     C62463   2.779  10.465   4.795  0.4022  0.3099  0.3141
  474MOL0     C62464   2.681  10.370   4.775  0.4982  0.5236  0.5756
  474MOL0     C62465   2.544  10.375   4.832 -0.1673 -0.1107 -0.3212
  474MOL0     O62466   2.467  10.268   4.796 -0.6505  0.0951 -0.7501
  474MOL0     C62467   2.342  10.263   4.847  0.3457 -0.5080  0.1937
  474MOL0     C62468   2.319  10.235   4.982 -0.4235 -0.4713 -0.7713
  474MOL0     C62469   2.200  10.246   5.051  0.6814 -0.0387 -0.0473
  474MOL0     C62470   2.090  10.282   4.973  0.4483 -0.0258  0.2234
  474MOL0     O62471   1.967  10.292   5.030  0.1850  0.1758 -0.1161
  474MOL0     C62472   1.880  10.393   4.979 -0.1695  0.5619  0.3570
  474MOL0     C62473   1.769  10.427   5.084 -0.1321 -0.0510  0.4037
  474MOL0     C62474   1.641  10.475   5.009  0.3224 -0.0080  0.1243
  474MOL0     C62475   1.529  10.525   5.105 -0.3222 -1.0151  0.3275
  474MOL0     C62476   1.484  10.407   5.195  0.0647  0.2601  0.2012
  474MOL0     C62477   1.335  10.424   5.236  0.0018 -0.8979  0.2296
  474MOL0     C62478   1.274  10.311   5.320  0.0491  0.6073 -0.0666
  474MOL0     C62479   1.137  10.330   5.374  0.1692  0.0045  0.2955
  474MOL0    Cl62480   1.098  10.220   5.508 -0.2537 -0.2521  0.1178
  474MOL0     C62481   2.106  10.301   4.832  0.1334  0.1592 -0.6157
  474MOL0     C62482   2.230  10.295   4.774 -0.9512  0.8867  0.6057
  474MOL0     O62483   2.514  10.453   4.920 -0.1466  0.0923  1.0938
  474MOL0     C62484   2.716  10.265   4.690 -0.0228 -0.3285  0.1974
  474MOL0     C62485   2.843  10.265   4.619  0.0889 -0.3951 -0.1822
  474MOL0     N62486   3.325  10.213   4.188 -1.7671  0.0282 -0.1608
  474MOL0     N62487   3.396  10.126   4.120  1.0792  0.0200 -0.7009
  474MOL0     C62488   4.552  10.190   3.723 -0.9474  0.7087 -0.1178
  474MOL0     C62489   4.661  10.280   3.688 -0.1029  0.0368 -0.3838
  474MOL0     C62490   4.949  10.573   3.600  0.6816  0.8040  0.4830
  474MOL0     C62491   5.016  10.660   3.692 -1.1629  0.1035 -0.1724
  474MOL0     C62492   5.149  10.705   3.657 -0.0212 -0.5325  0.9285
  474MOL0     C62493   5.207  10.660   3.538 -0.1266 -0.0231 -0.0672
  474MOL0     O62494   5.340  10.680   3.498 -0.1129 -0.3151  1.0028
  474MOL0     C62495   5.416  10.768   3.576 -0.2569  0.4506  0.4506
  474MOL0     C62496   5.567  10.760   3.532 -0.1249  0.4640  0.0897
  474MOL0     C62497   5.655  10.767   3.653 -0.0932 -0.3899  0.0703
  474MOL0     C62498   5.798  10.734   3.618  0.4065 -0.0713  0.7214
  474MOL0     C62499   5.866  10.742   3.746  0.3020 -1.1895 -0.6757
  474MOL0     C62500   5.933  10.730   3.845 -0.8061 -1.1445 -0.9892
  474MOL0     C62501   5.133  10.588   3.450  0.9110  1.3269 -0.2282
  474MOL0     C62502   5.008  10.534   3.482 -1.5481  0.1726 -0.4648
  474MOL0     H62503   4.518  10.402   3.404 -1.3867  0.3428  1.1897
  474MOL0     H62504   4.354  10.229   3.451  0.7465  1.0963 -1.1304
  474MOL0     H62505   4.333   9.975   3.523  2.1450 -0.6670  1.4287
  474MOL0     H62506   4.203  10.099   3.534  3.0019  4.2650  2.0335
  474MOL0     H62507   4.233   9.867   3.722  1.5656 -1.2139 -3.5755
  474MOL0     H62508   4.125   9.874   3.590 -0.3991  2.4591 -1.4824
  474MOL0     H62509   4.026  10.088   3.686  1.8671 -0.2887 -0.1811
  474MOL0     H62510   4.120  10.051   3.838  2.6957  0.1030 -1.6190
  474MOL0     H62511   3.913   9.858   3.731  1.4731  0.3372 -0.5942
  474MOL0     H62512   3.979   9.855   3.890 -1.0924  0.6165 -0.6701
  474MOL0     H62513   3.789  10.082   3.811 -2.0186 -1.7528 -2.6484
  474MOL0     H62514   3.889  10.058   3.955 -1.3849 -0.6760  2.2157
  474MOL0     H62515   3.780   9.831   3.984 -1.9145  0.4217  0.7918
  474MOL0     H62516   3.675   9.877   3.861  1.7258  0.7347 -1.2166
  474MOL0     H62517   3.565   9.940   4.050 -0.1429  0.2330 -0.1137
  474MOL0     H62518   3.699   9.979   4.150 -2.0924  0.5461  0.7950
  474MOL0     H62519   3.580  10.129   3.923  1.0410  1.3413  0.0766
  474MOL0     H62520   3.708  10.196   4.032 -1.1203  2.1285  1.2329
  474MOL0     H62521   3.632  10.315   4.226  1.5703 -1.5105 -1.6811
  474MOL0     H62522   3.283  10.454   4.356  0.7818  2.5494  1.4072
  474MOL0     H62523   3.457  10.470   4.379 -1.2857  1.0119 -0.1044
  474MOL0     H62524   3.350  10.416   4.584  0.2551 -1.9873  1.9737
  474MOL0     H62525   3.459  10.297   4.543 -1.5039  0.3132  3.1604
  474MOL0     H62526   3.279  10.153   4.439 -1.5057 -1.6961  0.2932
  474MOL0     H62527   3.253  10.186   4.607  1.9088 -1.8246 -1.3610
  474MOL0     H62528   3.045  10.206   4.456 -3.5688  2.4025 -1.8205
  474MOL0     H62529   3.119  10.346   4.374 -0.6619  2.2077  0.6956
  474MOL0     H62530   2.974  10.541   4.739  2.1646 -1.8754  0.5353
  474MOL0     H62531   2.752  10.543   4.866 -1.0876 -0.9290  1.1804
  474MOL0     H62532   2.406  10.222   5.045 -0.1441 -1.4539 -1.3340
  474MOL0     H62533   2.197  10.220   5.157 -2.2239 -2.8869 -0.6440
  474MOL0     H62534   1.833  10.357   4.887  2.0580  3.1321 -1.9698
  474MOL0     H62535   1.938  10.480   4.948  2.6465 -1.6762 -1.1965
  474MOL0     H62536   1.804  10.513   5.142 -2.1575 -0.4217  2.2966
  474MOL0     H62537   1.734  10.344   5.146 -3.2090  0.0879 -0.9722
  474MOL0     H62538   1.608  10.391   4.947 -0.1366 -0.3854  0.8663
  474MOL0     H62539   1.670  10.559   4.945 -0.6355  2.8837  3.2016
  474MOL0     H62540   1.549  10.615   5.163 -0.6350 -1.5751  1.3380
  474MOL0     H62541   1.448  10.554   5.037  1.1476 -1.5002 -1.7081
  474MOL0     H62542   1.537  10.409   5.290  1.2216  0.3804 -0.4280
  474MOL0     H62543   1.499  10.315   5.137  3.5006 -0.1472  1.4894
  474MOL0     H62544   1.279  10.433   5.142 -0.9457 -1.2707  0.7380
  474MOL0     H62545   1.333  10.510   5.305  1.3060 -1.8111  1.4520
  474MOL0     H62546   1.279  10.212   5.273  0.6881  0.3317  0.5527
  474MOL0     H62547   1.329  10.293   5.413  1.6498 -2.2382 -1.4165
  474MOL0     H62548   1.064  10.330   5.292  0.5456 -0.0813 -0.0435
  474MOL0     H62549   1.126  10.428   5.423  3.2519 -0.1250  1.4410
  474MOL0     H62550   2.017  10.331   4.778 -0.7572 -0.2834  0.5605
  474MOL0     H62551   2.255  10.313   4.670 -2.6795  0.1111  0.0263
  474MOL0     H62552   2.643  10.187   4.672  0.2981 -0.0179 -3.3526
  474MOL0     H62553   2.867  10.180   4.555 -2.5915 -0.8067 -0.7912
  474MOL0     H62554   4.551  10.135   3.816  0.7750 -0.4266 -0.7127
  474MOL0     H62555   4.743  10.298   3.757  0.1926 -2.6963  0.0865
  474MOL0     H62556   4.972  10.692   3.786 -1.5623  3.0427 -1.2751
  474MOL0     H62557   5.207  10.764   3.728 -0.0527 -2.3449  2.5661
  474MOL0     H62558   5.403  10.726   3.676 -1.6223 -0.8191 -0.2315
  474MOL0     H62559   5.375  10.869   3.581  1.8919  1.3212  1.9752
  474MOL0     H62560   5.576  10.661   3.485 -1.0131  0.0136  0.8408
  474MOL0     H62561   5.588  10.831   3.452  1.2317 -1.5736 -1.4790
  474MOL0     H62562   5.623  10.701   3.734 -1.8803  0.0106 -0.2673
  474MOL0     H62563   5.648  10.868   3.696 -0.1160 -0.1308 -0.5293
  474MOL0     H62564   5.804  10.633   3.578  0.3523  0.8487 -1.8179
  474MOL0     H62565   5.845  10.804   3.548  3.3666 -2.2867  0.2682
  474MOL0     H62566   5.978  10.703   3.938  0.4518  1.1385 -0.8708
  474MOL0     H62567   5.178  10.566   3.354 -1.3317 -1.5888 -0.7297
  474MOL0     H62568   4.954  10.468   3.414  0.3532  0.2828 -2.1852
  475MOL0     O62569   9.428   4.767   7.041 -0.4324 -0.2059  0.2366
  475MOL0     C62570   9.512   4.701   6.982 -0.4335 -0.2049  1.0149
  475MOL0     O62571   9.649   4.716   6.998  0.2541 -0.6834  0.7126
  475MOL0     C62572   9.697   4.824   7.082 -0.1642  0.5550  0.9259
  475MOL0     C62573   9.643   4.957   7.081  0.0661  0.1467 -0.2688
  475MOL0     C62574   9.723   5.066   7.117  0.1251 -0.0275  0.1676
  475MOL0     C62575   9.847   5.045   7.177  0.8025  0.4437  0.1270
  475MOL0     O62576   9.921   5.152   7.207  0.8333 -0.6963  0.4574
  475MOL0     C62577  10.063   5.132   7.228  0.6558  0.6142  0.5657
  475MOL0     C62578  10.136   5.100   7.097  0.3156 -0.1266  0.5037
  475MOL0     C62579  10.288   5.085   7.124 -0.2822 -0.0275  0.1614
  475MOL0     C62580  10.363   5.030   7.006 -0.1581 -0.5822 -0.0844
  475MOL0     C62581  10.306   5.092   6.876  1.0905  0.1269  0.4070
  475MOL0     C62582  10.390   5.041   6.768 -0.6749  1.2464  0.4779
  475MOL0     C62583  10.339   5.060   6.628 -0.1430 -1.0144  0.2564
  475MOL0     C62584  10.460   5.073   6.528  0.0226 -0.9163  0.1949
  475MOL0     N62585  10.535   4.954   6.524 -0.0089  0.6031 -0.4244
  475MOL0     C62586  10.671   4.953   6.539 -0.8344  0.2785 -0.6547
  475MOL0     C62587  10.705   4.825   6.563 -0.6317  0.0695  0.0480
  475MOL0     C62588  10.841   4.771   6.594  0.1066 -0.1911 -0.1842
  475MOL0     C62589  10.956   4.869   6.622  0.0487 -0.5022  0.3909
  475MOL0     C62590  11.066   4.816   6.714 -0.4951 -0.7141  0.3681
  475MOL0     C62591  11.201   4.889   6.704  0.7271 -0.0761 -0.5166
  475MOL0     O62592  11.276   4.844   6.817 -0.1590  0.1552 -0.0258
  475MOL0     C62593  11.417   4.832   6.801  0.1247 -0.1370 -1.0595
  475MOL0     C62594  11.491   4.873   6.690 -0.6524 -0.4868  0.4365
  475MOL0     C62595  11.631   4.871   6.688 -0.3702 -0.5508  0.2827
  475MOL0     C62596  11.698   4.830   6.807  0.3052 -0.2791 -0.0445
  475MOL0     C62597  11.849   4.846   6.821 -0.3943 -0.2565  0.6817
  475MOL0     O62598  11.897   4.829   6.948  0.2721  1.4438 -0.6426
  475MOL0     C62599  12.026   4.872   6.974  0.8870 -0.7611 -0.4027
  475MOL0     C62600  12.051   4.966   7.075 -0.3062 -1.1649 -0.5642
  475MOL0     C62601  12.181   5.015   7.106  0.4363  0.1530  0.2628
  475MOL0     C62602  12.289   4.981   7.022  0.1182 -0.4377 -0.2849
  475MOL0     O62603  12.410   5.022   7.070 -0.2577 -0.2651  0.3936
  475MOL0     C62604  12.525   4.986   6.985 -0.0471 -0.4093 -0.3134
  475MOL0     C62605  12.645   5.079   7.015 -0.3272 -0.1802 -0.4256
  475MOL0     C62606  12.767   5.038   6.929 -0.7396 -0.6539  1.0576
  475MOL0     C62607  12.871   5.152   6.927  1.1203  0.2342  0.3769
  475MOL0     C62608  13.011   5.091   6.885  0.1893  0.4967 -0.0204
  475MOL0     C62609  13.120   5.202   6.903  0.3641  0.7329  0.5824
  475MOL0     C62610  13.256   5.168   6.826  0.5757  0.0504 -1.2042
  475MOL0     C62611  13.349   5.281   6.851 -0.2027 -0.0753 -0.2757
  475MOL0    Cl62612  13.517   5.246   6.805 -0.7129 -0.3420 -0.3305
  475MOL0     C62613  12.262   4.889   6.917  0.6525  0.4582 -0.9002
  475MOL0     C62614  12.135   4.839   6.896  0.3938 -0.4271  0.8258
  475MOL0     O62615  11.903   4.897   6.720  0.1882  0.5903  0.2211
  475MOL0     C62616  11.623   4.790   6.914 -0.3234  0.2880  0.2970
  475MOL0     C62617  11.485   4.785   6.913  0.0848  0.5150 -0.7096
  475MOL0     N62618  10.589   4.756   6.561  0.1317  0.0330  0.6763
  475MOL0     N62619  10.487   4.828   6.545 -0.0588  0.9062  0.0725
  475MOL0     C62620   9.886   4.913   7.218  0.4888  0.3357  0.6983
  475MOL0     C62621   9.817   4.808   7.161  0.6126  0.5185  0.3740
  475MOL0     C62622   9.470   4.599   6.883 -0.0057  0.6641  0.6916
  475MOL0     C62623   9.559   4.536   6.789  0.0262 -0.6180 -0.2222
  475MOL0     C62624   9.519   4.433   6.702 -0.0944 -0.5225  0.0837
  475MOL0     C62625   9.380   4.400   6.696 -0.0636  0.4376 -1.1526
  475MOL0     O62626   9.341   4.301   6.620 -0.3526 -0.2642 -0.4132
  475MOL0     C62627   9.336   4.173   6.674 -0.2361  0.0038 -0.2485
  475MOL0     C62628   9.465   4.135   6.751 -0.0329  0.2737  0.2416
  475MOL0     C62629   9.451   3.985   6.798  0.0381 -0.0993 -0.6763
  475MOL0     C62630   9.585   3.953   6.882  1.0100 -0.5023  0.4703
  475MOL0     C62631   9.611   3.808   6.884  0.5795  0.5597 -0.6889
  475MOL0     C62632   9.634   3.691   6.865 -0.7277  0.6814 -0.5904
  475MOL0     C62633   9.298   4.461   6.781  0.3439 -0.1700 -0.9262
  475MOL0     C62634   9.336   4.557   6.870  0.8272  0.2094 -0.1778
  475MOL0     H62635   9.542   4.982   7.052  0.1463  0.5161 -0.2383
  475MOL0     H62636   9.688   5.167   7.098 -3.3266 -1.0776  0.3460
  475MOL0     H62637  10.084   5.066   7.312  0.5357  2.5375  2.2036
  475MOL0     H62638  10.099   5.229   7.264  1.1909  1.3597 -1.8021
  475MOL0     H62639  10.125   5.184   7.028  0.8293  1.2669  2.0446
  475MOL0     H62640  10.104   5.007   7.049 -1.1174  0.0856  0.9976
  475MOL0     H62641  10.300   5.024   7.215  1.3078  1.6950  1.1701
  475MOL0     H62642  10.336   5.182   7.138 -1.6613  0.6788  0.1950
  475MOL0     H62643  10.470   5.044   7.020 -0.0088  0.6048 -1.9752
  475MOL0     H62644  10.358   4.921   7.006 -1.2297 -0.5763  2.0057
  475MOL0     H62645  10.323   5.200   6.871  0.9318  0.1236 -0.3634
  475MOL0     H62646  10.203   5.061   6.854  1.2799  0.0660 -0.4421
  475MOL0     H62647  10.386   4.932   6.775  3.2193  0.9326  0.1284
  475MOL0     H62648  10.493   5.078   6.765 -0.1286 -0.2625 -1.3938
  475MOL0     H62649  10.274   4.977   6.600 -1.2955 -0.4514  1.2088
  475MOL0     H62650  10.273   5.146   6.614 -1.3357 -1.9969 -0.3158
  475MOL0     H62651  10.527   5.156   6.552  1.4772 -1.7646 -0.7253
  475MOL0     H62652  10.426   5.093   6.426  1.8601  0.2451 -0.2250
  475MOL0     H62653  10.736   5.039   6.524 -1.8386  1.1399 -0.2274
  475MOL0     H62654  10.866   4.702   6.513  0.4593 -1.6044  1.0832
  475MOL0     H62655  10.836   4.713   6.686  0.6954 -2.2815 -1.3936
  475MOL0     H62656  10.908   4.953   6.674  2.1350  1.9875 -1.4836
  475MOL0     H62657  11.012   4.910   6.537  1.6117 -0.5711  1.3515
  475MOL0     H62658  11.028   4.816   6.817  3.4054  1.6059  2.0099
  475MOL0     H62659  11.072   4.710   6.686 -2.0066 -0.3740 -1.4491
  475MOL0     H62660  11.196   4.999   6.711 -2.2599 -0.1051 -0.6288
  475MOL0     H62661  11.252   4.859   6.613  1.5453 -0.7905  0.1584
  475MOL0     H62662  11.444   4.887   6.593  1.8835 -2.4794 -1.2636
  475MOL0     H62663  11.693   4.878   6.599 -1.5104 -0.4460 -0.5303
  475MOL0     H62664  11.974   4.997   7.146  1.0146  4.9817 -1.2780
  475MOL0     H62665  12.190   5.075   7.196  1.0446  1.5940 -0.7335
  475MOL0     H62666  12.493   5.002   6.881  0.0598  5.2680  0.2186
  475MOL0     H62667  12.553   4.881   6.998  0.3936 -0.0687  1.8237
  475MOL0     H62668  12.676   5.072   7.120  0.0938  2.9279 -0.2467
  475MOL0     H62669  12.607   5.178   6.986  2.4991  0.8681 -0.8766
  475MOL0     H62670  12.743   5.011   6.826 -2.3072  0.0727  1.1977
  475MOL0     H62671  12.803   4.952   6.985 -2.0266 -1.4485  0.7014
  475MOL0     H62672  12.843   5.219   6.845  2.2543 -1.6655 -1.6644
  475MOL0     H62673  12.867   5.202   7.024  1.3335 -1.8352  1.4915
  475MOL0     H62674  13.013   5.050   6.784  2.1705 -1.2633  0.6682
  475MOL0     H62675  13.050   5.011   6.948  2.9048  0.3127 -1.7691
  475MOL0     H62676  13.127   5.199   7.012 -0.9717  0.1031  0.6694
  475MOL0     H62677  13.079   5.297   6.866  0.7470  0.6335 -0.1201
  475MOL0     H62678  13.286   5.072   6.869 -0.4610 -0.0372 -0.6458
  475MOL0     H62679  13.243   5.163   6.717  2.5202 -0.4652 -1.4594
  475MOL0     H62680  13.337   5.305   6.958  0.7534  1.7210 -0.5326
  475MOL0     H62681  13.321   5.370   6.794 -0.3195  1.1890  1.6516
  475MOL0     H62682  12.348   4.842   6.871  3.3797  0.1324  3.7727
  475MOL0     H62683  12.121   4.762   6.820 -1.7204 -1.4519  2.1571
  475MOL0     H62684  11.670   4.763   7.008 -0.3998 -0.2223  0.1894
  475MOL0     H62685  11.442   4.773   7.012  0.1081 -0.8117 -0.8553
  475MOL0     H62686   9.976   4.900   7.278  0.9416 -0.3009 -0.1071
  475MOL0     H62687   9.848   4.707   7.182  1.1124  0.3664 -1.0373
  475MOL0     H62688   9.659   4.578   6.782  0.2187 -1.1741 -1.0796
  475MOL0     H62689   9.575   4.395   6.618 -1.5299  0.8784 -1.5807
  475MOL0     H62690   9.309   4.106   6.592 -1.2032  0.8651 -0.6483
  475MOL0     H62691   9.257   4.175   6.749 -0.3711  3.0265 -0.3407
  475MOL0     H62692   9.547   4.148   6.680 -0.8596  2.2736 -0.4294
  475MOL0     H62693   9.471   4.208   6.833 -3.4993 -0.2487  1.0960
  475MOL0     H62694   9.441   3.917   6.714  0.0726 -0.0572 -0.7148
  475MOL0     H62695   9.365   3.979   6.865 -0.3085 -0.1952 -1.1278
  475MOL0     H62696   9.666   4.014   6.842 -0.5384  1.0102 -0.5262
  475MOL0     H62697   9.569   3.975   6.988 -0.1519  0.5910  0.0855
  475MOL0     H62698   9.652   3.586   6.855 -2.7508  0.4824 -3.7790
  475MOL0     H62699   9.194   4.429   6.777  0.4302 -0.3378 -2.3271
  475MOL0     H62700   9.262   4.605   6.933  3.5718  0.2286  3.3250
  476MOL0     O62701   3.793   4.564   5.931  0.8397 -0.1397  0.6516
  476MOL0     C62702   3.837   4.472   5.865  0.1307 -0.6012 -0.1927
  476MOL0     O62703   3.803   4.338   5.869 -0.2663 -0.2504  0.1330
  476MOL0     C62704   3.712   4.311   5.963 -0.4073  0.5174 -0.0405
  476MOL0     C62705   3.756   4.252   6.084  0.4888 -1.4743 -0.3273
  476MOL0     C62706   3.662   4.204   6.179  0.3927 -0.2413 -0.3775
  476MOL0     C62707   3.527   4.212   6.160  0.6223 -0.0310 -0.0130
  476MOL0     O62708   3.420   4.156   6.231 -0.5156 -0.2159  0.6664
  476MOL0     C62709   3.428   4.172   6.374  1.0882 -0.0979  0.2143
  476MOL0     C62710   3.359   4.048   6.426 -0.6783  0.3003  0.6628
  476MOL0     C62711   3.331   4.057   6.575  0.0058  0.5730  0.2823
  476MOL0     C62712   3.274   3.924   6.613  0.5266 -0.0195 -0.0265
  476MOL0     C62713   3.272   3.895   6.768  0.2018  0.7797  0.0155
  476MOL0     C62714   3.203   3.992   6.863  0.1536 -0.1625  0.9138
  476MOL0     C62715   3.238   3.972   7.014 -0.2083 -0.2231  0.5255
  476MOL0     C62716   3.206   4.098   7.093  0.2845  0.0981 -0.4064
  476MOL0     N62717   3.053   4.116   7.113  0.4529 -0.6897 -0.7594
  476MOL0     C62718   2.969   4.052   7.205 -0.8062 -1.1830  0.8252
  476MOL0     C62719   2.845   4.087   7.172  1.0112  0.3379 -0.1464
  476MOL0     C62720   2.726   4.021   7.236 -0.2284 -0.3057  0.1933
  476MOL0     C62721   2.599   4.108   7.213 -0.4565 -0.0467 -0.3955
  476MOL0     C62722   2.489   4.038   7.289  0.7953 -0.2687 -0.6021
  476MOL0     C62723   2.352   4.099   7.244 -0.4093  0.5995 -0.2577
  476MOL0     O62724   2.256   4.051   7.339  0.0694 -0.0419  0.4601
  476MOL0     C62725   2.140   4.108   7.319  0.3595  0.6821  0.3562
  476MOL0     C62726   2.051   4.077   7.211  0.5955 -0.2307  0.2463
  476MOL0     C62727   1.921   4.134   7.195 -0.0978  0.4099 -0.3092
  476MOL0     C62728   1.872   4.219   7.297 -0.7042  0.0336 -1.2417
  476MOL0     C62729   1.732   4.288   7.278  0.3434  0.5244 -0.3164
  476MOL0     O62730   1.646   4.227   7.187 -0.2238 -0.1571  0.3963
  476MOL0     C62731   1.517   4.257   7.167  0.3034  0.4247 -0.2034
  476MOL0     C62732   1.439   4.354   7.228  0.6289 -0.9073  0.2377
  476MOL0     C62733   1.304   4.370   7.194  0.3492  0.0844 -0.8271
  476MOL0     C62734   1.253   4.302   7.080  0.2781  0.4403 -0.4836
  476MOL0     O62735   1.125   4.329   7.025 -0.3147  0.8645  0.1433
  476MOL0     C62736   1.024   4.376   7.108 -1.3202 -0.1081  0.0875
  476MOL0     C62737   0.885   4.328   7.056 -0.0666 -0.1746 -0.1545
  476MOL0     C62738   0.784   4.415   7.129 -0.5790  0.0918  0.3636
  476MOL0     C62739   0.795   4.388   7.278  0.3550 -0.2749  0.8788
  476MOL0     C62740   0.672   4.448   7.357  0.3403  0.8980  0.4195
  476MOL0     C62741   0.676   4.601   7.346  0.0276  0.6450  0.3124
  476MOL0     C62742   0.573   4.654   7.448 -0.8123 -0.3154 -0.4665
  476MOL0     C62743   0.430   4.651   7.420  0.3648 -0.5504 -0.1942
  476MOL0    Cl62744   0.386   4.702   7.260 -0.2799  0.1504 -0.0466
  476MOL0     C62745   1.330   4.211   7.014  0.3872  0.2424  1.1213
  476MOL0     C62746   1.464   4.186   7.057  0.9511  0.3016  0.6648
  476MOL0     O62747   1.704   4.389   7.342  0.2627  0.1797  0.2867
  476MOL0     C62748   1.952   4.238   7.425  0.2541 -0.6128  0.5257
  476MOL0     C62749   2.081   4.182   7.424 -0.1268 -0.7994  0.3526
  476MOL0     N62750   2.854   4.168   7.065 -0.3377  0.1641  0.4610
  476MOL0     N62751   2.973   4.195   7.037  0.0226 -0.3767 -0.8651
  476MOL0     C62752   3.484   4.284   6.043 -0.2817 -0.5349  0.4509
  476MOL0     C62753   3.577   4.336   5.949  0.0048 -0.7291 -0.1866
  476MOL0     C62754   3.949   4.513   5.782 -0.7725 -0.0714  1.1054
  476MOL0     C62755   3.999   4.649   5.782  0.0743 -0.2099 -0.4646
  476MOL0     C62756   4.104   4.686   5.699 -0.3681 -0.2358  0.0960
  476MOL0     C62757   4.177   4.593   5.624  0.5121 -0.4018 -1.2668
  476MOL0     O62758   4.280   4.632   5.557 -0.4082 -0.5691 -0.1660
  476MOL0     C62759   4.386   4.534   5.550 -0.3155  0.0641  0.0822
  476MOL0     C62760   4.514   4.611   5.541  0.4221 -0.5713 -0.6080
  476MOL0     C62761   4.517   4.709   5.420 -0.3737  0.2880 -0.0579
  476MOL0     C62762   4.639   4.798   5.422  0.3088  0.4459  0.3462
  476MOL0     C62763   4.770   4.736   5.389  0.8091  0.0121  0.0746
  476MOL0     C62764   4.874   4.680   5.360  0.4329  0.5516 -1.4785
  476MOL0     C62765   4.134   4.461   5.622  0.6826 -0.7505 -0.3038
  476MOL0     C62766   4.021   4.423   5.696 -0.3876  0.0813 -0.3188
  476MOL0     H62767   3.863   4.248   6.097  0.1833 -1.4693  3.6390
  476MOL0     H62768   3.701   4.139   6.257  1.4789  0.3233 -0.4312
  476MOL0     H62769   3.376   4.266   6.393 -0.1018 -0.6213 -0.3618
  476MOL0     H62770   3.527   4.173   6.421  0.3209  1.0492  1.8852
  476MOL0     H62771   3.414   3.957   6.400 -0.1096 -0.0100  2.7569
  476MOL0     H62772   3.261   4.058   6.377 -0.1966  2.8500  0.0866
  476MOL0     H62773   3.269   4.144   6.598  2.0607  1.5220  2.7471
  476MOL0     H62774   3.427   4.079   6.622  0.3701  1.9773 -1.0234
  476MOL0     H62775   3.171   3.915   6.576  0.6058 -3.9486  0.2526
  476MOL0     H62776   3.327   3.843   6.562 -1.0113 -0.6606 -0.6617
  476MOL0     H62777   3.375   3.872   6.797 -0.9463 -5.9812  0.4492
  476MOL0     H62778   3.217   3.803   6.790  0.0399  1.3429  2.2187
  476MOL0     H62779   3.096   3.987   6.840  0.5691  2.3046 -2.2917
  476MOL0     H62780   3.225   4.094   6.830 -3.0472 -0.5692 -3.3983
  476MOL0     H62781   3.183   3.885   7.050 -1.7662  0.8448  0.8388
  476MOL0     H62782   3.344   3.946   7.027 -0.2690  0.2432  2.0993
  476MOL0     H62783   3.246   4.183   7.038  0.7117 -0.7917 -1.5079
  476MOL0     H62784   3.250   4.081   7.192 -2.8840 -0.6980  1.0041
  476MOL0     H62785   3.006   3.984   7.282  1.5804 -0.6155  0.2676
  476MOL0     H62786   2.736   3.995   7.342 -1.7494 -0.1498  0.3968
  476MOL0     H62787   2.713   3.934   7.173 -1.7892 -0.3143  0.4966
  476MOL0     H62788   2.572   4.109   7.107  1.1331  2.5752 -0.8545
  476MOL0     H62789   2.613   4.211   7.248  0.7581  0.2143 -1.5714
  476MOL0     H62790   2.490   3.930   7.278  1.4155 -0.5255  1.5908
  476MOL0     H62791   2.509   4.061   7.394 -0.6786  0.1278 -0.3898
  476MOL0     H62792   2.345   4.069   7.139  2.9694  0.6809 -0.6302
  476MOL0     H62793   2.351   4.209   7.243  0.1216  0.6451  1.2108
  476MOL0     H62794   2.080   4.015   7.126 -0.5877 -1.3484  0.6235
  476MOL0     H62795   1.862   4.115   7.106 -0.9120 -1.2445  0.5228
  476MOL0     H62796   1.468   4.422   7.308 -2.1981 -1.0631  1.5180
  476MOL0     H62797   1.233   4.430   7.252  1.7581 -0.0342  1.1250
  476MOL0     H62798   1.031   4.485   7.103 -0.2145 -0.1911 -0.3543
  476MOL0     H62799   1.039   4.347   7.213 -1.7353  1.4741  0.6148
  476MOL0     H62800   0.881   4.220   7.070  0.6682 -0.7714 -3.6214
  476MOL0     H62801   0.883   4.336   6.947  0.9033 -1.7973 -0.3224
  476MOL0     H62802   0.684   4.405   7.086 -0.2818  1.0778 -0.6040
  476MOL0     H62803   0.803   4.519   7.099 -1.5443  0.4081  0.8199
  476MOL0     H62804   0.788   4.280   7.288 -1.3683 -0.1117  1.9052
  476MOL0     H62805   0.885   4.430   7.323  0.8246 -1.0802  0.7011
  476MOL0     H62806   0.664   4.403   7.456 -0.8045 -2.7873 -1.2012
  476MOL0     H62807   0.586   4.411   7.301  1.6527 -1.9348  0.1328
  476MOL0     H62808   0.655   4.633   7.243 -1.4083  1.5394  0.8394
  476MOL0     H62809   0.771   4.645   7.376 -0.4222  3.4328 -1.8658
  476MOL0     H62810   0.591   4.602   7.543 -0.6362  3.9630  2.1039
  476MOL0     H62811   0.597   4.759   7.464 -2.7944  0.5920 -2.9390
  476MOL0     H62812   0.376   4.712   7.494  2.1093  0.0097  0.6897
  476MOL0     H62813   0.389   4.550   7.431 -1.7466  0.4478  2.2810
  476MOL0     H62814   1.299   4.149   6.931  0.0460  0.5790  0.9927
  476MOL0     H62815   1.530   4.122   7.000 -3.0421 -2.6063 -1.1527
  476MOL0     H62816   1.923   4.303   7.506  4.2555  0.8169  1.0241
  476MOL0     H62817   2.147   4.192   7.510 -0.3722 -0.4750  0.5043
  476MOL0     H62818   3.378   4.309   6.041  0.6133  4.4636  2.1842
  476MOL0     H62819   3.551   4.390   5.858  2.3419  1.5840  0.3963
  476MOL0     H62820   3.947   4.718   5.849 -0.5615 -1.0161 -0.1126
  476MOL0     H62821   4.141   4.788   5.690  0.9617 -0.4866  2.1058
  476MOL0     H62822   4.376   4.465   5.466 -5.0363 -2.1226  2.0538
  476MOL0     H62823   4.387   4.467   5.636 -0.2946  0.8476  0.6987
  476MOL0     H62824   4.525   4.672   5.631 -1.1397 -1.5948  0.3182
  476MOL0     H62825   4.596   4.539   5.540  2.0570  0.7534  5.2278
  476MOL0     H62826   4.431   4.776   5.414 -1.2680 -0.9296 -1.0303
  476MOL0     H62827   4.532   4.652   5.328 -1.5145 -2.5182  1.3658
  476MOL0     H62828   4.624   4.889   5.364 -0.6786 -0.1390 -0.3325
  476MOL0     H62829   4.652   4.838   5.524  0.8022  1.3668 -0.0635
  476MOL0     H62830   4.967   4.632   5.335  0.4364  0.5329 -1.4297
  476MOL0     H62831   4.191   4.385   5.570 -1.5955 -2.5351 -0.3413
  476MOL0     H62832   3.990   4.319   5.701 -0.6568  0.1097 -1.1860
  477MOL0     O62833   5.375  10.166   3.749  1.2086  0.6300  0.1782
  477MOL0     C62834   5.370  10.193   3.629 -0.0141  1.5506 -0.6436
  477MOL0     O62835   5.268  10.163   3.553  0.4037 -0.4459  0.0498
  477MOL0     C62836   5.161  10.097   3.608 -0.8474  0.4009 -0.8694
  477MOL0     C62837   5.135   9.963   3.567  0.3244 -0.2202  0.9118
  477MOL0     C62838   5.021   9.903   3.611  1.1759 -0.3650 -0.8618
  477MOL0     C62839   4.934   9.965   3.699  0.5172 -0.4330 -0.2089
  477MOL0     O62840   4.823   9.907   3.753  0.6705  0.2801  0.3007
  477MOL0     C62841   4.796   9.762   3.725 -0.0860 -0.3620 -0.5850
  477MOL0     C62842   4.654   9.752   3.754  0.0103  0.1953  0.0729
  477MOL0     C62843   4.615   9.613   3.798 -0.1162 -0.9764  0.2377
  477MOL0     C62844   4.462   9.612   3.830 -0.9153 -0.1177  0.2497
  477MOL0     C62845   4.374   9.642   3.713 -0.2256 -0.6061  0.0541
  477MOL0     C62846   4.364   9.534   3.603 -0.0346  0.1157  0.1961
  477MOL0     C62847   4.249   9.568   3.518  0.0247 -0.3589 -0.1778
  477MOL0     C62848   4.111   9.524   3.571  0.9626  0.2656  1.3842
  477MOL0     N62849   4.016   9.579   3.472  0.3158 -0.4461  0.2956
  477MOL0     C62850   3.987   9.543   3.339 -0.3361  0.1939 -0.6156
  477MOL0     C62851   3.883   9.610   3.306 -0.0070 -0.9328 -0.1044
  477MOL0     C62852   3.816   9.596   3.172 -0.1701  0.3521 -0.6941
  477MOL0     C62853   3.658   9.563   3.198 -0.2007 -0.5628  0.1742
  477MOL0     C62854   3.579   9.580   3.068  0.4658 -0.0972  0.5328
  477MOL0     C62855   3.427   9.564   3.084  0.6445  0.1007  0.5931
  477MOL0     O62856   3.404   9.431   3.110 -0.1048  0.3342 -0.8428
  477MOL0     C62857   3.280   9.376   3.107 -0.4300  0.6588  0.6283
  477MOL0     C62858   3.166   9.450   3.139 -0.1848 -0.2552 -0.5961
  477MOL0     C62859   3.044   9.376   3.169 -0.4039 -0.0643  0.2101
  477MOL0     C62860   3.036   9.239   3.150  0.1935  0.5850  0.7436
  477MOL0     C62861   2.906   9.163   3.165 -1.5359 -0.2620  0.3827
  477MOL0     O62862   2.790   9.242   3.177  0.4172  0.4346 -1.0614
  477MOL0     C62863   2.674   9.185   3.230 -0.5781  0.5935  0.5909
  477MOL0     C62864   2.550   9.236   3.192 -0.3213  0.3935 -0.6528
  477MOL0     C62865   2.428   9.173   3.246 -0.1804  0.1531  0.1917
  477MOL0     C62866   2.441   9.076   3.348 -0.0478  0.5011  0.4404
  477MOL0     O62867   2.341   9.020   3.421  0.3766 -0.1838 -0.0331
  477MOL0     C62868   2.224   9.095   3.433  0.3922  0.3192  0.2185
  477MOL0     C62869   2.146   9.042   3.552 -0.2176 -0.0353 -0.0455
  477MOL0     C62870   1.999   9.051   3.539  0.3461 -0.0515  0.4549
  477MOL0     C62871   1.926   8.999   3.663  0.0207  0.6563 -0.0228
  477MOL0     C62872   1.782   8.971   3.632  0.1448  0.1308 -0.7219
  477MOL0     C62873   1.699   9.103   3.611  0.0032 -0.2127  0.6407
  477MOL0     C62874   1.549   9.071   3.588 -1.0498  0.4968 -1.0407
  477MOL0     C62875   1.460   9.192   3.550 -0.4701  0.0832 -0.0350
  477MOL0    Cl62876   1.466   9.316   3.668  0.3063 -0.0918  0.7185
  477MOL0     C62877   2.562   9.029   3.385 -0.2813  0.3888 -0.4733
  477MOL0     C62878   2.677   9.081   3.320  0.0719 -0.1961 -0.3652
  477MOL0     O62879   2.913   9.042   3.163 -0.3499  0.0789  0.1888
  477MOL0     C62880   3.153   9.168   3.113 -1.1452 -0.0417  0.2813
  477MOL0     C62881   3.272   9.240   3.087 -0.0817  0.3198  0.0880
  477MOL0     N62882   3.839   9.684   3.414  0.0557 -0.3987  0.2454
  477MOL0     N62883   3.931   9.674   3.514 -0.7686 -1.1534  0.9344
  477MOL0     C62884   4.958  10.096   3.734 -0.1822  0.1395 -0.1518
  477MOL0     C62885   5.069  10.171   3.686 -0.0214  0.2480  0.2084
  477MOL0     C62886   5.481  10.262   3.563 -0.7850 -1.1407 -0.0467
  477MOL0     C62887   5.611  10.241   3.616  0.2509 -0.4100  0.4940
  477MOL0     C62888   5.721  10.305   3.550  0.1384 -0.4061 -0.2687
  477MOL0     C62889   5.705  10.390   3.438 -0.2411 -0.6874 -0.6610
  477MOL0     O62890   5.811  10.442   3.366 -0.2789  0.7830 -0.2929
  477MOL0     C62891   5.948  10.428   3.413 -0.2442  0.1824  0.4697
  477MOL0     C62892   6.032  10.452   3.292  0.5092 -0.7087 -0.4293
  477MOL0     C62893   6.006  10.588   3.225 -0.3474  0.4052  0.2104
  477MOL0     C62894   6.102  10.626   3.106 -0.1217  0.2802  0.6682
  477MOL0     C62895   6.242  10.615   3.138 -0.3986  0.4300  0.4330
  477MOL0     C62896   6.360  10.616   3.169  0.2813 -0.3887 -0.4671
  477MOL0     C62897   5.572  10.406   3.387 -1.0221  0.0407 -0.0470
  477MOL0     C62898   5.467  10.346   3.448 -0.3539  0.1834  0.0310
  477MOL0     H62899   5.208   9.907   3.509 -1.8466 -3.7219  1.2317
  477MOL0     H62900   5.003   9.797   3.592 -0.4997 -0.1601 -0.5782
  477MOL0     H62901   4.862   9.700   3.787  2.6923  3.4940  0.6807
  477MOL0     H62902   4.815   9.745   3.618 -0.7007 -0.3030 -0.7044
  477MOL0     H62903   4.604   9.782   3.661 -0.5135 -1.6986 -0.3042
  477MOL0     H62904   4.607   9.820   3.825 -3.3044 -2.3912  0.6393
  477MOL0     H62905   4.675   9.577   3.882  0.8915  1.2727  0.5525
  477MOL0     H62906   4.642   9.543   3.717  2.1303  2.8247 -2.6705
  477MOL0     H62907   4.435   9.522   3.886  1.1666 -1.0023 -0.0612
  477MOL0     H62908   4.442   9.693   3.900 -1.3134 -0.9179  1.0741
  477MOL0     H62909   4.397   9.738   3.667 -0.8149  0.3093  1.5932
  477MOL0     H62910   4.275   9.664   3.755  0.7317  2.1881  1.0422
  477MOL0     H62911   4.354   9.439   3.656 -0.7668  1.7096  3.1431
  477MOL0     H62912   4.458   9.532   3.547 -1.2951 -0.1660 -2.0333
  477MOL0     H62913   4.253   9.675   3.500  0.7036 -0.0387  1.6578
  477MOL0     H62914   4.277   9.510   3.429 -0.9099  1.1484 -1.5124
  477MOL0     H62915   4.091   9.562   3.671  2.2469  1.1345  1.3275
  477MOL0     H62916   4.090   9.416   3.569 -2.0620  0.7046 -2.2577
  477MOL0     H62917   4.036   9.473   3.272 -0.6883 -0.8054  0.1472
  477MOL0     H62918   3.868   9.512   3.126 -0.1020 -1.2048  2.0159
  477MOL0     H62919   3.834   9.689   3.118  2.4369  0.3985  0.0834
  477MOL0     H62920   3.624   9.634   3.275 -1.9404 -1.7580  0.5573
  477MOL0     H62921   3.653   9.459   3.231  4.0066 -2.0544 -3.0417
  477MOL0     H62922   3.605   9.679   3.029 -2.6589 -0.1721 -2.2961
  477MOL0     H62923   3.617   9.521   2.984  0.1504 -1.7293  1.5017
  477MOL0     H62924   3.371   9.600   2.997  1.1670  0.6916  0.4894
  477MOL0     H62925   3.404   9.625   3.172  0.3768  1.8439 -0.6395
  477MOL0     H62926   3.154   9.556   3.158  0.0989 -0.5323  1.3855
  477MOL0     H62927   2.953   9.430   3.189  0.2157  0.8285  0.6489
  477MOL0     H62928   2.547   9.312   3.115  1.8372  0.6329 -0.5608
  477MOL0     H62929   2.325   9.194   3.222 -0.3298  2.5137  2.4368
  477MOL0     H62930   2.174   9.082   3.337  0.3980  1.8574 -0.0157
  477MOL0     H62931   2.248   9.200   3.449 -3.4791  1.3390  0.5068
  477MOL0     H62932   2.177   9.107   3.635 -0.3532  2.6778 -1.9975
  477MOL0     H62933   2.172   8.937   3.563 -0.5545 -0.0484  0.7071
  477MOL0     H62934   1.965   8.998   3.450  0.9349  0.8852 -0.3510
  477MOL0     H62935   1.974   9.154   3.512  0.9324  0.0946  0.4358
  477MOL0     H62936   1.974   8.911   3.706  0.2359  1.8481  2.3804
  477MOL0     H62937   1.925   9.071   3.746  2.7551  0.6790  0.0923
  477MOL0     H62938   1.732   8.923   3.717 -0.9499  3.8881  1.0240
  477MOL0     H62939   1.777   8.909   3.542  1.7219  0.9444 -1.4026
  477MOL0     H62940   1.730   9.153   3.519  1.8379  1.4041  2.0671
  477MOL0     H62941   1.696   9.168   3.699 -2.0810 -0.2557  0.6641
  477MOL0     H62942   1.542   8.996   3.510 -1.3378  0.4472 -0.9665
  477MOL0     H62943   1.511   9.025   3.680  0.1839  0.5786 -0.4557
  477MOL0     H62944   1.353   9.171   3.539 -0.6857  0.4012  1.2131
  477MOL0     H62945   1.495   9.243   3.460 -3.0159 -0.7321 -1.6052
  477MOL0     H62946   2.573   8.957   3.465  2.3023  0.5624 -0.5806
  477MOL0     H62947   2.773   9.048   3.357  2.1777  4.5160 -0.9073
  477MOL0     H62948   3.153   9.063   3.085 -1.1047  0.5392 -2.1152
  477MOL0     H62949   3.364   9.194   3.053 -1.3657 -1.0660 -1.7277
  477MOL0     H62950   4.890  10.151   3.797  2.0120  1.1871  1.4486
  477MOL0     H62951   5.081  10.277   3.706  2.7936  0.1690 -0.6588
  477MOL0     H62952   5.613  10.183   3.708 -4.1219  0.1970  1.2084
  477MOL0     H62953   5.818  10.286   3.595 -0.0688  0.1372  0.4270
  477MOL0     H62954   5.972  10.329   3.452 -0.8979  0.7074  2.3441
  477MOL0     H62955   5.972  10.495   3.496  1.3160  2.6945 -1.8274
  477MOL0     H62956   6.138  10.440   3.319  1.2710  3.4310 -0.9422
  477MOL0     H62957   5.997  10.378   3.220  0.7155  2.5403 -4.1381
  477MOL0     H62958   5.987  10.669   3.295  1.1073  2.8920 -2.0687
  477MOL0     H62959   5.908  10.585   3.175 -0.9735  2.1677  1.2499
  477MOL0     H62960   6.079  10.572   3.014  0.2624 -0.6146  1.0895
  477MOL0     H62961   6.078  10.731   3.086 -1.0044 -0.2493 -1.2566
  477MOL0     H62962   6.463  10.613   3.199 -0.6946 -2.2555  3.2890
  477MOL0     H62963   5.558  10.473   3.302  1.9618 -0.7180 -1.2680
  477MOL0     H62964   5.367  10.360   3.408 -0.6408 -3.4208 -0.8586
  478MOL0     O62965   6.247   4.370   9.768  0.0087  0.0724  0.5708
  478MOL0     C62966   6.301   4.475   9.763 -0.1969  0.4772 -0.0252
  478MOL0     O62967   6.306   4.560   9.867  0.0804  0.3498  0.1179
  478MOL0     C62968   6.213   4.562   9.970  0.5659  0.0946  0.6896
  478MOL0     C62969   6.250   4.618  10.091 -0.2937 -0.8993  0.1670
  478MOL0     C62970   6.164   4.636  10.203 -0.8977  0.8376 -0.7947
  478MOL0     C62971   6.029   4.597  10.195  0.9547 -0.0610 -0.0765
  478MOL0     O62972   5.948   4.612  10.309 -0.6510  0.6931 -0.1923
  478MOL0     C62973   5.858   4.507  10.324 -0.8207 -0.6718  0.7127
  478MOL0     C62974   5.805   4.524  10.468 -0.1809 -0.0371 -1.0649
  478MOL0     C62975   5.684   4.438  10.504 -0.3910  0.3612  0.5635
  478MOL0     C62976   5.728   4.313  10.561  0.3156  0.0772  0.9732
  478MOL0     C62977   5.603   4.227  10.573  0.1063  0.1529  0.1009
  478MOL0     C62978   5.635   4.093  10.633 -0.9139 -0.4748 -0.0872
  478MOL0     C62979   5.505   4.002  10.662  0.1409  0.0213 -0.2228
  478MOL0     C62980   5.543   3.882  10.756  0.3678 -0.2058  0.6893
  478MOL0     N62981   5.641   3.794  10.691 -0.7025 -0.4923 -0.4934
  478MOL0     C62982   5.779   3.812  10.709 -0.2519  0.5561 -0.1631
  478MOL0     C62983   5.835   3.696  10.665 -0.5965 -0.0026  0.6268
  478MOL0     C62984   5.983   3.662  10.656 -0.3361 -0.7134 -0.4318
  478MOL0     C62985   6.034   3.574  10.772 -0.5483  0.1266  0.5916
  478MOL0     C62986   6.150   3.642  10.862 -0.2672 -0.4018  0.3981
  478MOL0     C62987   6.200   3.538  10.973  0.7043 -0.0983  0.0368
  478MOL0     O62988   6.265   3.426  10.892  0.7235  0.1099 -0.2065
  478MOL0     C62989   6.389   3.457  10.867 -0.3473  0.0684 -0.0107
  478MOL0     C62990   6.492   3.429  10.955  0.2206  1.7738  0.0944
  478MOL0     C62991   6.624   3.461  10.928  0.5991  0.1813  0.7743
  478MOL0     C62992   6.665   3.522  10.811 -0.1694 -0.0244  0.0087
  478MOL0     C62993   6.801   3.562  10.779 -0.8705 -0.4118 -0.3115
  478MOL0     O62994   6.817   3.616  10.660 -0.0270 -0.2044 -0.0661
  478MOL0     C62995   6.938   3.659  10.616  0.1801 -0.3758 -1.0896
  478MOL0     C62996   6.992   3.616  10.495  0.1134  0.0495  0.3122
  478MOL0     C62997   7.107   3.676  10.431 -0.4250 -0.6163  0.1480
  478MOL0     C62998   7.170   3.782  10.503  0.2048 -0.6163  0.5064
  478MOL0     O62999   7.275   3.834  10.435  0.2939 -0.3076  0.3599
  478MOL0     C63000   7.352   3.933  10.504  0.1362  0.2643 -0.5321
  478MOL0     C63001   7.462   3.965  10.398 -0.2972 -1.1682 -0.3703
  478MOL0     C63002   7.565   3.859  10.366 -0.5410 -0.5429 -0.1786
  478MOL0     C63003   7.663   3.902  10.261  0.4807 -0.7004 -0.0176
  478MOL0     C63004   7.764   3.800  10.230  0.6318  0.7352 -0.4063
  478MOL0     C63005   7.781   3.788  10.075 -0.7571  0.6041 -0.8261
  478MOL0     C63006   7.854   3.661  10.048  0.1942  0.0472 -0.3963
  478MOL0     C63007   7.912   3.650   9.908  0.4888  0.8020 -1.1534
  478MOL0    Cl63008   7.792   3.657   9.788  0.3590 -0.1058  0.3288
  478MOL0     C63009   7.126   3.816  10.634 -0.1619 -0.6092 -0.1330
  478MOL0     C63010   7.008   3.759  10.686 -0.9005 -0.0604 -0.3297
  478MOL0     O63011   6.886   3.556  10.870  0.6943  0.7423  0.3775
  478MOL0     C63012   6.561   3.546  10.720  0.5181 -0.4775  0.2880
  478MOL0     C63013   6.427   3.514  10.748  0.5568 -0.9360 -1.1229
  478MOL0     N63014   5.738   3.604  10.630  0.7032 -0.1577  0.5445
  478MOL0     N63015   5.624   3.663  10.652 -0.6029 -0.2175  0.4462
  478MOL0     C63016   5.988   4.545  10.071  0.5622  0.8521  0.1348
  478MOL0     C63017   6.077   4.526   9.963  0.3979  0.8514  0.0889
  478MOL0     C63018   6.367   4.534   9.645 -0.0665  0.4370  0.0753
  478MOL0     C63019   6.421   4.662   9.646  0.4830 -0.5007  0.2757
  478MOL0     C63020   6.484   4.718   9.532 -0.0570 -0.9222 -0.6402
  478MOL0     C63021   6.498   4.647   9.414  0.0669  0.1184 -0.7531
  478MOL0     O63022   6.564   4.678   9.295 -0.1661 -0.0587 -0.5160
  478MOL0     C63023   6.664   4.781   9.298  0.0548  0.1089  0.0622
  478MOL0     C63024   6.786   4.740   9.386 -0.7304 -0.1657  1.5009
  478MOL0     C63025   6.874   4.854   9.431 -0.7905  0.0917  0.2628
  478MOL0     C63026   7.003   4.794   9.506  0.3154 -0.7009  0.0529
  478MOL0     C63027   7.086   4.702   9.424  0.6511  0.1819  0.2128
  478MOL0     C63028   7.160   4.635   9.359  0.2085 -0.7167  0.9568
  478MOL0     C63029   6.446   4.517   9.413 -0.9992  0.2966 -0.6364
  478MOL0     C63030   6.384   4.461   9.523  0.1864 -0.4992 -0.5298
  478MOL0     H63031   6.354   4.647  10.104 -0.7499  0.5495  0.7963
  478MOL0     H63032   6.193   4.672  10.302  3.5037 -3.2977 -0.2044
  478MOL0     H63033   5.904   4.409  10.309 -1.9344 -0.7201 -3.7856
  478MOL0     H63034   5.769   4.523  10.262 -0.3401 -3.0702 -0.7395
  478MOL0     H63035   5.767   4.625  10.485 -1.1060 -0.3795 -0.9954
  478MOL0     H63036   5.892   4.498  10.529  0.7746 -1.2302 -2.8449
  478MOL0     H63037   5.613   4.423  10.422  1.5066  0.3187 -1.1669
  478MOL0     H63038   5.620   4.489  10.577 -0.3725  1.3213 -0.0700
  478MOL0     H63039   5.810   4.279  10.497  0.9646  2.4102  0.4748
  478MOL0     H63040   5.771   4.331  10.661 -1.9966  1.9357  1.7087
  478MOL0     H63041   5.558   4.210  10.474 -1.2709 -1.7135  0.9881
  478MOL0     H63042   5.539   4.286  10.639  0.9651  1.1308  0.0676
  478MOL0     H63043   5.701   4.109  10.719  1.6463 -1.5927 -1.7165
  478MOL0     H63044   5.703   4.045  10.562 -1.0625  0.9702 -1.2526
  478MOL0     H63045   5.430   4.060  10.717  1.8731  1.0622  1.1671
  478MOL0     H63046   5.453   3.973  10.570 -0.8467  0.6501  0.1239
  478MOL0     H63047   5.456   3.818  10.774  0.7942 -2.3357 -3.6171
  478MOL0     H63048   5.578   3.927  10.850 -4.1278  1.1149  1.9940
  478MOL0     H63049   5.837   3.891  10.756  0.0873 -0.7407  1.6990
  478MOL0     H63050   6.038   3.757  10.655  2.0693 -2.0093 -0.8943
  478MOL0     H63051   6.001   3.615  10.559  0.0492  1.1629 -1.3201
  478MOL0     H63052   6.081   3.492  10.718 -0.4328  1.6801 -1.8346
  478MOL0     H63053   5.959   3.532  10.840 -0.3282 -0.7860  0.2796
  478MOL0     H63054   6.239   3.679  10.810  0.4865  0.6397  2.2949
  478MOL0     H63055   6.106   3.731  10.908  0.6330  1.2307 -1.7656
  478MOL0     H63056   6.115   3.503  11.032 -0.5574  1.3671 -0.8218
  478MOL0     H63057   6.281   3.578  11.035 -0.3984  1.9772  0.2439
  478MOL0     H63058   6.454   3.378  11.044 -0.1605 -0.8139 -1.4571
  478MOL0     H63059   6.703   3.439  10.999 -1.2693 -3.1188  2.0302
  478MOL0     H63060   6.939   3.537  10.442 -0.5727 -0.4768  1.7322
  478MOL0     H63061   7.132   3.668  10.326  1.1250 -1.0663  0.5233
  478MOL0     H63062   7.399   3.901  10.597 -1.7331 -1.8831 -0.2396
  478MOL0     H63063   7.293   4.023  10.522  1.8283  1.0189  1.6826
  478MOL0     H63064   7.515   4.048  10.446 -0.8801 -1.6434  1.1671
  478MOL0     H63065   7.420   3.999  10.302  2.1371  3.9178  0.0241
  478MOL0     H63066   7.509   3.772  10.330 -1.5952  0.1389 -0.2370
  478MOL0     H63067   7.613   3.829  10.459 -0.0434 -1.0501 -0.5911
  478MOL0     H63068   7.602   3.936  10.177 -1.1363  2.1600  2.1568
  478MOL0     H63069   7.720   3.990  10.289 -0.2727 -0.1635 -0.1475
  478MOL0     H63070   7.721   3.705  10.264  2.3409 -0.2909 -0.9940
  478MOL0     H63071   7.857   3.815  10.285  0.2948  1.1498  0.0576
  478MOL0     H63072   7.842   3.876  10.053 -2.2587  1.8256 -0.3376
  478MOL0     H63073   7.688   3.789  10.018  0.8485 -2.4861 -3.7955
  478MOL0     H63074   7.941   3.652  10.115 -2.1526 -1.7247  2.6545
  478MOL0     H63075   7.788   3.577  10.066 -0.2729  0.2826 -1.0063
  478MOL0     H63076   7.950   3.548   9.915 -1.5082  0.1064  1.9363
  478MOL0     H63077   7.996   3.717   9.887 -0.5124  1.8508 -1.9259
  478MOL0     H63078   7.178   3.887  10.698 -1.5139 -1.1225  1.6059
  478MOL0     H63079   6.981   3.790  10.786  1.0741 -0.0362  0.2254
  478MOL0     H63080   6.584   3.589  10.624  1.0539  0.3697  0.7798
  478MOL0     H63081   6.349   3.553  10.683  1.1122  1.2459 -0.5840
  478MOL0     H63082   5.881   4.536  10.052  0.9786 -3.2516 -1.1859
  478MOL0     H63083   6.050   4.484   9.866 -0.7063  4.3103 -1.2591
  478MOL0     H63084   6.405   4.721   9.736 -1.8164 -1.3493  0.5088
  478MOL0     H63085   6.537   4.813   9.529  0.1320 -1.0259 -0.6283
  478MOL0     H63086   6.624   4.875   9.336 -4.4376 -1.7308  0.4834
  478MOL0     H63087   6.704   4.792   9.197  0.1144  0.5948  0.1393
  478MOL0     H63088   6.746   4.686   9.472 -6.2618 -0.6159 -0.9287
  478MOL0     H63089   6.843   4.673   9.320 -0.0411  1.3932  0.4378
  478MOL0     H63090   6.819   4.922   9.496 -3.3027 -0.8543 -0.7619
  478MOL0     H63091   6.913   4.914   9.348 -0.4804 -0.8164 -0.2629
  478MOL0     H63092   7.065   4.879   9.535 -0.2032 -0.7435  1.3245
  478MOL0     H63093   6.961   4.754   9.599 -0.2214  0.3349  0.2751
  478MOL0     H63094   7.211   4.562   9.300 -3.5228 -3.1718  0.4081
  478MOL0     H63095   6.451   4.467   9.317 -0.1501  1.2517 -1.0985
  478MOL0     H63096   6.341   4.363   9.502  3.0328 -0.9451 -6.5192
  479MOL0     O63097  10.808   6.245   9.586 -0.0699 -0.0155 -0.0314
  479MOL0     C63098  10.882   6.281   9.491 -0.3029  0.0886  0.5072
  479MOL0     O63099  10.851   6.364   9.387 -0.0158 -1.1696  0.2174
  479MOL0     C63100  10.718   6.406   9.372  0.3162  0.1549  0.2498
  479MOL0     C63101  10.696   6.529   9.313 -1.2725  0.2859 -0.6246
  479MOL0     C63102  10.565   6.568   9.281 -0.7324  0.0512  0.7354
  479MOL0     C63103  10.451   6.485   9.319 -0.3355  0.3593 -0.6575
  479MOL0     O63104  10.312   6.509   9.310  0.1871 -0.0754  0.3812
  479MOL0     C63105  10.283   6.640   9.252 -0.8673 -0.2567  0.0688
  479MOL0     C63106  10.139   6.681   9.219  0.1490  0.0184  0.4678
  479MOL0     C63107  10.055   6.568   9.152 -0.4835  0.4140  0.4491
  479MOL0     C63108   9.907   6.613   9.147  0.4808 -0.0080 -0.0900
  479MOL0     C63109   9.826   6.507   9.065 -0.9008 -0.1570 -0.4609
  479MOL0     C63110   9.677   6.544   9.033  0.8913 -0.7728  0.6958
  479MOL0     C63111   9.599   6.429   8.978  0.4963 -0.6645 -1.5106
  479MOL0     C63112   9.540   6.448   8.840  0.2836 -0.6630  0.5847
  479MOL0     N63113   9.467   6.334   8.771  1.1145 -0.0809  0.3353
  479MOL0     C63114   9.386   6.349   8.662 -1.1685 -0.6904 -1.0951
  479MOL0     C63115   9.363   6.225   8.622  0.6752 -0.2246  0.1905
  479MOL0     C63116   9.284   6.195   8.494  0.0556 -0.1022 -0.4766
  479MOL0     C63117   9.132   6.172   8.526 -0.3358  0.2539  0.4606
  479MOL0     C63118   9.052   6.109   8.409 -0.2254 -0.1682 -0.1523
  479MOL0     C63119   8.907   6.071   8.450  0.4732  0.4518 -0.1289
  479MOL0     O63120   8.845   6.181   8.506 -0.2879  0.2996 -0.4745
  479MOL0     C63121   8.708   6.171   8.547 -0.9146  0.1442 -0.7053
  479MOL0     C63122   8.660   6.265   8.640  0.0266 -0.8170 -0.4925
  479MOL0     C63123   8.521   6.270   8.662 -0.4329  0.3509  0.0780
  479MOL0     C63124   8.441   6.167   8.605  0.1776 -1.1882  0.4839
  479MOL0     C63125   8.296   6.152   8.625  0.2131 -0.3298 -0.1083
  479MOL0     O63126   8.225   6.086   8.526  0.0794  0.6448 -0.0343
  479MOL0     C63127   8.091   6.059   8.530  0.1760  1.0567 -0.0454
  479MOL0     C63128   8.019   6.067   8.408 -0.1824  0.0130 -0.2975
  479MOL0     C63129   7.885   6.035   8.388  0.0853  0.2844  0.0439
  479MOL0     C63130   7.812   5.989   8.511  0.2725 -0.4621  0.7312
  479MOL0     O63131   7.682   5.953   8.507 -0.0537  0.3987 -0.3554
  479MOL0     C63132   7.629   5.903   8.371 -0.0771 -0.5047 -0.6009
  479MOL0     C63133   7.498   5.831   8.394 -1.0055 -0.5551  0.1017
  479MOL0     C63134   7.518   5.706   8.484 -0.4902  0.9125  0.4570
  479MOL0     C63135   7.384   5.635   8.512  0.1371  0.4056 -0.5554
  479MOL0     C63136   7.268   5.728   8.574 -0.4868 -0.1858 -0.2197
  479MOL0     C63137   7.150   5.654   8.633 -0.3792 -0.3392  0.2005
  479MOL0     C63138   7.047   5.751   8.692 -0.2859  0.7400 -0.6903
  479MOL0     C63139   6.908   5.696   8.722  0.2524 -0.0565  0.1562
  479MOL0    Cl63140   6.930   5.558   8.847  0.2966  0.0847  0.5926
  479MOL0     C63141   7.883   5.992   8.634  0.4410  0.4700  0.4756
  479MOL0     C63142   8.017   6.020   8.644 -0.6208  0.0914  0.1959
  479MOL0     O63143   8.253   6.215   8.719 -0.1033  0.3590  0.3128
  479MOL0     C63144   8.495   6.072   8.519 -0.5119 -0.3177 -0.3588
  479MOL0     C63145   8.629   6.070   8.497 -0.2781  0.3069  0.8232
  479MOL0     N63146   9.424   6.134   8.706 -0.9940 -0.5046 -0.1963
  479MOL0     N63147   9.485   6.199   8.796 -0.2076  0.0762  0.2029
  479MOL0     C63148  10.480   6.369   9.382 -0.3679 -0.0276  0.1173
  479MOL0     C63149  10.610   6.328   9.406  0.5504 -0.1458 -0.0508
  479MOL0     C63150  11.023   6.233   9.495 -0.2153  0.1987  0.0679
  479MOL0     C63151  11.105   6.255   9.384 -0.1517  0.4653 -0.5621
  479MOL0     C63152  11.231   6.197   9.383 -0.6392  0.4914 -0.1889
  479MOL0     C63153  11.291   6.146   9.506 -0.6182 -0.4051  0.0270
  479MOL0     O63154  11.430   6.115   9.504 -0.2805  0.0987 -0.2108
  479MOL0     C63155  11.495   6.082   9.629  0.4670 -0.1662  2.2208
  479MOL0     C63156  11.625   6.024   9.598 -0.2512  0.2213 -0.2095
  479MOL0     C63157  11.698   5.991   9.733  0.3708  0.1172  0.1896
  479MOL0     C63158  11.807   6.099   9.768 -0.4351 -0.2414  0.0406
  479MOL0     C63159  11.859   6.044   9.898  0.6147  0.0693 -0.0651
  479MOL0     C63160  11.892   6.000  10.003 -0.6164  0.9009  0.4907
  479MOL0     C63161  11.207   6.125   9.619 -0.5520  0.0851  1.0680
  479MOL0     C63162  11.071   6.168   9.605  0.2243 -0.2158  0.2227
  479MOL0     H63163  10.785   6.589   9.295  0.1218 -0.9212  1.7254
  479MOL0     H63164  10.558   6.653   9.213 -0.4039 -2.0072 -2.0292
  479MOL0     H63165  10.340   6.673   9.165 -2.1335  0.3530 -0.5524
  479MOL0     H63166  10.317   6.713   9.326 -1.2048  0.4965 -0.5133
  479MOL0     H63167  10.145   6.769   9.154 -0.6269 -1.1908 -1.2843
  479MOL0     H63168  10.082   6.724   9.302  1.7750  0.9284  1.1787
  479MOL0     H63169  10.052   6.475   9.210 -2.7128  0.6312  0.7906
  479MOL0     H63170  10.098   6.553   9.053 -1.8114  0.6777 -0.1898
  479MOL0     H63171   9.863   6.635   9.245 -0.4345  3.7100 -1.1680
  479MOL0     H63172   9.889   6.705   9.090 -2.3899 -0.0309  0.6306
  479MOL0     H63173   9.818   6.415   9.122  1.6536  1.0300  2.0634
  479MOL0     H63174   9.876   6.491   8.969 -1.3503  1.3722 -0.9857
  479MOL0     H63175   9.680   6.617   8.952  1.0095 -3.8198 -2.2888
  479MOL0     H63176   9.613   6.578   9.115 -5.3359 -3.0244 -2.5813
  479MOL0     H63177   9.668   6.345   8.980  0.0781 -0.9986 -0.6043
  479MOL0     H63178   9.528   6.402   9.056 -0.2567 -0.4093 -2.1047
  479MOL0     H63179   9.612   6.467   8.760 -1.6829  0.0338 -1.1180
  479MOL0     H63180   9.467   6.530   8.843  1.6394  0.6086  0.0115
  479MOL0     H63181   9.358   6.439   8.608  0.2467 -1.4015 -3.1310
  479MOL0     H63182   9.329   6.105   8.453 -0.3892 -0.2167 -0.7248
  479MOL0     H63183   9.292   6.282   8.428 -1.1705 -0.4723 -1.1438
  479MOL0     H63184   9.087   6.269   8.548 -1.0848 -0.1505  0.7711
  479MOL0     H63185   9.141   6.120   8.622 -0.5392  4.2755  2.8560
  479MOL0     H63186   9.042   6.195   8.341  2.1904  1.2435  1.1619
  479MOL0     H63187   9.091   6.025   8.351 -1.2778 -0.0586 -1.0725
  479MOL0     H63188   8.922   5.998   8.530  1.9637 -2.0668 -2.5480
  479MOL0     H63189   8.854   6.026   8.366 -2.1285  0.7947  1.2029
  479MOL0     H63190   8.725   6.329   8.698 -0.4063 -0.7006 -0.1319
  479MOL0     H63191   8.482   6.339   8.736 -2.0133 -1.9868  1.5731
  479MOL0     H63192   8.075   6.094   8.319 -0.5347 -0.1937 -0.5849
  479MOL0     H63193   7.833   6.043   8.293  2.0349 -0.2130 -1.1109
  479MOL0     H63194   7.712   5.843   8.331  1.8603  1.9782 -0.5475
  479MOL0     H63195   7.612   5.981   8.296 -3.5965 -3.3984 -3.1935
  479MOL0     H63196   7.451   5.804   8.299 -1.2079 -1.5240  0.4724
  479MOL0     H63197   7.439   5.914   8.434  1.4761  1.3246  0.1312
  479MOL0     H63198   7.566   5.731   8.579 -2.5858 -0.8613  2.0627
  479MOL0     H63199   7.585   5.637   8.431  0.4742  1.7075  0.5998
  479MOL0     H63200   7.337   5.592   8.423 -0.1663 -0.1761 -0.1184
  479MOL0     H63201   7.399   5.548   8.575 -0.7950  0.0499 -0.8009
  479MOL0     H63202   7.229   5.794   8.495 -1.2136 -2.0807 -1.5053
  479MOL0     H63203   7.315   5.792   8.650 -1.6956  1.7764 -1.0409
  479MOL0     H63204   7.182   5.580   8.707 -1.5380 -2.1725 -1.0411
  479MOL0     H63205   7.101   5.592   8.557 -0.0647 -1.5837  0.9718
  479MOL0     H63206   7.094   5.797   8.780  2.7404 -2.2121 -0.5453
  479MOL0     H63207   7.033   5.835   8.624 -0.4601 -0.1830 -1.8201
  479MOL0     H63208   6.860   5.669   8.628  1.2470  3.7983 -1.6430
  479MOL0     H63209   6.835   5.762   8.769 -1.3489 -0.8309 -1.1514
  479MOL0     H63210   7.826   5.955   8.718  0.6934 -0.8997  0.0712
  479MOL0     H63211   8.065   6.018   8.742 -2.6986  0.5997  1.2753
  479MOL0     H63212   8.444   5.987   8.476 -0.8599 -0.5193  0.4421
  479MOL0     H63213   8.664   5.987   8.437  1.1390  2.2538 -1.1950
  479MOL0     H63214  10.398   6.306   9.415  1.7175 -1.8964  2.0329
  479MOL0     H63215  10.610   6.226   9.442 -2.8543 -0.3002 -0.1483
  479MOL0     H63216  11.076   6.312   9.297  0.2376 -0.2867 -1.1902
  479MOL0     H63217  11.302   6.212   9.302 -0.9409  1.5666 -0.2672
  479MOL0     H63218  11.431   6.006   9.675 -0.0893  0.2033  2.0654
  479MOL0     H63219  11.494   6.175   9.686 -0.5924  1.2987 -0.0328
  479MOL0     H63220  11.603   5.932   9.543 -0.4496  0.9152 -1.3063
  479MOL0     H63221  11.682   6.093   9.536  0.8046  0.4081  0.9223
  479MOL0     H63222  11.752   5.896   9.721 -0.5407 -1.1383  4.3760
  479MOL0     H63223  11.619   5.974   9.807 -2.2253 -0.5223 -2.5227
  479MOL0     H63224  11.876   6.103   9.684 -2.8969 -0.0647 -2.0834
  479MOL0     H63225  11.763   6.198   9.785 -1.8511 -0.3780 -2.4045
  479MOL0     H63226  11.925   5.954  10.095  4.8190 -1.3672 -2.1561
  479MOL0     H63227  11.243   6.083   9.713  1.3274 -2.4466 -0.6669
  479MOL0     H63228  11.015   6.143   9.694  0.0112 -0.4331  0.0280
  480MOL0     O63229   8.622   4.435   2.173 -0.1105 -0.7629 -0.2509
  480MOL0     C63230   8.634   4.334   2.104  0.8713  0.9969  0.7056
  480MOL0     O63231   8.535   4.270   2.041  1.0749  1.0578  0.0309
  480MOL0     C63232   8.402   4.301   2.043  0.3126 -0.8124 -0.5755
  480MOL0     C63233   8.354   4.433   2.046  0.8375 -0.3102  0.7821
  480MOL0     C63234   8.212   4.454   2.045 -0.0101  0.1055 -0.1390
  480MOL0     C63235   8.124   4.346   2.064  0.4135  0.1853  0.2329
  480MOL0     O63236   7.991   4.381   2.067 -0.2543 -0.0621 -0.5119
  480MOL0     C63237   7.897   4.281   2.046  0.1263  0.0119 -0.2919
  480MOL0     C63238   7.756   4.337   2.056  0.4339 -0.6404 -0.3951
  480MOL0     C63239   7.643   4.245   2.011  0.0108 -0.1461 -0.1092
  480MOL0     C63240   7.502   4.302   2.045 -0.4630  0.4245  0.8606
  480MOL0     C63241   7.393   4.203   2.003 -0.5139 -0.8568  0.0472
  480MOL0     C63242   7.254   4.257   2.037 -0.7815  0.2790  0.0286
  480MOL0     C63243   7.137   4.158   2.020  0.0705  0.3069  0.3247
  480MOL0     C63244   7.107   4.143   1.867  0.9349  0.6201  0.4475
  480MOL0     N63245   6.973   4.081   1.838 -0.1019  0.3162 -0.6431
  480MOL0     C63246   6.961   3.982   1.746  0.1417  0.3990 -0.5325
  480MOL0     C63247   6.829   3.971   1.734 -0.2939 -1.0744  0.4715
  480MOL0     C63248   6.765   3.872   1.639 -0.5689  0.3835  1.1192
  480MOL0     C63249   6.835   3.878   1.502  0.3117 -0.6206  0.3774
  480MOL0     C63250   6.817   3.999   1.418 -0.2512 -0.0043 -0.2938
  480MOL0     C63251   6.674   4.026   1.384  0.1245 -0.8968  0.5345
  480MOL0     O63252   6.612   4.109   1.482  0.1942  0.1002 -0.1005
  480MOL0     C63253   6.479   4.097   1.496 -0.2919  0.4184  0.3544
  480MOL0     C63254   6.440   4.150   1.613  0.0763  0.3400 -0.0371
  480MOL0     C63255   6.309   4.133   1.652 -0.1216 -0.4098  0.3623
  480MOL0     C63256   6.215   4.065   1.576 -0.7781 -0.0311 -0.1690
  480MOL0     C63257   6.078   4.031   1.627  0.5265  0.1915 -0.4670
  480MOL0     O63258   5.988   3.959   1.540 -0.3019  0.8740  0.4820
  480MOL0     C63259   5.854   3.919   1.566  0.1772 -0.4408  0.2016
  480MOL0     C63260   5.809   3.814   1.482 -0.5938  0.6112 -0.0509
  480MOL0     C63261   5.674   3.782   1.477  0.1162  0.1944  0.4918
  480MOL0     C63262   5.587   3.854   1.559 -0.5395  0.7409  0.1416
  480MOL0     O63263   5.449   3.823   1.551  0.1682 -0.0117  0.1368
  480MOL0     C63264   5.359   3.933   1.564  0.2320 -0.1023  0.9867
  480MOL0     C63265   5.245   3.897   1.657  0.4531 -0.2048  0.2313
  480MOL0     C63266   5.265   3.945   1.805  0.0657  0.4265  0.3142
  480MOL0     C63267   5.245   4.094   1.808 -0.3760  0.0124 -0.9281
  480MOL0     C63268   5.267   4.134   1.952 -0.5344 -0.9249  0.0577
  480MOL0     C63269   5.271   4.285   1.988 -0.4752  0.3190  0.1708
  480MOL0     C63270   5.136   4.371   1.961 -0.5186  0.1822  0.1519
  480MOL0     C63271   5.123   4.486   2.046  0.4911 -0.4144 -1.1874
  480MOL0    Cl63272   5.067   4.422   2.209  0.2438 -0.0181  0.3923
  480MOL0     C63273   5.634   3.952   1.648 -0.7633  0.0448 -0.4705
  480MOL0     C63274   5.771   3.978   1.658 -0.9008  0.1370  0.0614
  480MOL0     O63275   6.051   4.076   1.739 -0.4753  0.0309 -0.0621
  480MOL0     C63276   6.256   4.018   1.456 -0.3126 -0.2204 -0.2770
  480MOL0     C63277   6.390   4.030   1.417 -0.0316 -0.5896 -0.1687
  480MOL0     N63278   6.757   4.056   1.818  0.3186  0.1655 -0.4445
  480MOL0     N63279   6.846   4.131   1.881 -0.3375  0.4526  0.0485
  480MOL0     C63280   8.175   4.214   2.063  0.5370  0.7662 -0.2909
  480MOL0     C63281   8.313   4.186   2.041 -0.7206 -0.9890 -0.3252
  480MOL0     C63282   8.763   4.270   2.103 -0.5299 -0.0425  0.9331
  480MOL0     C63283   8.790   4.140   2.062 -0.3581  0.0723  0.0423
  480MOL0     C63284   8.927   4.100   2.039  0.3668  1.2211  0.4036
  480MOL0     C63285   9.039   4.179   2.058  0.8622  0.1671  0.3403
  480MOL0     O63286   9.163   4.124   2.031 -0.1769  0.4507  0.0828
  480MOL0     C63287   9.269   4.211   2.054  0.5013  0.3992 -0.3802
  480MOL0     C63288   9.390   4.138   2.041 -0.1328  1.1284 -0.4820
  480MOL0     C63289   9.515   4.207   2.087 -0.6354  0.2705  0.3789
  480MOL0     C63290   9.643   4.107   2.078 -0.0434  0.2009  0.5789
  480MOL0     C63291   9.774   4.170   2.100  1.1714  0.2834  0.2079
  480MOL0     C63292   9.886   4.197   2.140  0.0691  0.3581  0.7342
  480MOL0     C63293   9.006   4.310   2.095  0.1548 -0.0082 -0.3575
  480MOL0     C63294   8.878   4.359   2.123 -0.0697 -0.0180 -0.2391
  480MOL0     H63295   8.423   4.517   2.051  2.0670 -1.3224  1.5692
  480MOL0     H63296   8.169   4.553   2.036  1.4101  0.5831 -2.4699
  480MOL0     H63297   7.906   4.193   2.110  2.2840 -1.8334 -2.8796
  480MOL0     H63298   7.910   4.255   1.940  0.5829  3.5691 -1.2133
  480MOL0     H63299   7.744   4.429   1.998 -3.9792 -0.5622  0.3381
  480MOL0     H63300   7.731   4.369   2.158 -2.8631 -1.5516 -0.8323
  480MOL0     H63301   7.653   4.148   2.061 -1.5818 -0.0504  0.4605
  480MOL0     H63302   7.655   4.230   1.903 -0.0162  1.1898 -0.3158
  480MOL0     H63303   7.484   4.311   2.153  3.8908 -2.5005  2.1036
  480MOL0     H63304   7.493   4.404   2.009 -0.0423  1.0143  2.3513
  480MOL0     H63305   7.415   4.113   2.061  2.6778  1.5670  3.0641
  480MOL0     H63306   7.394   4.200   1.894  1.7581  1.4593 -0.1141
  480MOL0     H63307   7.237   4.348   1.978 -0.5469  2.0569  2.5641
  480MOL0     H63308   7.257   4.277   2.144 -3.4969 -2.0913  0.6958
  480MOL0     H63309   7.174   4.070   2.072  0.1038  0.9816  1.4707
  480MOL0     H63310   7.043   4.199   2.059 -1.5808 -2.3252 -0.6738
  480MOL0     H63311   7.186   4.097   1.806 -1.5562 -1.5878 -1.3204
  480MOL0     H63312   7.103   4.244   1.826 -0.2893  0.6990  0.7263
  480MOL0     H63313   7.035   3.924   1.691  1.6243  0.7940  0.9653
  480MOL0     H63314   6.663   3.903   1.618  0.2780  0.9748 -2.7843
  480MOL0     H63315   6.767   3.766   1.670 -1.8502  0.4869  1.6119
  480MOL0     H63316   6.785   3.801   1.442  2.2475  0.9943 -3.6390
  480MOL0     H63317   6.940   3.851   1.515  0.6203 -0.7991 -2.0444
  480MOL0     H63318   6.869   4.078   1.473 -2.8287 -0.0376  2.4405
  480MOL0     H63319   6.859   3.969   1.322 -2.0320 -2.5535 -0.3649
  480MOL0     H63320   6.622   3.931   1.373 -2.1380  0.2658  0.5364
  480MOL0     H63321   6.670   4.086   1.292  0.5770 -2.0567 -0.2597
  480MOL0     H63322   6.510   4.209   1.671  0.3121 -0.0013  0.0244
  480MOL0     H63323   6.275   4.162   1.751  0.0856  1.1631  0.0030
  480MOL0     H63324   5.886   3.770   1.420  2.2540  2.0895  2.1930
  480MOL0     H63325   5.649   3.704   1.405  1.2866  1.1291 -1.0013
  480MOL0     H63326   5.313   3.943   1.465  0.2215 -0.2755  0.9725
  480MOL0     H63327   5.393   4.036   1.571 -1.1593  0.4504 -0.0049
  480MOL0     H63328   5.227   3.789   1.653 -0.5014 -0.1343  1.6976
  480MOL0     H63329   5.156   3.941   1.612 -0.2772 -0.1236  1.6816
  480MOL0     H63330   5.355   3.907   1.855  0.2086  0.6315  0.2128
  480MOL0     H63331   5.187   3.889   1.858  1.2519 -0.9384  0.7057
  480MOL0     H63332   5.322   4.151   1.755 -1.1981  1.6928 -0.3718
  480MOL0     H63333   5.146   4.129   1.778 -0.0764  1.9406  0.1755
  480MOL0     H63334   5.360   4.093   1.992  0.1783  0.2099 -0.3713
  480MOL0     H63335   5.187   4.096   2.015 -1.1155 -0.3248 -0.2969
  480MOL0     H63336   5.354   4.328   1.932 -2.7994  2.2708 -2.0370
  480MOL0     H63337   5.292   4.290   2.096  1.2003 -0.7347 -0.0660
  480MOL0     H63338   5.131   4.386   1.853 -1.3425 -2.1511 -0.1910
  480MOL0     H63339   5.048   4.310   1.982 -0.8861 -0.6200 -3.1557
  480MOL0     H63340   5.055   4.563   2.011  0.4562  0.3879  0.5412
  480MOL0     H63341   5.221   4.534   2.050  1.2500 -1.9660  1.0697
  480MOL0     H63342   5.562   4.009   1.706 -1.2196 -1.7094  0.7426
  480MOL0     H63343   5.812   4.045   1.733  1.0774  0.3626 -1.1606
  480MOL0     H63344   6.177   3.972   1.398 -1.1427 -1.5765  1.8116
  480MOL0     H63345   6.418   3.992   1.320 -0.4694 -2.2703  0.3390
  480MOL0     H63346   8.116   4.124   2.077  2.3683 -0.5255 -0.4951
  480MOL0     H63347   8.350   4.084   2.027  0.2936 -0.6603 -0.1762
  480MOL0     H63348   8.714   4.064   2.051 -0.1409  0.0562 -1.6351
  480MOL0     H63349   8.935   3.994   2.020 -1.5073  0.9567  0.8259
  480MOL0     H63350   9.254   4.266   2.148  2.5696  0.5632 -0.1021
  480MOL0     H63351   9.279   4.284   1.973 -0.2704 -1.1569 -1.9421
  480MOL0     H63352   9.391   4.048   2.103  1.8254  1.2622 -0.2542
  480MOL0     H63353   9.383   4.106   1.937 -0.7500 -1.1317  0.1905
  480MOL0     H63354   9.497   4.229   2.193 -0.9922  0.0609  0.3632
  480MOL0     H63355   9.528   4.303   2.035  0.0525 -0.1412 -0.2205
  480MOL0     H63356   9.635   4.018   2.142  3.2680  0.5489  1.7280
  480MOL0     H63357   9.651   4.081   1.972 -2.4091 -3.4273  1.1073
  480MOL0     H63358   9.974   4.204   2.201  1.2453 -0.5089 -0.7836
  480MOL0     H63359   9.079   4.390   2.108  0.3726 -0.3005  0.2945
  480MOL0     H63360   8.872   4.458   2.166  0.2197 -0.0170 -0.1973
  481MOL0     O63361   1.560   4.249   4.180 -0.9125  0.4440  0.1881
  481MOL0     C63362   1.573   4.345   4.109  0.3896 -0.6151 -0.0461
  481MOL0     O63363   1.468   4.429   4.064  0.0380 -0.4227  0.1163
  481MOL0     C63364   1.339   4.423   4.124 -0.6067 -0.1345  0.2067
  481MOL0     C63365   1.229   4.439   4.041  0.0925 -0.9938 -0.2844
  481MOL0     C63366   1.100   4.448   4.092 -0.3343  0.2549  0.4643
  481MOL0     C63367   1.072   4.412   4.221  0.8314 -0.2311 -0.2526
  481MOL0     O63368   0.944   4.403   4.273 -0.5695  0.0462 -0.1997
  481MOL0     C63369   0.827   4.454   4.202 -1.3823  0.0845  0.1348
  481MOL0     C63370   0.752   4.535   4.297  0.5627 -0.6774 -0.5319
  481MOL0     C63371   0.737   4.491   4.447  0.5219  0.7324  0.6839
  481MOL0     C63372   0.685   4.602   4.527  0.5103 -0.3725 -0.3387
  481MOL0     C63373   0.547   4.662   4.492 -0.0399 -0.4535  0.3531
  481MOL0     C63374   0.500   4.790   4.581 -0.0666  0.4797  0.2110
  481MOL0     C63375   0.357   4.822   4.545 -0.1255  0.5610  0.8659
  481MOL0     C63376   0.277   4.878   4.666  0.4288 -0.3951  0.5120
  481MOL0     N63377   0.151   4.940   4.613 -0.2462  0.0387 -0.2577
  481MOL0     C63378   0.123   5.078   4.610 -0.3846 -0.1637 -0.2471
  481MOL0     C63379   0.032   5.100   4.510 -0.0705  0.5159 -0.3412
  481MOL0     C63380  -0.057   5.222   4.501  0.5895 -0.1494  0.1389
  481MOL0     C63381  -0.106   5.245   4.362 -0.4468 -0.0255  0.6800
  481MOL0     C63382  -0.185   5.369   4.345 -0.5255  0.3502 -0.0693
  481MOL0     C63383  -0.299   5.388   4.440  0.4732  0.8202  0.4190
  481MOL0     O63384  -0.393   5.498   4.402  0.5018 -0.2412 -0.0037
  481MOL0     C63385  -0.522   5.470   4.368 -0.0088 -0.0635 -0.1720
  481MOL0     C63386  -0.590   5.581   4.310  0.4346  0.0823 -0.4533
  481MOL0     C63387  -0.717   5.570   4.258  0.0806  1.2070 -0.1943
  481MOL0     C63388  -0.792   5.450   4.285 -0.0069 -0.8408 -0.4368
  481MOL0     C63389  -0.939   5.453   4.257 -0.0474 -0.6176  0.1411
  481MOL0     O63390  -0.987   5.325   4.244  0.2353  0.8645 -0.2092
  481MOL0     C63391  -1.115   5.305   4.197 -0.4163  0.3285  0.0129
  481MOL0     C63392  -1.198   5.215   4.269 -0.6805  0.2817  0.2436
  481MOL0     C63393  -1.324   5.195   4.225 -0.1701 -0.0657 -0.0384
  481MOL0     C63394  -1.374   5.241   4.104 -0.6929  0.9065 -0.2609
  481MOL0     O63395  -1.502   5.209   4.076  0.1428  0.7879  0.1114
  481MOL0     C63396  -1.561   5.289   3.967 -0.8919 -0.5143  0.1374
  481MOL0     C63397  -1.707   5.279   3.972  1.1408 -0.4088 -0.2980
  481MOL0     C63398  -1.771   5.358   3.860 -1.1673 -0.0054  0.2745
  481MOL0     C63399  -1.919   5.358   3.862  0.2267  0.3808 -0.4724
  481MOL0     C63400  -1.960   5.216   3.810  0.1648 -0.5415 -0.0961
  481MOL0     C63401  -2.098   5.232   3.746 -0.0459 -0.6743 -0.4642
  481MOL0     C63402  -2.221   5.249   3.835 -0.3535  0.0257  0.2700
  481MOL0     C63403  -2.336   5.302   3.759  0.6572  0.6295 -0.3839
  481MOL0    Cl63404  -2.370   5.184   3.630  0.1673 -0.4900 -0.2585
  481MOL0     C63405  -1.281   5.308   4.016  0.5436 -0.2611  0.9345
  481MOL0     C63406  -1.151   5.330   4.066 -0.1078 -0.5636 -0.1390
  481MOL0     O63407  -1.003   5.559   4.231 -0.2269  0.1867 -0.1576
  481MOL0     C63408  -0.727   5.348   4.351  0.6830 -0.3818 -0.1650
  481MOL0     C63409  -0.597   5.350   4.392 -0.5329  0.8122 -0.4518
  481MOL0     N63410   0.001   4.979   4.452 -0.2909 -1.0593 -0.4021
  481MOL0     N63411   0.073   4.885   4.523  0.3841 -0.9185  0.9835
  481MOL0     C63412   1.177   4.384   4.306 -1.1738  0.6813  0.8563
  481MOL0     C63413   1.311   4.386   4.254 -0.4760  0.7641 -0.1417
  481MOL0     C63414   1.713   4.383   4.053 -0.5097  0.6196 -0.6486
  481MOL0     C63415   1.831   4.323   4.104 -0.2479 -0.0768  0.3202
  481MOL0     C63416   1.961   4.360   4.061 -0.2681  0.0463  0.9286
  481MOL0     C63417   1.969   4.468   3.979 -0.2804 -0.2894  0.1476
  481MOL0     O63418   2.097   4.510   3.942 -0.0316  0.6023  0.0810
  481MOL0     C63419   2.118   4.611   3.839  0.1724 -0.2209  1.2157
  481MOL0     C63420   2.264   4.644   3.803  0.6157 -0.8929 -0.5875
  481MOL0     C63421   2.329   4.673   3.944  0.5475 -1.4472 -0.0563
  481MOL0     C63422   2.395   4.558   4.005  0.2419  0.4566 -0.0455
  481MOL0     C63423   2.508   4.601   4.083  0.5467 -0.6945 -0.1331
  481MOL0     C63424   2.606   4.632   4.149  0.3262  0.1040 -0.3169
  481MOL0     C63425   1.853   4.530   3.926  0.7684 -0.6778  0.6321
  481MOL0     C63426   1.729   4.482   3.961  0.4030 -0.0815  0.2762
  481MOL0     H63427   1.243   4.448   3.934 -1.6895  0.5904 -0.4508
  481MOL0     H63428   1.021   4.452   4.018  0.1130  0.4877 -0.0121
  481MOL0     H63429   0.764   4.369   4.173 -0.5577 -0.9068  1.1771
  481MOL0     H63430   0.850   4.516   4.116  2.8133 -1.2992  0.0420
  481MOL0     H63431   0.656   4.547   4.246 -0.6603  0.2276  1.8152
  481MOL0     H63432   0.795   4.636   4.291 -0.7633 -0.1352 -1.4597
  481MOL0     H63433   0.838   4.466   4.480  0.8824  1.6030  0.2614
  481MOL0     H63434   0.670   4.405   4.454  1.2692 -0.2598 -2.6631
  481MOL0     H63435   0.666   4.560   4.626 -1.2687 -4.5482 -2.2394
  481MOL0     H63436   0.765   4.677   4.524  0.2188 -0.0957 -1.6453
  481MOL0     H63437   0.476   4.579   4.499 -1.1143  0.5371  1.8839
  481MOL0     H63438   0.548   4.700   4.390  1.3315  1.5135  1.0448
  481MOL0     H63439   0.564   4.877   4.567  1.5825 -0.8747 -1.1277
  481MOL0     H63440   0.499   4.757   4.686 -0.5806 -1.2655 -0.3025
  481MOL0     H63441   0.345   4.897   4.467 -1.8697  0.2140  0.7476
  481MOL0     H63442   0.305   4.735   4.503 -1.1941  1.7180 -0.2992
  481MOL0     H63443   0.332   4.963   4.708  3.5469 -0.5434 -2.7624
  481MOL0     H63444   0.253   4.805   4.744  0.6543  0.5995  1.5383
  481MOL0     H63445   0.155   5.146   4.688 -0.8299  0.0029 -0.2075
  481MOL0     H63446   0.007   5.304   4.535  0.1165 -0.0127  0.7073
  481MOL0     H63447  -0.124   5.215   4.587  3.8165  1.2714  3.0038
  481MOL0     H63448  -0.166   5.164   4.320  0.7518 -0.2639 -0.6239
  481MOL0     H63449  -0.019   5.250   4.297 -1.2946  0.3811 -0.4526
  481MOL0     H63450  -0.131   5.464   4.333  1.0073 -0.6722 -1.5963
  481MOL0     H63451  -0.212   5.357   4.240  0.6493 -0.6253 -0.2867
  481MOL0     H63452  -0.257   5.406   4.539 -0.3966  1.4864  0.6861
  481MOL0     H63453  -0.344   5.288   4.441  4.2259 -1.0693 -1.2274
  481MOL0     H63454  -0.524   5.658   4.273  0.5068 -0.5154 -1.6126
  481MOL0     H63455  -0.763   5.657   4.213  0.7098  3.6727  3.5357
  481MOL0     H63456  -1.159   5.176   4.363  1.0415  1.4169  0.0512
  481MOL0     H63457  -1.385   5.146   4.300  0.4818 -0.2141  0.4033
  481MOL0     H63458  -1.518   5.268   3.869  2.6550 -1.5979  1.7786
  481MOL0     H63459  -1.538   5.394   3.988  0.1709 -0.3243 -1.7787
  481MOL0     H63460  -1.739   5.314   4.071 -0.0603 -0.9555 -0.4714
  481MOL0     H63461  -1.739   5.174   3.968 -3.1282  0.6991 -1.0158
  481MOL0     H63462  -1.726   5.326   3.765  1.4561  0.7444  1.1725
  481MOL0     H63463  -1.739   5.462   3.874 -3.3614  0.7761 -0.1498
  481MOL0     H63464  -1.962   5.381   3.959 -1.8671  2.1942 -1.7351
  481MOL0     H63465  -1.945   5.435   3.789  1.4201 -0.4628 -1.8803
  481MOL0     H63466  -1.969   5.142   3.890 -2.4102 -1.9995 -1.6039
  481MOL0     H63467  -1.898   5.174   3.731  0.3025 -2.0323  0.7637
  481MOL0     H63468  -2.102   5.137   3.692  1.9402 -3.1650  3.3003
  481MOL0     H63469  -2.102   5.326   3.689 -0.2754  0.7491  1.7790
  481MOL0     H63470  -2.242   5.156   3.888  0.3942  0.5285  1.4706
  481MOL0     H63471  -2.191   5.313   3.918  0.0985  1.2287 -0.7872
  481MOL0     H63472  -2.306   5.396   3.711  0.1041  0.9371 -0.1374
  481MOL0     H63473  -2.424   5.320   3.822 -0.2245 -0.3646 -1.3012
  481MOL0     H63474  -1.317   5.336   3.918  2.6060  3.6745  1.0805
  481MOL0     H63475  -1.087   5.385   3.998 -1.5002 -0.0619 -1.0864
  481MOL0     H63476  -0.785   5.265   4.390  0.3852 -0.1625 -0.1352
  481MOL0     H63477  -0.554   5.263   4.440  2.5756  3.5510  2.2204
  481MOL0     H63478   1.146   4.364   4.408 -1.4860  1.5176  0.9342
  481MOL0     H63479   1.382   4.353   4.330 -0.8660 -1.8933 -0.8219
  481MOL0     H63480   1.825   4.236   4.169 -0.4294 -1.4599 -1.4794
  481MOL0     H63481   2.052   4.302   4.073  0.2728  0.8045  0.6236
  481MOL0     H63482   2.071   4.706   3.865  3.3209  2.0352 -0.6204
  481MOL0     H63483   2.068   4.575   3.748 -0.2764  0.6467  1.1124
  481MOL0     H63484   2.320   4.561   3.760  0.6183 -2.6531  2.5039
  481MOL0     H63485   2.248   4.736   3.745 -2.1985  1.2568  3.1470
  481MOL0     H63486   2.253   4.717   4.009  0.0589 -2.1234 -0.1572
  481MOL0     H63487   2.398   4.756   3.926  0.3906 -1.7987 -2.5640
  481MOL0     H63488   2.322   4.506   4.067 -0.6258 -2.0099 -2.8964
  481MOL0     H63489   2.429   4.481   3.935 -1.3997  0.4439 -0.8717
  481MOL0     H63490   2.694   4.658   4.204 -0.6254  1.6005  0.5933
  481MOL0     H63491   1.860   4.605   3.849  1.3477  0.2298  1.5407
  481MOL0     H63492   1.644   4.524   3.907 -1.0169  1.5736  3.5002
  482MOL0     O63493   3.896  10.507   8.888  0.2477 -0.4666  1.0841
  482MOL0     C63494   3.874  10.389   8.877  0.6292 -0.6906  0.2017
  482MOL0     O63495   3.772  10.332   8.954 -0.0441  0.9727 -0.4218
  482MOL0     C63496   3.686  10.409   9.033 -0.2837 -0.1365 -0.2601
  482MOL0     C63497   3.619  10.523   8.986 -0.3348 -0.0008  0.2996
  482MOL0     C63498   3.526  10.595   9.061  0.4240  0.3711  0.7478
  482MOL0     C63499   3.483  10.545   9.181  0.1206 -0.4970 -0.8869
  482MOL0     O63500   3.381  10.605   9.250 -0.9869  0.6285  0.2661
  482MOL0     C63501   3.418  10.739   9.290  0.6790 -0.2848 -0.3071
  482MOL0     C63502   3.286  10.816   9.253  0.5118  0.5497  0.3268
  482MOL0     C63503   3.171  10.772   9.352 -1.1773 -0.7121  0.1771
  482MOL0     C63504   3.042  10.848   9.343  0.0865 -0.0079 -0.2242
  482MOL0     C63505   2.957  10.812   9.459  0.2141  0.1329  0.3541
  482MOL0     C63506   2.819  10.865   9.442 -0.6075  0.9557  0.3497
  482MOL0     C63507   2.714  10.838   9.547 -0.4800  0.2223 -0.1074
  482MOL0     C63508   2.573  10.884   9.508 -0.6659  0.1556 -0.9390
  482MOL0     N63509   2.476  10.857   9.621 -0.6492  0.7095  0.3890
  482MOL0     C63510   2.491  10.876   9.750  0.7137 -0.0190 -0.1449
  482MOL0     C63511   2.384  10.830   9.814  0.7602  0.0441  0.0776
  482MOL0     C63512   2.383  10.815   9.964 -0.9942 -0.1514 -0.5368
  482MOL0     C63513   2.244  10.817  10.023 -0.7355 -0.0621  0.4416
  482MOL0     C63514   2.229  10.916  10.142  0.3954  0.0204  0.1561
  482MOL0     C63515   2.232  11.058  10.113  1.2494 -0.2062  0.7984
  482MOL0     O63516   2.114  11.089  10.044 -0.0005  0.3344  0.0138
  482MOL0     C63517   1.988  11.099  10.100 -0.4772  0.1337 -0.2436
  482MOL0     C63518   1.971  11.117  10.237 -0.4445  0.7804 -0.3471
  482MOL0     C63519   1.844  11.139  10.288  0.1188  0.8275  0.0386
  482MOL0     C63520   1.728  11.144  10.215 -0.1335 -0.5860 -0.0566
  482MOL0     C63521   1.599  11.168  10.275 -0.1838 -0.3858 -0.5103
  482MOL0     O63522   1.490  11.166  10.185  0.6642  0.1387  0.5212
  482MOL0     C63523   1.358  11.169  10.226 -0.4239 -0.3057 -0.5704
  482MOL0     C63524   1.315  11.180  10.360 -0.6171 -0.5725 -0.2909
  482MOL0     C63525   1.181  11.182  10.392 -0.1276 -0.1751 -0.2269
  482MOL0     C63526   1.080  11.162  10.299 -0.1425  0.8092  0.7993
  482MOL0     O63527   0.947  11.155  10.333  0.3424 -0.6988 -0.2494
  482MOL0     C63528   0.839  11.120  10.241  0.4207 -0.8143 -0.6906
  482MOL0     C63529   0.701  11.131  10.304  0.3754 -0.7103 -0.1575
  482MOL0     C63530   0.596  11.121  10.186  0.5400  0.2892 -0.0027
  482MOL0     C63531   0.453  11.117  10.249 -0.4582  0.0986 -0.3779
  482MOL0     C63532   0.357  11.068  10.135  0.0067 -0.6528  0.4929
  482MOL0     C63533   0.215  11.039  10.183 -0.3655 -0.7751 -0.0816
  482MOL0     C63534   0.128  11.047  10.058 -0.0096 -0.4275  0.1144
  482MOL0     C63535  -0.019  11.013  10.092  0.4674 -0.0248 -0.4043
  482MOL0    Cl63536  -0.129  11.002   9.948 -0.1194 -0.0213 -0.3723
  482MOL0     C63537   1.124  11.149  10.166  0.3310 -0.4899  0.1826
  482MOL0     C63538   1.257  11.148  10.134  0.7039  0.1186 -0.4005
  482MOL0     O63539   1.605  11.211  10.389  0.3594 -0.1364 -0.4236
  482MOL0     C63540   1.743  11.125  10.077 -0.5004 -0.2644  0.3836
  482MOL0     C63541   1.873  11.109  10.020  0.3788 -0.3084 -0.2864
  482MOL0     N63542   2.286  10.798   9.722  0.5950 -0.2334  1.1393
  482MOL0     N63543   2.349  10.801   9.607 -0.3295  0.2103 -0.3563
  482MOL0     C63544   3.541  10.431   9.233 -0.5060 -0.3045 -0.0733
  482MOL0     C63545   3.632  10.360   9.153  0.0928 -0.4208 -0.0857
  482MOL0     C63546   3.941  10.314   8.767  0.1659  0.5526 -0.0227
  482MOL0     C63547   3.898  10.182   8.731  0.1173 -0.1218 -0.5470
  482MOL0     C63548   3.951  10.112   8.625  0.2673  1.0214  0.0779
  482MOL0     C63549   4.056  10.152   8.546  1.3546  0.9322  0.3889
  482MOL0     O63550   4.092  10.068   8.441  0.6033 -0.5167  0.1921
  482MOL0     C63551   4.206  10.086   8.368 -0.3923 -0.8575 -0.7279
  482MOL0     C63552   4.187  10.010   8.238 -0.1159 -0.1782  0.2575
  482MOL0     C63553   4.324  10.004   8.165 -0.4897 -0.6094  0.8289
  482MOL0     C63554   4.327   9.935   8.038 -0.3552  0.6911  0.1769
  482MOL0     C63555   4.293   9.796   8.042 -0.5890  0.5263  0.6028
  482MOL0     C63556   4.274   9.674   8.034  0.6692  0.3631 -1.0095
  482MOL0     C63557   4.112  10.273   8.586  1.0506  0.1743  0.0795
  482MOL0     C63558   4.056  10.354   8.687 -0.0954 -0.1001  0.1559
  482MOL0     H63559   3.632  10.546   8.881 -0.4848 -1.9054 -0.1769
  482MOL0     H63560   3.470  10.679   9.021 -2.4429 -0.8703  1.8437
  482MOL0     H63561   3.506  10.772   9.234  0.1481  0.7351 -0.5545
  482MOL0     H63562   3.448  10.733   9.395  0.9100 -0.4453 -0.3784
  482MOL0     H63563   3.254  10.800   9.150 -1.1348 -2.2969  1.1493
  482MOL0     H63564   3.316  10.920   9.266  1.4857 -0.0750  4.5035
  482MOL0     H63565   3.205  10.793   9.454  1.7010  2.6659 -1.3072
  482MOL0     H63566   3.154  10.665   9.337  0.3496 -1.0208  0.4552
  482MOL0     H63567   3.068  10.954   9.356 -0.2140  0.3412 -2.2299
  482MOL0     H63568   2.997  10.834   9.244 -0.4516  0.2310 -0.0170
  482MOL0     H63569   2.995  10.860   9.549 -0.0081  0.8920  0.0459
  482MOL0     H63570   2.959  10.704   9.476 -0.0876  0.5594  3.6578
  482MOL0     H63571   2.785  10.832   9.343  0.1334  1.8722 -0.2215
  482MOL0     H63572   2.828  10.974   9.433  0.0641  0.8224 -0.9020
  482MOL0     H63573   2.718  10.730   9.560  0.1393  0.0534 -1.4570
  482MOL0     H63574   2.749  10.893   9.635  3.0147 -1.0722 -0.5419
  482MOL0     H63575   2.545  10.825   9.420 -0.6276  1.2689 -1.7224
  482MOL0     H63576   2.564  10.990   9.484 -1.0285  0.6450  1.1262
  482MOL0     H63577   2.578  10.919   9.798 -0.5274  2.4802 -0.0066
  482MOL0     H63578   2.442  10.896  10.007  0.5311 -2.1273  1.3080
  482MOL0     H63579   2.431  10.718   9.980 -1.7765 -1.3133 -4.1541
  482MOL0     H63580   2.209  10.715  10.036 -0.7216 -0.1100  0.1043
  482MOL0     H63581   2.172  10.851   9.948 -0.2694 -0.7376 -0.3192
  482MOL0     H63582   2.147  10.883  10.207 -0.0900 -0.2221 -0.5673
  482MOL0     H63583   2.318  10.903  10.205  1.6852 -0.7106 -1.6941
  482MOL0     H63584   2.322  11.076  10.052  0.7996 -0.8713 -0.0841
  482MOL0     H63585   2.229  11.116  10.205 -5.1672  2.1048 -0.3418
  482MOL0     H63586   2.044  11.093  10.313  0.3706 -3.0043 -2.0775
  482MOL0     H63587   1.829  11.124  10.395 -0.0594 -1.3449 -0.2560
  482MOL0     H63588   1.378  11.193  10.448 -1.4432 -1.9416  0.5440
  482MOL0     H63589   1.139  11.206  10.489  1.0862 -0.2835  0.3524
  482MOL0     H63590   0.852  11.016  10.209 -1.0013 -0.6421 -1.9078
  482MOL0     H63591   0.860  11.188  10.158  2.9149  0.1828  0.6390
  482MOL0     H63592   0.683  11.233  10.340  0.8864  0.2663 -2.4257
  482MOL0     H63593   0.686  11.055  10.381  0.7146  0.4862  1.1359
  482MOL0     H63594   0.616  11.024  10.140  1.6679  1.1452 -1.3966
  482MOL0     H63595   0.606  11.193  10.104  0.4320 -1.4589 -1.6126
  482MOL0     H63596   0.452  11.054  10.338  0.4087 -2.2777 -1.9563
  482MOL0     H63597   0.424  11.219  10.277 -0.5053  0.0508 -0.2511
  482MOL0     H63598   0.394  10.979  10.085 -0.5596 -0.1206 -0.9387
  482MOL0     H63599   0.359  11.146  10.057  0.7380  1.8479  2.8332
  482MOL0     H63600   0.187  11.122  10.250  0.5246 -0.8337  0.3749
  482MOL0     H63601   0.229  10.945  10.236  0.0088 -0.0146  1.2120
  482MOL0     H63602   0.119  11.149  10.019  2.7266 -0.3147 -0.3886
  482MOL0     H63603   0.172  10.995   9.972  0.2190 -1.5843  0.9058
  482MOL0     H63604  -0.060  11.087  10.162 -0.3205 -1.2699  0.5109
  482MOL0     H63605  -0.017  10.919  10.148  4.0928  0.9319  1.3098
  482MOL0     H63606   1.061  11.134  10.079 -0.4268  1.1192  0.4298
  482MOL0     H63607   1.281  11.129  10.030 -0.9603 -1.2782 -0.5771
  482MOL0     H63608   1.664  11.114  10.003  1.4900 -0.4338 -1.8615
  482MOL0     H63609   1.870  11.109   9.912 -1.1254  1.0637 -0.2908
  482MOL0     H63610   3.490  10.386   9.318 -0.4942 -0.6069 -0.2271
  482MOL0     H63611   3.667  10.262   9.183 -0.5475 -1.1706 -1.6832
  482MOL0     H63612   3.814  10.135   8.782  0.5380 -0.3158 -0.0179
  482MOL0     H63613   3.886  10.029   8.601 -0.9618  1.6787  1.0346
  482MOL0     H63614   4.284  10.034   8.424  0.9730 -2.5493 -3.9004
  482MOL0     H63615   4.245  10.188   8.352 -0.7956 -0.6316 -0.2830
  482MOL0     H63616   4.147   9.913   8.268 -1.0249 -0.3237 -1.3070
  482MOL0     H63617   4.106  10.057   8.180 -1.1639 -4.2482 -1.9209
  482MOL0     H63618   4.399   9.957   8.229  0.4019  0.1440  0.3468
  482MOL0     H63619   4.362  10.106   8.163  0.9726 -1.0277  3.2770
  482MOL0     H63620   4.251   9.987   7.980 -1.3720  0.4768  1.2677
  482MOL0     H63621   4.422   9.952   7.985  0.3043  1.3001  1.5053
  482MOL0     H63622   4.279   9.568   8.020 -0.7951  0.1438 -0.1803
  482MOL0     H63623   4.190  10.323   8.528  0.0541  0.9357 -0.6338
  482MOL0     H63624   4.104  10.451   8.699  3.0056 -1.2881 -1.4639
  483MOL0     O63625  11.216   3.514   6.460  1.2821  0.4510  0.5440
  483MOL0     C63626  11.325   3.532   6.513 -0.2742  0.1113 -0.0460
  483MOL0     O63627  11.354   3.630   6.601  0.8507  0.4526 -0.4503
  483MOL0     C63628  11.254   3.713   6.649 -0.0835 -0.2775 -0.9915
  483MOL0     C63629  11.268   3.855   6.630 -0.2821 -0.9156  0.6693
  483MOL0     C63630  11.186   3.943   6.683 -0.3380 -0.6313  0.0532
  483MOL0     C63631  11.066   3.902   6.744  0.1190 -0.6593  0.3831
  483MOL0     O63632  10.979   3.999   6.785  0.6980 -0.3450 -0.0522
  483MOL0     C63633  10.889   3.962   6.884 -0.2262  1.0470 -0.4706
  483MOL0     C63634  10.801   4.077   6.934 -0.4798 -0.1607 -0.5143
  483MOL0     C63635  10.846   4.165   7.060  0.2176  0.4890  0.5541
  483MOL0     C63636  10.993   4.219   7.046 -1.0392 -1.1290  0.2053
  483MOL0     C63637  11.009   4.330   6.942  0.1744  0.8255  0.3176
  483MOL0     C63638  10.925   4.463   6.949 -0.1679  0.3430  0.2992
  483MOL0     C63639  10.999   4.577   7.024  0.2173  0.4550 -0.0313
  483MOL0     C63640  11.001   4.559   7.184  1.3417 -1.0193 -1.0970
  483MOL0     N63641  11.077   4.667   7.235 -0.8119 -0.1210  0.4642
  483MOL0     C63642  11.206   4.711   7.197  0.0290  0.2408  0.0593
  483MOL0     C63643  11.232   4.823   7.255 -0.2660 -0.2440 -0.6843
  483MOL0     C63644  11.361   4.898   7.256 -0.0310 -0.2456 -0.3776
  483MOL0     C63645  11.405   4.944   7.401  0.3018 -0.7715 -0.0802
  483MOL0     C63646  11.345   5.088   7.416 -1.1654  0.5784 -0.2260
  483MOL0     C63647  11.349   5.125   7.559 -0.3189 -0.7458 -0.0805
  483MOL0     O63648  11.336   5.270   7.579 -0.2104  1.0790  0.7588
  483MOL0     C63649  11.211   5.330   7.595  0.1132  1.2293  0.6018
  483MOL0     C63650  11.094   5.255   7.567  0.3763 -0.4453  0.1186
  483MOL0     C63651  10.972   5.307   7.590  1.3357  0.1307 -0.5924
  483MOL0     C63652  10.957   5.439   7.629  0.1276 -0.7847 -0.6789
  483MOL0     C63653  10.825   5.500   7.635 -0.4432 -0.6189  1.0559
  483MOL0     O63654  10.821   5.632   7.611  0.0661  0.7058 -0.1559
  483MOL0     C63655  10.697   5.680   7.572 -0.8025 -0.4909 -0.5610
  483MOL0     C63656  10.656   5.669   7.440 -0.2678  0.4334  0.1278
  483MOL0     C63657  10.533   5.717   7.405  0.3199  0.7688 -0.7419
  483MOL0     C63658  10.457   5.790   7.493  0.2660 -0.0982  0.1247
  483MOL0     O63659  10.339   5.850   7.460  0.2089  0.1060  0.1266
  483MOL0     C63660  10.303   5.868   7.318 -0.8847 -1.5011  0.4014
  483MOL0     C63661  10.212   5.747   7.267  0.0269  0.5738  0.1462
  483MOL0     C63662  10.078   5.745   7.352 -1.2557  0.1520  0.4994
  483MOL0     C63663   9.979   5.846   7.301 -0.5488 -0.8495 -0.2893
  483MOL0     C63664   9.869   5.874   7.397 -0.7481  1.6971  0.1788
  483MOL0     C63665   9.794   5.758   7.451  0.6702  1.0542  0.6871
  483MOL0     C63666   9.723   5.678   7.334 -0.9491 -0.1999 -1.3200
  483MOL0     C63667   9.661   5.547   7.378 -0.3239  0.9237  0.8459
  483MOL0    Cl63668   9.788   5.435   7.419  0.3534  0.0654  0.0208
  483MOL0     C63669  10.500   5.807   7.624  0.2664 -0.7380 -0.0587
  483MOL0     C63670  10.618   5.756   7.662 -0.1294  0.9172 -0.0863
  483MOL0     O63671  10.731   5.426   7.659 -0.8358  0.0435 -1.0716
  483MOL0     C63672  11.073   5.509   7.664 -0.5583 -0.0743 -0.0076
  483MOL0     C63673  11.203   5.462   7.641 -1.1226 -0.8751  0.5591
  483MOL0     N63674  11.116   4.858   7.324 -1.1209  0.1791  0.6055
  483MOL0     N63675  11.024   4.774   7.300 -0.0251  0.5664  0.0821
  483MOL0     C63676  11.051   3.768   6.759  0.3735  0.7249  0.1685
  483MOL0     C63677  11.129   3.668   6.696  1.2521 -1.2037 -0.9898
  483MOL0     C63678  11.435   3.438   6.481  0.6656  0.2385 -0.5017
  483MOL0     C63679  11.547   3.435   6.557 -0.2463 -0.6220 -0.0999
  483MOL0     C63680  11.656   3.354   6.519 -0.2129 -0.9630 -1.3436
  483MOL0     C63681  11.643   3.261   6.414 -1.4185  0.1860  0.4701
  483MOL0     O63682  11.747   3.179   6.372  0.1329 -0.3840  0.5394
  483MOL0     C63683  11.872   3.185   6.440  0.1040  0.3361 -0.2577
  483MOL0     C63684  11.981   3.094   6.376 -0.4740 -0.0660 -0.1704
  483MOL0     C63685  12.114   3.109   6.456 -0.0676  0.1713 -0.2658
  483MOL0     C63686  12.227   3.009   6.398  1.1129  0.1994  0.0650
  483MOL0     C63687  12.346   3.019   6.485 -0.6257  0.2517 -0.0623
  483MOL0     C63688  12.450   3.030   6.550  0.0014  0.7858  1.1150
  483MOL0     C63689  11.523   3.257   6.354  0.4639 -0.2982  0.2456
  483MOL0     C63690  11.420   3.340   6.383  0.6037  0.0844 -0.1938
  483MOL0     H63691  11.363   3.890   6.589 -0.1122 -1.9148  0.1487
  483MOL0     H63692  11.196   4.050   6.671 -2.0810 -0.5564 -1.1149
  483MOL0     H63693  10.949   3.930   6.969  0.7456  5.6519  0.8762
  483MOL0     H63694  10.824   3.885   6.842  0.0155 -0.5262  1.8696
  483MOL0     H63695  10.710   4.030   6.972 -1.0595  0.4619 -1.1226
  483MOL0     H63696  10.771   4.135   6.847 -0.2339  2.4326  1.0324
  483MOL0     H63697  10.841   4.104   7.151  2.0712 -0.1096  0.2812
  483MOL0     H63698  10.766   4.237   7.077 -0.0187  0.0824  1.2020
  483MOL0     H63699  11.037   4.252   7.140  2.4865 -3.7641 -0.2959
  483MOL0     H63700  11.060   4.135   7.026  1.6706  0.7944  0.7709
  483MOL0     H63701  10.959   4.273   6.863  0.4479  0.2153  0.5749
  483MOL0     H63702  11.116   4.346   6.924  1.0144  0.3800  3.9857
  483MOL0     H63703  10.830   4.433   6.995 -0.7628  0.9053 -0.5346
  483MOL0     H63704  10.907   4.503   6.849  1.2087  3.5596  1.2001
  483MOL0     H63705  11.104   4.571   6.994  0.6885  0.1403  1.5620
  483MOL0     H63706  10.955   4.670   6.986  0.1648  1.4371  2.2923
  483MOL0     H63707  11.040   4.460   7.210 -1.1844 -1.8238 -0.0850
  483MOL0     H63708  10.898   4.569   7.218  1.4198  0.6953 -1.2754
  483MOL0     H63709  11.285   4.649   7.156  0.6845  0.1567  1.3766
  483MOL0     H63710  11.347   4.985   7.192 -0.0704 -1.4542 -2.0895
  483MOL0     H63711  11.444   4.844   7.209  0.2267  0.4274 -0.6993
  483MOL0     H63712  11.514   4.949   7.406  0.2830  0.6433 -0.4494
  483MOL0     H63713  11.364   4.869   7.470  1.7155 -1.4651  0.0271
  483MOL0     H63714  11.407   5.163   7.366  1.1835 -1.6966 -0.9409
  483MOL0     H63715  11.245   5.093   7.372 -0.5001  0.6585 -1.7814
  483MOL0     H63716  11.449   5.111   7.603 -0.8314  1.7610  2.1505
  483MOL0     H63717  11.273   5.066   7.611  0.0481 -0.9925  0.1864
  483MOL0     H63718  11.099   5.157   7.520 -0.2323  0.6092 -2.3078
  483MOL0     H63719  10.887   5.240   7.583  0.9131  0.4561  0.9535
  483MOL0     H63720  10.711   5.604   7.371  2.0538 -0.2703  2.4704
  483MOL0     H63721  10.506   5.694   7.302  0.9968 -1.1176 -0.5414
  483MOL0     H63722  10.389   5.868   7.251 -0.6520 -0.8347  0.6919
  483MOL0     H63723  10.253   5.963   7.300 -0.4480 -1.2268  0.6156
  483MOL0     H63724  10.262   5.654   7.294 -1.0375 -0.8641 -2.4320
  483MOL0     H63725  10.189   5.741   7.160 -2.1182  0.4392  0.5555
  483MOL0     H63726  10.101   5.764   7.458  1.0052  0.3812  0.0330
  483MOL0     H63727  10.035   5.644   7.348  0.5044 -0.5923 -1.0063
  483MOL0     H63728  10.029   5.940   7.274 -0.0924 -1.2629 -0.9264
  483MOL0     H63729   9.939   5.817   7.203  0.4889 -1.9712 -0.4011
  483MOL0     H63730   9.794   5.939   7.351 -0.9787 -0.0708 -2.1173
  483MOL0     H63731   9.908   5.932   7.482 -0.0450  3.9211 -1.5513
  483MOL0     H63732   9.734   5.791   7.536  0.5027 -2.3179  1.9944
  483MOL0     H63733   9.851   5.675   7.493 -0.7208 -0.9691 -1.2120
  483MOL0     H63734   9.650   5.748   7.292  0.9940  1.2997 -2.4186
  483MOL0     H63735   9.792   5.661   7.251 -0.2491  4.2001 -1.8915
  483MOL0     H63736   9.603   5.502   7.297 -1.2480 -0.3160  2.1500
  483MOL0     H63737   9.592   5.577   7.458  0.1987  1.5074  1.0873
  483MOL0     H63738  10.445   5.871   7.692  2.5548  2.0408 -0.6008
  483MOL0     H63739  10.650   5.768   7.765 -1.1261 -0.8432  0.4793
  483MOL0     H63740  11.068   5.615   7.687 -1.2404 -0.3416  1.1663
  483MOL0     H63741  11.292   5.521   7.657 -1.1360 -1.3811  2.8282
  483MOL0     H63742  10.968   3.729   6.817 -0.4590  3.1347  0.6920
  483MOL0     H63743  11.111   3.561   6.694  4.1272 -1.7845 -0.4414
  483MOL0     H63744  11.565   3.498   6.644 -2.4541 -3.5080  2.6909
  483MOL0     H63745  11.745   3.355   6.581  0.6105  0.1649 -2.4927
  483MOL0     H63746  11.861   3.149   6.542 -5.6580 -2.3013 -1.4227
  483MOL0     H63747  11.904   3.289   6.435 -0.3634  0.6290  1.8750
  483MOL0     H63748  11.959   2.987   6.373  4.0372 -1.2258  0.6861
  483MOL0     H63749  12.004   3.132   6.276  3.0932  0.9263  0.8860
  483MOL0     H63750  12.097   3.094   6.563 -1.4070  1.2006 -0.3035
  483MOL0     H63751  12.160   3.208   6.457 -1.5328  0.9821 -2.8035
  483MOL0     H63752  12.184   2.909   6.395 -0.1023  0.6367 -4.4972
  483MOL0     H63753  12.251   3.044   6.297 -3.3864  0.6800 -1.0547
  483MOL0     H63754  12.542   3.036   6.604  0.7147  0.8321 -0.0764
  483MOL0     H63755  11.510   3.192   6.269  1.7463 -1.0032  0.5716
  483MOL0     H63756  11.330   3.342   6.322  0.1459  4.2220  0.3142
  484MOL0     O63757   3.203   6.860  10.307 -0.0444 -0.2366 -0.3602
  484MOL0     C63758   3.280   6.862  10.396 -0.3235  0.6345  0.3712
  484MOL0     O63759   3.249   6.849  10.525  0.2836 -0.1732  0.2836
  484MOL0     C63760   3.113   6.866  10.552  0.4756 -0.5341 -0.9928
  484MOL0     C63761   3.008   6.782  10.515 -0.0857  0.4996 -0.0586
  484MOL0     C63762   2.877   6.795  10.585  0.1482  0.3324  0.2716
  484MOL0     C63763   2.866   6.885  10.688 -0.4912 -0.7435 -0.2569
  484MOL0     O63764   2.754   6.912  10.762 -0.1890  0.0172 -0.3947
  484MOL0     C63765   2.666   6.804  10.802 -0.3318  0.2319  0.1421
  484MOL0     C63766   2.539   6.864  10.846 -0.1466 -0.6317  0.3078
  484MOL0     C63767   2.439   6.748  10.897  0.2491 -0.9495  0.0967
  484MOL0     C63768   2.331   6.815  10.996  0.0789 -0.0633  0.2880
  484MOL0     C63769   2.218   6.719  11.026  0.3192 -0.0465 -0.5619
  484MOL0     C63770   2.112   6.766  11.120  0.4336 -0.1288 -0.1459
  484MOL0     C63771   2.002   6.665  11.139 -0.9705  0.1533 -0.0494
  484MOL0     C63772   1.891   6.671  11.025  1.1075  0.5561  0.4101
  484MOL0     N63773   1.776   6.586  11.076 -0.2907 -0.9286  0.2269
  484MOL0     C63774   1.675   6.630  11.158 -0.1207 -0.2956 -0.5343
  484MOL0     C63775   1.573   6.529  11.159 -0.9776 -0.7150  0.6375
  484MOL0     C63776   1.445   6.532  11.238  0.2425  0.5101 -0.0507
  484MOL0     C63777   1.346   6.632  11.175  0.1274 -0.2849 -0.0843
  484MOL0     C63778   1.223   6.653  11.253 -0.0167 -0.7823 -0.0688
  484MOL0     C63779   1.112   6.726  11.166  0.5095 -0.3090 -0.5325
  484MOL0     O63780   1.012   6.760  11.266  0.0409 -0.1793  0.4876
  484MOL0     C63781   0.905   6.833  11.233 -1.2640  0.9407  0.0324
  484MOL0     C63782   0.806   6.835  11.338 -0.6164 -0.0690 -0.5450
  484MOL0     C63783   0.688   6.904  11.317  0.2302 -0.1109 -0.0647
  484MOL0     C63784   0.670   6.977  11.195  0.3961 -0.3546 -0.0376
  484MOL0     C63785   0.542   7.044  11.159 -0.5946  0.3209 -0.1189
  484MOL0     O63786   0.534   7.091  11.026  0.2986 -1.0451  0.3184
  484MOL0     C63787   0.414   7.122  10.971  0.8152  0.1942 -0.1267
  484MOL0     C63788   0.389   7.068  10.844 -0.0640  0.2473 -0.3813
  484MOL0     C63789   0.273   7.113  10.775  1.1368  0.0538 -0.4632
  484MOL0     C63790   0.195   7.203  10.829 -0.0368 -0.6951 -0.0767
  484MOL0     O63791   0.094   7.249  10.754 -0.8539 -0.0718 -0.3342
  484MOL0     C63792   0.107   7.388  10.707  0.4187  0.3225  0.3154
  484MOL0     C63793   0.108   7.383  10.547  0.2411  0.4459 -0.2089
  484MOL0     C63794   0.102   7.506  10.453 -0.2012  0.5220 -0.0193
  484MOL0     C63795   0.216   7.606  10.481  1.0761  0.1108  0.3867
  484MOL0     C63796   0.210   7.706  10.367  0.3255  0.3054  0.6119
  484MOL0     C63797   0.254   7.845  10.387  0.2530 -0.2178 -0.0698
  484MOL0     C63798   0.407   7.853  10.388 -0.1236  0.0495 -0.4068
  484MOL0     C63799   0.466   7.989  10.450  0.3040 -0.5816  0.0711
  484MOL0    Cl63800   0.440   7.982  10.628 -0.2215 -0.0725 -0.0513
  484MOL0     C63801   0.216   7.244  10.961  0.4774  1.3419  0.4265
  484MOL0     C63802   0.328   7.210  11.037 -0.2103  0.4779 -0.3040
  484MOL0     O63803   0.479   7.082  11.254  0.2923 -0.1274 -0.5262
  484MOL0     C63804   0.772   6.962  11.097 -0.3106  0.4297  0.3359
  484MOL0     C63805   0.894   6.901  11.111 -0.9641 -0.0379 -0.6383
  484MOL0     N63806   1.621   6.426  11.083 -0.0114 -0.8012 -0.4248
  484MOL0     N63807   1.744   6.458  11.044 -0.4208  0.0941 -0.2240
  484MOL0     C63808   2.978   6.968  10.721  1.0217 -0.3080 -0.4428
  484MOL0     C63809   3.099   6.964  10.652 -0.0724  0.1199 -0.0992
  484MOL0     C63810   3.423   6.850  10.376  0.1575  0.5403  0.5272
  484MOL0     C63811   3.473   6.836  10.246 -1.0775  0.1971  0.4903
  484MOL0     C63812   3.611   6.834  10.225  0.5676  0.5326 -0.6012
  484MOL0     C63813   3.701   6.848  10.332  1.1607  0.2423  0.6544
  484MOL0     O63814   3.836   6.838  10.314 -0.4040  0.3395  0.6427
  484MOL0     C63815   3.912   6.955  10.339  0.4585  0.6115 -0.5756
  484MOL0     C63816   3.868   7.077  10.251  0.8354 -0.3749 -0.4055
  484MOL0     C63817   3.962   7.189  10.280  0.0073 -0.0647  0.9647
  484MOL0     C63818   3.925   7.321  10.214  0.5681  0.8675 -0.1566
  484MOL0     C63819   3.790   7.367  10.250 -0.1850 -0.7031  0.5682
  484MOL0     C63820   3.689   7.396  10.306  0.1847 -0.3591 -0.3370
  484MOL0     C63821   3.653   6.864  10.464  0.8363 -0.1689 -0.0263
  484MOL0     C63822   3.515   6.869  10.486 -0.8625 -0.0739 -0.4082
  484MOL0     H63823   3.031   6.716  10.433 -0.1392  1.2929 -0.7212
  484MOL0     H63824   2.796   6.731  10.552 -0.3982  0.2436  1.7134
  484MOL0     H63825   2.699   6.733  10.878 -2.0142  1.1833  1.8184
  484MOL0     H63826   2.648   6.754  10.706  1.8409 -2.4137  0.9485
  484MOL0     H63827   2.506   6.932  10.767  1.0485 -2.3086 -1.7683
  484MOL0     H63828   2.569   6.928  10.930 -1.6361  3.5073 -2.0314
  484MOL0     H63829   2.489   6.668  10.952  0.3820  0.1238  1.5780
  484MOL0     H63830   2.389   6.701  10.811  0.2596 -0.0046 -0.4407
  484MOL0     H63831   2.378   6.849  11.089 -1.4245  3.4004 -0.0543
  484MOL0     H63832   2.282   6.901  10.948  1.3885 -0.0575 -1.1331
  484MOL0     H63833   2.271   6.636  11.073  1.3463 -0.7031 -2.7509
  484MOL0     H63834   2.174   6.685  10.932 -0.2117 -0.3872 -0.1988
  484MOL0     H63835   2.058   6.858  11.097 -1.2675 -0.2833  2.7669
  484MOL0     H63836   2.158   6.790  11.217 -0.9889 -0.0790  0.5490
  484MOL0     H63837   2.030   6.562  11.162 -0.3569  0.6396  1.5124
  484MOL0     H63838   1.959   6.712  11.228  1.8295  2.8227  0.0452
  484MOL0     H63839   1.920   6.624  10.931 -0.4711  1.9007 -0.8051
  484MOL0     H63840   1.852   6.770  11.003 -2.0427 -0.5912  0.2241
  484MOL0     H63841   1.667   6.720  11.217 -1.0842 -0.1540 -0.8548
  484MOL0     H63842   1.470   6.567  11.339  0.3301 -0.2633  0.2085
  484MOL0     H63843   1.402   6.431  11.235  0.3681  0.4664 -0.3695
  484MOL0     H63844   1.317   6.606  11.073 -0.4157 -2.4766  0.5809
  484MOL0     H63845   1.390   6.732  11.165 -2.6648  1.5368  3.4920
  484MOL0     H63846   1.187   6.553  11.279  1.3615 -1.6123 -1.2157
  484MOL0     H63847   1.245   6.710  11.343 -0.6875  1.1390 -1.0609
  484MOL0     H63848   1.070   6.655  11.095 -1.6578 -1.2659  1.5886
  484MOL0     H63849   1.145   6.813  11.108  1.3475  0.2346  0.6800
  484MOL0     H63850   0.830   6.775  11.425 -2.0246  0.4105  0.2149
  484MOL0     H63851   0.608   6.903  11.391 -0.1106  1.2816 -0.3894
  484MOL0     H63852   0.439   6.978  10.808 -1.2980 -0.8939  0.6241
  484MOL0     H63853   0.246   7.083  10.674  0.4416 -0.0943 -0.2380
  484MOL0     H63854   0.200   7.439  10.733  0.2799  0.0262  1.4763
  484MOL0     H63855   0.027   7.450  10.749 -0.0494  0.4597 -0.7416
  484MOL0     H63856   0.026   7.320  10.511 -0.3505  1.2079 -0.2354
  484MOL0     H63857   0.202   7.329  10.530 -0.9530 -2.5831  1.8778
  484MOL0     H63858   0.001   7.546  10.460 -1.0831 -0.9470 -2.7222
  484MOL0     H63859   0.103   7.453  10.357 -0.8672 -1.5178  1.0343
  484MOL0     H63860   0.199   7.654  10.578  3.0480 -0.8195  1.2695
  484MOL0     H63861   0.309   7.548  10.482  0.8840 -0.2048  1.6963
  484MOL0     H63862   0.110   7.701  10.322  0.3399  0.2634  0.5850
  484MOL0     H63863   0.270   7.675  10.281  0.8752  1.7919  0.4321
  484MOL0     H63864   0.197   7.895  10.466 -2.2668  0.1826 -2.0119
  484MOL0     H63865   0.226   7.917  10.310  1.0466  3.0153  2.4674
  484MOL0     H63866   0.446   7.758  10.425  2.2632 -0.2377 -3.3440
  484MOL0     H63867   0.442   7.851  10.284 -2.6292  1.9944 -1.3927
  484MOL0     H63868   0.415   8.073  10.401  1.7141 -0.0628 -0.5685
  484MOL0     H63869   0.575   7.996  10.445  0.4560  3.9801  3.4940
  484MOL0     H63870   0.141   7.316  10.995 -0.3312  1.8976 -2.2646
  484MOL0     H63871   0.346   7.259  11.132 -0.3098  0.9135 -0.5038
  484MOL0     H63872   0.763   6.994  10.994  0.2348 -3.3276 -1.0336
  484MOL0     H63873   0.971   6.918  11.036 -0.0864  1.9299  0.6442
  484MOL0     H63874   2.985   7.038  10.803  1.1036 -2.0369  1.0908
  484MOL0     H63875   3.189   7.009  10.694 -0.5897 -0.0481  1.2364
  484MOL0     H63876   3.401   6.833  10.164 -0.1807 -1.2035 -0.2838
  484MOL0     H63877   3.655   6.820  10.127  2.0382  3.6063 -0.5012
  484MOL0     H63878   4.015   6.933  10.311 -0.0403 -1.3830 -0.9811
  484MOL0     H63879   3.909   6.975  10.446  0.9960  2.5088 -0.8674
  484MOL0     H63880   3.870   7.052  10.144 -2.8726 -0.5398 -0.5841
  484MOL0     H63881   3.764   7.105  10.273  1.0756  1.0839 -0.9633
  484MOL0     H63882   4.056   7.155  10.237 -1.2346 -4.2160  1.0640
  484MOL0     H63883   3.971   7.192  10.389  1.4541  0.7533  0.8342
  484MOL0     H63884   4.002   7.393  10.245  1.7150 -0.2515 -0.3333
  484MOL0     H63885   3.921   7.318  10.105  3.6796 -3.1207 -0.3744
  484MOL0     H63886   3.605   7.429  10.363  0.7964 -1.0967  1.0209
  484MOL0     H63887   3.733   6.866  10.538  0.5131  0.4032  0.3133
  484MOL0     H63888   3.476   6.884  10.586 -1.3976  0.6202 -0.7183
  485MOL0     O63889   4.439   1.039   1.522  0.0509  0.1002 -0.6710
  485MOL0     C63890   4.516   0.975   1.446 -0.5594  0.3436  0.0647
  485MOL0     O63891   4.482   0.864   1.379  0.2702  0.2098 -0.2400
  485MOL0     C63892   4.353   0.820   1.404  0.5172  0.3439  1.2986
  485MOL0     C63893   4.246   0.891   1.349  1.0930 -0.2906  0.4451
  485MOL0     C63894   4.112   0.836   1.346 -0.4850  0.6730  0.2398
  485MOL0     C63895   4.085   0.718   1.414  0.1809  0.0803 -0.2306
  485MOL0     O63896   3.951   0.691   1.416 -0.3613  0.0312  0.8489
  485MOL0     C63897   3.907   0.567   1.471 -0.4188  0.6075  0.5794
  485MOL0     C63898   3.750   0.565   1.477  0.0837 -0.1198  0.2345
  485MOL0     C63899   3.699   0.679   1.561 -1.2137 -0.8457 -0.1010
  485MOL0     C63900   3.549   0.701   1.537 -0.6098  0.2145  0.0155
  485MOL0     C63901   3.450   0.600   1.602 -0.1393  0.8230  0.1576
  485MOL0     C63902   3.319   0.660   1.637 -0.2384  0.6151  0.4892
  485MOL0     C63903   3.240   0.670   1.504  0.7751 -0.2810 -0.8234
  485MOL0     C63904   3.118   0.754   1.519 -0.1443  0.0980 -0.5244
  485MOL0     N63905   3.007   0.665   1.569  0.0614  0.6460  0.6853
  485MOL0     C63906   2.922   0.592   1.493 -1.2464  0.5786  0.1424
  485MOL0     C63907   2.848   0.523   1.579  0.0688  0.8787  0.4161
  485MOL0     C63908   2.723   0.443   1.545  0.1067 -0.1073 -0.3168
  485MOL0     C63909   2.602   0.469   1.637  0.1701 -0.6010  0.2697
  485MOL0     C63910   2.469   0.456   1.565 -0.9127  0.1630  0.6005
  485MOL0     C63911   2.349   0.465   1.658 -0.4461 -0.2702 -0.2447
  485MOL0     O63912   2.231   0.502   1.586  0.1009  0.4412  0.2598
  485MOL0     C63913   2.123   0.504   1.667 -0.8535 -0.3873  0.3482
  485MOL0     C63914   2.124   0.596   1.769  0.3749  0.5565 -0.0109
  485MOL0     C63915   2.006   0.601   1.848 -0.3499 -0.9270  0.9986
  485MOL0     C63916   1.894   0.529   1.817  0.2196  0.2279 -0.2011
  485MOL0     C63917   1.781   0.543   1.902 -0.3635  0.3166 -0.2905
  485MOL0     O63918   1.691   0.443   1.908 -0.3996  0.1166  0.2828
  485MOL0     C63919   1.583   0.459   1.990 -0.4657 -1.1051 -0.6762
  485MOL0     C63920   1.568   0.363   2.090 -0.9214 -0.7866  0.9121
  485MOL0     C63921   1.442   0.358   2.157 -0.5198  0.7022 -0.5889
  485MOL0     C63922   1.343   0.452   2.128 -0.4310 -0.1313 -0.6759
  485MOL0     O63923   1.214   0.443   2.179  0.7180 -0.5612 -0.6902
  485MOL0     C63924   1.151   0.309   2.167  0.5761 -0.8997  0.3146
  485MOL0     C63925   1.005   0.326   2.171  0.8675  0.2379 -0.3680
  485MOL0     C63926   0.937   0.187   2.158  1.1048 -0.1179 -0.6424
  485MOL0     C63927   0.926   0.120   2.282  0.3690  0.0006  0.7832
  485MOL0     C63928   0.895  -0.032   2.277  0.4241 -0.4518  0.3299
  485MOL0     C63929   0.777  -0.056   2.183  0.1795 -0.0362 -0.6661
  485MOL0     C63930   0.714  -0.195   2.196  0.3434  0.4048  0.2717
  485MOL0     C63931   0.586  -0.194   2.115 -0.7750  0.2187 -0.3761
  485MOL0    Cl63932   0.509  -0.347   2.109  0.1143 -0.1845 -0.3490
  485MOL0     C63933   1.369   0.564   2.043 -0.2198  1.0558  0.1273
  485MOL0     C63934   1.490   0.561   1.972  0.6555 -0.1991 -0.2919
  485MOL0     O63935   1.774   0.647   1.966 -0.3416  0.7406 -0.3462
  485MOL0     C63936   1.897   0.431   1.716  0.9183  0.0554  1.3218
  485MOL0     C63937   2.019   0.420   1.647 -0.0392 -0.5576 -0.1792
  485MOL0     N63938   2.894   0.537   1.705 -0.1455 -0.4396 -0.2360
  485MOL0     N63939   2.990   0.624   1.691  0.5846 -0.2582 -0.4000
  485MOL0     C63940   4.187   0.652   1.482  0.6711 -0.3132 -0.0087
  485MOL0     C63941   4.315   0.699   1.466 -0.0546  0.2130 -0.2063
  485MOL0     C63942   4.648   1.032   1.440 -0.0239  0.3237 -0.7626
  485MOL0     C63943   4.670   1.151   1.510 -0.9822 -0.0565 -0.4678
  485MOL0     C63944   4.810   1.200   1.508  0.5394 -0.0691  1.2249
  485MOL0     C63945   4.915   1.135   1.437  0.3045  0.7447 -0.5134
  485MOL0     O63946   5.050   1.187   1.454  0.0892 -0.0768 -0.1785
  485MOL0     C63947   5.156   1.128   1.385 -0.0216 -0.7406  0.7473
  485MOL0     C63948   5.285   1.211   1.399 -0.6211 -0.3801  0.1667
  485MOL0     C63949   5.314   1.249   1.546 -0.6185 -0.0534 -0.3863
  485MOL0     C63950   5.456   1.243   1.583 -0.2275  0.0751  0.8261
  485MOL0     C63951   5.531   1.364   1.542  0.0776  0.1708  0.0321
  485MOL0     C63952   5.589   1.467   1.515 -0.1098  0.2002  0.7078
  485MOL0     C63953   4.876   1.022   1.365 -0.6746  0.2389 -0.2912
  485MOL0     C63954   4.748   0.974   1.358  0.2880  0.7197 -0.4628
  485MOL0     H63955   4.255   0.984   1.293 -0.3426 -1.1144 -1.2679
  485MOL0     H63956   4.042   0.896   1.288  2.1361  1.9284 -1.8905
  485MOL0     H63957   3.956   0.541   1.565  1.0163 -1.2186 -0.5945
  485MOL0     H63958   3.941   0.483   1.410  1.4589  0.0181  2.2900
  485MOL0     H63959   3.721   0.471   1.525  0.0392 -1.1407 -1.7099
  485MOL0     H63960   3.720   0.548   1.373 -0.6867 -1.9231  0.7043
  485MOL0     H63961   3.752   0.768   1.527  0.7024 -1.3294  1.4750
  485MOL0     H63962   3.717   0.660   1.667  2.3554  1.0724 -0.2002
  485MOL0     H63963   3.529   0.800   1.580 -0.0569  1.0995 -1.6511
  485MOL0     H63964   3.528   0.709   1.430  0.2614  2.5549 -0.0645
  485MOL0     H63965   3.496   0.557   1.691  2.4420 -1.1759 -1.9476
  485MOL0     H63966   3.428   0.512   1.542 -0.1182  0.7230  0.2961
  485MOL0     H63967   3.332   0.757   1.687  1.0795  0.0413  1.3023
  485MOL0     H63968   3.276   0.590   1.708  0.3389 -0.6557 -0.3838
  485MOL0     H63969   3.293   0.737   1.435 -3.0165  3.9067 -0.1513
  485MOL0     H63970   3.227   0.572   1.457 -0.2504 -0.4081 -0.2907
  485MOL0     H63971   3.089   0.791   1.421 -1.7109  2.6534  0.8011
  485MOL0     H63972   3.133   0.837   1.589 -1.0241 -0.6111  0.5494
  485MOL0     H63973   2.911   0.607   1.387 -0.2851  1.2331  0.1233
  485MOL0     H63974   2.740   0.335   1.540 -0.1222 -0.1732  0.2404
  485MOL0     H63975   2.695   0.468   1.442 -1.4546 -0.3480  0.0097
  485MOL0     H63976   2.609   0.571   1.677 -1.2885  0.4630 -2.0056
  485MOL0     H63977   2.604   0.410   1.729  0.6897  1.2300  1.5035
  485MOL0     H63978   2.470   0.543   1.498 -0.8404  0.3745  0.8748
  485MOL0     H63979   2.477   0.362   1.511  0.6476  1.9648 -2.5996
  485MOL0     H63980   2.371   0.532   1.742  1.6490 -4.2686  2.7716
  485MOL0     H63981   2.347   0.374   1.720  4.0804  2.4198  4.6306
  485MOL0     H63982   2.206   0.664   1.790  0.5931  1.0046 -2.0471
  485MOL0     H63983   2.024   0.673   1.927  1.6735  2.3849 -2.1589
  485MOL0     H63984   1.638   0.281   2.099 -1.1863 -1.0132  0.9231
  485MOL0     H63985   1.435   0.282   2.235 -1.3528  0.6890 -0.6717
  485MOL0     H63986   1.187   0.246   2.249  2.4263  1.2406  1.2703
  485MOL0     H63987   1.171   0.277   2.065 -3.3075 -0.9830 -0.5697
  485MOL0     H63988   0.974   0.390   2.087 -0.2005 -0.6702 -0.6910
  485MOL0     H63989   0.968   0.365   2.266  4.1658  0.5652  0.8849
  485MOL0     H63990   0.982   0.129   2.077 -0.8874 -0.4620 -1.5638
  485MOL0     H63991   0.838   0.214   2.121  0.9304  0.1863  0.0245
  485MOL0     H63992   1.025   0.123   2.327  0.3403 -0.4099  0.8737
  485MOL0     H63993   0.860   0.168   2.355 -1.5028  0.8169 -1.3297
  485MOL0     H63994   0.887  -0.061   2.381  1.6232  4.2385  2.0137
  485MOL0     H63995   0.980  -0.081   2.229 -0.5314 -0.3017 -1.6425
  485MOL0     H63996   0.802  -0.034   2.079 -2.4790  1.3150 -1.1178
  485MOL0     H63997   0.704   0.021   2.210  0.8106  0.4340 -0.2968
  485MOL0     H63998   0.788  -0.257   2.145 -2.1307 -0.6237 -2.3528
  485MOL0     H63999   0.692  -0.217   2.301 -0.8004 -1.7068 -0.3448
  485MOL0     H64000   0.610  -0.176   2.010  1.1013  0.1813  0.0118
  485MOL0     H64001   0.520  -0.115   2.152  1.2028  2.4801 -1.4156
  485MOL0     H64002   1.300   0.646   2.033 -2.0698 -0.2079  1.7058
  485MOL0     H64003   1.506   0.637   1.896 -1.2012 -0.0713 -0.5993
  485MOL0     H64004   1.813   0.364   1.703  1.5484 -0.4405 -0.3803
  485MOL0     H64005   2.030   0.344   1.570  5.3986 -0.3963  0.0715
  485MOL0     H64006   4.175   0.562   1.541 -1.8460  0.9988  1.6564
  485MOL0     H64007   4.403   0.640   1.491  0.9183  0.8759 -1.8768
  485MOL0     H64008   4.600   1.199   1.577 -0.3253 -1.5773  1.3769
  485MOL0     H64009   4.834   1.291   1.562 -1.9055  0.2607  1.8535
  485MOL0     H64010   5.135   1.128   1.278 -0.1984  1.9472  0.7141
  485MOL0     H64011   5.187   1.030   1.421  3.0956 -0.4979 -0.9670
  485MOL0     H64012   5.362   1.152   1.350 -2.3422 -1.2284 -1.6586
  485MOL0     H64013   5.272   1.304   1.343 -2.9482  1.4023  3.3280
  485MOL0     H64014   5.262   1.180   1.613 -1.3806 -0.3406 -1.2708
  485MOL0     H64015   5.273   1.345   1.580  2.1439  0.3835  2.2527
  485MOL0     H64016   5.464   1.243   1.692  1.3530  1.6157  0.7635
  485MOL0     H64017   5.491   1.143   1.555  0.1144  0.1660  0.9250
  485MOL0     H64018   5.628   1.566   1.509  4.5101 -1.4695 -3.5403
  485MOL0     H64019   4.946   0.966   1.305 -0.6766 -1.0077  0.8104
  485MOL0     H64020   4.722   0.884   1.304 -2.1436  1.4539 -0.6215
  486MOL0     O64021  10.682   0.363   2.435  0.1085 -0.3467 -0.4843
  486MOL0     C64022  10.648   0.392   2.319 -0.3135 -0.3078 -0.5364
  486MOL0     O64023  10.518   0.417   2.282 -0.6547 -0.9837 -0.7913
  486MOL0     C64024  10.402   0.434   2.355  0.2682  0.1620  0.9679
  486MOL0     C64025  10.288   0.442   2.269 -0.3921 -0.3216  0.3801
  486MOL0     C64026  10.158   0.454   2.327 -0.3610 -0.1604  0.1168
  486MOL0     C64027  10.145   0.476   2.464  0.7329  0.7934 -0.7706
  486MOL0     O64028  10.015   0.500   2.514 -0.3600  0.2264 -0.0294
  486MOL0     C64029   9.991   0.518   2.648 -0.1583  0.4059 -0.2964
  486MOL0     C64030   9.845   0.513   2.688  0.0700 -0.0798  0.0658
  486MOL0     C64031   9.765   0.618   2.607 -0.5778  0.5454  1.3905
  486MOL0     C64032   9.611   0.607   2.638  0.0673 -0.1506 -0.2796
  486MOL0     C64033   9.542   0.702   2.540  0.8952 -0.8881 -0.2110
  486MOL0     C64034   9.394   0.668   2.525  0.4908  0.0302 -0.6843
  486MOL0     C64035   9.331   0.765   2.427 -0.6452 -0.2100  0.6046
  486MOL0     C64036   9.187   0.802   2.461 -0.8161  0.1191 -0.7238
  486MOL0     N64037   9.099   0.684   2.434 -0.4490 -1.1840  0.0827
  486MOL0     C64038   9.039   0.663   2.309  0.4776 -0.5879 -0.3552
  486MOL0     C64039   8.977   0.546   2.315 -0.6894 -0.6298 -1.0469
  486MOL0     C64040   8.889   0.495   2.208  0.4205 -0.1623  0.1062
  486MOL0     C64041   8.759   0.416   2.255 -0.5593 -0.7540  0.2179
  486MOL0     C64042   8.692   0.491   2.370  0.8415  0.4932 -0.4558
  486MOL0     C64043   8.545   0.440   2.383 -0.2621 -1.0299 -0.4276
  486MOL0     O64044   8.531   0.299   2.408 -0.1269  0.5804  1.0210
  486MOL0     C64045   8.406   0.241   2.400  0.2193  0.4567  0.5586
  486MOL0     C64046   8.291   0.312   2.380 -0.3412 -0.1972  0.9645
  486MOL0     C64047   8.167   0.251   2.403 -0.7528  0.9092 -0.8196
  486MOL0     C64048   8.150   0.113   2.435 -0.6908 -1.0090 -0.3356
  486MOL0     C64049   8.022   0.042   2.438 -0.0301  0.0721 -0.6290
  486MOL0     O64050   7.915   0.121   2.400 -0.2569 -0.5297 -0.6516
  486MOL0     C64051   7.793   0.080   2.369  0.1854 -0.1113  0.1042
  486MOL0     C64052   7.717   0.012   2.462  0.1168  0.3834  0.2069
  486MOL0     C64053   7.582  -0.018   2.432  0.0066  1.0215 -0.3737
  486MOL0     C64054   7.530   0.010   2.311 -1.0069 -0.2615 -0.3366
  486MOL0     O64055   7.394  -0.005   2.294 -0.0425 -0.4467 -0.3364
  486MOL0     C64056   7.351  -0.139   2.245 -0.1190  0.3399 -0.0765
  486MOL0     C64057   7.210  -0.156   2.278 -0.7324  0.1565  0.4888
  486MOL0     C64058   7.142  -0.260   2.181  0.3828  0.2457  1.0633
  486MOL0     C64059   6.989  -0.254   2.213  0.3441 -0.2312 -1.6383
  486MOL0     C64060   6.907  -0.344   2.115 -0.0774  0.2828  0.6619
  486MOL0     C64061   6.759  -0.334   2.134 -0.1574 -0.1035  0.0375
  486MOL0     C64062   6.714  -0.380   2.275  0.1323 -0.0317 -0.0908
  486MOL0     C64063   6.582  -0.323   2.326 -0.0690 -0.5490 -0.4481
  486MOL0    Cl64064   6.598  -0.157   2.390 -0.3246  0.0282  0.3440
  486MOL0     C64065   7.611   0.073   2.209  0.0928 -0.2350 -0.1742
  486MOL0     C64066   7.741   0.109   2.243 -0.3308 -0.0591  0.2707
  486MOL0     O64067   8.011  -0.074   2.461  0.2923 -0.5939  0.5363
  486MOL0     C64068   8.276   0.050   2.459  0.3307  0.6243  0.2428
  486MOL0     C64069   8.398   0.106   2.444  0.2572 -0.5675  1.3916
  486MOL0     N64070   8.998   0.499   2.445 -0.3298  0.4245  0.4085
  486MOL0     N64071   9.079   0.575   2.508 -0.3790 -0.1782 -0.7968
  486MOL0     C64072  10.261   0.459   2.553  0.0017 -0.0836  0.3155
  486MOL0     C64073  10.385   0.439   2.495 -0.2156  0.5040 -0.5265
  486MOL0     C64074  10.753   0.395   2.219 -0.5257  0.7901  0.0283
  486MOL0     C64075  10.735   0.437   2.089  0.0239 -0.6570 -0.5296
  486MOL0     C64076  10.833   0.428   1.992  0.5335  0.7020  0.8067
  486MOL0     C64077  10.965   0.387   2.025  0.3009 -0.3205 -0.0279
  486MOL0     O64078  11.064   0.400   1.932  0.3134  0.2828 -0.0731
  486MOL0     C64079  11.036   0.454   1.802  0.3537  0.3343  0.3690
  486MOL0     C64080  11.006   0.603   1.798 -1.0292  0.3204  0.1441
  486MOL0     C64081  11.093   0.665   1.906 -0.1304 -0.1055 -0.2182
  486MOL0     C64082  11.085   0.817   1.918 -0.2064 -0.4556  0.4533
  486MOL0     C64083  11.195   0.869   1.989  0.3360  0.5649 -1.0655
  486MOL0     C64084  11.288   0.906   2.056 -0.9020 -0.0805 -0.0548
  486MOL0     C64085  10.995   0.345   2.155 -0.5328  0.3755 -0.6552
  486MOL0     C64086  10.883   0.355   2.244 -0.1223  1.0403  0.5179
  486MOL0     H64087  10.297   0.428   2.162  0.8347 -1.0048  0.5505
  486MOL0     H64088  10.063   0.457   2.275  0.8903 -0.5554 -2.3023
  486MOL0     H64089  10.044   0.599   2.697  2.0747 -1.1927  0.0861
  486MOL0     H64090  10.029   0.426   2.692  0.2595  1.1491  0.9331
  486MOL0     H64091   9.831   0.540   2.793 -2.4951  0.3151 -0.3271
  486MOL0     H64092   9.807   0.411   2.679 -1.4964  0.1972  2.6289
  486MOL0     H64093   9.771   0.604   2.499 -0.8871  0.6554  1.3583
  486MOL0     H64094   9.796   0.719   2.634 -1.6577  1.6272 -1.1174
  486MOL0     H64095   9.578   0.505   2.616  0.4654 -0.2468 -0.4335
  486MOL0     H64096   9.590   0.648   2.738  3.6955  2.0722 -0.2604
  486MOL0     H64097   9.595   0.703   2.444  0.3834 -2.6704 -0.5506
  486MOL0     H64098   9.557   0.804   2.576  2.2966 -0.2754 -2.3470
  486MOL0     H64099   9.334   0.679   2.616  0.3672 -1.4867 -0.5604
  486MOL0     H64100   9.388   0.567   2.484 -0.3208 -0.9971  1.7580
  486MOL0     H64101   9.390   0.856   2.410  0.8468 -1.3474 -0.5157
  486MOL0     H64102   9.317   0.710   2.333 -0.5556  1.2833 -0.3245
  486MOL0     H64103   9.160   0.884   2.394  2.9285  2.4976  0.3778
  486MOL0     H64104   9.172   0.844   2.561  0.0090  2.4192 -1.5104
  486MOL0     H64105   9.044   0.715   2.214 -0.6391 -0.6689 -0.4735
  486MOL0     H64106   8.949   0.424   2.152 -0.1835 -0.1366 -0.5946
  486MOL0     H64107   8.870   0.581   2.143  2.0660  0.9155  0.9994
  486MOL0     H64108   8.789   0.318   2.294 -0.8038 -0.2146  1.8479
  486MOL0     H64109   8.686   0.405   2.175 -0.6909  0.0463  0.2247
  486MOL0     H64110   8.740   0.483   2.468  0.4753  0.3353 -0.2841
  486MOL0     H64111   8.696   0.599   2.360  0.2122  0.5476 -0.1961
  486MOL0     H64112   8.496   0.460   2.287 -0.9639  1.5576  0.3906
  486MOL0     H64113   8.488   0.491   2.461 -0.9223 -2.6286  0.1858
  486MOL0     H64114   8.303   0.417   2.356  4.5042 -0.9458 -0.9823
  486MOL0     H64115   8.083   0.319   2.393  0.2468  2.2324 -0.5421
  486MOL0     H64116   7.759  -0.024   2.555 -2.0533 -1.7193  0.4567
  486MOL0     H64117   7.517  -0.074   2.499  1.3374 -1.1604 -0.7986
  486MOL0     H64118   7.411  -0.210   2.302 -2.2439 -0.4402  1.3004
  486MOL0     H64119   7.380  -0.145   2.140  3.4701  0.3825  0.7904
  486MOL0     H64120   7.174  -0.055   2.255  3.0839  1.2611 -1.4778
  486MOL0     H64121   7.195  -0.176   2.385 -0.1389  0.8156  0.7022
  486MOL0     H64122   7.177  -0.362   2.199 -1.6636 -0.3129  2.1205
  486MOL0     H64123   7.161  -0.230   2.077 -1.9248  1.0631  0.8288
  486MOL0     H64124   6.975  -0.271   2.320  0.2671 -0.2258 -1.6474
  486MOL0     H64125   6.957  -0.151   2.194 -0.9917 -0.7234 -2.1582
  486MOL0     H64126   6.947  -0.443   2.137  0.1488  0.3040  0.3507
  486MOL0     H64127   6.938  -0.322   2.012 -0.3155 -3.0201 -0.2276
  486MOL0     H64128   6.709  -0.389   2.054 -1.1678 -1.9161  1.8365
  486MOL0     H64129   6.731  -0.228   2.131 -0.4653 -0.1862 -0.1140
  486MOL0     H64130   6.713  -0.489   2.273 -2.3762 -0.1330 -3.3848
  486MOL0     H64131   6.792  -0.344   2.342  2.0271 -1.2697 -1.5247
  486MOL0     H64132   6.545  -0.385   2.408 -1.2338 -0.3644 -0.8174
  486MOL0     H64133   6.511  -0.331   2.242 -0.3258  0.4767 -0.3401
  486MOL0     H64134   7.575   0.095   2.109 -1.0324  0.9728  0.4656
  486MOL0     H64135   7.807   0.154   2.171  3.7261 -3.9506  1.1079
  486MOL0     H64136   8.277  -0.055   2.489  0.2014  0.6994  0.5137
  486MOL0     H64137   8.488   0.050   2.469  2.5038  0.7211 -2.8239
  486MOL0     H64138  10.263   0.471   2.661 -0.0393  0.8659  0.2210
  486MOL0     H64139  10.476   0.436   2.554  1.4659 -0.9199 -3.0022
  486MOL0     H64140  10.637   0.476   2.062  0.9328  3.3327  1.1110
  486MOL0     H64141  10.807   0.460   1.892  2.8035 -1.0517 -0.4528
  486MOL0     H64142  10.955   0.396   1.757  0.5732  0.2790  0.0407
  486MOL0     H64143  11.133   0.439   1.753  0.4902  3.2871 -0.4423
  486MOL0     H64144  11.033   0.645   1.701  0.6548  2.9412  1.6224
  486MOL0     H64145  10.899   0.622   1.812 -1.4330 -2.3271  1.2664
  486MOL0     H64146  11.194   0.637   1.875  0.3072  0.9750  0.1777
  486MOL0     H64147  11.079   0.624   2.007 -1.4701 -1.0366 -0.7514
  486MOL0     H64148  11.078   0.860   1.818  2.3873 -1.1344 -0.1053
  486MOL0     H64149  10.996   0.845   1.974  0.1219 -1.8037  1.7134
  486MOL0     H64150  11.372   0.940   2.112 -1.5932  0.6230  0.5760
  486MOL0     H64151  11.091   0.306   2.187 -0.1434  3.4450  2.4349
  486MOL0     H64152  10.916   0.317   2.340  1.7616 -1.5357 -1.0001
  487MOL0     O64153  10.324   2.269   6.539 -0.8953 -0.7976  0.5404
  487MOL0     C64154  10.350   2.150   6.521  0.1190 -0.6405 -0.7752
  487MOL0     O64155  10.258   2.055   6.493 -0.1243 -0.2771  0.1170
  487MOL0     C64156  10.140   2.053   6.565 -1.1080  0.9319  0.2459
  487MOL0     C64157  10.115   2.111   6.692 -0.3304  0.1150 -0.6131
  487MOL0     C64158   9.989   2.079   6.754 -0.4992 -0.6179 -0.2608
  487MOL0     C64159   9.901   1.988   6.691 -0.4371 -0.4050  0.8148
  487MOL0     O64160   9.777   1.951   6.751  0.2454  0.6892 -0.4813
  487MOL0     C64161   9.722   2.050   6.844  0.4811  0.2377  0.6265
  487MOL0     C64162   9.601   1.978   6.912 -0.7228 -0.3328  0.5378
  487MOL0     C64163   9.487   1.939   6.814 -1.0779  0.5246  0.2436
  487MOL0     C64164   9.357   1.929   6.883  0.4610  0.3283 -0.3655
  487MOL0     C64165   9.273   1.834   6.801 -0.6671 -0.9337 -0.1950
  487MOL0     C64166   9.128   1.835   6.852 -0.7479  0.4229 -0.0868
  487MOL0     C64167   9.050   1.725   6.784  0.2912  0.2873  0.0436
  487MOL0     C64168   8.914   1.702   6.861  0.2149  0.4493 -0.1776
  487MOL0     N64169   8.823   1.814   6.884  0.2883  0.4890 -0.0586
  487MOL0     C64170   8.732   1.856   6.791  0.2963 -0.2985 -0.7133
  487MOL0     C64171   8.659   1.943   6.875  0.2937  1.1727  0.7369
  487MOL0     C64172   8.541   2.022   6.836 -1.6408 -0.8297 -0.2990
  487MOL0     C64173   8.416   1.938   6.859  0.7750 -0.4909 -0.6929
  487MOL0     C64174   8.298   1.998   6.791  0.2400 -0.2386 -0.3868
  487MOL0     C64175   8.202   1.895   6.727 -1.0141  1.1061 -0.5628
  487MOL0     O64176   8.157   1.792   6.819  0.1258 -0.2167  1.2427
  487MOL0     C64177   8.042   1.811   6.897 -0.0869  0.0016 -0.3151
  487MOL0     C64178   8.004   1.693   6.980  0.2647 -0.9816  0.2211
  487MOL0     C64179   7.884   1.701   7.050 -0.3212  0.4861 -0.9174
  487MOL0     C64180   7.805   1.824   7.058 -0.2395  1.2240 -0.1988
  487MOL0     C64181   7.687   1.835   7.152 -0.4242 -0.8098 -0.4759
  487MOL0     O64182   7.680   1.750   7.256 -0.1718 -0.0527 -0.0745
  487MOL0     C64183   7.587   1.771   7.351  0.1505  0.3222  1.2938
  487MOL0     C64184   7.629   1.804   7.480 -0.2076  0.0029  0.0801
  487MOL0     C64185   7.536   1.822   7.582 -1.1908 -0.2843 -0.2866
  487MOL0     C64186   7.398   1.822   7.552 -0.8276  0.6660 -0.7549
  487MOL0     O64187   7.324   1.836   7.665  0.2486 -0.2574  0.2978
  487MOL0     C64188   7.185   1.843   7.642 -0.5276  0.4616 -0.0718
  487MOL0     C64189   7.133   1.870   7.783 -0.8370 -0.4231  1.0643
  487MOL0     C64190   6.985   1.894   7.780  1.0949 -0.2957 -0.1847
  487MOL0     C64191   6.931   1.952   7.914 -1.3034 -0.7260 -0.1212
  487MOL0     C64192   6.968   2.091   7.933 -0.1052 -1.3292  0.1753
  487MOL0     C64193   6.946   2.148   8.075  0.5000 -0.2407 -0.1326
  487MOL0     C64194   6.927   2.297   8.065 -0.3857 -0.0048 -0.1068
  487MOL0     C64195   6.905   2.357   8.205  0.4905 -0.2917 -0.3564
  487MOL0    Cl64196   6.851   2.525   8.189  0.2972 -0.3270 -0.2090
  487MOL0     C64197   7.358   1.820   7.423 -0.1794 -0.3417 -0.0845
  487MOL0     C64198   7.455   1.788   7.322 -0.3411 -0.5008 -0.0670
  487MOL0     O64199   7.622   1.938   7.141  0.6709 -0.9754  0.5934
  487MOL0     C64200   7.839   1.921   6.965  0.6008 -0.0708  0.1768
  487MOL0     C64201   7.954   1.922   6.891  0.3240 -0.6910  0.3457
  487MOL0     N64202   8.695   1.933   7.005 -0.6888 -0.5365 -0.1779
  487MOL0     N64203   8.804   1.864   7.000  0.1510 -0.4109 -1.0633
  487MOL0     C64204   9.921   1.935   6.566 -0.5597  0.6704  0.9348
  487MOL0     C64205  10.052   1.957   6.514 -0.5134  0.6656  0.1894
  487MOL0     C64206  10.498   2.127   6.524 -0.2291 -0.1043 -0.1853
  487MOL0     C64207  10.543   1.993   6.539 -0.0216  0.4848 -0.1770
  487MOL0     C64208  10.682   1.965   6.549  0.8862 -0.5052  0.4448
  487MOL0     C64209  10.776   2.068   6.523 -0.1890 -0.7480  0.0110
  487MOL0     O64210  10.907   2.044   6.546  0.1397  0.0418 -0.4192
  487MOL0     C64211  10.956   1.922   6.498  0.2797 -0.2748 -0.0543
  487MOL0     C64212  11.103   1.938   6.479 -0.1360 -0.1359  0.1378
  487MOL0     C64213  11.160   1.796   6.477 -0.0113  0.0549 -0.4481
  487MOL0     C64214  11.312   1.781   6.483 -0.0265  0.1207 -0.1577
  487MOL0     C64215  11.354   1.644   6.446  0.3466  0.3118  0.1334
  487MOL0     C64216  11.380   1.529   6.425  0.1147  0.1666 -0.3316
  487MOL0     C64217  10.731   2.197   6.491 -0.3899  0.3949  0.8302
  487MOL0     C64218  10.596   2.229   6.493  1.0414  0.3575  0.1415
  487MOL0     H64219  10.181   2.185   6.737 -1.1474  0.9066 -0.6727
  487MOL0     H64220   9.972   2.122   6.852  1.7763 -6.2280  3.0466
  487MOL0     H64221   9.688   2.134   6.783  2.6310  2.0276  1.7497
  487MOL0     H64222   9.777   2.097   6.925 -0.5605  0.8910  0.9745
  487MOL0     H64223   9.576   2.050   6.990  2.4251  1.2146  0.2748
  487MOL0     H64224   9.643   1.890   6.961  0.4767  0.3635  0.7892
  487MOL0     H64225   9.516   1.848   6.763 -0.9461  0.7377 -0.0651
  487MOL0     H64226   9.477   2.030   6.754 -2.0209  1.1453  1.2894
  487MOL0     H64227   9.370   1.867   6.971  0.9387  0.5682 -0.2663
  487MOL0     H64228   9.299   2.020   6.899  0.5498  0.5858 -1.3931
  487MOL0     H64229   9.312   1.733   6.811  1.3009 -0.4030 -1.8235
  487MOL0     H64230   9.279   1.852   6.693  0.3077 -0.4842 -0.0790
  487MOL0     H64231   9.080   1.930   6.827  0.4177  0.4071 -2.6962
  487MOL0     H64232   9.127   1.817   6.960 -0.6668 -0.2344 -0.1950
  487MOL0     H64233   9.035   1.753   6.680  3.5460  2.6435  0.0607
  487MOL0     H64234   9.105   1.631   6.788 -1.0815 -0.5362  2.9261
  487MOL0     H64235   8.934   1.670   6.963 -2.8366  3.2671  1.5050
  487MOL0     H64236   8.857   1.632   6.800  0.5099  0.9631 -1.0694
  487MOL0     H64237   8.724   1.838   6.685 -0.0247 -0.5877 -0.6426
  487MOL0     H64238   8.549   2.053   6.731 -0.1410  0.3601  0.1405
  487MOL0     H64239   8.548   2.112   6.897 -0.9561 -0.6359 -0.6484
  487MOL0     H64240   8.385   1.930   6.963  4.2081 -6.0332  0.2881
  487MOL0     H64241   8.446   1.840   6.822  1.6542  0.2337 -2.0160
  487MOL0     H64242   8.251   2.052   6.873  5.5236  2.8210  1.1418
  487MOL0     H64243   8.331   2.063   6.709 -2.1388  1.5877  0.0125
  487MOL0     H64244   8.254   1.844   6.646  0.3733  0.3852  0.7403
  487MOL0     H64245   8.116   1.947   6.683 -2.0221 -1.4275 -1.7608
  487MOL0     H64246   8.066   1.603   6.974  3.0703  0.8948 -2.1380
  487MOL0     H64247   7.853   1.618   7.114  0.1839 -2.2663 -3.9706
  487MOL0     H64248   7.735   1.822   7.496 -0.0609  0.9570 -1.7172
  487MOL0     H64249   7.570   1.837   7.684  1.2739  2.3103 -1.3626
  487MOL0     H64250   7.140   1.747   7.616 -2.8261  0.3649  3.6123
  487MOL0     H64251   7.156   1.910   7.560  1.0014  1.2736  0.0128
  487MOL0     H64252   7.188   1.954   7.827  0.5953 -1.2835  0.9782
  487MOL0     H64253   7.155   1.779   7.839 -3.0527 -2.9540 -1.8502
  487MOL0     H64254   6.934   1.801   7.754 -0.3026  0.3168  0.2969
  487MOL0     H64255   6.972   1.972   7.705 -1.5316  1.5196  1.9572
  487MOL0     H64256   6.822   1.947   7.905 -1.3243  0.1344 -0.4910
  487MOL0     H64257   6.959   1.895   8.003 -0.9915  0.2167  0.3977
  487MOL0     H64258   6.915   2.141   7.852  2.1389  1.2753  0.1581
  487MOL0     H64259   7.073   2.113   7.912 -0.5577 -0.2492 -1.0640
  487MOL0     H64260   7.017   2.105   8.145 -0.1366 -2.9087 -0.9996
  487MOL0     H64261   6.848   2.114   8.108  0.7890 -1.8631 -0.8705
  487MOL0     H64262   7.017   2.337   8.017 -0.2108 -1.5774 -1.1549
  487MOL0     H64263   6.845   2.320   7.997  0.3750  0.1809 -0.9879
  487MOL0     H64264   7.001   2.365   8.258  1.0055  0.8148 -1.3968
  487MOL0     H64265   6.832   2.297   8.260 -1.8400  1.9651 -0.7874
  487MOL0     H64266   7.259   1.834   7.380 -1.2252 -0.6209  2.0731
  487MOL0     H64267   7.436   1.754   7.221  2.3431  0.0549 -0.8378
  487MOL0     H64268   7.768   2.001   6.949 -2.2044 -2.1431  1.5237
  487MOL0     H64269   7.967   2.006   6.823  2.0769 -1.2383 -0.0401
  487MOL0     H64270   9.838   1.883   6.520 -1.3571  3.6511 -1.3657
  487MOL0     H64271  10.070   1.919   6.414  1.3591  0.1871  0.6843
  487MOL0     H64272  10.484   1.904   6.553 -0.8814  0.8356 -1.3924
  487MOL0     H64273  10.713   1.865   6.576 -0.4010 -0.5995  1.7041
  487MOL0     H64274  10.908   1.883   6.408  1.2505  1.1748 -1.2492
  487MOL0     H64275  10.949   1.839   6.569  3.2125 -0.7422 -0.1735
  487MOL0     H64276  11.121   1.982   6.380  0.3583 -1.0203 -0.1721
  487MOL0     H64277  11.147   1.995   6.561 -1.4584  1.5696 -0.2767
  487MOL0     H64278  11.117   1.745   6.391 -0.8410 -0.1249  0.0704
  487MOL0     H64279  11.121   1.742   6.563  2.1595 -0.4174  0.3039
  487MOL0     H64280  11.361   1.852   6.416  0.5505 -1.0828 -1.0491
  487MOL0     H64281  11.355   1.807   6.580  0.5941  1.5661 -0.7946
  487MOL0     H64282  11.390   1.424   6.407 -0.0106 -0.3875  2.3536
  487MOL0     H64283  10.802   2.274   6.463 -1.1791  0.7889 -0.1450
  487MOL0     H64284  10.559   2.326   6.464  0.1023 -0.1033 -0.2567
  488MOL0     O64285   0.211   5.201   3.076 -0.1441  0.3276 -0.0365
  488MOL0     C64286   0.310   5.133   3.102  0.1851  0.3094 -0.2528
  488MOL0     O64287   0.343   5.084   3.230 -0.5057 -0.2780  0.2915
  488MOL0     C64288   0.243   5.067   3.323 -0.2525 -0.3521 -0.7450
  488MOL0     C64289   0.123   5.000   3.289  0.4422 -0.5199 -0.7815
  488MOL0     C64290   0.020   4.993   3.389 -0.4907 -0.2906  0.7341
  488MOL0     C64291   0.036   5.050   3.509 -0.9907  0.0554 -0.9447
  488MOL0     O64292  -0.065   5.042   3.596 -0.3556 -0.1681  0.2072
  488MOL0     C64293  -0.200   5.104   3.564 -0.6280  0.3704  0.1569
  488MOL0     C64294  -0.292   5.167   3.670  0.1082 -0.3391 -0.1768
  488MOL0     C64295  -0.308   5.078   3.800 -0.0883  0.3874 -0.3384
  488MOL0     C64296  -0.368   5.160   3.925  0.2964  0.6268 -0.3829
  488MOL0     C64297  -0.408   5.079   4.041 -0.3427  0.2202  0.3543
  488MOL0     C64298  -0.286   4.985   4.079  0.1002 -0.2982 -0.0701
  488MOL0     C64299  -0.323   4.909   4.206 -0.3386 -0.1300  0.3822
  488MOL0     C64300  -0.210   4.815   4.251 -0.6004  0.6900 -0.5678
  488MOL0     N64301  -0.242   4.740   4.374 -0.1634 -0.6538  0.2650
  488MOL0     C64302  -0.244   4.791   4.503 -0.2810 -0.1472  0.3316
  488MOL0     C64303  -0.304   4.703   4.584  1.1734 -0.0800 -1.2926
  488MOL0     C64304  -0.329   4.705   4.735 -0.0456 -0.1275  0.1796
  488MOL0     C64305  -0.476   4.694   4.763 -0.8343  0.1627 -0.0009
  488MOL0     C64306  -0.508   4.572   4.855  0.0083  0.5498  0.3458
  488MOL0     C64307  -0.648   4.520   4.834 -0.0297 -0.1213 -0.0527
  488MOL0     O64308  -0.735   4.631   4.863 -0.1833  0.3012 -0.1968
  488MOL0     C64309  -0.865   4.612   4.887 -0.5069  0.9294  0.7422
  488MOL0     C64310  -0.934   4.706   4.963 -0.7428  0.8365 -0.9333
  488MOL0     C64311  -1.072   4.706   4.987 -0.5393 -0.0786  0.3675
  488MOL0     C64312  -1.141   4.592   4.936 -0.6864  0.3499 -0.0719
  488MOL0     C64313  -1.286   4.578   4.971  1.1735  0.0046  0.0032
  488MOL0     O64314  -1.359   4.478   4.907  0.1222  0.9712 -0.0954
  488MOL0     C64315  -1.476   4.446   4.970  0.5261  0.1997 -1.3545
  488MOL0     C64316  -1.481   4.376   5.096 -0.8187  0.8223  1.0993
  488MOL0     C64317  -1.602   4.340   5.149  0.6927  0.0690 -0.1349
  488MOL0     C64318  -1.718   4.356   5.075  0.0941  0.4670  0.2227
  488MOL0     O64319  -1.825   4.294   5.125 -0.3680  0.0998 -0.0243
  488MOL0     C64320  -1.936   4.376   5.129 -0.0340 -0.1481 -0.6051
  488MOL0     C64321  -2.061   4.312   5.065 -0.4335 -0.7294  0.3472
  488MOL0     C64322  -2.111   4.187   5.133  0.0929  0.9840  0.1400
  488MOL0     C64323  -2.227   4.124   5.049 -0.6950 -0.9965  0.1803
  488MOL0     C64324  -2.309   4.008   5.108 -0.1886 -0.3309  0.6231
  488MOL0     C64325  -2.408   3.939   5.019  0.1485  0.0480  1.0276
  488MOL0     C64326  -2.461   3.814   5.088 -1.0770 -0.1263  0.0026
  488MOL0     C64327  -2.551   3.731   4.998  0.2956 -0.4469 -0.0333
  488MOL0    Cl64328  -2.709   3.798   4.952 -0.2573  0.5062 -0.1015
  488MOL0     C64329  -1.708   4.422   4.958 -0.2148 -0.3154  0.0842
  488MOL0     C64330  -1.595   4.474   4.903  0.3810 -0.7250 -0.1261
  488MOL0     O64331  -1.328   4.643   5.071 -0.2012  0.2086  0.5942
  488MOL0     C64332  -1.082   4.512   4.838  0.2238  0.3031  0.1196
  488MOL0     C64333  -0.942   4.514   4.822  0.2006 -0.0127 -0.2550
  488MOL0     N64334  -0.365   4.607   4.493 -0.1737  0.4699 -0.5980
  488MOL0     N64335  -0.337   4.633   4.365  0.5110  0.3543 -0.3384
  488MOL0     C64336   0.167   5.083   3.552 -0.3426 -0.4753 -0.1583
  488MOL0     C64337   0.265   5.101   3.457 -1.1745  0.5022 -0.3627
  488MOL0     C64338   0.413   5.128   2.999 -0.8322  0.7307  0.0731
  488MOL0     C64339   0.406   5.182   2.870 -0.3940  0.1773  0.1463
  488MOL0     C64340   0.502   5.146   2.768 -0.2664  0.0588 -0.5876
  488MOL0     C64341   0.604   5.054   2.787  0.4886 -1.1325 -0.2500
  488MOL0     O64342   0.702   5.023   2.691  0.7670  0.3583  0.6540
  488MOL0     C64343   0.752   5.134   2.625  0.8416 -0.5364  0.4871
  488MOL0     C64344   0.883   5.098   2.558  0.3200  0.2955 -0.1112
  488MOL0     C64345   0.856   5.055   2.410  0.7602 -0.2739  0.8298
  488MOL0     C64346   0.992   5.012   2.351  0.5313  0.3841  0.4200
  488MOL0     C64347   1.103   5.111   2.364 -0.1214 -0.4041  0.1410
  488MOL0     C64348   1.208   5.175   2.372  1.0361  0.4363  0.3655
  488MOL0     C64349   0.607   4.999   2.916 -0.1419  0.2838 -0.3149
  488MOL0     C64350   0.523   5.041   3.020 -0.2339 -0.2863 -0.5074
  488MOL0     H64351   0.115   4.963   3.187  1.2943  1.1651 -1.4948
  488MOL0     H64352  -0.079   4.950   3.372 -0.9686 -0.1319  2.9087
  488MOL0     H64353  -0.262   5.027   3.518  0.3460 -0.2405 -0.1599
  488MOL0     H64354  -0.188   5.177   3.484 -0.4520 -1.0335 -1.1316
  488MOL0     H64355  -0.389   5.196   3.628  0.7715 -1.0683 -2.3082
  488MOL0     H64356  -0.250   5.261   3.708 -2.2460  0.5485  0.4691
  488MOL0     H64357  -0.219   5.018   3.822 -2.0114 -2.9664 -0.9529
  488MOL0     H64358  -0.386   5.007   3.772  0.1741  0.1783 -0.5440
  488MOL0     H64359  -0.289   5.229   3.956  2.0223 -1.1096 -0.7393
  488MOL0     H64360  -0.449   5.216   3.878 -0.8256 -1.4255 -1.0311
  488MOL0     H64361  -0.495   5.017   4.018  1.4897 -3.6193  2.7597
  488MOL0     H64362  -0.428   5.139   4.130  4.1687 -0.2801  1.9390
  488MOL0     H64363  -0.194   5.044   4.090  1.0742 -1.9631  1.0127
  488MOL0     H64364  -0.271   4.909   4.002 -2.2265 -0.5553 -0.3351
  488MOL0     H64365  -0.350   4.979   4.286  1.2777 -1.2034  1.9497
  488MOL0     H64366  -0.412   4.854   4.175  1.7907 -2.8336 -1.4722
  488MOL0     H64367  -0.123   4.874   4.282  0.7397 -1.2496 -0.4241
  488MOL0     H64368  -0.179   4.738   4.179 -0.5529  0.3143 -0.1512
  488MOL0     H64369  -0.190   4.878   4.536 -0.7194  1.0359 -1.8800
  488MOL0     H64370  -0.294   4.797   4.783  1.5428 -1.2348  1.2532
  488MOL0     H64371  -0.276   4.623   4.784  2.5773  1.7042  0.6330
  488MOL0     H64372  -0.516   4.672   4.664 -0.5791  0.5119 -0.1872
  488MOL0     H64373  -0.518   4.790   4.795 -1.7269 -0.2860  0.1918
  488MOL0     H64374  -0.446   4.487   4.824  1.4374  1.7177 -0.1514
  488MOL0     H64375  -0.491   4.607   4.957  2.4319 -1.0351  0.5732
  488MOL0     H64376  -0.683   4.434   4.891 -0.8335 -1.3670 -2.3064
  488MOL0     H64377  -0.664   4.488   4.731 -2.7841 -1.0144  0.5544
  488MOL0     H64378  -0.873   4.785   5.006 -0.7638 -0.7333  2.1637
  488MOL0     H64379  -1.121   4.778   5.052  1.8146 -1.5488  4.1467
  488MOL0     H64380  -1.385   4.355   5.142  0.2584  2.0763 -0.4807
  488MOL0     H64381  -1.610   4.293   5.246  0.5511  1.4484  0.5436
  488MOL0     H64382  -1.917   4.472   5.081  1.9600  0.2431  0.8047
  488MOL0     H64383  -1.960   4.385   5.235 -0.0766  2.0701 -0.7687
  488MOL0     H64384  -2.047   4.302   4.957 -1.7088  0.6801  0.0177
  488MOL0     H64385  -2.132   4.393   5.086  0.8982 -0.5776  5.8517
  488MOL0     H64386  -2.149   4.223   5.230 -0.0868  2.4063 -0.4394
  488MOL0     H64387  -2.026   4.119   5.137  0.2490  0.9730 -2.1699
  488MOL0     H64388  -2.296   4.204   5.020 -1.8511 -2.8441 -2.5160
  488MOL0     H64389  -2.194   4.076   4.957 -1.5820 -1.6778  0.2110
  488MOL0     H64390  -2.359   4.052   5.195 -2.5042  0.0474 -0.8213
  488MOL0     H64391  -2.235   3.935   5.142  3.1962  2.6688  0.2548
  488MOL0     H64392  -2.358   3.900   4.930 -2.0366 -2.3162  0.7064
  488MOL0     H64393  -2.486   4.013   4.996 -0.9230 -1.7505 -1.6879
  488MOL0     H64394  -2.380   3.755   5.130  1.1571  2.4696 -0.3661
  488MOL0     H64395  -2.528   3.835   5.172  1.1195  2.5295  1.2442
  488MOL0     H64396  -2.569   3.633   5.044 -1.0807 -0.2254 -0.0555
  488MOL0     H64397  -2.499   3.698   4.907 -0.7219  0.9715 -1.1805
  488MOL0     H64398  -1.797   4.421   4.896 -0.9704  0.6729  1.0943
  488MOL0     H64399  -1.598   4.512   4.801  1.9243 -2.8628 -1.0507
  488MOL0     H64400  -1.138   4.443   4.775  0.8804 -0.9320  0.8388
  488MOL0     H64401  -0.888   4.451   4.752  1.2505  1.7561 -1.1106
  488MOL0     H64402   0.191   5.124   3.650  1.0369  0.5058 -0.8728
  488MOL0     H64403   0.369   5.128   3.472 -0.8129 -0.9713 -0.0696
  488MOL0     H64404   0.325   5.246   2.836 -1.1264 -0.4026  0.7501
  488MOL0     H64405   0.489   5.188   2.669  1.5558 -0.7877 -1.2438
  488MOL0     H64406   0.765   5.214   2.698 -0.1579 -2.8674  3.4405
  488MOL0     H64407   0.682   5.163   2.546 -0.6727 -2.6590  0.9427
  488MOL0     H64408   0.953   5.182   2.553  0.7577  0.2128  2.7407
  488MOL0     H64409   0.930   5.020   2.619 -0.6041  1.3732  2.0715
  488MOL0     H64410   0.810   5.137   2.354  0.9121 -2.1914 -2.3161
  488MOL0     H64411   0.789   4.969   2.418  1.2788 -0.6602  1.1216
  488MOL0     H64412   1.018   4.914   2.393  1.2029  0.6021  0.5381
  488MOL0     H64413   0.971   4.994   2.245 -1.9219  3.9981  0.1181
  488MOL0     H64414   1.298   5.230   2.355 -0.6661  2.8202 -1.6146
  488MOL0     H64415   0.682   4.929   2.951  0.8889  0.2943 -2.3695
  488MOL0     H64416   0.556   4.998   3.115  2.5119  0.3979 -1.0581
  489MOL0     O64417   0.598  10.604   8.815 -0.2967  0.6687  0.6780
  489MOL0     C64418   0.679  10.583   8.725  0.3209 -0.1666  0.4155
  489MOL0     O64419   0.656  10.555   8.586 -0.4884 -0.3930 -0.6135
  489MOL0     C64420   0.527  10.515   8.553  0.7000 -0.2707  0.5277
  489MOL0     C64421   0.468  10.547   8.434 -0.2963  1.0488  0.1252
  489MOL0     C64422   0.334  10.517   8.401 -0.3573  0.6219  0.8510
  489MOL0     C64423   0.249  10.450   8.486  0.8509 -0.0899 -0.7538
  489MOL0     O64424   0.126  10.412   8.439  0.6656 -0.1365  0.1127
  489MOL0     C64425   0.034  10.398   8.543  0.2730  0.2068  0.8463
  489MOL0     C64426  -0.093  10.467   8.504  0.1913 -0.0931  0.4221
  489MOL0     C64427  -0.163  10.537   8.624  0.5915  0.0517  0.1216
  489MOL0     C64428  -0.289  10.617   8.602  0.6056 -0.3012 -0.0252
  489MOL0     C64429  -0.398  10.538   8.532 -0.6747 -0.3109 -0.2566
  489MOL0     C64430  -0.537  10.577   8.583  1.3461 -0.0265 -0.3010
  489MOL0     C64431  -0.643  10.498   8.504  0.0807 -0.0179 -0.7395
  489MOL0     C64432  -0.781  10.529   8.556  0.9206 -0.4003 -0.7809
  489MOL0     N64433  -0.877  10.416   8.547 -0.8918  0.6521  0.7493
  489MOL0     C64434  -0.896  10.327   8.449  0.4574 -0.3486  0.2575
  489MOL0     C64435  -1.006  10.249   8.485  0.2743 -0.4258 -0.0021
  489MOL0     C64436  -1.055  10.137   8.407 -0.3028  0.4475 -0.0496
  489MOL0     C64437  -1.189  10.166   8.330  1.0562  0.6940 -0.0178
  489MOL0     C64438  -1.239  10.041   8.259 -0.1547  0.5171 -0.0048
  489MOL0     C64439  -1.373  10.052   8.196 -0.5313 -0.7196 -0.1710
  489MOL0     O64440  -1.460  10.110   8.293  0.3855  0.0427  0.1867
  489MOL0     C64441  -1.593  10.112   8.277 -0.2493 -0.7598 -0.1632
  489MOL0     C64442  -1.661  10.175   8.377  0.6437 -0.1970  0.0374
  489MOL0     C64443  -1.802  10.189   8.378 -0.0718 -0.5389  0.7216
  489MOL0     C64444  -1.881  10.142   8.272 -0.8480  0.5106 -0.5120
  489MOL0     C64445  -2.030  10.158   8.277 -1.2574  0.0881  0.0983
  489MOL0     O64446  -2.092  10.213   8.391  0.0498 -0.5549  0.6033
  489MOL0     C64447  -2.229  10.199   8.404  0.9510  0.3179  0.4737
  489MOL0     C64448  -2.302  10.313   8.453 -0.1749  1.1144 -0.1606
  489MOL0     C64449  -2.453  10.306   8.455  0.8985  0.2976  0.1119
  489MOL0     C64450  -2.519  10.197   8.419  0.4438  0.4236 -0.2123
  489MOL0     O64451  -2.652  10.172   8.430 -0.5537  0.0484  0.5901
  489MOL0     C64452  -2.749  10.277   8.429  0.6617  0.0247  1.4011
  489MOL0     C64453  -2.882  10.247   8.364  0.4042 -0.8266  0.1372
  489MOL0     C64454  -2.863  10.177   8.223 -0.0343  0.1438  0.7488
  489MOL0     C64455  -3.006  10.165   8.151 -0.2302  0.0147 -0.0181
  489MOL0     C64456  -2.999  10.118   8.005 -0.5583  0.2822 -0.3702
  489MOL0     C64457  -2.945  10.227   7.911  0.6045  0.3663  0.0844
  489MOL0     C64458  -2.954  10.190   7.764 -0.2846 -0.0724 -0.1341
  489MOL0     C64459  -2.933  10.314   7.667 -0.5582  0.9891  0.1123
  489MOL0    Cl64460  -2.811  10.437   7.739 -0.4107  0.2113  0.1503
  489MOL0     C64461  -2.445  10.086   8.386 -0.6888  1.2271  1.0432
  489MOL0     C64462  -2.307  10.086   8.370 -0.5171 -0.5813 -0.5846
  489MOL0     O64463  -2.088  10.120   8.175  0.1564 -0.2896 -1.0127
  489MOL0     C64464  -1.811  10.079   8.166  0.1352  0.3270  0.5193
  489MOL0     C64465  -1.666  10.064   8.167  0.1513 -0.5651  0.8046
  489MOL0     N64466  -1.045  10.285   8.613 -0.1695 -0.4497 -1.1170
  489MOL0     N64467  -0.969  10.380   8.643 -0.0837  0.6379  0.3619
  489MOL0     C64468   0.314  10.404   8.605 -0.1921  0.0559 -1.7741
  489MOL0     C64469   0.438  10.447   8.634 -0.1638  0.2412  0.1844
  489MOL0     C64470   0.823  10.603   8.772  0.1459  1.3356 -0.4017
  489MOL0     C64471   0.875  10.677   8.875  0.3262 -0.7072 -0.3093
  489MOL0     C64472   1.008  10.674   8.908 -0.9747 -0.1252  0.3367
  489MOL0     C64473   1.093  10.599   8.830  0.9162  0.4254 -0.6643
  489MOL0     O64474   1.220  10.600   8.880  0.2428 -0.3365 -0.2706
  489MOL0     C64475   1.330  10.601   8.780 -0.0208  0.4445 -0.0780
  489MOL0     C64476   1.343  10.729   8.698 -0.7073 -0.5000  1.1673
  489MOL0     C64477   1.327  10.858   8.773  0.2434 -0.7486 -0.1497
  489MOL0     C64478   1.259  10.963   8.686 -0.3746  0.0474  0.0424
  489MOL0     C64479   1.362  10.995   8.578  0.3076 -0.0609  0.4222
  489MOL0     C64480   1.439  11.024   8.485 -0.3051  0.1507 -0.2168
  489MOL0     C64481   1.048  10.542   8.716 -0.4111  0.0526  0.5337
  489MOL0     C64482   0.916  10.542   8.686  0.7180  0.1292  0.3596
  489MOL0     H64483   0.532  10.604   8.367 -0.5473  4.4497  2.5104
  489MOL0     H64484   0.294  10.532   8.300  0.6945  1.9170  0.5932
  489MOL0     H64485   0.064  10.428   8.644 -0.9339  1.0116  0.9889
  489MOL0     H64486   0.016  10.290   8.547 -5.3210  0.5637 -2.9693
  489MOL0     H64487  -0.154  10.394   8.450  1.8370 -0.6248 -0.8216
  489MOL0     H64488  -0.069  10.546   8.432 -0.8423  0.9251  1.1543
  489MOL0     H64489  -0.103  10.612   8.675  0.6402  1.3209 -1.7184
  489MOL0     H64490  -0.196  10.461   8.696  2.5263 -0.0754  0.9198
  489MOL0     H64491  -0.334  10.649   8.697 -0.6259  0.9209 -0.9900
  489MOL0     H64492  -0.281  10.711   8.547 -2.5834  1.0776  1.5921
  489MOL0     H64493  -0.374  10.433   8.553  0.7955  0.0238 -0.1134
  489MOL0     H64494  -0.393  10.568   8.427  1.4546  2.2778  0.4720
  489MOL0     H64495  -0.564  10.683   8.579  1.2360 -0.0396  0.1136
  489MOL0     H64496  -0.543  10.541   8.686 -1.2249  1.0745  0.0112
  489MOL0     H64497  -0.635  10.520   8.397  0.5865 -0.1776 -0.7360
  489MOL0     H64498  -0.631  10.389   8.510  2.6126  0.1105 -2.1247
  489MOL0     H64499  -0.814  10.622   8.509  1.9522  1.2447  1.5544
  489MOL0     H64500  -0.771  10.549   8.663  2.8416  0.1665 -1.0333
  489MOL0     H64501  -0.842  10.315   8.356 -1.6727 -1.2848 -0.9259
  489MOL0     H64502  -1.081  10.067   8.486  2.2207  2.1809  2.5552
  489MOL0     H64503  -0.979  10.096   8.340 -0.3255 -1.4257  1.0106
  489MOL0     H64504  -1.169  10.243   8.255  1.9814 -0.4562 -0.9860
  489MOL0     H64505  -1.260  10.205   8.403 -0.3557  4.0180 -2.8724
  489MOL0     H64506  -1.165  10.011   8.185  1.8535 -2.2663  2.8755
  489MOL0     H64507  -1.239   9.964   8.336 -2.1189  1.4990  1.0477
  489MOL0     H64508  -1.406   9.954   8.162 -0.6371 -0.3489 -1.1816
  489MOL0     H64509  -1.360  10.120   8.110 -0.4429  0.7124  0.9360
  489MOL0     H64510  -1.606  10.203   8.465  0.2915  1.8779 -0.3523
  489MOL0     H64511  -1.857  10.239   8.457  0.1909  3.3584 -1.3250
  489MOL0     H64512  -2.249  10.399   8.492  1.6524 -0.0468  0.0489
  489MOL0     H64513  -2.523  10.382   8.489  1.5921  1.2247 -0.4860
  489MOL0     H64514  -2.712  10.358   8.365 -0.5410 -1.9941 -2.1044
  489MOL0     H64515  -2.776  10.301   8.532 -1.9078  2.1075  0.3624
  489MOL0     H64516  -2.928  10.344   8.345  1.7636 -0.2559 -0.3094
  489MOL0     H64517  -2.943  10.180   8.427  1.5706  1.2738  3.7860
  489MOL0     H64518  -2.826  10.074   8.233  1.3494  0.6587  1.2328
  489MOL0     H64519  -2.793  10.233   8.160 -0.7942  1.0907  0.7331
  489MOL0     H64520  -3.047  10.090   8.219 -0.4722 -0.0602 -0.2472
  489MOL0     H64521  -3.074  10.250   8.161 -0.3711  0.0165 -0.9330
  489MOL0     H64522  -3.094  10.078   7.970 -0.6745  1.0801 -0.9852
  489MOL0     H64523  -2.931  10.032   8.013 -2.5801 -1.1935  4.0114
  489MOL0     H64524  -2.842  10.253   7.937  1.7577 -2.1707 -1.5226
  489MOL0     H64525  -2.997  10.321   7.928  0.9295  0.4316  0.7373
  489MOL0     H64526  -2.898  10.101   7.734 -0.7254  0.6683 -3.6283
  489MOL0     H64527  -3.057  10.162   7.743 -0.2691 -0.9216  0.8701
  489MOL0     H64528  -3.027  10.359   7.636 -0.3340  0.0878 -2.0263
  489MOL0     H64529  -2.889  10.273   7.576 -1.0826  0.4025  0.1158
  489MOL0     H64530  -2.495   9.991   8.372  0.0028  0.8491  1.1490
  489MOL0     H64531  -2.264   9.995   8.328 -0.3478 -0.3722 -0.8679
  489MOL0     H64532  -1.869  10.045   8.081 -0.8095  0.3377  1.1478
  489MOL0     H64533  -1.614  10.038   8.075  0.7122  6.1095 -1.3543
  489MOL0     H64534   0.278  10.335   8.680  0.9527 -2.8750 -3.7261
  489MOL0     H64535   0.470  10.416   8.733  0.7811 -0.8440 -0.4437
  489MOL0     H64536   0.802  10.721   8.942  0.2924 -2.9650  1.2439
  489MOL0     H64537   1.062  10.724   8.987  0.9831  0.4450 -1.2891
  489MOL0     H64538   1.328  10.515   8.712  1.2026 -0.9659  1.5830
  489MOL0     H64539   1.425  10.590   8.833  2.1277  2.5280 -3.0955
  489MOL0     H64540   1.438  10.731   8.643 -2.1736  0.8471 -1.5168
  489MOL0     H64541   1.274  10.715   8.614 -1.0184  3.9732  0.4433
  489MOL0     H64542   1.424  10.894   8.809  0.5684 -0.6378 -1.0894
  489MOL0     H64543   1.261  10.840   8.858 -1.3500  2.1748 -0.6518
  489MOL0     H64544   1.166  10.925   8.642 -0.2210  0.5780 -0.7575
  489MOL0     H64545   1.241  11.047   8.755  2.3023  0.6398  0.1084
  489MOL0     H64546   1.502  11.035   8.399 -0.8257  0.3064 -0.5823
  489MOL0     H64547   1.114  10.501   8.640  0.5961 -0.3535  1.5859
  489MOL0     H64548   0.884  10.501   8.591  1.5784  1.4014 -0.5139
  490MOL0     O64549   5.663   6.299   8.680  0.5218 -0.4537  0.1466
  490MOL0     C64550   5.580   6.301   8.585  0.2480  0.3761  0.3447
  490MOL0     O64551   5.610   6.309   8.454  0.2779  0.9709  0.7278
  490MOL0     C64552   5.744   6.313   8.431  0.4136  0.8188  0.0665
  490MOL0     C64553   5.773   6.421   8.347 -0.7844  0.8647  0.1985
  490MOL0     C64554   5.900   6.429   8.295 -2.1614  0.1938 -0.3715
  490MOL0     C64555   5.995   6.331   8.326  0.3771 -0.6074  0.0506
  490MOL0     O64556   6.120   6.327   8.270  0.5903 -0.3088 -0.7208
  490MOL0     C64557   6.139   6.223   8.176 -0.2879 -0.4512 -0.0459
  490MOL0     C64558   6.156   6.289   8.038 -0.2107  0.4344 -0.7031
  490MOL0     C64559   6.278   6.362   8.004 -0.1063  0.1128 -0.8410
  490MOL0     C64560   6.407   6.266   8.006  0.3773  0.0079  0.4672
  490MOL0     C64561   6.523   6.339   7.951 -0.4075 -0.0423  0.4332
  490MOL0     C64562   6.653   6.269   7.968 -0.2243  1.5440 -0.4561
  490MOL0     C64563   6.762   6.321   7.881 -0.3921  0.2958 -0.1708
  490MOL0     C64564   6.888   6.241   7.926 -0.8052  0.0992 -0.4587
  490MOL0     N64565   7.005   6.303   7.872  1.0854  0.1576  0.3553
  490MOL0     C64566   7.085   6.403   7.937  0.8178 -0.2569 -0.2497
  490MOL0     C64567   7.192   6.425   7.860  0.6296 -0.1494  0.4431
  490MOL0     C64568   7.288   6.531   7.887  0.4731  0.3385  0.0818
  490MOL0     C64569   7.247   6.677   7.879 -0.5506 -0.2780  0.3791
  490MOL0     C64570   7.232   6.745   7.731  0.4403  0.8599  0.0022
  490MOL0     C64571   7.379   6.761   7.679 -1.2659  0.5688  0.5537
  490MOL0     O64572   7.371   6.820   7.547  0.5021 -0.6674  0.3027
  490MOL0     C64573   7.429   6.937   7.522  0.1743  0.4568 -0.3935
  490MOL0     C64574   7.351   7.050   7.516  0.3921 -0.4249 -0.3112
  490MOL0     C64575   7.413   7.177   7.503  0.2332  0.4664  0.2711
  490MOL0     C64576   7.551   7.195   7.489 -0.0446  0.3549  0.6615
  490MOL0     C64577   7.626   7.322   7.471  0.3426  0.9793 -0.7838
  490MOL0     O64578   7.564   7.418   7.548 -0.7530  0.3006 -0.0486
  490MOL0     C64579   7.632   7.539   7.551 -0.7092  0.1481 -0.4550
  490MOL0     C64580   7.730   7.572   7.648 -0.1043 -0.4459 -0.1343
  490MOL0     C64581   7.808   7.689   7.637  0.4735 -0.8879  0.7548
  490MOL0     C64582   7.781   7.794   7.535 -0.5549  0.8744 -0.0865
  490MOL0     O64583   7.855   7.908   7.518 -0.3892  0.5115 -0.2361
  490MOL0     C64584   7.826   8.003   7.414 -0.1715  0.4254  0.1800
  490MOL0     C64585   7.945   8.096   7.404  0.0187 -1.5617  0.4112
  490MOL0     C64586   8.076   8.018   7.393 -0.1045  0.1380 -0.2264
  490MOL0     C64587   8.191   8.111   7.395 -0.1386 -0.3794  0.0031
  490MOL0     C64588   8.322   8.039   7.348 -0.5716 -0.7508  0.2725
  490MOL0     C64589   8.410   8.122   7.257 -0.0452  0.2872  0.0220
  490MOL0     C64590   8.486   8.231   7.331  0.5916  0.2641  0.7576
  490MOL0     C64591   8.574   8.316   7.238  0.5199  0.8821  0.2552
  490MOL0    Cl64592   8.662   8.433   7.341 -0.2194  0.5007  0.0199
  490MOL0     C64593   7.673   7.760   7.449  0.4633  0.5890 -0.5008
  490MOL0     C64594   7.604   7.638   7.457 -0.0190  1.0869  0.6075
  490MOL0     O64595   7.723   7.338   7.403 -0.4991 -0.2168 -0.4189
  490MOL0     C64596   7.626   7.077   7.481 -0.1100  1.0985 -0.6981
  490MOL0     C64597   7.568   6.947   7.500 -0.3558  0.0029  0.4558
  490MOL0     N64598   7.191   6.335   7.758 -0.3636 -0.1919  0.2729
  490MOL0     N64599   7.080   6.263   7.770 -0.1423  0.0350 -0.1361
  490MOL0     C64600   5.958   6.223   8.407  0.3362 -0.7350 -0.6518
  490MOL0     C64601   5.827   6.208   8.459  0.7672 -0.1203 -0.1140
  490MOL0     C64602   5.436   6.277   8.605 -0.0379  0.1650  0.4693
  490MOL0     C64603   5.351   6.287   8.495  0.3649 -0.3019  0.3352
  490MOL0     C64604   5.215   6.294   8.521  0.5174 -1.1055  0.0698
  490MOL0     C64605   5.161   6.265   8.639  0.2318  0.7186 -0.2255
  490MOL0     O64606   5.022   6.273   8.651 -0.1885 -0.1412  0.6071
  490MOL0     C64607   4.970   6.152   8.703  0.7518 -0.0685  0.3162
  490MOL0     C64608   4.916   6.064   8.589  0.5027 -0.0130  0.3806
  490MOL0     C64609   4.808   5.952   8.627 -0.2957  0.0351 -0.0981
  490MOL0     C64610   4.886   5.837   8.696  0.0590  0.7171  0.0302
  490MOL0     C64611   4.796   5.730   8.746  0.1593 -0.0332 -0.9773
  490MOL0     C64612   4.729   5.651   8.798 -0.1138  1.1743 -0.1782
  490MOL0     C64613   5.250   6.230   8.744  0.1149  0.4191  0.8593
  490MOL0     C64614   5.389   6.249   8.728 -0.7486 -0.0573  0.7549
  490MOL0     H64615   5.699   6.494   8.317  0.5523  3.0077  1.7729
  490MOL0     H64616   5.928   6.509   8.226  1.7634  0.3533  1.1925
  490MOL0     H64617   6.062   6.146   8.175 -0.5822 -0.1676  0.5685
  490MOL0     H64618   6.229   6.166   8.202  0.7555 -0.4107 -3.1462
  490MOL0     H64619   6.079   6.367   8.034  3.2630  4.3059  0.8766
  490MOL0     H64620   6.129   6.211   7.966 -0.7570 -0.9389  0.9098
  490MOL0     H64621   6.293   6.439   8.080 -2.0100  1.1148 -1.4377
  490MOL0     H64622   6.265   6.407   7.906 -1.2594 -3.2435 -2.3970
  490MOL0     H64623   6.428   6.226   8.106 -0.1617 -0.9832  0.1972
  490MOL0     H64624   6.385   6.175   7.949 -1.7781  3.0242 -4.0605
  490MOL0     H64625   6.525   6.429   8.014 -0.6574 -2.9506  5.1058
  490MOL0     H64626   6.502   6.365   7.847 -0.3489 -2.2241 -0.1776
  490MOL0     H64627   6.653   6.162   7.946  0.3892  1.2281  0.9548
  490MOL0     H64628   6.682   6.287   8.072  2.7748  1.0595 -1.1218
  490MOL0     H64629   6.739   6.307   7.775 -2.1917 -0.3088  0.2531
  490MOL0     H64630   6.771   6.426   7.910 -0.8741  0.3004 -0.0307
  490MOL0     H64631   6.865   6.137   7.901  0.6624 -0.9150  2.0057
  490MOL0     H64632   6.909   6.238   8.034  0.0806  2.1870 -0.5188
  490MOL0     H64633   7.059   6.462   8.024  1.9428  0.7656 -0.5864
  490MOL0     H64634   7.372   6.516   7.819 -0.3009 -0.0509 -0.8160
  490MOL0     H64635   7.317   6.521   7.992 -0.2738  0.3505  0.2931
  490MOL0     H64636   7.322   6.731   7.938 -3.2058  5.3384 -0.6951
  490MOL0     H64637   7.157   6.698   7.937  1.0938  1.6602  2.4197
  490MOL0     H64638   7.172   6.671   7.677  0.1182 -1.7263  3.5125
  490MOL0     H64639   7.170   6.835   7.731  0.1142  0.7285  2.7359
  490MOL0     H64640   7.428   6.664   7.674 -0.4672  0.9792  0.3308
  490MOL0     H64641   7.444   6.819   7.744  1.3083 -0.9350 -0.5291
  490MOL0     H64642   7.243   7.044   7.518  0.4349 -1.2404  0.0990
  490MOL0     H64643   7.347   7.264   7.503 -1.3796 -0.7023 -0.3970
  490MOL0     H64644   7.753   7.494   7.720  0.4301 -0.4996 -0.3584
  490MOL0     H64645   7.889   7.713   7.705  1.1757 -0.5874 -0.1624
  490MOL0     H64646   7.745   8.072   7.440  1.7406  1.9176  2.5452
  490MOL0     H64647   7.827   7.945   7.321  1.1250  1.8254 -0.7338
  490MOL0     H64648   7.948   8.164   7.490  0.2122  0.1475 -0.8688
  490MOL0     H64649   7.924   8.160   7.318 -2.3723  0.4028  2.2913
  490MOL0     H64650   8.067   7.946   7.311 -3.9611 -0.0736  0.2018
  490MOL0     H64651   8.082   7.949   7.477 -0.0686 -0.9824 -1.1204
  490MOL0     H64652   8.175   8.189   7.320 -0.1297 -0.4558 -0.0796
  490MOL0     H64653   8.199   8.154   7.495 -2.4781 -3.0861  1.5177
  490MOL0     H64654   8.278   7.957   7.291 -0.2708 -0.3841 -0.5006
  490MOL0     H64655   8.378   8.001   7.435  4.1052  3.0605 -0.6140
  490MOL0     H64656   8.346   8.167   7.181  0.3451 -0.1680 -0.5896
  490MOL0     H64657   8.487   8.059   7.210  0.5514  4.3633 -5.4669
  490MOL0     H64658   8.418   8.292   7.391  1.4734  1.2762  0.7728
  490MOL0     H64659   8.558   8.173   7.392 -0.5556 -2.2372 -0.1304
  490MOL0     H64660   8.518   8.373   7.163  0.3607  1.3359  0.7194
  490MOL0     H64661   8.653   8.261   7.186  0.7391  2.1140 -0.7673
  490MOL0     H64662   7.646   7.838   7.378 -3.6608 -0.1144  0.0376
  490MOL0     H64663   7.523   7.632   7.386 -0.8301  4.3198  1.0970
  490MOL0     H64664   7.733   7.085   7.466 -0.0808  0.1560 -1.0462
  490MOL0     H64665   7.622   6.853   7.506 -0.2938 -0.4849 -4.1084
  490MOL0     H64666   6.029   6.145   8.429  1.5842  1.2050  2.9149
  490MOL0     H64667   5.789   6.114   8.499  2.5793 -0.8886 -0.1088
  490MOL0     H64668   5.388   6.306   8.395  2.9233 -1.8317  0.8919
  490MOL0     H64669   5.140   6.318   8.446 -0.3433 -2.2757  0.5219
  490MOL0     H64670   4.892   6.178   8.775  0.4126  2.7906 -0.9285
  490MOL0     H64671   5.040   6.089   8.760  1.0795  0.8479  0.9619
  490MOL0     H64672   4.860   6.124   8.517  0.1929 -2.1994 -1.3096
  490MOL0     H64673   4.998   6.013   8.537  0.2335 -0.6096  0.5278
  490MOL0     H64674   4.762   5.913   8.535  0.9442  0.1519 -0.7981
  490MOL0     H64675   4.733   5.997   8.691  1.4382  2.1287  0.5706
  490MOL0     H64676   4.964   5.792   8.634 -0.9650  1.4397 -1.8564
  490MOL0     H64677   4.955   5.874   8.772  0.0777 -0.7771  0.7755
  490MOL0     H64678   4.671   5.575   8.846  1.0159 -0.3809 -1.1445
  490MOL0     H64679   5.219   6.173   8.830  0.5875 -1.5441 -0.2185
  490MOL0     H64680   5.456   6.234   8.812  2.7305  1.9782 -1.4109
  491MOL0     O64681   1.879   2.665   0.480  0.2069 -0.5349  0.0176
  491MOL0     C64682   1.983   2.608   0.503  0.4768  0.4672 -0.9436
  491MOL0     O64683   2.004   2.485   0.562 -0.4710  0.0203  0.7629
  491MOL0     C64684   1.899   2.407   0.565  0.5578 -0.1438  0.8051
  491MOL0     C64685   1.849   2.380   0.694 -0.1757  0.3465 -0.3224
  491MOL0     C64686   1.746   2.286   0.707 -0.4945 -0.3441 -0.2521
  491MOL0     C64687   1.688   2.229   0.595  0.8756 -1.3732  0.2294
  491MOL0     O64688   1.586   2.146   0.630  0.4647 -0.1576  0.0192
  491MOL0     C64689   1.564   2.031   0.543  0.7370  0.1606  0.2680
  491MOL0     C64690   1.424   2.056   0.477 -0.1210 -0.1138 -1.0330
  491MOL0     C64691   1.321   1.982   0.554  0.5382 -1.0383  0.0997
  491MOL0     C64692   1.193   1.973   0.472 -0.0274  0.1598  0.1553
  491MOL0     C64693   1.080   1.914   0.546  0.6186 -0.3143 -0.3849
  491MOL0     C64694   0.958   1.910   0.459 -0.3766  0.5837  0.1603
  491MOL0     C64695   0.830   1.843   0.525  0.8942 -0.3898  1.2897
  491MOL0     C64696   0.820   1.697   0.550 -0.3302 -0.4459  0.0027
  491MOL0     N64697   0.849   1.628   0.426  0.2711 -0.3626  1.2353
  491MOL0     C64698   0.951   1.535   0.399  0.0664  0.1057  0.0170
  491MOL0     C64699   0.926   1.472   0.283  0.9094 -0.3748  0.1461
  491MOL0     C64700   0.992   1.359   0.204 -0.1831  0.4283  0.2584
  491MOL0     C64701   1.137   1.392   0.188 -0.4996 -0.3062 -0.0680
  491MOL0     C64702   1.213   1.290   0.106  0.9255 -0.9092 -0.2482
  491MOL0     C64703   1.222   1.157   0.169  1.0899  0.4732  0.3849
  491MOL0     O64704   1.323   1.078   0.097 -0.1482  0.4708 -0.5052
  491MOL0     C64705   1.459   1.102   0.114 -0.7645  0.8695  0.0726
  491MOL0     C64706   1.513   1.205   0.194  0.2993  0.7804 -0.4256
  491MOL0     C64707   1.651   1.203   0.216  0.1069 -0.1389 -0.3502
  491MOL0     C64708   1.727   1.099   0.168  0.4897 -0.5564 -0.3617
  491MOL0     C64709   1.871   1.087   0.211  0.2230  0.1259  0.0253
  491MOL0     O64710   1.960   1.016   0.124 -0.5732  0.9705  0.5409
  491MOL0     C64711   2.092   1.015   0.164 -0.5253  0.1860  0.4697
  491MOL0     C64712   2.133   0.973   0.286  0.4560  0.1895 -0.3665
  491MOL0     C64713   2.264   0.996   0.332  0.0721 -0.4127 -0.1034
  491MOL0     C64714   2.354   1.072   0.251 -0.4663  0.2848  0.1164
  491MOL0     O64715   2.480   1.121   0.300  0.2668  0.8112 -0.4891
  491MOL0     C64716   2.530   1.227   0.234  0.4169  0.5524  0.0361
  491MOL0     C64717   2.659   1.271   0.305  0.4597  0.9576 -0.0370
  491MOL0     C64718   2.758   1.167   0.275  0.4085 -0.1165  0.0024
  491MOL0     C64719   2.880   1.184   0.361  0.0247  0.0166 -0.8828
  491MOL0     C64720   2.848   1.153   0.509  0.2251  0.4254  0.2342
  491MOL0     C64721   2.967   1.105   0.597  0.3660 -0.3696 -0.2847
  491MOL0     C64722   3.091   1.205   0.599  0.3293  0.4937  0.2182
  491MOL0     C64723   3.204   1.147   0.686 -0.3883 -0.0241  0.2749
  491MOL0    Cl64724   3.295   1.286   0.748  0.2595  0.1702 -0.3310
  491MOL0     C64725   2.303   1.116   0.124  0.6083 -0.1628 -0.8557
  491MOL0     C64726   2.176   1.095   0.084 -0.0212  0.7716 -0.2368
  491MOL0     O64727   1.893   1.109   0.331  0.0142 -0.5204 -0.1250
  491MOL0     C64728   1.677   0.987   0.092  0.7720  0.0132 -0.3078
  491MOL0     C64729   1.537   0.997   0.068 -0.0204  0.3202 -0.2271
  491MOL0     N64730   0.809   1.534   0.236 -0.0937  0.0599  0.7019
  491MOL0     N64731   0.761   1.622   0.315  0.7021  0.2490  0.3042
  491MOL0     C64732   1.735   2.259   0.465  0.2172 -0.3136 -0.0900
  491MOL0     C64733   1.838   2.354   0.446  0.2439 -0.4167 -0.1509
  491MOL0     C64734   2.107   2.678   0.455  0.2473  0.0595  0.3725
  491MOL0     C64735   2.101   2.808   0.403  0.1727 -0.0550  0.1565
  491MOL0     C64736   2.206   2.867   0.334 -0.7451  0.6744  0.3663
  491MOL0     C64737   2.326   2.799   0.297 -0.0191 -0.4723 -0.5893
  491MOL0     O64738   2.432   2.856   0.231 -0.3966  0.5602 -0.1949
  491MOL0     C64739   2.499   2.953   0.302 -0.0316 -0.1792 -0.2147
  491MOL0     C64740   2.648   2.957   0.251  0.0716  0.2740 -1.5986
  491MOL0     C64741   2.746   2.851   0.318  0.6326 -0.3228 -0.1165
  491MOL0     C64742   2.881   2.874   0.259 -0.8446 -0.3977  0.0458
  491MOL0     C64743   2.928   2.992   0.345  0.8820  1.0364 -0.4076
  491MOL0     C64744   2.937   3.087   0.422  0.1238 -0.4026  0.4483
  491MOL0     C64745   2.337   2.678   0.358  0.7271  0.2825 -0.7521
  491MOL0     C64746   2.235   2.614   0.438  0.5866 -0.1147 -0.8258
  491MOL0     H64747   1.900   2.407   0.786  0.0745 -3.0592  0.7056
  491MOL0     H64748   1.705   2.265   0.805 -3.7335 -0.4056 -1.5112
  491MOL0     H64749   1.554   1.944   0.608 -0.1776  0.0533  0.0046
  491MOL0     H64750   1.637   2.013   0.464  3.8845  2.5553  2.4013
  491MOL0     H64751   1.430   2.020   0.374 -0.0107 -0.1471 -1.0161
  491MOL0     H64752   1.419   2.164   0.462  1.6065 -0.0920 -1.7351
  491MOL0     H64753   1.315   2.032   0.651  2.0570 -2.0205  0.7346
  491MOL0     H64754   1.355   1.881   0.578  1.3304 -1.2267 -1.6387
  491MOL0     H64755   1.164   2.068   0.425 -0.9692 -0.0437  0.3193
  491MOL0     H64756   1.221   1.919   0.381 -1.8596  2.3749 -1.8694
  491MOL0     H64757   1.061   1.974   0.635  2.7817  0.5326 -0.4464
  491MOL0     H64758   1.112   1.814   0.577 -0.1829 -0.1690  0.9741
  491MOL0     H64759   0.975   1.854   0.366 -2.9087 -1.2136  0.6951
  491MOL0     H64760   0.930   2.013   0.437 -4.0171 -0.5550 -1.1832
  491MOL0     H64761   0.822   1.896   0.621 -0.4317  2.1640 -0.1401
  491MOL0     H64762   0.751   1.884   0.461  1.7080  3.4111  2.4965
  491MOL0     H64763   0.715   1.689   0.579 -0.2366  0.6716  0.6760
  491MOL0     H64764   0.888   1.672   0.632 -0.5194  1.0685  0.6532
  491MOL0     H64765   1.038   1.508   0.458 -0.2190 -3.4676 -0.9256
  491MOL0     H64766   0.965   1.349   0.099  2.3068 -1.4994 -0.3081
  491MOL0     H64767   0.969   1.265   0.255  0.3798 -0.3681 -0.9160
  491MOL0     H64768   1.167   1.408   0.292 -2.9545 -0.4114  0.7009
  491MOL0     H64769   1.147   1.485   0.132  1.6892  0.2790  1.1634
  491MOL0     H64770   1.167   1.279   0.008  2.7060  0.4536 -1.3023
  491MOL0     H64771   1.311   1.338   0.094 -0.3219  1.1054 -3.4501
  491MOL0     H64772   1.116   1.133   0.168  1.1191  0.3595 -0.2786
  491MOL0     H64773   1.249   1.172   0.274  0.2722  1.0692  0.5196
  491MOL0     H64774   1.458   1.279   0.252  0.7123 -0.7207  2.0059
  491MOL0     H64775   1.707   1.279   0.271  0.0263 -0.3718  0.0592
  491MOL0     H64776   2.069   0.938   0.366 -1.2460  0.0159 -1.7487
  491MOL0     H64777   2.303   0.978   0.432  0.3981 -0.6300 -0.2679
  491MOL0     H64778   2.453   1.305   0.235 -0.8557 -0.6676 -0.4074
  491MOL0     H64779   2.549   1.211   0.127 -0.6704  3.5894 -0.7195
  491MOL0     H64780   2.644   1.289   0.412  1.0638  1.3758 -0.0150
  491MOL0     H64781   2.690   1.369   0.266  1.9521  1.0070  1.1530
  491MOL0     H64782   2.794   1.180   0.173 -2.1662  0.7629 -0.8747
  491MOL0     H64783   2.715   1.067   0.279  0.1744  0.0260  2.1990
  491MOL0     H64784   2.945   1.100   0.335  0.8111 -0.2842  1.7673
  491MOL0     H64785   2.931   1.279   0.344  2.7049 -1.7524 -3.6882
  491MOL0     H64786   2.772   1.074   0.513  1.3560 -0.7557 -0.7060
  491MOL0     H64787   2.802   1.238   0.560  0.5851  0.1452  1.0502
  491MOL0     H64788   3.003   1.003   0.583 -0.1037 -0.6722  0.6753
  491MOL0     H64789   2.935   1.107   0.701  2.6391 -2.0915  0.5375
  491MOL0     H64790   3.120   1.227   0.496 -0.1032 -2.1827 -0.5367
  491MOL0     H64791   3.063   1.302   0.640  2.9373  1.5880 -0.3461
  491MOL0     H64792   3.274   1.090   0.625  0.0639  0.2463  0.5358
  491MOL0     H64793   3.164   1.097   0.775 -1.1649  2.2039  1.2573
  491MOL0     H64794   2.371   1.159   0.051  1.9597  0.7139  0.8403
  491MOL0     H64795   2.147   1.123  -0.017 -1.5075 -0.3840 -0.1666
  491MOL0     H64796   1.744   0.903   0.077  3.4382  1.9494 -0.0396
  491MOL0     H64797   1.491   0.917   0.012 -2.7648  2.3809 -1.1937
  491MOL0     H64798   1.702   2.202   0.379 -0.7796 -0.8537  0.6256
  491MOL0     H64799   1.869   2.370   0.343 -2.3022  0.3727 -0.8877
  491MOL0     H64800   2.011   2.865   0.423 -0.9207 -2.0523  1.1544
  491MOL0     H64801   2.184   2.962   0.286 -2.8756  0.8132  1.4913
  491MOL0     H64802   2.495   2.932   0.409  0.5975  0.8470  0.0211
  491MOL0     H64803   2.456   3.051   0.279 -1.6452 -0.4630  1.3749
  491MOL0     H64804   2.634   2.942   0.144 -3.6720 -2.6716 -0.9206
  491MOL0     H64805   2.683   3.060   0.265  2.9944 -0.7567 -0.4862
  491MOL0     H64806   2.714   2.753   0.281  1.0777 -0.4076 -0.2826
  491MOL0     H64807   2.728   2.858   0.426  1.3904 -2.9469  0.2428
  491MOL0     H64808   2.956   2.797   0.282  1.4246  1.7548  0.2334
  491MOL0     H64809   2.876   2.880   0.150 -1.7424 -2.9782 -0.1302
  491MOL0     H64810   2.936   3.168   0.492  0.8251 -0.9981  1.1528
  491MOL0     H64811   2.425   2.614   0.352  2.0493  2.0814 -1.3750
  491MOL0     H64812   2.252   2.510   0.466 -1.5836 -1.3811 -3.7325
  492MOL0     O64813   7.254   2.638   4.744 -0.2948  0.2725  0.0772
  492MOL0     C64814   7.234   2.637   4.869  0.6722  0.5659  0.6072
  492MOL0     O64815   7.138   2.554   4.940  0.0026  0.2762 -0.1212
  492MOL0     C64816   7.045   2.469   4.882  0.0727 -0.2886 -0.1445
  492MOL0     C64817   6.925   2.441   4.945  0.6593  0.1505 -0.0969
  492MOL0     C64818   6.831   2.355   4.900  1.2750  1.3725 -0.1217
  492MOL0     C64819   6.857   2.284   4.787  0.1347 -0.4799 -0.1475
  492MOL0     O64820   6.768   2.193   4.735  0.2834  0.1625 -0.1121
  492MOL0     C64821   6.678   2.250   4.640  0.5907 -0.5899 -0.1975
  492MOL0     C64822   6.631   2.150   4.531 -0.8027  0.0764  0.1387
  492MOL0     C64823   6.746   2.078   4.447  0.4234 -0.6641  0.1498
  492MOL0     C64824   6.793   2.182   4.335 -0.6119  0.5894 -0.8763
  492MOL0     C64825   6.935   2.140   4.289 -0.1981  0.4367  0.0501
  492MOL0     C64826   6.998   2.235   4.189 -0.6260 -0.9769  0.4263
  492MOL0     C64827   7.152   2.223   4.180  0.2368 -1.5876 -0.6183
  492MOL0     C64828   7.204   2.087   4.170  0.3167 -0.3181 -0.5854
  492MOL0     N64829   7.346   2.090   4.131  0.1692  0.2321 -0.3082
  492MOL0     C64830   7.444   2.118   4.227 -0.2718 -0.0427 -0.0140
  492MOL0     C64831   7.556   2.120   4.150 -0.5269 -0.5404  0.2054
  492MOL0     C64832   7.691   2.156   4.193 -0.4152  0.2583 -0.0397
  492MOL0     C64833   7.737   2.283   4.117  0.3419  0.7235  0.4276
  492MOL0     C64834   7.890   2.304   4.140  0.1883  0.6238 -0.0424
  492MOL0     C64835   7.932   2.434   4.058  0.3881 -0.2085 -0.0473
  492MOL0     O64836   8.054   2.404   3.976 -0.2273  0.1429  0.1321
  492MOL0     C64837   8.192   2.428   4.016 -0.2267 -0.5955  0.6686
  492MOL0     C64838   8.297   2.357   3.957 -0.3005  0.7726 -0.2453
  492MOL0     C64839   8.436   2.396   3.978 -0.6870  0.0509  0.2161
  492MOL0     C64840   8.468   2.494   4.072  0.3336 -1.1933 -0.0227
  492MOL0     C64841   8.601   2.529   4.105 -0.3172 -0.0105 -0.0927
  492MOL0     O64842   8.628   2.658   4.156 -0.3056 -0.4650 -0.1094
  492MOL0     C64843   8.755   2.692   4.184  0.0256  0.4315 -0.1778
  492MOL0     C64844   8.845   2.597   4.245  0.1117  0.4127  0.0274
  492MOL0     C64845   8.980   2.615   4.253 -0.2796  0.5237  0.3846
  492MOL0     C64846   9.032   2.729   4.216  0.0768 -0.2578 -0.0890
  492MOL0     O64847   9.166   2.753   4.250  0.5306  0.4327 -0.9658
  492MOL0     C64848   9.162   2.857   4.345 -0.8152  1.1663 -0.8056
  492MOL0     C64849   9.314   2.867   4.379 -1.3422  0.3494 -1.1014
  492MOL0     C64850   9.403   2.897   4.252  0.1079 -0.2404  0.3885
  492MOL0     C64851   9.552   2.881   4.294  0.3923 -0.5947 -0.3089
  492MOL0     C64852   9.652   2.925   4.185 -0.1046  0.9486 -0.4663
  492MOL0     C64853   9.642   3.071   4.140 -0.2840 -0.4827  0.6603
  492MOL0     C64854   9.710   3.162   4.246  0.3100  0.5840 -0.3249
  492MOL0     C64855   9.728   3.294   4.183  0.3868  0.3134  0.0484
  492MOL0    Cl64856   9.783   3.430   4.297 -0.4146  0.2778  0.3547
  492MOL0     C64857   8.953   2.826   4.153  0.6739  0.4888  0.5113
  492MOL0     C64858   8.815   2.810   4.142 -0.0920  0.0084  0.1919
  492MOL0     O64859   8.690   2.442   4.077  0.1748  0.4437  0.0525
  492MOL0     C64860   8.362   2.555   4.143  0.9413 -0.3282 -0.8477
  492MOL0     C64861   8.230   2.528   4.113  0.2364  0.7927  0.0028
  492MOL0     N64862   7.525   2.094   4.022  0.7415 -0.4288  0.0444
  492MOL0     N64863   7.397   2.078   4.008  0.1641  0.3632  0.3271
  492MOL0     C64864   6.982   2.301   4.727 -0.1778  0.2464 -0.6318
  492MOL0     C64865   7.073   2.393   4.772  0.3398  0.4331  0.7541
  492MOL0     C64866   7.309   2.720   4.952  0.4124  0.2747  0.3539
  492MOL0     C64867   7.317   2.692   5.091  0.4226 -0.4562  0.3220
  492MOL0     C64868   7.407   2.759   5.166 -0.4936 -0.2136  0.0014
  492MOL0     C64869   7.486   2.860   5.117 -0.0935  0.2493 -0.2846
  492MOL0     O64870   7.577   2.930   5.192 -0.1103  0.6781  0.3622
  492MOL0     C64871   7.711   2.918   5.136  0.2963 -0.6295 -0.0848
  492MOL0     C64872   7.814   2.878   5.245  0.5131  0.1597  0.8711
  492MOL0     C64873   7.948   2.854   5.173  0.6330 -0.8977  0.1985
  492MOL0     C64874   8.054   2.768   5.251 -0.8376  0.1785 -0.7133
  492MOL0     C64875   8.080   2.832   5.382  0.0054 -0.9062  0.0815
  492MOL0     C64876   8.077   2.904   5.475  0.7832 -0.0320 -0.8000
  492MOL0     C64877   7.461   2.898   4.986 -0.1433 -0.5060 -0.0639
  492MOL0     C64878   7.376   2.830   4.903  0.8123 -0.8854  0.3408
  492MOL0     H64879   6.894   2.498   5.032 -3.4508  1.1851 -1.9803
  492MOL0     H64880   6.736   2.344   4.952  1.8450 -0.6998  0.5866
  492MOL0     H64881   6.728   2.334   4.591 -0.9226  1.4682  1.5665
  492MOL0     H64882   6.585   2.288   4.684  2.8412  3.9531  1.2808
  492MOL0     H64883   6.571   2.211   4.462  0.5436  0.8740 -0.3676
  492MOL0     H64884   6.557   2.076   4.564 -2.0230  1.2862  0.1974
  492MOL0     H64885   6.721   1.986   4.395  2.8398 -1.9539  1.1399
  492MOL0     H64886   6.821   2.059   4.524 -1.3339 -1.3889  1.7798
  492MOL0     H64887   6.722   2.185   4.253  0.0267 -1.1113 -1.5268
  492MOL0     H64888   6.804   2.282   4.379 -0.7542 -0.3055  1.3166
  492MOL0     H64889   6.929   2.040   4.244  0.8434  0.3749  0.0254
  492MOL0     H64890   7.001   2.139   4.376  1.1875 -0.2116 -0.9685
  492MOL0     H64891   6.986   2.339   4.223  0.9453 -1.0153  1.1877
  492MOL0     H64892   6.950   2.222   4.092 -0.3185  1.8048 -0.1803
  492MOL0     H64893   7.185   2.284   4.095 -1.4517  0.8885  0.3900
  492MOL0     H64894   7.181   2.271   4.274 -1.7646 -2.5895  0.5798
  492MOL0     H64895   7.148   2.038   4.090 -1.0712  1.5980 -0.8633
  492MOL0     H64896   7.189   2.024   4.259  2.7318 -0.3791 -0.1711
  492MOL0     H64897   7.432   2.142   4.332 -2.6691 -0.2892 -0.1754
  492MOL0     H64898   7.758   2.071   4.174 -1.0566 -0.1424 -0.5702
  492MOL0     H64899   7.696   2.176   4.300 -0.4279 -2.5934  0.5857
  492MOL0     H64900   7.669   2.355   4.165 -1.8104 -3.5630  4.7204
  492MOL0     H64901   7.720   2.264   4.011  2.9725  1.7274 -0.2427
  492MOL0     H64902   7.910   2.300   4.248 -1.2090 -0.7137  0.2037
  492MOL0     H64903   7.943   2.223   4.090  0.1589  1.8614 -2.1825
  492MOL0     H64904   7.947   2.522   4.122  4.0810 -0.2186 -0.7020
  492MOL0     H64905   7.857   2.460   3.983  0.0243 -0.7903  0.1118
  492MOL0     H64906   8.275   2.270   3.896  0.6506 -2.3462  3.4245
  492MOL0     H64907   8.516   2.356   3.917  1.8605  0.6858  2.9242
  492MOL0     H64908   8.819   2.493   4.261  1.2964 -0.6981 -4.1754
  492MOL0     H64909   9.049   2.544   4.298  0.5204 -0.7278 -2.5746
  492MOL0     H64910   9.109   2.815   4.432  2.6370 -1.8791  0.0840
  492MOL0     H64911   9.125   2.957   4.324  1.5167  2.3539  0.3445
  492MOL0     H64912   9.358   2.776   4.419  2.0278  2.9254  1.7190
  492MOL0     H64913   9.344   2.939   4.456  1.0478 -1.9736  0.2990
  492MOL0     H64914   9.381   3.000   4.222  2.5560  0.3061  0.2721
  492MOL0     H64915   9.379   2.819   4.179 -2.3651  0.9873 -0.2213
  492MOL0     H64916   9.569   2.952   4.375 -0.1076  2.2951 -2.5210
  492MOL0     H64917   9.583   2.782   4.326 -1.4180 -0.9161  0.5958
  492MOL0     H64918   9.620   2.860   4.104 -1.2569 -0.0991  0.7775
  492MOL0     H64919   9.757   2.907   4.209 -0.2689  0.3524 -0.1882
  492MOL0     H64920   9.542   3.113   4.129  0.7477  2.3154  1.0432
  492MOL0     H64921   9.699   3.078   4.047  0.1507 -1.2722  0.8508
  492MOL0     H64922   9.641   3.184   4.328 -0.3774 -1.0172 -0.4212
  492MOL0     H64923   9.804   3.122   4.285  0.1443  1.5853  1.2062
  492MOL0     H64924   9.639   3.321   4.127  1.6385 -2.5856 -3.7941
  492MOL0     H64925   9.807   3.299   4.107 -0.1748  1.9958 -0.4529
  492MOL0     H64926   8.999   2.913   4.107 -0.0918  0.8127  0.3441
  492MOL0     H64927   8.751   2.877   4.086  0.9907  0.1820 -0.8711
  492MOL0     H64928   8.396   2.625   4.219  1.3896  2.0301 -3.0597
  492MOL0     H64929   8.147   2.583   4.157 -2.2180  0.4869 -3.7266
  492MOL0     H64930   6.996   2.234   4.643 -0.7887 -0.4843 -0.1678
  492MOL0     H64931   7.170   2.400   4.724  0.3697 -0.4183  0.6659
  492MOL0     H64932   7.247   2.619   5.131  0.7145 -0.6683  0.4476
  492MOL0     H64933   7.422   2.728   5.269  0.4267 -1.2088 -0.4139
  492MOL0     H64934   7.732   3.016   5.093  1.4529 -1.4237 -1.4091
  492MOL0     H64935   7.725   2.851   5.051  0.3967  0.1271 -0.6711
  492MOL0     H64936   7.822   2.950   5.328  2.9626 -0.3074  1.1198
  492MOL0     H64937   7.782   2.783   5.288  0.7337 -0.6756 -0.7452
  492MOL0     H64938   7.991   2.953   5.157 -0.6015 -0.2587  0.6789
  492MOL0     H64939   7.937   2.797   5.081  1.2990 -2.4442  1.0308
  492MOL0     H64940   8.024   2.663   5.267 -1.5198  0.4111 -0.4160
  492MOL0     H64941   8.146   2.754   5.194 -0.5390 -1.2440  0.0520
  492MOL0     H64942   8.051   2.971   5.555  0.8120 -1.1819  0.1959
  492MOL0     H64943   7.518   2.986   4.957 -1.4462  0.7068  0.8802
  492MOL0     H64944   7.359   2.871   4.804  0.3772 -0.6212  0.5228
  493MOL0     O64945   9.492   5.177   8.006 -0.1215 -0.0964 -0.6350
  493MOL0     C64946   9.484   5.281   8.076  0.2171  0.0320 -0.4774
  493MOL0     O64947   9.367   5.334   8.140  0.0805 -0.5690 -0.2117
  493MOL0     C64948   9.246   5.270   8.148 -0.6219  0.0329 -0.4407
  493MOL0     C64949   9.136   5.341   8.166 -1.0567 -1.2592  0.0237
  493MOL0     C64950   9.010   5.275   8.184  0.6005 -0.1267 -0.2072
  493MOL0     C64951   8.991   5.136   8.197  0.0306 -0.7748  0.1150
  493MOL0     O64952   8.879   5.071   8.226  0.3219  0.3929 -0.2543
  493MOL0     C64953   8.756   5.129   8.188  0.4456 -0.2633 -0.7492
  493MOL0     C64954   8.631   5.041   8.186  0.3706 -0.6432  0.1743
  493MOL0     C64955   8.609   4.964   8.318 -0.6479  0.3675 -0.3497
  493MOL0     C64956   8.536   5.063   8.418 -0.5840 -0.1502  0.0624
  493MOL0     C64957   8.391   5.080   8.385 -0.2769 -0.6369  0.0504
  493MOL0     C64958   8.324   5.162   8.493  0.3910  0.0869 -0.1012
  493MOL0     C64959   8.173   5.174   8.485 -0.2957  0.3595  0.1220
  493MOL0     C64960   8.129   5.246   8.611 -1.3998  0.4705 -0.0824
  493MOL0     N64961   8.140   5.160   8.736 -0.0528 -1.0544  0.4280
  493MOL0     C64962   8.054   5.060   8.763 -0.2878 -0.4450  0.3619
  493MOL0     C64963   8.102   4.995   8.871 -0.6596  0.5207  0.0668
  493MOL0     C64964   8.056   4.880   8.950  0.1501 -0.6038  0.0138
  493MOL0     C64965   8.153   4.779   8.997  0.1077 -0.3636 -0.0830
  493MOL0     C64966   8.072   4.675   9.070  0.1918  1.2382  0.7370
  493MOL0     C64967   7.993   4.572   8.985  0.1445 -0.3383  0.0339
  493MOL0     O64968   8.083   4.509   8.896  0.3092 -0.0432  0.5526
  493MOL0     C64969   8.051   4.405   8.816 -0.0372  0.5886 -0.3508
  493MOL0     C64970   8.161   4.345   8.745  0.3207 -0.6785 -0.4113
  493MOL0     C64971   8.139   4.234   8.665  0.7923 -0.6209 -0.3476
  493MOL0     C64972   8.015   4.170   8.662 -0.3458 -0.6140  0.0650
  493MOL0     C64973   7.994   4.038   8.601 -0.0219 -0.4908 -0.6076
  493MOL0     O64974   8.117   3.979   8.560 -0.2258  0.2227 -0.0937
  493MOL0     C64975   8.120   3.847   8.516  0.8246 -0.4271  0.8850
  493MOL0     C64976   8.046   3.743   8.579  0.2778 -1.1726  0.0656
  493MOL0     C64977   8.048   3.615   8.524  0.4243 -0.9721 -0.6086
  493MOL0     C64978   8.106   3.600   8.395  0.9052  1.3803 -1.2135
  493MOL0     O64979   8.089   3.471   8.346  0.0278  0.3166 -0.0946
  493MOL0     C64980   8.185   3.410   8.256 -0.0235 -0.3574 -1.0991
  493MOL0     C64981   8.141   3.414   8.116 -0.3733 -0.0005  0.4028
  493MOL0     C64982   8.243   3.361   8.020  0.5434 -0.5972  0.0153
  493MOL0     C64983   8.273   3.217   8.023  0.0361 -0.2623  0.2576
  493MOL0     C64984   8.378   3.158   7.922  0.3393  0.4682 -0.2394
  493MOL0     C64985   8.356   3.010   7.908 -0.0014  0.6088 -0.5168
  493MOL0     C64986   8.449   2.942   7.802 -0.6194 -0.6879 -0.4851
  493MOL0     C64987   8.583   2.898   7.865  0.0243 -0.4099 -0.3939
  493MOL0    Cl64988   8.670   2.786   7.736 -0.0152 -0.0299 -0.3036
  493MOL0     C64989   8.191   3.696   8.344 -0.1333 -0.0775 -0.0348
  493MOL0     C64990   8.207   3.822   8.412  0.2569  1.3543  0.1722
  493MOL0     O64991   7.888   3.980   8.612  0.5937 -0.1361 -0.8284
  493MOL0     C64992   7.911   4.232   8.730  0.3056 -1.4798  0.1981
  493MOL0     C64993   7.927   4.342   8.802  0.6268  0.3262  0.8141
  493MOL0     N64994   8.204   5.075   8.921  0.1420 -0.2480 -0.0945
  493MOL0     N64995   8.233   5.172   8.833 -0.1268 -0.2852  0.1392
  493MOL0     C64996   9.113   5.066   8.193 -0.3414 -0.1461  0.1583
  493MOL0     C64997   9.236   5.131   8.167  0.3560  1.1263 -0.4276
  493MOL0     C64998   9.607   5.352   8.126  0.8540  0.4571 -0.7633
  493MOL0     C64999   9.618   5.473   8.192 -1.0692  0.4573 -0.0957
  493MOL0     C65000   9.740   5.526   8.229 -0.2719  0.3179 -0.3102
  493MOL0     C65001   9.869   5.461   8.206  0.3535  0.3952  0.2668
  493MOL0     O65002   9.992   5.509   8.241 -0.4755  0.8165  0.0162
  493MOL0     C65003  10.012   5.625   8.317 -0.8341 -0.2647 -0.2772
  493MOL0     C65004  10.154   5.639   8.378 -0.4030 -1.1632 -0.3661
  493MOL0     C65005  10.166   5.778   8.453 -0.2888 -0.2428  0.7801
  493MOL0     C65006  10.318   5.783   8.477  0.7607  0.3363  0.6901
  493MOL0     C65007  10.345   5.882   8.581  1.0135 -0.0659 -0.5675
  493MOL0     C65008  10.377   5.963   8.670  0.2394  0.8344  0.4258
  493MOL0     C65009   9.857   5.349   8.126 -0.9563 -0.8736 -0.0749
  493MOL0     C65010   9.735   5.298   8.088 -0.1409  0.2751  0.2193
  493MOL0     H65011   9.134   5.449   8.155 -1.9622 -1.0486  1.8863
  493MOL0     H65012   8.927   5.344   8.194  0.5728 -0.4561  2.8044
  493MOL0     H65013   8.766   5.172   8.088  3.8763  0.0350 -0.3681
  493MOL0     H65014   8.728   5.214   8.251  0.5251 -1.4736  0.9647
  493MOL0     H65015   8.661   4.970   8.109  1.6932  0.9660 -0.8695
  493MOL0     H65016   8.547   5.105   8.159 -0.3934 -1.4175  0.6579
  493MOL0     H65017   8.702   4.912   8.342 -1.1202 -1.1570 -1.6401
  493MOL0     H65018   8.533   4.887   8.303 -1.5792  0.6197  2.5692
  493MOL0     H65019   8.540   5.032   8.523 -1.8262  1.4179  0.6022
  493MOL0     H65020   8.591   5.157   8.415  2.4247 -1.7954 -1.0839
  493MOL0     H65021   8.350   4.979   8.377 -1.2907 -0.1008 -2.7009
  493MOL0     H65022   8.377   5.131   8.289  0.8831  0.1301  0.2641
  493MOL0     H65023   8.373   5.260   8.496  4.9068 -1.9323  1.5198
  493MOL0     H65024   8.340   5.123   8.594 -2.9226  2.3325  1.4866
  493MOL0     H65025   8.152   5.234   8.396 -0.5427 -0.3426 -0.2917
  493MOL0     H65026   8.126   5.077   8.471  2.8375 -1.1807 -0.5814
  493MOL0     H65027   8.023   5.268   8.596 -1.2148  0.1421 -2.0852
  493MOL0     H65028   8.196   5.333   8.620 -0.6410  0.4903 -4.1488
  493MOL0     H65029   7.966   5.023   8.712 -0.9807 -0.7909  1.7317
  493MOL0     H65030   7.987   4.830   8.882 -2.3823  0.2593  1.8062
  493MOL0     H65031   7.998   4.921   9.033  0.2716 -3.0060  1.3602
  493MOL0     H65032   8.221   4.828   9.068 -2.4007 -0.8594  2.9062
  493MOL0     H65033   8.210   4.738   8.914 -1.4330  0.5257 -1.6449
  493MOL0     H65034   8.145   4.627   9.137 -1.3638  0.7102  2.1102
  493MOL0     H65035   8.002   4.731   9.132 -1.5133  2.0398 -1.7793
  493MOL0     H65036   7.913   4.624   8.932 -1.0579 -0.3713  1.7423
  493MOL0     H65037   7.947   4.495   9.048 -2.8142  0.4203 -1.0198
  493MOL0     H65038   8.256   4.396   8.749 -0.2953  0.4683  0.3810
  493MOL0     H65039   8.229   4.197   8.615  2.1327  3.0576 -0.9420
  493MOL0     H65040   7.997   3.755   8.675  0.5979  0.2706  0.0789
  493MOL0     H65041   7.994   3.538   8.578 -0.5284  1.5731  2.3775
  493MOL0     H65042   8.198   3.305   8.283  0.8332 -0.6783 -2.6093
  493MOL0     H65043   8.284   3.457   8.262  0.0140 -0.5163  4.9271
  493MOL0     H65044   8.110   3.516   8.092 -2.5136 -0.8330 -0.6983
  493MOL0     H65045   8.055   3.347   8.105 -0.6757  0.1279  1.8292
  493MOL0     H65046   8.335   3.417   8.041 -0.1911  1.1016 -1.1167
  493MOL0     H65047   8.218   3.388   7.917 -2.0612 -0.6657  0.5621
  493MOL0     H65048   8.309   3.190   8.122  0.7260 -0.1101  0.0552
  493MOL0     H65049   8.181   3.166   7.992  0.8330 -0.0116 -2.8843
  493MOL0     H65050   8.474   3.199   7.956 -1.3123  1.4956  3.8616
  493MOL0     H65051   8.356   3.201   7.824 -3.0400 -2.1138 -0.8181
  493MOL0     H65052   8.260   3.000   7.857  0.7397 -1.0021 -1.6904
  493MOL0     H65053   8.366   2.963   8.006 -1.8134  0.5967 -0.3034
  493MOL0     H65054   8.397   2.853   7.766 -1.0615 -0.7243  0.2055
  493MOL0     H65055   8.472   3.015   7.724  1.8765 -1.1515 -0.2729
  493MOL0     H65056   8.565   2.838   7.954  3.6038  3.4366  3.4167
  493MOL0     H65057   8.645   2.983   7.897 -4.3029  1.6615  3.6794
  493MOL0     H65058   8.246   3.670   8.254 -2.6252 -2.1570 -1.0871
  493MOL0     H65059   8.263   3.902   8.363 -0.3124 -0.4562 -3.9154
  493MOL0     H65060   7.809   4.195   8.724 -0.2001 -0.2013  0.4583
  493MOL0     H65061   7.831   4.367   8.846  0.5771 -0.2894  1.0659
  493MOL0     H65062   9.113   4.959   8.210  3.1456 -0.2553  0.2943
  493MOL0     H65063   9.325   5.070   8.157 -0.2454  0.1928 -0.1873
  493MOL0     H65064   9.524   5.523   8.216 -1.1963 -0.0736  0.5459
  493MOL0     H65065   9.738   5.616   8.289 -1.2986  1.4815 -1.9949
  493MOL0     H65066   9.937   5.642   8.395  0.6922 -1.4992  1.5246
  493MOL0     H65067  10.008   5.707   8.244  0.7422 -1.4872 -1.8011
  493MOL0     H65068  10.174   5.569   8.460  0.7073 -0.2293  0.1862
  493MOL0     H65069  10.230   5.626   8.301  0.0947  0.6639 -0.2308
  493MOL0     H65070  10.117   5.776   8.551  2.1173  1.4128  2.1055
  493MOL0     H65071  10.131   5.862   8.393  1.2176 -0.1840 -0.0592
  493MOL0     H65072  10.359   5.691   8.519  2.4681  1.3608  1.3215
  493MOL0     H65073  10.367   5.804   8.381  0.2724 -0.8381  0.1584
  493MOL0     H65074  10.417   6.033   8.742  0.7120  0.9146  0.0957
  493MOL0     H65075   9.938   5.291   8.083  1.5415  3.6863 -2.2890
  493MOL0     H65076   9.735   5.211   8.023  4.1095 -1.7294  2.4925
  494MOL0     O65077   4.478   0.101   2.911 -0.4364  0.1386 -0.0092
  494MOL0     C65078   4.407   0.196   2.947 -0.5674  0.2499 -0.7585
  494MOL0     O65079   4.442   0.326   2.926  0.4823 -0.1814 -0.0247
  494MOL0     C65080   4.575   0.350   2.877  0.8177  0.7935 -0.4903
  494MOL0     C65081   4.687   0.287   2.922 -1.0864 -0.3240 -0.2307
  494MOL0     C65082   4.819   0.310   2.868  0.5897 -0.3343 -0.0330
  494MOL0     C65083   4.838   0.406   2.772  0.6892  0.4827 -0.7345
  494MOL0     O65084   4.951   0.407   2.694 -0.5141  0.4657 -0.2056
  494MOL0     C65085   5.081   0.419   2.765  0.4029 -0.5088  0.3221
  494MOL0     C65086   5.107   0.556   2.830 -0.0093  0.2359  0.6932
  494MOL0     C65087   5.102   0.673   2.745 -0.0967  0.0197  0.2880
  494MOL0     C65088   5.183   0.668   2.609  0.3006  0.0289 -0.2951
  494MOL0     C65089   5.102   0.662   2.474  0.5209 -0.4481 -0.9282
  494MOL0     C65090   5.184   0.719   2.355  0.1554 -0.2603  1.1172
  494MOL0     C65091   5.135   0.659   2.223  0.4974  0.0122 -0.2711
  494MOL0     C65092   5.000   0.695   2.173  0.9146 -0.5599 -0.4907
  494MOL0     N65093   4.887   0.633   2.251 -0.9216 -0.6744  0.3329
  494MOL0     C65094   4.855   0.502   2.250 -0.7053  0.0663  0.6865
  494MOL0     C65095   4.748   0.487   2.331  0.0424  0.7103  0.3091
  494MOL0     C65096   4.700   0.345   2.366 -0.4397 -1.0045  0.5005
  494MOL0     C65097   4.561   0.358   2.442 -0.6153 -0.8471 -0.0343
  494MOL0     C65098   4.433   0.396   2.357 -0.0239 -0.3149 -0.1769
  494MOL0     C65099   4.304   0.392   2.446  0.6030  0.2547 -0.2669
  494MOL0     O65100   4.292   0.254   2.489  0.1374 -0.1552 -1.0007
  494MOL0     C65101   4.196   0.203   2.572  0.3926 -0.0655  0.0623
  494MOL0     C65102   4.185   0.066   2.590 -0.7582 -0.1907  0.1408
  494MOL0     C65103   4.081   0.016   2.680  0.8739 -0.1135  0.6974
  494MOL0     C65104   3.981   0.112   2.710  1.1275  1.2788 -0.0384
  494MOL0     C65105   3.851   0.059   2.755  0.0479  0.2278  0.2987
  494MOL0     O65106   3.754   0.146   2.803 -0.1117 -0.5390  0.2968
  494MOL0     C65107   3.625   0.096   2.792 -0.5147 -0.5085 -0.9823
  494MOL0     C65108   3.540   0.146   2.694 -0.4785  0.1386  0.1847
  494MOL0     C65109   3.410   0.108   2.688 -0.2012 -0.2581 -0.6487
  494MOL0     C65110   3.353   0.037   2.794 -0.1242 -0.0572  0.3919
  494MOL0     O65111   3.223  -0.004   2.812  0.0613  0.1678  0.2322
  494MOL0     C65112   3.116   0.002   2.710  0.1628  0.2419 -0.1096
  494MOL0     C65113   2.992  -0.078   2.749  0.5394 -0.3945 -0.1924
  494MOL0     C65114   2.874  -0.042   2.643  0.2656 -0.0797 -0.0582
  494MOL0     C65115   2.900  -0.107   2.512  1.2216 -0.9032 -0.1559
  494MOL0     C65116   2.780  -0.066   2.416 -0.1606  0.0530 -0.2337
  494MOL0     C65117   2.737  -0.173   2.320 -0.1656  0.2459 -0.0878
  494MOL0     C65118   2.646  -0.278   2.383 -0.4073  0.0203  0.3008
  494MOL0     C65119   2.502  -0.233   2.405  0.4934 -0.5357 -0.4467
  494MOL0    Cl65120   2.418  -0.171   2.270 -0.4095 -0.2881 -0.3802
  494MOL0     C65121   3.429   0.000   2.904  0.0800 -0.2198  0.2346
  494MOL0     C65122   3.566   0.024   2.901 -0.0125 -1.0243 -0.2424
  494MOL0     O65123   3.834  -0.064   2.745  0.1865 -0.1163  0.6666
  494MOL0     C65124   3.991   0.248   2.691  0.2546  0.0778 -1.2052
  494MOL0     C65125   4.108   0.291   2.633 -0.4310 -0.1729 -0.0813
  494MOL0     N65126   4.697   0.624   2.350 -0.1954  0.9298 -0.9359
  494MOL0     N65127   4.783   0.702   2.307  0.4650 -0.3539  0.2655
  494MOL0     C65128   4.726   0.488   2.732  0.7750 -0.3952  0.0744
  494MOL0     C65129   4.596   0.459   2.793 -0.4745 -0.7072 -1.1015
  494MOL0     C65130   4.266   0.167   2.992 -0.5871  0.4062  0.2592
  494MOL0     C65131   4.242   0.033   3.025 -0.0412 -0.2800 -0.9768
  494MOL0     C65132   4.101  -0.003   3.060 -0.0625  0.3973  1.1306
  494MOL0     C65133   4.010   0.096   3.068 -0.2539  0.3067  0.0411
  494MOL0     O65134   3.888   0.046   3.083  0.4454 -0.3816 -0.8945
  494MOL0     C65135   3.788   0.129   3.157  0.2682 -0.7467 -0.0014
  494MOL0     C65136   3.804   0.096   3.301 -0.1871  1.7366  0.0806
  494MOL0     C65137   3.736   0.203   3.389 -0.2212 -0.0670  0.1515
  494MOL0     C65138   3.838   0.289   3.462 -0.4116 -0.3427  0.4738
  494MOL0     C65139   3.928   0.372   3.377 -0.6657 -0.3447  0.0275
  494MOL0     C65140   4.011   0.431   3.314  0.3974  0.0236  0.0702
  494MOL0     C65141   4.037   0.225   3.023 -1.2549  1.2813 -0.7333
  494MOL0     C65142   4.169   0.262   2.988 -0.8986 -0.0014 -0.1311
  494MOL0     H65143   4.679   0.200   2.986 -2.7694 -2.5337 -3.1924
  494MOL0     H65144   4.898   0.246   2.905  1.8489  1.0753 -0.1869
  494MOL0     H65145   5.158   0.398   2.690  0.3846 -0.3706  0.2642
  494MOL0     H65146   5.087   0.339   2.839 -0.8684 -3.3842 -2.4497
  494MOL0     H65147   5.203   0.559   2.883 -0.9742 -0.2690  2.5837
  494MOL0     H65148   5.037   0.560   2.915 -0.5770 -2.0807  0.3891
  494MOL0     H65149   5.139   0.758   2.804 -0.2522  1.2971 -1.4040
  494MOL0     H65150   4.999   0.701   2.724 -0.0666  0.1190  0.2741
  494MOL0     H65151   5.238   0.762   2.597 -3.1168  1.9973 -2.1402
  494MOL0     H65152   5.247   0.580   2.597  1.4121  0.8961 -0.9006
  494MOL0     H65153   5.007   0.716   2.487  1.8910  2.8010 -3.1462
  494MOL0     H65154   5.069   0.563   2.442 -1.1423 -0.6130  1.0455
  494MOL0     H65155   5.287   0.684   2.361  0.3058 -0.5947 -1.9740
  494MOL0     H65156   5.179   0.829   2.349 -0.2652 -0.3431 -3.5816
  494MOL0     H65157   5.209   0.675   2.144 -0.4535  0.7503 -1.0379
  494MOL0     H65158   5.148   0.551   2.232  1.1754 -0.0653 -1.8093
  494MOL0     H65159   5.003   0.648   2.074  1.2350 -0.0932 -0.7075
  494MOL0     H65160   4.991   0.803   2.165 -0.0444 -0.3384  2.3327
  494MOL0     H65161   4.913   0.421   2.206 -3.6461 -1.5383 -0.5123
  494MOL0     H65162   4.771   0.301   2.438  0.1804  1.2243  1.3422
  494MOL0     H65163   4.677   0.281   2.281  1.1848 -0.8993 -0.0439
  494MOL0     H65164   4.576   0.440   2.512 -0.0164  1.1026 -2.2968
  494MOL0     H65165   4.542   0.263   2.493 -0.3043  0.0468  1.8360
  494MOL0     H65166   4.456   0.490   2.307 -1.2602  0.2927  0.3464
  494MOL0     H65167   4.422   0.314   2.285 -2.1751  0.2225 -0.5271
  494MOL0     H65168   4.216   0.426   2.391  0.5819 -0.7497 -0.8936
  494MOL0     H65169   4.319   0.461   2.530  1.1447  0.6142 -0.6524
  494MOL0     H65170   4.247  -0.005   2.536  1.3041  2.5154 -1.2593
  494MOL0     H65171   4.073  -0.091   2.696  1.9127 -0.0944  1.4692
  494MOL0     H65172   3.584   0.208   2.616  2.2521 -4.0914 -2.0317
  494MOL0     H65173   3.341   0.140   2.610 -1.5781 -0.8465  0.2864
  494MOL0     H65174   3.157  -0.034   2.616  1.4391  1.1053  0.0856
  494MOL0     H65175   3.077   0.104   2.705 -0.3419  0.1378  1.1251
  494MOL0     H65176   2.968  -0.050   2.852  0.4164  1.1290 -0.6091
  494MOL0     H65177   3.013  -0.184   2.733  1.1973 -0.2606 -0.2774
  494MOL0     H65178   2.843   0.063   2.632 -1.1924 -0.2418  1.8999
  494MOL0     H65179   2.787  -0.092   2.686  0.6348  0.1660  0.9895
  494MOL0     H65180   2.997  -0.085   2.467  0.3463  3.3853 -0.4371
  494MOL0     H65181   2.888  -0.214   2.530 -3.6153 -0.1282  3.4480
  494MOL0     H65182   2.824   0.015   2.357  1.0067 -0.1733  0.3031
  494MOL0     H65183   2.695  -0.023   2.470  0.5802  1.3511 -0.0689
  494MOL0     H65184   2.824  -0.219   2.270 -0.9004 -2.4470  0.9326
  494MOL0     H65185   2.682  -0.121   2.241  0.2142  0.3305 -0.3035
  494MOL0     H65186   2.660  -0.373   2.332 -0.3465 -0.7821  1.7740
  494MOL0     H65187   2.679  -0.293   2.486 -2.0343  1.3215  1.0724
  494MOL0     H65188   2.501  -0.147   2.472 -2.2869  0.1938 -1.2899
  494MOL0     H65189   2.441  -0.313   2.449 -2.8073  1.8871 -0.1694
  494MOL0     H65190   3.392  -0.059   2.987  2.2268 -0.5289  1.0274
  494MOL0     H65191   3.630  -0.010   2.981 -0.5802  0.8340  1.0751
  494MOL0     H65192   3.908   0.310   2.724 -2.1701 -4.4898  2.6429
  494MOL0     H65193   4.106   0.398   2.613 -1.9266 -0.1466  0.0917
  494MOL0     H65194   4.742   0.561   2.654  2.0641  1.1257  1.6825
  494MOL0     H65195   4.508   0.522   2.778 -0.1859 -0.6261 -2.5978
  494MOL0     H65196   4.319  -0.043   3.031  1.0603  0.5731 -3.3302
  494MOL0     H65197   4.069  -0.099   3.100  2.6987  0.4834  4.0091
  494MOL0     H65198   3.689   0.108   3.115 -0.5576 -1.3197  2.0919
  494MOL0     H65199   3.799   0.237   3.145 -2.4243 -0.3021  0.8169
  494MOL0     H65200   3.770  -0.005   3.327  1.3346  1.6953  2.1311
  494MOL0     H65201   3.911   0.103   3.321  0.3589 -1.8874 -0.7656
  494MOL0     H65202   3.676   0.154   3.466  0.5754 -0.3785  0.5737
  494MOL0     H65203   3.670   0.271   3.333 -1.0249 -0.3777  0.6973
  494MOL0     H65204   3.788   0.360   3.528 -0.9376  0.9582 -1.2405
  494MOL0     H65205   3.898   0.232   3.534 -0.8708 -1.1567  0.2271
  494MOL0     H65206   4.072   0.490   3.249 -3.3987  2.8738 -1.2698
  494MOL0     H65207   3.970   0.310   3.018  0.5668  2.7780 -0.7048
  494MOL0     H65208   4.206   0.364   2.977 -1.0829  0.0777 -0.0335
  495MOL0     O65209  10.275   1.168   7.274 -0.1696 -0.3609 -0.4222
  495MOL0     C65210  10.305   1.277   7.222  0.6737  0.4976  0.3083
  495MOL0     O65211  10.231   1.336   7.118 -0.4558 -0.1433  0.3680
  495MOL0     C65212  10.122   1.269   7.068 -1.4238  0.7573 -0.3179
  495MOL0     C65213  10.116   1.256   6.929 -1.1065  0.5599  0.6123
  495MOL0     C65214  10.002   1.210   6.865 -0.3894 -0.5439  0.3440
  495MOL0     C65215   9.891   1.164   6.943  0.6121 -0.4667 -0.3905
  495MOL0     O65216   9.771   1.118   6.887  0.3109  0.4799  0.1424
  495MOL0     C65217   9.771   1.116   6.743 -0.8199  0.2647  0.4754
  495MOL0     C65218   9.638   1.068   6.677 -0.1529  0.3013 -0.6924
  495MOL0     C65219   9.516   1.141   6.724  0.6072 -0.1492 -0.1378
  495MOL0     C65220   9.378   1.101   6.663  0.1241  0.0453  0.4314
  495MOL0     C65221   9.279   1.219   6.634  0.2614 -0.0039  0.1210
  495MOL0     C65222   9.255   1.311   6.755 -0.0547  0.2045  1.1261
  495MOL0     C65223   9.212   1.235   6.884  0.1695 -0.0563 -0.7581
  495MOL0     C65224   9.119   1.323   6.968  0.6484 -0.1737 -0.1442
  495MOL0     N65225   9.190   1.413   7.055  0.5314 -0.5021 -0.9472
  495MOL0     C65226   9.247   1.391   7.177 -0.5069  0.3776 -0.1452
  495MOL0     C65227   9.316   1.494   7.205 -0.1729  0.1863 -0.5132
  495MOL0     C65228   9.404   1.499   7.325  0.7243 -0.5360 -0.2030
  495MOL0     C65229   9.545   1.445   7.289 -0.6925 -0.0064 -0.7948
  495MOL0     C65230   9.616   1.564   7.234 -0.7972 -0.7795  0.1521
  495MOL0     C65231   9.775   1.541   7.220 -1.3661  0.5217 -0.0762
  495MOL0     O65232   9.839   1.503   7.346 -0.6194  0.2153 -0.5988
  495MOL0     C65233   9.958   1.560   7.388  0.4905 -0.6140 -0.4567
  495MOL0     C65234   9.979   1.575   7.528  0.9766 -0.4535  0.1200
  495MOL0     C65235  10.092   1.627   7.581 -1.0277 -1.0068  0.3306
  495MOL0     C65236  10.190   1.686   7.499 -0.5545 -1.0529  0.1447
  495MOL0     C65237  10.309   1.773   7.552 -0.6230 -0.5098  0.6381
  495MOL0     O65238  10.368   1.871   7.474  1.6980  0.0074  0.1717
  495MOL0     C65239  10.475   1.938   7.535 -0.3675  0.3266 -0.2779
  495MOL0     C65240  10.597   1.876   7.566  0.3760 -0.9300  0.6520
  495MOL0     C65241  10.703   1.943   7.630  0.6386  0.7272 -0.2323
  495MOL0     C65242  10.686   2.076   7.668  0.1589 -0.3360  0.2771
  495MOL0     O65243  10.769   2.147   7.751 -0.4334 -0.0702 -0.1786
  495MOL0     C65244  10.884   2.074   7.803  0.8460 -1.2235 -0.1464
  495MOL0     C65245  10.975   2.177   7.870 -0.1115 -0.2120  0.0935
  495MOL0     C65246  10.961   2.186   8.027 -0.3212  0.0271  1.0282
  495MOL0     C65247  11.060   2.279   8.102 -0.8193 -0.1293 -0.7766
  495MOL0     C65248  11.047   2.260   8.252  0.1796 -0.7110  0.4689
  495MOL0     C65249  11.127   2.358   8.327  0.0926 -0.6133  0.6862
  495MOL0     C65250  11.287   2.337   8.323 -0.5734  0.8292  0.5998
  495MOL0     C65251  11.377   2.425   8.416 -0.0180 -0.3628 -0.6447
  495MOL0    Cl65252  11.531   2.348   8.444 -0.1843 -0.1289  0.3344
  495MOL0     C65253  10.571   2.136   7.627  0.4411  0.1172  0.6765
  495MOL0     C65254  10.465   2.073   7.559 -0.1141  0.3106 -0.2297
  495MOL0     O65255  10.341   1.746   7.663  0.2032  0.2128 -0.0679
  495MOL0     C65256  10.167   1.674   7.358 -0.0424  0.0312 -0.7460
  495MOL0     C65257  10.056   1.608   7.302 -0.2076 -0.8327 -0.4901
  495MOL0     N65258   9.302   1.587   7.108  0.0870 -0.5677 -0.1321
  495MOL0     N65259   9.222   1.539   7.017  0.0011 -0.1416 -0.7762
  495MOL0     C65260   9.897   1.184   7.085  0.6117  0.6710 -0.1911
  495MOL0     C65261  10.012   1.230   7.149  0.0260 -0.7371  0.2363
  495MOL0     C65262  10.426   1.346   7.258  0.2256 -0.4652 -0.1607
  495MOL0     C65263  10.525   1.294   7.347 -1.0737  0.4150  0.1162
  495MOL0     C65264  10.648   1.363   7.370  0.6031  0.2029  0.1859
  495MOL0     C65265  10.664   1.480   7.300 -0.3758  0.3516 -0.4388
  495MOL0     O65266  10.780   1.551   7.333  0.8960 -0.7884  0.5071
  495MOL0     C65267  10.807   1.676   7.267 -0.9305 -0.0350  0.3134
  495MOL0     C65268  10.916   1.751   7.347  0.4589  0.1124  0.4426
  495MOL0     C65269  10.943   1.883   7.266 -1.1223 -0.1905  0.0248
  495MOL0     C65270  11.050   1.963   7.342  0.0174 -0.0468  0.5282
  495MOL0     C65271  11.181   1.907   7.327 -1.0374 -0.0058  0.2814
  495MOL0     C65272  11.296   1.862   7.323 -0.8592 -0.4949 -0.1241
  495MOL0     C65273  10.566   1.521   7.205 -0.0843 -0.4106 -1.1846
  495MOL0     C65274  10.449   1.464   7.192 -0.0194 -0.2729 -0.1902
  495MOL0     H65275  10.195   1.283   6.860 -2.2491  0.5383 -0.7637
  495MOL0     H65276   9.996   1.213   6.756 -1.1599  1.2576  0.4054
  495MOL0     H65277   9.856   1.058   6.705 -1.5799 -0.7670  0.3151
  495MOL0     H65278   9.780   1.217   6.701  1.0634 -0.3022 -0.6047
  495MOL0     H65279   9.619   0.961   6.680 -0.9246  0.3387 -2.8600
  495MOL0     H65280   9.637   1.078   6.568  1.1225 -3.7290 -1.2489
  495MOL0     H65281   9.540   1.243   6.693  1.5418 -0.7729 -1.5881
  495MOL0     H65282   9.495   1.130   6.831 -3.2987 -3.0412 -0.9688
  495MOL0     H65283   9.398   1.060   6.563  2.9002  2.3498 -0.0958
  495MOL0     H65284   9.334   1.023   6.725  1.4023  1.0871  2.8051
  495MOL0     H65285   9.184   1.177   6.599 -1.0319  2.7907  0.0799
  495MOL0     H65286   9.313   1.279   6.550  3.7103 -1.9081 -0.0380
  495MOL0     H65287   9.176   1.380   6.723  1.2811  2.4933  2.4853
  495MOL0     H65288   9.346   1.370   6.770  2.0260 -2.4977  0.1421
  495MOL0     H65289   9.154   1.148   6.851  0.4154 -0.0744 -1.1504
  495MOL0     H65290   9.299   1.197   6.936  1.7835  1.6440 -2.0601
  495MOL0     H65291   9.052   1.262   7.030  1.2299 -1.2258 -0.5276
  495MOL0     H65292   9.052   1.380   6.904 -0.3407 -1.5733 -0.4012
  495MOL0     H65293   9.239   1.305   7.243 -3.1590  1.1432  0.6500
  495MOL0     H65294   9.361   1.431   7.398  0.4172 -1.1825 -0.9676
  495MOL0     H65295   9.386   1.603   7.354  0.3122 -0.5904 -0.2545
  495MOL0     H65296   9.537   1.368   7.212 -1.7552  1.7930 -2.5703
  495MOL0     H65297   9.599   1.410   7.378  0.9312  2.6519 -0.6086
  495MOL0     H65298   9.577   1.588   7.135  1.5607  1.4627 -0.3343
  495MOL0     H65299   9.601   1.648   7.302 -1.3111  1.2236 -2.2947
  495MOL0     H65300   9.833   1.626   7.183  0.1277 -0.9576 -1.3159
  495MOL0     H65301   9.797   1.464   7.146  1.9748  0.3870  0.9088
  495MOL0     H65302   9.890   1.537   7.577 -0.1903  1.3000 -0.5375
  495MOL0     H65303  10.115   1.638   7.686  1.4655 -3.2971  0.1313
  495MOL0     H65304  10.608   1.769   7.549 -1.5193 -1.4876  2.5142
  495MOL0     H65305  10.791   1.880   7.636  1.7435  2.3253  1.6924
  495MOL0     H65306  10.950   2.022   7.733 -1.5820 -4.9811  0.1088
  495MOL0     H65307  10.846   2.001   7.875 -2.9266 -0.6658 -1.3789
  495MOL0     H65308  10.964   2.279   7.830  1.9631  0.5228  1.2389
  495MOL0     H65309  11.080   2.153   7.855 -0.4761 -1.0778 -1.2959
  495MOL0     H65310  10.977   2.086   8.068 -1.0431 -0.6649 -0.3350
  495MOL0     H65311  10.855   2.198   8.050 -0.4610  1.7674 -0.3469
  495MOL0     H65312  11.160   2.256   8.063 -0.4236 -0.3461  0.3463
  495MOL0     H65313  11.031   2.383   8.084 -1.9908 -0.0542  1.3199
  495MOL0     H65314  11.085   2.161   8.280  0.2357 -0.7166  0.3719
  495MOL0     H65315  10.943   2.278   8.283  0.6246  2.2531  0.5159
  495MOL0     H65316  11.104   2.343   8.433 -2.0546 -3.0229 -0.0168
  495MOL0     H65317  11.104   2.457   8.288  1.5356 -1.3938 -2.5165
  495MOL0     H65318  11.300   2.233   8.354  0.9866  0.2456 -1.7943
  495MOL0     H65319  11.314   2.347   8.218  1.1095 -1.5361  0.7291
  495MOL0     H65320  11.338   2.448   8.515  2.7191  2.0893  0.0075
  495MOL0     H65321  11.395   2.517   8.360  0.2552  0.1672  0.2967
  495MOL0     H65322  10.563   2.240   7.657 -1.1549 -0.0248  0.8029
  495MOL0     H65323  10.383   2.140   7.533 -1.0634 -0.3654  0.9152
  495MOL0     H65324  10.231   1.730   7.291  2.7174 -0.7858  1.0560
  495MOL0     H65325  10.037   1.608   7.196 -4.2628  0.9551  0.0659
  495MOL0     H65326   9.809   1.161   7.145  0.1279 -3.4054 -2.0803
  495MOL0     H65327  10.020   1.250   7.255 -0.8139 -0.2297  0.2199
  495MOL0     H65328  10.520   1.196   7.395  0.2804  0.9363  1.3950
  495MOL0     H65329  10.719   1.335   7.447 -0.8610 -0.0720  1.4763
  495MOL0     H65330  10.718   1.738   7.255 -1.5751 -1.1429 -0.8682
  495MOL0     H65331  10.851   1.648   7.170 -0.8514 -0.5861  0.5041
  495MOL0     H65332  10.878   1.780   7.445 -2.6079 -0.4437 -0.4854
  495MOL0     H65333  11.011   1.698   7.355 -0.2530 -1.8722 -2.5558
  495MOL0     H65334  10.852   1.944   7.270  0.1336  1.7178  3.5108
  495MOL0     H65335  10.970   1.864   7.162 -0.2462 -1.6797  0.4886
  495MOL0     H65336  11.054   2.066   7.305  0.6082 -0.3778 -0.3644
  495MOL0     H65337  11.022   1.967   7.447  0.3850 -0.6928  0.6595
  495MOL0     H65338  11.399   1.848   7.299 -0.5193  1.7601 -0.1093
  495MOL0     H65339  10.571   1.610   7.143 -1.8311  1.4676  1.1834
  495MOL0     H65340  10.379   1.511   7.124 -0.6130 -0.3268  0.3814
  496MOL0     O65341   9.088   7.243   5.584  0.4234  0.4351 -0.8171
  496MOL0     C65342   9.095   7.361   5.554 -0.5862  0.6707  1.4371
  496MOL0     O65343   9.194   7.449   5.583 -0.3691  0.2102  0.4002
  496MOL0     C65344   9.328   7.410   5.602  0.9307  1.1308  0.3353
  496MOL0     C65345   9.419   7.472   5.681 -0.7189  0.0058  0.3356
  496MOL0     C65346   9.554   7.436   5.693 -0.0648  1.4161 -0.1897
  496MOL0     C65347   9.601   7.321   5.616 -0.8580 -0.2621 -0.3286
  496MOL0     O65348   9.735   7.292   5.606  0.3661 -0.2095  0.2010
  496MOL0     C65349   9.827   7.402   5.637  0.2804  0.7466 -0.1570
  496MOL0     C65350   9.965   7.366   5.574  1.0765  0.1639 -0.5682
  496MOL0     C65351  10.068   7.449   5.649 -0.1129  0.7308 -0.5797
  496MOL0     C65352  10.208   7.410   5.605 -0.9812 -0.5805 -0.2876
  496MOL0     C65353  10.313   7.479   5.681  0.0608  0.6554  0.8427
  496MOL0     C65354  10.433   7.384   5.665 -0.4151  0.1062 -0.0474
  496MOL0     C65355  10.547   7.436   5.750 -0.3660 -0.8367 -0.4022
  496MOL0     C65356  10.686   7.404   5.695 -0.2087  0.0280  0.2909
  496MOL0     N65357  10.717   7.264   5.691 -1.0215  0.2339  0.3111
  496MOL0     C65358  10.707   7.187   5.805  0.0455 -0.0824  0.1159
  496MOL0     C65359  10.712   7.061   5.761  0.9728 -0.2346 -0.6178
  496MOL0     C65360  10.728   6.931   5.836  0.0756 -0.1583 -0.0057
  496MOL0     C65361  10.632   6.934   5.961  0.4628 -0.2925 -0.8564
  496MOL0     C65362  10.657   6.802   6.038 -0.2407 -1.0744 -0.2608
  496MOL0     C65363  10.601   6.822   6.181 -0.2904 -0.5253 -0.5082
  496MOL0     O65364  10.460   6.854   6.163 -0.3298  0.1356 -0.5827
  496MOL0     C65365  10.373   6.754   6.148  0.2817  0.1952  0.7080
  496MOL0     C65366  10.246   6.792   6.092  0.5821  0.6812 -0.5981
  496MOL0     C65367  10.156   6.693   6.055  0.3481  0.7100  0.5939
  496MOL0     C65368  10.169   6.561   6.091  0.1611  0.1736 -0.6342
  496MOL0     C65369  10.065   6.461   6.053  0.6875  0.0505  0.3253
  496MOL0     O65370   9.936   6.503   6.047 -0.0172 -0.5468 -0.6189
  496MOL0     C65371   9.838   6.417   5.999  0.1324 -0.3441 -0.1321
  496MOL0     C65372   9.720   6.496   5.994 -0.2838  0.8640 -0.7921
  496MOL0     C65373   9.605   6.431   5.953 -0.2208  0.1426  0.0421
  496MOL0     C65374   9.604   6.295   5.922 -0.5323 -0.1651  0.1709
  496MOL0     O65375   9.495   6.230   5.873 -0.0865 -0.0650 -0.1893
  496MOL0     C65376   9.391   6.304   5.801 -0.0313  0.3805  0.2747
  496MOL0     C65377   9.306   6.200   5.730  0.7027 -0.8496  1.1975
  496MOL0     C65378   9.232   6.100   5.815  0.0366  0.4794 -0.0632
  496MOL0     C65379   9.173   5.988   5.733  0.6264 -0.1874  0.1018
  496MOL0     C65380   9.081   5.905   5.815  0.6218 -0.4938 -0.6864
  496MOL0     C65381   9.036   5.776   5.737 -0.5372 -0.1500 -0.8146
  496MOL0     C65382   8.935   5.693   5.822  1.2703  0.3409  0.6509
  496MOL0     C65383   8.823   5.626   5.741  0.4998  0.4748  0.6565
  496MOL0    Cl65384   8.891   5.504   5.619  0.1599  0.2545  0.3892
  496MOL0     C65385   9.718   6.211   5.937  0.1571 -0.4365 -0.3057
  496MOL0     C65386   9.838   6.275   5.976  0.1191 -0.3450  0.1067
  496MOL0     O65387  10.099   6.347   6.020  0.0168  0.0360 -0.8747
  496MOL0     C65388  10.290   6.527   6.167  0.0034 -0.7942 -0.4363
  496MOL0     C65389  10.393   6.623   6.190 -0.0069  0.5680 -0.2300
  496MOL0     N65390  10.713   7.060   5.625 -0.6550  0.3544 -0.1692
  496MOL0     N65391  10.712   7.183   5.580  0.1363  0.7756  0.4309
  496MOL0     C65392   9.510   7.264   5.528  0.5263  1.0070 -0.3050
  496MOL0     C65393   9.373   7.301   5.529  0.0506  0.0264  1.0911
  496MOL0     C65394   8.980   7.416   5.486 -0.0920 -0.7120 -0.7065
  496MOL0     C65395   8.894   7.342   5.402  0.4842  0.0682 -0.3650
  496MOL0     C65396   8.778   7.399   5.340 -0.4741  0.3558  0.9788
  496MOL0     C65397   8.748   7.531   5.366  0.5939 -0.3235  0.4944
  496MOL0     O65398   8.647   7.606   5.295  0.4871 -0.0954 -0.2046
  496MOL0     C65399   8.550   7.543   5.210 -0.4036 -0.2588  0.8402
  496MOL0     C65400   8.451   7.663   5.192  1.0404  0.1796  0.6191
  496MOL0     C65401   8.365   7.647   5.063 -0.8577 -0.4182  0.3553
  496MOL0     C65402   8.252   7.749   5.043  1.0914  0.1089 -0.3618
  496MOL0     C65403   8.127   7.700   5.104  1.2414  0.4650  0.5459
  496MOL0     C65404   8.019   7.651   5.138  0.3030 -0.2755  0.3261
  496MOL0     C65405   8.826   7.610   5.447 -0.0217 -0.4045  0.3943
  496MOL0     C65406   8.936   7.553   5.504 -0.4624  0.0440  0.4902
  496MOL0     H65407   9.379   7.558   5.734 -0.6253  0.8044 -0.8402
  496MOL0     H65408   9.628   7.491   5.750  2.4672  2.8077 -4.3615
  496MOL0     H65409   9.840   7.403   5.745 -0.4346  0.0794 -0.0560
  496MOL0     H65410   9.801   7.499   5.593 -1.5131  0.0416 -0.7668
  496MOL0     H65411   9.964   7.371   5.465  3.9879 -0.6776 -0.7198
  496MOL0     H65412   9.989   7.264   5.608 -0.9631 -0.9701 -2.3105
  496MOL0     H65413  10.055   7.434   5.757  2.0936  0.9759 -0.2400
  496MOL0     H65414  10.049   7.555   5.628 -3.2743  0.3279 -0.2834
  496MOL0     H65415  10.217   7.303   5.624  1.5036 -0.3164  0.4682
  496MOL0     H65416  10.223   7.434   5.500  1.2038  1.4371  0.3778
  496MOL0     H65417  10.294   7.485   5.788  1.6736 -0.3035  1.2342
  496MOL0     H65418  10.336   7.575   5.634  0.2256  0.9496  1.5190
  496MOL0     H65419  10.470   7.373   5.563 -0.6726 -0.1434 -0.1145
  496MOL0     H65420  10.413   7.281   5.699 -2.3304  0.2624 -0.6068
  496MOL0     H65421  10.535   7.544   5.766 -2.1056 -0.7926 -1.7573
  496MOL0     H65422  10.544   7.408   5.856 -0.7256  1.3726  0.2259
  496MOL0     H65423  10.766   7.456   5.748  0.4376 -1.8621  1.2997
  496MOL0     H65424  10.690   7.442   5.593 -0.3726  1.7673  0.9051
  496MOL0     H65425  10.706   7.225   5.907  1.2704  1.4332 -0.3934
  496MOL0     H65426  10.830   6.927   5.876  0.0176 -0.4274  0.1149
  496MOL0     H65427  10.707   6.849   5.766 -0.1671  0.4850 -0.6968
  496MOL0     H65428  10.529   6.954   5.932  0.2236  3.7777  1.9640
  496MOL0     H65429  10.659   7.015   6.029 -1.2885 -0.5820  0.2219
  496MOL0     H65430  10.601   6.718   5.997 -0.3102 -2.7705  2.9860
  496MOL0     H65431  10.764   6.777   6.041 -0.3803 -1.6348  0.4113
  496MOL0     H65432  10.655   6.903   6.232  2.5814 -1.4334 -1.8940
  496MOL0     H65433  10.619   6.732   6.241 -2.1192  0.3546  1.5287
  496MOL0     H65434  10.232   6.896   6.067  0.1189  0.2443 -2.2854
  496MOL0     H65435  10.060   6.710   6.006  0.3103  0.3331  0.5385
  496MOL0     H65436   9.702   6.602   6.008 -2.3438  0.6236 -1.2828
  496MOL0     H65437   9.520   6.498   5.951  1.9558  3.1606  1.2557
  496MOL0     H65438   9.438   6.371   5.729  0.2675 -2.3531 -2.2454
  496MOL0     H65439   9.318   6.356   5.865 -0.0077  0.2359  0.4186
  496MOL0     H65440   9.369   6.154   5.653  1.1848  1.6902 -0.0473
  496MOL0     H65441   9.233   6.254   5.669 -0.9826 -0.5807  3.3510
  496MOL0     H65442   9.152   6.153   5.869  0.6044  0.8690  0.4149
  496MOL0     H65443   9.302   6.064   5.891  0.2144  2.1331  0.6104
  496MOL0     H65444   9.116   6.026   5.648 -1.2016 -0.9595  0.9202
  496MOL0     H65445   9.248   5.914   5.703 -1.3102 -1.3783 -2.1075
  496MOL0     H65446   8.995   5.966   5.846  0.4151 -1.8474  1.6678
  496MOL0     H65447   9.136   5.880   5.907  0.2074  0.8013 -0.0652
  496MOL0     H65448   9.122   5.712   5.715 -0.2431 -0.6233  1.5225
  496MOL0     H65449   8.995   5.803   5.639  3.3020  0.5504 -2.4162
  496MOL0     H65450   8.989   5.614   5.875  2.9495 -0.7644 -2.4429
  496MOL0     H65451   8.889   5.759   5.896 -0.6103  0.3257 -0.4618
  496MOL0     H65452   8.767   5.702   5.686 -2.3364 -3.9653 -3.4198
  496MOL0     H65453   8.755   5.571   5.806 -0.9654  4.5020  2.8485
  496MOL0     H65454   9.715   6.105   5.912  0.4843 -0.3359 -0.7978
  496MOL0     H65455   9.926   6.212   5.984  0.7208  0.6595  1.7239
  496MOL0     H65456  10.312   6.423   6.190 -0.9144 -0.7240  0.8530
  496MOL0     H65457  10.479   6.572   6.233  0.0239 -1.9286 -2.9374
  496MOL0     H65458   9.539   7.189   5.455 -4.3582 -0.8144 -0.7712
  496MOL0     H65459   9.303   7.264   5.455 -1.2648 -1.6568  3.0688
  496MOL0     H65460   8.925   7.238   5.394  1.1753  0.0843  1.5380
  496MOL0     H65461   8.722   7.347   5.263  0.6071  1.3440 -0.5267
  496MOL0     H65462   8.516   7.456   5.267 -0.7651  0.1789  1.3039
  496MOL0     H65463   8.597   7.515   5.115 -0.1854  0.0037  0.8689
  496MOL0     H65464   8.381   7.676   5.275 -2.1802  0.9017 -2.0023
  496MOL0     H65465   8.513   7.751   5.171  1.3073  0.6207  2.9516
  496MOL0     H65466   8.328   7.544   5.050 -0.6179 -0.7420  2.0878
  496MOL0     H65467   8.426   7.653   4.972 -1.5040 -1.5262 -0.1814
  496MOL0     H65468   8.277   7.841   5.097  0.3397 -0.0745  0.3231
  496MOL0     H65469   8.235   7.772   4.937 -1.1728 -2.6234 -0.7120
  496MOL0     H65470   7.923   7.620   5.173 -0.6412 -0.5802 -2.3811
  496MOL0     H65471   8.790   7.711   5.465  2.0830  0.6391 -0.7618
  496MOL0     H65472   8.995   7.623   5.561  0.9769 -0.5554 -0.2144
  497MOL0     O65473   5.144   1.877   4.855 -0.1706  0.3031 -0.8843
  497MOL0     C65474   5.247   1.904   4.789 -0.3865  0.7232 -0.1366
  497MOL0     O65475   5.246   1.996   4.688 -1.3251  0.4303  0.4240
  497MOL0     C65476   5.133   2.068   4.673 -0.2574 -0.8595  0.4483
  497MOL0     C65477   5.056   2.063   4.558  0.5182  0.5850 -0.2225
  497MOL0     C65478   4.947   2.147   4.527 -0.8463 -0.6522 -0.9456
  497MOL0     C65479   4.928   2.257   4.616 -0.5378  0.0918 -0.0117
  497MOL0     O65480   4.827   2.349   4.603 -0.1629 -0.6161 -0.3094
  497MOL0     C65481   4.769   2.364   4.470 -0.1022  0.0158  0.3465
  497MOL0     C65482   4.718   2.501   4.439 -0.2553  0.5759 -0.1201
  497MOL0     C65483   4.568   2.542   4.474 -0.5570 -0.0500  0.2311
  497MOL0     C65484   4.529   2.685   4.414  0.2186  0.9800  0.3490
  497MOL0     C65485   4.401   2.747   4.486 -0.0637  0.6849 -1.0606
  497MOL0     C65486   4.276   2.666   4.471  0.0380  0.2099 -0.4616
  497MOL0     C65487   4.150   2.705   4.534 -0.0554 -0.8314 -0.3926
  497MOL0     C65488   4.035   2.613   4.516  0.6060  0.0781  0.1159
  497MOL0     N65489   3.903   2.653   4.585 -0.1365 -0.7357 -0.3966
  497MOL0     C65490   3.774   2.671   4.531 -0.2452 -0.6279 -0.6150
  497MOL0     C65491   3.692   2.690   4.639 -0.3099  1.0379  0.4321
  497MOL0     C65492   3.542   2.713   4.643 -0.5855 -0.2590  0.5559
  497MOL0     C65493   3.511   2.860   4.663 -0.8433 -0.1387  0.0613
  497MOL0     C65494   3.360   2.888   4.628 -0.3529  1.3743 -0.3259
  497MOL0     C65495   3.331   2.865   4.482  0.5356  0.2056 -0.7625
  497MOL0     O65496   3.215   2.939   4.441  0.2156 -0.4755 -0.1681
  497MOL0     C65497   3.099   2.895   4.496 -0.2941  0.3343  0.1575
  497MOL0     C65498   2.986   2.963   4.459 -0.3400  0.4717  0.2678
  497MOL0     C65499   2.855   2.933   4.501  0.6539 -0.8428  0.0868
  497MOL0     C65500   2.829   2.821   4.581 -0.0552 -0.6622  0.1217
  497MOL0     C65501   2.692   2.779   4.611  0.6262 -0.6625  0.2380
  497MOL0     O65502   2.669   2.654   4.654  0.6525  0.3801 -0.2264
  497MOL0     C65503   2.539   2.616   4.674 -0.4070 -0.0198 -0.1008
  497MOL0     C65504   2.471   2.530   4.590  0.2431  0.9479 -0.4318
  497MOL0     C65505   2.339   2.496   4.603 -0.0314 -0.7745 -0.3931
  497MOL0     C65506   2.274   2.555   4.708  1.1313 -0.3817 -0.2243
  497MOL0     O65507   2.138   2.544   4.733  0.2810  0.4165 -0.4117
  497MOL0     C65508   2.062   2.472   4.630  0.2736 -0.2342  0.2753
  497MOL0     C65509   1.911   2.455   4.671  0.2008 -0.1683  0.2439
  497MOL0     C65510   1.848   2.581   4.729 -0.3840  0.3069  0.2964
  497MOL0     C65511   1.697   2.558   4.758 -0.7133  1.1062  0.1363
  497MOL0     C65512   1.668   2.449   4.863 -0.2102 -0.0290  0.4376
  497MOL0     C65513   1.708   2.495   5.003 -0.4183  0.5821  0.0278
  497MOL0     C65514   1.647   2.401   5.112 -0.5203 -0.3723  0.2936
  497MOL0     C65515   1.646   2.252   5.079 -0.1619 -0.3045  0.0491
  497MOL0    Cl65516   1.606   2.161   5.223  0.2521  0.1023 -0.1749
  497MOL0     C65517   2.332   2.634   4.805 -0.6355  0.2408 -0.0328
  497MOL0     C65518   2.475   2.650   4.785  0.6800 -0.6933 -0.3353
  497MOL0     O65519   2.601   2.854   4.575  0.2461 -0.4331 -0.3165
  497MOL0     C65520   2.942   2.747   4.619 -0.0907  0.3172  0.5822
  497MOL0     C65521   3.074   2.774   4.571 -0.1431 -0.8309 -0.4386
  497MOL0     N65522   3.771   2.675   4.745 -0.8249  0.4211  0.1394
  497MOL0     N65523   3.892   2.661   4.711 -0.9435  0.6668 -1.4085
  497MOL0     C65524   5.000   2.269   4.735 -0.2926  0.2951 -0.3829
  497MOL0     C65525   5.096   2.168   4.769 -0.1501  0.6860 -0.0120
  497MOL0     C65526   5.373   1.826   4.808  0.3942  0.3219  0.3712
  497MOL0     C65527   5.485   1.839   4.717 -0.6205 -0.5302 -0.3503
  497MOL0     C65528   5.598   1.755   4.737  0.8600  1.6115  0.0480
  497MOL0     C65529   5.605   1.659   4.845 -0.5674  0.7257  0.6576
  497MOL0     O65530   5.714   1.591   4.884 -0.0373  0.7436  0.1487
  497MOL0     C65531   5.839   1.613   4.812 -1.3693 -0.3312 -0.8605
  497MOL0     C65532   5.857   1.544   4.679 -0.3433  0.0168 -0.2268
  497MOL0     C65533   5.833   1.394   4.697  0.1203 -0.4522  0.8381
  497MOL0     C65534   5.929   1.290   4.631  0.2624  0.2964 -0.5284
  497MOL0     C65535   6.066   1.293   4.689  0.5359 -0.0632  0.2892
  497MOL0     C65536   6.185   1.320   4.719 -0.5371  0.7798 -0.4184
  497MOL0     C65537   5.494   1.647   4.927 -0.8219 -0.9865  0.3557
  497MOL0     C65538   5.387   1.724   4.908 -0.0171 -0.6274 -0.4707
  497MOL0     H65539   5.088   1.986   4.489 -2.0524 -0.7306 -0.0418
  497MOL0     H65540   4.899   2.147   4.430  1.3737  1.9480 -2.1787
  497MOL0     H65541   4.691   2.290   4.450  0.1851  0.0790 -1.1452
  497MOL0     H65542   4.847   2.347   4.396 -0.3976 -0.3120  0.1049
  497MOL0     H65543   4.736   2.510   4.331  3.3584 -1.7680  0.1223
  497MOL0     H65544   4.780   2.579   4.486 -1.6714  1.2798  0.6376
  497MOL0     H65545   4.539   2.539   4.579  0.0570 -0.1790  0.4044
  497MOL0     H65546   4.501   2.461   4.444  0.1636 -1.7482  2.8076
  497MOL0     H65547   4.619   2.747   4.422  0.6289  1.0133 -3.1767
  497MOL0     H65548   4.511   2.695   4.307  0.1874 -0.1951  0.2294
  497MOL0     H65549   4.381   2.844   4.439 -4.3024 -0.7692 -2.6887
  497MOL0     H65550   4.410   2.764   4.593 -2.4127  1.5066 -0.9508
  497MOL0     H65551   4.303   2.566   4.504  0.8302  0.8744  1.0054
  497MOL0     H65552   4.262   2.663   4.362  0.1515 -0.8423 -0.4499
  497MOL0     H65553   4.172   2.719   4.640  1.2346 -0.9211 -0.6246
  497MOL0     H65554   4.121   2.804   4.497 -3.0631 -1.1309  0.8956
  497MOL0     H65555   4.071   2.517   4.553  0.7784 -0.6658 -1.8476
  497MOL0     H65556   4.015   2.593   4.410 -0.8284 -4.0247  0.9622
  497MOL0     H65557   3.747   2.657   4.427 -1.3102 -1.2897 -0.2652
  497MOL0     H65558   3.515   2.649   4.728 -1.2501  0.4814  0.9204
  497MOL0     H65559   3.503   2.682   4.546  0.3758  0.5704 -0.1138
  497MOL0     H65560   3.571   2.917   4.591 -2.7131  0.1862 -1.2976
  497MOL0     H65561   3.533   2.893   4.765  1.1930  0.5960 -0.5530
  497MOL0     H65562   3.310   2.820   4.697  2.3211  0.0249  0.4195
  497MOL0     H65563   3.340   2.993   4.649 -0.5426  1.4319 -0.7754
  497MOL0     H65564   3.308   2.762   4.453 -2.2477  0.1964  1.0928
  497MOL0     H65565   3.411   2.906   4.420  0.4811  1.2737 -0.1408
  497MOL0     H65566   2.984   3.050   4.395  2.0221  0.9329  0.7075
  497MOL0     H65567   2.785   2.995   4.446  1.1643 -1.4266 -1.2595
  497MOL0     H65568   2.526   2.493   4.504  3.3388 -0.8147  2.1040
  497MOL0     H65569   2.293   2.428   4.531 -0.3532  0.7438 -1.6700
  497MOL0     H65570   2.102   2.375   4.601 -1.0389 -0.4814 -0.8235
  497MOL0     H65571   2.074   2.519   4.532  3.5968 -1.4114  0.0090
  497MOL0     H65572   1.916   2.378   4.749  1.7886  0.8812  1.2443
  497MOL0     H65573   1.861   2.420   4.580  0.8410  0.5007 -0.3831
  497MOL0     H65574   1.847   2.657   4.651 -3.3958  1.1468  1.0409
  497MOL0     H65575   1.898   2.612   4.821 -1.0005 -0.0466  0.7637
  497MOL0     H65576   1.665   2.653   4.802 -0.3777  1.5111 -0.4728
  497MOL0     H65577   1.637   2.530   4.671  1.2261 -1.6115 -0.4530
  497MOL0     H65578   1.717   2.353   4.845  0.7187  0.1055  2.0470
  497MOL0     H65579   1.560   2.435   4.856 -0.3554  1.5968 -2.1833
  497MOL0     H65580   1.677   2.599   5.013  0.4130  0.9323 -0.8687
  497MOL0     H65581   1.816   2.484   5.017 -0.3263 -2.8802 -2.2282
  497MOL0     H65582   1.709   2.415   5.201  1.6422 -1.7889 -0.9135
  497MOL0     H65583   1.547   2.444   5.129 -0.3164  1.0441 -1.6944
  497MOL0     H65584   1.748   2.236   5.043  0.9262  3.2120  1.1760
  497MOL0     H65585   1.567   2.231   5.006  0.4245 -0.5173 -0.5396
  497MOL0     H65586   2.278   2.674   4.890  2.9536 -0.0348  2.6204
  497MOL0     H65587   2.531   2.704   4.860 -2.9400  3.3431 -0.1677
  497MOL0     H65588   2.929   2.651   4.668 -0.6377  1.2766  2.4271
  497MOL0     H65589   3.146   2.703   4.612 -1.9395 -1.8085  1.1786
  497MOL0     H65590   4.988   2.349   4.807  1.4656  0.4612 -0.2443
  497MOL0     H65591   5.165   2.176   4.852  2.5812  0.6753 -2.1195
  497MOL0     H65592   5.487   1.926   4.652  2.0050  1.2432  1.8960
  497MOL0     H65593   5.684   1.781   4.675  1.5821  0.3401  0.4757
  497MOL0     H65594   5.913   1.564   4.876  0.5032  1.5391 -1.5008
  497MOL0     H65595   5.857   1.721   4.808 -1.7673 -0.2219 -0.0216
  497MOL0     H65596   5.793   1.600   4.611 -0.7188 -0.1039  0.0252
  497MOL0     H65597   5.962   1.556   4.650 -0.0890 -1.1277  0.1657
  497MOL0     H65598   5.731   1.369   4.665  0.2170 -1.4282  1.2386
  497MOL0     H65599   5.832   1.374   4.804  0.4235 -0.4225  0.8476
  497MOL0     H65600   5.889   1.189   4.646 -0.9478  0.2054 -3.7156
  497MOL0     H65601   5.928   1.301   4.522 -2.0130  0.4553 -0.5292
  497MOL0     H65602   6.283   1.352   4.748  0.5896 -2.1562 -0.6894
  497MOL0     H65603   5.501   1.570   5.003  1.3378 -0.8365  0.3717
  497MOL0     H65604   5.295   1.696   4.958  0.2234  1.8889  1.5645
  498MOL0     O65605   7.105   0.945   2.608  0.4185  0.0864 -0.3116
  498MOL0     C65606   7.083   0.869   2.517 -0.5694  0.0246 -0.0454
  498MOL0     O65607   6.971   0.858   2.451  0.2903 -0.3165  0.0779
  498MOL0     C65608   6.861   0.929   2.498  0.2981  0.4366  0.1338
  498MOL0     C65609   6.791   1.021   2.408  0.4778  0.0249  0.4410
  498MOL0     C65610   6.668   1.075   2.443 -0.4239 -0.3495 -0.5856
  498MOL0     C65611   6.625   1.061   2.581 -0.5336  0.0464 -0.4003
  498MOL0     O65612   6.505   1.109   2.634 -0.1689 -0.3179  0.2754
  498MOL0     C65613   6.392   1.116   2.551 -0.1334 -0.8178 -0.2034
  498MOL0     C65614   6.260   1.112   2.633 -0.1654 -0.3012 -0.5129
  498MOL0     C65615   6.214   1.231   2.703  0.7785 -0.5455 -0.6979
  498MOL0     C65616   6.115   1.197   2.806  0.8795  0.6782  0.5676
  498MOL0     C65617   5.971   1.193   2.752  0.0399  0.4242  0.0998
  498MOL0     C65618   5.870   1.140   2.863 -0.0808  0.1572 -0.2297
  498MOL0     C65619   5.723   1.136   2.807  0.6640 -0.6052 -0.2734
  498MOL0     C65620   5.623   1.153   2.922  0.3344  0.3889  0.2097
  498MOL0     N65621   5.490   1.162   2.866 -0.3113  0.3057  0.1454
  498MOL0     C65622   5.422   1.272   2.829 -0.7254 -0.1335  0.6574
  498MOL0     C65623   5.305   1.235   2.764  0.1835  0.1329 -0.9857
  498MOL0     C65624   5.200   1.327   2.713 -0.3532 -0.0456  1.0236
  498MOL0     C65625   5.156   1.432   2.815  1.0743 -0.3012  0.6488
  498MOL0     C65626   5.125   1.566   2.738 -0.2622 -0.3570  0.2814
  498MOL0     C65627   5.024   1.548   2.623 -0.0125 -0.3096  0.0476
  498MOL0     O65628   4.898   1.488   2.680  0.4025 -0.5968  1.3987
  498MOL0     C65629   4.797   1.471   2.588 -0.4451 -0.8164  0.3213
  498MOL0     C65630   4.777   1.555   2.478 -0.4633 -0.3576  0.3562
  498MOL0     C65631   4.659   1.546   2.412  0.5128  0.3652  0.1162
  498MOL0     C65632   4.556   1.448   2.445  0.6294  0.4676  1.0428
  498MOL0     C65633   4.425   1.452   2.381  0.3412  0.1883  0.9969
  498MOL0     O65634   4.324   1.377   2.424 -0.8964  0.3962  0.2569
  498MOL0     C65635   4.199   1.389   2.369  0.2273 -0.0263  0.0900
  498MOL0     C65636   4.094   1.455   2.437 -0.0383 -0.0702  0.3281
  498MOL0     C65637   3.958   1.465   2.382 -0.5976 -0.5183 -0.3218
  498MOL0     C65638   3.938   1.409   2.260 -0.6582 -0.2694  0.2358
  498MOL0     O65639   3.818   1.424   2.217 -0.2282  0.2998  0.5683
  498MOL0     C65640   3.738   1.310   2.204 -0.0579  0.3638  0.0409
  498MOL0     C65641   3.605   1.381   2.148  0.5346 -0.6193 -0.4100
  498MOL0     C65642   3.496   1.278   2.155 -0.0609  0.1507  0.4360
  498MOL0     C65643   3.439   1.261   2.293 -0.1708  0.9121  0.2263
  498MOL0     C65644   3.338   1.149   2.286  0.1578  0.1164 -0.4850
  498MOL0     C65645   3.271   1.136   2.422 -0.2938 -0.3041 -0.3184
  498MOL0     C65646   3.138   1.047   2.426  0.3081  0.5132  0.4682
  498MOL0     C65647   3.091   1.045   2.573  0.0646  0.4460 -0.5193
  498MOL0    Cl65648   2.911   1.006   2.588 -0.0487  0.0904  0.1922
  498MOL0     C65649   4.045   1.347   2.186  0.0138  0.3121  0.3871
  498MOL0     C65650   4.170   1.328   2.243  0.0084 -0.1585 -0.4231
  498MOL0     O65651   4.414   1.535   2.291  0.3840 -0.0070 -0.4971
  498MOL0     C65652   4.583   1.363   2.554 -0.5299  0.5990 -0.1642
  498MOL0     C65653   4.707   1.371   2.621  0.6739 -0.7664  0.2324
  498MOL0     N65654   5.310   1.093   2.777  0.2982 -0.0855  0.2835
  498MOL0     N65655   5.419   1.055   2.832  0.3840  0.0140  0.3551
  498MOL0     C65656   6.691   0.977   2.667 -0.4905  0.7010 -0.2499
  498MOL0     C65657   6.806   0.906   2.624  0.4155  0.5484  0.1451
  498MOL0     C65658   7.202   0.792   2.468  0.0110  0.1962 -0.9779
  498MOL0     C65659   7.190   0.673   2.399  0.8804 -0.9081  1.0205
  498MOL0     C65660   7.306   0.606   2.360  0.3396  0.1402 -0.3080
  498MOL0     C65661   7.436   0.658   2.382 -1.1128 -0.1423 -0.1007
  498MOL0     O65662   7.550   0.586   2.339  0.0831 -0.0043 -0.7416
  498MOL0     C65663   7.666   0.662   2.288 -1.1208  0.0602 -0.3306
  498MOL0     C65664   7.766   0.697   2.406 -0.0770  0.0744 -0.4047
  498MOL0     C65665   7.904   0.698   2.360 -0.1188 -0.6295 -0.3008
  498MOL0     C65666   7.995   0.756   2.468 -0.0284  0.0369 -0.0764
  498MOL0     C65667   8.133   0.757   2.424 -0.2443 -0.1794 -0.4357
  498MOL0     C65668   8.246   0.758   2.373  0.5030  0.0880  0.3445
  498MOL0     C65669   7.450   0.780   2.444  0.5011 -0.2589  0.0219
  498MOL0     C65670   7.329   0.846   2.483  0.7859 -0.2358  0.1730
  498MOL0     H65671   6.830   1.048   2.310  1.8682  0.3699  1.0788
  498MOL0     H65672   6.615   1.147   2.381 -2.3872 -1.3546 -0.1648
  498MOL0     H65673   6.380   1.026   2.490 -0.7291 -0.4986 -0.5745
  498MOL0     H65674   6.392   1.206   2.489  2.2792 -1.6294 -1.4766
  498MOL0     H65675   6.260   1.029   2.704 -1.2061 -1.2896 -1.6108
  498MOL0     H65676   6.190   1.078   2.556 -0.2845 -0.7906 -0.1951
  498MOL0     H65677   6.179   1.293   2.620 -1.6558 -2.3409 -1.1309
  498MOL0     H65678   6.295   1.290   2.749 -2.5978  1.5523  3.2362
  498MOL0     H65679   6.138   1.098   2.844  0.7698 -0.8895 -3.0466
  498MOL0     H65680   6.127   1.275   2.882 -0.3576  1.2150  0.2335
  498MOL0     H65681   5.972   1.116   2.674  0.7586 -0.7220  1.1978
  498MOL0     H65682   5.942   1.288   2.705 -0.3833  0.0958 -0.3132
  498MOL0     H65683   5.880   1.220   2.937  2.6942  0.9756 -1.3582
  498MOL0     H65684   5.913   1.048   2.904  0.6335  0.3667 -0.4924
  498MOL0     H65685   5.718   1.220   2.737  1.9143 -0.3607 -0.0890
  498MOL0     H65686   5.702   1.045   2.750  0.1578 -0.0955 -0.9105
  498MOL0     H65687   5.647   1.238   2.987 -2.4278  0.7294  0.8972
  498MOL0     H65688   5.608   1.066   2.986 -2.9417  1.9504  1.8379
  498MOL0     H65689   5.446   1.377   2.839  0.3027 -0.4797  2.1422
  498MOL0     H65690   5.112   1.276   2.673 -0.6229  0.8933  0.3772
  498MOL0     H65691   5.253   1.376   2.631 -1.4346 -2.1641 -1.0494
  498MOL0     H65692   5.237   1.457   2.884 -0.5414  0.2299  2.4329
  498MOL0     H65693   5.071   1.398   2.875  0.0145 -1.7487 -1.5264
  498MOL0     H65694   5.098   1.641   2.813  2.6050  0.2144  0.8529
  498MOL0     H65695   5.219   1.602   2.696  0.0094 -0.6217  0.6603
  498MOL0     H65696   5.060   1.486   2.540 -1.4926  0.2633 -1.0597
  498MOL0     H65697   5.002   1.641   2.571 -1.0934 -0.5246  0.1050
  498MOL0     H65698   4.858   1.624   2.457  0.6841 -1.7534  0.0616
  498MOL0     H65699   4.635   1.626   2.343 -0.4835 -0.0142  0.0092
  498MOL0     H65700   4.123   1.521   2.518 -3.9788 -1.3116  3.0276
  498MOL0     H65701   3.880   1.527   2.424 -0.8663  0.6537 -2.3867
  498MOL0     H65702   3.708   1.259   2.297 -0.8983  4.8360  2.5128
  498MOL0     H65703   3.767   1.244   2.122  2.4745  1.7905 -0.3331
  498MOL0     H65704   3.641   1.402   2.046  0.9276 -4.2461 -1.1604
  498MOL0     H65705   3.570   1.469   2.203 -1.4024 -1.3954 -0.3048
  498MOL0     H65706   3.532   1.183   2.115 -1.7209 -0.2794 -0.1016
  498MOL0     H65707   3.424   1.316   2.083  1.7614  2.3711 -0.3516
  498MOL0     H65708   3.509   1.243   2.375 -1.9404 -1.5623  1.3399
  498MOL0     H65709   3.397   1.358   2.321  0.9252  1.2018  0.9088
  498MOL0     H65710   3.397   1.058   2.268 -0.4478 -0.4286  0.2138
  498MOL0     H65711   3.264   1.162   2.207 -2.0492  0.4818  1.5208
  498MOL0     H65712   3.246   1.238   2.453  0.1379 -0.1993 -0.3134
  498MOL0     H65713   3.341   1.107   2.501 -0.6563  0.3137  0.2466
  498MOL0     H65714   3.066   1.084   2.352 -0.3619  2.4209  1.9941
  498MOL0     H65715   3.157   0.943   2.397 -0.9645  0.0919  1.0548
  498MOL0     H65716   3.117   1.141   2.617  2.2259  1.0460 -2.8407
  498MOL0     H65717   3.138   0.960   2.624 -1.4358 -0.9895 -1.4034
  498MOL0     H65718   4.014   1.299   2.093 -0.9203  5.0125 -2.0342
  498MOL0     H65719   4.249   1.269   2.197 -1.9147 -0.5781 -3.4611
  498MOL0     H65720   4.515   1.282   2.581 -0.7612 -0.3372 -3.1650
  498MOL0     H65721   4.730   1.307   2.705  2.9052  0.6419  0.7780
  498MOL0     H65722   6.644   0.954   2.762 -1.2763  1.6427 -0.3938
  498MOL0     H65723   6.852   0.816   2.664  0.4281  0.5815  0.2053
  498MOL0     H65724   7.101   0.614   2.377  0.6003 -0.6869  1.5471
  498MOL0     H65725   7.292   0.506   2.321 -4.1045 -0.4112  2.1074
  498MOL0     H65726   7.645   0.752   2.230  2.0927  1.3755  0.3066
  498MOL0     H65727   7.717   0.588   2.226 -2.1976  0.5675 -1.8659
  498MOL0     H65728   7.753   0.800   2.443 -0.3262  0.7834 -2.3478
  498MOL0     H65729   7.756   0.624   2.486  2.3946  0.6291  0.4788
  498MOL0     H65730   7.904   0.770   2.278 -1.8161  2.7528  2.3814
  498MOL0     H65731   7.942   0.602   2.324 -3.1671 -1.3706 -1.8542
  498MOL0     H65732   7.960   0.858   2.488 -1.1643 -0.8879  3.2523
  498MOL0     H65733   7.980   0.700   2.561  2.4955  0.9003  0.9316
  498MOL0     H65734   8.341   0.769   2.325 -1.0041  3.0268 -2.3838
  498MOL0     H65735   7.540   0.840   2.434 -0.9646  1.6457 -4.1601
  498MOL0     H65736   7.335   0.944   2.530 -1.7292 -0.4519  1.0704
  499MOL0     O65737   3.794   8.427   7.824  0.4491 -0.1441  0.7410
  499MOL0     C65738   3.861   8.526   7.818  0.6699 -0.1968 -1.5435
  499MOL0     O65739   3.817   8.648   7.809  0.1934  0.5405  0.4552
  499MOL0     C65740   3.682   8.675   7.836 -0.2719  0.7998 -0.6128
  499MOL0     C65741   3.601   8.725   7.738 -0.3320 -0.3149  0.1871
  499MOL0     C65742   3.471   8.769   7.764 -0.2343 -0.5562  0.1437
  499MOL0     C65743   3.424   8.771   7.898  1.0150 -0.9439  1.2655
  499MOL0     O65744   3.299   8.826   7.927  0.0062 -0.0086 -0.0132
  499MOL0     C65745   3.208   8.747   8.011  0.3810  0.6928 -0.2689
  499MOL0     C65746   3.066   8.804   7.998 -0.2100  0.4325 -0.2018
  499MOL0     C65747   2.985   8.752   7.880 -0.1171 -0.8905 -0.2286
  499MOL0     C65748   2.836   8.785   7.890 -0.2602  0.4594 -0.2042
  499MOL0     C65749   2.773   8.753   7.748 -0.3682  0.9271  0.4686
  499MOL0     C65750   2.776   8.602   7.702 -0.7470  0.4275 -0.3241
  499MOL0     C65751   2.696   8.563   7.570  0.1066  0.0024 -0.8596
  499MOL0     C65752   2.676   8.414   7.542  0.0399 -0.4571  0.2106
  499MOL0     N65753   2.810   8.355   7.572  0.6068  0.0182 -0.0253
  499MOL0     C65754   2.926   8.374   7.506 -0.7783 -0.0509 -0.1899
  499MOL0     C65755   3.027   8.321   7.575 -0.0812 -0.8115  0.5363
  499MOL0     C65756   3.169   8.325   7.535  0.2418 -0.1500 -0.5794
  499MOL0     C65757   3.241   8.447   7.594  0.2036  1.4696  0.6480
  499MOL0     C65758   3.392   8.453   7.560 -0.3194 -0.3406 -1.0518
  499MOL0     C65759   3.464   8.327   7.619 -0.1350 -0.2306  0.1320
  499MOL0     O65760   3.531   8.252   7.514  0.1083  0.4137 -0.1997
  499MOL0     C65761   3.647   8.300   7.457 -0.0306  0.4042 -0.8445
  499MOL0     C65762   3.695   8.233   7.345 -0.3785  0.6232 -0.3403
  499MOL0     C65763   3.826   8.276   7.296  0.8641 -0.5055  0.5520
  499MOL0     C65764   3.894   8.385   7.353 -0.6424  0.4251 -0.3050
  499MOL0     C65765   4.016   8.447   7.294 -0.0670  0.3682 -0.4319
  499MOL0     O65766   4.076   8.556   7.357 -0.9150 -0.4916  0.1219
  499MOL0     C65767   4.183   8.616   7.299  0.2933 -0.0727 -0.1345
  499MOL0     C65768   4.309   8.550   7.307  0.3856  0.3028 -0.1067
  499MOL0     C65769   4.432   8.593   7.261 -0.2602 -1.5963 -0.0047
  499MOL0     C65770   4.423   8.707   7.179 -0.5563 -0.2248  0.4992
  499MOL0     O65771   4.532   8.751   7.102 -0.2678  0.0622 -1.6118
  499MOL0     C65772   4.666   8.744   7.157  0.2724 -0.0139 -0.0387
  499MOL0     C65773   4.688   8.859   7.256 -0.0736 -0.5101  0.8669
  499MOL0     C65774   4.680   8.999   7.193  0.3325  0.5006  1.1685
  499MOL0     C65775   4.727   9.111   7.283 -0.0012 -0.0765  0.2341
  499MOL0     C65776   4.701   9.259   7.237  0.1775 -0.1533 -0.4573
  499MOL0     C65777   4.753   9.360   7.342 -0.3150  0.6549 -0.0038
  499MOL0     C65778   4.878   9.429   7.292 -0.1497  0.8522  0.8206
  499MOL0     C65779   5.000   9.339   7.282 -0.4290 -0.4189  0.3912
  499MOL0    Cl65780   5.146   9.437   7.230 -0.1929 -0.0621  0.0907
  499MOL0     C65781   4.299   8.762   7.153  0.8012  0.2270  0.3877
  499MOL0     C65782   4.180   8.716   7.208  0.6213 -0.0951 -0.4367
  499MOL0     O65783   4.058   8.393   7.192 -0.3472 -0.2462  0.1978
  499MOL0     C65784   3.829   8.451   7.450  0.0407  0.0834  0.7224
  499MOL0     C65785   3.711   8.416   7.500 -0.3936  0.5579 -0.7246
  499MOL0     N65786   2.967   8.263   7.686  0.5508  0.8365  0.7082
  499MOL0     N65787   2.841   8.295   7.689 -0.1345 -0.2979 -0.2173
  499MOL0     C65788   3.499   8.699   7.993 -0.0443  0.5647  0.1202
  499MOL0     C65789   3.622   8.647   7.956 -0.2146 -0.0043 -1.2074
  499MOL0     C65790   4.006   8.515   7.813 -0.1241  0.8140  1.3875
  499MOL0     C65791   4.082   8.404   7.853 -0.0011 -0.4830 -0.6075
  499MOL0     C65792   4.222   8.413   7.831  0.1894  0.8672 -0.3247
  499MOL0     C65793   4.276   8.510   7.744  0.2240  0.0677 -0.7035
  499MOL0     O65794   4.408   8.489   7.707  0.1830 -0.2732 -1.4561
  499MOL0     C65795   4.481   8.602   7.643  0.9894  0.3626  0.2591
  499MOL0     C65796   4.638   8.573   7.661  0.8391  0.7172 -0.3829
  499MOL0     C65797   4.703   8.704   7.620  0.3633 -0.5414 -0.7983
  499MOL0     C65798   4.845   8.688   7.582  0.3564  0.5808 -0.5745
  499MOL0     C65799   4.933   8.669   7.696 -0.4910  0.2411  0.1112
  499MOL0     C65800   5.009   8.649   7.790 -0.1983 -0.1787 -0.0583
  499MOL0     C65801   4.198   8.618   7.710  0.5590  0.1974  0.5861
  499MOL0     C65802   4.067   8.618   7.742 -0.3135  0.3721 -0.4313
  499MOL0     H65803   3.631   8.732   7.634 -3.7054 -2.6529 -1.1042
  499MOL0     H65804   3.410   8.814   7.686  1.3683 -0.9631 -1.4096
  499MOL0     H65805   3.239   8.756   8.115  1.7074 -2.9027 -0.2123
  499MOL0     H65806   3.213   8.640   7.989  2.8396  0.8477 -0.6952
  499MOL0     H65807   3.071   8.913   7.988  0.1770  0.6981  2.2540
  499MOL0     H65808   3.029   8.779   8.098  1.8024  2.6284  1.2216
  499MOL0     H65809   2.979   8.643   7.871 -0.5658 -1.1891  2.8507
  499MOL0     H65810   3.037   8.793   7.792  1.0299  2.9764  2.0085
  499MOL0     H65811   2.781   8.722   7.961 -1.3334  1.2407 -0.3248
  499MOL0     H65812   2.821   8.887   7.926  0.7986  1.2610 -1.9430
  499MOL0     H65813   2.822   8.821   7.679  2.2358 -0.0248  1.2662
  499MOL0     H65814   2.668   8.785   7.742 -1.5881 -2.7545 -1.6913
  499MOL0     H65815   2.742   8.541   7.786 -1.1832  1.6284  0.3862
  499MOL0     H65816   2.883   8.582   7.689 -0.1154  1.7653  2.2202
  499MOL0     H65817   2.592   8.596   7.575  0.0411 -0.3284  0.0048
  499MOL0     H65818   2.747   8.611   7.486 -1.1131 -0.0493 -1.6556
  499MOL0     H65819   2.662   8.397   7.434 -0.4785 -0.5682  0.2937
  499MOL0     H65820   2.589   8.372   7.593 -2.3693  2.2582 -1.3818
  499MOL0     H65821   2.942   8.418   7.408 -0.5848 -0.0578 -0.1627
  499MOL0     H65822   3.173   8.339   7.426  1.2725 -0.9036 -0.6509
  499MOL0     H65823   3.212   8.226   7.554 -1.9222 -1.0066  0.0700
  499MOL0     H65824   3.225   8.458   7.701  0.9701  0.8111  0.8427
  499MOL0     H65825   3.201   8.539   7.551 -1.1987  1.8748  2.6918
  499MOL0     H65826   3.411   8.451   7.452  0.9209 -0.7571 -0.8407
  499MOL0     H65827   3.433   8.540   7.613 -3.5429  1.1577 -0.8237
  499MOL0     H65828   3.400   8.257   7.673  1.3585 -1.5274  0.3027
  499MOL0     H65829   3.529   8.355   7.703 -0.2312  0.2679  0.0474
  499MOL0     H65830   3.642   8.148   7.302  1.1012 -0.8407  0.5899
  499MOL0     H65831   3.875   8.229   7.211  0.1742 -2.4437  1.1731
  499MOL0     H65832   4.318   8.468   7.378 -3.6326 -0.7722 -0.5646
  499MOL0     H65833   4.525   8.537   7.267  1.1484  0.6638  0.6788
  499MOL0     H65834   4.727   8.750   7.066 -0.0230  2.8358 -0.1194
  499MOL0     H65835   4.692   8.654   7.213  0.2724 -0.6673 -1.0588
  499MOL0     H65836   4.776   8.849   7.321  0.1869 -0.1369  0.5772
  499MOL0     H65837   4.599   8.868   7.318 -1.9463 -1.1005 -1.5763
  499MOL0     H65838   4.581   9.020   7.152  0.5136 -1.9326 -0.8148
  499MOL0     H65839   4.757   8.995   7.115  1.2603 -0.8511  2.0914
  499MOL0     H65840   4.677   9.095   7.379 -0.9610 -3.9628 -0.7372
  499MOL0     H65841   4.832   9.100   7.313 -0.4932  1.4938  2.8423
  499MOL0     H65842   4.595   9.270   7.212 -0.1544  2.7408  1.6483
  499MOL0     H65843   4.747   9.268   7.138 -2.7590  0.0444 -1.9000
  499MOL0     H65844   4.759   9.300   7.433 -0.6648  0.6074 -0.0094
  499MOL0     H65845   4.669   9.428   7.361 -0.2839 -0.2287  4.1739
  499MOL0     H65846   4.857   9.461   7.190  1.0510  0.5447  0.4596
  499MOL0     H65847   4.895   9.513   7.361 -1.6231  0.8785  1.1935
  499MOL0     H65848   4.988   9.268   7.199  2.6360 -1.4834  0.7137
  499MOL0     H65849   5.017   9.279   7.372 -1.7075 -2.2265 -0.4952
  499MOL0     H65850   4.303   8.849   7.088  1.7137  0.8248  1.2076
  499MOL0     H65851   4.084   8.754   7.176 -1.2004 -0.1166  4.2417
  499MOL0     H65852   3.874   8.530   7.509  0.7144  0.2162  0.0363
  499MOL0     H65853   3.684   8.471   7.589 -1.2103 -0.1512 -0.5232
  499MOL0     H65854   3.468   8.692   8.097  1.7181  0.9825  0.7052
  499MOL0     H65855   3.692   8.608   8.030  0.9999 -0.0363 -2.3426
  499MOL0     H65856   4.034   8.318   7.899 -0.1930  0.3565  0.8482
  499MOL0     H65857   4.288   8.334   7.863 -0.1274  0.3326 -0.9740
  499MOL0     H65858   4.466   8.699   7.691  0.9052  0.3596  0.2369
  499MOL0     H65859   4.456   8.609   7.537  0.6007  1.2816  0.4056
  499MOL0     H65860   4.663   8.546   7.764 -2.1147 -0.1165  0.2255
  499MOL0     H65861   4.668   8.494   7.593 -0.4461  0.2480 -0.4348
  499MOL0     H65862   4.682   8.775   7.700  0.2737 -2.5492  1.0681
  499MOL0     H65863   4.650   8.736   7.530 -1.7141 -3.1254 -0.6231
  499MOL0     H65864   4.844   8.596   7.523 -0.2147 -0.8899  1.5797
  499MOL0     H65865   4.883   8.776   7.530  1.5663  1.0164  0.9476
  499MOL0     H65866   5.086   8.636   7.863  1.4988 -0.5457 -1.8402
  499MOL0     H65867   4.245   8.690   7.644  5.7797 -3.0534  0.2169
  499MOL0     H65868   4.012   8.700   7.696 -1.0697 -0.4755 -1.0904
  500MOL0     O65869  11.017   5.250   4.830  0.5533  0.1633  0.1126
  500MOL0     C65870  11.033   5.149   4.895  0.4490 -1.1457  0.0983
  500MOL0     O65871  10.931   5.063   4.923 -0.3923  0.5951 -0.1487
  500MOL0     C65872  10.816   5.079   4.852 -0.6537 -0.1533  1.1253
  500MOL0     C65873  10.798   5.045   4.717  0.3661 -0.2331  0.8079
  500MOL0     C65874  10.667   5.061   4.658 -0.1342 -0.5021  0.0105
  500MOL0     C65875  10.564   5.110   4.733  0.2403  0.3851 -0.3624
  500MOL0     O65876  10.448   5.109   4.659  1.0582  0.1338 -0.4115
  500MOL0     C65877  10.337   5.038   4.709  0.0230  0.4610 -0.1673
  500MOL0     C65878  10.318   4.894   4.647 -0.1151 -0.3461  0.7167
  500MOL0     C65879  10.269   4.886   4.501 -0.9408 -0.1118 -0.8924
  500MOL0     C65880  10.374   4.949   4.408 -0.4944 -0.3085  0.3657
  500MOL0     C65881  10.353   4.925   4.266  0.2294 -0.9410 -0.0442
  500MOL0     C65882  10.453   5.011   4.175 -0.2440  0.3968 -0.4416
  500MOL0     C65883  10.411   5.058   4.046 -0.7658  0.5491  0.1193
  500MOL0     C65884  10.392   4.953   3.931  0.4667  0.5872 -0.8373
  500MOL0     N65885  10.313   5.010   3.825 -0.9413  0.1158  0.0215
  500MOL0     C65886  10.177   5.033   3.834 -0.5815  0.1288  0.4617
  500MOL0     C65887  10.144   5.097   3.724  0.3448  0.3001 -0.8137
  500MOL0     C65888  10.007   5.143   3.696  0.3726  0.4659  0.1827
  500MOL0     C65889   9.968   5.108   3.551 -0.0173 -0.5089 -0.5542
  500MOL0     C65890   9.948   5.228   3.458 -0.5468 -0.4260  0.2494
  500MOL0     C65891   9.809   5.295   3.479 -0.2109 -0.0787 -0.0678
  500MOL0     O65892   9.706   5.216   3.425  0.4523 -0.0705  0.4698
  500MOL0     C65893   9.584   5.278   3.428  0.0148  0.5877  0.8994
  500MOL0     C65894   9.555   5.410   3.481 -0.2513  0.4968 -0.3242
  500MOL0     C65895   9.427   5.461   3.481  0.3859  0.8629 -0.0474
  500MOL0     C65896   9.328   5.392   3.416 -0.6512  0.5894  0.7748
  500MOL0     C65897   9.197   5.456   3.390 -0.6291 -0.1121  0.3505
  500MOL0     O65898   9.123   5.409   3.289  0.3844  0.4067  0.6535
  500MOL0     C65899   8.984   5.435   3.278 -0.4977 -0.8354  0.3555
  500MOL0     C65900   8.915   5.450   3.156  0.8957  0.8255 -0.2945
  500MOL0     C65901   8.781   5.467   3.148 -0.3332 -0.5092  0.0728
  500MOL0     C65902   8.703   5.475   3.259 -0.3153  0.5147  0.0672
  500MOL0     O65903   8.567   5.487   3.241 -0.5851 -0.3329 -0.1296
  500MOL0     C65904   8.472   5.436   3.329  0.5126 -0.4910  1.0381
  500MOL0     C65905   8.349   5.396   3.243 -0.4378 -0.1583 -0.2619
  500MOL0     C65906   8.292   5.517   3.165 -0.1900 -0.3059  0.1492
  500MOL0     C65907   8.170   5.470   3.079 -0.4225  0.4805  0.1284
  500MOL0     C65908   8.083   5.586   3.048  1.0396 -0.2883  0.9211
  500MOL0     C65909   8.132   5.679   2.941  0.5062 -0.2706  0.2500
  500MOL0     C65910   8.153   5.611   2.811  0.4760 -1.0191 -0.2238
  500MOL0     C65911   8.037   5.529   2.749 -0.7271  0.0806  0.1045
  500MOL0    Cl65912   7.888   5.627   2.742 -0.3389  0.5147  0.0465
  500MOL0     C65913   8.766   5.455   3.380  0.1240 -0.0952  0.6547
  500MOL0     C65914   8.903   5.422   3.386  0.5578  0.2159  0.1900
  500MOL0     O65915   9.156   5.534   3.472  0.3113  0.5220 -0.3035
  500MOL0     C65916   9.355   5.268   3.356 -0.1835 -0.0028  0.3662
  500MOL0     C65917   9.482   5.207   3.370  0.1278 -0.3496  1.0734
  500MOL0     N65918  10.259   5.135   3.658  1.0979 -0.0492 -0.2169
  500MOL0     N65919  10.359   5.060   3.707  0.3313 -0.4085 -0.0897
  500MOL0     C65920  10.578   5.130   4.869  0.0765  0.9855 -0.1441
  500MOL0     C65921  10.707   5.121   4.923 -0.0355 -0.4313 -0.0100
  500MOL0     C65922  11.171   5.095   4.927  0.1789 -0.5541 -0.6986
  500MOL0     C65923  11.184   4.964   4.973  0.4488  0.8427 -0.5730
  500MOL0     C65924  11.314   4.906   4.998  0.3270  0.6865 -0.6401
  500MOL0     C65925  11.433   4.986   4.971  0.8630 -0.1374 -0.2228
  500MOL0     O65926  11.558   4.931   4.978 -0.6047  0.2478 -0.0135
  500MOL0     C65927  11.590   4.825   5.071 -0.6888 -0.0509  0.3350
  500MOL0     C65928  11.737   4.845   5.117  0.5527 -0.0851  1.1775
  500MOL0     C65929  11.751   4.986   5.187 -0.3588 -0.2101 -1.1165
  500MOL0     C65930  11.901   4.996   5.239  0.5064  0.0465  0.6632
  500MOL0     C65931  11.911   4.915   5.360  0.6487  0.3064 -0.6753
  500MOL0     C65932  11.934   4.833   5.446  0.4622  0.4873  0.1528
  500MOL0     C65933  11.415   5.116   4.927  0.2022 -0.8640 -0.6322
  500MOL0     C65934  11.281   5.168   4.902 -0.3370  0.4896  0.4331
  500MOL0     H65935  10.877   5.007   4.652 -0.5314  0.5288 -0.7823
  500MOL0     H65936  10.647   5.034   4.555 -1.6395  2.7764 -0.7151
  500MOL0     H65937  10.246   5.096   4.688  0.3710  0.6465 -1.2294
  500MOL0     H65938  10.334   5.034   4.818 -1.6811  0.2214 -0.1819
  500MOL0     H65939  10.241   4.858   4.716 -0.0105 -1.2395  0.3860
  500MOL0     H65940  10.407   4.837   4.675 -1.7094 -2.8169  1.1684
  500MOL0     H65941  10.172   4.934   4.488 -1.3161 -0.8894 -0.9681
  500MOL0     H65942  10.262   4.779   4.482 -3.6769  0.3995 -3.4502
  500MOL0     H65943  10.382   5.057   4.424 -0.6047 -0.3224  0.5156
  500MOL0     H65944  10.471   4.911   4.441 -0.6280  0.7151  2.0673
  500MOL0     H65945  10.249   4.958   4.264  0.0186 -1.3834  1.7741
  500MOL0     H65946  10.362   4.821   4.232  0.9987 -0.3934 -1.6445
  500MOL0     H65947  10.549   4.959   4.176 -0.6073 -0.3236  1.4204
  500MOL0     H65948  10.483   5.098   4.234  0.8635 -1.4417  1.8745
  500MOL0     H65949  10.312   5.099   4.072 -1.3683 -0.7452 -0.0681
  500MOL0     H65950  10.480   5.137   4.015  2.3236 -1.8223  0.5542
  500MOL0     H65951  10.343   4.861   3.966  1.9177 -0.5628 -1.7051
  500MOL0     H65952  10.485   4.911   3.891  2.1751 -2.9319  5.4510
  500MOL0     H65953  10.101   4.990   3.899 -0.4102 -2.4329 -0.8899
  500MOL0     H65954  10.008   5.253   3.701  2.7996  0.5220 -0.1898
  500MOL0     H65955   9.941   5.090   3.765  1.6980 -2.5541 -0.7175
  500MOL0     H65956   9.874   5.052   3.558  0.5879 -1.5010 -0.1193
  500MOL0     H65957  10.036   5.042   3.496  1.0540  0.7590 -0.8073
  500MOL0     H65958  10.032   5.298   3.460  0.5861 -1.7533  0.4225
  500MOL0     H65959   9.952   5.197   3.353 -0.6173 -3.7900  1.1332
  500MOL0     H65960   9.802   5.387   3.421  0.6297 -0.0613 -0.1562
  500MOL0     H65961   9.797   5.330   3.582  1.3712 -0.6774  0.3615
  500MOL0     H65962   9.629   5.471   3.532 -0.6156  1.5323 -1.0044
  500MOL0     H65963   9.410   5.552   3.538  1.5439  1.2498 -0.2953
  500MOL0     H65964   8.960   5.459   3.057 -0.8802  0.5707 -1.1564
  500MOL0     H65965   8.743   5.475   3.047 -0.3536  0.5480  0.1489
  500MOL0     H65966   8.436   5.513   3.397  1.3336 -0.8550  1.9047
  500MOL0     H65967   8.515   5.348   3.378  1.2914  1.1942  3.5861
  500MOL0     H65968   8.273   5.354   3.308  0.4092 -0.0597  0.8193
  500MOL0     H65969   8.376   5.322   3.167  1.2453  2.8204 -2.8252
  500MOL0     H65970   8.366   5.551   3.093 -0.3192 -0.7297 -0.1913
  500MOL0     H65971   8.260   5.602   3.226  1.5205  0.8497 -0.5118
  500MOL0     H65972   8.207   5.424   2.987  2.0005  2.8580 -0.1979
  500MOL0     H65973   8.102   5.401   3.131 -0.6910 -1.5024 -2.6388
  500MOL0     H65974   8.078   5.641   3.142  2.2186  0.2492  0.6941
  500MOL0     H65975   7.988   5.544   3.016  0.5304  2.1425 -1.0936
  500MOL0     H65976   8.230   5.714   2.972  1.3012 -2.2017  0.0578
  500MOL0     H65977   8.066   5.766   2.942  1.8005  0.8697 -2.5527
  500MOL0     H65978   8.183   5.684   2.736 -1.1341 -1.4920 -1.3895
  500MOL0     H65979   8.243   5.551   2.828  1.1104 -0.6347 -2.0029
  500MOL0     H65980   8.020   5.439   2.808 -0.0248 -2.0569 -2.7466
  500MOL0     H65981   8.056   5.487   2.649 -2.5901 -2.9189  0.8785
  500MOL0     H65982   8.705   5.446   3.469 -1.4168  0.9350 -0.2693
  500MOL0     H65983   8.938   5.406   3.487  1.6570 -0.2514 -0.2430
  500MOL0     H65984   9.272   5.213   3.313  0.9129 -1.1721 -0.3306
  500MOL0     H65985   9.497   5.108   3.329  3.1828  0.2512  0.4839
  500MOL0     H65986  10.490   5.132   4.931  0.2308 -0.2301  0.1380
  500MOL0     H65987  10.730   5.122   5.029  2.8266 -3.2486 -0.4664
  500MOL0     H65988  11.095   4.903   4.984 -0.3367  2.2054  1.1420
  500MOL0     H65989  11.317   4.805   5.038 -1.2174  0.4293 -1.0982
  500MOL0     H65990  11.575   4.728   5.023  0.3682 -0.6035  1.0772
  500MOL0     H65991  11.535   4.824   5.166  0.9366 -0.9504  1.3066
  500MOL0     H65992  11.763   4.761   5.182 -1.7650 -0.4381  1.7496
  500MOL0     H65993  11.807   4.838   5.034 -2.1484  0.0217 -1.2467
  500MOL0     H65994  11.687   5.000   5.275 -1.7303  0.7128 -2.1959
  500MOL0     H65995  11.724   5.064   5.115 -0.3999  1.0817  0.2439
  500MOL0     H65996  11.966   4.972   5.154 -1.3698 -3.5300  0.0280
  500MOL0     H65997  11.919   5.101   5.263 -4.0334  1.3701 -0.5787
  500MOL0     H65998  11.962   4.764   5.522 -1.9543 -0.2852  0.4019
  500MOL0     H65999  11.494   5.190   4.910 -2.1037  1.4376 -2.0315
  500MOL0     H66000  11.262   5.265   4.856  0.1879  0.8491  0.9721
  501MOL0     O66001   8.044   0.076   5.094  0.1797  0.4579 -0.3801
  501MOL0     C66002   8.014   0.185   5.144 -0.4884 -0.7680  0.6419
  501MOL0     O66003   8.102   0.272   5.210 -0.8345 -0.2901  0.9426
  501MOL0     C66004   8.229   0.234   5.245  0.4067  0.1294 -0.3508
  501MOL0     C66005   8.266   0.104   5.289 -1.1366  0.2259 -0.5623
  501MOL0     C66006   8.396   0.069   5.333 -0.3331  0.2228 -0.5158
  501MOL0     C66007   8.497   0.174   5.315  0.0307  0.1734  0.2741
  501MOL0     O66008   8.627   0.158   5.352 -0.2023 -0.0891  0.2350
  501MOL0     C66009   8.665   0.043   5.429 -0.0512  0.1252 -0.0135
  501MOL0     C66010   8.817   0.052   5.457 -0.7688  0.6725  0.6465
  501MOL0     C66011   8.837   0.142   5.579 -0.4305 -0.4670 -0.2438
  501MOL0     C66012   8.987   0.173   5.608 -0.5324  0.2679  0.2033
  501MOL0     C66013   8.998   0.275   5.719 -1.0059  0.0602  0.1449
  501MOL0     C66014   9.130   0.328   5.760 -0.5185 -0.5141 -0.6336
  501MOL0     C66015   9.252   0.233   5.758  0.4215 -0.1655  0.4429
  501MOL0     C66016   9.324   0.210   5.621  0.0353 -0.2291 -0.6060
  501MOL0     N66017   9.414   0.088   5.626 -0.1736 -0.6656 -0.1881
  501MOL0     C66018   9.374  -0.040   5.645  0.5919 -0.1423 -0.4688
  501MOL0     C66019   9.486  -0.113   5.622  1.2354 -0.1578 -1.2378
  501MOL0     C66020   9.509  -0.267   5.644 -0.0636 -0.2966 -0.2774
  501MOL0     C66021   9.588  -0.316   5.520 -0.0923 -0.4319  0.3815
  501MOL0     C66022   9.502  -0.294   5.390  0.5555 -0.2777  0.1148
  501MOL0     C66023   9.386  -0.392   5.373  0.3387  0.7398 -0.1090
  501MOL0     O66024   9.287  -0.361   5.478 -1.0910 -1.1440  0.6115
  501MOL0     C66025   9.155  -0.399   5.459  0.2364  0.3929  0.4657
  501MOL0     C66026   9.102  -0.503   5.376 -0.7827  0.0397 -0.6901
  501MOL0     C66027   8.960  -0.519   5.357 -0.0105  0.3837  0.0577
  501MOL0     C66028   8.874  -0.440   5.440  0.4383 -0.1451 -0.2802
  501MOL0     C66029   8.734  -0.464   5.437  0.2103 -0.4739  0.2300
  501MOL0     O66030   8.652  -0.379   5.515  0.3232 -1.0175 -0.0042
  501MOL0     C66031   8.530  -0.335   5.468  0.1900 -0.2146  0.5070
  501MOL0     C66032   8.437  -0.277   5.560  0.5149  0.6504 -0.1592
  501MOL0     C66033   8.312  -0.233   5.520  0.7667  0.8780  0.0372
  501MOL0     C66034   8.276  -0.254   5.382 -0.2084  0.6522 -0.5843
  501MOL0     O66035   8.144  -0.224   5.355 -0.5641 -0.0640  0.0081
  501MOL0     C66036   8.085  -0.268   5.236 -0.4732  0.4348 -0.2176
  501MOL0     C66037   7.933  -0.271   5.256  0.0098 -0.8247 -0.6360
  501MOL0     C66038   7.838  -0.157   5.201  0.3930  0.2674 -0.5409
  501MOL0     C66039   7.687  -0.204   5.224  0.6331 -0.9354 -0.6683
  501MOL0     C66040   7.583  -0.105   5.160 -0.8443  0.7525 -0.2414
  501MOL0     C66041   7.529  -0.015   5.273 -0.4160 -0.0972 -0.3432
  501MOL0     C66042   7.442  -0.091   5.392  0.1610 -1.2692 -0.2154
  501MOL0     C66043   7.347   0.014   5.464 -0.0355  0.6240  0.5584
  501MOL0    Cl66044   7.274  -0.087   5.597 -0.2004 -0.4769 -0.1248
  501MOL0     C66045   8.377  -0.297   5.291  0.2963  0.4734  0.0575
  501MOL0     C66046   8.495  -0.347   5.335  0.4844  0.8085  0.5717
  501MOL0     O66047   8.693  -0.558   5.368  0.5165 -0.5922 -0.2394
  501MOL0     C66048   8.931  -0.341   5.523  0.9387 -0.7400 -0.2195
  501MOL0     C66049   9.069  -0.329   5.536 -0.1931  1.0492 -0.3529
  501MOL0     N66050   9.588  -0.023   5.583  0.2148 -0.1780 -0.4518
  501MOL0     N66051   9.540   0.097   5.592  0.4733  0.6528  0.2848
  501MOL0     C66052   8.461   0.302   5.267 -0.0039  0.1885  0.1211
  501MOL0     C66053   8.327   0.330   5.227  0.1005  1.0064  0.5661
  501MOL0     C66054   7.870   0.238   5.131 -0.4460  0.0609 -1.2446
  501MOL0     C66055   7.799   0.199   5.020  0.4061  0.3076  0.0698
  501MOL0     C66056   7.665   0.249   5.007  0.0273  0.8128 -0.2539
  501MOL0     C66057   7.604   0.345   5.101  0.2373  1.3292  0.2561
  501MOL0     O66058   7.479   0.394   5.101 -0.5384 -0.0978 -0.3282
  501MOL0     C66059   7.380   0.330   5.022 -0.1530 -0.1958  0.5701
  501MOL0     C66060   7.261   0.425   5.006  0.0789  0.0425 -0.2448
  501MOL0     C66061   7.129   0.369   4.946 -0.0650 -0.6221  0.0078
  501MOL0     C66062   7.131   0.362   4.795  0.0280  0.1799 -0.6317
  501MOL0     C66063   6.994   0.329   4.750  0.1158  0.0149 -0.2274
  501MOL0     C66064   6.890   0.281   4.712  0.1681  0.1812 -0.4032
  501MOL0     C66065   7.694   0.388   5.201 -0.1177  0.1870  0.3090
  501MOL0     C66066   7.821   0.336   5.215 -0.3533 -1.0732 -0.5543
  501MOL0     H66067   8.188   0.030   5.276  0.7087 -1.4793 -2.6096
  501MOL0     H66068   8.420  -0.029   5.373  0.7674  1.1579  1.2611
  501MOL0     H66069   8.636  -0.051   5.383  1.0091 -0.2409  0.0482
  501MOL0     H66070   8.611   0.053   5.523 -1.8758 -1.7412 -0.7839
  501MOL0     H66071   8.870   0.089   5.369 -2.0166  0.5184 -0.1891
  501MOL0     H66072   8.839  -0.053   5.478  1.5272  1.0268  0.2711
  501MOL0     H66073   8.781   0.103   5.664 -0.3237  2.2340  1.2123
  501MOL0     H66074   8.784   0.234   5.550 -0.7181 -0.3957  0.4844
  501MOL0     H66075   9.029   0.078   5.643 -2.3918 -0.4590  0.5581
  501MOL0     H66076   9.043   0.203   5.519 -0.0192 -3.2605 -0.8122
  501MOL0     H66077   8.957   0.237   5.813 -0.7458  0.3391  0.3735
  501MOL0     H66078   8.935   0.362   5.697 -1.1484  0.4701  2.0073
  501MOL0     H66079   9.118   0.357   5.865  0.8456  2.1620 -1.1438
  501MOL0     H66080   9.154   0.426   5.719  0.4102 -0.4204  0.0887
  501MOL0     H66081   9.331   0.283   5.815  2.7770 -2.8450 -0.2689
  501MOL0     H66082   9.232   0.134   5.798 -2.4511 -0.4011 -1.3171
  501MOL0     H66083   9.392   0.294   5.602 -0.9744  1.2676  1.9698
  501MOL0     H66084   9.265   0.182   5.533  1.0389 -2.2566 -0.6947
  501MOL0     H66085   9.274  -0.083   5.653 -0.8135  1.8827 -4.3226
  501MOL0     H66086   9.423  -0.332   5.664 -1.0791  1.4245  1.2999
  501MOL0     H66087   9.580  -0.277   5.727  0.0685 -0.0336 -0.3587
  501MOL0     H66088   9.612  -0.423   5.524  0.5681 -0.2607  1.7963
  501MOL0     H66089   9.690  -0.278   5.512  0.3750 -1.2666  1.8949
  501MOL0     H66090   9.473  -0.190   5.373 -0.2488 -0.2759  1.3715
  501MOL0     H66091   9.570  -0.315   5.307 -0.1861  0.3937 -0.6886
  501MOL0     H66092   9.424  -0.494   5.376 -0.1578  0.3650 -3.2335
  501MOL0     H66093   9.333  -0.383   5.278 -0.7520 -0.8241  0.3122
  501MOL0     H66094   9.175  -0.553   5.313 -1.1129 -0.8007 -0.4249
  501MOL0     H66095   8.926  -0.594   5.286  0.7013 -0.5857  0.7216
  501MOL0     H66096   8.457  -0.256   5.664  3.1004 -1.4209 -0.1217
  501MOL0     H66097   8.242  -0.207   5.599  0.8712 -0.8992  0.7598
  501MOL0     H66098   8.124  -0.365   5.205  1.9471  1.0486  0.7220
  501MOL0     H66099   8.112  -0.196   5.158  2.6294 -0.7348 -0.3343
  501MOL0     H66100   7.907  -0.289   5.361 -1.1393 -1.9792 -1.0949
  501MOL0     H66101   7.894  -0.360   5.206 -3.7350 -0.1303  0.7213
  501MOL0     H66102   7.859  -0.147   5.094 -1.4945  2.0733 -0.8020
  501MOL0     H66103   7.873  -0.064   5.247  1.1161  0.0310 -0.6017
  501MOL0     H66104   7.666  -0.306   5.190 -0.3611 -0.5503 -1.2568
  501MOL0     H66105   7.678  -0.197   5.333  1.9383  0.4059 -0.6161
  501MOL0     H66106   7.500  -0.157   5.111  0.7219 -1.8048 -0.3377
  501MOL0     H66107   7.630  -0.037   5.087  0.2776  2.7972  2.2130
  501MOL0     H66108   7.485   0.069   5.218  0.6700 -0.0060 -1.1084
  501MOL0     H66109   7.613   0.027   5.329 -1.1905  2.0650 -0.7089
  501MOL0     H66110   7.375  -0.167   5.352 -3.7077 -0.2543  3.5840
  501MOL0     H66111   7.501  -0.126   5.477 -0.8448 -2.0672  0.1737
  501MOL0     H66112   7.269   0.047   5.395  1.0215  1.3430 -0.3357
  501MOL0     H66113   7.394   0.100   5.513  3.6155 -1.7853  1.6804
  501MOL0     H66114   8.349  -0.286   5.187  1.9812  1.3814 -0.3257
  501MOL0     H66115   8.560  -0.390   5.260  0.5585  0.4386  0.8426
  501MOL0     H66116   8.866  -0.284   5.588 -1.8082 -2.6107 -1.1541
  501MOL0     H66117   9.117  -0.249   5.593 -0.3809 -1.9923  4.6958
  501MOL0     H66118   8.542   0.367   5.235  0.1964 -0.8091 -1.5333
  501MOL0     H66119   8.307   0.416   5.164  0.9783 -0.4476 -1.8145
  501MOL0     H66120   7.838   0.127   4.950 -0.0311 -0.6897  0.8312
  501MOL0     H66121   7.614   0.194   4.929  4.4695 -2.4127 -1.3223
  501MOL0     H66122   7.346   0.237   5.067 -2.0487  1.4150  2.6978
  501MOL0     H66123   7.424   0.307   4.924 -0.4060 -1.7794  0.8074
  501MOL0     H66124   7.230   0.465   5.103 -2.2603 -0.5538 -0.6899
  501MOL0     H66125   7.282   0.508   4.939 -2.2710  0.4092 -0.6263
  501MOL0     H66126   7.046   0.437   4.964  2.6868  2.7947  0.9420
  501MOL0     H66127   7.100   0.279   5.001 -1.3479 -0.5728 -0.5528
  501MOL0     H66128   7.165   0.456   4.751  0.2755 -0.6982 -2.4133
  501MOL0     H66129   7.210   0.291   4.768 -1.8456 -3.2716  2.0419
  501MOL0     H66130   6.805   0.227   4.675  0.4412 -1.9383  1.8377
  501MOL0     H66131   7.669   0.475   5.262  2.4598 -0.6758  2.8635
  501MOL0     H66132   7.888   0.382   5.286  0.5698 -0.8860 -1.5150
  502MOL0     O66133   6.457   5.654   9.635 -0.0669 -0.2665  0.0248
  502MOL0     C66134   6.472   5.534   9.649 -0.5107  0.7338 -0.5954
  502MOL0     O66135   6.384   5.453   9.714  0.5667 -0.1794  1.0399
  502MOL0     C66136   6.274   5.504   9.773 -0.0270 -0.1568  0.6921
  502MOL0     C66137   6.262   5.466   9.907 -0.7833 -0.2023  0.8524
  502MOL0     C66138   6.148   5.506   9.977 -0.2214 -0.3918  0.4733
  502MOL0     C66139   6.061   5.596   9.924  0.0817 -0.5478 -0.9465
  502MOL0     O66140   5.965   5.644  10.013  0.8371  0.2877 -0.4722
  502MOL0     C66141   5.963   5.786  10.026  0.6159 -0.5224  0.2051
  502MOL0     C66142   5.828   5.837  10.092  0.7099  0.1329 -0.2734
  502MOL0     C66143   5.731   5.898   9.982 -0.0049 -0.5012  0.0884
  502MOL0     C66144   5.606   5.955  10.056  0.2831 -0.3833  0.0496
  502MOL0     C66145   5.501   5.850  10.086  0.2501 -0.0048  0.1321
  502MOL0     C66146   5.391   5.897  10.181  0.0463  0.0259  0.1346
  502MOL0     C66147   5.333   6.033  10.139 -1.0391 -0.6943 -0.2219
  502MOL0     C66148   5.177   6.032  10.157  0.4221 -0.1999  0.5327
  502MOL0     N66149   5.137   6.174  10.120 -0.7128 -0.0676 -0.8033
  502MOL0     C66150   5.070   6.263  10.207 -0.0094  0.1727  0.4024
  502MOL0     C66151   5.032   6.361  10.122  0.2851 -0.1364  0.7439
  502MOL0     C66152   4.962   6.492  10.175 -0.2018 -0.2549  0.6147
  502MOL0     C66153   4.820   6.470  10.178  0.2735 -0.1977  0.6043
  502MOL0     C66154   4.752   6.599  10.221  0.0053 -0.8852 -0.5786
  502MOL0     C66155   4.618   6.564  10.292 -0.3537  0.5649  0.5196
  502MOL0     O66156   4.549   6.687  10.341 -0.3168 -0.3875  0.1808
  502MOL0     C66157   4.415   6.672  10.370 -0.3637 -0.6818  0.5932
  502MOL0     C66158   4.346   6.548  10.385  0.3930  0.5156  0.1292
  502MOL0     C66159   4.210   6.540  10.418 -0.1202 -0.4138 -0.3792
  502MOL0     C66160   4.142   6.654  10.461  0.1327 -0.2108  0.8164
  502MOL0     C66161   4.009   6.643  10.511 -0.4722 -0.6690  0.1996
  502MOL0     O66162   3.944   6.524  10.496 -0.3470 -0.5828 -0.7768
  502MOL0     C66163   3.808   6.523  10.504  0.3872 -0.6672 -0.4836
  502MOL0     C66164   3.732   6.485  10.402 -0.1789  0.5324  0.6495
  502MOL0     C66165   3.592   6.458  10.425 -0.6028 -0.2034 -0.1116
  502MOL0     C66166   3.526   6.486  10.547 -0.7735  0.0115  0.0791
  502MOL0     O66167   3.385   6.471  10.553 -0.6886 -0.3593  0.1890
  502MOL0     C66168   3.326   6.494  10.687 -0.0721  0.6277 -0.2230
  502MOL0     C66169   3.202   6.412  10.688  0.1257 -0.7146 -0.1993
  502MOL0     C66170   3.232   6.268  10.684  0.7726  0.1535  0.3172
  502MOL0     C66171   3.108   6.182  10.713  0.0841 -0.1582  1.0688
  502MOL0     C66172   3.041   6.172  10.856  0.2272  0.0470  0.2515
  502MOL0     C66173   3.137   6.103  10.957  0.0662  0.4980 -0.2932
  502MOL0     C66174   3.123   5.954  10.971 -0.1353  0.1076  0.6634
  502MOL0     C66175   3.218   5.906  11.064  0.0915  0.5711 -0.3596
  502MOL0    Cl66176   3.202   5.722  11.067 -0.2909 -0.0731  0.1134
  502MOL0     C66177   3.612   6.525  10.656 -0.1571 -1.3873 -0.3536
  502MOL0     C66178   3.747   6.534  10.635  0.2338 -0.8813  0.4699
  502MOL0     O66179   3.966   6.739  10.569  0.0833 -0.8018 -0.3261
  502MOL0     C66180   4.213   6.777  10.449  0.8620  0.6046 -0.5261
  502MOL0     C66181   4.339   6.783  10.409 -0.0325 -0.4278 -0.0703
  502MOL0     N66182   5.071   6.324   9.996  0.0729  0.2740 -0.3480
  502MOL0     N66183   5.138   6.218   9.987  0.2408  0.4215 -0.5568
  502MOL0     C66184   6.064   5.623   9.775  0.0734 -0.3638 -0.2493
  502MOL0     C66185   6.176   5.578   9.701 -0.3764 -0.6677 -0.6895
  502MOL0     C66186   6.585   5.463   9.583 -0.3628  0.0362  0.6969
  502MOL0     C66187   6.607   5.329   9.611 -0.0354 -0.3036 -0.5220
  502MOL0     C66188   6.719   5.261   9.563 -0.0240  0.3699  0.8697
  502MOL0     C66189   6.804   5.320   9.471 -0.2011 -0.9101  0.1159
  502MOL0     O66190   6.904   5.237   9.429 -0.0945  0.0410 -0.4818
  502MOL0     C66191   7.033   5.275   9.385 -0.7275 -0.5874  0.6917
  502MOL0     C66192   7.137   5.162   9.398 -0.0159  0.4729 -0.6938
  502MOL0     C66193   7.275   5.196   9.335  0.0749  0.0654 -0.4952
  502MOL0     C66194   7.275   5.234   9.186 -0.2591  0.8422 -0.5165
  502MOL0     C66195   7.214   5.119   9.107  0.1487 -1.2638 -0.1871
  502MOL0     C66196   7.158   5.025   9.048 -0.4510  0.0745  0.0090
  502MOL0     C66197   6.786   5.454   9.450  0.0716  0.0423  0.0262
  502MOL0     C66198   6.679   5.535   9.512 -1.1393  0.4035  0.3806
  502MOL0     H66199   6.346   5.407   9.942  1.8027  1.9667 -1.2385
  502MOL0     H66200   6.132   5.472  10.079  2.9050  1.0869  1.5767
  502MOL0     H66201   5.965   5.837   9.929 -2.6467 -0.4950  0.0525
  502MOL0     H66202   6.037   5.810  10.104 -0.7258 -1.0083  1.6700
  502MOL0     H66203   5.846   5.921  10.160  0.6256 -1.1243  1.3707
  502MOL0     H66204   5.781   5.769  10.163  2.2847  0.5417  1.2303
  502MOL0     H66205   5.708   5.830   9.900  1.9652 -0.8058 -0.2380
  502MOL0     H66206   5.784   5.983   9.939 -0.2155 -0.4483 -0.0704
  502MOL0     H66207   5.632   6.008  10.148  1.0288 -1.3919  0.4448
  502MOL0     H66208   5.561   6.027   9.987  4.6495  1.3415 -1.3960
  502MOL0     H66209   5.544   5.759  10.128 -1.1684 -0.7056  0.1262
  502MOL0     H66210   5.451   5.823   9.992  0.9214  2.0427 -0.8937
  502MOL0     H66211   5.415   5.915  10.287 -1.8361 -1.3332  0.8436
  502MOL0     H66212   5.315   5.820  10.191  0.5303 -0.7936 -2.0360
  502MOL0     H66213   5.368   6.101  10.217  1.7387  1.1911 -2.9078
  502MOL0     H66214   5.372   6.064  10.042  1.0086 -1.8045  0.2052
  502MOL0     H66215   5.158   6.007  10.262  1.6438 -1.5106  0.4830
  502MOL0     H66216   5.119   5.961  10.097  1.8173 -1.0436  0.1254
  502MOL0     H66217   5.051   6.260  10.313  1.2826  0.7577  0.6797
  502MOL0     H66218   5.003   6.587  10.140 -1.0322  0.4979  1.6179
  502MOL0     H66219   4.988   6.507  10.281  0.4148  1.8452  0.1963
  502MOL0     H66220   4.780   6.386  10.235  0.5147  0.4247  1.7141
  502MOL0     H66221   4.780   6.463  10.076 -3.0462  5.8198  1.0448
  502MOL0     H66222   4.809   6.659  10.292 -2.6902  0.6784  0.4479
  502MOL0     H66223   4.735   6.663  10.134 -2.7163  1.9954  1.8444
  502MOL0     H66224   4.639   6.516  10.388 -3.1891  0.9160  1.3999
  502MOL0     H66225   4.560   6.497  10.228 -0.0193 -0.9824  1.7770
  502MOL0     H66226   4.393   6.451  10.383  1.5089  1.0639 -1.1086
  502MOL0     H66227   4.165   6.441  10.416 -2.1329  0.3681  1.5186
  502MOL0     H66228   3.775   6.470  10.304  1.5191 -0.5677  1.4899
  502MOL0     H66229   3.540   6.430  10.334 -0.6385  1.2398 -0.5661
  502MOL0     H66230   3.309   6.597  10.719  1.6159  0.7971  0.2398
  502MOL0     H66231   3.389   6.449  10.764  0.0367 -1.6104 -1.5294
  502MOL0     H66232   3.139   6.425  10.599  1.2125 -1.1698 -1.0560
  502MOL0     H66233   3.142   6.437  10.775  2.0305  0.3812  0.8667
  502MOL0     H66234   3.318   6.245  10.746  0.5333  2.6563  1.6971
  502MOL0     H66235   3.254   6.250  10.578  0.2937  1.4570 -0.0294
  502MOL0     H66236   3.029   6.207  10.641  1.0863 -1.5618 -0.5988
  502MOL0     H66237   3.140   6.079  10.696  0.7010 -0.2878  2.8503
  502MOL0     H66238   2.946   6.118  10.857  0.1715  0.1448  0.2869
  502MOL0     H66239   3.019   6.276  10.884 -0.7634 -0.2998  0.8255
  502MOL0     H66240   3.123   6.156  11.052 -0.8573 -0.5998  0.2007
  502MOL0     H66241   3.239   6.124  10.924  0.1016 -3.6837 -3.5914
  502MOL0     H66242   3.021   5.923  10.994  0.2025 -1.7942 -0.2452
  502MOL0     H66243   3.150   5.912  10.873 -0.9954  2.1146 -0.4842
  502MOL0     H66244   3.195   5.951  11.161  0.2269 -0.7265  0.2964
  502MOL0     H66245   3.317   5.946  11.038 -0.2369  0.0628 -2.5607
  502MOL0     H66246   3.572   6.549  10.754  2.0858 -0.9872  0.5236
  502MOL0     H66247   3.810   6.564  10.719 -0.3646  1.3578  0.1838
  502MOL0     H66248   4.146   6.859  10.471 -1.9894 -2.0644  1.7201
  502MOL0     H66249   4.390   6.879  10.412  0.4051 -0.6755  1.2304
  502MOL0     H66250   5.992   5.685   9.723 -0.2933 -1.1732 -0.7105
  502MOL0     H66251   6.169   5.595   9.594 -1.3354 -1.7208 -0.8070
  502MOL0     H66252   6.533   5.279   9.672  0.3154  0.2852  0.4032
  502MOL0     H66253   6.726   5.158   9.593  0.5999 -0.6159 -2.2780
  502MOL0     H66254   7.070   5.360   9.443  0.0742 -0.2671 -0.2538
  502MOL0     H66255   7.045   5.298   9.279  0.2613  1.0235  1.1145
  502MOL0     H66256   7.145   5.161   9.507  1.9514 -0.2937 -0.8199
  502MOL0     H66257   7.098   5.065   9.368  1.1382 -0.2899  0.2005
  502MOL0     H66258   7.336   5.106   9.344  0.8081  0.2932 -2.6177
  502MOL0     H66259   7.338   5.265   9.393  0.9106 -2.7031  2.1426
  502MOL0     H66260   7.232   5.332   9.164  1.2091  1.5461 -0.3928
  502MOL0     H66261   7.376   5.255   9.150 -0.8823  2.9251 -1.1909
  502MOL0     H66262   7.102   4.939   9.015 -1.8235  1.7841 -2.4516
  502MOL0     H66263   6.864   5.478   9.378  1.7070 -2.5984  0.7992
  502MOL0     H66264   6.673   5.640   9.483  0.3287  0.3511 -0.1928
  503MOL0     O66265   0.545   5.847   3.334 -0.6314 -0.7070  0.2489
  503MOL0     C66266   0.636   5.908   3.276  0.7711 -0.1893  0.2375
  503MOL0     O66267   0.625   6.039   3.217 -0.3538  0.9293 -0.9791
  503MOL0     C66268   0.504   6.086   3.235  0.5589 -0.9889  0.3130
  503MOL0     C66269   0.473   6.185   3.326 -1.1938 -0.1201 -0.6578
  503MOL0     C66270   0.347   6.236   3.329 -0.2204  0.2355  0.7465
  503MOL0     C66271   0.248   6.194   3.246  0.4738  0.4689  0.2346
  503MOL0     O66272   0.129   6.252   3.258 -0.6281  0.2621  0.0607
  503MOL0     C66273   0.014   6.177   3.219 -0.6101 -0.8311 -0.0537
  503MOL0     C66274  -0.104   6.255   3.269 -0.0495 -0.9550 -0.3839
  503MOL0     C66275  -0.218   6.169   3.316 -0.6167 -0.3901  0.0737
  503MOL0     C66276  -0.343   6.249   3.347 -0.9058 -0.1534  0.0838
  503MOL0     C66277  -0.419   6.320   3.242 -0.2594  0.1481 -0.4005
  503MOL0     C66278  -0.554   6.382   3.298  0.2273  0.3385 -0.0096
  503MOL0     C66279  -0.641   6.425   3.182 -0.0309  0.7910  0.2839
  503MOL0     C66280  -0.771   6.474   3.253  0.0011  0.2335 -0.6804
  503MOL0     N66281  -0.879   6.509   3.164  0.6001 -0.3279  0.1492
  503MOL0     C66282  -1.011   6.469   3.166  0.2972 -0.2169 -0.3386
  503MOL0     C66283  -1.076   6.529   3.061  0.2326 -0.0686  0.0259
  503MOL0     C66284  -1.224   6.506   3.020 -1.0197 -0.4196 -1.0024
  503MOL0     C66285  -1.299   6.609   2.946 -0.5548  0.2732 -0.3142
  503MOL0     C66286  -1.290   6.750   3.020 -0.4018 -0.7654 -0.6611
  503MOL0     C66287  -1.404   6.849   2.977  0.2619 -0.6128  0.0134
  503MOL0     O66288  -1.542   6.809   2.979  0.2983 -0.3180  0.7531
  503MOL0     C66289  -1.646   6.903   2.970 -0.7003 -0.0006  0.3209
  503MOL0     C66290  -1.767   6.859   2.997 -0.5445  0.2132 -0.2469
  503MOL0     C66291  -1.890   6.926   2.995  0.0877  0.4747  0.6338
  503MOL0     C66292  -1.885   7.063   2.963 -0.0779  0.3877 -0.0856
  503MOL0     C66293  -2.019   7.137   2.945  0.4825  0.8733 -0.3582
  503MOL0     O66294  -2.132   7.064   2.947  0.0824  0.0321  0.5736
  503MOL0     C66295  -2.251   7.118   2.923 -0.0957  0.2727 -0.3501
  503MOL0     C66296  -2.348   7.108   3.021 -1.0804 -0.1791  0.2145
  503MOL0     C66297  -2.469   7.177   3.012 -0.7545 -0.4277 -0.3567
  503MOL0     C66298  -2.501   7.261   2.908  0.0896 -0.4640 -0.1788
  503MOL0     O66299  -2.616   7.341   2.899 -0.1288  0.0690  0.6251
  503MOL0     C66300  -2.728   7.276   2.952 -0.1549 -0.2974 -0.8177
  503MOL0     C66301  -2.854   7.347   2.907  0.2649  0.2672 -0.2658
  503MOL0     C66302  -2.985   7.276   2.909  0.3915 -0.4484 -0.4524
  503MOL0     C66303  -3.006   7.220   3.048  0.7402 -0.0947 -0.5082
  503MOL0     C66304  -3.152   7.153   3.071  0.4791  0.8709 -0.7120
  503MOL0     C66305  -3.184   7.065   2.948 -0.3449  1.0924 -0.4676
  503MOL0     C66306  -3.301   6.976   2.962  0.1383  0.1548 -0.5075
  503MOL0     C66307  -3.338   6.893   2.838 -0.0854 -0.3503 -0.3742
  503MOL0    Cl66308  -3.192   6.787   2.797  0.2370  0.0680  0.0731
  503MOL0     C66309  -2.400   7.270   2.807  0.3875 -0.1193  0.1373
  503MOL0     C66310  -2.279   7.195   2.808 -0.0045  0.6882  0.0046
  503MOL0     O66311  -2.017   7.252   2.902  0.1632  0.3190 -0.6336
  503MOL0     C66312  -1.759   7.126   2.943 -0.1120 -0.2330 -0.2678
  503MOL0     C66313  -1.640   7.046   2.947 -0.9795 -0.5946  0.3118
  503MOL0     N66314  -0.979   6.601   2.990  0.0076  0.1138 -1.5057
  503MOL0     N66315  -0.861   6.590   3.056 -0.0947 -0.2043  0.2590
  503MOL0     C66316   0.276   6.099   3.140 -0.5217  0.6717 -0.3666
  503MOL0     C66317   0.405   6.046   3.138  0.2148  0.2470 -0.1366
  503MOL0     C66318   0.762   5.834   3.277 -0.9267 -0.6298 -0.4213
  503MOL0     C66319   0.887   5.909   3.255 -0.7316 -0.2599  0.3520
  503MOL0     C66320   1.007   5.841   3.259 -0.7202 -0.0805  0.0370
  503MOL0     C66321   1.019   5.703   3.308  0.0356 -0.4707  0.9397
  503MOL0     O66322   1.146   5.641   3.329 -0.0925 -0.7928  0.3068
  503MOL0     C66323   1.148   5.498   3.351 -0.8548  0.1587  0.5316
  503MOL0     C66324   1.287   5.456   3.349 -0.2390  0.2632  0.4911
  503MOL0     C66325   1.361   5.436   3.205 -0.4511  0.2255  0.2705
  503MOL0     C66326   1.366   5.572   3.131 -0.0881 -0.0094  0.2457
  503MOL0     C66327   1.489   5.578   3.051 -0.3408 -0.4255  0.0051
  503MOL0     C66328   1.589   5.583   2.988  0.4374  0.6707 -0.0806
  503MOL0     C66329   0.892   5.633   3.310 -0.9467 -0.3119 -0.4572
  503MOL0     C66330   0.769   5.695   3.294 -0.3118  1.2530  0.3162
  503MOL0     H66331   0.556   6.237   3.373 -1.2869  0.4339 -1.0912
  503MOL0     H66332   0.306   6.302   3.405 -0.6079  2.0426 -0.9555
  503MOL0     H66333   0.014   6.075   3.259 -2.0608 -1.3676 -1.3075
  503MOL0     H66334  -0.004   6.181   3.111 -1.4122  0.3729  0.1066
  503MOL0     H66335  -0.135   6.324   3.190  1.0189 -1.6987 -1.4804
  503MOL0     H66336  -0.065   6.319   3.349 -0.5942 -0.2036 -0.6975
  503MOL0     H66337  -0.190   6.115   3.407 -0.0391  3.1187  2.1607
  503MOL0     H66338  -0.248   6.099   3.237 -2.4498 -0.7588  1.0458
  503MOL0     H66339  -0.418   6.180   3.385 -2.7738 -1.1061 -4.7021
  503MOL0     H66340  -0.303   6.315   3.426 -1.5092  0.0197  0.2449
  503MOL0     H66341  -0.446   6.250   3.163 -1.6799  0.7559 -0.4979
  503MOL0     H66342  -0.367   6.403   3.193 -1.0865  1.3001  0.6129
  503MOL0     H66343  -0.539   6.458   3.375  2.2391 -1.1731  1.1770
  503MOL0     H66344  -0.603   6.300   3.351 -0.3384  0.1722 -0.7653
  503MOL0     H66345  -0.596   6.495   3.111  0.2846 -0.0220 -0.3397
  503MOL0     H66346  -0.667   6.337   3.122 -2.3314  1.0566  0.7944
  503MOL0     H66347  -0.744   6.561   3.314 -0.4828 -0.0991  0.0303
  503MOL0     H66348  -0.798   6.399   3.328  1.3898  0.7182  0.3462
  503MOL0     H66349  -1.052   6.397   3.236 -2.4539 -0.3259 -1.9549
  503MOL0     H66350  -1.281   6.472   3.107  2.1327 -3.7435  0.0161
  503MOL0     H66351  -1.228   6.420   2.953 -1.4959 -0.4194 -0.9771
  503MOL0     H66352  -1.402   6.575   2.931  0.6365 -3.0645 -2.0998
  503MOL0     H66353  -1.252   6.623   2.848  1.9197 -1.7029  0.4837
  503MOL0     H66354  -1.309   6.733   3.126  2.6754  0.2900  0.1496
  503MOL0     H66355  -1.192   6.799   3.012 -0.4018 -0.8009 -0.8990
  503MOL0     H66356  -1.392   6.888   2.875  0.7923  1.2902  0.7585
  503MOL0     H66357  -1.396   6.931   3.048 -1.3608 -1.6853  1.5170
  503MOL0     H66358  -1.776   6.752   3.015 -1.2991 -0.4684 -3.9149
  503MOL0     H66359  -1.980   6.870   3.017 -1.3949  1.5933 -2.0901
  503MOL0     H66360  -2.328   7.051   3.112 -2.7204 -2.2606 -0.6433
  503MOL0     H66361  -2.540   7.146   3.087 -3.0241 -0.5441 -2.4191
  503MOL0     H66362  -2.718   7.270   3.061  3.3310  2.4002 -0.7846
  503MOL0     H66363  -2.738   7.173   2.917  0.5362  0.3462 -3.1505
  503MOL0     H66364  -2.842   7.372   2.801  2.7742  0.5623  0.0165
  503MOL0     H66365  -2.853   7.444   2.957  2.0856  0.9157 -1.4561
  503MOL0     H66366  -2.975   7.183   2.851  0.6334 -1.0074  0.4604
  503MOL0     H66367  -3.075   7.322   2.868 -0.3186 -1.3472  0.0362
  503MOL0     H66368  -2.930   7.145   3.071  2.0173  1.3074 -0.0192
  503MOL0     H66369  -2.991   7.298   3.124 -0.3902  0.1127 -0.4803
  503MOL0     H66370  -3.231   7.225   3.098 -2.6504 -1.3410 -3.1217
  503MOL0     H66371  -3.148   7.091   3.161 -1.0487  3.3628  1.2253
  503MOL0     H66372  -3.101   6.998   2.923 -1.7372 -1.1275  0.5754
  503MOL0     H66373  -3.203   7.127   2.859 -1.1308  1.2245 -0.2141
  503MOL0     H66374  -3.301   6.909   3.049  2.1536  0.4769 -0.2116
  503MOL0     H66375  -3.383   7.047   2.978 -1.0171 -0.9671 -1.2851
  503MOL0     H66376  -3.355   6.977   2.770  3.4010  1.0004  0.1920
  503MOL0     H66377  -3.429   6.832   2.843  0.5425 -1.7712 -3.5886
  503MOL0     H66378  -2.427   7.334   2.725  0.2114  0.4941  0.6675
  503MOL0     H66379  -2.207   7.211   2.728 -0.4259  3.9498  0.1234
  503MOL0     H66380  -1.739   7.231   2.928  2.6575 -0.6120  0.2789
  503MOL0     H66381  -1.546   7.099   2.934 -2.5632  2.1347 -1.0560
  503MOL0     H66382   0.221   6.067   3.052  0.1106 -0.4153 -0.3799
  503MOL0     H66383   0.433   5.978   3.058  2.5999  0.7043  0.2396
  503MOL0     H66384   0.886   6.015   3.230  3.9686 -0.1478 -0.1876
  503MOL0     H66385   1.102   5.887   3.235 -0.6278 -0.0629  0.4231
  503MOL0     H66386   1.108   5.446   3.264  1.4947 -2.5026  0.8871
  503MOL0     H66387   1.085   5.466   3.435  0.4138 -0.9849  1.0879
  503MOL0     H66388   1.337   5.524   3.418 -0.1329 -1.5427  2.2778
  503MOL0     H66389   1.286   5.355   3.391  0.0190 -0.6622 -1.6000
  503MOL0     H66390   1.329   5.348   3.148  0.3859 -0.2232  0.4698
  503MOL0     H66391   1.464   5.405   3.223  0.4555  0.7090 -3.4217
  503MOL0     H66392   1.276   5.572   3.070  0.6584  0.2660 -0.8843
  503MOL0     H66393   1.370   5.659   3.198  0.9505  0.9985 -1.0648
  503MOL0     H66394   1.680   5.584   2.931  0.2301  0.1786 -0.4287
  503MOL0     H66395   0.893   5.525   3.322  0.9144 -0.1467  1.5840
  503MOL0     H66396   0.675   5.643   3.312 -1.2479  3.4539  2.3572
  504MOL0     O66397   3.965   9.154   4.824  0.3334  0.1511  0.7610
  504MOL0     C66398   4.026   9.081   4.747  0.5362  0.6016 -0.1576
  504MOL0     O66399   3.979   8.959   4.699 -0.1800  0.2039  0.4719
  504MOL0     C66400   3.863   8.897   4.740  0.1826  0.4979  0.3815
  504MOL0     C66401   3.746   8.960   4.781  0.0443 -0.7554  0.1252
  504MOL0     C66402   3.627   8.893   4.804 -0.6699  0.0052  0.9769
  504MOL0     C66403   3.621   8.753   4.793 -1.2766 -0.3470  0.4333
  504MOL0     O66404   3.505   8.690   4.815  0.4254  0.2295 -0.0367
  504MOL0     C66405   3.386   8.722   4.741 -0.5076 -0.1704  0.5514
  504MOL0     C66406   3.281   8.606   4.752  0.5716  0.3938  0.3127
  504MOL0     C66407   3.165   8.626   4.663  0.3962  0.3609 -0.1836
  504MOL0     C66408   3.085   8.496   4.642  0.4067  0.4974 -0.4649
  504MOL0     C66409   2.957   8.520   4.566  0.0595  0.0487 -0.3643
  504MOL0     C66410   2.905   8.386   4.501 -0.7539 -0.2561  0.1616
  504MOL0     C66411   2.764   8.406   4.437 -0.0917  0.7222  0.5421
  504MOL0     C66412   2.759   8.488   4.310  0.0709 -0.0709  0.6956
  504MOL0     N66413   2.857   8.436   4.212  0.7598 -0.5285 -0.0317
  504MOL0     C66414   2.993   8.463   4.196 -0.5118  0.3452 -0.4298
  504MOL0     C66415   3.029   8.380   4.097  1.2516 -1.1368  0.8210
  504MOL0     C66416   3.153   8.364   4.025 -0.9569  0.1046 -0.4005
  504MOL0     C66417   3.197   8.485   3.947 -0.4941  0.3823  0.0262
  504MOL0     C66418   3.312   8.442   3.842  0.8506 -0.2402 -0.7638
  504MOL0     C66419   3.336   8.548   3.733 -0.1491  0.2446  0.3137
  504MOL0     O66420   3.386   8.665   3.791  0.2230 -0.1573  0.1054
  504MOL0     C66421   3.520   8.677   3.796 -0.1878  0.6370  0.2876
  504MOL0     C66422   3.598   8.655   3.680 -0.1939  0.2642  0.7505
  504MOL0     C66423   3.729   8.681   3.663 -0.2766  0.0940 -0.5653
  504MOL0     C66424   3.798   8.745   3.767  0.4201  0.1786  0.4923
  504MOL0     C66425   3.948   8.770   3.753  0.7118  0.0621  0.1879
  504MOL0     O66426   3.999   8.859   3.845 -0.7270  0.1539  0.0255
  504MOL0     C66427   4.124   8.902   3.822 -0.8245  0.0008  0.8362
  504MOL0     C66428   4.242   8.825   3.847  0.7812 -0.3310 -0.6456
  504MOL0     C66429   4.369   8.879   3.835  0.1301 -0.0463 -0.0479
  504MOL0     C66430   4.375   9.016   3.810 -0.0237  0.9219  0.3031
  504MOL0     O66431   4.497   9.071   3.808 -0.0671  0.4144  0.0541
  504MOL0     C66432   4.515   9.160   3.915 -0.1151  0.3097 -0.1934
  504MOL0     C66433   4.645   9.109   3.988  0.6716  0.6179  0.3209
  504MOL0     C66434   4.764   9.155   3.911 -0.6799 -1.2326 -0.0315
  504MOL0     C66435   4.881   9.185   4.007  0.4031  0.2978  0.0710
  504MOL0     C66436   5.020   9.185   3.940  0.2998 -0.3235 -0.0175
  504MOL0     C66437   5.030   9.296   3.827  0.0716 -0.1033 -0.0420
  504MOL0     C66438   5.162   9.299   3.757  0.6541  0.4547  0.0040
  504MOL0     C66439   5.168   9.199   3.645  0.5412 -0.0717  0.4167
  504MOL0    Cl66440   5.041   9.233   3.517 -0.6269  0.3674 -0.1879
  504MOL0     C66441   4.258   9.090   3.775 -0.0666 -0.0509 -0.1495
  504MOL0     C66442   4.134   9.031   3.786  1.5014 -0.8080 -0.1234
  504MOL0     O66443   4.010   8.708   3.664  0.5405 -0.2620 -0.8901
  504MOL0     C66444   3.724   8.771   3.886  0.1457  0.6013 -0.1699
  504MOL0     C66445   3.585   8.743   3.900 -0.5584 -0.2626 -0.2804
  504MOL0     N66446   2.915   8.321   4.046  0.3866 -0.9032  0.8723
  504MOL0     N66447   2.812   8.354   4.114  0.4567 -0.1887  0.2594
  504MOL0     C66448   3.732   8.688   4.746  0.2881  0.7248  0.3445
  504MOL0     C66449   3.853   8.756   4.715  0.6939 -0.7742 -0.1426
  504MOL0     C66450   4.158   9.124   4.705 -0.6302  0.3942 -0.7564
  504MOL0     C66451   4.249   9.043   4.632  0.2006  0.1387  0.4478
  504MOL0     C66452   4.365   9.095   4.581  0.1317  0.0403  1.1403
  504MOL0     C66453   4.402   9.230   4.605  0.3046  0.4578 -0.3438
  504MOL0     O66454   4.514   9.297   4.561  0.1056  0.3691  0.0784
  504MOL0     C66455   4.587   9.237   4.461 -0.6158 -0.0739  0.0093
  504MOL0     C66456   4.710   9.164   4.516  1.0759  0.3108  0.4767
  504MOL0     C66457   4.825   9.187   4.417  0.7474  0.5150 -0.4187
  504MOL0     C66458   4.937   9.086   4.460  1.0375 -0.3043 -0.5338
  504MOL0     C66459   5.056   9.078   4.383  0.6092  0.3777  0.0905
  504MOL0     C66460   5.158   9.058   4.331  0.2439  0.5997 -0.4949
  504MOL0     C66461   4.312   9.309   4.676  0.6563 -0.1364 -0.4225
  504MOL0     C66462   4.192   9.260   4.732  0.2793  0.8705  0.3251
  504MOL0     H66463   3.736   9.068   4.774 -1.3138 -0.8851 -0.0608
  504MOL0     H66464   3.539   8.948   4.835  0.3963  1.3624  1.7079
  504MOL0     H66465   3.411   8.730   4.635  0.0294  2.3002  0.8142
  504MOL0     H66466   3.341   8.818   4.768  0.4966  0.9500 -1.5261
  504MOL0     H66467   3.241   8.606   4.854  0.4089  0.2474  0.2481
  504MOL0     H66468   3.333   8.511   4.735 -0.8254 -0.2559 -0.4550
  504MOL0     H66469   3.215   8.652   4.569 -0.0010  1.3873 -0.1277
  504MOL0     H66470   3.095   8.705   4.692  1.8070  2.0906 -1.3372
  504MOL0     H66471   3.145   8.416   4.596 -1.9238 -0.3561 -2.1948
  504MOL0     H66472   3.061   8.464   4.744 -1.7142 -0.8240 -1.3195
  504MOL0     H66473   2.966   8.607   4.501 -0.2962  0.7814  0.5317
  504MOL0     H66474   2.881   8.549   4.639 -0.6302 -1.5353 -0.4015
  504MOL0     H66475   2.901   8.302   4.571 -3.1592 -0.0312  0.3764
  504MOL0     H66476   2.980   8.345   4.432 -1.0557  0.9621 -0.9170
  504MOL0     H66477   2.729   8.306   4.413  2.5578  0.2267 -1.7057
  504MOL0     H66478   2.694   8.455   4.505  1.1010  2.7883  0.3755
  504MOL0     H66479   2.773   8.594   4.332  1.8271  0.1758 -1.3024
  504MOL0     H66480   2.660   8.471   4.265 -0.5014  2.3537  0.8788
  504MOL0     H66481   3.067   8.522   4.247  0.1290 -0.2334 -0.6762
  504MOL0     H66482   3.142   8.280   3.955  2.9054  0.8823 -2.2450
  504MOL0     H66483   3.233   8.338   4.095 -0.7977  1.7543  0.0723
  504MOL0     H66484   3.234   8.555   4.022 -0.5285 -0.1811  0.5710
  504MOL0     H66485   3.108   8.528   3.899 -0.2984  0.8795  0.1044
  504MOL0     H66486   3.402   8.417   3.898  1.7531  0.7985 -1.6907
  504MOL0     H66487   3.265   8.365   3.779 -0.4436  0.9719 -1.3522
  504MOL0     H66488   3.252   8.572   3.666 -0.6529 -0.0240  0.8380
  504MOL0     H66489   3.410   8.492   3.675 -1.7168 -3.5212  1.6680
  504MOL0     H66490   3.563   8.611   3.588  2.9241  0.2998 -0.5887
  504MOL0     H66491   3.779   8.649   3.573  0.0365 -0.0733 -0.3290
  504MOL0     H66492   4.223   8.719   3.861 -2.7091  0.3391  0.6086
  504MOL0     H66493   4.452   8.811   3.849 -0.7052 -0.6028  2.8492
  504MOL0     H66494   4.428   9.165   3.981  0.5470  2.2819  0.5980
  504MOL0     H66495   4.529   9.265   3.889 -0.0477  0.2281 -0.4964
  504MOL0     H66496   4.649   9.000   3.994  2.9353  0.7177  1.9538
  504MOL0     H66497   4.650   9.146   4.091 -1.4039 -0.4887  0.8698
  504MOL0     H66498   4.738   9.238   3.845 -1.1829 -0.1655  1.4452
  504MOL0     H66499   4.795   9.069   3.851 -0.7648 -0.9170 -0.5270
  504MOL0     H66500   4.854   9.281   4.053  1.7247  0.8646 -0.3061
  504MOL0     H66501   4.887   9.111   4.088  0.3405 -0.2843 -0.4526
  504MOL0     H66502   5.024   9.085   3.895 -3.7182 -1.7467  2.2604
  504MOL0     H66503   5.094   9.204   4.018 -0.1740 -1.6499  0.7990
  504MOL0     H66504   5.015   9.396   3.870  2.0393  0.4280 -0.4893
  504MOL0     H66505   4.946   9.266   3.764  0.1105 -1.5872  0.5932
  504MOL0     H66506   5.184   9.397   3.714 -2.0338  0.2177 -2.1281
  504MOL0     H66507   5.236   9.271   3.832 -0.9779 -0.9882  1.1612
  504MOL0     H66508   5.171   9.097   3.683 -0.3464  0.6312  2.4974
  504MOL0     H66509   5.266   9.206   3.597  0.0718 -1.0947 -0.7604
  504MOL0     H66510   4.256   9.188   3.729 -2.3788  0.0772  0.0834
  504MOL0     H66511   4.041   9.086   3.774  2.6667  1.3667  0.1848
  504MOL0     H66512   3.788   8.802   3.968 -0.9632 -0.4447  1.1414
  504MOL0     H66513   3.528   8.769   3.988 -0.4467  0.7452 -0.4846
  504MOL0     H66514   3.730   8.580   4.750 -0.4628  0.7334  0.3590
  504MOL0     H66515   3.938   8.702   4.673  1.0316 -2.2827  2.2412
  504MOL0     H66516   4.220   8.938   4.628 -1.4632  0.4086  3.0581
  504MOL0     H66517   4.436   9.041   4.520  0.6545  0.4273  1.3990
  504MOL0     H66518   4.633   9.313   4.396  1.6876 -0.7479  0.7664
  504MOL0     H66519   4.520   9.175   4.401 -4.2199  2.9770  0.4619
  504MOL0     H66520   4.734   9.199   4.617 -1.6291 -0.8013  1.5894
  504MOL0     H66521   4.669   9.064   4.524 -0.5749  0.9464  0.3053
  504MOL0     H66522   4.848   9.288   4.451  2.1532 -1.2367  4.8582
  504MOL0     H66523   4.802   9.179   4.311  0.4312  0.0097 -0.3175
  504MOL0     H66524   4.969   9.121   4.558  1.0790 -1.3797 -0.1513
  504MOL0     H66525   4.904   8.987   4.492 -0.9781  0.3334 -0.4659
  504MOL0     H66526   5.255   9.037   4.289  1.4320  2.6164  1.0399
  504MOL0     H66527   4.327   9.416   4.684  2.2996 -0.2461 -1.7290
  504MOL0     H66528   4.141   9.324   4.804  1.9806  2.7472 -0.0498
  505MOL0     O66529  11.185   4.907   6.322  0.0783  0.6346  0.5039
  505MOL0     C66530  11.213   4.836   6.228 -0.4130 -0.1647  0.3314
  505MOL0     O66531  11.122   4.752   6.167 -0.0177  0.9338 -0.2173
  505MOL0     C66532  10.984   4.747   6.202 -0.7010  0.5948  0.2971
  505MOL0     C66533  10.920   4.627   6.205  0.2556 -0.6698  0.0627
  505MOL0     C66534  10.787   4.620   6.233  0.1404  0.7230  0.2829
  505MOL0     C66535  10.702   4.733   6.230 -0.7246 -0.2082  0.0273
  505MOL0     O66536  10.568   4.729   6.244  0.3047  0.1973  0.0269
  505MOL0     C66537  10.494   4.837   6.176  0.3563  0.4023 -0.4485
  505MOL0     C66538  10.345   4.796   6.150 -0.3491  0.4498 -0.7068
  505MOL0     C66539  10.247   4.921   6.144  0.0359  0.0951  0.7753
  505MOL0     C66540  10.110   4.864   6.146 -0.4551  0.4522  0.3093
  505MOL0     C66541   9.999   4.961   6.148 -0.1328 -0.2821  0.6147
  505MOL0     C66542   9.864   4.878   6.150 -0.0574 -0.2251 -0.1658
  505MOL0     C66543   9.733   4.966   6.156  0.5458 -0.2717 -0.3815
  505MOL0     C66544   9.733   5.035   6.288  0.0116 -0.1938  0.2633
  505MOL0     N66545   9.611   5.123   6.314  0.0431  0.0435 -0.3793
  505MOL0     C66546   9.486   5.068   6.300  0.3911  0.6797  0.1162
  505MOL0     C66547   9.407   5.181   6.283 -0.4311  0.4181  0.0929
  505MOL0     C66548   9.255   5.192   6.284  0.1293 -0.3845 -0.7774
  505MOL0     C66549   9.181   5.054   6.296  0.6284 -0.4387 -0.5000
  505MOL0     C66550   9.034   5.080   6.273  0.7904 -0.0372 -0.2769
  505MOL0     C66551   8.950   4.959   6.302 -0.6682  0.0233 -0.1673
  505MOL0     O66552   8.821   4.974   6.250  1.2704 -1.0312  0.2661
  505MOL0     C66553   8.723   4.883   6.284  0.1495  0.5353  0.8344
  505MOL0     C66554   8.596   4.894   6.216 -0.0637  0.3416  0.1817
  505MOL0     C66555   8.495   4.810   6.267  0.5372  0.0446  0.2492
  505MOL0     C66556   8.519   4.701   6.356  0.2924  0.5585 -0.2544
  505MOL0     C66557   8.404   4.610   6.384  0.3759  0.0693  0.8000
  505MOL0     O66558   8.284   4.637   6.322  0.1304  0.8281  0.0849
  505MOL0     C66559   8.182   4.549   6.332 -1.1188  0.9100  0.5082
  505MOL0     C66560   8.191   4.431   6.260  0.4140 -0.5454  0.3342
  505MOL0     C66561   8.092   4.336   6.277 -0.2859 -0.4372  0.2097
  505MOL0     C66562   7.993   4.355   6.385 -1.0837 -0.2821 -0.4635
  505MOL0     O66563   7.901   4.253   6.397 -0.9031 -1.1348 -0.1571
  505MOL0     C66564   7.888   4.210   6.533  0.2865 -0.0100 -0.2553
  505MOL0     C66565   7.746   4.237   6.573  0.4687  0.0480  0.2029
  505MOL0     C66566   7.732   4.203   6.718 -0.5093 -0.1421  0.3306
  505MOL0     C66567   7.588   4.228   6.769 -0.5089  0.9362  0.0807
  505MOL0     C66568   7.599   4.243   6.920  0.3466 -0.3948  0.5950
  505MOL0     C66569   7.472   4.292   6.981 -0.2645  0.4006  0.3269
  505MOL0     C66570   7.462   4.295   7.138  0.6120 -0.5352 -0.7935
  505MOL0     C66571   7.327   4.338   7.175  0.1767  0.9060 -0.6393
  505MOL0    Cl66572   7.265   4.481   7.090  0.1036 -0.7332 -0.5992
  505MOL0     C66573   7.988   4.474   6.456 -0.4189 -0.9552  0.0850
  505MOL0     C66574   8.085   4.568   6.440  0.1796  0.6277  0.5076
  505MOL0     O66575   8.429   4.508   6.448 -0.3087 -0.1421 -0.4490
  505MOL0     C66576   8.645   4.681   6.405  1.4847  0.7580 -0.1439
  505MOL0     C66577   8.742   4.780   6.379  0.0360  0.5985 -0.5517
  505MOL0     N66578   9.496   5.288   6.269 -0.3736  0.2542 -0.2317
  505MOL0     N66579   9.618   5.253   6.299 -0.1198  0.9045 -0.5330
  505MOL0     C66580  10.771   4.859   6.228 -0.3860  0.7371 -0.0791
  505MOL0     C66581  10.909   4.868   6.205  0.5706 -0.0631 -0.1898
  505MOL0     C66582  11.359   4.812   6.202 -0.0819  0.5554  0.0025
  505MOL0     C66583  11.463   4.886   6.258 -0.0067  0.7573  0.7051
  505MOL0     C66584  11.595   4.847   6.246  0.4613 -0.0491  0.0911
  505MOL0     C66585  11.624   4.742   6.169  0.1757  0.6293  0.2067
  505MOL0     O66586  11.751   4.709   6.131  0.2919  0.1772  0.0383
  505MOL0     C66587  11.854   4.740   6.223  0.0676 -0.5334  0.2253
  505MOL0     C66588  11.928   4.861   6.169  0.6259  0.0813 -0.6859
  505MOL0     C66589  12.060   4.894   6.231 -0.4736  0.0774 -0.3745
  505MOL0     C66590  12.121   5.018   6.168 -0.1770 -0.0072  0.7890
  505MOL0     C66591  12.255   5.044   6.222 -0.0733 -0.2519 -0.2464
  505MOL0     C66592  12.371   5.073   6.259 -0.3776 -0.7004 -0.5004
  505MOL0     C66593  11.529   4.666   6.102 -0.0307  0.0375 -0.2157
  505MOL0     C66594  11.396   4.703   6.116  0.0892 -0.2843 -0.0664
  505MOL0     H66595  10.984   4.540   6.197 -1.1571 -1.7918  0.5415
  505MOL0     H66596  10.741   4.526   6.264 -0.1826  0.6084 -0.5193
  505MOL0     H66597  10.548   4.865   6.085  0.9867 -0.8044 -0.4600
  505MOL0     H66598  10.484   4.919   6.248  2.5285  1.4742 -1.2687
  505MOL0     H66599  10.316   4.722   6.227  0.3933  1.8813  1.0211
  505MOL0     H66600  10.346   4.744   6.054 -2.2515  0.6391 -0.8661
  505MOL0     H66601  10.260   4.990   6.060 -0.0707  2.1656  2.3654
  505MOL0     H66602  10.263   4.989   6.228  0.3083 -1.1991  1.7983
  505MOL0     H66603  10.092   4.814   6.050 -0.9595  2.2285 -0.5640
  505MOL0     H66604  10.110   4.795   6.231  3.8616 -1.5283 -0.9981
  505MOL0     H66605  10.000   5.038   6.070  1.1358  0.3238  1.1904
  505MOL0     H66606  10.015   5.023   6.236 -1.2184  0.1980  0.4931
  505MOL0     H66607   9.879   4.821   6.242  2.4191  1.8705  0.8441
  505MOL0     H66608   9.863   4.810   6.064 -1.5747 -1.0011  0.4298
  505MOL0     H66609   9.733   5.045   6.080  2.2572 -0.5791 -0.7479
  505MOL0     H66610   9.646   4.901   6.146  1.4149 -2.0375  2.3753
  505MOL0     H66611   9.830   5.086   6.294  1.1047 -2.3315  1.7082
  505MOL0     H66612   9.725   4.970   6.375  1.3374 -0.0276  0.5349
  505MOL0     H66613   9.465   4.962   6.312  0.7216  0.7300  1.2817
  505MOL0     H66614   9.212   5.252   6.203 -1.6272 -4.3195 -3.0346
  505MOL0     H66615   9.229   5.243   6.377 -1.1410 -1.2226 -0.6552
  505MOL0     H66616   9.214   4.998   6.383  2.1250 -1.3414 -1.6064
  505MOL0     H66617   9.214   5.003   6.205 -1.0814 -0.0662 -1.3783
  505MOL0     H66618   8.990   5.153   6.342  2.1752 -2.3528  3.3671
  505MOL0     H66619   9.020   5.109   6.169 -2.4501 -2.8352 -0.7985
  505MOL0     H66620   8.949   4.930   6.408 -2.3974 -2.2022 -0.7414
  505MOL0     H66621   9.003   4.879   6.250  1.6641  2.1888 -1.3848
  505MOL0     H66622   8.577   4.977   6.149 -0.3624 -0.5764 -0.9117
  505MOL0     H66623   8.389   4.809   6.244  0.5074 -2.0952  0.2177
  505MOL0     H66624   8.267   4.437   6.183  1.4462 -1.4204  1.2524
  505MOL0     H66625   8.087   4.244   6.220  1.3101 -2.2422  2.7703
  505MOL0     H66626   7.954   4.271   6.595 -1.1571  1.0602  0.3063
  505MOL0     H66627   7.923   4.107   6.541  0.7062 -0.0512 -2.1723
  505MOL0     H66628   7.672   4.174   6.522  0.4614  0.7414 -0.6516
  505MOL0     H66629   7.731   4.341   6.544 -0.8478 -0.8744 -2.9227
  505MOL0     H66630   7.804   4.268   6.769  1.0427 -3.2429  2.4569
  505MOL0     H66631   7.768   4.103   6.742  0.0436 -0.3684 -1.2798
  505MOL0     H66632   7.534   4.315   6.731 -1.4920  0.8186  1.1669
  505MOL0     H66633   7.530   4.140   6.741  1.7966 -0.7150  0.2338
  505MOL0     H66634   7.683   4.308   6.947  0.6393 -0.8072  0.6774
  505MOL0     H66635   7.615   4.142   6.958 -0.1709 -0.0776  1.7037
  505MOL0     H66636   7.385   4.234   6.949 -1.5386  1.3101  1.9896
  505MOL0     H66637   7.456   4.394   6.944 -0.2874 -0.0917 -1.0829
  505MOL0     H66638   7.481   4.195   7.178  0.8423 -0.9476 -1.8737
  505MOL0     H66639   7.531   4.365   7.184 -0.0598  0.9523 -1.9537
  505MOL0     H66640   7.312   4.361   7.281 -0.7171  0.5050 -0.6673
  505MOL0     H66641   7.259   4.257   7.148 -2.2532  1.0975  3.8816
  505MOL0     H66642   7.905   4.483   6.526 -1.0012  4.7184 -0.8875
  505MOL0     H66643   8.102   4.664   6.489  1.8735  1.6032 -1.8097
  505MOL0     H66644   8.673   4.600   6.472 -0.1633  0.8622  0.7229
  505MOL0     H66645   8.835   4.760   6.431 -0.7646 -2.4397 -0.0979
  505MOL0     H66646  10.709   4.947   6.217  1.3399  2.0462  0.2271
  505MOL0     H66647  10.955   4.964   6.185  1.7832 -0.9426 -1.8345
  505MOL0     H66648  11.432   4.969   6.320 -0.2940  0.8225  0.4800
  505MOL0     H66649  11.673   4.907   6.292  0.6137  0.1152 -0.3701
  505MOL0     H66650  11.927   4.658   6.215 -1.8453 -2.2920  0.0810
  505MOL0     H66651  11.823   4.747   6.328 -1.9884 -0.8373 -0.3186
  505MOL0     H66652  11.946   4.844   6.062  0.0743  0.4501 -0.8416
  505MOL0     H66653  11.867   4.950   6.184 -0.8526 -0.7353 -1.5928
  505MOL0     H66654  12.124   4.807   6.217  0.8471  0.8024  0.8251
  505MOL0     H66655  12.052   4.908   6.339  0.9582  0.6098 -0.3153
  505MOL0     H66656  12.114   4.989   6.063  0.9307 -2.1585  1.2676
  505MOL0     H66657  12.058   5.105   6.191 -0.8759 -0.7699  1.8593
  505MOL0     H66658  12.469   5.102   6.291 -0.5091 -1.7541  0.9715
  505MOL0     H66659  11.565   4.574   6.058 -1.8631 -0.5180 -0.6398
  505MOL0     H66660  11.322   4.646   6.061  2.6090 -3.0898 -0.7921
  506MOL0     O66661   0.064   3.795   8.833  0.9264  0.4011 -0.4248
  506MOL0     C66662   0.006   3.888   8.894  0.7123 -0.0061  0.0408
  506MOL0     O66663   0.068   3.985   8.972  0.6865 -0.2408  0.2297
  506MOL0     C66664   0.207   3.992   8.995  1.1083 -0.2363  0.9563
  506MOL0     C66665   0.249   4.100   9.080 -0.0006  0.5733  0.5164
  506MOL0     C66666   0.378   4.097   9.133  0.1635  0.2710 -0.0238
  506MOL0     C66667   0.467   4.008   9.095  0.7881  0.2500  0.1981
  506MOL0     O66668   0.598   4.020   9.127 -1.0400  0.4756  0.4240
  506MOL0     C66669   0.683   4.069   9.020  0.0189 -0.2233 -0.1445
  506MOL0     C66670   0.819   3.999   9.010  0.6537 -0.0973  0.5496
  506MOL0     C66671   0.936   4.040   9.112 -0.5484  0.1081 -0.0374
  506MOL0     C66672   1.011   4.167   9.087 -0.2423 -0.9771  0.1101
  506MOL0     C66673   1.116   4.199   9.192  0.0924  0.2769  0.3803
  506MOL0     C66674   1.068   4.183   9.341  0.0116 -0.6269 -0.4688
  506MOL0     C66675   1.169   4.238   9.438  0.4538 -0.2100  0.9302
  506MOL0     C66676   1.099   4.291   9.565  0.6820  0.4062  0.6375
  506MOL0     N66677   1.204   4.321   9.668  0.2876 -0.2405  0.0059
  506MOL0     C66678   1.202   4.435   9.742  0.3111 -1.0993 -0.2903
  506MOL0     C66679   1.313   4.429   9.829  0.1278  0.7127  0.3367
  506MOL0     C66680   1.373   4.532   9.924  0.4768  0.1546 -0.5619
  506MOL0     C66681   1.381   4.673   9.868  0.3992  0.0697  1.0014
  506MOL0     C66682   1.484   4.694   9.747 -0.1331  0.6648 -0.1475
  506MOL0     C66683   1.626   4.668   9.798  0.7917 -0.2338 -0.8079
  506MOL0     O66684   1.718   4.729   9.707 -0.3944  0.2234  0.3628
  506MOL0     C66685   1.813   4.644   9.664  0.4925 -0.3311  0.6621
  506MOL0     C66686   1.924   4.626   9.748  0.6165 -0.4461 -0.4429
  506MOL0     C66687   2.025   4.561   9.682 -0.2899 -0.2177 -0.5951
  506MOL0     C66688   2.029   4.502   9.553  0.2549  0.3996 -0.1656
  506MOL0     C66689   2.152   4.428   9.500  0.8410 -0.9722 -1.1793
  506MOL0     O66690   2.240   4.405   9.602  0.9298  0.1962  0.1488
  506MOL0     C66691   2.320   4.298   9.588 -0.4843  0.3448 -0.6704
  506MOL0     C66692   2.278   4.167   9.562 -0.1153 -0.4046 -0.8125
  506MOL0     C66693   2.375   4.065   9.557  0.8152 -0.4285  0.2062
  506MOL0     C66694   2.513   4.087   9.557 -0.5672 -0.1186  0.2621
  506MOL0     O66695   2.598   3.985   9.526  0.2956  0.1444 -0.5035
  506MOL0     C66696   2.718   3.969   9.598  0.3595 -0.6550 -0.5701
  506MOL0     C66697   2.839   4.033   9.536  0.1314  0.6922  0.3386
  506MOL0     C66698   2.964   3.965   9.584 -0.0186 -0.1603  0.1027
  506MOL0     C66699   3.099   4.031   9.531 -0.1714 -0.3646 -0.0996
  506MOL0     C66700   3.224   3.950   9.580  0.4462 -0.2527  0.4798
  506MOL0     C66701   3.353   3.991   9.522  0.4631 -0.2658 -0.2775
  506MOL0     C66702   3.470   3.890   9.522  1.2506 -0.0251 -0.4854
  506MOL0     C66703   3.603   3.940   9.470  0.0151 -0.5006  0.2652
  506MOL0    Cl66704   3.663   4.068   9.566 -0.1655  0.3055  0.1182
  506MOL0     C66705   2.557   4.218   9.576  0.7255  0.1548 -0.2781
  506MOL0     C66706   2.463   4.324   9.597  0.3441  0.0297  0.7818
  506MOL0     O66707   2.149   4.382   9.386  0.0168  0.4477  0.6241
  506MOL0     C66708   1.914   4.520   9.477  0.4759  0.1841  0.0143
  506MOL0     C66709   1.803   4.593   9.528  0.2549 -0.0878  0.2111
  506MOL0     N66710   1.366   4.301   9.809  0.4717 -0.4134  0.3614
  506MOL0     N66711   1.299   4.237   9.729 -0.7775  0.0220  0.8082
  506MOL0     C66712   0.438   3.911   9.008  0.8927  0.2627  0.4916
  506MOL0     C66713   0.301   3.898   8.962 -0.0328 -0.5750  0.7434
  506MOL0     C66714  -0.143   3.895   8.878  0.3181  0.7722  0.2047
  506MOL0     C66715  -0.205   3.794   8.796  0.7522 -0.8354 -0.2225
  506MOL0     C66716  -0.344   3.795   8.762  0.0363  0.2689 -0.0056
  506MOL0     C66717  -0.413   3.899   8.824  0.5611  0.8047 -0.2935
  506MOL0     O66718  -0.554   3.907   8.803 -0.8766  0.6986  0.3974
  506MOL0     C66719  -0.635   3.952   8.915  0.9826  0.0989 -1.0202
  506MOL0     C66720  -0.770   3.889   8.922  0.1745  0.3407 -0.4171
  506MOL0     C66721  -0.861   3.928   9.033  0.5139  0.6227 -0.2797
  506MOL0     C66722  -1.005   3.908   9.005  0.5995  0.6023 -0.5312
  506MOL0     C66723  -1.075   3.928   9.135  1.1130  1.4556  0.2945
  506MOL0     C66724  -1.152   3.943   9.225 -0.8101  0.4239 -1.1279
  506MOL0     C66725  -0.354   3.989   8.913 -0.3055 -0.9188 -0.1194
  506MOL0     C66726  -0.222   3.988   8.942  0.5133  0.3831 -1.0994
  506MOL0     H66727   0.172   4.173   9.106 -2.0379 -0.8194 -1.2567
  506MOL0     H66728   0.407   4.164   9.213  1.5821  1.2442 -1.2964
  506MOL0     H66729   0.700   4.177   9.026  0.4926 -0.2860 -0.2768
  506MOL0     H66730   0.629   4.061   8.925  2.2996 -0.5665 -1.5082
  506MOL0     H66731   0.864   4.015   8.912  0.7745  1.0024  0.7750
  506MOL0     H66732   0.803   3.891   9.025  0.1979  0.0192  0.9119
  506MOL0     H66733   1.004   3.955   9.114 -0.2600  0.2681 -1.7861
  506MOL0     H66734   0.902   4.050   9.216  3.3447 -1.7219  1.6264
  506MOL0     H66735   1.063   4.159   8.992 -0.4199 -0.9065  0.0076
  506MOL0     H66736   0.935   4.246   9.084  1.0414  0.3659  1.3144
  506MOL0     H66737   1.146   4.302   9.173  0.6481 -0.1932 -1.4550
  506MOL0     H66738   1.205   4.136   9.188 -0.2466 -0.1965  0.1395
  506MOL0     H66739   1.042   4.078   9.358 -0.3556 -0.2142  2.0220
  506MOL0     H66740   0.971   4.233   9.352  0.0078 -0.7180 -0.0362
  506MOL0     H66741   1.223   4.146   9.466  0.1846 -0.2781  1.2317
  506MOL0     H66742   1.231   4.310   9.383 -1.4732  0.1106 -0.9128
  506MOL0     H66743   1.025   4.226   9.613  0.6020  0.1111  0.1235
  506MOL0     H66744   1.040   4.382   9.547 -0.5281 -0.0388  2.1183
  506MOL0     H66745   1.142   4.525   9.727  0.2803 -1.3991 -2.3115
  506MOL0     H66746   1.477   4.503   9.942 -0.3753 -2.0069  1.4081
  506MOL0     H66747   1.311   4.533  10.014  0.0594  0.1956 -0.8507
  506MOL0     H66748   1.413   4.730   9.955  2.0275 -3.8625  3.2506
  506MOL0     H66749   1.277   4.705   9.852  0.6597  2.4810  3.4482
  506MOL0     H66750   1.459   4.640   9.655 -1.3188  1.5636 -0.3806
  506MOL0     H66751   1.485   4.799   9.718  3.9715  0.4313 -1.4434
  506MOL0     H66752   1.654   4.563   9.810  0.1162 -0.1412  2.1891
  506MOL0     H66753   1.647   4.716   9.894  1.1334  0.5450 -1.2616
  506MOL0     H66754   1.930   4.663   9.850 -0.2249 -2.0985  0.2407
  506MOL0     H66755   2.116   4.562   9.742 -1.0347 -1.5686  0.6445
  506MOL0     H66756   2.175   4.142   9.539 -0.7806 -0.7249  2.2091
  506MOL0     H66757   2.342   3.962   9.547  0.4781 -0.3516  0.5147
  506MOL0     H66758   2.730   3.861   9.614  1.0953 -0.4294  0.5066
  506MOL0     H66759   2.700   4.007   9.699  1.5027 -1.4708 -0.0446
  506MOL0     H66760   2.841   4.141   9.555  3.1977  0.9500 -0.9208
  506MOL0     H66761   2.833   4.020   9.428  0.8677 -1.4618  0.5117
  506MOL0     H66762   2.966   3.861   9.550 -0.8906  0.4906 -2.1190
  506MOL0     H66763   2.971   3.976   9.693  0.0567  0.8861 -0.0005
  506MOL0     H66764   3.101   4.037   9.422 -0.0176  0.4860 -0.0576
  506MOL0     H66765   3.107   4.136   9.562  1.0724  0.0823 -1.7567
  506MOL0     H66766   3.209   3.846   9.549  0.7397 -0.5426  1.2825
  506MOL0     H66767   3.221   3.950   9.689 -2.3705  1.2610  0.5000
  506MOL0     H66768   3.387   4.076   9.583 -0.3380  0.8667 -1.3420
  506MOL0     H66769   3.342   4.030   9.420  0.3326 -3.1128 -1.4246
  506MOL0     H66770   3.486   3.846   9.621 -1.3727 -2.9115 -1.1876
  506MOL0     H66771   3.440   3.800   9.467  3.4963 -0.4020 -1.2071
  506MOL0     H66772   3.593   3.968   9.365 -0.4143  2.4166  1.0180
  506MOL0     H66773   3.680   3.863   9.481  1.7319  1.4806  3.7789
  506MOL0     H66774   2.663   4.242   9.567  0.6928  0.6652  0.5747
  506MOL0     H66775   2.497   4.424   9.622  0.6647 -0.2570  1.5264
  506MOL0     H66776   1.912   4.493   9.372 -0.2221  0.0943  0.0440
  506MOL0     H66777   1.716   4.621   9.469 -0.3417 -0.9187  0.6569
  506MOL0     H66778   0.510   3.841   8.967  0.5338  0.7607 -1.0502
  506MOL0     H66779   0.275   3.817   8.895  0.5932  1.2300 -1.8558
  506MOL0     H66780  -0.155   3.704   8.759  1.3270 -1.6632  2.3547
  506MOL0     H66781  -0.391   3.726   8.693  2.2892 -1.2750 -0.1101
  506MOL0     H66782  -0.647   4.061   8.914  0.5477  0.0864  0.5779
  506MOL0     H66783  -0.582   3.929   9.008  1.0602  1.6118 -0.6532
  506MOL0     H66784  -0.823   3.909   8.828 -0.0968 -1.1432 -0.6159
  506MOL0     H66785  -0.745   3.783   8.934 -0.8145  0.3223  1.9203
  506MOL0     H66786  -0.857   4.037   9.046 -1.7191  0.8135 -0.8542
  506MOL0     H66787  -0.831   3.877   9.126 -0.9684 -0.4121 -0.3468
  506MOL0     H66788  -1.039   3.978   8.929  1.3086  0.2597 -1.1762
  506MOL0     H66789  -1.016   3.808   8.961  1.8455 -0.4442  1.4104
  506MOL0     H66790  -1.222   3.968   9.302  0.1957  0.2564 -0.1241
  506MOL0     H66791  -0.413   4.067   8.957  1.6893  0.2782  0.5757
  506MOL0     H66792  -0.175   4.063   9.004 -0.3590  0.5518 -0.6288
  507MOL0     O66793   2.479   9.741   8.040 -0.1842  0.2363 -0.6737
  507MOL0     C66794   2.564   9.666   8.008 -1.0241 -0.3182 -0.0761
  507MOL0     O66795   2.552   9.531   7.988 -0.1341 -0.8835  0.0042
  507MOL0     C66796   2.431   9.465   8.025  0.8609 -0.2360  0.2182
  507MOL0     C66797   2.425   9.344   7.959  0.7207 -0.1859  0.0071
  507MOL0     C66798   2.334   9.255   7.998  0.8547 -0.4966  0.5809
  507MOL0     C66799   2.237   9.291   8.095 -0.5742 -0.4258 -0.7516
  507MOL0     O66800   2.148   9.204   8.153  0.6002  0.4858  0.5803
  507MOL0     C66801   2.066   9.118   8.071  0.1922 -0.5331  0.4466
  507MOL0     C66802   1.957   9.195   7.997 -0.5858  0.1604  0.0731
  507MOL0     C66803   1.843   9.105   7.994 -0.1351 -0.8390  0.0031
  507MOL0     C66804   1.732   9.164   7.915  0.0538 -0.1202  0.3623
  507MOL0     C66805   1.604   9.081   7.915  0.8856  0.0209 -0.5596
  507MOL0     C66806   1.503   9.115   7.813  0.2571  0.5243 -0.4825
  507MOL0     C66807   1.365   9.060   7.856 -0.1987 -0.0455  0.1121
  507MOL0     C66808   1.258   9.119   7.771  0.0848  0.2867 -0.6141
  507MOL0     N66809   1.118   9.083   7.789  0.5056 -0.2854  0.5256
  507MOL0     C66810   1.029   9.141   7.880  0.5259 -0.6393 -0.5045
  507MOL0     C66811   0.915   9.074   7.860  0.6594 -0.1698 -0.4318
  507MOL0     C66812   0.777   9.089   7.922  0.5978  0.0974  0.3926
  507MOL0     C66813   0.665   9.008   7.850 -0.0492 -0.4608  0.7985
  507MOL0     C66814   0.527   9.019   7.912 -0.2010  0.4001  0.2037
  507MOL0     C66815   0.522   8.979   8.053 -0.3072  0.2558  0.1265
  507MOL0     O66816   0.389   8.979   8.113 -0.4474 -0.3440  0.1764
  507MOL0     C66817   0.301   8.872   8.094  0.0522 -1.1528  0.3305
  507MOL0     C66818   0.340   8.755   8.040 -0.0667  0.0649  0.4905
  507MOL0     C66819   0.250   8.657   7.996 -0.5126  0.1901 -0.4918
  507MOL0     C66820   0.112   8.683   8.010 -0.3551  0.1371 -0.0402
  507MOL0     C66821   0.012   8.576   7.967  0.0503  0.1276  0.3103
  507MOL0     O66822  -0.110   8.621   7.932  0.0282 -0.6581  0.1233
  507MOL0     C66823  -0.209   8.523   7.930 -0.1910  0.7054 -0.4232
  507MOL0     C66824  -0.274   8.489   8.044  1.4991 -0.1229  0.9594
  507MOL0     C66825  -0.369   8.387   8.043 -0.2583 -0.7604 -0.5388
  507MOL0     C66826  -0.418   8.345   7.920  0.4896  0.0914  0.8383
  507MOL0     O66827  -0.519   8.256   7.928  0.5555  0.4748 -0.0397
  507MOL0     C66828  -0.579   8.212   7.812  0.5322 -0.3756 -0.0733
  507MOL0     C66829  -0.666   8.089   7.839 -0.2170 -0.5869  0.0590
  507MOL0     C66830  -0.797   8.132   7.918 -0.8589  0.0583  0.5154
  507MOL0     C66831  -0.877   8.006   7.954 -0.1074  0.1886 -0.4680
  507MOL0     C66832  -0.939   7.906   7.850  0.4788  0.1778 -0.3716
  507MOL0     C66833  -1.029   7.974   7.750  0.5498  0.6896 -0.5546
  507MOL0     C66834  -1.132   7.884   7.679 -0.7098  1.0672 -0.1477
  507MOL0     C66835  -1.200   7.943   7.562 -0.4623  0.4354 -0.0321
  507MOL0    Cl66836  -1.357   7.850   7.551 -0.2920  0.1194 -0.0200
  507MOL0     C66837  -0.359   8.388   7.806 -0.0855 -0.0185 -0.7506
  507MOL0     C66838  -0.248   8.470   7.808  0.1913  0.4263 -1.1303
  507MOL0     O66839   0.049   8.456   7.975 -0.7366  0.3441  0.0696
  507MOL0     C66840   0.070   8.802   8.075  0.1187 -0.0148 -1.0814
  507MOL0     C66841   0.165   8.900   8.114  0.3505 -0.4115 -1.3861
  507MOL0     N66842   0.929   8.988   7.762 -0.0463 -0.6623 -0.2498
  507MOL0     N66843   1.044   8.990   7.714  0.2240  0.0194 -0.2010
  507MOL0     C66844   2.235   9.419   8.145 -1.0530 -0.3755  0.7650
  507MOL0     C66845   2.341   9.508   8.121  0.2239 -0.0597  1.2664
  507MOL0     C66846   2.700   9.731   7.974  0.4225 -0.9252 -1.2158
  507MOL0     C66847   2.733   9.869   7.979  0.2270  0.6914  0.4979
  507MOL0     C66848   2.867   9.913   7.954  0.4592  1.1529  0.8413
  507MOL0     C66849   2.960   9.819   7.922 -0.3468  0.4605  0.3449
  507MOL0     O66850   3.078   9.867   7.888  0.8606 -0.8843  0.4766
  507MOL0     C66851   3.201   9.793   7.899 -0.2860 -0.1414  0.3938
  507MOL0     C66852   3.238   9.776   8.045 -1.8285  0.1900 -0.0322
  507MOL0     C66853   3.240   9.905   8.126  1.0721 -0.7436  0.4637
  507MOL0     C66854   3.357   9.916   8.225  0.1041 -0.2031 -0.5979
  507MOL0     C66855   3.379  10.057   8.272 -0.2178  0.3978  0.0500
  507MOL0     C66856   3.403  10.170   8.315  0.0905  0.9924  0.2518
  507MOL0     C66857   2.931   9.683   7.905 -0.3196 -0.3842 -0.4920
  507MOL0     C66858   2.805   9.637   7.940 -0.1447 -0.0154 -0.4238
  507MOL0     H66859   2.506   9.308   7.896  4.3559  2.8626  2.4780
  507MOL0     H66860   2.337   9.157   7.952 -0.6571 -0.7935  1.0605
  507MOL0     H66861   2.023   9.045   8.140 -4.0883  0.7209 -0.5774
  507MOL0     H66862   2.124   9.063   7.996  0.6190  2.2262 -1.3969
  507MOL0     H66863   1.976   9.234   7.896 -0.5656  2.2174  0.8312
  507MOL0     H66864   1.937   9.288   8.050  0.5632 -0.3944  1.5519
  507MOL0     H66865   1.800   9.087   8.093 -2.0622 -5.0443 -1.3739
  507MOL0     H66866   1.873   9.014   7.942 -0.7635  1.1233 -4.2228
  507MOL0     H66867   1.702   9.261   7.955 -3.7612 -0.0854 -2.0392
  507MOL0     H66868   1.758   9.184   7.810  0.3313  1.7703  0.7523
  507MOL0     H66869   1.556   9.102   8.011 -2.3923  1.3712 -2.3333
  507MOL0     H66870   1.624   8.973   7.922  4.6196  0.6881  3.6192
  507MOL0     H66871   1.527   9.081   7.711 -1.9067  2.1010 -1.5929
  507MOL0     H66872   1.500   9.224   7.811  0.0014  0.5110 -1.8101
  507MOL0     H66873   1.359   8.952   7.842  0.6599  0.2649 -3.6443
  507MOL0     H66874   1.339   9.088   7.959 -0.0538  0.4894  0.0075
  507MOL0     H66875   1.289   9.086   7.671  1.7598  3.7101 -1.3701
  507MOL0     H66876   1.257   9.228   7.779  0.2663  0.3814 -1.6790
  507MOL0     H66877   1.058   9.202   7.965  0.9979 -0.1518 -1.0035
  507MOL0     H66878   0.740   9.190   7.941  0.7130  0.3985 -0.9330
  507MOL0     H66879   0.786   9.054   8.025 -0.0104  2.7590  1.4360
  507MOL0     H66880   0.692   8.903   7.837  1.2465  0.1528 -2.4487
  507MOL0     H66881   0.653   9.030   7.744 -0.6163 -2.5866  0.3702
  507MOL0     H66882   0.494   9.122   7.894  0.3103  0.9964  2.3677
  507MOL0     H66883   0.457   8.953   7.860 -0.3657 -0.0313  0.9723
  507MOL0     H66884   0.585   9.052   8.105 -0.4072 -0.0654  0.7175
  507MOL0     H66885   0.577   8.885   8.067 -2.1657 -0.9373 -0.1722
  507MOL0     H66886   0.443   8.735   8.012 -0.2344 -0.8648  0.5282
  507MOL0     H66887   0.288   8.560   7.964 -1.0424 -1.1474  2.5442
  507MOL0     H66888  -0.242   8.524   8.141 -1.1556  1.3534  1.4058
  507MOL0     H66889  -0.414   8.365   8.139  0.7482  0.4144  0.2381
  507MOL0     H66890  -0.500   8.182   7.744  2.1462  1.5649  0.8282
  507MOL0     H66891  -0.646   8.290   7.774 -0.2034  1.5738  4.4886
  507MOL0     H66892  -0.599   8.012   7.878  0.8013  0.1238 -0.2391
  507MOL0     H66893  -0.686   8.058   7.736  0.5207 -1.6596  0.2173
  507MOL0     H66894  -0.866   8.194   7.860 -2.8903 -0.7162  1.9762
  507MOL0     H66895  -0.789   8.195   8.007 -3.0494 -0.0294  0.8469
  507MOL0     H66896  -0.812   7.951   8.023 -1.6177  2.4893  3.1045
  507MOL0     H66897  -0.961   8.040   8.015 -1.1334  0.3124 -1.8993
  507MOL0     H66898  -0.981   7.810   7.884  0.9233 -1.4774 -3.9618
  507MOL0     H66899  -0.852   7.884   7.788  0.1131  1.9519 -1.6031
  507MOL0     H66900  -0.974   8.028   7.673  0.1563  0.8886 -0.7012
  507MOL0     H66901  -1.082   8.043   7.817  0.0769 -3.1252  3.4782
  507MOL0     H66902  -1.092   7.784   7.657  2.1075  1.9679  0.5081
  507MOL0     H66903  -1.207   7.871   7.758  2.9457 -0.0412  3.4992
  507MOL0     H66904  -1.151   7.918   7.468 -1.5095 -0.7238 -0.2923
  507MOL0     H66905  -1.212   8.052   7.565  0.8514  0.5849  0.3114
  507MOL0     H66906  -0.410   8.368   7.713  2.2265  1.1464 -2.3571
  507MOL0     H66907  -0.203   8.498   7.713  0.1922 -1.4335 -1.7222
  507MOL0     H66908  -0.031   8.828   8.103  0.9705  0.0554  2.2879
  507MOL0     H66909   0.137   8.999   8.149 -1.7961 -1.2476 -0.5907
  507MOL0     H66910   2.159   9.461   8.210 -1.8309 -0.8986  0.2160
  507MOL0     H66911   2.362   9.596   8.182  1.6914  1.0096 -0.6574
  507MOL0     H66912   2.669   9.952   8.010  0.3594  0.8072  0.4607
  507MOL0     H66913   2.895  10.017   7.957  3.4740  0.4241  0.9969
  507MOL0     H66914   3.285   9.830   7.840 -1.9339 -1.0845 -2.7923
  507MOL0     H66915   3.177   9.698   7.851 -3.4227  0.7895 -0.1251
  507MOL0     H66916   3.161   9.712   8.089 -4.0753  3.7826  1.7626
  507MOL0     H66917   3.338   9.733   8.050 -0.9186  2.0021 -1.3682
  507MOL0     H66918   3.148   9.912   8.185  2.1284 -0.2747  2.1519
  507MOL0     H66919   3.248   9.992   8.060  2.3695  0.4926  2.1500
  507MOL0     H66920   3.340   9.854   8.314  0.6854 -1.3959 -1.2959
  507MOL0     H66921   3.448   9.878   8.177 -0.2902 -2.1706  0.1249
  507MOL0     H66922   3.442  10.266   8.343 -1.1682  0.5450  4.0919
  507MOL0     H66923   2.991   9.601   7.867 -0.8665 -1.3859  0.7309
  507MOL0     H66924   2.784   9.531   7.927  0.7285 -0.0734 -1.4445
  508MOL0     O66925   0.512   7.622   2.948  0.0585 -0.6400  0.2760
  508MOL0     C66926   0.551   7.517   2.997  0.8324 -0.5607  0.6467
  508MOL0     O66927   0.469   7.413   3.043 -0.5272 -0.4759  0.6365
  508MOL0     C66928   0.331   7.435   3.032  0.4523  0.5138  0.7982
  508MOL0     C66929   0.279   7.460   2.906 -0.0225 -1.3261 -0.2011
  508MOL0     C66930   0.145   7.474   2.894 -0.0623 -0.1830 -0.8635
  508MOL0     C66931   0.054   7.466   2.998  0.9818  0.4222  0.3598
  508MOL0     O66932  -0.088   7.478   2.977 -1.0615  0.5313  0.7753
  508MOL0     C66933  -0.134   7.583   2.881 -0.0035  0.5152 -1.4950
  508MOL0     C66934  -0.296   7.573   2.882  0.0474 -0.4174 -0.6626
  508MOL0     C66935  -0.353   7.692   2.794 -0.0983  0.1732  0.5091
  508MOL0     C66936  -0.500   7.664   2.766 -0.1844  0.2691 -0.3555
  508MOL0     C66937  -0.568   7.757   2.661 -0.1667  0.1951 -0.1771
  508MOL0     C66938  -0.703   7.685   2.645 -0.3491  0.5991  0.4822
  508MOL0     C66939  -0.810   7.750   2.553  0.4442 -0.2073 -0.7419
  508MOL0     C66940  -0.890   7.861   2.614 -0.0214  0.8258 -1.0647
  508MOL0     N66941  -1.007   7.899   2.529 -0.5945 -0.1782  0.1902
  508MOL0     C66942  -1.031   8.025   2.474 -0.4371  0.2199  0.1118
  508MOL0     C66943  -1.159   8.006   2.434 -0.4327  0.4431  0.0162
  508MOL0     C66944  -1.240   8.118   2.380 -0.2777 -0.1422 -0.5456
  508MOL0     C66945  -1.224   8.132   2.234  0.7620 -0.0736 -0.0249
  508MOL0     C66946  -1.071   8.145   2.182  0.0600 -0.5220  0.1185
  508MOL0     C66947  -1.027   8.295   2.175 -0.5824 -1.2177  0.1049
  508MOL0     O66948  -1.001   8.349   2.305 -0.1448 -0.6271  1.1177
  508MOL0     C66949  -0.878   8.403   2.337  0.0756  0.4745  0.2164
  508MOL0     C66950  -0.836   8.405   2.467 -0.6465  0.6423 -0.8204
  508MOL0     C66951  -0.720   8.471   2.507  0.3457  0.9310  0.0710
  508MOL0     C66952  -0.635   8.521   2.415  0.7291 -0.2929  1.2417
  508MOL0     C66953  -0.505   8.577   2.460 -0.3671  0.1815  0.0550
  508MOL0     O66954  -0.466   8.540   2.583  0.1538  0.3680 -0.5786
  508MOL0     C66955  -0.339   8.560   2.637 -0.4463 -0.2463  0.5917
  508MOL0     C66956  -0.255   8.667   2.606 -0.8374  0.5037  0.5250
  508MOL0     C66957  -0.128   8.683   2.656 -0.1151 -0.7352 -0.5549
  508MOL0     C66958  -0.080   8.590   2.751  0.1595  0.5890  0.1957
  508MOL0     O66959   0.050   8.614   2.793  0.1957  0.1569 -0.1056
  508MOL0     C66960   0.094   8.536   2.910 -0.1611  0.7153  0.3134
  508MOL0     C66961   0.193   8.616   2.995  0.2928 -0.4311  0.2836
  508MOL0     C66962   0.277   8.525   3.085 -0.3079 -0.0946  0.0388
  508MOL0     C66963   0.360   8.612   3.181 -0.2536 -0.4446  0.7547
  508MOL0     C66964   0.453   8.522   3.264  0.1696 -0.1414  0.0947
  508MOL0     C66965   0.551   8.590   3.350 -0.7969  0.2672  0.0278
  508MOL0     C66966   0.616   8.487   3.451 -0.2570  0.1987  0.5687
  508MOL0     C66967   0.615   8.546   3.587 -0.0633 -0.4455  0.4402
  508MOL0    Cl66968   0.688   8.416   3.695 -0.1722  0.2587  0.1236
  508MOL0     C66969  -0.160   8.475   2.775 -0.4153  0.4984  0.1309
  508MOL0     C66970  -0.284   8.461   2.717  0.1966  0.2200  0.5758
  508MOL0     O66971  -0.432   8.628   2.372  0.5610 -0.3872  1.0598
  508MOL0     C66972  -0.672   8.521   2.277  0.1158 -0.0352  0.4735
  508MOL0     C66973  -0.791   8.457   2.239  0.5261  0.2740  0.2668
  508MOL0     N66974  -1.187   7.872   2.429 -0.1497  0.4417 -0.3647
  508MOL0     N66975  -1.095   7.807   2.488  0.0058  0.8859  0.5046
  508MOL0     C66976   0.103   7.425   3.127  0.2091 -0.1555 -0.0992
  508MOL0     C66977   0.246   7.413   3.139 -0.0471  0.4101 -0.8600
  508MOL0     C66978   0.692   7.492   3.020 -0.2183 -0.2509 -0.1766
  508MOL0     C66979   0.796   7.580   2.972 -0.3202  0.2522 -0.0132
  508MOL0     C66980   0.933   7.547   2.999 -0.0030 -0.4294 -0.4422
  508MOL0     C66981   0.968   7.433   3.066 -0.4271 -0.0659  0.1822
  508MOL0     O66982   1.093   7.383   3.097  1.2700 -0.4819  1.2404
  508MOL0     C66983   1.216   7.445   3.059 -0.0733 -0.1108 -0.2803
  508MOL0     C66984   1.241   7.567   3.153 -0.3247 -0.0063 -0.4084
  508MOL0     C66985   1.343   7.673   3.101  0.4508 -0.0869 -0.4546
  508MOL0     C66986   1.478   7.621   3.131 -0.3182  0.5820 -0.9276
  508MOL0     C66987   1.575   7.719   3.149 -0.0062 -1.1479 -0.4984
  508MOL0     C66988   1.653   7.812   3.132  0.5044 -0.4527 -0.0889
  508MOL0     C66989   0.865   7.365   3.120  0.3766 -0.0306 -0.0289
  508MOL0     C66990   0.732   7.379   3.092  0.4606 -0.6592  0.2554
  508MOL0     H66991   0.340   7.480   2.818 -1.6497 -2.1741 -1.5816
  508MOL0     H66992   0.115   7.501   2.794 -1.1295  1.4803 -0.1477
  508MOL0     H66993  -0.104   7.561   2.778 -0.9461 -0.4928 -1.5694
  508MOL0     H66994  -0.097   7.680   2.918 -0.6062  0.3371 -0.3754
  508MOL0     H66995  -0.345   7.568   2.980 -0.8575 -0.1073 -1.0898
  508MOL0     H66996  -0.319   7.480   2.830 -0.3378 -0.7733  0.1348
  508MOL0     H66997  -0.296   7.693   2.701  0.5941  1.1985  0.9332
  508MOL0     H66998  -0.344   7.792   2.837  4.2854  0.1945  0.0087
  508MOL0     H66999  -0.510   7.563   2.726  0.2616  0.5781 -1.2752
  508MOL0     H67000  -0.551   7.662   2.863  1.4091 -0.9402  0.5121
  508MOL0     H67001  -0.524   7.764   2.561 -1.7928 -0.7611 -1.0049
  508MOL0     H67002  -0.589   7.855   2.705 -0.3960 -0.8109  2.0918
  508MOL0     H67003  -0.741   7.674   2.747  0.3269  0.5957  0.7384
  508MOL0     H67004  -0.694   7.585   2.601  0.3631  1.0384 -0.4037
  508MOL0     H67005  -0.763   7.781   2.459  1.4350 -2.8410 -1.1865
  508MOL0     H67006  -0.885   7.673   2.535  0.0987  0.4608 -2.3215
  508MOL0     H67007  -0.828   7.947   2.643 -1.1100  1.8891 -1.8210
  508MOL0     H67008  -0.931   7.823   2.708  0.3700  0.8624 -0.8782
  508MOL0     H67009  -0.976   8.117   2.494 -1.5578  0.8225  0.4996
  508MOL0     H67010  -1.212   8.213   2.427  0.5043 -0.1688 -0.9484
  508MOL0     H67011  -1.346   8.104   2.406  0.5160 -1.4623  2.3667
  508MOL0     H67012  -1.287   8.215   2.199 -0.1475 -1.9639 -3.2962
  508MOL0     H67013  -1.271   8.045   2.187  2.8298  0.7282 -4.0895
  508MOL0     H67014  -0.996   8.096   2.245  0.7515  2.2016  1.5742
  508MOL0     H67015  -1.070   8.107   2.079  0.9068 -0.6072  0.1516
  508MOL0     H67016  -1.113   8.350   2.134  0.5451  1.7182  1.4143
  508MOL0     H67017  -0.938   8.308   2.113  1.3431  0.8940  3.0777
  508MOL0     H67018  -0.885   8.367   2.556  0.4261  0.9844 -0.0641
  508MOL0     H67019  -0.702   8.476   2.614  2.8655 -2.0171 -0.0816
  508MOL0     H67020  -0.275   8.748   2.537 -0.1829  0.5481  0.3786
  508MOL0     H67021  -0.054   8.761   2.642 -0.4842 -0.6933 -2.5091
  508MOL0     H67022   0.146   8.445   2.879  1.0720  1.0787  1.2440
  508MOL0     H67023   0.013   8.513   2.980 -0.1622 -0.9701 -0.1918
  508MOL0     H67024   0.143   8.692   3.056 -2.4373 -1.4517 -0.5319
  508MOL0     H67025   0.253   8.668   2.919 -0.5716  2.3617  1.3755
  508MOL0     H67026   0.348   8.458   3.037 -1.1411 -1.3364  0.5057
  508MOL0     H67027   0.206   8.457   3.133  0.1578 -0.8172 -0.2912
  508MOL0     H67028   0.421   8.684   3.125 -0.5307 -1.5626 -1.0692
  508MOL0     H67029   0.288   8.668   3.242  0.5282 -0.4035  1.6699
  508MOL0     H67030   0.509   8.459   3.195 -0.5513 -1.1748  0.4445
  508MOL0     H67031   0.385   8.460   3.323 -0.4102  1.0129  0.6905
  508MOL0     H67032   0.498   8.664   3.412 -0.1223  3.1343 -2.5771
  508MOL0     H67033   0.627   8.639   3.289 -2.3850 -0.8942 -3.1433
  508MOL0     H67034   0.560   8.393   3.455 -0.0304  0.0810  1.0509
  508MOL0     H67035   0.720   8.469   3.420 -0.8591  0.8276 -2.0794
  508MOL0     H67036   0.518   8.581   3.622 -1.0218 -2.5619  0.0521
  508MOL0     H67037   0.682   8.631   3.569  0.1061 -0.7285 -0.2827
  508MOL0     H67038  -0.108   8.400   2.834  0.4312 -1.4774 -2.8727
  508MOL0     H67039  -0.356   8.381   2.736  0.2993  0.3647  1.6177
  508MOL0     H67040  -0.617   8.578   2.202 -1.2415  1.1686  0.3311
  508MOL0     H67041  -0.826   8.458   2.136 -0.4596 -3.9391  0.3508
  508MOL0     H67042   0.034   7.429   3.212 -0.7060  0.1837 -0.8363
  508MOL0     H67043   0.287   7.388   3.237 -0.9155 -1.5708 -0.9751
  508MOL0     H67044   0.757   7.670   2.926  0.6965 -0.3923 -2.2535
  508MOL0     H67045   1.007   7.618   2.964  1.3314 -1.1963  0.7047
  508MOL0     H67046   1.223   7.478   2.955 -0.4190 -0.7999 -0.5321
  508MOL0     H67047   1.297   7.378   3.086  1.3255  2.0760  1.2445
  508MOL0     H67048   1.142   7.612   3.164 -0.7258 -0.8690 -0.4045
  508MOL0     H67049   1.272   7.536   3.253  0.2028  0.1808 -0.5135
  508MOL0     H67050   1.331   7.768   3.153 -3.2870 -1.6066  1.9072
  508MOL0     H67051   1.331   7.688   2.993  1.6763 -0.8117 -0.7145
  508MOL0     H67052   1.483   7.561   3.223  0.2961  3.6645  1.1834
  508MOL0     H67053   1.503   7.555   3.047  0.3950 -0.6507  0.2029
  508MOL0     H67054   1.729   7.884   3.111  0.8696 -1.8848 -4.6394
  508MOL0     H67055   0.891   7.277   3.178  3.2013  1.5979  1.4247
  508MOL0     H67056   0.665   7.301   3.127  3.1398 -3.9638 -1.3330
  509MOL0     O67057   5.150   2.794   8.481 -0.3609 -0.0863 -0.3503
  509MOL0     C67058   5.218   2.797   8.375 -0.0231  0.4832 -0.3624
  509MOL0     O67059   5.175   2.744   8.262 -0.4675 -0.0780  0.0070
  509MOL0     C67060   5.057   2.674   8.260  0.9650 -0.3822 -1.2594
  509MOL0     C67061   4.932   2.737   8.288 -0.0359 -0.3631 -0.3401
  509MOL0     C67062   4.815   2.666   8.279 -0.0889  0.4232 -0.0492
  509MOL0     C67063   4.813   2.533   8.240 -1.1342 -0.4767 -0.3096
  509MOL0     O67064   4.691   2.470   8.241 -0.2374  0.0159 -0.5118
  509MOL0     C67065   4.699   2.327   8.241  0.1412  0.4611 -0.5295
  509MOL0     C67066   4.555   2.282   8.263  0.1947  0.1153  0.4607
  509MOL0     C67067   4.459   2.313   8.150  0.5565 -0.4558 -0.2583
  509MOL0     C67068   4.499   2.255   8.013 -0.9065 -0.4448  0.5001
  509MOL0     C67069   4.375   2.224   7.932 -0.3829  0.1981  0.0111
  509MOL0     C67070   4.406   2.139   7.805  0.1180 -1.0110  0.4864
  509MOL0     C67071   4.513   2.187   7.716  0.5870 -0.1645 -0.0846
  509MOL0     C67072   4.558   2.094   7.606  0.0062  0.3300 -0.2239
  509MOL0     N67073   4.678   2.131   7.536  0.1979 -0.3397 -0.5855
  509MOL0     C67074   4.716   2.258   7.502  1.2973 -0.1098 -0.1744
  509MOL0     C67075   4.824   2.244   7.424  0.1616  0.2111 -0.2007
  509MOL0     C67076   4.903   2.359   7.362  1.3080  0.4813  0.1511
  509MOL0     C67077   5.020   2.416   7.447 -0.8822 -0.8223  0.9967
  509MOL0     C67078   5.077   2.539   7.372 -0.0817  0.8652  0.1373
  509MOL0     C67079   5.203   2.591   7.445  0.5032 -0.0174 -0.9838
  509MOL0     O67080   5.303   2.489   7.442  0.7724 -0.0341 -0.4196
  509MOL0     C67081   5.427   2.517   7.501 -0.0911  0.3552  1.5103
  509MOL0     C67082   5.480   2.645   7.525 -0.3223 -0.8869 -0.5338
  509MOL0     C67083   5.609   2.665   7.556 -0.8499 -0.8300  0.0253
  509MOL0     C67084   5.699   2.566   7.582  0.5112  0.2065  0.2407
  509MOL0     C67085   5.836   2.606   7.622 -0.4861  0.0322  0.8089
  509MOL0     O67086   5.863   2.742   7.658  0.6003 -0.1530  0.4720
  509MOL0     C67087   5.988   2.784   7.682 -0.6476 -0.0666  0.9327
  509MOL0     C67088   6.079   2.770   7.571  0.1840 -1.2191  0.1949
  509MOL0     C67089   6.215   2.797   7.594  1.1027  0.6583 -0.2434
  509MOL0     C67090   6.265   2.842   7.718 -0.7157 -0.9895  0.2089
  509MOL0     O67091   6.402   2.865   7.724  0.9757  0.2784 -0.0679
  509MOL0     C67092   6.428   2.986   7.798 -0.8931  0.2445 -0.0300
  509MOL0     C67093   6.472   2.955   7.941 -0.2626  0.5385  0.5509
  509MOL0     C67094   6.572   2.847   7.960 -0.0134 -0.0834  0.5596
  509MOL0     C67095   6.696   2.858   7.859  0.6431 -1.0319 -0.3803
  509MOL0     C67096   6.794   2.747   7.885 -0.1836  0.0890 -0.1006
  509MOL0     C67097   6.937   2.768   7.822  0.0235  0.4335  0.0565
  509MOL0     C67098   7.023   2.655   7.840 -0.8687  0.2031  0.1261
  509MOL0     C67099   7.018   2.539   7.742  0.5541  0.3523 -0.4722
  509MOL0    Cl67100   7.068   2.594   7.569  0.2077 -0.6727 -0.2522
  509MOL0     C67101   6.168   2.856   7.825  0.5157 -0.5350  0.2479
  509MOL0     C67102   6.032   2.826   7.810 -0.5318  0.1242  1.2598
  509MOL0     O67103   5.927   2.519   7.598  0.0181 -0.2679  0.9271
  509MOL0     C67104   5.655   2.434   7.558 -0.1579  0.2001 -1.3394
  509MOL0     C67105   5.519   2.412   7.511 -0.3971 -0.0312  0.2998
  509MOL0     N67106   4.856   2.111   7.426 -0.0137  0.1030  0.7031
  509MOL0     N67107   4.766   2.043   7.475  0.8533  0.3288 -0.0189
  509MOL0     C67108   4.939   2.472   8.233  0.3456 -0.0408 -0.3126
  509MOL0     C67109   5.059   2.544   8.226 -0.8020 -0.2280  0.0483
  509MOL0     C67110   5.350   2.856   8.381  0.1593  0.3962  0.2044
  509MOL0     C67111   5.393   2.923   8.492 -0.4569 -0.6924 -0.2013
  509MOL0     C67112   5.525   2.959   8.508 -0.0183  0.4302  0.5145
  509MOL0     C67113   5.621   2.937   8.403  0.5872  0.8797 -1.5313
  509MOL0     O67114   5.755   2.960   8.421 -1.0636  0.9634  0.5199
  509MOL0     C67115   5.795   3.010   8.554 -0.0371 -1.6823 -0.1147
  509MOL0     C67116   5.951   3.041   8.538  0.3888  0.0391 -0.8585
  509MOL0     C67117   6.008   3.070   8.672 -0.7962 -0.1743 -0.3227
  509MOL0     C67118   6.164   3.097   8.693  0.0819 -0.5354 -0.2638
  509MOL0     C67119   6.190   3.238   8.677  0.6257 -0.0514  1.0120
  509MOL0     C67120   6.222   3.351   8.656 -1.2701  0.2486  1.2522
  509MOL0     C67121   5.572   2.878   8.286 -0.0889  0.3530  0.1479
  509MOL0     C67122   5.436   2.830   8.273 -0.6216 -0.1977  0.9399
  509MOL0     H67123   4.932   2.845   8.296 -0.2024 -0.2931 -1.1670
  509MOL0     H67124   4.723   2.718   8.306  0.0327  0.3446  0.5363
  509MOL0     H67125   4.763   2.291   8.321 -2.6332 -0.5470  1.3963
  509MOL0     H67126   4.728   2.292   8.142 -2.4929  2.5215 -2.2056
  509MOL0     H67127   4.524   2.319   8.361 -0.2513 -0.5183  0.5643
  509MOL0     H67128   4.566   2.176   8.287 -1.3329 -0.1623  0.0374
  509MOL0     H67129   4.458   2.421   8.134  1.3969 -0.5101 -0.7502
  509MOL0     H67130   4.363   2.263   8.167 -0.6198  1.5621 -0.6920
  509MOL0     H67131   4.552   2.332   7.957 -2.2702  0.3346  0.2288
  509MOL0     H67132   4.568   2.171   8.030 -1.9999 -1.8107 -1.4301
  509MOL0     H67133   4.324   2.317   7.906  0.0646  0.6965  0.8491
  509MOL0     H67134   4.310   2.158   7.990 -0.4302 -0.1044 -0.3834
  509MOL0     H67135   4.318   2.131   7.741 -0.7800 -1.3512  1.7307
  509MOL0     H67136   4.431   2.037   7.835  1.3871 -1.7543 -2.6262
  509MOL0     H67137   4.473   2.282   7.679 -0.1957  0.0860  1.3697
  509MOL0     H67138   4.604   2.211   7.772  0.6289  0.3808 -0.3777
  509MOL0     H67139   4.483   2.086   7.527  0.3209  4.3905 -1.1951
  509MOL0     H67140   4.568   1.992   7.644 -0.7698  0.6487  0.9172
  509MOL0     H67141   4.665   2.350   7.528 -0.0780 -0.3470 -1.8638
  509MOL0     H67142   4.831   2.441   7.351 -0.8479 -1.5414 -1.9207
  509MOL0     H67143   4.932   2.329   7.261  0.5542 -0.1102  0.1025
  509MOL0     H67144   5.089   2.336   7.475  0.9391  0.1734 -0.4401
  509MOL0     H67145   4.953   2.452   7.526 -1.7711 -2.5769  1.0765
  509MOL0     H67146   5.107   2.500   7.275  4.3077 -2.2117  2.3593
  509MOL0     H67147   5.019   2.630   7.357  2.9050  2.6304 -1.6106
  509MOL0     H67148   5.180   2.626   7.546  2.3558 -0.3259 -0.4156
  509MOL0     H67149   5.248   2.672   7.388  1.1359 -0.0293 -0.5082
  509MOL0     H67150   5.411   2.727   7.505 -0.7893 -1.5142 -1.5874
  509MOL0     H67151   5.633   2.771   7.545 -4.4163  0.0159 -0.8638
  509MOL0     H67152   6.052   2.737   7.471  2.8169  1.3930 -1.5348
  509MOL0     H67153   6.284   2.791   7.511  0.8761  1.4125 -0.4973
  509MOL0     H67154   6.351   3.063   7.792  2.4491  3.7648 -2.7527
  509MOL0     H67155   6.507   3.036   7.741 -1.7653  1.3246 -0.3265
  509MOL0     H67156   6.386   2.937   8.006 -0.9121 -0.0469 -0.4353
  509MOL0     H67157   6.525   3.039   7.987  2.9368 -0.4526 -1.0152
  509MOL0     H67158   6.531   2.748   7.940  2.9877 -1.7299  1.8575
  509MOL0     H67159   6.606   2.860   8.063 -2.3611 -0.0658  1.3733
  509MOL0     H67160   6.661   2.840   7.757  0.3882  0.5777 -0.6003
  509MOL0     H67161   6.747   2.954   7.869  1.2987 -1.4491  0.3749
  509MOL0     H67162   6.750   2.653   7.852  1.2866 -0.7254  0.1915
  509MOL0     H67163   6.799   2.751   7.995 -0.2905  0.7481 -0.1150
  509MOL0     H67164   6.987   2.861   7.847  3.0662 -1.3243  1.0619
  509MOL0     H67165   6.909   2.781   7.717 -3.8563  0.1062  0.8901
  509MOL0     H67166   7.126   2.691   7.837 -0.7813  0.3018  2.5759
  509MOL0     H67167   7.014   2.620   7.943 -2.6531  1.2241  0.3611
  509MOL0     H67168   6.917   2.497   7.738 -0.3165  2.0537  1.8624
  509MOL0     H67169   7.080   2.450   7.758 -1.4378 -1.0842 -0.3118
  509MOL0     H67170   6.185   2.891   7.927 -2.9454  0.1882  0.6978
  509MOL0     H67171   5.964   2.842   7.893 -2.3009  0.1679 -0.1467
  509MOL0     H67172   5.714   2.349   7.593 -0.3067  0.9416  0.8622
  509MOL0     H67173   5.480   2.312   7.522 -4.4219  1.5186  2.0415
  509MOL0     H67174   4.948   2.367   8.210 -0.8472  0.1042 -1.5840
  509MOL0     H67175   5.149   2.486   8.206  0.0655  0.5315  1.5777
  509MOL0     H67176   5.330   2.950   8.576 -0.7768  1.4737 -1.0674
  509MOL0     H67177   5.540   3.016   8.599 -0.4987 -1.1539  1.6343
  509MOL0     H67178   5.772   2.939   8.634 -0.1057 -1.4400  0.0839
  509MOL0     H67179   5.744   3.105   8.570  0.9568 -0.7963 -1.8983
  509MOL0     H67180   6.005   2.954   8.498 -0.0397  0.0205 -1.4164
  509MOL0     H67181   5.971   3.128   8.474 -0.0091  3.5117  3.3317
  509MOL0     H67182   5.980   2.978   8.725  1.9290  0.0292  1.6841
  509MOL0     H67183   5.949   3.155   8.707 -3.8998 -1.8622 -1.1301
  509MOL0     H67184   6.184   3.079   8.800 -0.0306  1.4528  0.1259
  509MOL0     H67185   6.216   3.027   8.627  1.4485 -0.0644  0.2614
  509MOL0     H67186   6.254   3.443   8.611  0.4013 -1.0137 -0.2885
  509MOL0     H67187   5.639   2.861   8.203 -1.1126  1.1035 -0.8684
  509MOL0     H67188   5.413   2.795   8.172 -1.4526  3.2579 -0.2072
  510MOL0     O67189   7.774   5.404   7.473  0.8011  0.1919 -0.8330
  510MOL0     C67190   7.691   5.320   7.494  0.1835  0.0992  1.2804
  510MOL0     O67191   7.597   5.278   7.400  0.5259  0.0802  0.6949
  510MOL0     C67192   7.634   5.286   7.264  0.9547 -0.1224  0.5564
  510MOL0     C67193   7.529   5.297   7.177  0.1295  0.1515 -0.7915
  510MOL0     C67194   7.551   5.290   7.034 -0.7887 -0.1493 -0.5117
  510MOL0     C67195   7.682   5.280   6.978 -1.0541  0.2250 -0.8720
  510MOL0     O67196   7.689   5.287   6.844  0.0381 -0.0422  1.1285
  510MOL0     C67197   7.812   5.277   6.776 -0.3175  0.6487  0.9413
  510MOL0     C67198   7.802   5.316   6.630 -0.3607  0.3466  0.4882
  510MOL0     C67199   7.949   5.309   6.573  0.0094 -0.5084 -0.0252
  510MOL0     C67200   7.957   5.352   6.430  0.4213 -0.3490  0.4063
  510MOL0     C67201   8.097   5.306   6.366  0.0952  0.6946 -0.6162
  510MOL0     C67202   8.117   5.385   6.228 -0.0219  0.2244 -0.7695
  510MOL0     C67203   8.272   5.360   6.175  1.1429  0.3424  0.4315
  510MOL0     C67204   8.276   5.246   6.079 -0.3443  0.1765 -0.7860
  510MOL0     N67205   8.217   5.121   6.135  0.0028  0.1396  0.4660
  510MOL0     C67206   8.110   5.053   6.090 -0.3144  0.1113 -0.7078
  510MOL0     C67207   8.076   4.956   6.184  0.2003  0.4725 -0.3860
  510MOL0     C67208   7.955   4.866   6.180 -0.5384 -0.1352  0.6622
  510MOL0     C67209   7.837   4.932   6.266 -0.8619 -0.0226 -0.1948
  510MOL0     C67210   7.856   4.898   6.414 -0.3448 -0.5369  0.3074
  510MOL0     C67211   7.754   4.959   6.508 -0.3528  0.3009  0.4415
  510MOL0     O67212   7.664   4.857   6.568  0.1314  0.5455  0.6853
  510MOL0     C67213   7.558   4.890   6.651 -0.5184 -0.3953 -0.6899
  510MOL0     C67214   7.468   4.792   6.681 -0.7258 -0.0354 -1.0583
  510MOL0     C67215   7.348   4.807   6.756  0.0005 -0.2068 -0.1961
  510MOL0     C67216   7.320   4.930   6.801  0.2120  0.1831  1.0064
  510MOL0     C67217   7.190   4.955   6.874 -1.0776 -0.4756  0.4828
  510MOL0     O67218   7.100   4.858   6.894 -0.2430 -0.0630  0.1114
  510MOL0     C67219   6.972   4.863   6.944  0.6710  0.1068 -0.1058
  510MOL0     C67220   6.906   4.740   6.971  0.7123 -0.7150 -0.7623
  510MOL0     C67221   6.768   4.730   6.994 -1.0704  0.6931  0.2279
  510MOL0     C67222   6.689   4.846   6.981 -0.1909 -0.1380 -0.2977
  510MOL0     O67223   6.557   4.840   7.000  0.4109  0.2512  0.1731
  510MOL0     C67224   6.498   4.786   6.879  0.8705  0.8173 -0.6791
  510MOL0     C67225   6.350   4.808   6.898  0.3716  0.5074 -0.6586
  510MOL0     C67226   6.266   4.688   6.945 -0.3109 -0.5608 -0.0505
  510MOL0     C67227   6.128   4.754   6.963  0.0864 -0.0137  0.3636
  510MOL0     C67228   6.040   4.660   7.060 -0.1446  0.2009  0.4119
  510MOL0     C67229   5.905   4.724   7.068 -1.2284  0.8734  0.9217
  510MOL0     C67230   5.810   4.652   7.165 -0.6434  0.6165  0.1464
  510MOL0     C67231   5.665   4.691   7.174  0.3039  0.3117 -0.6160
  510MOL0    Cl67232   5.579   4.645   7.030 -0.4550 -0.6191 -0.0281
  510MOL0     C67233   6.755   4.968   6.970  0.1329 -0.1425 -0.2490
  510MOL0     C67234   6.898   4.977   6.957 -0.4995  0.1655 -0.2759
  510MOL0     O67235   7.193   5.061   6.932  0.6669 -0.0435  0.8665
  510MOL0     C67236   7.409   5.036   6.759 -0.2790 -0.4437  1.2323
  510MOL0     C67237   7.530   5.017   6.688 -0.3190  0.1998  0.9546
  510MOL0     N67238   8.178   4.963   6.277  0.2923  0.0028  0.4501
  510MOL0     N67239   8.267   5.053   6.240  0.3138 -0.1127 -0.0771
  510MOL0     C67240   7.787   5.266   7.076 -0.0919  0.0489  0.3215
  510MOL0     C67241   7.767   5.257   7.211  0.0914 -0.8981  0.2647
  510MOL0     C67242   7.659   5.288   7.638  0.1258  0.2867  0.3974
  510MOL0     C67243   7.547   5.208   7.682  0.1601  0.4308  1.0321
  510MOL0     C67244   7.524   5.171   7.814  1.3001 -0.2250 -0.6960
  510MOL0     C67245   7.611   5.227   7.914 -0.1054  0.4763  0.1989
  510MOL0     O67246   7.595   5.202   8.052  0.5364  0.4265 -1.1814
  510MOL0     C67247   7.508   5.093   8.089 -0.0060 -0.3450  0.6581
  510MOL0     C67248   7.525   5.083   8.238 -0.1714 -0.3393 -0.1595
  510MOL0     C67249   7.419   5.001   8.310  0.0719  0.1474  0.5881
  510MOL0     C67250   7.441   5.011   8.463  0.3791 -0.3129 -0.4685
  510MOL0     C67251   7.346   4.954   8.559  0.1014 -0.0549  0.6490
  510MOL0     C67252   7.262   4.911   8.636  0.3206 -0.6656 -0.3354
  510MOL0     C67253   7.721   5.300   7.875 -0.0400 -0.5767 -0.6947
  510MOL0     C67254   7.740   5.332   7.739 -0.2485  0.1295  0.4641
  510MOL0     H67255   7.430   5.336   7.199  1.2260  2.6669 -0.0399
  510MOL0     H67256   7.469   5.286   6.963  0.4402 -2.2751 -1.8948
  510MOL0     H67257   7.847   5.173   6.777  1.7486  1.2695 -0.0473
  510MOL0     H67258   7.891   5.336   6.823  0.9146  1.3224 -1.7455
  510MOL0     H67259   7.775   5.422   6.618  3.7512  1.4834 -0.4279
  510MOL0     H67260   7.736   5.250   6.574 -0.4727 -0.0930  1.1327
  510MOL0     H67261   7.993   5.211   6.595  3.8019  1.0084 -0.0757
  510MOL0     H67262   8.015   5.376   6.629  2.9124 -2.0344 -1.4041
  510MOL0     H67263   7.875   5.302   6.377  1.1879 -0.8419 -0.3455
  510MOL0     H67264   7.945   5.460   6.428  0.8321 -0.1762  3.2473
  510MOL0     H67265   8.097   5.198   6.352 -3.4195  0.6890 -1.2819
  510MOL0     H67266   8.180   5.323   6.436  1.6895  0.2650 -2.3308
  510MOL0     H67267   8.088   5.490   6.237 -2.2946 -0.4061 -0.1172
  510MOL0     H67268   8.044   5.345   6.157 -1.8827  1.2118  0.5107
  510MOL0     H67269   8.309   5.447   6.121  0.7686  0.5775  0.5440
  510MOL0     H67270   8.343   5.328   6.252  1.0574 -2.1903 -0.4625
  510MOL0     H67271   8.374   5.222   6.037  1.2107  0.9062  2.1221
  510MOL0     H67272   8.224   5.285   5.991 -0.2175  0.7810 -0.5978
  510MOL0     H67273   8.050   5.073   6.001 -1.5240 -1.0040 -0.1693
  510MOL0     H67274   7.976   4.764   6.213 -1.5918 -0.0943  1.5177
  510MOL0     H67275   7.929   4.865   6.074 -3.4620  0.5007  1.2890
  510MOL0     H67276   7.743   4.883   6.239 -0.1870 -1.0601 -0.7409
  510MOL0     H67277   7.826   5.037   6.237  2.4323 -0.1233 -2.3428
  510MOL0     H67278   7.848   4.790   6.400  1.5868 -0.6061 -0.6704
  510MOL0     H67279   7.954   4.927   6.453 -1.2328  3.6406 -0.0232
  510MOL0     H67280   7.705   5.046   6.464  1.4119  1.1040 -0.0577
  510MOL0     H67281   7.806   5.002   6.594  0.5047  2.6430 -1.1424
  510MOL0     H67282   7.493   4.692   6.647  2.0739  0.0363  0.4916
  510MOL0     H67283   7.293   4.724   6.799  0.9051 -0.5108  0.3778
  510MOL0     H67284   6.970   4.652   6.970  1.4539 -0.1827 -0.8097
  510MOL0     H67285   6.734   4.627   7.000  1.1527 -0.0251  1.8013
  510MOL0     H67286   6.522   4.679   6.878  1.8442  0.9917  0.9402
  510MOL0     H67287   6.546   4.830   6.791  0.3489  0.4672 -1.1477
  510MOL0     H67288   6.306   4.845   6.806 -2.2871 -3.1229 -1.0491
  510MOL0     H67289   6.338   4.886   6.973 -1.3137 -1.6234  1.4489
  510MOL0     H67290   6.323   4.656   7.033  0.4641  2.8504  0.8303
  510MOL0     H67291   6.262   4.614   6.864 -2.5102  1.3471 -1.8306
  510MOL0     H67292   6.121   4.855   7.005  0.8375 -0.2886  1.2023
  510MOL0     H67293   6.089   4.754   6.861 -0.6380 -1.0086  0.6303
  510MOL0     H67294   6.075   4.666   7.163 -1.1868  1.8715  0.7098
  510MOL0     H67295   6.022   4.559   7.023  0.3903  0.6510 -1.1483
  510MOL0     H67296   5.855   4.733   6.971 -2.4610  0.6720  1.5200
  510MOL0     H67297   5.918   4.827   7.101  2.6616  0.3704  1.4230
  510MOL0     H67298   5.819   4.543   7.170  0.1725  0.6433 -0.4581
  510MOL0     H67299   5.854   4.680   7.261 -1.4940  1.9637  0.1544
  510MOL0     H67300   5.661   4.800   7.184  0.2759  0.7021 -3.8329
  510MOL0     H67301   5.620   4.645   7.263  1.1377  1.8360  0.6382
  510MOL0     H67302   6.698   5.060   6.982 -2.4256 -1.6429 -0.2850
  510MOL0     H67303   6.921   5.083   6.970  0.3991 -0.2239  1.7458
  510MOL0     H67304   7.395   5.141   6.782  0.9304 -0.4994  2.3522
  510MOL0     H67305   7.591   5.099   6.653  0.2348 -1.0749 -1.2645
  510MOL0     H67306   7.884   5.231   7.041  0.4318  1.8345 -0.1022
  510MOL0     H67307   7.852   5.254   7.279  1.2871  3.5339 -0.6932
  510MOL0     H67308   7.478   5.184   7.602  0.4777 -2.3595  1.4678
  510MOL0     H67309   7.440   5.111   7.848  0.1695  1.1017 -1.0663
  510MOL0     H67310   7.529   5.001   8.035 -3.9042 -0.8591 -0.2870
  510MOL0     H67311   7.407   5.126   8.064  0.7212  1.2459 -0.3647
  510MOL0     H67312   7.628   5.053   8.257 -0.1677  0.6243  1.5638
  510MOL0     H67313   7.516   5.184   8.281  1.8744 -0.8986  1.7843
  510MOL0     H67314   7.423   4.894   8.290 -0.8696  0.0806  0.7108
  510MOL0     H67315   7.320   5.042   8.288  0.5519  2.8042  2.8478
  510MOL0     H67316   7.535   4.964   8.495 -0.1657  1.0776  3.7776
  510MOL0     H67317   7.457   5.117   8.488 -1.2698  0.1217 -1.1327
  510MOL0     H67318   7.204   4.896   8.725  1.1639  0.5829  0.4459
  510MOL0     H67319   7.788   5.325   7.957  0.9643 -3.8391 -0.3756
  510MOL0     H67320   7.823   5.397   7.714 -1.5831  0.9549 -2.2980
  511MOL0     O67321   7.213   7.839   5.426 -0.2138 -0.2173 -0.0953
  511MOL0     C67322   7.237   7.762   5.335 -0.0397  0.4522  0.7478
  511MOL0     O67323   7.359   7.755   5.279 -0.3561 -0.0722  0.2775
  511MOL0     C67324   7.468   7.833   5.323 -0.1441  0.3558  0.5242
  511MOL0     C67325   7.479   7.967   5.274  0.0242 -0.7095 -0.0091
  511MOL0     C67326   7.595   8.039   5.313  0.7518 -0.2928  1.1002
  511MOL0     C67327   7.702   7.984   5.388  0.1072  0.1633  0.2390
  511MOL0     O67328   7.815   8.060   5.412  0.8873 -0.3967  0.5458
  511MOL0     C67329   7.944   7.999   5.398 -0.8109 -0.3126 -1.4798
  511MOL0     C67330   8.045   8.109   5.422 -0.2783 -0.1120  0.2755
  511MOL0     C67331   8.183   8.039   5.444 -0.7398 -0.4815  0.5808
  511MOL0     C67332   8.292   8.158   5.452  0.5582  0.2258  0.5859
  511MOL0     C67333   8.429   8.105   5.505  0.7478  0.7035  0.9227
  511MOL0     C67334   8.518   8.211   5.563  0.5087  0.0591 -0.2775
  511MOL0     C67335   8.585   8.149   5.693 -0.4485  0.2372  0.0164
  511MOL0     C67336   8.720   8.078   5.658 -0.1590  0.5242  0.3822
  511MOL0     N67337   8.804   8.021   5.757  0.0183 -0.8440  0.3776
  511MOL0     C67338   8.908   8.086   5.820  0.0047  0.3353 -0.2719
  511MOL0     C67339   8.968   7.975   5.887  0.5002 -0.0381 -0.5886
  511MOL0     C67340   9.096   7.964   5.970 -0.0006  0.7248 -0.1802
  511MOL0     C67341   9.122   8.101   6.046 -0.0878  0.8843  0.1761
  511MOL0     C67342   9.216   8.079   6.167  0.0480  0.7076  0.4506
  511MOL0     C67343   9.356   8.129   6.136 -0.7620 -0.5244  0.4881
  511MOL0     O67344   9.437   8.100   6.249  0.1065 -0.2776  0.3838
  511MOL0     C67345   9.570   8.067   6.233  0.8225 -0.5490  0.5058
  511MOL0     C67346   9.660   8.116   6.317 -1.1496 -0.4928 -0.0963
  511MOL0     C67347   9.795   8.079   6.311 -0.2915  0.2360  1.0315
  511MOL0     C67348   9.841   7.984   6.217  0.0352 -0.1233 -0.7282
  511MOL0     C67349   9.991   7.948   6.213  0.2522  0.7386 -0.7437
  511MOL0     O67350  10.079   8.042   6.263  0.5779  0.0154 -0.0787
  511MOL0     C67351  10.201   7.997   6.289 -0.4321 -0.1067 -1.4950
  511MOL0     C67352  10.235   7.972   6.426 -0.1037  0.4883  0.4225
  511MOL0     C67353  10.368   7.923   6.453  0.4332 -0.0643 -0.4972
  511MOL0     C67354  10.462   7.913   6.344  0.7935 -0.0915  0.5885
  511MOL0     O67355  10.595   7.896   6.361 -0.1225  0.2752  0.4598
  511MOL0     C67356  10.646   7.938   6.485 -0.4946  0.0225  0.0954
  511MOL0     C67357  10.798   7.943   6.458 -0.2561 -0.0954 -1.0444
  511MOL0     C67358  10.878   8.002   6.580  0.4922  0.1029 -0.0882
  511MOL0     C67359  10.912   7.891   6.688  0.3656 -0.2556 -0.2181
  511MOL0     C67360  10.984   7.966   6.794  0.0751 -0.4218 -0.1093
  511MOL0     C67361  11.004   7.874   6.925 -0.5175  0.6730  0.1920
  511MOL0     C67362  11.106   7.949   7.016  0.1358 -0.1601 -1.0122
  511MOL0     C67363  11.142   7.878   7.148  1.1924  0.0176  0.2607
  511MOL0    Cl67364  11.212   7.717   7.116 -0.0196  0.1542 -0.2831
  511MOL0     C67365  10.413   7.924   6.211 -0.5725  1.0900 -0.1177
  511MOL0     C67366  10.284   7.970   6.185 -0.3607  0.4689  0.3971
  511MOL0     O67367  10.023   7.835   6.169 -0.0566 -0.2306 -1.0418
  511MOL0     C67368   9.740   7.923   6.135 -0.6076 -0.1347  0.6662
  511MOL0     C67369   9.608   7.966   6.141  0.5018 -0.4877  0.1462
  511MOL0     N67370   8.898   7.858   5.861 -0.3685 -0.1697 -0.3067
  511MOL0     N67371   8.806   7.891   5.780 -0.1632  0.0293  0.1450
  511MOL0     C67372   7.678   7.856   5.438 -1.0445  0.4864  0.0191
  511MOL0     C67373   7.564   7.777   5.407  0.9145 -0.1234 -0.6929
  511MOL0     C67374   7.137   7.662   5.285  0.8795  0.6105 -0.4119
  511MOL0     C67375   7.163   7.567   5.180 -0.6054 -0.0214  0.5672
  511MOL0     C67376   7.058   7.475   5.151  0.3973 -0.6848  1.1898
  511MOL0     C67377   6.933   7.469   5.210  0.2800  0.6995  0.7680
  511MOL0     O67378   6.853   7.362   5.179  0.2616  0.0429  0.8831
  511MOL0     C67379   6.730   7.343   5.260  0.3524  0.1062  0.5396
  511MOL0     C67380   6.622   7.439   5.215  0.1517  0.1861 -0.3877
  511MOL0     C67381   6.545   7.402   5.093 -0.4772 -0.5617  0.2876
  511MOL0     C67382   6.436   7.295   5.113  0.0793  0.0663 -0.0846
  511MOL0     C67383   6.346   7.310   5.226  0.5592 -1.0301  0.3743
  511MOL0     C67384   6.285   7.341   5.327 -0.4124  0.7787  0.8370
  511MOL0     C67385   6.906   7.564   5.310 -0.7028  0.0898  0.3725
  511MOL0     C67386   7.007   7.658   5.343  0.1641  0.0391  0.1884
  511MOL0     H67387   7.395   8.002   5.215 -0.0959 -0.7213  0.1534
  511MOL0     H67388   7.608   8.143   5.284 -0.3336 -0.6906 -0.9868
  511MOL0     H67389   7.963   7.958   5.298  0.1160  0.6552 -1.7270
  511MOL0     H67390   7.960   7.919   5.470 -0.3812  1.8474  0.9590
  511MOL0     H67391   8.014   8.166   5.511  0.1778  1.7869 -0.7223
  511MOL0     H67392   8.036   8.182   5.341 -0.0352 -1.0606 -0.6119
  511MOL0     H67393   8.216   7.966   5.370 -1.2858 -0.7875  0.6313
  511MOL0     H67394   8.187   7.989   5.541  3.1902  0.8286  1.2556
  511MOL0     H67395   8.306   8.215   5.360  1.3187  1.0516  1.1942
  511MOL0     H67396   8.264   8.227   5.532  2.3353  0.9367  0.6293
  511MOL0     H67397   8.481   8.058   5.422 -0.4758 -0.5415  0.8111
  511MOL0     H67398   8.413   8.025   5.578 -2.4190  1.6463  1.4267
  511MOL0     H67399   8.460   8.297   5.600  1.0772 -0.6728  2.5529
  511MOL0     H67400   8.591   8.236   5.486  0.4068 -0.0510 -0.4082
  511MOL0     H67401   8.625   8.234   5.749  2.0166  0.1656 -1.4696
  511MOL0     H67402   8.514   8.079   5.739 -1.7102 -1.4460 -4.0290
  511MOL0     H67403   8.781   8.148   5.600  2.3047 -0.5847  1.5171
  511MOL0     H67404   8.691   7.996   5.592  0.5806 -0.2241  0.9786
  511MOL0     H67405   8.929   8.193   5.825 -3.1809  1.0134  2.2188
  511MOL0     H67406   9.179   7.940   5.903 -1.0609  1.0634 -1.6605
  511MOL0     H67407   9.076   7.888   6.046 -0.8816  1.9440  0.8489
  511MOL0     H67408   9.026   8.131   6.090 -0.5965 -3.2466  2.4112
  511MOL0     H67409   9.171   8.175   5.982  2.5140  0.4365  1.5312
  511MOL0     H67410   9.173   8.134   6.251 -3.1542 -1.3922  0.3619
  511MOL0     H67411   9.227   7.974   6.197  0.0462 -0.2492 -2.5790
  511MOL0     H67412   9.361   8.238   6.126  0.1836 -0.5422  0.6549
  511MOL0     H67413   9.396   8.099   6.039  2.9880  2.7358  0.7345
  511MOL0     H67414   9.637   8.197   6.386 -0.5516 -0.0293 -0.4342
  511MOL0     H67415   9.865   8.132   6.375  1.4667 -0.4610 -0.2392
  511MOL0     H67416  10.155   7.994   6.495  1.2010  0.0511  2.1432
  511MOL0     H67417  10.394   7.901   6.556  2.1331 -1.6917 -1.2019
  511MOL0     H67418  10.607   7.874   6.564 -0.4133 -0.6057 -0.3616
  511MOL0     H67419  10.609   8.039   6.504  0.7767  0.2666  1.4359
  511MOL0     H67420  10.810   8.017   6.378 -2.7635  0.4499 -0.9797
  511MOL0     H67421  10.852   7.851   6.434  1.3461 -0.1302  2.2123
  511MOL0     H67422  10.817   8.076   6.633  1.7063  0.6402  0.6119
  511MOL0     H67423  10.970   8.050   6.546  0.4721 -0.4606 -0.9503
  511MOL0     H67424  10.818   7.849   6.725  1.1271 -1.7596  0.0831
  511MOL0     H67425  10.973   7.807   6.653 -0.6417 -0.4497 -1.5870
  511MOL0     H67426  10.930   8.054   6.830  0.6491 -0.5171  1.0462
  511MOL0     H67427  11.079   8.000   6.753  0.0240  1.4437  1.2170
  511MOL0     H67428  11.035   7.772   6.902 -3.1557  0.2356 -1.8075
  511MOL0     H67429  10.912   7.845   6.977  0.7471 -1.1900  1.5546
  511MOL0     H67430  11.201   7.966   6.964  0.4308  4.3733  0.5680
  511MOL0     H67431  11.064   8.047   7.038 -0.7397 -0.6007 -0.6684
  511MOL0     H67432  11.063   7.877   7.223 -0.5960  3.2169 -1.3392
  511MOL0     H67433  11.213   7.956   7.178 -0.2034  1.5048 -0.1375
  511MOL0     H67434  10.483   7.923   6.128 -1.2012  0.5426 -0.6425
  511MOL0     H67435  10.258   7.978   6.080 -1.2370 -0.7239  0.5029
  511MOL0     H67436   9.768   7.852   6.057 -0.2710  0.6263  0.0765
  511MOL0     H67437   9.531   7.924   6.077 -0.0507  2.1330 -1.0276
  511MOL0     H67438   7.759   7.809   5.494  1.1377  2.1096 -1.5953
  511MOL0     H67439   7.541   7.680   5.451 -0.3847  0.1631 -0.7196
  511MOL0     H67440   7.259   7.567   5.129 -0.2640 -1.2088  1.1547
  511MOL0     H67441   7.061   7.400   5.073 -1.0305  1.4946 -1.1117
  511MOL0     H67442   6.751   7.353   5.367 -1.4264  1.4463  0.8062
  511MOL0     H67443   6.694   7.243   5.235 -0.0458 -0.2380  2.3697
  511MOL0     H67444   6.559   7.452   5.304 -0.7502 -0.7584 -0.8687
  511MOL0     H67445   6.647   7.545   5.201  0.2831  0.1412 -0.5015
  511MOL0     H67446   6.609   7.384   5.006 -0.4671  3.4145 -0.7314
  511MOL0     H67447   6.492   7.494   5.066  5.0250  3.3081  0.9371
  511MOL0     H67448   6.379   7.291   5.019  1.2977 -1.9460 -0.8041
  511MOL0     H67449   6.474   7.194   5.130 -1.2191 -0.0858  2.2862
  511MOL0     H67450   6.220   7.366   5.408  0.2796  1.3036  1.2376
  511MOL0     H67451   6.810   7.571   5.361  0.6858  0.1997  3.1522
  511MOL0     H67452   6.996   7.729   5.424  0.3765 -1.5854  1.7068
  512MOL0     O67453  10.377  11.107   5.542 -0.2167  1.0594  0.2683
  512MOL0     C67454  10.422  11.190   5.465  0.8743 -0.0805  0.2285
  512MOL0     O67455  10.423  11.325   5.488  0.0659  0.1566  0.6435
  512MOL0     C67456  10.361  11.367   5.603  0.5317 -0.1472 -0.2881
  512MOL0     C67457  10.401  11.329   5.733 -0.6900  0.0884  0.2453
  512MOL0     C67458  10.332  11.381   5.842 -0.4577  0.7220 -0.9805
  512MOL0     C67459  10.226  11.469   5.824  0.1222 -0.0930 -0.3778
  512MOL0     O67460  10.145  11.516   5.923 -0.2803 -0.4775  0.0951
  512MOL0     C67461  10.135  11.449   6.046 -0.0205 -0.6675 -1.3007
  512MOL0     C67462  10.028  11.513   6.130  0.6832 -0.0081 -0.0317
  512MOL0     C67463   9.891  11.495   6.067  0.1122  0.5415  0.2393
  512MOL0     C67464   9.770  11.542   6.159 -0.2383 -0.0783 -0.4801
  512MOL0     C67465   9.638  11.488   6.099 -0.0414 -0.9701 -1.3353
  512MOL0     C67466   9.514  11.498   6.188 -0.3703  0.8932  0.4744
  512MOL0     C67467   9.384  11.460   6.112  0.0309 -0.8600 -0.0234
  512MOL0     C67468   9.357  11.309   6.094 -0.2876 -0.0758  0.1899
  512MOL0     N67469   9.235  11.287   6.014 -0.9675  0.3511  0.0038
  512MOL0     C67470   9.108  11.335   6.035 -0.8655 -0.1709 -0.2304
  512MOL0     C67471   9.040  11.278   5.935 -0.8336  0.1809  1.2108
  512MOL0     C67472   8.903  11.299   5.913 -1.3960  0.2161 -0.2763
  512MOL0     C67473   8.827  11.181   5.970  0.4452 -0.0890  0.3822
  512MOL0     C67474   8.688  11.195   5.927 -0.1528  0.5078 -0.5457
  512MOL0     C67475   8.593  11.077   5.958  0.5043 -0.6709  0.4444
  512MOL0     O67476   8.464  11.126   5.933 -0.3414 -0.7398 -0.2282
  512MOL0     C67477   8.353  11.040   5.912 -0.7336 -0.7180 -0.6910
  512MOL0     C67478   8.233  11.100   5.909  0.3154  0.0090  0.6527
  512MOL0     C67479   8.119  11.029   5.861 -0.4641  0.0938  0.6635
  512MOL0     C67480   8.122  10.896   5.827  0.9827  0.1196 -0.2737
  512MOL0     C67481   8.008  10.825   5.765 -1.1587  0.5448  0.6302
  512MOL0     O67482   7.904  10.893   5.738 -0.2224 -0.0216 -0.5553
  512MOL0     C67483   7.779  10.840   5.695  1.4515  1.2190 -0.7767
  512MOL0     C67484   7.773  10.745   5.590 -0.4980 -0.5536  0.3743
  512MOL0     C67485   7.649  10.694   5.540 -0.0997 -0.3089  0.2506
  512MOL0     C67486   7.530  10.754   5.588  0.8451  0.7207  0.2778
  512MOL0     O67487   7.416  10.701   5.531 -0.1883  0.8365 -0.6488
  512MOL0     C67488   7.286  10.742   5.574  0.2655  0.6923 -0.1504
  512MOL0     C67489   7.176  10.686   5.492  1.2756 -0.8506  0.0419
  512MOL0     C67490   7.155  10.541   5.513  0.4600  0.5400  0.2225
  512MOL0     C67491   7.048  10.482   5.411  0.0318 -1.2571  0.9719
  512MOL0     C67492   7.073  10.338   5.374  0.3051  0.1181  0.2155
  512MOL0     C67493   6.995  10.297   5.247  0.3196 -0.2708  0.0540
  512MOL0     C67494   7.016  10.149   5.221 -0.4562 -0.6424 -0.0091
  512MOL0     C67495   6.890  10.079   5.202  0.1302 -0.0402  0.1339
  512MOL0    Cl67496   6.799  10.163   5.062  0.2007 -0.0276 -0.0021
  512MOL0     C67497   7.535  10.857   5.681 -0.5258  0.3342  0.2814
  512MOL0     C67498   7.654  10.894   5.733  0.3688  0.6061 -0.5116
  512MOL0     O67499   8.016  10.700   5.761  0.8586 -0.8223 -0.8186
  512MOL0     C67500   8.251  10.830   5.855  1.3810  0.4681 -0.3636
  512MOL0     C67501   8.366  10.898   5.893  0.6262 -0.2562  0.0093
  512MOL0     N67502   9.125  11.190   5.867 -0.3436 -0.0431  0.1677
  512MOL0     N67503   9.244  11.201   5.913  0.6267  0.3980  0.8152
  512MOL0     C67504  10.184  11.501   5.698 -0.5144 -0.7328  1.3381
  512MOL0     C67505  10.254  11.456   5.588 -0.2271 -1.1790  0.0012
  512MOL0     C67506  10.470  11.149   5.337 -0.1072  0.4793  0.5586
  512MOL0     C67507  10.570  11.217   5.273 -0.7999  0.2942 -0.5330
  512MOL0     C67508  10.619  11.175   5.150  0.3540 -0.4215 -0.2917
  512MOL0     C67509  10.564  11.064   5.083  0.0002  1.6019  0.5470
  512MOL0     O67510  10.616  11.020   4.965  1.0622 -0.0356  0.1004
  512MOL0     C67511  10.568  10.904   4.894 -0.4650  0.3153 -0.3860
  512MOL0     C67512  10.634  10.883   4.750 -0.4995 -0.1936 -0.0501
  512MOL0     C67513  10.790  10.861   4.754  0.8559 -0.1817 -0.5928
  512MOL0     C67514  10.855  10.907   4.626  0.2508 -0.2750  0.1111
  512MOL0     C67515  10.881  11.052   4.627  1.4514 -0.1511 -0.4706
  512MOL0     C67516  10.924  11.161   4.617  0.5990 -0.9778  1.4229
  512MOL0     C67517  10.474  10.985   5.153  0.0242  0.2499 -1.0774
  512MOL0     C67518  10.433  11.025   5.284 -0.0449 -0.5280  0.6191
  512MOL0     H67519  10.478  11.254   5.744 -1.7888 -0.7867  2.5973
  512MOL0     H67520  10.366  11.357   5.943 -1.9020  2.3819 -0.0447
  512MOL0     H67521  10.224  11.453   6.109 -2.2810  0.4467  2.1587
  512MOL0     H67522  10.100  11.348   6.024 -1.5598  0.4560 -4.6826
  512MOL0     H67523  10.049  11.621   6.133  1.3914  0.0884 -3.6864
  512MOL0     H67524  10.032  11.480   6.234 -0.0557 -0.0050  0.0011
  512MOL0     H67525   9.877  11.389   6.041 -2.0019  1.2492 -1.9594
  512MOL0     H67526   9.882  11.545   5.970 -0.9247 -2.2878 -1.2527
  512MOL0     H67527   9.786  11.505   6.261  1.9088  1.4862 -0.1731
  512MOL0     H67528   9.771  11.651   6.159 -2.4268 -0.0008  0.9434
  512MOL0     H67529   9.644  11.382   6.074 -1.3377 -0.5049 -3.9957
  512MOL0     H67530   9.610  11.545   6.009 -4.3141  0.7144  0.8153
  512MOL0     H67531   9.507  11.604   6.214  0.5717  0.6459  1.8122
  512MOL0     H67532   9.528  11.437   6.277 -0.4043 -2.8597 -1.8683
  512MOL0     H67533   9.306  11.517   6.164  0.5189  0.4638 -0.6852
  512MOL0     H67534   9.393  11.513   6.017  1.5005  1.7990  1.4888
  512MOL0     H67535   9.364  11.265   6.194  0.0851 -3.3775 -1.1660
  512MOL0     H67536   9.439  11.267   6.035 -1.6415 -3.1833  0.3318
  512MOL0     H67537   9.083  11.400   6.118  0.4725  0.2529 -0.1484
  512MOL0     H67538   8.888  11.308   5.805 -0.9240  1.0528 -0.2779
  512MOL0     H67539   8.876  11.397   5.952  2.1184  0.9693  0.6130
  512MOL0     H67540   8.833  11.168   6.079 -0.9518 -0.3099  0.4533
  512MOL0     H67541   8.858  11.089   5.920  0.8881  0.1368  0.2396
  512MOL0     H67542   8.640  11.286   5.966  1.0830  0.8224  0.2750
  512MOL0     H67543   8.686  11.210   5.818 -0.8557 -1.6304 -0.8756
  512MOL0     H67544   8.589  11.044   6.063  0.0090 -1.3536  0.2152
  512MOL0     H67545   8.616  10.983   5.906 -0.2491 -1.5676  1.6460
  512MOL0     H67546   8.236  11.208   5.919  2.6508  0.1237 -0.5657
  512MOL0     H67547   8.026  11.081   5.838 -1.3469 -0.9692  1.6776
  512MOL0     H67548   7.865  10.703   5.549 -1.0061 -0.5741 -0.7716
  512MOL0     H67549   7.644  10.614   5.467  1.9825 -0.2810  0.0009
  512MOL0     H67550   7.284  10.851   5.573  0.9965  0.7443  1.1607
  512MOL0     H67551   7.271  10.726   5.681 -0.2154  0.3265 -0.2677
  512MOL0     H67552   7.189  10.723   5.390  0.3084  0.9046  0.5086
  512MOL0     H67553   7.082  10.731   5.527  0.5756 -3.0987  1.2254
  512MOL0     H67554   7.125  10.515   5.615  1.4553 -2.7956 -0.2103
  512MOL0     H67555   7.250  10.493   5.487  1.1836  2.7010 -1.4845
  512MOL0     H67556   6.948  10.508   5.445 -0.0364 -0.8605  0.4833
  512MOL0     H67557   7.057  10.541   5.319 -0.7067 -0.9185  1.1137
  512MOL0     H67558   7.053  10.272   5.459  0.3857 -2.6976 -1.8328
  512MOL0     H67559   7.179  10.315   5.358  0.0039 -0.7235 -0.5762
  512MOL0     H67560   7.028  10.363   5.166  1.2542 -2.3389 -1.3154
  512MOL0     H67561   6.888  10.317   5.261  0.0985 -0.2061 -1.5851
  512MOL0     H67562   7.083  10.139   5.136  0.1255 -0.1518  0.3824
  512MOL0     H67563   7.068  10.108   5.308  0.1738  0.2296  0.0452
  512MOL0     H67564   6.838  10.089   5.298  1.1514  0.1836  0.6811
  512MOL0     H67565   6.907   9.972   5.187 -1.1187 -0.5738  2.0536
  512MOL0     H67566   7.441  10.900   5.714 -0.1977  0.5247  1.0055
  512MOL0     H67567   7.661  10.965   5.815 -1.1510 -2.0023  2.0997
  512MOL0     H67568   8.260  10.724   5.837  5.3168  0.7178 -0.8889
  512MOL0     H67569   8.463  10.858   5.923  0.4091  0.2391  1.4600
  512MOL0     H67570  10.108  11.577   5.679  1.5929  0.9799 -0.9178
  512MOL0     H67571  10.216  11.476   5.488  0.9959 -0.0245 -0.2653
  512MOL0     H67572  10.618  11.298   5.327  1.1234 -2.2182  1.8390
  512MOL0     H67573  10.693  11.235   5.099  1.0970 -2.0202 -1.1839
  512MOL0     H67574  10.460  10.900   4.877 -0.6579  1.1013  0.5780
  512MOL0     H67575  10.589  10.821   4.962  1.8769  2.8076  2.2072
  512MOL0     H67576  10.594  10.796   4.696  1.2687 -1.3524  0.4087
  512MOL0     H67577  10.627  10.975   4.691  2.4124  1.7587  2.3444
  512MOL0     H67578  10.802  10.752   4.756 -0.8065 -0.4038 -1.4270
  512MOL0     H67579  10.814  10.916   4.846 -1.8428 -1.3520  0.9428
  512MOL0     H67580  10.940  10.845   4.597  1.4373  1.1136  0.5027
  512MOL0     H67581  10.778  10.890   4.550 -0.7001 -1.2725  1.2455
  512MOL0     H67582  10.963  11.260   4.621  2.9429 -1.7963  0.7266
  512MOL0     H67583  10.432  10.890   5.123 -1.5995  0.0108  1.6020
  512MOL0     H67584  10.359  10.962   5.332 -0.6765 -1.3654 -1.3242
  513MOL0     O67585   7.977   4.009   7.520  0.3904  0.6811  0.8814
  513MOL0     C67586   8.095   3.970   7.524 -0.0657 -0.4371  0.7454
  513MOL0     O67587   8.211   4.057   7.528 -0.3692  0.4827 -0.1543
  513MOL0     C67588   8.198   4.191   7.519  0.5569  0.0884 -0.7761
  513MOL0     C67589   8.281   4.265   7.439  0.5519 -0.8643  0.9752
  513MOL0     C67590   8.250   4.401   7.416  0.4225 -0.7061 -0.4575
  513MOL0     C67591   8.145   4.466   7.476  0.4488  0.7453 -0.0731
  513MOL0     O67592   8.093   4.589   7.446  0.4304 -0.0914 -0.8049
  513MOL0     C67593   8.133   4.664   7.334  0.1480  0.2976  0.2776
  513MOL0     C67594   8.230   4.777   7.370  0.3187  0.2187  0.8624
  513MOL0     C67595   8.344   4.730   7.463 -0.4191 -0.9509 -0.3681
  513MOL0     C67596   8.439   4.848   7.501 -0.5428  0.1538 -0.6075
  513MOL0     C67597   8.566   4.818   7.580 -0.7351 -0.5768  0.2503
  513MOL0     C67598   8.648   4.946   7.563 -0.2041  1.1849 -0.6058
  513MOL0     C67599   8.585   5.073   7.620 -0.1212 -0.0834  0.0196
  513MOL0     C67600   8.661   5.195   7.578  0.0962 -0.7251 -0.3645
  513MOL0     N67601   8.806   5.197   7.577 -0.5003 -0.6601 -0.0329
  513MOL0     C67602   8.874   5.208   7.695  1.0790  0.2852 -0.5605
  513MOL0     C67603   9.004   5.227   7.673 -0.3931 -0.7507  0.1543
  513MOL0     C67604   9.114   5.272   7.763 -0.2214  0.3009  0.4689
  513MOL0     C67605   9.122   5.418   7.790  0.5466 -0.2420 -0.0910
  513MOL0     C67606   9.135   5.506   7.669  0.1606 -0.2653 -0.0417
  513MOL0     C67607   9.264   5.502   7.588 -0.7510  0.8151 -0.0475
  513MOL0     O67608   9.392   5.469   7.652 -0.5888  0.7748 -0.3763
  513MOL0     C67609   9.463   5.576   7.706  0.3871  0.0226 -0.1458
  513MOL0     C67610   9.463   5.706   7.661 -0.2474 -0.3135 -0.1823
  513MOL0     C67611   9.535   5.799   7.731 -0.5542 -0.4613  0.8650
  513MOL0     C67612   9.634   5.766   7.821 -0.2724  0.0584  0.5731
  513MOL0     C67613   9.732   5.867   7.869  0.6602 -0.1588 -0.6258
  513MOL0     O67614   9.853   5.816   7.923 -0.0522  0.0006 -0.5513
  513MOL0     C67615   9.945   5.917   7.957 -0.4562 -0.2614  0.6466
  513MOL0     C67616  10.034   5.981   7.872  0.0546  0.2877  0.2792
  513MOL0     C67617  10.125   6.072   7.924 -0.6120 -0.0193 -0.6154
  513MOL0     C67618  10.146   6.088   8.059 -0.0166  0.6510  0.0478
  513MOL0     O67619  10.246   6.161   8.119  0.0825 -0.4333 -1.0036
  513MOL0     C67620  10.352   6.231   8.041  1.4252  0.2051  0.2154
  513MOL0     C67621  10.442   6.119   8.001  0.0789  0.0437  0.4449
  513MOL0     C67622  10.580   6.173   7.947  0.1628  0.7972  0.3627
  513MOL0     C67623  10.694   6.067   7.955  0.2780  0.4444  0.3594
  513MOL0     C67624  10.799   6.068   7.842  0.3806  0.9173  0.2749
  513MOL0     C67625  10.869   6.200   7.839 -0.3681 -0.6989 -0.6944
  513MOL0     C67626  10.987   6.190   7.736  0.9694  0.3527  0.0243
  513MOL0     C67627  11.111   6.234   7.793 -0.3988 -0.0085 -0.1203
  513MOL0    Cl67628  11.161   6.135   7.931 -0.4723  0.0254  0.3215
  513MOL0     C67629  10.065   6.017   8.148 -0.2734  0.0292 -0.5375
  513MOL0     C67630   9.966   5.936   8.089  0.5467 -0.2080 -0.3844
  513MOL0     O67631   9.702   5.981   7.854  0.5037 -0.5579 -0.6297
  513MOL0     C67632   9.641   5.626   7.860 -0.3983  0.3350 -0.2667
  513MOL0     C67633   9.553   5.536   7.803 -0.1177  0.2888  0.4362
  513MOL0     N67634   9.019   5.230   7.533  0.2447 -0.4219 -0.1201
  513MOL0     N67635   8.908   5.210   7.479  1.0742  0.1354 -0.4093
  513MOL0     C67636   8.077   4.396   7.574  0.4871  1.2108 -0.0946
  513MOL0     C67637   8.098   4.262   7.597  0.5213  0.4131 -0.2178
  513MOL0     C67638   8.129   3.828   7.514 -0.3017 -0.3180  0.4137
  513MOL0     C67639   8.259   3.789   7.552 -0.0980  0.8112 -0.4477
  513MOL0     C67640   8.302   3.656   7.527 -0.0017 -0.0788  0.0574
  513MOL0     C67641   8.216   3.566   7.458  0.5837  0.1375  0.4886
  513MOL0     O67642   8.244   3.441   7.422  0.4420  0.6233 -0.0175
  513MOL0     C67643   8.347   3.372   7.488  0.1326  0.1791  0.2472
  513MOL0     C67644   8.469   3.353   7.405 -0.6522 -0.5146  0.1750
  513MOL0     C67645   8.430   3.312   7.263  0.1767  0.0821 -1.2807
  513MOL0     C67646   8.346   3.188   7.264  0.1651 -0.1134  0.1751
  513MOL0     C67647   8.328   3.156   7.127  0.4613  0.7676  0.4989
  513MOL0     C67648   8.322   3.131   7.006 -0.1740  0.7917 -0.0552
  513MOL0     C67649   8.093   3.610   7.430  0.7240 -0.0220  0.1302
  513MOL0     C67650   8.040   3.733   7.471  0.1341 -0.8713  0.8550
  513MOL0     H67651   8.356   4.213   7.381 -2.5895 -3.4181 -1.1732
  513MOL0     H67652   8.307   4.446   7.335  3.3645 -2.2079  0.6113
  513MOL0     H67653   8.045   4.710   7.288  0.5289  1.2695  0.4890
  513MOL0     H67654   8.178   4.602   7.257 -0.0335  0.5438 -0.0304
  513MOL0     H67655   8.172   4.855   7.421  2.2684  2.5087 -0.2235
  513MOL0     H67656   8.269   4.812   7.274  0.1588 -0.3095  0.6013
  513MOL0     H67657   8.400   4.643   7.427 -1.8634 -1.2900 -1.9775
  513MOL0     H67658   8.311   4.706   7.564  1.8475  0.6662  0.8377
  513MOL0     H67659   8.470   4.876   7.400 -1.1162 -2.0601 -1.4468
  513MOL0     H67660   8.372   4.926   7.539 -1.4928 -1.9582  2.4052
  513MOL0     H67661   8.618   4.731   7.539  1.6156  1.2605 -0.8863
  513MOL0     H67662   8.544   4.793   7.684 -0.8036 -0.4425  0.2680
  513MOL0     H67663   8.675   4.966   7.459 -2.6651 -0.7171 -1.6975
  513MOL0     H67664   8.747   4.940   7.611 -0.0393  2.2557 -0.7681
  513MOL0     H67665   8.477   5.079   7.603 -0.0958  0.4754  0.0424
  513MOL0     H67666   8.595   5.063   7.728  1.2643 -2.8096 -0.2587
  513MOL0     H67667   8.625   5.282   7.634 -0.2497 -0.3270 -1.1911
  513MOL0     H67668   8.626   5.215   7.477  1.6276  0.3891 -0.7194
  513MOL0     H67669   8.824   5.227   7.789  1.6750  0.0850 -0.2005
  513MOL0     H67670   9.212   5.233   7.732 -1.1773 -2.2696  0.4628
  513MOL0     H67671   9.092   5.218   7.855 -1.3569 -2.2127 -1.1505
  513MOL0     H67672   9.213   5.441   7.846  0.7410  3.6003 -1.6595
  513MOL0     H67673   9.035   5.456   7.843 -1.1962 -3.1824 -0.6255
  513MOL0     H67674   9.051   5.480   7.603  2.8450 -1.8033 -3.1237
  513MOL0     H67675   9.128   5.613   7.695  0.1954 -0.4248  0.6447
  513MOL0     H67676   9.281   5.588   7.521 -0.6178  0.6543 -0.2201
  513MOL0     H67677   9.250   5.426   7.510  0.1963  1.7792 -1.2014
  513MOL0     H67678   9.395   5.747   7.588 -0.9440  0.3533  0.8199
  513MOL0     H67679   9.535   5.897   7.683 -1.6223 -2.4009 -3.6540
  513MOL0     H67680  10.012   5.993   7.767 -0.1790  0.2821  0.3272
  513MOL0     H67681  10.175   6.140   7.857  2.4051 -1.6738 -0.2341
  513MOL0     H67682  10.400   6.300   8.112  2.9892 -1.4647  0.8504
  513MOL0     H67683  10.305   6.292   7.964  1.7162  2.7889  1.9432
  513MOL0     H67684  10.387   6.055   7.931  0.3396  1.3907 -1.0322
  513MOL0     H67685  10.467   6.059   8.089  1.8750  0.8749  0.5381
  513MOL0     H67686  10.609   6.265   7.999 -3.1670  1.2943  1.5750
  513MOL0     H67687  10.560   6.215   7.848 -2.6322  2.6782  1.5821
  513MOL0     H67688  10.743   6.079   8.052  1.2988 -0.5475 -0.0031
  513MOL0     H67689  10.647   5.968   7.954 -0.5140  0.7581  2.6066
  513MOL0     H67690  10.744   6.062   7.748 -0.0976  2.5181  0.4206
  513MOL0     H67691  10.869   5.985   7.855 -1.1799 -0.8121 -1.7029
  513MOL0     H67692  10.903   6.224   7.940 -0.3162 -0.2859 -0.8055
  513MOL0     H67693  10.808   6.283   7.801 -2.1809 -2.4801 -1.8617
  513MOL0     H67694  10.997   6.086   7.703  3.9299 -0.2402  2.3851
  513MOL0     H67695  10.970   6.249   7.645 -0.9723  2.6588  1.7639
  513MOL0     H67696  11.098   6.338   7.826  0.7734  0.9661 -2.5033
  513MOL0     H67697  11.185   6.241   7.713 -1.9669  2.9422 -1.4649
  513MOL0     H67698  10.085   6.019   8.255  1.6767 -1.3046 -0.8306
  513MOL0     H67699   9.900   5.870   8.144  1.4432  0.3342  1.4051
  513MOL0     H67700   9.706   5.595   7.941  0.4860  1.1593 -0.6374
  513MOL0     H67701   9.556   5.430   7.826  0.1539 -0.2979 -2.0764
  513MOL0     H67702   7.989   4.446   7.613  0.0152  0.6588 -0.4511
  513MOL0     H67703   8.032   4.213   7.668  0.2203  0.4228 -0.4874
  513MOL0     H67704   8.333   3.856   7.593  0.0168  0.1337  0.4719
  513MOL0     H67705   8.402   3.618   7.545 -1.4744 -3.2872  2.3663
  513MOL0     H67706   8.305   3.278   7.526  2.2127 -1.6962 -1.7444
  513MOL0     H67707   8.379   3.416   7.583  0.5080  1.4267 -0.4383
  513MOL0     H67708   8.519   3.448   7.386 -2.1029  0.0810 -0.8688
  513MOL0     H67709   8.532   3.270   7.440 -2.4852 -2.1201 -0.1227
  513MOL0     H67710   8.513   3.302   7.192 -0.1996 -3.1081 -1.3824
  513MOL0     H67711   8.371   3.400   7.236 -0.0860  0.7790  1.3211
  513MOL0     H67712   8.396   3.098   7.299 -0.8415  0.0504  2.1830
  513MOL0     H67713   8.254   3.208   7.320 -1.6704 -3.1771 -1.4951
  513MOL0     H67714   8.329   3.101   6.903  2.3574 -3.2486  1.0397
  513MOL0     H67715   8.016   3.537   7.405 -0.6725  0.3006  2.9787
  513MOL0     H67716   7.934   3.752   7.456 -0.0071 -0.9772  1.7095
  514MOL0     O67717   5.872   0.227   9.676  0.0163 -0.0726 -0.3844
  514MOL0     C67718   5.834   0.340   9.712  0.3604 -0.0566  0.0231
  514MOL0     O67719   5.857   0.462   9.647  0.0021  0.4475 -0.3782
  514MOL0     C67720   5.931   0.461   9.527 -0.0552  0.1937  1.2784
  514MOL0     C67721   5.898   0.384   9.414  0.1926  0.3113 -0.4010
  514MOL0     C67722   5.981   0.371   9.304  0.3029  0.0170  0.3726
  514MOL0     C67723   6.073   0.467   9.282 -0.6181 -1.0027  0.2968
  514MOL0     O67724   6.149   0.476   9.166 -0.0977 -0.0420  0.9829
  514MOL0     C67725   6.246   0.368   9.136 -0.4589 -0.9998 -0.5820
  514MOL0     C67726   6.317   0.406   9.015 -0.4245 -0.1297  1.0965
  514MOL0     C67727   6.416   0.534   9.026  0.2827 -0.5877 -0.1785
  514MOL0     C67728   6.460   0.567   8.892 -0.3881  0.4578 -0.2523
  514MOL0     C67729   6.582   0.484   8.837  0.4206 -0.5745  0.4920
  514MOL0     C67730   6.714   0.509   8.910  0.0901 -1.0557 -0.0395
  514MOL0     C67731   6.837   0.480   8.824  0.0116  0.1782 -0.0179
  514MOL0     C67732   6.971   0.517   8.880 -0.0595  0.0422 -0.1484
  514MOL0     N67733   7.087   0.495   8.798  0.3440  0.8212  0.1669
  514MOL0     C67734   7.189   0.416   8.834 -0.1323  0.2056 -0.5288
  514MOL0     C67735   7.270   0.396   8.727 -0.2294  0.6651  0.1051
  514MOL0     C67736   7.396   0.319   8.719  0.2237  0.3795  0.1686
  514MOL0     C67737   7.522   0.398   8.758  0.5133  0.4732 -0.5300
  514MOL0     C67738   7.537   0.523   8.672  0.6211  1.2326 -0.1482
  514MOL0     C67739   7.655   0.607   8.715  0.4357  1.6291  0.9556
  514MOL0     O67740   7.760   0.535   8.777 -0.2939 -0.1512  0.9691
  514MOL0     C67741   7.879   0.518   8.706  0.0388  0.0057 -0.2681
  514MOL0     C67742   7.978   0.445   8.770  0.0887 -0.1046  0.7917
  514MOL0     C67743   8.095   0.407   8.704 -0.1614  0.0833 -0.2733
  514MOL0     C67744   8.127   0.441   8.573 -0.2252 -0.0593  0.5934
  514MOL0     C67745   8.250   0.401   8.505 -0.0029  0.8718 -0.1408
  514MOL0     O67746   8.274   0.438   8.373  0.3085  0.7013  0.1753
  514MOL0     C67747   8.395   0.427   8.310 -0.0052  0.6490  0.3578
  514MOL0     C67748   8.530   0.405   8.364  0.1950  0.6251 -0.0357
  514MOL0     C67749   8.647   0.398   8.288 -0.5400  0.0585  0.2564
  514MOL0     C67750   8.641   0.442   8.150  0.4015  0.1919 -0.2048
  514MOL0     O67751   8.757   0.433   8.079  0.5225  0.1026 -0.5095
  514MOL0     C67752   8.770   0.503   7.953  0.2860  0.1852  0.0199
  514MOL0     C67753   8.906   0.502   7.887 -0.3154  0.3454 -0.7185
  514MOL0     C67754   9.008   0.563   7.986 -0.6526  0.8457 -0.4943
  514MOL0     C67755   9.140   0.549   7.907  0.2828  0.2491  0.6213
  514MOL0     C67756   9.259   0.610   7.974 -0.1391 -0.0045 -0.4072
  514MOL0     C67757   9.394   0.553   7.923 -0.0300  0.8308  0.0807
  514MOL0     C67758   9.501   0.661   7.961  0.4083 -0.5366 -0.6603
  514MOL0     C67759   9.641   0.594   7.962 -0.5165 -0.1011  0.2505
  514MOL0    Cl67760   9.674   0.546   7.791 -0.2060  0.0283 -0.0658
  514MOL0     C67761   8.514   0.459   8.101 -0.6375 -0.3000  0.7369
  514MOL0     C67762   8.395   0.438   8.171 -0.3020  0.9292 -0.3260
  514MOL0     O67763   8.336   0.352   8.574  0.3849  0.2980 -0.3750
  514MOL0     C67764   8.031   0.528   8.514  0.2300 -1.0035  1.0373
  514MOL0     C67765   7.908   0.564   8.576 -0.6269  0.2339 -0.7643
  514MOL0     N67766   7.206   0.463   8.619  0.2176 -0.4373  0.5247
  514MOL0     N67767   7.093   0.514   8.665  0.0483  0.2130  0.0109
  514MOL0     C67768   6.106   0.553   9.381 -0.5862  0.7503  0.8375
  514MOL0     C67769   6.036   0.550   9.501  0.1434  0.8641 -0.9742
  514MOL0     C67770   5.783   0.350   9.855 -0.8634  0.6481  0.4092
  514MOL0     C67771   5.757   0.230   9.926 -0.4755 -0.1192 -0.2982
  514MOL0     C67772   5.717   0.237  10.062  0.1941 -0.2863 -0.2911
  514MOL0     C67773   5.707   0.361  10.125 -0.4757  0.6913  0.2736
  514MOL0     O67774   5.656   0.386  10.245  0.2085  0.4300 -0.3536
  514MOL0     C67775   5.703   0.299  10.353 -0.2544 -0.0892 -0.0535
  514MOL0     C67776   5.596   0.201  10.409 -0.3703  0.2803 -0.3859
  514MOL0     C67777   5.474   0.283  10.432 -1.0103  0.3507  0.4565
  514MOL0     C67778   5.359   0.212  10.505 -0.6059  0.2969 -0.0193
  514MOL0     C67779   5.296   0.112  10.421  0.2166 -0.1760  0.2953
  514MOL0     C67780   5.234   0.027  10.355 -0.4783 -0.5907  0.0892
  514MOL0     C67781   5.739   0.475  10.054  0.6028  0.0242  0.5795
  514MOL0     C67782   5.773   0.474   9.921  0.8207 -0.6793 -0.9626
  514MOL0     H67783   5.809   0.323   9.427  0.9682 -0.5782  1.0048
  514MOL0     H67784   5.963   0.290   9.235  1.8342  0.6732 -0.8616
  514MOL0     H67785   6.209   0.266   9.126  0.5658 -1.2441 -2.2565
  514MOL0     H67786   6.315   0.379   9.221 -1.6588 -1.1102  0.4402
  514MOL0     H67787   6.240   0.428   8.940 -0.5628  0.8921  1.5213
  514MOL0     H67788   6.385   0.325   8.989 -0.1074 -0.0293  1.6154
  514MOL0     H67789   6.497   0.501   9.092  1.1065 -1.7840 -1.7345
  514MOL0     H67790   6.355   0.612   9.073  1.8880  0.0609  0.9127
  514MOL0     H67791   6.375   0.552   8.824 -0.0390 -2.3943 -0.1477
  514MOL0     H67792   6.485   0.674   8.895  0.6674  0.2622 -1.3333
  514MOL0     H67793   6.591   0.512   8.732  2.6368  2.7525  1.4145
  514MOL0     H67794   6.577   0.375   8.843  2.0825 -0.6213  1.6366
  514MOL0     H67795   6.718   0.450   9.002  0.6601 -0.1170  0.5590
  514MOL0     H67796   6.712   0.616   8.934 -0.0502 -1.8487  4.2133
  514MOL0     H67797   6.831   0.375   8.797 -2.2063 -0.2804  1.9099
  514MOL0     H67798   6.827   0.538   8.732 -4.5830  1.0563  0.7811
  514MOL0     H67799   6.979   0.457   8.972  1.3607 -0.2835 -0.4584
  514MOL0     H67800   6.969   0.626   8.893  3.9498  0.9117 -4.1749
  514MOL0     H67801   7.214   0.380   8.933 -2.3898 -1.0932 -0.3620
  514MOL0     H67802   7.414   0.296   8.614  3.8383  0.0835  0.7340
  514MOL0     H67803   7.386   0.228   8.779 -2.8865  0.8845  0.5662
  514MOL0     H67804   7.608   0.330   8.754 -0.6832 -1.3682  2.1812
  514MOL0     H67805   7.510   0.440   8.858  0.4475  0.2047 -0.4254
  514MOL0     H67806   7.552   0.488   8.569  0.6469 -0.9277  0.5366
  514MOL0     H67807   7.454   0.594   8.679  2.5650  3.5215  0.7474
  514MOL0     H67808   7.609   0.684   8.777 -0.6010  0.1527  2.0946
  514MOL0     H67809   7.688   0.669   8.631 -0.8928 -1.0876 -1.7487
  514MOL0     H67810   7.964   0.420   8.874 -0.2005 -0.2155  0.7276
  514MOL0     H67811   8.146   0.332   8.763 -0.0071  0.5689  0.2102
  514MOL0     H67812   8.537   0.387   8.471 -2.0465  0.0369  0.0559
  514MOL0     H67813   8.738   0.366   8.337 -0.5363 -1.1640 -0.5215
  514MOL0     H67814   8.733   0.604   7.970 -1.1111 -0.3134  0.1010
  514MOL0     H67815   8.705   0.447   7.885  1.6220 -0.9981 -0.3212
  514MOL0     H67816   8.908   0.563   7.796 -0.0080 -2.8158 -3.0161
  514MOL0     H67817   8.931   0.397   7.870 -1.7036 -0.1389  0.1096
  514MOL0     H67818   9.009   0.504   8.079  0.5218 -0.0686 -1.0706
  514MOL0     H67819   8.996   0.669   8.011 -0.2111  1.2347 -1.8641
  514MOL0     H67820   9.166   0.443   7.905 -0.9433 -0.0764 -1.9660
  514MOL0     H67821   9.145   0.585   7.804  0.1492 -0.3141  0.4153
  514MOL0     H67822   9.249   0.607   8.083  0.7153 -1.0558 -0.3423
  514MOL0     H67823   9.256   0.718   7.956 -1.2790 -0.0550 -0.6455
  514MOL0     H67824   9.404   0.545   7.814 -2.2109  1.2950 -0.2024
  514MOL0     H67825   9.413   0.457   7.971  2.9198  1.8768  1.2536
  514MOL0     H67826   9.507   0.751   7.900  0.2162 -0.8114 -1.0870
  514MOL0     H67827   9.474   0.691   8.063 -0.3463 -0.3250 -0.9234
  514MOL0     H67828   9.627   0.511   8.031 -2.5278 -1.8503 -2.0791
  514MOL0     H67829   9.717   0.669   7.988 -0.0767 -0.7744  0.9352
  514MOL0     H67830   8.507   0.479   7.994 -0.5614 -0.1329  0.7638
  514MOL0     H67831   8.304   0.453   8.115 -1.9140 -1.4350  1.4587
  514MOL0     H67832   8.033   0.570   8.414 -3.0163  0.6066  1.4979
  514MOL0     H67833   7.839   0.627   8.521 -1.9832 -0.6751 -0.1621
  514MOL0     H67834   6.191   0.620   9.376 -0.6991  0.8789  0.6437
  514MOL0     H67835   6.069   0.603   9.590  1.2349  0.3192 -1.0301
  514MOL0     H67836   5.748   0.132   9.880 -0.1256 -0.0441 -0.5234
  514MOL0     H67837   5.666   0.151  10.103 -1.1690  0.6610  0.0514
  514MOL0     H67838   5.752   0.364  10.427  2.2908 -1.1767 -0.6804
  514MOL0     H67839   5.777   0.228  10.314 -0.1814 -1.1064  1.8142
  514MOL0     H67840   5.572   0.112  10.349  2.9339 -1.3644  0.5043
  514MOL0     H67841   5.635   0.162  10.503 -2.0640 -0.2539  0.1248
  514MOL0     H67842   5.438   0.320  10.336 -1.3739  1.5275  1.0254
  514MOL0     H67843   5.509   0.367  10.494 -2.3459 -0.7719  2.8695
  514MOL0     H67844   5.383   0.164  10.601  2.6725 -1.0533 -1.3797
  514MOL0     H67845   5.285   0.291  10.523 -0.4598  0.0454  1.8868
  514MOL0     H67846   5.190  -0.065  10.322 -1.1955  0.1416 -1.0734
  514MOL0     H67847   5.726   0.576  10.094 -1.6784 -1.0836  2.9572
  514MOL0     H67848   5.795   0.566   9.867  0.1636  1.0874  1.6314
  515MOL0     O67849   5.657   2.987   0.555  0.0245  0.2721  0.2798
  515MOL0     C67850   5.591   3.080   0.602  0.1536  0.5652  0.7906
  515MOL0     O67851   5.629   3.182   0.683 -0.4240  0.6719  0.1215
  515MOL0     C67852   5.748   3.181   0.743 -0.3773  0.2724 -0.0045
  515MOL0     C67853   5.857   3.218   0.669 -0.7392  0.5480  0.0611
  515MOL0     C67854   5.989   3.202   0.722  0.0271 -0.0620  0.2627
  515MOL0     C67855   6.014   3.164   0.855 -0.1943 -0.0247  0.9841
  515MOL0     O67856   6.128   3.165   0.931 -0.9236  0.4691  0.5430
  515MOL0     C67857   6.246   3.241   0.892 -1.3870 -0.2747 -0.4978
  515MOL0     C67858   6.279   3.358   0.973  0.1989 -0.5867 -0.6004
  515MOL0     C67859   6.404   3.437   0.932 -0.1851 -0.0055 -0.5003
  515MOL0     C67860   6.369   3.545   0.833  0.8127  0.5885  0.9222
  515MOL0     C67861   6.490   3.623   0.785 -0.3171 -0.6184  0.0396
  515MOL0     C67862   6.438   3.738   0.693  0.0190  0.2181 -0.5725
  515MOL0     C67863   6.564   3.775   0.614 -0.4445 -0.1797  0.4591
  515MOL0     C67864   6.548   3.892   0.517 -0.2372  0.6022  0.3262
  515MOL0     N67865   6.665   3.911   0.423  0.3066 -0.4225  0.4137
  515MOL0     C67866   6.781   3.965   0.452 -1.1474 -0.4854 -0.0751
  515MOL0     C67867   6.858   3.957   0.338  0.7677 -1.1008 -0.5097
  515MOL0     C67868   6.997   4.001   0.322 -0.5489 -0.1620 -0.2625
  515MOL0     C67869   7.092   3.893   0.347 -0.5897 -0.5336 -0.0479
  515MOL0     C67870   7.107   3.782   0.248 -0.0851 -0.4100 -1.1189
  515MOL0     C67871   7.195   3.677   0.306 -0.4101  0.5567 -0.1811
  515MOL0     O67872   7.147   3.639   0.441 -0.0599  0.5769  0.2240
  515MOL0     C67873   7.032   3.567   0.454  0.2398  0.0630  0.2760
  515MOL0     C67874   6.983   3.483   0.350 -0.6190  0.9455 -0.3788
  515MOL0     C67875   6.876   3.402   0.373  0.2034  0.1795  0.3942
  515MOL0     C67876   6.791   3.426   0.479  1.0356 -0.7647  0.4114
  515MOL0     C67877   6.662   3.353   0.485  0.0217  0.0318 -0.3864
  515MOL0     O67878   6.625   3.289   0.380 -0.0074  0.0588 -0.2212
  515MOL0     C67879   6.497   3.244   0.368 -0.6300 -0.4938  0.3875
  515MOL0     C67880   6.383   3.310   0.418 -0.0818  0.4580  0.8048
  515MOL0     C67881   6.260   3.249   0.401 -0.0158 -0.1685 -0.7358
  515MOL0     C67882   6.257   3.127   0.348  0.9562  0.3965 -0.2946
  515MOL0     O67883   6.126   3.075   0.362 -0.0494 -0.4297 -0.1494
  515MOL0     C67884   6.131   2.938   0.351 -0.0005 -0.0606  0.8507
  515MOL0     C67885   5.997   2.877   0.343 -0.7279 -0.2915  1.4981
  515MOL0     C67886   5.924   2.898   0.209  0.2475 -1.2957 -0.2311
  515MOL0     C67887   5.833   2.777   0.169  0.3916 -1.2470  0.0347
  515MOL0     C67888   5.699   2.778   0.256  0.2540 -0.1284 -0.2074
  515MOL0     C67889   5.594   2.685   0.190 -0.4673  0.3724 -0.2288
  515MOL0     C67890   5.630   2.543   0.218 -0.0226 -0.1080 -0.0976
  515MOL0     C67891   5.515   2.454   0.165 -0.2243  1.6489 -0.4763
  515MOL0    Cl67892   5.567   2.393   0.007  0.1445 -0.2217  0.5155
  515MOL0     C67893   6.372   3.068   0.286 -0.9652  0.4061  0.2764
  515MOL0     C67894   6.494   3.124   0.300  0.6648  0.1672  0.2890
  515MOL0     O67895   6.599   3.356   0.594  0.6292  0.2511  0.2970
  515MOL0     C67896   6.824   3.518   0.577 -0.1754 -0.1966 -0.8412
  515MOL0     C67897   6.955   3.581   0.569  0.5848  0.8909  0.6236
  515MOL0     N67898   6.787   3.900   0.237  0.5052 -0.2342 -0.2127
  515MOL0     N67899   6.670   3.869   0.288 -0.1135 -0.1346  0.0930
  515MOL0     C67900   5.901   3.126   0.931  0.6399 -0.7686  0.5233
  515MOL0     C67901   5.767   3.146   0.881  0.3231 -0.3774  0.7912
  515MOL0     C67902   5.446   3.083   0.566 -0.1776  0.4809 -0.3548
  515MOL0     C67903   5.401   2.998   0.462 -0.2483  0.3303  0.0629
  515MOL0     C67904   5.268   2.994   0.427 -0.2394 -0.3882  1.3262
  515MOL0     C67905   5.180   3.080   0.483  0.2430  0.3043 -0.0794
  515MOL0     O67906   5.046   3.081   0.448 -0.3524  0.1294  0.2617
  515MOL0     C67907   5.028   3.174   0.342  0.3860  0.7891  0.2657
  515MOL0     C67908   4.908   3.145   0.249  0.8131  0.1263 -0.2003
  515MOL0     C67909   4.872   2.994   0.240 -0.0655 -0.2404 -0.0197
  515MOL0     C67910   4.757   2.977   0.134  0.9663  0.4772  0.1874
  515MOL0     C67911   4.702   2.835   0.126 -0.3393 -0.6373  0.0818
  515MOL0     C67912   4.660   2.721   0.120 -0.0846 -0.5378  0.1230
  515MOL0     C67913   5.224   3.175   0.578  0.2332 -0.5752  0.2582
  515MOL0     C67914   5.359   3.178   0.614  1.0916 -0.0657  0.8240
  515MOL0     H67915   5.843   3.244   0.565  0.1429 -1.2878 -0.5630
  515MOL0     H67916   6.066   3.226   0.649 -1.4033 -1.5225 -1.8249
  515MOL0     H67917   6.238   3.268   0.786 -2.5550  0.2278 -0.3023
  515MOL0     H67918   6.332   3.176   0.878 -0.8237  0.9213 -3.4247
  515MOL0     H67919   6.310   3.326   1.072  0.4837  4.2454  1.1097
  515MOL0     H67920   6.195   3.428   0.977  0.3730 -0.1053 -3.1821
  515MOL0     H67921   6.477   3.365   0.894 -0.0296 -0.3445  0.4305
  515MOL0     H67922   6.453   3.473   1.023  0.8828  0.3008 -1.1786
  515MOL0     H67923   6.317   3.508   0.743  0.5865  0.3170  1.1627
  515MOL0     H67924   6.294   3.615   0.871  0.3148  0.8188 -0.3909
  515MOL0     H67925   6.542   3.553   0.719 -1.2786 -0.7091 -0.6447
  515MOL0     H67926   6.549   3.656   0.871 -1.8571 -0.0899  0.9255
  515MOL0     H67927   6.404   3.813   0.766 -3.1238 -2.0686  0.5199
  515MOL0     H67928   6.356   3.702   0.631 -0.9465  0.0959  0.7227
  515MOL0     H67929   6.646   3.790   0.684  0.0444  0.1781 -0.1806
  515MOL0     H67930   6.594   3.690   0.552  3.9324  1.6360 -0.3432
  515MOL0     H67931   6.525   3.985   0.568 -0.9426  1.0550 -0.7771
  515MOL0     H67932   6.461   3.871   0.453  0.4880  0.4322 -0.6387
  515MOL0     H67933   6.811   4.009   0.546 -0.2931  0.9628 -0.9890
  515MOL0     H67934   7.022   4.089   0.381  1.1178 -1.0869  0.4821
  515MOL0     H67935   7.017   4.038   0.221  3.1150  0.7974  0.6508
  515MOL0     H67936   7.072   3.855   0.448  0.3584 -0.2710  0.2552
  515MOL0     H67937   7.189   3.944   0.351 -1.4574  1.7477 -3.6862
  515MOL0     H67938   7.005   3.743   0.233 -0.4775  0.3642 -0.5287
  515MOL0     H67939   7.156   3.815   0.156  4.4622 -2.1261  0.4240
  515MOL0     H67940   7.296   3.717   0.313  0.2840 -1.3583  1.4140
  515MOL0     H67941   7.210   3.588   0.243  0.2085  0.6654 -0.1945
  515MOL0     H67942   7.022   3.456   0.252 -0.4413 -2.2264  0.4464
  515MOL0     H67943   6.853   3.334   0.292  0.9404 -0.0364  0.3563
  515MOL0     H67944   6.384   3.407   0.467  3.6537  0.3517  1.1897
  515MOL0     H67945   6.169   3.289   0.445  0.0277  2.0991 -2.4704
  515MOL0     H67946   6.188   2.901   0.437 -0.4762  0.4055  1.3755
  515MOL0     H67947   6.178   2.907   0.258  0.0776  2.6754 -0.1200
  515MOL0     H67948   5.943   2.909   0.433  1.0171  2.3725  1.7161
  515MOL0     H67949   6.009   2.769   0.358 -1.8200 -0.4291  1.4758
  515MOL0     H67950   5.993   2.914   0.126 -1.8376 -0.7107 -1.9445
  515MOL0     H67951   5.861   2.987   0.223 -0.2687 -1.7967  0.7516
  515MOL0     H67952   5.812   2.784   0.062  3.1520 -1.2409 -0.5929
  515MOL0     H67953   5.895   2.691   0.196  0.2065 -1.1598  0.7443
  515MOL0     H67954   5.661   2.880   0.256  2.1086  0.6043 -1.0197
  515MOL0     H67955   5.710   2.748   0.361 -1.8681  0.2660  0.1662
  515MOL0     H67956   5.580   2.710   0.084 -0.5593  1.2672 -0.0155
  515MOL0     H67957   5.500   2.716   0.237 -0.1095 -0.1204  0.8487
  515MOL0     H67958   5.734   2.521   0.189 -0.0158 -2.7558  1.6321
  515MOL0     H67959   5.636   2.521   0.325  1.5386 -1.9332 -0.4989
  515MOL0     H67960   5.417   2.499   0.149 -2.0732 -2.0064 -0.5310
  515MOL0     H67961   5.503   2.373   0.237  3.5269  0.3731 -1.0374
  515MOL0     H67962   6.370   2.974   0.232 -0.0001 -0.2447  1.3206
  515MOL0     H67963   6.584   3.087   0.253  1.2753  0.0129  1.5394
  515MOL0     H67964   6.759   3.530   0.663  0.9257 -3.6447  0.6315
  515MOL0     H67965   6.984   3.653   0.645 -1.4119 -1.5683  4.0120
  515MOL0     H67966   5.922   3.106   1.036  1.1642 -0.1449  0.5500
  515MOL0     H67967   5.676   3.117   0.931 -1.6261  0.0879 -2.1991
  515MOL0     H67968   5.459   2.919   0.416 -0.6640  1.1742 -2.0237
  515MOL0     H67969   5.226   2.922   0.357  0.8312  0.5022 -0.2876
  515MOL0     H67970   5.118   3.174   0.279  0.7813 -1.0198  0.7900
  515MOL0     H67971   5.004   3.272   0.385 -0.2752 -0.5844  3.2723
  515MOL0     H67972   4.830   3.209   0.290  1.1851  0.0743  0.6062
  515MOL0     H67973   4.938   3.179   0.150 -2.0879 -1.0848 -1.6093
  515MOL0     H67974   4.837   2.962   0.339 -0.1495 -0.8608 -0.2449
  515MOL0     H67975   4.962   2.935   0.219  0.8624  0.5520  1.5731
  515MOL0     H67976   4.665   3.035   0.145  1.3456  1.6137 -2.2012
  515MOL0     H67977   4.800   3.003   0.037  0.0649  3.0101  0.3986
  515MOL0     H67978   4.621   2.621   0.130  0.5236 -0.8427 -0.5070
  515MOL0     H67979   5.155   3.234   0.639  0.5571  0.6922 -0.5739
  515MOL0     H67980   5.394   3.255   0.682  0.5894  2.4389 -1.5708
  516MOL0     O67981   6.710   7.903  10.343 -0.4876 -0.4085  0.2515
  516MOL0     C67982   6.791   7.815  10.368  0.5128  1.3122 -1.2438
  516MOL0     O67983   6.752   7.693  10.415 -0.3278 -0.1660  0.1083
  516MOL0     C67984   6.621   7.677  10.438  0.1259  0.2092 -0.4152
  516MOL0     C67985   6.580   7.689  10.569 -0.0450 -0.0665  1.2858
  516MOL0     C67986   6.443   7.666  10.601 -0.4452 -0.1066  0.0197
  516MOL0     C67987   6.347   7.657  10.497 -0.2355 -0.3132  1.1011
  516MOL0     O67988   6.210   7.621  10.517 -0.6938  0.0604  0.3690
  516MOL0     C67989   6.148   7.695  10.620 -0.3932 -0.0345 -1.0476
  516MOL0     C67990   6.005   7.642  10.653 -0.4177  0.3826 -0.6843
  516MOL0     C67991   5.910   7.657  10.530 -0.0182  0.5520 -0.2408
  516MOL0     C67992   5.768   7.626  10.568  0.9345  0.4917 -0.6118
  516MOL0     C67993   5.700   7.732  10.639  0.0739 -0.8178 -0.1681
  516MOL0     C67994   5.552   7.711  10.649  0.3087 -0.5972  0.5034
  516MOL0     C67995   5.507   7.606  10.758  0.6869  0.0545 -0.8918
  516MOL0     C67996   5.351   7.606  10.770  0.4176  0.5257 -1.2687
  516MOL0     N67997   5.312   7.519  10.876 -0.4794 -0.3261 -0.0541
  516MOL0     C67998   5.281   7.567  10.994  0.5835  0.5465  0.5202
  516MOL0     C67999   5.268   7.462  11.077 -0.7370 -1.0053 -0.1511
  516MOL0     C68000   5.224   7.448  11.223 -1.6312  0.4181  0.5156
  516MOL0     C68001   5.074   7.477  11.237 -0.0605  0.3176 -0.5697
  516MOL0     C68002   5.028   7.621  11.215 -0.3782 -0.4567 -1.0032
  516MOL0     C68003   4.885   7.639  11.265  0.6265  0.1098 -0.2300
  516MOL0     O68004   4.805   7.554  11.180  0.0913 -0.2480  0.3760
  516MOL0     C68005   4.673   7.541  11.229 -0.4170 -0.3197 -0.2239
  516MOL0     C68006   4.601   7.646  11.287  0.6363  0.1854 -0.7998
  516MOL0     C68007   4.472   7.624  11.337 -0.1525  0.6116  0.5198
  516MOL0     C68008   4.412   7.492  11.336 -0.7512 -0.1539  0.1604
  516MOL0     C68009   4.271   7.484  11.364  0.0292  0.6828  0.0204
  516MOL0     O68010   4.199   7.593  11.346  0.3079 -0.1200  0.1453
  516MOL0     C68011   4.068   7.577  11.377  0.2881  0.2107  0.4183
  516MOL0     C68012   3.989   7.484  11.315  0.4152  0.1582 -0.2368
  516MOL0     C68013   3.843   7.486  11.332  0.7229  0.4799  0.1430
  516MOL0     C68014   3.779   7.568  11.425 -0.0522 -0.4803  0.3065
  516MOL0     O68015   3.647   7.542  11.460 -0.5868 -0.0574  0.3822
  516MOL0     C68016   3.636   7.490  11.598  0.5595  0.0473  0.1489
  516MOL0     C68017   3.500   7.442  11.631  1.1402  0.0326 -0.2884
  516MOL0     C68018   3.402   7.558  11.642 -0.2171 -0.4277 -1.2606
  516MOL0     C68019   3.250   7.522  11.651 -0.1028  0.2026 -0.0822
  516MOL0     C68020   3.154   7.641  11.648 -0.1346  0.1235 -0.1256
  516MOL0     C68021   3.012   7.591  11.609 -0.5437 -0.2161 -0.0666
  516MOL0     C68022   2.983   7.608  11.457  0.9262 -0.3711 -0.5018
  516MOL0     C68023   2.841   7.566  11.434  0.1465 -0.2928 -0.1001
  516MOL0    Cl68024   2.797   7.642  11.274 -0.3937  0.4195 -0.5647
  516MOL0     C68025   3.867   7.648  11.499 -0.5143  0.1854  0.3045
  516MOL0     C68026   4.006   7.653  11.469  0.0689  0.5980 -0.8942
  516MOL0     O68027   4.235   7.388  11.432  0.0658  0.7795 -0.3404
  516MOL0     C68028   4.491   7.386  11.293 -1.2448 -1.0699  0.0667
  516MOL0     C68029   4.620   7.413  11.235 -0.0460  0.4797  0.3868
  516MOL0     N68030   5.307   7.354  11.003 -0.3741 -0.2848  0.0927
  516MOL0     N68031   5.332   7.386  10.881 -0.0473 -0.0775  0.2998
  516MOL0     C68032   6.392   7.656  10.364  0.1947 -0.8705  0.4543
  516MOL0     C68033   6.524   7.669  10.333 -0.2417  0.9000  0.6976
  516MOL0     C68034   6.940   7.836  10.361  1.1939  0.7465  0.1636
  516MOL0     C68035   7.027   7.729  10.399  0.6505  0.2944 -0.5614
  516MOL0     C68036   7.166   7.732  10.390 -0.1892 -0.0021  0.5854
  516MOL0     C68037   7.227   7.839  10.330 -0.2915 -0.3890 -0.9644
  516MOL0     O68038   7.358   7.821  10.304 -0.1769 -0.0922 -0.1836
  516MOL0     C68039   7.443   7.928  10.255  0.3203 -0.0369 -0.7483
  516MOL0     C68040   7.491   8.014  10.379 -0.2671 -0.1730 -0.3606
  516MOL0     C68041   7.520   7.945  10.507  0.0820 -0.4901 -0.5843
  516MOL0     C68042   7.572   8.033  10.620 -0.3499  0.3016 -0.0192
  516MOL0     C68043   7.697   8.085  10.567 -0.7881 -0.0174 -0.1691
  516MOL0     C68044   7.794   8.117  10.502 -0.0131  0.3073 -0.2842
  516MOL0     C68045   7.147   7.947  10.302 -0.1938  1.2624  0.2141
  516MOL0     C68046   7.004   7.943  10.314 -0.3198 -0.2725  1.0700
  516MOL0     H68047   6.653   7.704  10.648  1.4538  3.7706 -0.5484
  516MOL0     H68048   6.417   7.674  10.707 -4.1902  0.3882 -0.7959
  516MOL0     H68049   6.147   7.799  10.586  0.8385 -1.0549 -4.5789
  516MOL0     H68050   6.204   7.688  10.714  0.4464  0.3836 -1.5116
  516MOL0     H68051   5.966   7.694  10.741  2.5594  1.0294  0.3656
  516MOL0     H68052   6.013   7.533  10.660  2.5028  0.5842  0.4072
  516MOL0     H68053   5.941   7.579  10.459 -1.0105  1.1828 -1.4140
  516MOL0     H68054   5.912   7.759  10.490  2.0165  0.9117  0.6462
  516MOL0     H68055   5.699   7.612  10.484  0.4385 -0.2020 -0.0932
  516MOL0     H68056   5.772   7.532  10.623  0.1952  0.3377 -0.8058
  516MOL0     H68057   5.731   7.823  10.587  0.8506 -1.3590 -0.6506
  516MOL0     H68058   5.738   7.749  10.740  1.0442 -1.2013 -0.4641
  516MOL0     H68059   5.511   7.671  10.556 -0.1096  0.5013  0.1918
  516MOL0     H68060   5.515   7.813  10.667  0.5169 -0.6662  1.3910
  516MOL0     H68061   5.541   7.505  10.735  0.8942 -0.6449  2.0757
  516MOL0     H68062   5.546   7.629  10.857  1.3231 -2.9201 -0.3631
  516MOL0     H68063   5.298   7.574  10.680 -2.7493 -4.2622  1.8112
  516MOL0     H68064   5.329   7.712  10.790 -5.2319 -0.8312  1.9174
  516MOL0     H68065   5.261   7.670  11.022 -0.9830  0.9215 -1.6556
  516MOL0     H68066   5.280   7.519  11.284  0.3526 -1.5300  1.0547
  516MOL0     H68067   5.250   7.348  11.258  1.9719  1.1448  0.2508
  516MOL0     H68068   5.055   7.446  11.340  0.8766 -4.1938 -1.5073
  516MOL0     H68069   5.031   7.414  11.158  0.2305  3.5516 -3.5491
  516MOL0     H68070   5.096   7.688  11.267  2.2783 -2.6780 -1.3607
  516MOL0     H68071   5.034   7.652  11.111 -2.2772  1.3604 -0.6255
  516MOL0     H68072   4.870   7.746  11.253  3.4955  0.5282 -0.7646
  516MOL0     H68073   4.868   7.618  11.371 -0.2755 -0.2396 -0.4281
  516MOL0     H68074   4.642   7.746  11.294 -0.4401  0.6249 -0.6764
  516MOL0     H68075   4.420   7.711  11.378  1.1364  0.4836  2.5932
  516MOL0     H68076   4.029   7.413  11.244 -0.0282  0.3712 -0.7126
  516MOL0     H68077   3.781   7.419  11.273 -0.9389  1.3002  0.8986
  516MOL0     H68078   3.660   7.574  11.663  0.0387 -0.4211  0.9625
  516MOL0     H68079   3.704   7.407  11.618 -1.8348 -3.0825 -3.3043
  516MOL0     H68080   3.504   7.386  11.725 -0.1430  1.6898  0.7935
  516MOL0     H68081   3.464   7.371  11.555  0.2998 -0.5676  0.6471
  516MOL0     H68082   3.430   7.634  11.569 -1.3492  1.5195  0.2389
  516MOL0     H68083   3.436   7.604  11.735 -0.0745 -4.2388  0.7862
  516MOL0     H68084   3.224   7.460  11.565  3.2502 -1.1316 -0.2599
  516MOL0     H68085   3.236   7.471  11.747  2.0201  1.9947  1.2855
  516MOL0     H68086   3.191   7.703  11.565 -3.1072  0.3342 -1.4336
  516MOL0     H68087   3.146   7.698  11.741 -1.2070  0.1786 -0.2368
  516MOL0     H68088   2.947   7.652  11.673  0.7136  0.2243  0.8406
  516MOL0     H68089   2.998   7.488  11.644  0.9078  0.3387  2.4023
  516MOL0     H68090   2.993   7.709  11.417 -0.1548 -0.3670 -0.7851
  516MOL0     H68091   3.036   7.539  11.390 -2.9618 -2.6370 -1.5547
  516MOL0     H68092   2.775   7.606  11.511 -1.8172 -3.9522  0.3568
  516MOL0     H68093   2.815   7.460  11.438  0.0169 -0.2184  1.4200
  516MOL0     H68094   3.832   7.706  11.583 -2.7897  0.1198 -0.5136
  516MOL0     H68095   4.066   7.728  11.520 -2.5490  3.2547 -1.4717
  516MOL0     H68096   4.471   7.280  11.308  0.8776 -1.2301  2.3112
  516MOL0     H68097   4.687   7.333  11.206  0.5598  0.2021  2.3612
  516MOL0     H68098   6.337   7.638  10.272  2.0921 -1.6487 -0.5764
  516MOL0     H68099   6.553   7.678  10.228 -1.8625 -1.8311 -0.0743
  516MOL0     H68100   6.985   7.636  10.435 -1.3232  0.0521 -3.2073
  516MOL0     H68101   7.230   7.652  10.427 -1.9641 -1.2148  1.1951
  516MOL0     H68102   7.375   7.984  10.190 -0.6060 -1.1029 -0.7407
  516MOL0     H68103   7.531   7.891  10.202  0.3779 -0.0591 -0.6375
  516MOL0     H68104   7.582   8.062  10.342 -0.2525 -0.6055 -0.8971
  516MOL0     H68105   7.413   8.087  10.402  1.3892  1.1877  1.2793
  516MOL0     H68106   7.592   7.865  10.492  0.3827 -0.6722  1.4836
  516MOL0     H68107   7.427   7.907  10.551  1.5667 -0.2154  3.1486
  516MOL0     H68108   7.508   8.121  10.619  0.9068  1.3130 -2.7040
  516MOL0     H68109   7.591   7.978  10.712 -2.1111  1.9494  1.4159
  516MOL0     H68110   7.861   8.159  10.430 -1.3588 -1.6271 -2.8215
  516MOL0     H68111   7.191   8.036  10.257 -1.1336  1.3482 -0.5730
  516MOL0     H68112   6.944   8.026  10.278 -1.6652 -1.7085 -0.1496
  517MOL0     O68113  11.193   6.193   4.541 -0.2134 -0.3478 -0.1922
  517MOL0     C68114  11.274   6.261   4.610  0.1191  0.3495 -1.0543
  517MOL0     O68115  11.249   6.380   4.656  0.0576 -0.5011  1.0078
  517MOL0     C68116  11.136   6.454   4.653 -0.7836  0.1366  1.1311
  517MOL0     C68117  11.152   6.579   4.707  0.6457  0.6255 -0.0770
  517MOL0     C68118  11.039   6.658   4.704  0.3894 -0.4432 -0.5766
  517MOL0     C68119  10.917   6.621   4.651  0.1903  0.3484  0.1560
  517MOL0     O68120  10.809   6.705   4.657 -0.5825 -0.2915  0.1933
  517MOL0     C68121  10.733   6.724   4.539 -0.1123  0.4138 -0.0221
  517MOL0     C68122  10.647   6.854   4.535  0.7337  0.8459  0.1893
  517MOL0     C68123  10.582   6.874   4.387 -0.9774  0.6941 -0.7135
  517MOL0     C68124  10.494   6.997   4.378  0.3844 -0.5577  0.4960
  517MOL0     C68125  10.428   7.016   4.243 -0.8830 -0.6378 -0.1055
  517MOL0     C68126  10.331   6.907   4.195  0.2339  0.3383  0.5161
  517MOL0     C68127  10.251   6.940   4.072 -0.0048  0.2072 -0.6284
  517MOL0     C68128  10.149   7.061   4.081 -0.9423 -0.2683  0.1619
  517MOL0     N68129  10.083   7.086   3.958  0.3407  0.7725 -0.1986
  517MOL0     C68130   9.970   7.169   3.958  0.3455 -0.5373 -0.5521
  517MOL0     C68131   9.907   7.130   3.844 -0.4658  0.0568 -0.4817
  517MOL0     C68132   9.783   7.193   3.791 -0.6067  0.1470  1.0229
  517MOL0     C68133   9.658   7.150   3.862  0.0749 -0.5338  0.9555
  517MOL0     C68134   9.541   7.215   3.796 -0.4101  0.7482  0.1117
  517MOL0     C68135   9.433   7.238   3.896 -0.4189 -0.3588 -0.1967
  517MOL0     O68136   9.316   7.276   3.820 -0.0001  0.0801  0.1505
  517MOL0     C68137   9.192   7.276   3.876  0.5428 -0.8227 -0.2321
  517MOL0     C68138   9.083   7.276   3.788 -0.0449 -0.2185 -0.1276
  517MOL0     C68139   8.946   7.279   3.831  0.2557  0.6477 -0.7736
  517MOL0     C68140   8.916   7.271   3.967 -0.1055  0.2296  0.0059
  517MOL0     C68141   8.781   7.243   4.021 -0.4735 -0.8223  0.1315
  517MOL0     O68142   8.672   7.263   3.949  0.6281 -0.2438  0.4482
  517MOL0     C68143   8.554   7.267   4.019  0.1925 -0.6003 -0.0893
  517MOL0     C68144   8.505   7.393   4.050  0.2870 -0.6472 -0.4286
  517MOL0     C68145   8.376   7.422   4.103  0.0123  0.3096 -1.0453
  517MOL0     C68146   8.301   7.317   4.154  0.0875 -0.5109  0.1688
  517MOL0     O68147   8.175   7.348   4.191  0.7156  0.3388 -0.0500
  517MOL0     C68148   8.089   7.246   4.246  0.6102  1.0111  0.2014
  517MOL0     C68149   7.990   7.320   4.344 -0.5796  0.0793  0.0111
  517MOL0     C68150   7.874   7.244   4.408  0.6039 -0.3082 -0.5941
  517MOL0     C68151   7.738   7.317   4.413  0.4839  0.0987  0.3708
  517MOL0     C68152   7.618   7.241   4.492  0.6484 -0.2510  0.4099
  517MOL0     C68153   7.633   7.234   4.646  0.3475  0.6404  0.2742
  517MOL0     C68154   7.744   7.149   4.711 -0.0244  0.6197 -0.4952
  517MOL0     C68155   7.680   7.054   4.807 -0.5255  1.1555 -0.2552
  517MOL0    Cl68156   7.827   6.977   4.883 -0.2985  0.1275  0.3289
  517MOL0     C68157   8.348   7.187   4.137  0.3652 -0.2953  0.9567
  517MOL0     C68158   8.467   7.166   4.063 -0.2623  0.2454 -0.2957
  517MOL0     O68159   8.787   7.220   4.139  0.1797  0.1539  0.2957
  517MOL0     C68160   9.031   7.273   4.057  0.7361 -0.0110  0.3761
  517MOL0     C68161   9.161   7.281   4.014 -0.2804  0.1642  0.6612
  517MOL0     N68162   9.986   7.033   3.777  0.7135 -0.4282 -0.2083
  517MOL0     N68163  10.095   7.008   3.846  0.2554 -0.3160  0.4108
  517MOL0     C68164  10.901   6.491   4.596  0.1267  0.2465 -0.4304
  517MOL0     C68165  11.011   6.411   4.601  0.4456 -0.7030  0.5771
  517MOL0     C68166  11.401   6.200   4.653 -0.1004  0.7061  0.3437
  517MOL0     C68167  11.495   6.263   4.729 -0.2594  0.9520 -0.7937
  517MOL0     C68168  11.610   6.190   4.766  0.0420  0.1337  0.4304
  517MOL0     C68169  11.638   6.057   4.724 -0.3390 -0.0256  0.6575
  517MOL0     O68170  11.759   5.997   4.769 -0.4457  1.2465 -0.2691
  517MOL0     C68171  11.795   5.881   4.698  0.4222 -0.3604  0.5501
  517MOL0     C68172  11.938   5.832   4.741  0.3925  0.8848 -0.2273
  517MOL0     C68173  11.942   5.763   4.877  0.0498  0.0633 -0.3989
  517MOL0     C68174  11.872   5.631   4.889 -0.3268 -0.2984  0.1249
  517MOL0     C68175  11.734   5.665   4.941  0.1857 -0.7577  0.4538
  517MOL0     C68176  11.619   5.708   4.960  0.2085  0.0127  0.5295
  517MOL0     C68177  11.544   5.998   4.638 -0.8590 -0.0732 -0.3533
  517MOL0     C68178  11.430   6.072   4.605 -0.4877  0.0425 -0.0724
  517MOL0     H68179  11.244   6.626   4.740  1.2227  1.0544 -2.1951
  517MOL0     H68180  11.055   6.753   4.752 -2.5083 -1.0528  1.8570
  517MOL0     H68181  10.664   6.644   4.509  0.2848  0.0862 -0.0586
  517MOL0     H68182  10.808   6.722   4.459 -0.5205 -3.5878 -0.5312
  517MOL0     H68183  10.716   6.933   4.569  0.4044  1.2784 -0.1345
  517MOL0     H68184  10.567   6.830   4.605 -0.7186 -0.3652 -1.7868
  517MOL0     H68185  10.517   6.793   4.353 -0.7787 -0.1696  0.8974
  517MOL0     H68186  10.663   6.884   4.314  1.7195 -1.0588  1.8352
  517MOL0     H68187  10.408   6.988   4.444 -2.7914  0.6946 -3.1136
  517MOL0     H68188  10.547   7.092   4.393  0.3989  0.1842 -3.2770
  517MOL0     H68189  10.511   7.017   4.172 -0.6587 -3.0596  0.0376
  517MOL0     H68190  10.367   7.106   4.234 -1.9402 -1.3881 -0.7271
  517MOL0     H68191  10.267   6.883   4.280  2.6979 -0.8512  2.1263
  517MOL0     H68192  10.382   6.814   4.171 -0.9966 -1.0943  3.0443
  517MOL0     H68193  10.316   6.969   3.989  0.4585 -3.1817 -1.5817
  517MOL0     H68194  10.192   6.857   4.033  0.2428  0.9121 -2.6277
  517MOL0     H68195  10.200   7.158   4.088  0.2716 -0.8582 -0.2631
  517MOL0     H68196  10.085   7.050   4.169  0.0563  0.5018  1.0084
  517MOL0     H68197   9.947   7.248   4.028  1.2624 -0.0813 -0.7455
  517MOL0     H68198   9.776   7.173   3.684 -0.8229 -0.5596  1.1591
  517MOL0     H68199   9.794   7.301   3.804  0.3902 -0.0425  1.8923
  517MOL0     H68200   9.664   7.188   3.964 -0.6732  0.5777  0.5979
  517MOL0     H68201   9.651   7.040   3.860 -0.3750 -0.5471 -2.4372
  517MOL0     H68202   9.570   7.315   3.762  2.1022 -0.7595 -2.5988
  517MOL0     H68203   9.503   7.158   3.711  0.8206 -0.9015  0.6166
  517MOL0     H68204   9.448   7.324   3.962 -1.1435 -0.8261  0.5943
  517MOL0     H68205   9.415   7.148   3.955 -0.3946 -0.5941 -0.5424
  517MOL0     H68206   9.103   7.275   3.682  2.9774  1.0546  0.3209
  517MOL0     H68207   8.880   7.268   3.746 -0.0512 -0.9694 -0.3690
  517MOL0     H68208   8.564   7.478   4.019  0.4620 -0.0133  1.5550
  517MOL0     H68209   8.335   7.522   4.105  0.0208  0.3050 -0.6063
  517MOL0     H68210   8.143   7.174   4.309  1.0287  1.3234  0.2075
  517MOL0     H68211   8.032   7.189   4.172 -0.1206  2.2155 -0.1911
  517MOL0     H68212   7.945   7.406   4.293 -1.7848 -0.7216 -0.3186
  517MOL0     H68213   8.048   7.366   4.425  0.4558 -0.5324 -0.3607
  517MOL0     H68214   7.906   7.204   4.505 -0.4516 -1.8542 -0.8480
  517MOL0     H68215   7.852   7.163   4.337  0.6553 -1.2508  0.4206
  517MOL0     H68216   7.764   7.410   4.464  1.9405  0.5050 -1.0514
  517MOL0     H68217   7.704   7.344   4.313 -0.4559  1.8642  1.1141
  517MOL0     H68218   7.617   7.139   4.453 -3.6368 -1.4382  3.0273
  517MOL0     H68219   7.520   7.287   4.474 -0.3053 -1.6938  1.7331
  517MOL0     H68220   7.534   7.198   4.678 -1.5749  2.4893 -3.0233
  517MOL0     H68221   7.651   7.333   4.688  0.5544  0.2536  1.1232
  517MOL0     H68222   7.797   7.094   4.634  0.7872  0.1042  0.4055
  517MOL0     H68223   7.804   7.214   4.776  1.0280  0.4310 -1.2675
  517MOL0     H68224   7.615   6.971   4.777  3.2412 -2.7279  1.2696
  517MOL0     H68225   7.616   7.103   4.882 -2.2724 -1.1952 -0.0877
  517MOL0     H68226   8.300   7.092   4.158  0.3317 -0.8877 -1.5725
  517MOL0     H68227   8.507   7.065   4.052  0.4660  0.5461 -0.4790
  517MOL0     H68228   9.012   7.278   4.163 -3.2648 -0.4953 -0.1373
  517MOL0     H68229   9.239   7.285   4.090 -0.5097  0.6851  0.8742
  517MOL0     H68230  10.803   6.445   4.594 -0.6316  1.5857  1.7194
  517MOL0     H68231  10.998   6.330   4.530 -3.8960  2.5901 -2.9910
  517MOL0     H68232  11.471   6.363   4.761 -1.5764  0.6417 -0.7701
  517MOL0     H68233  11.678   6.246   4.829  1.3148  0.8380 -1.4651
  517MOL0     H68234  11.799   5.920   4.595 -0.3178  1.3563  1.1388
  517MOL0     H68235  11.716   5.807   4.707 -0.0959 -0.5580 -3.4961
  517MOL0     H68236  11.987   5.764   4.670 -1.3093 -3.0661  2.0292
  517MOL0     H68237  11.998   5.923   4.745 -1.4257  2.1136 -0.0569
  517MOL0     H68238  11.903   5.835   4.949  1.7849  0.1334  0.5091
  517MOL0     H68239  12.046   5.735   4.898 -0.1090 -1.7687 -1.7690
  517MOL0     H68240  11.855   5.575   4.796 -2.3748 -0.1253  0.3436
  517MOL0     H68241  11.917   5.569   4.967  1.9528  2.4528  1.1559
  517MOL0     H68242  11.516   5.736   4.953  1.0178  3.4013  0.3283
  517MOL0     H68243  11.551   5.894   4.607 -1.3643  0.4210 -2.2976
  517MOL0     H68244  11.356   6.013   4.552  0.8717 -1.4309 -0.3920
  518MOL0     O68245   2.087   8.021   1.396  0.0819  0.0827 -0.1763
  518MOL0     C68246   2.145   8.127   1.394  0.0682 -0.2047 -0.4037
  518MOL0     O68247   2.093   8.242   1.437  0.2243  0.2079  0.7650
  518MOL0     C68248   1.979   8.232   1.514  0.2111  0.1443 -0.5093
  518MOL0     C68249   1.853   8.284   1.480  0.0819 -0.1227  0.2073
  518MOL0     C68250   1.741   8.271   1.565  0.1273 -0.2468  1.1335
  518MOL0     C68251   1.749   8.209   1.693  0.2653 -0.3750 -0.0036
  518MOL0     O68252   1.640   8.198   1.779  0.1488  0.3012  0.3753
  518MOL0     C68253   1.667   8.125   1.905 -0.1078 -0.3182  0.5343
  518MOL0     C68254   1.533   8.089   1.947 -0.1128 -0.9701  0.2484
  518MOL0     C68255   1.432   8.208   1.964  0.2015  0.1424  0.2768
  518MOL0     C68256   1.332   8.208   1.846 -0.3479  0.6026  0.2804
  518MOL0     C68257   1.227   8.321   1.840 -0.9571 -0.2572 -0.9447
  518MOL0     C68258   1.135   8.331   1.970 -0.1887  0.3639  0.0734
  518MOL0     C68259   1.045   8.451   1.957 -0.0031 -0.1272  0.7651
  518MOL0     C68260   0.944   8.438   1.835  0.2919 -0.7691 -0.2430
  518MOL0     N68261   0.859   8.322   1.853  0.0233  0.0038  0.8857
  518MOL0     C68262   0.880   8.200   1.790  0.0315  0.7151  0.8044
  518MOL0     C68263   0.769   8.124   1.803  0.1765  0.3564  0.3150
  518MOL0     C68264   0.746   7.988   1.747 -0.2906  0.7350 -0.0474
  518MOL0     C68265   0.838   7.945   1.627  0.2103 -0.1992  0.9542
  518MOL0     C68266   0.807   7.813   1.560 -0.1850  0.3077  0.6299
  518MOL0     C68267   0.664   7.764   1.546  0.4992 -0.5893  0.1268
  518MOL0     O68268   0.618   7.720   1.682  0.4986  0.7774  0.3121
  518MOL0     C68269   0.494   7.660   1.683  0.1063 -0.2560 -0.4621
  518MOL0     C68270   0.407   7.636   1.572  0.2690 -0.4076 -0.3289
  518MOL0     C68271   0.281   7.573   1.582  0.7790 -0.4558  0.4466
  518MOL0     C68272   0.240   7.518   1.696  0.7391 -0.3476  0.0361
  518MOL0     C68273   0.128   7.420   1.709  0.3813 -0.4376 -0.9785
  518MOL0     O68274   0.046   7.417   1.603  0.4292  0.0128  0.0108
  518MOL0     C68275  -0.020   7.297   1.586 -0.5560  0.4341 -0.8423
  518MOL0     C68276  -0.145   7.270   1.652  0.4542 -0.9913 -0.1721
  518MOL0     C68277  -0.222   7.160   1.624  0.0796  0.1107 -0.0478
  518MOL0     C68278  -0.167   7.069   1.535 -0.1529 -0.0473 -0.1350
  518MOL0     O68279  -0.241   6.950   1.520 -0.0891  0.4813 -0.4008
  518MOL0     C68280  -0.187   6.836   1.441  0.1489 -0.4020  0.6095
  518MOL0     C68281  -0.298   6.726   1.425  0.7664  0.2531 -0.2753
  518MOL0     C68282  -0.253   6.606   1.343 -0.0601 -0.1190  0.0194
  518MOL0     C68283  -0.379   6.512   1.331  0.7031  0.2207 -0.1065
  518MOL0     C68284  -0.364   6.403   1.228  0.7165  0.5849 -0.7843
  518MOL0     C68285  -0.500   6.348   1.170  0.0286 -0.2346 -0.1658
  518MOL0     C68286  -0.471   6.279   1.041 -0.3049 -0.1565 -0.3755
  518MOL0     C68287  -0.574   6.163   1.006 -0.1099 -0.1876  0.5077
  518MOL0    Cl68288  -0.508   6.059   0.878 -0.2535  0.0322 -0.3182
  518MOL0     C68289  -0.043   7.085   1.467 -0.0019 -0.0479 -0.1025
  518MOL0     C68290   0.034   7.194   1.499  0.0242 -0.1342 -0.6177
  518MOL0     O68291   0.112   7.355   1.812 -0.4838  0.4414  0.8881
  518MOL0     C68292   0.317   7.552   1.814 -0.6710 -0.2420  0.5298
  518MOL0     C68293   0.446   7.619   1.804  0.5195  0.7005  0.2642
  518MOL0     N68294   0.677   8.203   1.877  0.3948 -0.0689  0.3780
  518MOL0     N68295   0.734   8.320   1.902 -0.3459  0.3917 -0.1142
  518MOL0     C68296   1.877   8.163   1.723 -0.8311 -0.0305 -0.1486
  518MOL0     C68297   1.990   8.182   1.649 -0.1032  0.3437 -0.2924
  518MOL0     C68298   2.283   8.128   1.338  0.5760 -0.1393  0.2582
  518MOL0     C68299   2.333   8.022   1.275  0.0399  0.8329  0.2546
  518MOL0     C68300   2.443   8.049   1.203 -1.0295  0.0837  0.1649
  518MOL0     C68301   2.523   8.164   1.207 -0.0075 -0.2267  0.0927
  518MOL0     O68302   2.641   8.169   1.144  0.6969  0.5731 -0.5187
  518MOL0     C68303   2.638   8.238   1.017 -0.6659 -0.5225 -0.8052
  518MOL0     C68304   2.778   8.249   0.951 -0.0283  0.2287  0.6566
  518MOL0     C68305   2.880   8.290   1.051  1.0082  0.2573  0.5771
  518MOL0     C68306   2.878   8.429   1.106 -0.2995 -0.2735 -0.7990
  518MOL0     C68307   2.903   8.526   1.000 -0.9979  0.1653  0.9326
  518MOL0     C68308   2.929   8.595   0.903 -0.2115  0.3460  0.0886
  518MOL0     C68309   2.472   8.270   1.279  0.0374  0.4405  0.2541
  518MOL0     C68310   2.351   8.252   1.336 -0.4309 -0.4020  0.2342
  518MOL0     H68311   1.838   8.339   1.387 -1.6510 -0.1191  0.4559
  518MOL0     H68312   1.649   8.319   1.532  2.1478  5.4811  2.6393
  518MOL0     H68313   1.728   8.184   1.974  1.4997  0.5656 -1.5252
  518MOL0     H68314   1.711   8.025   1.899 -1.6890 -0.9710 -0.7792
  518MOL0     H68315   1.545   8.043   2.045  1.3760  0.9898  1.0489
  518MOL0     H68316   1.502   8.019   1.868  0.2924  0.1125 -0.9085
  518MOL0     H68317   1.497   8.295   1.956  0.9222 -0.5647 -2.7120
  518MOL0     H68318   1.379   8.199   2.060  1.2208 -2.5752  0.6829
  518MOL0     H68319   1.390   8.220   1.754  1.0075  2.2141  1.2744
  518MOL0     H68320   1.286   8.109   1.843 -0.3461  0.5971  0.4144
  518MOL0     H68321   1.175   8.298   1.747 -1.0322  0.9350 -1.2123
  518MOL0     H68322   1.275   8.418   1.827  0.0792 -0.6342 -0.1391
  518MOL0     H68323   1.193   8.347   2.061  1.0637  2.0101 -0.9676
  518MOL0     H68324   1.063   8.250   1.984  1.1790 -0.9001  0.0218
  518MOL0     H68325   0.988   8.465   2.049 -0.5035  2.6478  0.1094
  518MOL0     H68326   1.106   8.539   1.934  0.1450 -0.4812 -0.2619
  518MOL0     H68327   1.016   8.436   1.753  3.3677  1.7376  2.1473
  518MOL0     H68328   0.883   8.528   1.824  0.6387  0.0356  3.2091
  518MOL0     H68329   0.964   8.166   1.731 -0.7007 -1.4046  0.8965
  518MOL0     H68330   0.639   7.982   1.725 -0.2316  0.8508 -0.3631
  518MOL0     H68331   0.763   7.911   1.823  1.7221 -0.0876 -1.2278
  518MOL0     H68332   0.942   7.956   1.660  0.8692 -1.3424 -0.6327
  518MOL0     H68333   0.830   8.028   1.556 -0.8803  1.2515  2.6870
  518MOL0     H68334   0.846   7.808   1.458  1.1851  0.5222  1.1269
  518MOL0     H68335   0.846   7.726   1.614 -2.1165 -0.2597  1.1868
  518MOL0     H68336   0.641   7.680   1.480 -0.3022 -0.1892 -0.1163
  518MOL0     H68337   0.603   7.847   1.508 -0.9172 -1.3414  0.6832
  518MOL0     H68338   0.432   7.686   1.479 -0.6948  3.3413  1.2495
  518MOL0     H68339   0.233   7.540   1.490 -0.2629 -1.4805  1.3263
  518MOL0     H68340  -0.194   7.331   1.726  0.1737 -3.2393  1.5996
  518MOL0     H68341  -0.316   7.144   1.677  0.2981  0.0047  0.3076
  518MOL0     H68342  -0.099   6.791   1.488  0.9011 -0.3789 -0.7513
  518MOL0     H68343  -0.165   6.882   1.345  1.7475  2.1661  2.1128
  518MOL0     H68344  -0.390   6.775   1.392  0.6859  1.4821  1.6296
  518MOL0     H68345  -0.326   6.674   1.517  1.3983 -3.8607 -2.2095
  518MOL0     H68346  -0.170   6.558   1.395 -0.4145  2.2404  3.0509
  518MOL0     H68347  -0.214   6.638   1.246  2.0903 -3.8733 -0.5326
  518MOL0     H68348  -0.379   6.460   1.427 -0.6680  1.7943  0.7987
  518MOL0     H68349  -0.476   6.561   1.315  1.5152  0.9899 -3.2447
  518MOL0     H68350  -0.297   6.323   1.260  0.3683  1.1951  1.6536
  518MOL0     H68351  -0.314   6.447   1.141 -0.7204 -2.2398 -3.2197
  518MOL0     H68352  -0.568   6.428   1.139 -1.0609  0.1088  2.8043
  518MOL0     H68353  -0.556   6.288   1.243 -0.8863 -0.2662 -0.8690
  518MOL0     H68354  -0.471   6.352   0.960  2.0078 -0.5380 -0.7916
  518MOL0     H68355  -0.370   6.236   1.046  0.8537  1.8468 -3.3747
  518MOL0     H68356  -0.658   6.221   0.967  0.0956  0.5565  1.1647
  518MOL0     H68357  -0.597   6.113   1.100  4.0479  0.3393  2.0202
  518MOL0     H68358   0.000   7.012   1.399  0.8271  0.9082 -0.6433
  518MOL0     H68359   0.135   7.201   1.460  0.4362  1.5812  0.6435
  518MOL0     H68360   0.292   7.520   1.915 -1.5733 -2.8173 -0.4244
  518MOL0     H68361   0.508   7.639   1.891  2.1326 -2.7149  0.0621
  518MOL0     H68362   1.897   8.123   1.822 -1.2321  4.2295  1.8927
  518MOL0     H68363   2.090   8.155   1.683 -0.4824 -1.4516 -0.4918
  518MOL0     H68364   2.298   7.920   1.269  1.9971  0.2276 -3.5497
  518MOL0     H68365   2.464   7.974   1.128 -0.6292  1.1423 -0.8047
  518MOL0     H68366   2.604   8.340   1.039 -0.2172 -0.5075 -0.1244
  518MOL0     H68367   2.574   8.199   0.938 -0.1834 -0.2537 -1.3283
  518MOL0     H68368   2.819   8.159   0.904  1.7752  2.0804 -1.5399
  518MOL0     H68369   2.770   8.321   0.869  0.2574 -1.1875 -0.6473
  518MOL0     H68370   2.973   8.283   0.994  0.6281  0.5832 -0.0841
  518MOL0     H68371   2.885   8.226   1.140  2.5465  0.3026  0.5445
  518MOL0     H68372   2.781   8.440   1.154 -0.4351  0.8693 -1.3083
  518MOL0     H68373   2.965   8.440   1.171 -0.2939 -0.7194 -0.7277
  518MOL0     H68374   2.941   8.658   0.817  0.6094  0.4124  0.2438
  518MOL0     H68375   2.533   8.360   1.280 -0.7899  1.0161  0.0495
  518MOL0     H68376   2.314   8.332   1.399 -1.8038  0.8515 -2.0472
  519MOL0     O68377   4.672  11.164   4.032  0.2783 -0.0519 -0.5138
  519MOL0     C68378   4.726  11.238   3.955 -0.0967 -0.5347 -0.7828
  519MOL0     O68379   4.664  11.292   3.848 -0.2791  0.0872  0.7657
  519MOL0     C68380   4.528  11.276   3.848  0.5342 -0.0534  0.2658
  519MOL0     C68381   4.449  11.340   3.950 -0.7610  0.2047  1.0940
  519MOL0     C68382   4.313  11.322   3.951 -0.2016 -0.1089  0.0097
  519MOL0     C68383   4.252  11.259   3.845 -0.0338 -0.8397  1.5659
  519MOL0     O68384   4.115  11.256   3.834  0.4798  0.5390 -0.4530
  519MOL0     C68385   4.053  11.352   3.741 -0.1895 -0.0658 -0.3879
  519MOL0     C68386   3.910  11.404   3.785 -0.3095 -0.7345 -0.8588
  519MOL0     C68387   3.806  11.309   3.741  0.0520  0.2971  0.3369
  519MOL0     C68388   3.664  11.368   3.757  0.6216  1.1048 -0.7528
  519MOL0     C68389   3.565  11.258   3.782 -0.1232 -0.2165 -0.5212
  519MOL0     C68390   3.463  11.233   3.667 -1.0458 -0.4868  0.5220
  519MOL0     C68391   3.511  11.238   3.522 -1.1206 -0.3545 -0.5886
  519MOL0     C68392   3.413  11.174   3.423 -0.4298  0.7955 -0.1453
  519MOL0     N68393   3.272  11.206   3.441 -0.6453 -0.0413  0.5198
  519MOL0     C68394   3.176  11.141   3.522 -0.6270  0.3918  0.7122
  519MOL0     C68395   3.064  11.216   3.521  0.0945  0.8229  0.5256
  519MOL0     C68396   2.936  11.195   3.604  0.4603 -0.2002  0.0040
  519MOL0     C68397   2.966  11.173   3.747 -0.1278  0.0911 -0.9089
  519MOL0     C68398   2.840  11.171   3.850  0.1879 -0.4553  0.0327
  519MOL0     C68399   2.886  11.206   3.993  0.6302  0.0833  0.4926
  519MOL0     O68400   2.806  11.303   4.055  0.3340  0.1931  0.5361
  519MOL0     C68401   2.669  11.266   4.044  1.0658 -0.2270  0.6184
  519MOL0     C68402   2.588  11.352   3.968  0.6946 -0.8910 -0.6297
  519MOL0     C68403   2.452  11.326   3.956  0.0413  1.2452  0.1003
  519MOL0     C68404   2.390  11.206   4.014 -0.4988 -0.7391 -0.0154
  519MOL0     C68405   2.240  11.184   4.012  0.2624  0.6364  0.7104
  519MOL0     O68406   2.166  11.276   3.952  0.4220  0.8101 -0.3784
  519MOL0     C68407   2.030  11.277   3.986 -0.0208 -0.4605 -0.4118
  519MOL0     C68408   1.961  11.223   4.097  0.0779  0.8531  0.2854
  519MOL0     C68409   1.826  11.242   4.117 -0.1088  0.0793  0.4254
  519MOL0     C68410   1.753  11.327   4.029 -0.9467  0.0723  0.7329
  519MOL0     O68411   1.625  11.358   4.065  0.2977  0.5280 -0.7952
  519MOL0     C68412   1.531  11.396   3.960 -0.6812  0.6292  0.4090
  519MOL0     C68413   1.390  11.345   3.990 -0.3855 -0.3069 -1.0298
  519MOL0     C68414   1.345  11.405   4.128 -0.2648  0.0897  0.4346
  519MOL0     C68415   1.327  11.559   4.138 -0.0291 -0.3012 -1.1952
  519MOL0     C68416   1.226  11.614   4.036  0.4814 -0.3225 -1.2708
  519MOL0     C68417   1.080  11.572   4.063 -0.6454 -0.3068 -0.7187
  519MOL0     C68418   0.985  11.656   3.970  0.0702  0.1429 -1.1758
  519MOL0     C68419   0.854  11.682   4.046 -0.1525  0.2309  0.2760
  519MOL0    Cl68420   0.775  11.837   3.986  0.1428 -0.2320  0.0785
  519MOL0     C68421   1.816  11.391   3.915 -0.2605  0.0955 -0.5027
  519MOL0     C68422   1.950  11.352   3.896  0.4578  0.1663  0.1852
  519MOL0     O68423   2.199  11.079   4.062  0.1517  0.2268  0.7529
  519MOL0     C68424   2.477  11.121   4.089  0.1445 -0.7309  0.6356
  519MOL0     C68425   2.612  11.155   4.108 -0.2009  0.1412 -0.4819
  519MOL0     N68426   3.094  11.320   3.440  0.3570  0.1064 -0.5609
  519MOL0     N68427   3.219  11.320   3.401 -0.3737  0.0409  0.1977
  519MOL0     C68428   4.331  11.209   3.737  0.3823 -0.1913 -0.2065
  519MOL0     C68429   4.466  11.211   3.748  0.0422 -0.1041  0.5346
  519MOL0     C68430   4.871  11.261   3.961  0.0957 -0.3025 -0.0233
  519MOL0     C68431   4.947  11.233   4.076 -0.1415  0.7326  0.5009
  519MOL0     C68432   5.085  11.275   4.072  1.5029  0.0559 -0.9591
  519MOL0     C68433   5.144  11.322   3.953 -0.9126  0.3319 -0.2235
  519MOL0     O68434   5.280  11.352   3.937 -0.1604 -0.3431  0.0217
  519MOL0     C68435   5.363  11.365   4.054 -0.3487 -0.4729 -0.5096
  519MOL0     C68436   5.357  11.501   4.130 -0.0785 -0.4235 -0.0565
  519MOL0     C68437   5.484  11.518   4.223 -0.1501  0.3046 -0.0614
  519MOL0     C68438   5.491  11.661   4.280 -0.0582  0.4787  0.8198
  519MOL0     C68439   5.615  11.690   4.356  0.2300  0.0953  0.0365
  519MOL0     C68440   5.720  11.714   4.410 -0.2413  1.1655 -0.0830
  519MOL0     C68441   5.070  11.341   3.838 -0.6762 -0.3662  0.2190
  519MOL0     C68442   4.931  11.312   3.840 -0.2957 -0.5425 -0.1008
  519MOL0     H68443   4.480  11.403   4.033  0.0765  3.7800 -1.6595
  519MOL0     H68444   4.261  11.367   4.035  1.9234 -0.2984  1.4926
  519MOL0     H68445   4.050  11.312   3.639 -2.3758  0.1470 -0.4442
  519MOL0     H68446   4.111  11.445   3.736  0.7175 -0.4305  2.0973
  519MOL0     H68447   3.893  11.503   3.740 -1.1007 -0.6932 -0.4827
  519MOL0     H68448   3.910  11.411   3.894 -0.6139 -3.8726 -0.5637
  519MOL0     H68449   3.815  11.211   3.788  0.8071 -0.4766 -1.3535
  519MOL0     H68450   3.822  11.291   3.634 -0.5559  0.2531  0.2453
  519MOL0     H68451   3.669  11.437   3.842  2.3470 -0.9983  0.9748
  519MOL0     H68452   3.621  11.431   3.678 -0.3994  1.9666  0.4535
  519MOL0     H68453   3.504  11.290   3.867  0.2393  0.0073 -0.3435
  519MOL0     H68454   3.609  11.163   3.813  2.1423  1.7449  2.9760
  519MOL0     H68455   3.378  11.301   3.673 -1.8807 -0.6403 -4.9983
  519MOL0     H68456   3.427  11.132   3.693  0.1588 -1.2538 -0.6718
  519MOL0     H68457   3.521  11.342   3.490 -0.0453  0.7351  2.8854
  519MOL0     H68458   3.610  11.192   3.512 -0.5960  0.7987 -0.8823
  519MOL0     H68459   3.432  11.067   3.436  0.5453  0.9802  0.0149
  519MOL0     H68460   3.451  11.205   3.326  0.3485  0.5361  0.0741
  519MOL0     H68461   3.162  11.048   3.576  0.8233 -1.0592 -1.2818
  519MOL0     H68462   2.875  11.116   3.559 -1.2055  1.0145  0.0229
  519MOL0     H68463   2.872  11.283   3.593  1.2156  0.1903 -1.5838
  519MOL0     H68464   3.042  11.245   3.779 -0.3573 -0.2543  0.4649
  519MOL0     H68465   3.022  11.080   3.755  3.1312  2.0337  2.6892
  519MOL0     H68466   2.768  11.245   3.813 -2.4946 -2.7342  0.4081
  519MOL0     H68467   2.777  11.082   3.859 -1.0976  0.4016 -0.2089
  519MOL0     H68468   2.988  11.245   4.002  1.4679 -2.0793  1.0491
  519MOL0     H68469   2.887  11.113   4.052  0.7882 -0.8434 -0.9188
  519MOL0     H68470   2.624  11.438   3.912 -2.3235 -0.7469 -2.5679
  519MOL0     H68471   2.387  11.395   3.903  0.7839  0.1415 -2.4426
  519MOL0     H68472   2.017  11.164   4.169  2.6122  3.1965  0.3707
  519MOL0     H68473   1.781  11.189   4.201  0.0885 -3.0621 -1.3028
  519MOL0     H68474   1.570  11.358   3.865  0.2426 -0.1287  1.0770
  519MOL0     H68475   1.523  11.505   3.950  0.3376  0.7261  0.5109
  519MOL0     H68476   1.391  11.235   3.984 -2.4112 -0.3085 -2.0667
  519MOL0     H68477   1.327  11.373   3.906 -1.8630 -1.2791 -0.2792
  519MOL0     H68478   1.424  11.378   4.199  1.2313  2.5192 -0.1984
  519MOL0     H68479   1.252  11.356   4.159  0.0329  1.5142  4.0702
  519MOL0     H68480   1.293  11.587   4.238 -0.7047  1.7220 -1.9416
  519MOL0     H68481   1.412  11.627   4.122 -1.5223  2.0958  0.4338
  519MOL0     H68482   1.258  11.581   3.937  0.5153 -0.6721 -1.1465
  519MOL0     H68483   1.223  11.723   4.033 -1.4426 -0.2266  0.8607
  519MOL0     H68484   1.051  11.578   4.168  0.6649 -0.6444 -0.3173
  519MOL0     H68485   1.071  11.466   4.039  0.0799 -0.4558 -0.3515
  519MOL0     H68486   1.030  11.754   3.948 -1.0963  0.9102 -0.2383
  519MOL0     H68487   0.961  11.603   3.878  0.4700 -0.4008 -0.9729
  519MOL0     H68488   0.873  11.705   4.151 -0.1143  1.9478 -0.0720
  519MOL0     H68489   0.789  11.594   4.047  1.3003 -0.9416 -1.5760
  519MOL0     H68490   1.787  11.465   3.841  0.7421  1.9719  0.9145
  519MOL0     H68491   1.995  11.394   3.807  1.1343 -1.4871 -0.2983
  519MOL0     H68492   2.431  11.028   4.120  0.5101 -1.7518 -1.6759
  519MOL0     H68493   2.674  11.091   4.170  0.1445  0.6014 -0.3478
  519MOL0     H68494   4.276  11.158   3.658 -1.1574  0.1584  0.6047
  519MOL0     H68495   4.522  11.174   3.662  0.2947  2.5149 -0.5603
  519MOL0     H68496   4.898  11.206   4.169 -3.9696  1.7392 -0.9958
  519MOL0     H68497   5.121  11.262   4.173  0.2624  0.2390 -0.4805
  519MOL0     H68498   5.466  11.342   4.025  0.2887  0.5167  0.8595
  519MOL0     H68499   5.335  11.283   4.122 -2.3852 -0.5736 -1.4095
  519MOL0     H68500   5.364  11.583   4.058  1.1473 -0.1359  0.3677
  519MOL0     H68501   5.262  11.508   4.183 -0.0024  2.3831 -0.1323
  519MOL0     H68502   5.572  11.484   4.168  0.1771  0.2484  0.4984
  519MOL0     H68503   5.483  11.452   4.310  1.6925 -0.8591 -0.8701
  519MOL0     H68504   5.494  11.733   4.197 -2.0340  3.4987  3.1771
  519MOL0     H68505   5.401  11.686   4.337  1.5115  0.9301  3.2407
  519MOL0     H68506   5.814  11.751   4.446  0.6589  2.7199 -3.5890
  519MOL0     H68507   5.106  11.379   3.743  0.6318 -1.7652  0.1252
  519MOL0     H68508   4.875  11.340   3.751 -0.8708 -1.0423  0.0974
  520MOL0     O68509   0.511  11.207   5.117  0.6036 -0.4503 -1.3140
  520MOL0     C68510   0.493  11.317   5.081 -0.7576 -1.9913 -0.3867
  520MOL0     O68511   0.502  11.432   5.150 -0.1211 -0.0875  0.1884
  520MOL0     C68512   0.577  11.426   5.265 -0.2625 -0.5263 -0.4017
  520MOL0     C68513   0.541  11.528   5.359 -0.0429 -0.1309  0.6763
  520MOL0     C68514   0.619  11.544   5.479 -0.9362  0.1743 -0.5869
  520MOL0     C68515   0.733  11.457   5.493  0.0880 -0.0171 -0.5052
  520MOL0     O68516   0.813  11.483   5.597 -0.1893  0.2113  0.7653
  520MOL0     C68517   0.943  11.525   5.542 -0.2258  0.0743 -0.8801
  520MOL0     C68518   1.033  11.548   5.658 -0.9889  0.3982  0.0481
  520MOL0     C68519   0.986  11.652   5.748 -0.5980  0.1720 -0.6036
  520MOL0     C68520   1.100  11.694   5.850  0.0620 -0.6688 -0.4596
  520MOL0     C68521   1.030  11.794   5.944  0.3768 -0.0009 -0.1781
  520MOL0     C68522   1.133  11.882   6.025  0.1529 -0.4784 -0.3598
  520MOL0     C68523   1.242  11.800   6.087  0.6542 -0.2376 -0.1198
  520MOL0     C68524   1.336  11.880   6.189  0.2424 -0.4724 -0.2866
  520MOL0     N68525   1.268  11.903   6.320  0.1100  0.0976  0.5083
  520MOL0     C68526   1.221  11.811   6.402  0.0880 -0.0774 -0.3222
  520MOL0     C68527   1.138  11.872   6.496  0.3950 -0.1455  0.5965
  520MOL0     C68528   1.069  11.815   6.620  0.3434  0.4109 -0.4524
  520MOL0     C68529   0.930  11.760   6.582 -0.4843  0.6254 -0.1691
  520MOL0     C68530   0.839  11.887   6.558  0.2771 -0.0445 -0.5109
  520MOL0     C68531   0.699  11.835   6.521  0.4644  0.3737 -0.0451
  520MOL0     O68532   0.619  11.812   6.647  0.1087 -0.3266 -0.1807
  520MOL0     C68533   0.482  11.800   6.648  0.0128 -0.0868  0.4830
  520MOL0     C68534   0.425  11.793   6.766  0.8173  0.4893 -0.6146
  520MOL0     C68535   0.281  11.782   6.780 -0.7768  0.1551  0.2475
  520MOL0     C68536   0.193  11.798   6.670 -0.1469  0.3359 -0.1257
  520MOL0     C68537   0.040  11.796   6.686 -0.5646  0.0859 -0.6970
  520MOL0     O68538  -0.038  11.852   6.586 -1.3687 -0.5503  0.5118
  520MOL0     C68539  -0.172  11.853   6.607 -0.5793 -0.1979  0.7042
  520MOL0     C68540  -0.256  11.766   6.537  0.5400 -0.5771  0.2621
  520MOL0     C68541  -0.389  11.799   6.524 -0.2116 -0.6303  0.3747
  520MOL0     C68542  -0.446  11.899   6.614 -0.6340 -0.5448  0.0500
  520MOL0     O68543  -0.570  11.935   6.587  0.1750 -0.4058 -0.4829
  520MOL0     C68544  -0.662  11.924   6.704 -0.0108  0.6144 -0.7826
  520MOL0     C68545  -0.670  11.780   6.770  0.6304  0.0304 -0.7890
  520MOL0     C68546  -0.727  11.781   6.910 -0.4775 -0.2316  0.3216
  520MOL0     C68547  -0.884  11.784   6.909  0.6464  0.3091 -0.1228
  520MOL0     C68548  -0.940  11.824   7.045  0.1377  1.1661 -0.3302
  520MOL0     C68549  -1.094  11.769   7.048  0.0306 -0.2366 -0.0341
  520MOL0     C68550  -1.136  11.816   7.185  0.0809 -0.5802  0.5437
  520MOL0     C68551  -1.291  11.824   7.204  0.2309  0.0895  0.1350
  520MOL0    Cl68552  -1.371  11.682   7.121  0.0398 -0.3046 -0.1336
  520MOL0     C68553  -0.364  11.984   6.683 -0.4810  0.5791  0.0563
  520MOL0     C68554  -0.228  11.956   6.679  0.0765 -0.0670 -0.7261
  520MOL0     O68555   0.000  11.744   6.788  0.7162  0.0402 -0.4451
  520MOL0     C68556   0.256  11.793   6.544 -0.6463 -0.3961 -0.6262
  520MOL0     C68557   0.397  11.798   6.530 -1.1439 -0.1676  0.0258
  520MOL0     N68558   1.157  12.010   6.473  0.3921 -0.4557 -0.9594
  520MOL0     N68559   1.230  12.024   6.370  0.2934 -0.4614  0.6011
  520MOL0     C68560   0.764  11.348   5.410 -0.7784 -0.3146  0.7203
  520MOL0     C68561   0.682  11.342   5.296  0.7338  0.6002  0.4252
  520MOL0     C68562   0.447  11.331   4.935  0.2488  0.4971 -0.3514
  520MOL0     C68563   0.374  11.223   4.875 -0.0271 -0.1790 -0.7098
  520MOL0     C68564   0.333  11.238   4.749 -0.0025 -0.0826 -0.3352
  520MOL0     C68565   0.350  11.356   4.675 -0.2639 -0.1041  0.5078
  520MOL0     O68566   0.310  11.382   4.546 -0.4111  0.0094  0.1928
  520MOL0     C68567   0.234  11.279   4.482  0.9675 -0.5516 -0.2987
  520MOL0     C68568   0.213  11.296   4.333  0.0249  0.2568 -0.7823
  520MOL0     C68569   0.340  11.311   4.253 -0.3643  0.4572  0.2010
  520MOL0     C68570   0.316  11.369   4.113  0.4818 -0.0535 -0.6649
  520MOL0     C68571   0.447  11.379   4.055  1.0377  0.0217  0.1228
  520MOL0     C68572   0.566  11.398   4.030  0.1010 -0.2597 -0.4955
  520MOL0     C68573   0.417  11.456   4.739  0.2966  0.2108  0.6332
  520MOL0     C68574   0.476  11.443   4.862 -0.3264 -1.1635  0.7370
  520MOL0     H68575   0.473  11.606   5.327  0.8802  0.2372 -0.4557
  520MOL0     H68576   0.595  11.610   5.562  0.3029  1.1620 -0.9692
  520MOL0     H68577   0.942  11.615   5.479 -0.1369  0.1663 -0.7504
  520MOL0     H68578   0.993  11.441   5.491 -1.0166 -0.1843 -1.2444
  520MOL0     H68579   1.130  11.580   5.620 -0.7558  0.6951  0.8723
  520MOL0     H68580   1.038  11.447   5.700  0.1988  0.4502  0.0537
  520MOL0     H68581   0.898  11.617   5.803  0.7850 -0.1282  1.5317
  520MOL0     H68582   0.967  11.739   5.685 -2.5612 -0.3413 -0.7898
  520MOL0     H68583   1.144  11.614   5.911 -0.6192 -2.8564 -2.6570
  520MOL0     H68584   1.189  11.735   5.801  0.9120 -0.1966  1.3851
  520MOL0     H68585   0.968  11.740   6.016 -2.0244  2.4961 -0.2085
  520MOL0     H68586   0.965  11.852   5.878 -1.4794 -0.5046  1.1357
  520MOL0     H68587   1.078  11.944   6.097 -0.5916 -0.7282 -0.7036
  520MOL0     H68588   1.181  11.950   5.954 -3.4625  0.5855 -2.0389
  520MOL0     H68589   1.179  11.717   6.120 -2.2516  0.2897 -3.7375
  520MOL0     H68590   1.307  11.755   6.012 -1.4754 -0.1520 -2.1205
  520MOL0     H68591   1.367  11.973   6.139  0.2096 -1.1426 -1.5971
  520MOL0     H68592   1.427  11.825   6.214 -1.1647 -1.2798  3.8127
  520MOL0     H68593   1.238  11.704   6.392  2.8403  0.0154  2.1078
  520MOL0     H68594   1.058  11.892   6.697 -2.2174 -0.7238  0.4453
  520MOL0     H68595   1.124  11.732   6.664 -0.7916  0.4723  1.1730
  520MOL0     H68596   0.883  11.697   6.658  1.2861 -3.9978 -2.4781
  520MOL0     H68597   0.928  11.696   6.493 -3.7531  1.5373 -0.8553
  520MOL0     H68598   0.811  11.955   6.639 -1.9629 -0.7656 -0.5993
  520MOL0     H68599   0.887  11.949   6.482  0.0250 -0.2259 -0.8184
  520MOL0     H68600   0.697  11.756   6.445 -0.1543 -1.1269  1.4797
  520MOL0     H68601   0.643  11.916   6.473  0.3475  2.4207  3.2437
  520MOL0     H68602   0.484  11.777   6.855  0.4999  1.2021 -0.2736
  520MOL0     H68603   0.242  11.787   6.881 -1.7297 -0.4028 -0.0766
  520MOL0     H68604  -0.228  11.681   6.476 -0.1464 -0.9591  0.4685
  520MOL0     H68605  -0.459  11.740   6.466 -2.9595  0.7834  2.0239
  520MOL0     H68606  -0.757  11.956   6.661 -1.8249  2.0550  3.7016
  520MOL0     H68607  -0.632  12.000   6.777  2.0679  3.1640 -3.9972
  520MOL0     H68608  -0.569  11.740   6.783  0.6642  1.0706  3.1963
  520MOL0     H68609  -0.728  11.716   6.702 -0.5920 -0.9254  1.0767
  520MOL0     H68610  -0.691  11.871   6.962  0.2006 -0.5429  0.4148
  520MOL0     H68611  -0.691  11.689   6.958  3.5345  1.2895  0.6675
  520MOL0     H68612  -0.920  11.851   6.830  0.0439 -0.1385 -0.2390
  520MOL0     H68613  -0.911  11.683   6.877 -0.6786 -0.0338  1.8561
  520MOL0     H68614  -0.938  11.933   7.057 -2.8286  1.0866  1.8549
  520MOL0     H68615  -0.869  11.780   7.115 -1.6588 -0.2226  0.6915
  520MOL0     H68616  -1.109  11.664   7.025 -2.3821  0.0284  0.1262
  520MOL0     H68617  -1.143  11.830   6.971  1.8047 -0.2956 -1.2866
  520MOL0     H68618  -1.096  11.742   7.256 -2.1369 -2.0925  0.3416
  520MOL0     H68619  -1.093  11.914   7.205 -1.3659  0.6233 -1.8485
  520MOL0     H68620  -1.306  11.926   7.169  1.2499 -0.2245 -1.2894
  520MOL0     H68621  -1.317  11.843   7.309  1.5088  0.8873  0.3364
  520MOL0     H68622  -0.401  12.073   6.733  0.1253  1.1633 -0.5075
  520MOL0     H68623  -0.161  12.025   6.729 -0.9716 -0.8881  1.9655
  520MOL0     H68624   0.190  11.787   6.458  1.1760  0.0983 -2.1271
  520MOL0     H68625   0.448  11.781   6.436 -3.6429 -1.5598 -1.1647
  520MOL0     H68626   0.852  11.285   5.415  0.1804  1.1369  3.9844
  520MOL0     H68627   0.699  11.258   5.229 -3.5323 -0.4455  0.3944
  520MOL0     H68628   0.342  11.147   4.945 -1.9162 -0.5073 -1.8849
  520MOL0     H68629   0.266  11.165   4.705 -0.2589  1.6147 -3.0270
  520MOL0     H68630   0.137  11.265   4.530  0.8661 -1.3624 -0.7118
  520MOL0     H68631   0.281  11.182   4.504 -0.9740 -1.4828 -0.0502
  520MOL0     H68632   0.145  11.223   4.288 -1.7649  0.5075  1.3821
  520MOL0     H68633   0.168  11.394   4.318  0.4427  0.6603  0.5158
  520MOL0     H68634   0.388  11.213   4.244 -2.3466 -0.5593  0.1108
  520MOL0     H68635   0.412  11.381   4.295 -0.1637 -0.5735  1.6204
  520MOL0     H68636   0.254  11.311   4.046  0.1859  2.3363 -2.5885
  520MOL0     H68637   0.285  11.474   4.122  2.1812  0.3847  0.9838
  520MOL0     H68638   0.667  11.397   3.993 -1.2982 -2.6077 -5.0442
  520MOL0     H68639   0.424  11.545   4.677  1.6321  0.1025  0.5909
  520MOL0     H68640   0.543  11.514   4.910  0.8594 -1.9626  0.3199
  521MOL0     O68641   4.581   2.060   4.520  0.0910 -0.0357 -0.4618
  521MOL0     C68642   4.597   1.999   4.624  0.4109 -1.5549  0.0109
  521MOL0     O68643   4.535   2.033   4.742  0.5357 -0.1267  0.2718
  521MOL0     C68644   4.464   2.147   4.737  1.5007  0.7911  0.8111
  521MOL0     C68645   4.318   2.145   4.720 -0.3160 -0.0765 -0.2294
  521MOL0     C68646   4.245   2.260   4.760 -0.6649 -0.6440 -0.4130
  521MOL0     C68647   4.306   2.381   4.790  0.4712 -0.2347  0.1626
  521MOL0     O68648   4.243   2.498   4.836  0.5503  0.7222 -0.3147
  521MOL0     C68649   4.108   2.497   4.886  0.8061  0.2292 -0.0800
  521MOL0     C68650   4.105   2.427   5.032 -0.4125 -1.0653  0.6078
  521MOL0     C68651   3.961   2.407   5.086 -0.3529  0.5169 -0.3162
  521MOL0     C68652   3.957   2.367   5.235 -0.3262 -0.0145  0.3387
  521MOL0     C68653   3.815   2.350   5.262 -0.5036  0.7235 -0.1124
  521MOL0     C68654   3.785   2.356   5.414  0.3788  0.6989 -0.5191
  521MOL0     C68655   3.630   2.339   5.441 -0.1712 -0.2473  1.2569
  521MOL0     C68656   3.573   2.196   5.442 -0.0803  0.9881  0.4036
  521MOL0     N68657   3.420   2.182   5.426 -0.1111  0.6264 -0.1850
  521MOL0     C68658   3.326   2.274   5.463  0.5160 -0.4589  0.2794
  521MOL0     C68659   3.208   2.236   5.403  0.9677  0.9039  0.3401
  521MOL0     C68660   3.081   2.305   5.424  0.8147 -0.3465 -1.1992
  521MOL0     C68661   3.029   2.365   5.295 -0.1263  0.4400  0.7567
  521MOL0     C68662   3.023   2.512   5.297 -0.2149  0.1350 -0.1298
  521MOL0     C68663   2.926   2.577   5.398 -0.4019  1.0238 -0.4031
  521MOL0     O68664   2.800   2.516   5.404 -0.6274  0.3499 -0.2477
  521MOL0     C68665   2.705   2.566   5.491 -0.5162  0.7974 -1.1820
  521MOL0     C68666   2.592   2.496   5.480  0.1731 -0.1793 -0.7106
  521MOL0     C68667   2.481   2.545   5.546  0.0152 -0.2052  0.0125
  521MOL0     C68668   2.482   2.661   5.627 -0.0939  1.0030  0.1374
  521MOL0     C68669   2.370   2.706   5.712 -0.8924  0.5516 -0.3185
  521MOL0     O68670   2.249   2.633   5.702 -0.1701  0.9240  0.3295
  521MOL0     C68671   2.130   2.701   5.724  0.2855 -1.0576  0.1315
  521MOL0     C68672   2.053   2.664   5.833  0.2749 -0.5158 -0.3247
  521MOL0     C68673   1.932   2.739   5.850 -0.3031  0.2996 -0.0903
  521MOL0     C68674   1.897   2.847   5.766 -0.1154  0.1664  0.2345
  521MOL0     O68675   1.782   2.920   5.781  0.3174  0.3348  0.1536
  521MOL0     C68676   1.673   2.878   5.879  1.0038 -0.0900  0.5593
  521MOL0     C68677   1.579   2.769   5.814  0.2076 -0.3563 -0.7354
  521MOL0     C68678   1.442   2.748   5.891  0.0444  0.6429  0.4236
  521MOL0     C68679   1.351   2.636   5.826 -0.9632 -0.2945 -0.4300
  521MOL0     C68680   1.217   2.636   5.895 -0.8937 -1.0085  0.2553
  521MOL0     C68681   1.107   2.586   5.805 -0.1935 -0.0564  0.2005
  521MOL0     C68682   1.106   2.435   5.813  0.0902  0.1860 -0.5712
  521MOL0     C68683   0.969   2.379   5.769  0.1702 -0.5833 -0.5128
  521MOL0    Cl68684   0.967   2.356   5.594  0.6287 -0.2489 -0.5455
  521MOL0     C68685   1.982   2.878   5.654 -0.3223  0.6565 -0.1340
  521MOL0     C68686   2.095   2.796   5.634  0.2762  0.0652 -0.7296
  521MOL0     O68687   2.379   2.802   5.787  0.2328 -0.1208 -0.2018
  521MOL0     C68688   2.603   2.728   5.631 -0.4354 -0.7526 -0.0845
  521MOL0     C68689   2.716   2.692   5.559  1.0506 -0.0356 -0.3645
  521MOL0     N68690   3.226   2.131   5.319  1.1664  0.6035 -0.0069
  521MOL0     N68691   3.351   2.104   5.331  0.2916  0.6145  0.1731
  521MOL0     C68692   4.451   2.383   4.782  0.9516 -0.8416  0.5580
  521MOL0     C68693   4.533   2.270   4.763  0.5550  1.1391  0.5394
  521MOL0     C68694   4.678   1.887   4.625 -0.7018 -0.1114  0.1256
  521MOL0     C68695   4.726   1.835   4.511  0.2591 -0.1673 -0.3615
  521MOL0     C68696   4.821   1.727   4.510 -0.5999 -0.2545 -0.4111
  521MOL0     C68697   4.870   1.672   4.633  0.1530  0.5944 -0.3081
  521MOL0     O68698   4.966   1.573   4.622  0.6767 -0.0642  0.1456
  521MOL0     C68699   5.009   1.514   4.739 -0.0905  0.7299  0.3845
  521MOL0     C68700   5.141   1.435   4.721  0.0353 -0.2867 -0.2534
  521MOL0     C68701   5.193   1.375   4.861 -0.2788  0.7255  0.7952
  521MOL0     C68702   5.328   1.308   4.851  0.3160 -0.0326  0.4001
  521MOL0     C68703   5.351   1.235   4.972  0.5961 -0.4123 -0.5893
  521MOL0     C68704   5.372   1.167   5.071 -0.6215 -0.1589 -0.1819
  521MOL0     C68705   4.811   1.721   4.752  0.3777  0.4868 -0.3967
  521MOL0     C68706   4.728   1.831   4.741 -0.0896 -0.5434 -0.9375
  521MOL0     H68707   4.269   2.052   4.693  1.8186 -1.1313 -0.7077
  521MOL0     H68708   4.137   2.272   4.763 -0.3740  2.9473 -0.3835
  521MOL0     H68709   4.032   2.454   4.821  1.2233  2.5306 -2.2392
  521MOL0     H68710   4.075   2.600   4.896  0.2128 -0.0181  0.6014
  521MOL0     H68711   4.171   2.481   5.102  1.2579 -0.5352 -1.2782
  521MOL0     H68712   4.142   2.326   5.014 -2.3814 -1.3487 -2.5208
  521MOL0     H68713   3.907   2.336   5.023  1.5501 -0.6883 -0.6914
  521MOL0     H68714   3.906   2.501   5.079 -1.1022  0.1998  1.0032
  521MOL0     H68715   4.013   2.274   5.250  0.3606  0.2683 -0.4057
  521MOL0     H68716   4.001   2.452   5.289  0.8051  1.6301 -2.8596
  521MOL0     H68717   3.784   2.251   5.227  3.1462 -1.0411  1.1058
  521MOL0     H68718   3.743   2.415   5.212 -2.6073 -1.3651 -0.0036
  521MOL0     H68719   3.823   2.447   5.462 -1.6307  1.4015 -0.1460
  521MOL0     H68720   3.833   2.274   5.469 -0.0708  0.6514 -0.1881
  521MOL0     H68721   3.612   2.385   5.538 -0.9728  0.0931  0.9504
  521MOL0     H68722   3.582   2.404   5.368 -0.9832 -0.9863  1.1115
  521MOL0     H68723   3.584   2.152   5.541 -4.2434  1.4680  1.2650
  521MOL0     H68724   3.623   2.136   5.365 -1.0387  0.8604 -0.1393
  521MOL0     H68725   3.338   2.362   5.524  1.4162  0.4878 -1.2083
  521MOL0     H68726   3.087   2.385   5.498 -1.5099  0.9116 -2.2557
  521MOL0     H68727   3.003   2.238   5.462  0.7174  1.3421  1.8786
  521MOL0     H68728   2.930   2.325   5.272 -0.2861  1.0107  0.4207
  521MOL0     H68729   3.093   2.337   5.210  1.0031 -0.0938  1.7478
  521MOL0     H68730   3.120   2.561   5.308 -0.3485  2.0415 -5.0408
  521MOL0     H68731   2.979   2.531   5.198  3.5413 -0.2125 -2.0483
  521MOL0     H68732   2.913   2.679   5.361 -4.4004  1.3130  1.2722
  521MOL0     H68733   2.964   2.581   5.500  1.7000  2.2771 -1.1855
  521MOL0     H68734   2.593   2.394   5.445  3.7944 -0.9866  1.2545
  521MOL0     H68735   2.401   2.472   5.543 -1.2904  1.1934 -1.9834
  521MOL0     H68736   2.073   2.596   5.914  0.4688  0.5289  0.5266
  521MOL0     H68737   1.884   2.731   5.947 -0.3707  0.1740 -0.1330
  521MOL0     H68738   1.616   2.966   5.911  2.4132  0.9113  0.4646
  521MOL0     H68739   1.717   2.840   5.972  0.4573  0.0747  0.8842
  521MOL0     H68740   1.625   2.670   5.823  1.7623  0.2944 -1.2047
  521MOL0     H68741   1.572   2.805   5.711  2.8987  0.2226 -0.7736
  521MOL0     H68742   1.391   2.845   5.895 -0.7287  0.2726 -0.0945
  521MOL0     H68743   1.451   2.720   5.997 -2.0980 -2.3448 -0.0596
  521MOL0     H68744   1.346   2.660   5.720  1.0083 -1.9134 -0.9449
  521MOL0     H68745   1.395   2.536   5.838  2.2366  1.1417  0.7846
  521MOL0     H68746   1.188   2.740   5.914 -0.5236 -1.3500  3.1676
  521MOL0     H68747   1.220   2.592   5.995 -0.4769 -0.2579  0.5770
  521MOL0     H68748   1.121   2.619   5.701  3.2199  2.2211  1.2173
  521MOL0     H68749   1.015   2.630   5.846 -0.6873 -1.1916  0.3310
  521MOL0     H68750   1.177   2.402   5.737  0.1811  1.5696 -1.1134
  521MOL0     H68751   1.131   2.398   5.913 -3.9896  2.4616  1.5851
  521MOL0     H68752   0.881   2.438   5.797  0.2523 -0.0973 -1.2358
  521MOL0     H68753   0.945   2.282   5.811  1.0029  0.0088  1.4097
  521MOL0     H68754   1.960   2.954   5.581 -0.6106 -0.4146 -1.1970
  521MOL0     H68755   2.160   2.806   5.548  0.4823 -0.4325 -0.6313
  521MOL0     H68756   2.604   2.811   5.701 -1.7895 -0.2447 -0.6356
  521MOL0     H68757   2.806   2.752   5.556  1.4129 -0.5878 -0.5723
  521MOL0     H68758   4.487   2.485   4.794 -1.7188  0.4052 -1.1758
  521MOL0     H68759   4.641   2.275   4.755  0.8182 -0.6268  2.3242
  521MOL0     H68760   4.693   1.886   4.420 -0.5660  1.0240  0.5701
  521MOL0     H68761   4.861   1.698   4.414 -0.4821 -1.4999  0.0016
  521MOL0     H68762   4.930   1.449   4.778 -1.3970  0.1965 -2.9001
  521MOL0     H68763   5.035   1.590   4.814  1.0414 -1.2302  2.0769
  521MOL0     H68764   5.129   1.369   4.634  2.0097 -1.0229 -0.0371
  521MOL0     H68765   5.215   1.514   4.705 -1.4366  0.9312 -1.3361
  521MOL0     H68766   5.121   1.302   4.902 -0.1905  0.4360  0.4480
  521MOL0     H68767   5.207   1.459   4.929  1.6257 -1.7381  3.7268
  521MOL0     H68768   5.336   1.230   4.775  0.1401  0.1258  0.2195
  521MOL0     H68769   5.408   1.380   4.833 -1.5893  1.2515 -4.2880
  521MOL0     H68770   5.411   1.105   5.150  1.1153  1.2125  0.0785
  521MOL0     H68771   4.854   1.697   4.849  3.0615  0.9502 -1.3871
  521MOL0     H68772   4.703   1.862   4.842  1.1224 -1.2613 -0.3966
  522MOL0     O68773   4.110   9.414   2.772 -0.3768 -0.0567  0.0261
  522MOL0     C68774   4.084   9.312   2.838  1.0564  0.4347  0.6598
  522MOL0     O68775   3.964   9.274   2.875 -0.7340  0.1585  0.1726
  522MOL0     C68776   3.845   9.320   2.825 -0.3351 -0.7429 -0.0515
  522MOL0     C68777   3.739   9.288   2.904  0.2034  0.1239 -0.2688
  522MOL0     C68778   3.612   9.299   2.853 -0.1535 -0.5089  0.5491
  522MOL0     C68779   3.581   9.343   2.724 -0.5077  0.1980  0.1828
  522MOL0     O68780   3.453   9.361   2.677  0.3561  0.7066  1.2482
  522MOL0     C68781   3.336   9.327   2.765  0.6090 -0.2679  0.1426
  522MOL0     C68782   3.211   9.329   2.673  0.0106  0.0732  0.3138
  522MOL0     C68783   3.097   9.270   2.755  0.6744  0.7479 -0.0252
  522MOL0     C68784   2.974   9.221   2.668  0.4541 -0.3843 -0.1479
  522MOL0     C68785   2.847   9.180   2.737  0.7251 -0.0670  0.2262
  522MOL0     C68786   2.717   9.256   2.688 -1.3511  0.5059  0.4695
  522MOL0     C68787   2.585   9.195   2.720  0.3507  0.7534 -0.3754
  522MOL0     C68788   2.470   9.286   2.664  0.0891 -0.7535  0.3269
  522MOL0     N68789   2.354   9.283   2.761 -0.3242 -0.0103 -0.2681
  522MOL0     C68790   2.241   9.209   2.745  0.1796  0.8234  0.5825
  522MOL0     C68791   2.170   9.216   2.867  0.0541 -0.0185  0.5008
  522MOL0     C68792   2.044   9.150   2.907  0.9847  0.8082  0.1261
  522MOL0     C68793   2.045   8.999   2.892 -0.0182  0.2076  0.4258
  522MOL0     C68794   2.106   8.913   3.014  0.9059  0.0834 -0.3596
  522MOL0     C68795   2.257   8.920   3.029 -0.0440  0.0782 -0.1790
  522MOL0     O68796   2.311   8.802   2.952  0.3849 -0.2160  0.5861
  522MOL0     C68797   2.448   8.794   2.940 -0.4720 -0.8202  0.3327
  522MOL0     C68798   2.537   8.897   2.987  1.2245  0.8849 -0.2284
  522MOL0     C68799   2.676   8.894   2.977  0.0531 -0.0537  0.9786
  522MOL0     C68800   2.730   8.785   2.902  0.2370 -0.1558  0.8901
  522MOL0     C68801   2.879   8.780   2.881 -0.6740  0.3191 -0.6651
  522MOL0     O68802   2.963   8.880   2.928 -0.2213 -0.6956  0.1785
  522MOL0     C68803   3.089   8.867   2.896 -0.1115 -0.1060  0.4770
  522MOL0     C68804   3.145   8.899   2.770  1.1299  0.8123  0.8541
  522MOL0     C68805   3.284   8.891   2.746  0.4364 -0.3224 -0.1288
  522MOL0     C68806   3.379   8.873   2.854  0.3217  0.4786 -0.7067
  522MOL0     O68807   3.513   8.895   2.838  0.3083  0.1593 -0.3981
  522MOL0     C68808   3.606   8.907   2.948 -0.4677 -0.2473  0.3480
  522MOL0     C68809   3.748   8.944   2.890 -0.4162 -0.4715 -0.4897
  522MOL0     C68810   3.847   8.837   2.845 -0.4414  0.1081 -0.3201
  522MOL0     C68811   3.779   8.729   2.741  1.4266 -0.6095  0.6156
  522MOL0     C68812   3.887   8.661   2.655  0.1273  0.7548  0.7324
  522MOL0     C68813   3.923   8.530   2.721 -0.7655  0.1500  0.1505
  522MOL0     C68814   4.040   8.453   2.657 -0.0041  0.2226 -0.0083
  522MOL0     C68815   4.107   8.369   2.748 -0.5634 -0.2924 -0.4754
  522MOL0    Cl68816   4.189   8.448   2.882  0.1462 -0.3460 -0.2084
  522MOL0     C68817   3.313   8.828   2.972 -0.8135 -0.9999 -0.6565
  522MOL0     C68818   3.174   8.819   2.989 -1.0366 -0.2013 -0.4538
  522MOL0     O68819   2.917   8.672   2.828 -0.5565 -0.2713  0.2463
  522MOL0     C68820   2.643   8.687   2.857 -0.0626 -0.3909  1.0165
  522MOL0     C68821   2.501   8.688   2.880 -0.3238  0.3105 -0.2556
  522MOL0     N68822   2.235   9.299   2.945  0.2531  0.7372 -0.3194
  522MOL0     N68823   2.344   9.341   2.886  0.5015  0.3066  0.6176
  522MOL0     C68824   3.685   9.377   2.639 -1.8917 -0.1642  0.2931
  522MOL0     C68825   3.819   9.375   2.689  0.2236 -0.2837 -0.3586
  522MOL0     C68826   4.202   9.246   2.886 -0.3452 -0.1531 -0.0261
  522MOL0     C68827   4.203   9.118   2.953 -0.0401  0.6685  0.7159
  522MOL0     C68828   4.319   9.066   2.997  0.3846 -0.5438  0.6815
  522MOL0     C68829   4.445   9.126   2.996  0.0431  0.5181 -0.1180
  522MOL0     O68830   4.543   9.057   3.059 -0.1371 -0.0003  0.8376
  522MOL0     C68831   4.672   9.121   3.079  0.0782  0.5649  0.8456
  522MOL0     C68832   4.765   9.041   3.168 -0.0042 -0.1843 -0.0450
  522MOL0     C68833   4.805   8.912   3.089  0.4327  0.0234 -0.0889
  522MOL0     C68834   4.878   8.815   3.178  0.3104 -0.4849 -0.5545
  522MOL0     C68835   5.018   8.855   3.173 -0.0577  1.0016  0.2748
  522MOL0     C68836   5.139   8.890   3.163  0.6110  0.1198 -0.4250
  522MOL0     C68837   4.454   9.244   2.916 -0.1223  0.0696 -0.0206
  522MOL0     C68838   4.336   9.295   2.860 -1.4947  0.4756 -1.1142
  522MOL0     H68839   3.751   9.236   2.999  2.5297 -1.0714 -1.1237
  522MOL0     H68840   3.533   9.278   2.924  0.9056  2.1902  2.7380
  522MOL0     H68841   3.315   9.396   2.847  2.4196 -0.0305  0.4316
  522MOL0     H68842   3.346   9.225   2.804  1.7404 -0.6901 -1.1931
  522MOL0     H68843   3.231   9.258   2.592  0.6748  0.3686  0.2126
  522MOL0     H68844   3.187   9.425   2.626  1.1251  0.1650 -0.0818
  522MOL0     H68845   3.069   9.345   2.829  1.7957  1.6859 -0.5122
  522MOL0     H68846   3.129   9.177   2.803 -0.3799  0.3779 -0.0269
  522MOL0     H68847   2.949   9.306   2.604 -0.4187  1.4178  2.4441
  522MOL0     H68848   3.009   9.145   2.597 -2.7213 -1.4890 -0.6621
  522MOL0     H68849   2.844   9.199   2.844  0.1198  0.1846  0.1694
  522MOL0     H68850   2.839   9.072   2.724  1.8527 -0.0055 -1.4326
  522MOL0     H68851   2.712   9.267   2.579 -1.6423  0.4877  0.4808
  522MOL0     H68852   2.720   9.359   2.724  1.9490  0.5002  0.5107
  522MOL0     H68853   2.587   9.092   2.681  2.2358 -0.2137  2.0042
  522MOL0     H68854   2.583   9.173   2.827 -0.7633  0.8016 -0.3808
  522MOL0     H68855   2.442   9.237   2.570 -0.3995 -2.5358  1.3477
  522MOL0     H68856   2.504   9.386   2.638  2.7249 -1.2139  1.6737
  522MOL0     H68857   2.212   9.152   2.658 -2.6201  1.0767  1.2745
  522MOL0     H68858   1.972   9.192   2.836  0.0107 -0.3150  0.4181
  522MOL0     H68859   2.026   9.182   3.010  3.0063  1.1476  0.4109
  522MOL0     H68860   2.112   8.985   2.807  2.8604  4.6217  1.6295
  522MOL0     H68861   1.941   8.968   2.879 -0.3580 -0.1705  3.3881
  522MOL0     H68862   2.069   8.957   3.108 -0.3440  0.6543 -1.0947
  522MOL0     H68863   2.068   8.812   2.999 -2.6839  1.0951  0.7849
  522MOL0     H68864   2.287   8.920   3.134 -0.4965  1.0100 -0.0411
  522MOL0     H68865   2.296   9.015   2.992 -2.1021  0.9017 -0.3371
  522MOL0     H68866   2.500   8.982   3.045 -1.9201  1.5177 -2.8713
  522MOL0     H68867   2.718   8.986   3.017 -0.3981  1.1247 -1.0961
  522MOL0     H68868   3.081   8.916   2.684  0.1407 -1.0730  1.1698
  522MOL0     H68869   3.323   8.903   2.646 -1.2230  1.1904 -0.6453
  522MOL0     H68870   3.627   8.808   2.990  0.4896 -0.0018  0.4704
  522MOL0     H68871   3.571   8.984   3.017 -0.4312  1.5578 -1.5633
  522MOL0     H68872   3.803   9.003   2.964 -0.3467 -1.1125 -0.0312
  522MOL0     H68873   3.733   9.009   2.803  3.2580 -0.9114 -1.6317
  522MOL0     H68874   3.878   8.776   2.930 -1.7338  1.1188  0.9259
  522MOL0     H68875   3.937   8.887   2.807 -0.0147 -0.5664 -0.2243
  522MOL0     H68876   3.716   8.656   2.793 -1.6972  1.4053 -0.0815
  522MOL0     H68877   3.717   8.786   2.671  1.4292  1.2032  2.0103
  522MOL0     H68878   3.979   8.721   2.656  1.2704 -0.8703 -0.8326
  522MOL0     H68879   3.848   8.646   2.554 -1.2572  2.5468  0.9488
  522MOL0     H68880   3.835   8.465   2.723 -1.8097  1.5155  0.1926
  522MOL0     H68881   3.954   8.551   2.824 -1.2014  1.4127  0.0435
  522MOL0     H68882   3.999   8.395   2.574 -0.2043  2.4896 -1.5691
  522MOL0     H68883   4.117   8.510   2.605  2.0291 -2.0230  0.3567
  522MOL0     H68884   4.172   8.308   2.684 -0.8273 -0.1643 -0.8632
  522MOL0     H68885   4.038   8.293   2.787  1.6069 -1.2891  1.6702
  522MOL0     H68886   3.394   8.809   3.042 -0.6472  1.5737 -0.0492
  522MOL0     H68887   3.133   8.784   3.084 -1.3257 -1.3710 -0.9980
  522MOL0     H68888   2.675   8.595   2.810  0.5893  0.2816  0.1007
  522MOL0     H68889   2.433   8.611   2.845 -0.1494  0.6018 -1.2723
  522MOL0     H68890   3.666   9.411   2.538  0.0596 -2.3267 -0.9212
  522MOL0     H68891   3.901   9.403   2.624 -1.5463  0.2745 -2.4694
  522MOL0     H68892   4.105   9.072   2.966  0.0664  0.1746 -0.1606
  522MOL0     H68893   4.299   8.974   3.050 -2.5086 -3.3897 -4.5133
  522MOL0     H68894   4.661   9.218   3.128 -0.4460  2.0107 -1.9581
  522MOL0     H68895   4.712   9.147   2.981  0.6812 -0.5387  0.7810
  522MOL0     H68896   4.856   9.097   3.190  2.2084 -2.2818 -3.0896
  522MOL0     H68897   4.713   9.015   3.261 -2.0205 -0.0878 -1.0867
  522MOL0     H68898   4.844   8.941   2.991 -3.0439  0.6154 -1.4400
  522MOL0     H68899   4.715   8.856   3.059  0.7466 -0.8011  0.4613
  522MOL0     H68900   4.851   8.804   3.283  1.5314  1.2739 -0.0019
  522MOL0     H68901   4.859   8.720   3.128 -0.2300  0.6020 -2.5633
  522MOL0     H68902   5.242   8.920   3.153  0.5916 -0.0581 -1.2745
  522MOL0     H68903   4.550   9.293   2.899 -0.6188  1.3579  0.8689
  522MOL0     H68904   4.354   9.392   2.816  0.5058  1.5928  1.8003
  523MOL0     O68905   1.005   8.475   5.191  0.6915 -0.6505  0.0580
  523MOL0     C68906   0.915   8.547   5.239  0.0399  0.2629 -0.3637
  523MOL0     O68907   0.784   8.545   5.200  0.0102 -0.1431  0.5026
  523MOL0     C68908   0.750   8.430   5.131  0.3584 -0.6715  0.8365
  523MOL0     C68909   0.760   8.434   4.989  0.8174 -0.5167 -0.3673
  523MOL0     C68910   0.736   8.309   4.920  0.1492 -0.0111 -0.6669
  523MOL0     C68911   0.705   8.194   4.984  0.0068 -0.0028  0.5844
  523MOL0     O68912   0.675   8.093   4.896  0.3056 -0.1191 -0.3829
  523MOL0     C68913   0.557   8.013   4.926  0.0295  1.1358  0.0523
  523MOL0     C68914   0.521   7.924   4.815 -0.5088 -0.8761  0.2046
  523MOL0     C68915   0.381   7.869   4.821  0.5841  0.7066 -0.6680
  523MOL0     C68916   0.354   7.769   4.706 -0.1030  0.2557 -0.3749
  523MOL0     C68917   0.209   7.758   4.646  0.3499  0.6591 -0.4460
  523MOL0     C68918   0.105   7.686   4.739 -0.6491  0.0167 -0.3019
  523MOL0     C68919  -0.042   7.704   4.676  0.7144  0.3741  0.2953
  523MOL0     C68920  -0.103   7.843   4.703 -0.8538  0.5541 -0.2913
  523MOL0     N68921  -0.250   7.827   4.722 -0.0883 -0.1813  0.0768
  523MOL0     C68922  -0.345   7.821   4.622  0.5487  0.8207 -1.1511
  523MOL0     C68923  -0.465   7.839   4.677 -0.6586 -0.0674 -1.1566
  523MOL0     C68924  -0.589   7.839   4.592 -0.5229  0.1310  0.0115
  523MOL0     C68925  -0.702   7.758   4.645  0.0976  0.2810 -0.5743
  523MOL0     C68926  -0.663   7.610   4.649 -0.2442 -0.7575 -0.2233
  523MOL0     C68927  -0.638   7.533   4.516  0.4067 -0.0110 -0.4198
  523MOL0     O68928  -0.756   7.541   4.428  0.7763  0.6154 -0.1272
  523MOL0     C68929  -0.852   7.450   4.436 -0.0886 -0.3843  0.9310
  523MOL0     C68930  -0.957   7.456   4.348  0.6995  0.7995 -0.2604
  523MOL0     C68931  -1.069   7.375   4.367  0.2982 -0.0764 -0.2888
  523MOL0     C68932  -1.074   7.276   4.464  0.4731  0.0075 -0.5934
  523MOL0     C68933  -1.181   7.189   4.494 -0.3061  0.2594 -0.3078
  523MOL0     O68934  -1.183   7.123   4.624 -0.2597  1.1347  0.7801
  523MOL0     C68935  -1.297   7.064   4.667 -0.3190  0.0797 -0.0761
  523MOL0     C68936  -1.431   7.100   4.642  0.4099 -0.2858 -0.3102
  523MOL0     C68937  -1.539   7.023   4.679 -0.6316  0.4003 -0.1705
  523MOL0     C68938  -1.511   6.916   4.767 -0.3584  0.1401  0.4912
  523MOL0     O68939  -1.611   6.833   4.811 -0.7813  0.2247  0.2594
  523MOL0     C68940  -1.752   6.845   4.766  0.4580 -0.1955 -0.3392
  523MOL0     C68941  -1.835   6.964   4.833  0.1433  0.4190  0.5393
  523MOL0     C68942  -1.983   6.927   4.822 -0.3232  0.2009 -0.4373
  523MOL0     C68943  -2.037   6.906   4.676 -0.1471 -0.3749  0.0251
  523MOL0     C68944  -2.189   6.885   4.680 -0.8500  0.8638  0.7058
  523MOL0     C68945  -2.235   6.768   4.772  0.0803  0.0792  1.3409
  523MOL0     C68946  -2.388   6.744   4.733  0.8288 -0.3913  0.3177
  523MOL0     C68947  -2.404   6.690   4.591  0.8321 -0.1603  0.3200
  523MOL0    Cl68948  -2.559   6.603   4.584  0.2044 -0.3240 -0.3453
  523MOL0     C68949  -1.383   6.902   4.818  0.0337  0.5275  0.2981
  523MOL0     C68950  -1.279   6.975   4.773  0.1595  1.1195 -0.0489
  523MOL0     O68951  -1.265   7.177   4.416  0.1726  0.0480  0.8754
  523MOL0     C68952  -0.970   7.271   4.555  0.2735  0.1343  0.2349
  523MOL0     C68953  -0.859   7.355   4.545  0.2559 -0.3924  0.7263
  523MOL0     N68954  -0.443   7.860   4.820 -0.3939  0.3238  0.0197
  523MOL0     N68955  -0.314   7.843   4.843  0.8014  0.6364 -0.0499
  523MOL0     C68956   0.691   8.189   5.119 -0.3267 -0.4410 -0.7350
  523MOL0     C68957   0.710   8.308   5.195 -0.2474 -0.3839  0.1717
  523MOL0     C68958   0.949   8.634   5.359 -0.5933 -0.0574 -0.1075
  523MOL0     C68959   1.081   8.628   5.401  0.7952  0.8796 -0.4137
  523MOL0     C68960   1.113   8.690   5.524 -0.3782  0.4235  0.3838
  523MOL0     C68961   1.015   8.750   5.606  0.5718  0.3351  0.1028
  523MOL0     O68962   1.041   8.803   5.730  0.0197  0.1402 -0.0370
  523MOL0     C68963   1.042   8.947   5.727  0.1572 -0.6015  0.0091
  523MOL0     C68964   1.155   8.999   5.817  0.2680  0.2043  0.4879
  523MOL0     C68965   1.294   8.930   5.809 -0.3131  0.3717  0.3209
  523MOL0     C68966   1.375   8.980   5.696 -0.9944  0.3818  1.1214
  523MOL0     C68967   1.480   8.890   5.647  0.6239  0.6719 -0.3366
  523MOL0     C68968   1.578   8.820   5.620 -0.6626 -0.0557 -0.9567
  523MOL0     C68969   0.883   8.762   5.562 -0.1627  1.0968  0.7218
  523MOL0     C68970   0.850   8.700   5.437  0.4059 -0.8044 -0.0586
  523MOL0     H68971   0.782   8.530   4.942  1.7916 -0.5889 -0.0771
  523MOL0     H68972   0.732   8.296   4.813 -1.8167  1.0392 -0.7567
  523MOL0     H68973   0.477   8.086   4.940  0.6768  1.5102  2.1115
  523MOL0     H68974   0.588   7.965   5.020  0.0937  0.2446 -0.4135
  523MOL0     H68975   0.583   7.834   4.814 -0.7640 -1.0557  0.2765
  523MOL0     H68976   0.531   7.976   4.720 -1.3163  0.0689  0.6118
  523MOL0     H68977   0.309   7.952   4.822 -2.3308 -1.6052  1.7041
  523MOL0     H68978   0.362   7.823   4.918  0.4071  1.4712 -0.3262
  523MOL0     H68979   0.420   7.796   4.623 -0.0262 -0.1044 -0.4339
  523MOL0     H68980   0.399   7.672   4.730  3.3720  1.9305  0.5375
  523MOL0     H68981   0.226   7.708   4.550  2.1056 -0.0527  0.1943
  523MOL0     H68982   0.180   7.863   4.634 -0.8357  0.0521 -5.2225
  523MOL0     H68983   0.116   7.733   4.837  2.0917 -0.6533 -0.1951
  523MOL0     H68984   0.130   7.581   4.754 -1.4555 -0.1738 -0.2322
  523MOL0     H68985  -0.034   7.679   4.570 -0.2579 -0.3872  0.3775
  523MOL0     H68986  -0.114   7.632   4.718  1.3344  0.8358  2.2655
  523MOL0     H68987  -0.087   7.914   4.621  0.5009  0.4763 -0.1198
  523MOL0     H68988  -0.063   7.889   4.794 -2.1005  0.3213  0.3927
  523MOL0     H68989  -0.331   7.809   4.515  0.7169  1.8025 -1.2512
  523MOL0     H68990  -0.561   7.795   4.496  0.1724 -4.7640  2.1913
  523MOL0     H68991  -0.627   7.941   4.581 -0.5452  0.0318 -0.9224
  523MOL0     H68992  -0.787   7.775   4.578 -0.2469 -0.8318 -0.4325
  523MOL0     H68993  -0.733   7.790   4.745 -1.0444 -1.0314 -0.4725
  523MOL0     H68994  -0.573   7.623   4.709 -0.1779  2.0147 -0.7519
  523MOL0     H68995  -0.718   7.548   4.720  0.9224 -1.7686 -0.1667
  523MOL0     H68996  -0.620   7.426   4.529  0.2536 -0.1268 -1.0973
  523MOL0     H68997  -0.545   7.576   4.478  0.2950  2.4467  1.7635
  523MOL0     H68998  -0.957   7.531   4.270  3.2687  0.5455 -0.5965
  523MOL0     H68999  -1.152   7.376   4.298  0.1444 -0.7330 -0.1253
  523MOL0     H69000  -1.452   7.184   4.577 -2.2886  1.3378  2.4270
  523MOL0     H69001  -1.629   7.055   4.627  0.5739  0.3115 -2.4120
  523MOL0     H69002  -1.792   6.751   4.805 -1.2891  0.2082 -1.0715
  523MOL0     H69003  -1.766   6.842   4.658 -1.0695  0.4370 -0.1917
  523MOL0     H69004  -1.819   7.062   4.785  1.6764  1.3784  2.8133
  523MOL0     H69005  -1.817   6.965   4.941  0.9567 -3.2624  0.5504
  523MOL0     H69006  -2.038   7.010   4.868 -0.5595  0.9474 -1.9942
  523MOL0     H69007  -1.988   6.838   4.885 -0.8742  1.5592  1.5415
  523MOL0     H69008  -2.015   6.991   4.611 -1.4722  1.1667  1.5091
  523MOL0     H69009  -1.996   6.817   4.627 -0.3874  1.6301 -4.3151
  523MOL0     H69010  -2.204   6.872   4.573 -3.2293  0.1927  1.0792
  523MOL0     H69011  -2.236   6.977   4.715 -3.1532  0.1855 -0.4265
  523MOL0     H69012  -2.235   6.804   4.876 -2.6537 -0.9147  1.7816
  523MOL0     H69013  -2.176   6.678   4.755 -1.1002 -0.7217  1.3722
  523MOL0     H69014  -2.431   6.665   4.797  1.1505 -1.5593 -0.8622
  523MOL0     H69015  -2.450   6.833   4.742 -0.5192 -1.2390 -0.2614
  523MOL0     H69016  -2.326   6.623   4.555  0.1103  0.2405 -2.1810
  523MOL0     H69017  -2.406   6.777   4.524 -0.0908 -1.2467 -1.1113
  523MOL0     H69018  -1.369   6.827   4.896 -0.2701  0.5593  0.3830
  523MOL0     H69019  -1.185   6.942   4.816 -0.5583 -2.7504 -1.0114
  523MOL0     H69020  -0.965   7.190   4.628  0.7034 -0.4554 -0.4327
  523MOL0     H69021  -0.774   7.341   4.612  1.5625  1.6383 -0.4070
  523MOL0     H69022   0.665   8.104   5.182  0.7059  0.5521  1.1043
  523MOL0     H69023   0.709   8.310   5.303  1.5328 -0.0731  0.2091
  523MOL0     H69024   1.154   8.563   5.355 -2.0075 -1.9642 -1.1470
  523MOL0     H69025   1.213   8.678   5.565 -0.5856 -1.6455  0.3951
  523MOL0     H69026   0.942   8.983   5.750  0.5771  0.5286  0.1506
  523MOL0     H69027   1.066   8.989   5.628 -2.1513  3.2784  0.9127
  523MOL0     H69028   1.178   9.105   5.808  0.5200  0.0968 -0.1368
  523MOL0     H69029   1.118   8.983   5.919  2.3621 -3.9683  0.8084
  523MOL0     H69030   1.278   8.823   5.793 -1.6172  0.4181  1.2063
  523MOL0     H69031   1.334   8.960   5.906  2.5072  2.0753 -1.2256
  523MOL0     H69032   1.302   8.988   5.615  1.5998  1.1371 -1.3098
  523MOL0     H69033   1.402   9.084   5.714 -2.9115  0.5723  3.3445
  523MOL0     H69034   1.676   8.781   5.600  0.6220  1.7875  1.1844
  523MOL0     H69035   0.803   8.808   5.619 -2.0097 -0.4541 -0.4913
  523MOL0     H69036   0.748   8.709   5.401  0.1857 -0.8998  0.5469
  524MOL0     O69037   5.802   7.260   6.174  0.1798 -0.1918  0.3395
  524MOL0     C69038   5.866   7.356   6.128  0.9266 -0.2728 -0.8709
  524MOL0     O69039   5.833   7.482   6.132  0.3469 -0.3026 -0.4813
  524MOL0     C69040   5.702   7.532   6.162 -0.6217  0.4837 -0.7786
  524MOL0     C69041   5.653   7.644   6.096  0.6132 -0.0646 -0.4091
  524MOL0     C69042   5.518   7.694   6.116 -0.2905 -0.6433  0.6958
  524MOL0     C69043   5.427   7.625   6.194 -0.1880  1.2268 -0.0739
  524MOL0     O69044   5.296   7.669   6.198  0.0355 -0.7316 -0.4641
  524MOL0     C69045   5.187   7.585   6.232 -0.6379  0.0765  0.4622
  524MOL0     C69046   5.065   7.670   6.272  0.3062 -0.4794 -0.3348
  524MOL0     C69047   4.954   7.687   6.169 -0.2907  0.6447  0.0590
  524MOL0     C69048   4.848   7.775   6.231  0.4150  0.4022 -0.2380
  524MOL0     C69049   4.722   7.797   6.133 -0.6136 -0.1806  0.5664
  524MOL0     C69050   4.609   7.832   6.214 -0.1391 -0.8048  0.1864
  524MOL0     C69051   4.468   7.836   6.148 -0.3154 -0.4974  0.1137
  524MOL0     C69052   4.426   7.715   6.070  0.0880 -0.2442 -0.6930
  524MOL0     N69053   4.294   7.707   6.005 -0.8005  0.5832 -0.0192
  524MOL0     C69054   4.264   7.792   5.898  0.1539 -0.1490  1.0604
  524MOL0     C69055   4.140   7.754   5.864 -0.6101  0.2650 -0.3344
  524MOL0     C69056   4.056   7.820   5.758 -0.9423  0.1682  0.1697
  524MOL0     C69057   4.050   7.751   5.628 -0.2428 -0.1187  0.9784
  524MOL0     C69058   3.965   7.624   5.613 -0.1602 -0.0808  0.2384
  524MOL0     C69059   3.976   7.574   5.470 -0.5134  1.3402  0.8345
  524MOL0     O69060   3.954   7.427   5.461  0.4518 -1.4409 -0.6039
  524MOL0     C69061   3.836   7.381   5.511 -0.3938 -0.0730 -0.1608
  524MOL0     C69062   3.820   7.254   5.579  0.2189 -0.1683  0.3712
  524MOL0     C69063   3.686   7.216   5.626 -0.1508 -0.4655  0.1470
  524MOL0     C69064   3.576   7.281   5.586  0.3105  0.2898 -0.0752
  524MOL0     C69065   3.434   7.243   5.629 -0.4472  0.8152 -0.2223
  524MOL0     O69066   3.416   7.114   5.650 -0.0386 -0.1204 -0.0672
  524MOL0     C69067   3.295   7.065   5.692 -0.7426 -1.0315  0.4393
  524MOL0     C69068   3.172   7.091   5.625  0.3213  0.6592  0.2766
  524MOL0     C69069   3.053   7.026   5.649 -0.5441 -0.0753 -0.1171
  524MOL0     C69070   3.048   6.935   5.752 -0.1152 -0.4767  0.4945
  524MOL0     O69071   2.935   6.871   5.783  0.8134 -0.6324  0.3670
  524MOL0     C69072   2.856   6.950   5.866 -0.4596 -0.8134 -0.1360
  524MOL0     C69073   2.727   6.878   5.898  0.1795 -0.1083 -0.0460
  524MOL0     C69074   2.605   6.977   5.915  0.4896  0.9034  0.3767
  524MOL0     C69075   2.474   6.888   5.892  1.0952 -0.2816  0.1335
  524MOL0     C69076   2.347   6.971   5.883  0.1593  0.0189  0.2470
  524MOL0     C69077   2.220   6.899   5.845  0.3913 -0.7122 -0.4469
  524MOL0     C69078   2.104   6.989   5.868  0.9545 -0.7005  0.1049
  524MOL0     C69079   2.070   7.001   6.024 -1.0551  0.1353  0.2706
  524MOL0    Cl69080   1.960   7.133   6.028 -0.4221  0.0177  0.2674
  524MOL0     C69081   3.168   6.901   5.820  0.2131 -0.3794  0.7135
  524MOL0     C69082   3.288   6.962   5.789 -0.2289  0.0190  0.2303
  524MOL0     O69083   3.352   7.331   5.639  0.8910  0.5716 -0.0286
  524MOL0     C69084   3.593   7.405   5.524 -0.5507 -0.4963 -0.2542
  524MOL0     C69085   3.720   7.448   5.480 -0.0591 -0.3543 -0.0870
  524MOL0     N69086   4.100   7.657   5.956  0.8220  0.0914 -0.3828
  524MOL0     N69087   4.195   7.624   6.038 -0.3974  0.2060 -0.6389
  524MOL0     C69088   5.481   7.510   6.258  0.0586  0.5642  0.0958
  524MOL0     C69089   5.607   7.464   6.241  0.1713  0.0953  0.9888
  524MOL0     C69090   5.990   7.318   6.064 -0.0658  0.5351  0.7306
  524MOL0     C69091   6.095   7.413   6.061  0.2606  0.0240 -0.6201
  524MOL0     C69092   6.229   7.374   6.023  0.7376 -0.1117 -0.4029
  524MOL0     C69093   6.245   7.243   5.966  0.9255  0.7199 -1.0048
  524MOL0     O69094   6.370   7.210   5.911 -0.5115  0.3091  0.6398
  524MOL0     C69095   6.454   7.311   5.857 -0.9501  0.9352  1.4479
  524MOL0     C69096   6.542   7.225   5.752  0.3977  0.2407 -0.1719
  524MOL0     C69097   6.663   7.287   5.686  0.1412 -0.1898 -0.1019
  524MOL0     C69098   6.748   7.382   5.764  0.3381 -0.9331 -0.3031
  524MOL0     C69099   6.886   7.398   5.704  0.2099 -0.9419  0.5410
  524MOL0     C69100   7.000   7.409   5.669 -0.3082  0.3246 -0.4802
  524MOL0     C69101   6.134   7.155   5.958  0.3424  0.0086 -0.0103
  524MOL0     C69102   6.008   7.194   6.008  0.2525 -0.1448  0.6146
  524MOL0     H69103   5.721   7.701   6.033  2.6387  0.1275  1.8090
  524MOL0     H69104   5.472   7.778   6.065  1.8167 -0.3386 -0.8263
  524MOL0     H69105   5.199   7.529   6.325 -2.7775  4.0229  3.4117
  524MOL0     H69106   5.170   7.533   6.137  3.1489  2.5712 -1.8926
  524MOL0     H69107   5.093   7.771   6.304  0.6609 -0.0249 -1.9809
  524MOL0     H69108   5.019   7.617   6.357 -0.2085  0.4310 -0.0237
  524MOL0     H69109   4.909   7.591   6.142  0.2917  0.4588 -0.2906
  524MOL0     H69110   4.997   7.738   6.082  1.2238 -1.0386 -0.2458
  524MOL0     H69111   4.809   7.720   6.317 -2.7395  0.3135 -1.5988
  524MOL0     H69112   4.887   7.868   6.273  1.3955 -0.5510  1.0779
  524MOL0     H69113   4.696   7.702   6.084 -2.2573  1.4642 -1.9749
  524MOL0     H69114   4.743   7.873   6.058  2.0189 -1.3075  0.0455
  524MOL0     H69115   4.635   7.926   6.264 -0.8618 -0.8766  0.7128
  524MOL0     H69116   4.600   7.764   6.299 -0.2402  2.4228  3.0104
  524MOL0     H69117   4.397   7.857   6.229 -0.3362 -1.4741  0.3718
  524MOL0     H69118   4.471   7.928   6.089 -0.6123  0.9555  2.2428
  524MOL0     H69119   4.439   7.635   6.144  0.1807 -0.0737 -0.5234
  524MOL0     H69120   4.505   7.704   5.995 -0.2308 -0.8477 -0.9468
  524MOL0     H69121   4.335   7.864   5.857 -0.0271  1.0086  2.6895
  524MOL0     H69122   4.103   7.917   5.740  1.2009 -0.8050  0.2300
  524MOL0     H69123   3.960   7.843   5.805  1.1277  1.9753  3.9449
  524MOL0     H69124   4.153   7.714   5.620 -0.5244 -1.3394  2.4567
  524MOL0     H69125   4.035   7.822   5.546  1.2624  0.2750  0.9996
  524MOL0     H69126   3.991   7.547   5.685 -2.3573 -0.2453  0.9519
  524MOL0     H69127   3.858   7.645   5.623  0.3860  2.0783  2.6496
  524MOL0     H69128   4.079   7.578   5.434  0.4115 -1.7618  2.7316
  524MOL0     H69129   3.913   7.630   5.400  3.0961  1.0079 -3.0182
  524MOL0     H69130   3.908   7.202   5.616  0.7740 -1.7920 -2.8718
  524MOL0     H69131   3.687   7.133   5.696 -4.0294 -1.1195 -0.3693
  524MOL0     H69132   3.161   7.165   5.546  0.0628  2.5162  1.9717
  524MOL0     H69133   2.954   7.032   5.604 -2.1312 -0.3382  3.0258
  524MOL0     H69134   2.823   7.047   5.828  1.1842  0.2988  1.1139
  524MOL0     H69135   2.913   6.974   5.956 -0.9938 -1.3453  0.3545
  524MOL0     H69136   2.744   6.817   5.986  1.9689  1.5796  0.8449
  524MOL0     H69137   2.695   6.814   5.815 -0.1456  1.3132 -1.0796
  524MOL0     H69138   2.616   7.058   5.843  3.3402 -0.2696 -0.6085
  524MOL0     H69139   2.600   7.017   6.017 -2.3709  0.5254  0.4743
  524MOL0     H69140   2.476   6.834   5.797  0.1475 -0.6478  0.3018
  524MOL0     H69141   2.467   6.809   5.967  2.2936  2.4274  3.3260
  524MOL0     H69142   2.360   7.048   5.806 -0.5166  0.9030  0.9960
  524MOL0     H69143   2.346   7.027   5.977 -1.0841  0.3467  0.0592
  524MOL0     H69144   2.201   6.813   5.909  2.4184  0.0094  1.2643
  524MOL0     H69145   2.235   6.861   5.744  3.1855 -0.2459 -0.2919
  524MOL0     H69146   2.115   7.090   5.827  1.7278 -0.1451  1.6038
  524MOL0     H69147   2.019   6.941   5.818  1.2174 -2.4031  1.2068
  524MOL0     H69148   2.160   7.016   6.084  0.4860  1.0062 -2.0995
  524MOL0     H69149   2.024   6.905   6.049  0.5156 -0.8293 -0.4161
  524MOL0     H69150   3.162   6.827   5.899  0.7029 -1.2341 -0.0301
  524MOL0     H69151   3.375   6.926   5.844 -0.3203  2.3518  2.0967
  524MOL0     H69152   3.516   7.476   5.496  0.5458  1.9490  2.4280
  524MOL0     H69153   3.714   7.532   5.412  1.4395  0.5827  0.8996
  524MOL0     H69154   5.419   7.464   6.334  1.1543  3.4325  2.9541
  524MOL0     H69155   5.626   7.370   6.291 -0.2857 -1.4724 -1.6180
  524MOL0     H69156   6.067   7.511   6.099 -2.7985 -0.0410 -2.3342
  524MOL0     H69157   6.312   7.441   6.044  0.5158 -0.1640  0.6565
  524MOL0     H69158   6.526   7.367   5.918  2.0121  0.0155 -0.9802
  524MOL0     H69159   6.400   7.393   5.810 -0.0208  2.6169  3.1632
  524MOL0     H69160   6.579   7.133   5.796  0.4537  0.2182 -0.2647
  524MOL0     H69161   6.472   7.189   5.676  1.9408 -0.3555 -1.3503
  524MOL0     H69162   6.622   7.341   5.600 -0.8669  0.8319  0.9760
  524MOL0     H69163   6.728   7.208   5.646  3.5679  0.8729  2.7725
  524MOL0     H69164   6.700   7.480   5.770 -0.7053 -1.3030 -2.1116
  524MOL0     H69165   6.762   7.337   5.863  0.0197  1.2901  0.8127
  524MOL0     H69166   7.102   7.408   5.639 -0.4299 -3.0443 -1.2065
  524MOL0     H69167   6.147   7.055   5.917 -0.6071 -0.1827  0.1261
  524MOL0     H69168   5.920   7.131   5.998 -0.2212  0.6639 -0.4840
  525MOL0     O69169   7.254   4.019   7.188  0.4806 -0.0926  0.7210
  525MOL0     C69170   7.367   3.981   7.223 -0.1720 -1.0957  0.4716
  525MOL0     O69171   7.413   3.965   7.350 -0.0336 -0.4598 -0.3056
  525MOL0     C69172   7.347   4.025   7.450 -0.8543 -0.8204 -0.5739
  525MOL0     C69173   7.360   4.161   7.473 -0.2572 -0.7892 -0.6800
  525MOL0     C69174   7.287   4.230   7.572  0.2189  0.1631 -0.2569
  525MOL0     C69175   7.191   4.162   7.647  0.1416  1.1810 -0.1829
  525MOL0     O69176   7.110   4.222   7.743 -0.1123  0.3644 -0.5416
  525MOL0     C69177   7.132   4.364   7.764 -0.6935 -0.5951  0.4348
  525MOL0     C69178   7.050   4.424   7.879  0.1669  0.3254 -0.5248
  525MOL0     C69179   7.031   4.341   8.008 -0.2503 -0.0170 -0.1281
  525MOL0     C69180   6.957   4.423   8.122  0.0999 -1.1783 -0.3958
  525MOL0     C69181   6.908   4.345   8.246 -0.3949  0.1582  0.0689
  525MOL0     C69182   6.841   4.442   8.340  0.9135 -0.4555 -0.1226
  525MOL0     C69183   6.744   4.362   8.445  0.3829  0.2057 -1.0430
  525MOL0     C69184   6.665   4.459   8.531  1.2679  0.3248  0.8021
  525MOL0     N69185   6.591   4.385   8.630  0.1900  0.1046  0.3540
  525MOL0     C69186   6.507   4.286   8.593 -0.5625  0.7544 -0.9512
  525MOL0     C69187   6.474   4.232   8.711 -0.0272 -0.6029  0.2056
  525MOL0     C69188   6.384   4.117   8.733  0.5177  1.1138  0.6166
  525MOL0     C69189   6.461   3.988   8.728  1.1712 -0.4097 -0.7961
  525MOL0     C69190   6.382   3.859   8.760 -0.1403  0.2050  0.4751
  525MOL0     C69191   6.459   3.733   8.714 -0.1222 -0.4949 -0.2000
  525MOL0     O69192   6.408   3.616   8.789 -0.3198 -0.4225  0.1115
  525MOL0     C69193   6.478   3.568   8.904 -0.1729  0.2947 -0.0636
  525MOL0     C69194   6.423   3.461   8.971  0.1116  0.3254 -0.3506
  525MOL0     C69195   6.488   3.400   9.077 -0.0734 -0.9837  0.1056
  525MOL0     C69196   6.609   3.458   9.124  0.3892  0.0597  0.1217
  525MOL0     C69197   6.681   3.405   9.246  0.8014 -0.2730 -0.4648
  525MOL0     O69198   6.777   3.484   9.315  0.4868  0.1661 -0.7127
  525MOL0     C69199   6.799   3.462   9.456  0.7872 -0.6284 -0.0168
  525MOL0     C69200   6.789   3.573   9.536 -0.6803 -0.0351  0.1944
  525MOL0     C69201   6.797   3.562   9.675  0.2589 -0.0933 -0.7431
  525MOL0     C69202   6.826   3.436   9.739 -1.0755  0.8767  0.3749
  525MOL0     O69203   6.832   3.424   9.879  0.8295  0.5481  0.5057
  525MOL0     C69204   6.907   3.317   9.947 -0.2353 -0.4185  0.1943
  525MOL0     C69205   6.815   3.260  10.054 -1.2142  0.1601  0.4137
  525MOL0     C69206   6.728   3.144  10.003 -0.5645 -0.9227 -0.5440
  525MOL0     C69207   6.611   3.183   9.916 -0.6322 -0.3243  0.7561
  525MOL0     C69208   6.504   3.275   9.976 -0.2270  0.0516 -0.2436
  525MOL0     C69209   6.418   3.194  10.087 -0.6755 -0.3497  0.0835
  525MOL0     C69210   6.314   3.292  10.140  0.7524  0.8521 -0.5034
  525MOL0     C69211   6.224   3.230  10.249 -0.0074 -0.0230 -0.3589
  525MOL0    Cl69212   6.114   3.092  10.194 -0.0554 -0.1760  0.1254
  525MOL0     C69213   6.834   3.327   9.657  0.0966  0.2879  1.1078
  525MOL0     C69214   6.812   3.335   9.520 -0.5648  0.9120  0.1710
  525MOL0     O69215   6.642   3.295   9.291  0.1258 -0.1827 -0.9181
  525MOL0     C69216   6.656   3.575   9.062  0.0121  0.8884  0.1484
  525MOL0     C69217   6.594   3.632   8.953 -0.4791  0.2226 -0.7227
  525MOL0     N69218   6.525   4.309   8.817  0.1966  0.9721  0.3869
  525MOL0     N69219   6.592   4.407   8.763 -0.2184  0.5327  0.5163
  525MOL0     C69220   7.175   4.018   7.626  0.3496 -1.0792  0.2305
  525MOL0     C69221   7.255   3.955   7.532 -0.3685  0.1152  0.0006
  525MOL0     C69222   7.460   3.938   7.120 -0.4628  0.4820 -0.0466
  525MOL0     C69223   7.411   3.880   6.990  0.6522 -0.5309 -0.4296
  525MOL0     C69224   7.506   3.834   6.899 -0.7970 -0.8334 -0.9463
  525MOL0     C69225   7.639   3.845   6.922 -0.5246 -0.5662  1.3088
  525MOL0     O69226   7.740   3.820   6.830  0.1419  0.7245  0.5096
  525MOL0     C69227   7.727   3.747   6.709  0.2005 -0.7406 -0.7330
  525MOL0     C69228   7.710   3.854   6.602  0.1715 -1.3049  0.1228
  525MOL0     C69229   7.696   3.801   6.458 -0.3401  0.4244  0.0768
  525MOL0     C69230   7.817   3.720   6.404 -0.4868  0.0259 -0.2043
  525MOL0     C69231   7.938   3.804   6.379 -0.2231  0.4993  0.7146
  525MOL0     C69232   8.044   3.855   6.365 -0.6229  0.0995  0.5986
  525MOL0     C69233   7.690   3.898   7.044  0.3610 -0.5906  0.7689
  525MOL0     C69234   7.601   3.946   7.143  0.9544  0.2745  0.0151
  525MOL0     H69235   7.433   4.228   7.429 -0.9353  0.6336  0.3105
  525MOL0     H69236   7.316   4.332   7.598  0.1662  0.4352 -1.2275
  525MOL0     H69237   7.106   4.411   7.668  4.2791 -2.3576 -2.1147
  525MOL0     H69238   7.238   4.378   7.785  0.0164 -3.0448 -1.1449
  525MOL0     H69239   6.954   4.456   7.838  0.1202 -0.1510 -0.7906
  525MOL0     H69240   7.100   4.515   7.913  0.3559  0.9678 -2.4208
  525MOL0     H69241   7.128   4.307   8.045 -1.5971 -2.6268  1.2930
  525MOL0     H69242   6.973   4.248   8.003  0.2122 -0.5578  2.6982
  525MOL0     H69243   7.028   4.495   8.163  0.0523 -3.1057  3.5543
  525MOL0     H69244   6.875   4.481   8.078  0.8457  1.6688  1.6870
  525MOL0     H69245   6.983   4.292   8.305 -0.5052 -0.3941 -0.2874
  525MOL0     H69246   6.842   4.268   8.206 -1.7663  1.3017  0.0163
  525MOL0     H69247   6.782   4.519   8.289 -2.0615 -1.1628  1.9441
  525MOL0     H69248   6.914   4.489   8.407 -0.1622  3.1931 -1.2353
  525MOL0     H69249   6.677   4.303   8.382  2.4160 -1.0385 -2.1570
  525MOL0     H69250   6.800   4.295   8.510 -2.1802 -1.0859 -0.0278
  525MOL0     H69251   6.600   4.505   8.456  2.3971 -0.2760 -0.5927
  525MOL0     H69252   6.726   4.538   8.576  1.5201  0.2090  0.6650
  525MOL0     H69253   6.475   4.250   8.496  2.7514 -4.4996 -0.4894
  525MOL0     H69254   6.313   4.119   8.650 -0.7391  2.7756  1.6683
  525MOL0     H69255   6.335   4.129   8.830 -2.6139 -2.4674 -0.3186
  525MOL0     H69256   6.551   3.998   8.789  0.4919  2.8764 -0.1305
  525MOL0     H69257   6.504   3.982   8.627  0.5860  1.7875 -1.2255
  525MOL0     H69258   6.379   3.869   8.869  1.5455  1.9979  0.4033
  525MOL0     H69259   6.285   3.866   8.709  0.3704 -1.8233 -0.8616
  525MOL0     H69260   6.566   3.753   8.719 -0.1397  0.2358 -2.1172
  525MOL0     H69261   6.431   3.720   8.609  1.5052 -0.4916 -0.6531
  525MOL0     H69262   6.332   3.424   8.925  0.4171  0.2880 -0.9241
  525MOL0     H69263   6.447   3.310   9.122 -0.4243  0.2103  2.2705
  525MOL0     H69264   6.777   3.666   9.481 -3.5129  0.1444  0.9266
  525MOL0     H69265   6.794   3.646   9.743 -0.0416  0.3018 -1.2350
  525MOL0     H69266   6.989   3.363  10.003 -1.6307 -0.6080  2.5094
  525MOL0     H69267   6.957   3.239   9.888  6.0968  3.2923 -0.2667
  525MOL0     H69268   6.768   3.346  10.103 -0.3209  1.9041 -1.6484
  525MOL0     H69269   6.890   3.220  10.123 -0.1066 -1.0540 -1.4158
  525MOL0     H69270   6.686   3.090  10.088 -0.4156 -1.2203 -0.6569
  525MOL0     H69271   6.789   3.066   9.956  0.2583 -0.7136  0.1489
  525MOL0     H69272   6.656   3.223   9.824  3.1112 -2.8704  1.2711
  525MOL0     H69273   6.571   3.083   9.899  0.8742 -0.9325  0.6064
  525MOL0     H69274   6.441   3.310   9.893 -0.9092 -1.6380 -0.4985
  525MOL0     H69275   6.541   3.370  10.013 -1.0762 -0.1005  1.0436
  525MOL0     H69276   6.478   3.169  10.175 -0.5140 -0.9524 -0.1929
  525MOL0     H69277   6.365   3.105  10.051 -1.9203  0.3886  0.0464
  525MOL0     H69278   6.367   3.377  10.186  2.8288  2.0458 -4.6421
  525MOL0     H69279   6.248   3.335  10.064  1.2237 -0.3169 -1.6004
  525MOL0     H69280   6.155   3.308  10.284 -2.0747 -1.1611 -1.6676
  525MOL0     H69281   6.285   3.204  10.336  0.1921  0.8149 -0.2389
  525MOL0     H69282   6.845   3.226   9.694  0.3010  0.1954  0.7920
  525MOL0     H69283   6.808   3.258   9.444  1.0018 -0.0481  1.0083
  525MOL0     H69284   6.747   3.609   9.109  2.0502 -4.3742  0.7280
  525MOL0     H69285   6.629   3.727   8.914  1.3380 -1.1657 -2.7717
  525MOL0     H69286   7.101   3.963   7.684 -0.7629 -0.1296 -0.2389
  525MOL0     H69287   7.243   3.848   7.520 -0.0952  0.2003 -1.1344
  525MOL0     H69288   7.303   3.881   6.975  0.6100  0.4553 -0.1483
  525MOL0     H69289   7.472   3.795   6.803  2.0817  1.2733 -2.9936
  525MOL0     H69290   7.644   3.675   6.718 -0.1976 -0.4372 -1.8528
  525MOL0     H69291   7.823   3.697   6.694  0.5314  0.1892 -1.8227
  525MOL0     H69292   7.633   3.925   6.632  0.7105 -0.1486 -1.1229
  525MOL0     H69293   7.802   3.914   6.603 -0.4792 -0.2754 -0.3648
  525MOL0     H69294   7.696   3.882   6.384  3.1302 -1.3255 -2.1123
  525MOL0     H69295   7.605   3.741   6.463 -0.1275  0.2217  2.2969
  525MOL0     H69296   7.844   3.635   6.467 -0.7360 -0.8853 -1.2935
  525MOL0     H69297   7.784   3.684   6.306 -0.4835 -0.5719  0.0084
  525MOL0     H69298   8.148   3.875   6.349 -0.1536 -2.1357  0.5883
  525MOL0     H69299   7.795   3.899   7.072 -0.7111 -0.0419  5.8418
  525MOL0     H69300   7.639   3.976   7.240 -1.7337  4.4466 -0.0138
  526MOL0     O69301   1.944   3.005   1.499  0.6524  0.0355  0.4181
  526MOL0     C69302   1.964   2.917   1.582  0.7436 -0.1046  0.4962
  526MOL0     O69303   1.894   2.799   1.590 -0.6011  0.1080 -0.4936
  526MOL0     C69304   1.773   2.788   1.519  0.1474 -0.1554  0.7830
  526MOL0     C69305   1.655   2.761   1.594 -0.4344 -0.4507  0.5541
  526MOL0     C69306   1.535   2.747   1.538  0.6851  0.6482 -0.2259
  526MOL0     C69307   1.516   2.753   1.392  0.0925  0.2531 -0.9068
  526MOL0     O69308   1.392   2.713   1.342 -0.0956 -0.6525  0.8041
  526MOL0     C69309   1.398   2.593   1.263 -0.4868  0.2474  0.3067
  526MOL0     C69310   1.265   2.523   1.273 -0.1119  0.0520  0.0270
  526MOL0     C69311   1.181   2.584   1.159  0.2462  0.1770 -0.1997
  526MOL0     C69312   1.034   2.538   1.186  0.4702 -0.1754 -0.2157
  526MOL0     C69313   0.957   2.510   1.060 -0.3475  0.5004  0.4875
  526MOL0     C69314   0.807   2.466   1.093 -0.2769  0.5446 -0.3787
  526MOL0     C69315   0.793   2.323   1.140 -0.3776  0.0925 -0.3698
  526MOL0     C69316   0.657   2.290   1.184  1.1153  0.2519 -0.6778
  526MOL0     N69317   0.649   2.156   1.254 -0.2800 -0.6857  0.6135
  526MOL0     C69318   0.727   2.109   1.359  0.6916 -0.3979  0.2798
  526MOL0     C69319   0.665   1.987   1.394 -0.2195 -0.8072 -0.0138
  526MOL0     C69320   0.676   1.889   1.496 -0.3923  0.4614 -0.1135
  526MOL0     C69321   0.635   1.931   1.636  0.4216 -0.4242  0.1824
  526MOL0     C69322   0.496   1.986   1.653  0.5609 -0.4306  0.0195
  526MOL0     C69323   0.463   2.002   1.799 -0.2829 -0.4115  0.2503
  526MOL0     O69324   0.539   2.117   1.844 -0.1698  0.4549  0.2184
  526MOL0     C69325   0.528   2.154   1.979  0.0627  0.5226  0.9633
  526MOL0     C69326   0.438   2.093   2.070 -0.5705  0.4515 -0.4441
  526MOL0     C69327   0.438   2.125   2.205 -0.4317 -0.2248 -0.1651
  526MOL0     C69328   0.532   2.226   2.249 -0.0249 -0.4399 -0.6469
  526MOL0     C69329   0.539   2.249   2.394  0.6181 -0.4820  0.7636
  526MOL0     O69330   0.642   2.331   2.441 -0.6654 -0.4484 -0.4615
  526MOL0     C69331   0.625   2.349   2.574  0.7454 -0.1151 -0.1620
  526MOL0     C69332   0.674   2.261   2.675  0.6730 -0.3663  0.0769
  526MOL0     C69333   0.654   2.294   2.809  0.3883 -0.5280 -0.1522
  526MOL0     C69334   0.592   2.413   2.849 -0.2237 -0.9000  0.4410
  526MOL0     O69335   0.584   2.457   2.976  0.8942  0.4069 -0.0045
  526MOL0     C69336   0.626   2.365   3.076 -0.1490 -0.0253 -0.9262
  526MOL0     C69337   0.620   2.436   3.209  0.1463 -0.0173 -0.7275
  526MOL0     C69338   0.662   2.580   3.203  0.3298 -0.0347  0.1956
  526MOL0     C69339   0.688   2.656   3.337  0.5082 -0.4868 -0.5933
  526MOL0     C69340   0.694   2.806   3.300 -0.3102  0.4597  0.4904
  526MOL0     C69341   0.719   2.885   3.422  0.1567 -0.7112  0.3576
  526MOL0     C69342   0.732   3.037   3.376 -0.6579  0.9713  0.6070
  526MOL0     C69343   0.775   3.127   3.487  0.2704 -0.7306 -0.7998
  526MOL0    Cl69344   0.944   3.091   3.544 -0.0203 -0.5104 -0.3332
  526MOL0     C69345   0.548   2.506   2.758 -1.5408 -0.7878  1.4199
  526MOL0     C69346   0.561   2.476   2.618 -0.3707 -0.5248 -0.6431
  526MOL0     O69347   0.454   2.190   2.462  0.3279  0.7380 -0.1331
  526MOL0     C69348   0.616   2.289   2.156 -0.5897  0.5108  0.2471
  526MOL0     C69349   0.615   2.253   2.020  0.5186 -0.1835  0.0148
  526MOL0     N69350   0.564   1.963   1.302 -0.2585 -0.4217  0.3337
  526MOL0     N69351   0.559   2.061   1.215 -0.5377  0.3444  0.3544
  526MOL0     C69352   1.629   2.779   1.309 -0.4426  1.0780 -1.2202
  526MOL0     C69353   1.756   2.801   1.378  0.8722 -0.2695  0.2105
  526MOL0     C69354   2.093   2.945   1.654 -0.2434  0.3056  0.7467
  526MOL0     C69355   2.198   3.028   1.608 -0.6183 -0.1006 -0.8446
  526MOL0     C69356   2.313   3.042   1.685  0.5271 -0.5302  0.2178
  526MOL0     C69357   2.329   2.975   1.803 -0.9916  0.0502 -0.0344
  526MOL0     O69358   2.440   2.983   1.876  0.2992 -0.3851  0.2461
  526MOL0     C69359   2.492   2.883   1.949  0.2318  0.0431  0.3405
  526MOL0     C69360   2.616   2.920   2.031 -0.2145  0.1825 -0.1906
  526MOL0     C69361   2.731   2.981   1.944  0.5129  1.0081 -0.9303
  526MOL0     C69362   2.863   2.925   1.986  0.0877  0.5520 -0.6447
  526MOL0     C69363   2.973   2.943   1.888  0.0465  0.9213  1.1701
  526MOL0     C69364   3.066   2.945   1.807 -0.2802  0.2162 -0.5384
  526MOL0     C69365   2.227   2.884   1.841  0.0690 -0.2202  0.2084
  526MOL0     C69366   2.113   2.867   1.770  0.2744  0.3615 -0.1922
  526MOL0     H69367   1.675   2.749   1.700 -1.5693  1.5272  1.0533
  526MOL0     H69368   1.449   2.743   1.603  2.8168  1.3254  2.8533
  526MOL0     H69369   1.474   2.535   1.316 -0.7030  0.5608  0.9665
  526MOL0     H69370   1.434   2.610   1.160 -2.8651  0.5718 -0.5331
  526MOL0     H69371   1.213   2.524   1.370  0.3784 -2.0932  0.3488
  526MOL0     H69372   1.285   2.420   1.245  1.8702  0.7384 -1.3105
  526MOL0     H69373   1.205   2.545   1.060 -1.3913 -4.0076  0.8577
  526MOL0     H69374   1.194   2.692   1.148 -2.1575  0.5156 -0.1493
  526MOL0     H69375   1.024   2.452   1.254 -3.2030 -2.6257 -3.4276
  526MOL0     H69376   0.989   2.626   1.233  1.3189  1.0630 -1.6686
  526MOL0     H69377   1.014   2.434   1.005  1.2326  2.5501 -0.8732
  526MOL0     H69378   0.959   2.597   0.993  0.1673 -2.0453 -3.1544
  526MOL0     H69379   0.737   2.493   1.014 -0.5788  1.7066  0.2522
  526MOL0     H69380   0.775   2.528   1.177  0.0723  1.2708 -0.7651
  526MOL0     H69381   0.821   2.247   1.066  1.0369 -0.4226  0.6401
  526MOL0     H69382   0.870   2.306   1.216  0.1080 -1.8236 -1.2272
  526MOL0     H69383   0.590   2.315   1.100 -0.4231 -2.1429 -0.2639
  526MOL0     H69384   0.636   2.366   1.260  1.8471 -0.8546  0.6699
  526MOL0     H69385   0.802   2.169   1.409  0.9622 -1.2193  0.8694
  526MOL0     H69386   0.784   1.873   1.502 -0.3598  1.0275  1.4861
  526MOL0     H69387   0.627   1.795   1.472 -0.9914  0.2060  1.8770
  526MOL0     H69388   0.701   2.008   1.678  0.8394 -0.0681 -1.0893
  526MOL0     H69389   0.630   1.839   1.696 -3.8620  0.4294  1.5022
  526MOL0     H69390   0.484   2.091   1.625 -0.5155  0.3720  3.0875
  526MOL0     H69391   0.425   1.915   1.610 -1.1832  2.0790 -1.5456
  526MOL0     H69392   0.487   1.907   1.847 -0.1797 -1.6379 -2.1377
  526MOL0     H69393   0.356   2.024   1.803 -0.0470  1.9825 -3.0782
  526MOL0     H69394   0.377   2.007   2.043  0.2670 -0.3970  0.2570
  526MOL0     H69395   0.366   2.075   2.268  2.3119 -2.4874  1.4562
  526MOL0     H69396   0.715   2.167   2.638 -0.1323 -1.2459  1.3736
  526MOL0     H69397   0.700   2.220   2.874  0.2607 -0.7506 -0.3165
  526MOL0     H69398   0.726   2.326   3.055 -0.7384 -0.2742 -3.5880
  526MOL0     H69399   0.574   2.270   3.087  4.1816 -2.4263  1.3949
  526MOL0     H69400   0.703   2.396   3.267 -0.8287  2.5133  2.7402
  526MOL0     H69401   0.520   2.430   3.254  0.7095 -0.1639  0.5508
  526MOL0     H69402   0.572   2.625   3.160 -0.8273 -2.3425  0.0793
  526MOL0     H69403   0.752   2.594   3.143 -0.3746  0.5763 -0.7454
  526MOL0     H69404   0.611   2.632   3.411  0.3495  1.2381 -0.1582
  526MOL0     H69405   0.786   2.624   3.375  0.0861 -2.0591 -0.7566
  526MOL0     H69406   0.600   2.847   3.264 -1.2478 -1.7813  0.2153
  526MOL0     H69407   0.769   2.829   3.224  0.8037 -0.6659  1.2003
  526MOL0     H69408   0.811   2.842   3.464  0.0772 -0.9844  0.2507
  526MOL0     H69409   0.635   2.866   3.489  2.4453 -2.8937  2.8882
  526MOL0     H69410   0.803   3.035   3.293 -1.3005 -2.6420 -0.0078
  526MOL0     H69411   0.634   3.070   3.341  0.3515  0.7847 -2.7926
  526MOL0     H69412   0.712   3.102   3.573 -3.1872 -1.3346 -3.2953
  526MOL0     H69413   0.760   3.231   3.456 -4.0693 -1.2072 -0.8659
  526MOL0     H69414   0.508   2.598   2.799 -1.3334  1.3715 -2.7036
  526MOL0     H69415   0.526   2.549   2.546 -2.9341 -1.3578 -0.3485
  526MOL0     H69416   0.677   2.375   2.184 -2.5101  1.6149  1.2243
  526MOL0     H69417   0.689   2.303   1.959  1.3818 -1.1304  0.2561
  526MOL0     H69418   1.624   2.787   1.201  0.2961 -0.5327 -1.3907
  526MOL0     H69419   1.842   2.815   1.313 -0.0250 -2.7580 -1.6860
  526MOL0     H69420   2.204   3.084   1.515 -1.0585  2.6682  0.6800
  526MOL0     H69421   2.400   3.097   1.651  2.1402 -2.6344  0.7643
  526MOL0     H69422   2.517   2.795   1.889  0.5835 -0.9254  1.8754
  526MOL0     H69423   2.425   2.846   2.027  4.6364 -0.6755  4.2070
  526MOL0     H69424   2.581   2.997   2.100 -0.4385 -0.8588  0.8872
  526MOL0     H69425   2.637   2.832   2.092  0.0682 -1.4988 -2.5706
  526MOL0     H69426   2.733   3.090   1.948  1.4963  0.9802  1.8423
  526MOL0     H69427   2.706   2.945   1.844  0.4289 -0.5012 -0.4026
  526MOL0     H69428   2.895   2.976   2.077  0.4646  1.5090 -1.2857
  526MOL0     H69429   2.847   2.819   2.006 -0.3150  0.9566  1.4298
  526MOL0     H69430   3.159   2.941   1.754  0.9217  4.8846  0.7903
  526MOL0     H69431   2.244   2.818   1.926 -1.1960  0.9179  1.4011
  526MOL0     H69432   2.035   2.800   1.804  0.5605  0.0006 -0.2315
  527MOL0     O69433   4.821   3.325   8.163 -1.4591 -0.0798  0.5105
  527MOL0     C69434   4.837   3.202   8.140  0.0617 -0.5910  0.6683
  527MOL0     O69435   4.945   3.131   8.169  0.0205  0.5049  0.3327
  527MOL0     C69436   5.055   3.199   8.208 -0.6051 -0.0991 -0.0872
  527MOL0     C69437   5.103   3.151   8.325 -0.7900 -0.3832  0.2076
  527MOL0     C69438   5.227   3.202   8.369 -0.1460  0.4346 -0.7215
  527MOL0     C69439   5.295   3.292   8.291  0.2576  0.1234 -0.2716
  527MOL0     O69440   5.416   3.337   8.339 -0.3296 -0.1769 -0.2231
  527MOL0     C69441   5.512   3.385   8.241  0.0138 -0.0874 -1.0314
  527MOL0     C69442   5.652   3.346   8.295 -0.3327 -0.3022 -0.5471
  527MOL0     C69443   5.744   3.468   8.287  0.2908 -0.1739  0.6837
  527MOL0     C69444   5.873   3.435   8.357  0.5340  0.2461 -0.3881
  527MOL0     C69445   5.977   3.544   8.314  0.4326 -0.0187  0.8620
  527MOL0     C69446   5.960   3.668   8.407  0.8820  0.2208  0.1833
  527MOL0     C69447   6.096   3.743   8.428 -0.2187  0.1412  0.3678
  527MOL0     C69448   6.142   3.833   8.308  0.0298 -0.4346 -0.5182
  527MOL0     N69449   6.272   3.909   8.328  0.5445 -0.4970  0.0631
  527MOL0     C69450   6.402   3.867   8.333  0.9103  0.0673  0.1145
  527MOL0     C69451   6.479   3.975   8.333  0.2746 -0.2529  0.5729
  527MOL0     C69452   6.627   3.987   8.321 -0.0232 -0.3857  0.7613
  527MOL0     C69453   6.661   4.011   8.167  0.8834  0.3562  0.2499
  527MOL0     C69454   6.806   3.996   8.134  0.4052 -0.0526 -0.3240
  527MOL0     C69455   6.856   3.852   8.120 -0.5169 -0.8816  0.4044
  527MOL0     O69456   6.920   3.794   8.242 -0.1508  0.4158 -0.8697
  527MOL0     C69457   7.000   3.686   8.231 -1.0091  0.4551 -0.6099
  527MOL0     C69458   7.067   3.637   8.349  1.6607 -0.7182  0.1092
  527MOL0     C69459   7.168   3.541   8.343  0.2260  0.8221 -0.1558
  527MOL0     C69460   7.204   3.489   8.214 -0.0701  0.1830 -0.5655
  527MOL0     C69461   7.314   3.377   8.201  0.5085  0.6913  0.0503
  527MOL0     O69462   7.382   3.371   8.084  0.2596  0.1152 -0.1416
  527MOL0     C69463   7.482   3.280   8.071 -0.6735 -0.2759 -0.8020
  527MOL0     C69464   7.608   3.329   8.028 -0.9884 -0.4688  0.3610
  527MOL0     C69465   7.714   3.240   8.010 -0.6128  0.6655 -0.3196
  527MOL0     C69466   7.698   3.106   8.045  0.8644 -0.5278  0.2930
  527MOL0     O69467   7.810   3.032   8.033  0.1320 -0.2075  0.0241
  527MOL0     C69468   7.829   2.925   8.128  0.4594  0.4234  1.1989
  527MOL0     C69469   7.822   2.777   8.058  0.6276 -0.2199 -0.3292
  527MOL0     C69470   7.921   2.769   7.946 -0.6096  0.5466  0.3953
  527MOL0     C69471   7.924   2.632   7.876 -0.0205  0.0367  0.2808
  527MOL0     C69472   8.025   2.595   7.775 -0.1993  0.2428  0.5952
  527MOL0     C69473   8.054   2.702   7.670  0.0048 -0.6668  0.3210
  527MOL0     C69474   8.193   2.691   7.602 -0.5278  0.4709 -0.6782
  527MOL0     C69475   8.223   2.808   7.497  0.4873 -0.6805 -0.4538
  527MOL0    Cl69476   8.392   2.779   7.450 -0.4237 -0.5677  0.4260
  527MOL0     C69477   7.575   3.052   8.084 -0.0487 -0.2657  1.0573
  527MOL0     C69478   7.469   3.139   8.100  0.0845 -0.1165  1.0627
  527MOL0     O69479   7.344   3.312   8.295  0.0682  0.6184 -1.0944
  527MOL0     C69480   7.135   3.536   8.099 -0.3806  0.1923  0.3511
  527MOL0     C69481   7.032   3.632   8.103 -0.4871  0.1426 -0.5202
  527MOL0     N69482   6.393   4.085   8.330  0.7789 -0.0738 -0.4546
  527MOL0     N69483   6.270   4.047   8.337  0.1719 -0.3990  0.5664
  527MOL0     C69484   5.231   3.348   8.186  0.2347 -0.4897  0.2909
  527MOL0     C69485   5.109   3.309   8.144 -0.0943  0.1538  0.3158
  527MOL0     C69486   4.726   3.128   8.068  0.0786  0.6316 -0.1953
  527MOL0     C69487   4.737   3.005   8.006  0.5871 -0.5834  1.0083
  527MOL0     C69488   4.618   2.944   7.948 -0.8119 -0.1422 -0.4209
  527MOL0     C69489   4.502   3.014   7.933 -0.3370 -1.1435 -0.0870
  527MOL0     O69490   4.390   2.965   7.874  0.3141 -0.7496  0.1011
  527MOL0     C69491   4.371   2.827   7.864  0.8450 -0.0177 -0.3231
  527MOL0     C69492   4.341   2.750   8.001  0.9817 -0.0253 -0.5390
  527MOL0     C69493   4.261   2.622   7.982 -0.2531 -1.2536  0.0793
  527MOL0     C69494   4.107   2.640   7.960  0.2759  0.0726  0.2192
  527MOL0     C69495   4.033   2.512   7.911 -0.3555  0.1128 -0.7967
  527MOL0     C69496   3.980   2.410   7.872  0.5337  1.3735 -0.2048
  527MOL0     C69497   4.498   3.142   7.989  0.1380  0.0640  0.4999
  527MOL0     C69498   4.606   3.198   8.060 -0.7374  0.3219 -0.0257
  527MOL0     H69499   5.054   3.070   8.378 -1.6359  1.1266  1.8504
  527MOL0     H69500   5.269   3.158   8.459 -3.9844 -2.3026 -0.0371
  527MOL0     H69501   5.510   3.494   8.232 -2.2700 -0.0087 -0.1832
  527MOL0     H69502   5.495   3.346   8.140 -2.2936  1.7962 -1.4583
  527MOL0     H69503   5.683   3.253   8.246  0.4824 -0.0395 -0.5389
  527MOL0     H69504   5.635   3.311   8.397 -1.9699  0.2547 -0.6000
  527MOL0     H69505   5.702   3.560   8.328 -1.0707 -1.0421  1.3397
  527MOL0     H69506   5.774   3.488   8.183  0.7656 -1.0101  0.6514
  527MOL0     H69507   5.868   3.445   8.466  1.5538  3.4084 -0.5114
  527MOL0     H69508   5.899   3.332   8.332  2.0795  0.1817  1.2771
  527MOL0     H69509   5.966   3.578   8.210 -0.8385  1.3069  1.4048
  527MOL0     H69510   6.075   3.499   8.334  1.2461  1.0986 -0.4283
  527MOL0     H69511   5.930   3.637   8.508  0.0397 -1.1107 -0.4428
  527MOL0     H69512   5.880   3.740   8.390  1.3481  0.4844 -0.9986
  527MOL0     H69513   6.081   3.810   8.513 -2.1527  0.4032 -0.1399
  527MOL0     H69514   6.166   3.662   8.452  0.9770  0.4202 -1.9105
  527MOL0     H69515   6.066   3.910   8.294  0.4488  0.0280 -0.2974
  527MOL0     H69516   6.161   3.777   8.216  0.3862  0.5460 -1.0536
  527MOL0     H69517   6.434   3.764   8.338  0.6145 -0.3734 -3.8264
  527MOL0     H69518   6.681   3.902   8.363  1.9073 -0.4771 -1.6410
  527MOL0     H69519   6.662   4.072   8.379 -0.8429  1.4103 -1.2257
  527MOL0     H69520   6.636   4.112   8.135 -0.6814 -0.3560 -0.8617
  527MOL0     H69521   6.611   3.950   8.092 -1.4839  0.9668  1.2642
  527MOL0     H69522   6.819   4.040   8.035 -0.6717 -0.7865 -0.8127
  527MOL0     H69523   6.871   4.048   8.205 -0.5269  0.3030  0.2812
  527MOL0     H69524   6.930   3.860   8.039 -1.7495  0.0169 -0.6818
  527MOL0     H69525   6.771   3.791   8.088 -1.5094  0.8339 -0.3870
  527MOL0     H69526   7.050   3.686   8.445  0.0536  3.4338 -2.0249
  527MOL0     H69527   7.218   3.490   8.425 -1.9238 -0.3295  0.5217
  527MOL0     H69528   7.634   3.430   7.998  3.8571 -1.4032  0.5681
  527MOL0     H69529   7.814   3.269   7.978  1.1664 -1.3765  2.8958
  527MOL0     H69530   7.755   2.924   8.209 -1.7680  0.6196 -0.7115
  527MOL0     H69531   7.923   2.950   8.177  1.3318  0.6268 -0.5100
  527MOL0     H69532   7.722   2.758   8.015  1.4854  0.3670 -2.7468
  527MOL0     H69533   7.838   2.702   8.136 -1.0547  0.8096  1.0613
  527MOL0     H69534   8.016   2.775   8.001  0.2624 -2.3900 -0.6548
  527MOL0     H69535   7.908   2.857   7.882  3.3977 -0.2874 -1.8483
  527MOL0     H69536   7.937   2.570   7.966 -1.9904 -2.1685 -0.8302
  527MOL0     H69537   7.826   2.604   7.836 -1.1787  0.9530  2.3173
  527MOL0     H69538   7.996   2.500   7.730 -1.0214  1.6588 -2.0264
  527MOL0     H69539   8.119   2.571   7.826  0.8658  2.7896 -0.0220
  527MOL0     H69540   8.048   2.802   7.716 -0.3904  0.2833 -1.6821
  527MOL0     H69541   7.970   2.703   7.599  0.6198 -0.5408 -0.4225
  527MOL0     H69542   8.271   2.695   7.679 -0.1630 -1.3926 -0.8926
  527MOL0     H69543   8.200   2.594   7.552  0.0655  0.3173 -0.3103
  527MOL0     H69544   8.207   2.911   7.531 -3.2042 -0.9941 -0.7870
  527MOL0     H69545   8.154   2.790   7.414 -1.0297 -1.0339  0.8359
  527MOL0     H69546   7.554   2.946   8.100 -0.3739 -0.0490  2.1570
  527MOL0     H69547   7.368   3.105   8.122 -0.5617  0.6662 -0.5991
  527MOL0     H69548   7.155   3.492   8.002 -1.9860  1.1792 -0.4857
  527MOL0     H69549   6.965   3.657   8.022 -2.9083  1.2632  1.6658
  527MOL0     H69550   5.270   3.431   8.128  1.0624 -0.8499  0.3204
  527MOL0     H69551   5.056   3.348   8.058 -0.6682 -0.0012  0.5997
  527MOL0     H69552   4.828   2.947   8.006  0.4891 -0.7405  1.4539
  527MOL0     H69553   4.620   2.840   7.918 -1.0374 -1.3798  3.3544
  527MOL0     H69554   4.458   2.789   7.808  1.0830  1.6016 -1.1282
  527MOL0     H69555   4.282   2.812   7.802  2.0844 -3.0925 -1.5314
  527MOL0     H69556   4.437   2.740   8.051 -0.2751 -2.4252  1.6479
  527MOL0     H69557   4.279   2.803   8.074 -1.9218 -3.1519 -0.4875
  527MOL0     H69558   4.269   2.563   8.074 -1.6082 -1.0641  0.3374
  527MOL0     H69559   4.318   2.576   7.900  1.8223  1.7846 -0.3568
  527MOL0     H69560   4.064   2.677   8.054 -0.0169 -0.5064  0.3156
  527MOL0     H69561   4.085   2.712   7.881 -1.5140 -0.9376 -0.2573
  527MOL0     H69562   3.934   2.318   7.839  1.3620  0.4443  1.1596
  527MOL0     H69563   4.402   3.192   7.977 -1.1155 -2.6899 -2.0764
  527MOL0     H69564   4.594   3.297   8.102  0.8887  1.5889 -2.2865
  528MOL0     O69565   4.046   5.540   3.261 -0.4481 -0.1269  0.0169
  528MOL0     C69566   4.046   5.666   3.259 -0.0730 -0.1148 -0.0688
  528MOL0     O69567   3.944   5.745   3.301 -0.3960 -0.5562  0.1438
  528MOL0     C69568   3.850   5.688   3.372  0.7632 -0.2572 -0.9483
  528MOL0     C69569   3.860   5.582   3.472  0.5495 -0.6411 -0.1981
  528MOL0     C69570   3.744   5.529   3.537 -0.3187 -0.7483 -0.4383
  528MOL0     C69571   3.615   5.577   3.496  0.9945  0.3116 -0.5057
  528MOL0     O69572   3.497   5.533   3.556  0.2001 -0.1336 -0.4491
  528MOL0     C69573   3.465   5.393   3.535 -0.4703 -0.2356  0.7426
  528MOL0     C69574   3.348   5.374   3.628 -0.6035 -0.1937 -0.2404
  528MOL0     C69575   3.379   5.414   3.785 -0.1528  0.0621 -0.3001
  528MOL0     C69576   3.254   5.397   3.872  0.6433 -0.0069 -0.1302
  528MOL0     C69577   3.226   5.245   3.903 -0.2073  0.5704 -0.2441
  528MOL0     C69578   3.149   5.232   4.030 -0.2441 -1.0134 -0.3835
  528MOL0     C69579   3.231   5.261   4.162 -0.1901 -1.2148  0.3853
  528MOL0     C69580   3.136   5.280   4.282  0.0002  0.5074  0.2841
  528MOL0     N69581   3.042   5.173   4.306 -0.3150  0.7376 -0.3346
  528MOL0     C69582   2.910   5.180   4.271 -0.6246  0.2655  0.1078
  528MOL0     C69583   2.875   5.052   4.277 -0.4700  0.3359 -0.3252
  528MOL0     C69584   2.738   5.000   4.229 -0.7840 -0.1457 -1.3567
  528MOL0     C69585   2.619   5.037   4.316  0.1604  0.0950  0.3482
  528MOL0     C69586   2.603   4.977   4.454 -0.2253 -0.3313 -0.5677
  528MOL0     C69587   2.453   4.964   4.488  0.6151  0.9439 -0.3581
  528MOL0     O69588   2.443   4.930   4.630  0.0714 -0.4208 -0.0594
  528MOL0     C69589   2.316   4.887   4.670 -0.1574 -0.0022  0.2135
  528MOL0     C69590   2.299   4.877   4.804 -0.1803  0.0870  0.2770
  528MOL0     C69591   2.177   4.838   4.859  0.9274  0.3757 -1.2514
  528MOL0     C69592   2.073   4.799   4.778  0.0641  0.0637 -0.5208
  528MOL0     C69593   1.947   4.749   4.837 -0.6418 -0.7629  0.6714
  528MOL0     O69594   1.937   4.743   4.977  0.6412  0.8870  0.4419
  528MOL0     C69595   1.816   4.702   5.010  0.9289  1.0176  0.2457
  528MOL0     C69596   1.778   4.561   5.003  0.9159  0.3046 -0.3415
  528MOL0     C69597   1.651   4.529   5.050  0.1656 -0.4114  0.8997
  528MOL0     C69598   1.561   4.621   5.096 -0.2879  0.5370 -0.7829
  528MOL0     O69599   1.443   4.583   5.140 -0.3582  0.2747 -0.1480
  528MOL0     C69600   1.413   4.581   5.275  0.9438 -0.3971 -1.3239
  528MOL0     C69601   1.296   4.683   5.311  0.6974 -0.9298 -0.2476
  528MOL0     C69602   1.159   4.618   5.295  0.2558 -0.3491  0.6262
  528MOL0     C69603   1.036   4.706   5.331 -0.6525 -0.5498  0.4207
  528MOL0     C69604   0.899   4.654   5.277  0.3872 -0.2440  0.8361
  528MOL0     C69605   0.882   4.667   5.121  0.3376 -0.9306  0.3058
  528MOL0     C69606   0.752   4.599   5.087  0.2156 -0.1317 -0.5656
  528MOL0     C69607   0.726   4.572   4.938 -0.3113 -0.6882  0.2523
  528MOL0    Cl69608   0.755   4.730   4.859  0.2622 -0.3247 -0.5800
  528MOL0     C69609   1.595   4.754   5.104  0.4839  0.2070 -0.5530
  528MOL0     C69610   1.719   4.790   5.050 -0.3148  0.1287  0.2360
  528MOL0     O69611   1.858   4.720   4.756 -0.8687 -0.7070  0.1551
  528MOL0     C69612   2.088   4.814   4.636  0.1316 -1.1793 -0.4656
  528MOL0     C69613   2.214   4.849   4.579 -0.3213  0.1597 -0.2342
  528MOL0     N69614   2.975   4.976   4.319 -0.2507 -0.0713 -0.4742
  528MOL0     N69615   3.077   5.049   4.345  0.5435 -0.3002 -0.7418
  528MOL0     C69616   3.606   5.670   3.398 -0.1793 -0.8791  0.4520
  528MOL0     C69617   3.721   5.737   3.348  0.8164  0.4240  0.5183
  528MOL0     C69618   4.178   5.722   3.224  0.2102  0.0402 -0.1173
  528MOL0     C69619   4.209   5.851   3.263  0.2760  0.2945  0.7835
  528MOL0     C69620   4.325   5.914   3.205  0.3975 -0.3386  0.2260
  528MOL0     C69621   4.407   5.846   3.118  0.5038  0.7768  0.3168
  528MOL0     O69622   4.512   5.909   3.070 -0.0783  0.5749 -0.3326
  528MOL0     C69623   4.628   5.835   3.020 -1.1614 -0.4969  0.1501
  528MOL0     C69624   4.749   5.925   3.051 -0.4131  0.3150 -1.0913
  528MOL0     C69625   4.762   5.926   3.211 -0.6942 -0.0377  0.1887
  528MOL0     C69626   4.720   6.053   3.282  0.3095  0.0349 -1.0740
  528MOL0     C69627   4.828   6.143   3.275 -0.3294 -0.3774  0.2719
  528MOL0     C69628   4.917   6.224   3.256  0.4143 -0.2367 -0.1557
  528MOL0     C69629   4.373   5.714   3.078  0.2705  0.0210 -0.0255
  528MOL0     C69630   4.258   5.652   3.136  0.2386 -0.5275 -0.0564
  528MOL0     H69631   3.951   5.534   3.506  0.0903 -0.3641  1.4891
  528MOL0     H69632   3.759   5.452   3.612  1.8244 -0.7162 -0.7723
  528MOL0     H69633   3.561   5.348   3.564 -0.2240  0.2483  0.6901
  528MOL0     H69634   3.435   5.369   3.433 -0.3816  0.4925  0.5419
  528MOL0     H69635   3.331   5.266   3.621  1.1732 -0.4189 -1.8803
  528MOL0     H69636   3.254   5.408   3.585  0.8155  1.6116 -2.0935
  528MOL0     H69637   3.407   5.519   3.787  0.4581 -0.0901 -0.3974
  528MOL0     H69638   3.464   5.353   3.818 -0.8335 -1.4479 -1.2223
  528MOL0     H69639   3.289   5.452   3.961  3.2120 -0.8074 -0.5821
  528MOL0     H69640   3.166   5.443   3.826  0.9820 -1.0629 -1.9082
  528MOL0     H69641   3.319   5.190   3.915 -1.9587 -2.2214  1.6294
  528MOL0     H69642   3.174   5.194   3.822 -1.7191 -0.8216  1.5101
  528MOL0     H69643   3.100   5.135   4.025 -2.5835  0.0930 -0.5301
  528MOL0     H69644   3.068   5.305   4.029 -0.0875 -0.7795 -3.1033
  528MOL0     H69645   3.309   5.188   4.184  3.0974  0.9774 -2.7545
  528MOL0     H69646   3.284   5.357   4.151 -1.9163  0.0358  2.3024
  528MOL0     H69647   3.094   5.381   4.270  2.9227  1.8954  0.7035
  528MOL0     H69648   3.203   5.283   4.369 -1.5921 -0.5877  1.5931
  528MOL0     H69649   2.850   5.262   4.233 -0.5612 -0.5449 -1.8865
  528MOL0     H69650   2.743   4.895   4.201  2.3611 -0.4759  0.1120
  528MOL0     H69651   2.717   5.053   4.135  0.9193  1.1895 -1.0232
  528MOL0     H69652   2.528   5.002   4.265  0.4469  2.6509 -2.1377
  528MOL0     H69653   2.617   5.146   4.325  0.2161  0.0503  0.9597
  528MOL0     H69654   2.649   4.878   4.458 -4.1173 -2.2983 -0.0360
  528MOL0     H69655   2.645   5.048   4.526 -1.3712  1.5447 -1.6848
  528MOL0     H69656   2.403   4.900   4.415  5.3911 -1.7422 -1.7840
  528MOL0     H69657   2.400   5.060   4.490  0.1641  0.7139 -1.0359
  528MOL0     H69658   2.379   4.903   4.871 -1.4446  0.6013  1.6400
  528MOL0     H69659   2.172   4.827   4.967 -2.4558  1.9972 -1.1268
  528MOL0     H69660   1.857   4.497   4.965  0.2884 -0.2868 -0.6659
  528MOL0     H69661   1.625   4.424   5.045  1.0163 -0.5957  0.1225
  528MOL0     H69662   1.492   4.606   5.347 -0.3577 -0.2633  0.1249
  528MOL0     H69663   1.397   4.478   5.307  1.0513  0.3702  1.4467
  528MOL0     H69664   1.304   4.762   5.235 -1.0546  0.8878  1.3096
  528MOL0     H69665   1.310   4.723   5.412  1.2193 -0.6597 -0.4237
  528MOL0     H69666   1.154   4.521   5.345  0.2765 -1.3619 -1.2379
  528MOL0     H69667   1.165   4.600   5.187  3.8180 -0.8022  0.7736
  528MOL0     H69668   1.038   4.715   5.440  1.0840 -2.1462  0.5592
  528MOL0     H69669   1.056   4.809   5.298  1.7899 -1.5192 -1.4127
  528MOL0     H69670   0.821   4.717   5.321 -1.4387 -0.9509 -1.2014
  528MOL0     H69671   0.883   4.551   5.310  4.0209 -0.8520  1.0897
  528MOL0     H69672   0.963   4.627   5.060  0.3228  1.0489 -1.0937
  528MOL0     H69673   0.875   4.771   5.088  1.7571 -0.7231  0.6091
  528MOL0     H69674   0.764   4.497   5.125 -0.7697 -0.8434 -2.0609
  528MOL0     H69675   0.679   4.662   5.138  3.4733  2.9524  0.6520
  528MOL0     H69676   0.622   4.542   4.932  0.3928 -3.0654 -0.9894
  528MOL0     H69677   0.792   4.498   4.892 -1.2922 -3.2836  2.7335
  528MOL0     H69678   1.530   4.830   5.146  0.1440  0.2677 -1.1721
  528MOL0     H69679   1.740   4.896   5.061  4.1506 -0.5325 -0.4845
  528MOL0     H69680   2.008   4.789   4.567  2.8126 -3.8695 -2.8981
  528MOL0     H69681   2.218   4.842   4.470 -0.3159 -2.3037 -0.1255
  528MOL0     H69682   3.510   5.707   3.362 -0.1245 -1.5225 -0.3823
  528MOL0     H69683   3.730   5.817   3.275  3.4967  1.0736  1.4476
  528MOL0     H69684   4.156   5.906   3.340 -0.0119 -0.8429  1.4151
  528MOL0     H69685   4.337   6.021   3.218  2.7425 -0.4826 -0.2468
  528MOL0     H69686   4.618   5.822   2.911 -0.5710 -2.9668  0.3205
  528MOL0     H69687   4.643   5.736   3.065  0.0247 -0.9362 -1.1039
  528MOL0     H69688   4.835   5.865   3.022 -0.2065 -0.3114  0.7267
  528MOL0     H69689   4.749   6.024   3.004  0.9268  1.8096  1.8466
  528MOL0     H69690   4.863   5.897   3.242 -0.9634  0.9258  2.0829
  528MOL0     H69691   4.706   5.843   3.256 -0.9643 -1.3002 -2.2862
  528MOL0     H69692   4.628   6.082   3.230  2.5822  0.2367 -5.4619
  528MOL0     H69693   4.712   6.031   3.389  3.5483  0.1016 -0.7010
  528MOL0     H69694   5.012   6.273   3.266 -0.5269  1.2056  2.8323
  528MOL0     H69695   4.420   5.659   2.998  1.7265  3.1022 -1.4542
  528MOL0     H69696   4.230   5.550   3.113 -0.2000 -0.1537 -1.2608
  529MOL0     O69697   8.739   9.480   5.215 -0.2591  0.6019 -0.0918
  529MOL0     C69698   8.717   9.570   5.138  0.2211 -0.4236 -0.3373
  529MOL0     O69699   8.590   9.625   5.123 -0.4853 -0.5033 -0.5204
  529MOL0     C69700   8.482   9.567   5.179  1.1466  0.2094 -0.0659
  529MOL0     C69701   8.435   9.437   5.146  0.4133 -0.8571  1.1523
  529MOL0     C69702   8.321   9.383   5.200 -1.1319 -0.3711  1.2699
  529MOL0     C69703   8.241   9.462   5.279 -0.0394 -0.2814  0.6416
  529MOL0     O69704   8.129   9.409   5.339 -0.3298 -0.5045 -0.2553
  529MOL0     C69705   8.008   9.491   5.328 -0.3754  0.1159  0.7119
  529MOL0     C69706   7.883   9.407   5.362 -0.1084  0.1086 -0.2287
  529MOL0     C69707   7.889   9.360   5.509  0.5961  0.1454  0.2996
  529MOL0     C69708   7.752   9.317   5.566 -0.1278  0.0330 -0.1935
  529MOL0     C69709   7.705   9.185   5.508  0.5699 -0.4567  0.4125
  529MOL0     C69710   7.555   9.192   5.481 -0.2722 -0.5740  0.5855
  529MOL0     C69711   7.470   9.170   5.611 -0.4355 -0.6999 -0.2197
  529MOL0     C69712   7.512   9.041   5.679 -0.0119  0.3576  0.6281
  529MOL0     N69713   7.401   8.968   5.723 -0.4375 -0.7289  0.4226
  529MOL0     C69714   7.329   8.869   5.658 -1.1849  0.5629  0.2945
  529MOL0     C69715   7.240   8.827   5.747 -0.2157  0.0027 -0.4586
  529MOL0     C69716   7.133   8.721   5.736  0.0082 -0.1932  0.4052
  529MOL0     C69717   6.991   8.780   5.725  0.1667 -0.1134  0.4882
  529MOL0     C69718   6.946   8.769   5.579  0.1205  0.7044 -0.1225
  529MOL0     C69719   6.808   8.829   5.558 -0.6330 -0.2021  0.2292
  529MOL0     O69720   6.706   8.746   5.614 -0.1146  0.2564  0.2828
  529MOL0     C69721   6.588   8.807   5.644 -0.7210 -0.2181 -0.3294
  529MOL0     C69722   6.500   8.728   5.710  0.6160  0.4856  0.0704
  529MOL0     C69723   6.365   8.766   5.731  0.3517  0.1035  0.1118
  529MOL0     C69724   6.320   8.894   5.710  1.0893  1.0463 -0.1210
  529MOL0     C69725   6.177   8.930   5.734  0.3157 -0.0786 -1.0610
  529MOL0     O69726   6.095   8.828   5.792 -0.6548 -0.1181  0.0512
  529MOL0     C69727   5.963   8.839   5.827 -0.1854  0.0560 -0.2825
  529MOL0     C69728   5.916   8.944   5.905  0.0347  0.7764  0.0935
  529MOL0     C69729   5.778   8.944   5.947  0.2493  0.4688  0.4069
  529MOL0     C69730   5.686   8.848   5.906 -0.1884 -0.4848 -0.3812
  529MOL0     O69731   5.547   8.838   5.939  0.2089 -0.0396 -0.0942
  529MOL0     C69732   5.473   8.956   5.939  0.2285  0.1555 -0.3338
  529MOL0     C69733   5.323   8.916   5.935  0.1334  0.4168 -0.8249
  529MOL0     C69734   5.238   9.041   5.934  0.4747 -0.0331  0.7543
  529MOL0     C69735   5.109   9.035   6.001 -0.0806  0.6843  0.8847
  529MOL0     C69736   5.020   8.916   5.945  0.2586  0.0698 -0.1695
  529MOL0     C69737   4.902   8.897   6.038  0.2878  0.5856 -0.1650
  529MOL0     C69738   4.801   9.013   6.031 -0.2640  0.5059 -1.0749
  529MOL0     C69739   4.704   9.019   6.146 -0.2053 -0.0504 -0.5072
  529MOL0    Cl69740   4.572   9.138   6.117 -0.1074 -0.2761 -0.1095
  529MOL0     C69741   5.741   8.738   5.836 -0.1123  0.0888 -0.2097
  529MOL0     C69742   5.883   8.738   5.795  0.1788 -0.0446 -0.5760
  529MOL0     O69743   6.133   9.041   5.708 -0.2527  0.2309 -0.5463
  529MOL0     C69744   6.407   8.975   5.638  0.0001 -0.2477 -0.1444
  529MOL0     C69745   6.542   8.931   5.600 -0.0049 -0.6179 -1.0580
  529MOL0     N69746   7.256   8.900   5.863  0.5522  0.0312 -0.2450
  529MOL0     N69747   7.353   8.985   5.847 -0.2371  0.0299  0.5446
  529MOL0     C69748   8.280   9.597   5.309  0.5469  0.1454 -0.5543
  529MOL0     C69749   8.395   9.650   5.259  0.3015 -0.0551  0.1088
  529MOL0     C69750   8.826   9.623   5.055  0.1201  0.3915 -0.7681
  529MOL0     C69751   8.953   9.603   5.106 -0.2200 -0.2185  0.0528
  529MOL0     C69752   9.069   9.629   5.025 -0.4052  0.4783 -0.3066
  529MOL0     C69753   9.058   9.691   4.895  1.0460  0.1522 -0.2100
  529MOL0     O69754   9.165   9.717   4.815 -0.2959 -0.3781 -0.0493
  529MOL0     C69755   9.307   9.724   4.861 -0.7021  1.1058 -0.6562
  529MOL0     C69756   9.409   9.685   4.758  0.9968 -0.9366  0.1609
  529MOL0     C69757   9.540   9.751   4.778 -0.0194  0.8294 -0.9202
  529MOL0     C69758   9.641   9.723   4.663 -0.4683 -0.6001 -0.9265
  529MOL0     C69759   9.778   9.758   4.706 -0.3477  0.4717  0.3434
  529MOL0     C69760   9.891   9.771   4.747 -1.0585 -1.1083 -0.5798
  529MOL0     C69761   8.926   9.719   4.854  0.2038 -0.4787 -0.4726
  529MOL0     C69762   8.814   9.671   4.935  0.4514  0.0114  0.5323
  529MOL0     H69763   8.491   9.380   5.072  3.4667  0.2038  2.4580
  529MOL0     H69764   8.280   9.286   5.173 -0.3306 -0.8650  1.7859
  529MOL0     H69765   8.002   9.541   5.231 -0.3251  1.1996  1.2472
  529MOL0     H69766   8.011   9.573   5.401 -3.7971  1.3946 -0.3727
  529MOL0     H69767   7.877   9.321   5.295 -3.4705  0.6903 -0.8466
  529MOL0     H69768   7.794   9.471   5.358  0.7392  1.5868  2.0675
  529MOL0     H69769   7.936   9.435   5.573  3.1223  0.9529 -2.3150
  529MOL0     H69770   7.966   9.282   5.513 -0.9109 -1.5126 -1.2342
  529MOL0     H69771   7.759   9.326   5.675 -0.2777  4.7774 -0.3642
  529MOL0     H69772   7.679   9.397   5.552 -0.2922 -0.1412 -0.3290
  529MOL0     H69773   7.728   9.097   5.568  1.4951 -1.1049 -0.8365
  529MOL0     H69774   7.754   9.172   5.411 -0.5611  3.2208 -0.7835
  529MOL0     H69775   7.532   9.108   5.416  0.0126  0.6110 -1.1120
  529MOL0     H69776   7.532   9.285   5.428  3.5252 -0.3308 -0.9587
  529MOL0     H69777   7.485   9.250   5.684 -5.0713 -0.8247  1.1627
  529MOL0     H69778   7.364   9.175   5.584  0.6570  3.1992 -5.6617
  529MOL0     H69779   7.584   9.069   5.757  1.5489  0.4611 -0.7857
  529MOL0     H69780   7.570   8.976   5.613 -0.0275  0.1500  0.8189
  529MOL0     H69781   7.337   8.833   5.556 -2.1481 -1.0059  0.7412
  529MOL0     H69782   7.132   8.657   5.825 -0.9257 -1.2346 -0.3335
  529MOL0     H69783   7.157   8.657   5.651  1.1362  0.1488  0.4495
  529MOL0     H69784   7.005   8.884   5.753 -2.4366  0.7907 -1.2004
  529MOL0     H69785   6.918   8.723   5.783 -0.8282 -1.2621 -1.7463
  529MOL0     H69786   7.013   8.815   5.505 -0.2992 -2.8032 -2.9493
  529MOL0     H69787   6.937   8.665   5.547 -0.4286  0.3728  1.0541
  529MOL0     H69788   6.796   8.829   5.449 -2.7406 -1.7960  0.4002
  529MOL0     H69789   6.796   8.928   5.602  0.5977 -0.9151  2.2934
  529MOL0     H69790   6.524   8.625   5.732  0.0286  0.3229 -0.0449
  529MOL0     H69791   6.304   8.685   5.769 -0.4268  0.1111 -1.0649
  529MOL0     H69792   5.983   9.024   5.936  0.2382  0.3213  0.8381
  529MOL0     H69793   5.743   9.029   6.004  5.0849  2.5870  0.6394
  529MOL0     H69794   5.495   9.021   5.854 -2.6067  2.1715  0.3105
  529MOL0     H69795   5.496   9.009   6.032  0.5903  0.0151 -0.3446
  529MOL0     H69796   5.298   8.857   6.024 -1.9896 -0.6447 -2.0541
  529MOL0     H69797   5.302   8.853   5.849  0.8487  1.4789 -1.8017
  529MOL0     H69798   5.223   9.063   5.828  3.0436 -1.8332 -0.0596
  529MOL0     H69799   5.289   9.125   5.981 -0.4662  0.3943  1.0411
  529MOL0     H69800   5.132   9.024   6.107 -3.1876 -0.9823  1.4907
  529MOL0     H69801   5.064   9.134   5.989 -1.9989 -0.1237  1.1120
  529MOL0     H69802   5.075   8.821   5.937 -0.1497 -0.4261  2.2327
  529MOL0     H69803   4.988   8.942   5.844  1.2265  2.6591  0.1121
  529MOL0     H69804   4.936   8.900   6.141 -1.0658 -0.6308  0.3521
  529MOL0     H69805   4.863   8.797   6.020  2.3228 -0.7072  2.1354
  529MOL0     H69806   4.854   9.108   6.016  0.8371  0.0235 -0.3999
  529MOL0     H69807   4.726   9.000   5.953 -1.0863 -0.6728 -0.1302
  529MOL0     H69808   4.765   9.039   6.235  0.1648  1.0452 -0.9796
  529MOL0     H69809   4.661   8.919   6.154  2.0387 -0.9653  1.4333
  529MOL0     H69810   5.674   8.654   5.822 -1.1096  0.9982 -1.0625
  529MOL0     H69811   5.927   8.653   5.744  2.0484  0.8133 -0.4595
  529MOL0     H69812   6.377   9.069   5.594  2.3533  0.3628 -0.5699
  529MOL0     H69813   6.594   8.993   5.528 -2.4913 -0.4391 -2.8057
  529MOL0     H69814   8.212   9.657   5.368 -0.7060  0.5019 -2.2899
  529MOL0     H69815   8.433   9.747   5.290 -1.1077  0.8450 -0.8751
  529MOL0     H69816   8.964   9.558   5.205  0.8057 -1.1636 -0.4574
  529MOL0     H69817   9.170   9.611   5.061 -0.4549 -1.8609 -1.1276
  529MOL0     H69818   9.333   9.657   4.944 -0.2223 -1.0921 -2.4744
  529MOL0     H69819   9.311   9.826   4.899  0.7165  0.2095  1.8438
  529MOL0     H69820   9.429   9.577   4.763  2.3998 -0.6994  0.1199
  529MOL0     H69821   9.366   9.716   4.662  1.4827 -0.1915  0.1729
  529MOL0     H69822   9.576   9.726   4.878 -0.7505 -0.7222 -1.0223
  529MOL0     H69823   9.519   9.858   4.783  1.7428  1.1624  0.3423
  529MOL0     H69824   9.641   9.615   4.643  1.7999 -0.9660  0.5849
  529MOL0     H69825   9.625   9.777   4.569 -1.8083 -0.9740 -0.9308
  529MOL0     H69826   9.993   9.774   4.780  0.1910 -1.5981 -4.0526
  529MOL0     H69827   8.909   9.770   4.759 -0.2028 -1.9677 -1.2440
  529MOL0     H69828   8.715   9.691   4.896  1.2262  1.2220 -0.9011
  530MOL0     O69829   8.974   6.396   0.929  0.5826  0.4670 -0.7455
  530MOL0     C69830   8.930   6.401   0.815 -0.2761 -0.6780 -0.4599
  530MOL0     O69831   8.798   6.424   0.782 -0.0866  0.2046 -0.2375
  530MOL0     C69832   8.696   6.411   0.879  0.1102 -0.1318 -0.2783
  530MOL0     C69833   8.571   6.349   0.836 -0.3184  0.4159 -0.1961
  530MOL0     C69834   8.464   6.351   0.929 -0.7091 -0.4215 -0.0135
  530MOL0     C69835   8.479   6.408   1.062 -0.3226 -0.0331  0.3008
  530MOL0     O69836   8.372   6.406   1.147  0.0142  0.1051  0.3928
  530MOL0     C69837   8.382   6.448   1.287  0.4810  0.2820  0.3666
  530MOL0     C69838   8.245   6.428   1.350  0.5581  0.6507 -1.3102
  530MOL0     C69839   8.245   6.457   1.506 -0.2435 -0.0213 -0.4995
  530MOL0     C69840   8.134   6.414   1.606  0.0439 -0.2527  0.1815
  530MOL0     C69841   8.127   6.526   1.716 -1.0015  0.0186 -0.2081
  530MOL0     C69842   8.024   6.491   1.832  0.6446  0.1351  0.1991
  530MOL0     C69843   8.003   6.608   1.925  0.0855 -0.2124 -0.6350
  530MOL0     C69844   7.944   6.741   1.872  0.0613 -0.3074  1.1790
  530MOL0     N69845   7.803   6.729   1.835  0.4174  0.1135 -0.2258
  530MOL0     C69846   7.691   6.744   1.922  0.3434 -0.1732  0.0814
  530MOL0     C69847   7.579   6.730   1.850 -0.7282  0.1530 -0.1088
  530MOL0     C69848   7.436   6.708   1.898 -0.2481 -0.5968 -0.9267
  530MOL0     C69849   7.350   6.826   1.838 -0.3041 -0.3711 -0.1198
  530MOL0     C69850   7.322   6.797   1.693  0.4496  0.5054 -0.1619
  530MOL0     C69851   7.225   6.902   1.640  0.1934  0.1346  0.1365
  530MOL0     O69852   7.277   7.030   1.651 -0.0067  0.5977  0.3821
  530MOL0     C69853   7.199   7.135   1.613 -0.0236 -0.0028  0.9438
  530MOL0     C69854   7.118   7.141   1.490 -0.1510  0.0802 -0.1393
  530MOL0     C69855   7.068   7.272   1.451 -0.6450 -0.3128 -0.8951
  530MOL0     C69856   7.095   7.389   1.524  0.3087 -0.1762 -0.2884
  530MOL0     C69857   7.037   7.524   1.477  0.2344  0.4914 -0.2255
  530MOL0     O69858   7.114   7.631   1.491 -0.0708  0.3775 -0.6366
  530MOL0     C69859   7.082   7.752   1.445 -0.3678 -0.0428  0.4197
  530MOL0     C69860   7.164   7.812   1.348 -0.3810  0.7645 -0.1966
  530MOL0     C69861   7.135   7.933   1.297  0.2891 -0.2470 -0.0084
  530MOL0     C69862   7.012   8.001   1.323  1.2897  0.2338  0.3320
  530MOL0     O69863   6.994   8.128   1.272  0.0362 -0.6132 -0.1623
  530MOL0     C69864   6.978   8.126   1.128 -0.5110 -0.0027 -0.1932
  530MOL0     C69865   6.858   8.217   1.097  0.7628 -0.1313 -0.1330
  530MOL0     C69866   6.812   8.225   0.948 -0.1993 -0.8101 -0.0267
  530MOL0     C69867   6.685   8.310   0.931  0.0033 -0.2252  0.8093
  530MOL0     C69868   6.632   8.308   0.792 -0.3284 -0.0419 -0.6303
  530MOL0     C69869   6.723   8.381   0.693  0.5919  0.5365  0.1790
  530MOL0     C69870   6.669   8.365   0.546 -0.1042 -0.1138 -0.0098
  530MOL0     C69871   6.692   8.234   0.472  0.4342 -0.2249 -0.6133
  530MOL0    Cl69872   6.866   8.209   0.450 -0.0313 -0.3163 -0.1457
  530MOL0     C69873   6.923   7.936   1.417 -0.5933 -0.0778  0.0604
  530MOL0     C69874   6.965   7.824   1.487 -0.1584  0.0426  0.3759
  530MOL0     O69875   6.930   7.520   1.428  0.1413  0.7305  0.6765
  530MOL0     C69876   7.165   7.379   1.647  0.4592  0.1133 -0.5112
  530MOL0     C69877   7.220   7.255   1.689  0.5717  0.3817  0.3929
  530MOL0     N69878   7.620   6.702   1.719  0.2029  0.0198  0.8819
  530MOL0     N69879   7.750   6.692   1.713  0.5086  0.4439 -0.0607
  530MOL0     C69880   8.611   6.460   1.099  0.7870 -0.1015  0.2340
  530MOL0     C69881   8.711   6.463   1.004  0.0962  0.3361  0.4433
  530MOL0     C69882   9.025   6.377   0.709 -0.0048  0.0319  0.6504
  530MOL0     C69883   9.151   6.321   0.731  0.0159 -0.5740  0.6076
  530MOL0     C69884   9.250   6.291   0.634 -0.7078 -0.1043  0.5847
  530MOL0     C69885   9.218   6.319   0.501 -0.4864  1.2201 -0.3275
  530MOL0     O69886   9.316   6.286   0.403  0.4187  0.5943 -0.3119
  530MOL0     C69887   9.420   6.385   0.392  0.1784  0.1568 -0.1056
  530MOL0     C69888   9.372   6.522   0.350 -0.0004  0.8374  0.3544
  530MOL0     C69889   9.483   6.616   0.320 -0.0318  0.0514 -0.3173
  530MOL0     C69890   9.577   6.566   0.217  0.7129  0.0284 -0.1850
  530MOL0     C69891   9.662   6.672   0.170  0.8631  0.5292  0.2359
  530MOL0     C69892   9.745   6.755   0.136  0.3604  1.3127  0.3572
  530MOL0     C69893   9.093   6.361   0.477  0.4543 -0.1024  0.5412
  530MOL0     C69894   8.996   6.392   0.581 -0.2263 -1.5435  0.9978
  530MOL0     H69895   8.565   6.319   0.731  0.2635  0.5089 -0.2582
  530MOL0     H69896   8.365   6.338   0.887  0.4822 -1.2785 -2.7867
  530MOL0     H69897   8.420   6.550   1.290  1.0522  0.0863  0.0467
  530MOL0     H69898   8.459   6.394   1.343 -0.6970 -0.6379  1.1571
  530MOL0     H69899   8.200   6.330   1.335 -1.3198  1.1447  0.6073
  530MOL0     H69900   8.185   6.505   1.300  2.5810  4.0071  0.9739
  530MOL0     H69901   8.273   6.562   1.514 -1.2710  0.1852  0.6775
  530MOL0     H69902   8.329   6.396   1.540 -0.1036  0.0518 -0.7135
  530MOL0     H69903   8.036   6.400   1.559  0.2868 -3.2429  0.4237
  530MOL0     H69904   8.162   6.319   1.650 -0.1555 -0.6105 -0.4523
  530MOL0     H69905   8.102   6.620   1.666  3.0949  0.1743 -2.4384
  530MOL0     H69906   8.225   6.540   1.762 -0.3287 -3.5887 -0.3015
  530MOL0     H69907   8.064   6.411   1.895  0.5979  1.4980  2.0544
  530MOL0     H69908   7.934   6.455   1.782 -0.2700  2.2048  0.2496
  530MOL0     H69909   7.947   6.574   2.012  0.2330 -1.6124 -1.0603
  530MOL0     H69910   8.102   6.637   1.960  0.4120  2.0071 -3.0444
  530MOL0     H69911   8.007   6.777   1.789 -0.1939 -0.3292  0.9735
  530MOL0     H69912   7.954   6.818   1.948  0.6051  0.0133  0.7950
  530MOL0     H69913   7.697   6.748   2.030  0.2122  0.1736  0.0771
  530MOL0     H69914   7.411   6.709   2.005 -0.1579 -3.1672 -0.8291
  530MOL0     H69915   7.403   6.605   1.881 -3.3654  0.3322 -1.0893
  530MOL0     H69916   7.398   6.924   1.839 -1.2391  0.1144 -1.1024
  530MOL0     H69917   7.261   6.834   1.902  1.3697 -0.0328  2.3345
  530MOL0     H69918   7.414   6.792   1.634  1.4693 -1.0979  1.4528
  530MOL0     H69919   7.278   6.698   1.677  0.1858  0.4274  0.9796
  530MOL0     H69920   7.127   6.896   1.689 -0.6002  1.4529 -1.2101
  530MOL0     H69921   7.222   6.877   1.534 -0.6852  2.3229 -0.4083
  530MOL0     H69922   7.118   7.052   1.429 -3.4192 -1.4368  1.7932
  530MOL0     H69923   7.032   7.274   1.348  2.5956  2.1913 -2.1791
  530MOL0     H69924   7.253   7.750   1.333 -1.8679 -1.3380 -0.8522
  530MOL0     H69925   7.207   7.977   1.230  0.1508 -0.4719 -0.3049
  530MOL0     H69926   6.969   8.024   1.088  0.3786 -1.4048  2.8058
  530MOL0     H69927   7.058   8.174   1.072 -0.1537 -1.6316 -1.1646
  530MOL0     H69928   6.870   8.317   1.139  0.8375  0.8740 -2.4090
  530MOL0     H69929   6.769   8.178   1.149  0.0322  3.1880  1.3709
  530MOL0     H69930   6.809   8.123   0.910  1.9108 -1.5278  1.5740
  530MOL0     H69931   6.890   8.280   0.894  1.1596  1.0731  3.5091
  530MOL0     H69932   6.616   8.260   0.999  2.1875 -0.6375  2.8773
  530MOL0     H69933   6.712   8.407   0.975  2.7845 -1.4009  1.9447
  530MOL0     H69934   6.531   8.348   0.801 -0.6966 -1.1984  0.8321
  530MOL0     H69935   6.634   8.204   0.757  1.3401 -0.6368  1.0436
  530MOL0     H69936   6.829   8.355   0.685  1.1836  2.6865  0.3401
  530MOL0     H69937   6.710   8.486   0.721  0.7862  0.6146 -0.0193
  530MOL0     H69938   6.562   8.367   0.567 -0.4192 -0.7266 -1.4647
  530MOL0     H69939   6.702   8.451   0.487  2.9161 -1.1164  0.0369
  530MOL0     H69940   6.640   8.240   0.376  0.9244  0.4660 -0.8443
  530MOL0     H69941   6.645   8.147   0.519 -1.8412  0.6288 -1.1933
  530MOL0     H69942   6.833   7.989   1.445 -0.9637 -0.3402 -0.6123
  530MOL0     H69943   6.908   7.777   1.567  1.2625 -2.3458  0.0935
  530MOL0     H69944   7.181   7.472   1.701 -0.5456  1.7051 -2.7920
  530MOL0     H69945   7.290   7.237   1.770  1.9974 -1.2464 -1.1045
  530MOL0     H69946   8.627   6.508   1.195  1.3927  0.0793  0.0461
  530MOL0     H69947   8.798   6.522   1.030 -1.5722  2.1655  2.3194
  530MOL0     H69948   9.169   6.277   0.829 -0.6760  1.3574  1.6538
  530MOL0     H69949   9.347   6.248   0.658 -0.3942  0.1857 -0.1311
  530MOL0     H69950   9.473   6.355   0.301  0.3526  1.1528 -0.3425
  530MOL0     H69951   9.486   6.393   0.479 -1.4627 -0.3501  1.2423
  530MOL0     H69952   9.310   6.498   0.264  3.0501 -2.0932 -1.2441
  530MOL0     H69953   9.317   6.554   0.439  1.2828  0.2634  1.4008
  530MOL0     H69954   9.543   6.630   0.410  0.7309 -3.1135 -0.2266
  530MOL0     H69955   9.442   6.712   0.285  1.2653 -0.2729 -3.0043
  530MOL0     H69956   9.645   6.489   0.255  1.5720  0.9603  0.2227
  530MOL0     H69957   9.523   6.510   0.140 -1.3057 -0.7014  1.6657
  530MOL0     H69958   9.807   6.836   0.106  2.1701 -0.7826 -2.0082
  530MOL0     H69959   9.083   6.388   0.373 -0.9602 -1.6965  0.2047
  530MOL0     H69960   8.896   6.424   0.555  0.4628 -0.9651 -1.1300
  531MOL0     O69961  11.042   4.916   8.745  0.1615  0.0682 -0.1745
  531MOL0     C69962  11.061   4.805   8.686  1.0755 -0.3710 -0.3454
  531MOL0     O69963  10.969   4.718   8.630  0.2133 -0.4401 -0.1666
  531MOL0     C69964  10.833   4.737   8.637 -0.6982  0.5400 -0.1231
  531MOL0     C69965  10.766   4.801   8.747  0.0335  0.6092 -0.1608
  531MOL0     C69966  10.624   4.801   8.744  0.8582  0.3099  0.6000
  531MOL0     C69967  10.553   4.749   8.639  0.5312 -0.3563 -0.9690
  531MOL0     O69968  10.419   4.756   8.649  0.3816  0.2256 -0.8952
  531MOL0     C69969  10.347   4.788   8.526  0.3655 -0.2083 -0.2224
  531MOL0     C69970  10.215   4.831   8.566  0.1625  0.7558 -0.3810
  531MOL0     C69971  10.116   4.837   8.445  0.1430 -0.2685 -0.2478
  531MOL0     C69972   9.980   4.876   8.509  0.1659  0.0677  0.2520
  531MOL0     C69973   9.856   4.891   8.404  0.2221  0.0961 -0.2690
  531MOL0     C69974   9.788   4.761   8.368  0.1521  0.7666  0.7215
  531MOL0     C69975   9.732   4.796   8.222  0.2169  0.9386  0.2181
  531MOL0     C69976   9.634   4.904   8.200 -0.3497 -0.2885  0.2971
  531MOL0     N69977   9.501   4.841   8.230 -0.1581 -0.6094  0.2725
  531MOL0     C69978   9.441   4.746   8.148  0.9549  0.6309  0.3601
  531MOL0     C69979   9.335   4.704   8.221 -0.0616 -0.5097  0.4882
  531MOL0     C69980   9.242   4.600   8.193  0.3008 -0.0379 -0.0956
  531MOL0     C69981   9.279   4.498   8.082  0.2479  0.2390  0.1256
  531MOL0     C69982   9.365   4.386   8.140  0.3914  0.5312  0.4197
  531MOL0     C69983   9.502   4.407   8.200  0.6280  0.6366 -0.7101
  531MOL0     O69984   9.593   4.468   8.101 -0.4053  0.2591  0.2303
  531MOL0     C69985   9.723   4.443   8.113  0.1027 -0.2282  0.9816
  531MOL0     C69986   9.786   4.402   8.232  0.1840 -0.3686 -0.5333
  531MOL0     C69987   9.928   4.410   8.245  0.7347  1.2173  0.7925
  531MOL0     C69988  10.009   4.443   8.144 -0.5784 -0.1580  0.5700
  531MOL0     C69989  10.157   4.456   8.179  1.0682  0.7793  0.3248
  531MOL0     O69990  10.224   4.545   8.099  0.3896 -0.3731  0.0934
  531MOL0     C69991  10.354   4.582   8.128 -0.1887 -0.2305  0.0364
  531MOL0     C69992  10.379   4.713   8.157  0.4537 -0.5982 -0.6827
  531MOL0     C69993  10.511   4.766   8.180 -0.0022  0.6467 -0.2250
  531MOL0     C69994  10.612   4.668   8.180  0.1301 -1.0416  0.3943
  531MOL0     O69995  10.743   4.693   8.213  0.0454 -0.1893  0.1927
  531MOL0     C69996  10.799   4.829   8.202  0.5232  0.1250 -0.0975
  531MOL0     C69997  10.943   4.826   8.248  0.5324  0.6108 -1.1593
  531MOL0     C69998  11.024   4.744   8.141 -0.1096  0.0490  0.0439
  531MOL0     C69999  11.164   4.724   8.193 -1.3364 -0.1819 -0.2482
  531MOL0     C70000  11.245   4.859   8.221 -0.9354  0.5195 -0.0512
  531MOL0     C70001  11.390   4.851   8.164  0.3755  0.1293 -0.1794
  531MOL0     C70002  11.482   4.760   8.261 -0.7452  0.0948  0.4065
  531MOL0     C70003  11.523   4.822   8.405  0.2593  0.2893 -0.5213
  531MOL0    Cl70004  11.629   4.963   8.375 -0.1702  0.3675 -0.2946
  531MOL0     C70005  10.589   4.533   8.152 -0.0818 -0.4488 -0.2832
  531MOL0     C70006  10.457   4.492   8.123 -0.4159 -0.4244  0.0249
  531MOL0     O70007  10.201   4.402   8.283 -0.6619  0.1507 -0.2821
  531MOL0     C70008   9.947   4.487   8.027 -0.4850 -0.3112 -0.5298
  531MOL0     C70009   9.810   4.485   8.011 -0.3235  0.9469  0.0372
  531MOL0     N70010   9.333   4.768   8.338  0.2231  0.4551  0.2447
  531MOL0     N70011   9.433   4.851   8.350 -0.2564 -0.4091  0.6876
  531MOL0     C70012  10.618   4.693   8.531  0.1080  1.1689 -0.4119
  531MOL0     C70013  10.760   4.682   8.531 -0.3473 -0.0115 -0.6076
  531MOL0     C70014  11.203   4.764   8.685 -1.1778  0.0518 -0.1956
  531MOL0     C70015  11.238   4.634   8.628 -1.0928 -0.1139  0.3303
  531MOL0     C70016  11.374   4.595   8.634  1.2058  0.2038 -0.9253
  531MOL0     C70017  11.464   4.677   8.701  0.0880  0.7814 -0.2745
  531MOL0     O70018  11.592   4.622   8.697 -0.4346  0.8316  0.2821
  531MOL0     C70019  11.703   4.690   8.756  0.1364 -0.3560 -0.1791
  531MOL0     C70020  11.831   4.606   8.744  0.6540  0.0204 -0.5306
  531MOL0     C70021  11.935   4.657   8.846  0.1108  0.9909  0.5574
  531MOL0     C70022  12.049   4.552   8.859 -0.0110  0.3856  0.0564
  531MOL0     C70023  12.117   4.564   8.986 -0.0551  0.0350 -0.5000
  531MOL0     C70024  12.181   4.566   9.098 -0.3945 -0.3672  0.3324
  531MOL0     C70025  11.428   4.802   8.766  0.7682  0.6388 -0.0794
  531MOL0     C70026  11.299   4.843   8.753  0.0427 -0.1595  0.1661
  531MOL0     H70027  10.821   4.838   8.833 -1.0525  0.1925  0.7397
  531MOL0     H70028  10.575   4.850   8.828  1.0474  2.4919 -0.4984
  531MOL0     H70029  10.342   4.694   8.469  0.2179  0.5967 -1.5812
  531MOL0     H70030  10.391   4.874   8.476 -2.1269  0.3310 -1.6964
  531MOL0     H70031  10.226   4.931   8.610  2.9287  1.4287 -2.3462
  531MOL0     H70032  10.169   4.768   8.643  0.0948  1.5247  0.2319
  531MOL0     H70033  10.114   4.742   8.392 -1.0908 -0.3328 -0.1172
  531MOL0     H70034  10.156   4.913   8.376  3.8293  1.5737  3.4338
  531MOL0     H70035   9.950   4.806   8.588  0.1268 -1.9188 -1.4413
  531MOL0     H70036  10.002   4.976   8.547  0.6608  0.3792 -0.8129
  531MOL0     H70037   9.897   4.936   8.313  1.9278 -3.8598 -1.6698
  531MOL0     H70038   9.786   4.957   8.456  0.7672  0.2142  0.3369
  531MOL0     H70039   9.703   4.744   8.435 -2.2019  0.2338 -2.1868
  531MOL0     H70040   9.854   4.674   8.372 -0.6364 -0.1198 -2.3469
  531MOL0     H70041   9.818   4.829   8.163  1.1063  2.6795  2.3459
  531MOL0     H70042   9.700   4.698   8.183  0.6141  0.2899  1.4705
  531MOL0     H70043   9.634   4.943   8.098 -0.2905 -3.5114 -1.0534
  531MOL0     H70044   9.648   4.981   8.276 -3.1836 -1.1395  1.8340
  531MOL0     H70045   9.477   4.702   8.055  3.3464 -0.4483  1.6878
  531MOL0     H70046   9.144   4.640   8.164  0.0519 -0.7540 -0.2784
  531MOL0     H70047   9.233   4.546   8.287 -0.3485  1.3755  0.6842
  531MOL0     H70048   9.322   4.549   7.996 -0.3931 -0.8911 -0.8864
  531MOL0     H70049   9.184   4.460   8.043  1.4106 -1.0663 -1.5455
  531MOL0     H70050   9.297   4.346   8.217  0.2827 -0.3633 -0.1232
  531MOL0     H70051   9.384   4.303   8.072  0.2720 -0.2619  1.3209
  531MOL0     H70052   9.532   4.312   8.246  1.9328  1.7306  0.8098
  531MOL0     H70053   9.495   4.485   8.276  0.8893  0.8290 -0.8820
  531MOL0     H70054   9.733   4.375   8.323  2.4750 -1.7820  0.4618
  531MOL0     H70055   9.955   4.377   8.345 -2.5176 -2.7015  0.6629
  531MOL0     H70056  10.296   4.781   8.140 -0.1629 -0.0982  3.2966
  531MOL0     H70057  10.517   4.871   8.205 -0.7248  0.8321 -0.7969
  531MOL0     H70058  10.739   4.895   8.265 -3.3958 -2.4858 -0.6760
  531MOL0     H70059  10.797   4.862   8.098 -2.9331 -1.2679 -0.6243
  531MOL0     H70060  10.957   4.785   8.349 -1.9427 -2.1463 -1.8194
  531MOL0     H70061  10.962   4.934   8.254  1.3771  0.4127  0.5516
  531MOL0     H70062  11.035   4.791   8.043  0.7391 -0.0027  0.1104
  531MOL0     H70063  10.979   4.644   8.135 -1.7583  0.5007  3.0851
  531MOL0     H70064  11.151   4.675   8.290 -0.6163 -2.3180 -1.1720
  531MOL0     H70065  11.230   4.673   8.121  3.1941 -1.8815  4.4458
  531MOL0     H70066  11.251   4.891   8.326 -4.4405  2.6463 -0.3206
  531MOL0     H70067  11.202   4.948   8.173  2.1381  0.9407 -2.3658
  531MOL0     H70068  11.439   4.949   8.170  3.0441 -1.2209  3.8003
  531MOL0     H70069  11.390   4.823   8.058  1.7911  1.2443 -0.5170
  531MOL0     H70070  11.431   4.665   8.279  0.7116 -1.3161 -2.2727
  531MOL0     H70071  11.573   4.735   8.206 -1.2083  1.3491 -1.0010
  531MOL0     H70072  11.582   4.747   8.458 -1.2769 -1.5049 -1.2159
  531MOL0     H70073  11.433   4.846   8.462  0.9107  3.3427 -0.6161
  531MOL0     H70074  10.671   4.462   8.153 -0.2832 -0.7209 -1.5640
  531MOL0     H70075  10.427   4.396   8.080  0.1145 -1.7616  2.4449
  531MOL0     H70076   9.999   4.525   7.939  1.4395 -1.0093  0.2585
  531MOL0     H70077   9.759   4.495   7.915 -0.9802 -5.4668 -0.7322
  531MOL0     H70078  10.564   4.656   8.445 -0.3382 -0.2962  0.4654
  531MOL0     H70079  10.810   4.637   8.446  1.8390 -0.8653  1.0203
  531MOL0     H70080  11.168   4.566   8.581 -0.5423  1.8876 -3.8321
  531MOL0     H70081  11.406   4.517   8.566  3.2774  0.4452 -0.3184
  531MOL0     H70082  11.673   4.699   8.860 -0.4348 -2.1807 -0.1566
  531MOL0     H70083  11.712   4.790   8.712 -1.6789 -0.4263 -0.8055
  531MOL0     H70084  11.817   4.499   8.759  3.7431 -0.4113 -0.2852
  531MOL0     H70085  11.855   4.621   8.638 -0.6476  0.9617 -0.7292
  531MOL0     H70086  11.880   4.679   8.938 -0.9624 -0.8136  0.3791
  531MOL0     H70087  11.985   4.752   8.820 -0.5119  0.8728 -1.1698
  531MOL0     H70088  12.016   4.448   8.863  1.4764 -0.1242 -0.2731
  531MOL0     H70089  12.118   4.563   8.775 -0.3891  0.6049 -0.2281
  531MOL0     H70090  12.227   4.560   9.195 -0.2530 -1.3581  0.2082
  531MOL0     H70091  11.489   4.864   8.830  1.4772 -1.4168  1.3629
  531MOL0     H70092  11.275   4.932   8.809 -0.3783 -0.9879  1.3408
  532MOL0     O70093   0.043   8.121   9.510 -0.0229  0.2757  0.0859
  532MOL0     C70094   0.005   8.019   9.578  0.4658  0.0811  1.1899
  532MOL0     O70095  -0.126   7.982   9.604  0.5757  0.2523 -0.6749
  532MOL0     C70096  -0.231   8.070   9.580 -0.3839 -0.4530 -0.1698
  532MOL0     C70097  -0.221   8.213   9.579 -0.4942  0.2179 -1.3367
  532MOL0     C70098  -0.323   8.296   9.535 -0.4666  0.5046 -0.1086
  532MOL0     C70099  -0.447   8.241   9.522 -0.5064  1.4502  0.1809
  532MOL0     O70100  -0.550   8.318   9.483  0.1926  0.8215 -0.1937
  532MOL0     C70101  -0.609   8.298   9.350 -0.2458  1.3926  0.5070
  532MOL0     C70102  -0.732   8.384   9.338  0.4611 -0.9332  0.7448
  532MOL0     C70103  -0.838   8.334   9.436 -0.7759 -0.2284  0.6231
  532MOL0     C70104  -0.979   8.396   9.399  0.6494  0.2096  0.0232
  532MOL0     C70105  -1.082   8.356   9.506 -0.0077 -0.5425  0.3538
  532MOL0     C70106  -1.214   8.447   9.513 -0.2826 -0.7249  0.5022
  532MOL0     C70107  -1.297   8.439   9.385 -0.7744  0.9193 -0.1220
  532MOL0     C70108  -1.432   8.508   9.398 -0.2244 -0.7478  0.8756
  532MOL0     N70109  -1.499   8.518   9.269 -0.4349 -0.4344  1.0031
  532MOL0     C70110  -1.503   8.642   9.206 -0.4295 -0.5899 -0.0600
  532MOL0     C70111  -1.611   8.635   9.120  0.0877  0.3985  0.2048
  532MOL0     C70112  -1.653   8.744   9.022 -0.3024  0.6215 -0.2314
  532MOL0     C70113  -1.795   8.807   9.051  0.1064 -0.5836 -0.5367
  532MOL0     C70114  -1.841   8.893   8.924 -0.0047 -0.0604 -0.5697
  532MOL0     C70115  -1.996   8.912   8.929  0.2031  0.5983 -0.0263
  532MOL0     O70116  -2.046   8.957   8.805 -0.0174 -0.5662 -0.4239
  532MOL0     C70117  -2.183   8.942   8.816 -0.1346 -0.6583  0.7138
  532MOL0     C70118  -2.257   9.046   8.867  0.5436 -0.1995  0.6888
  532MOL0     C70119  -2.395   9.032   8.861 -0.5957 -0.1421  0.0176
  532MOL0     C70120  -2.457   8.918   8.805 -0.3489 -0.2614  0.1237
  532MOL0     C70121  -2.606   8.907   8.800  0.7970 -0.2817 -0.0942
  532MOL0     O70122  -2.666   8.796   8.741  1.0232  0.1388  0.1316
  532MOL0     C70123  -2.804   8.783   8.733 -0.2296  0.3821  0.0646
  532MOL0     C70124  -2.851   8.654   8.725  0.5012  0.5641  0.6444
  532MOL0     C70125  -2.989   8.626   8.704 -0.1146 -0.0880  1.0028
  532MOL0     C70126  -3.076   8.739   8.675 -0.8503  0.7927  0.0901
  532MOL0     O70127  -3.211   8.736   8.642 -0.3482 -0.0358  0.7966
  532MOL0     C70128  -3.272   8.605   8.626 -0.3170 -1.2135  0.2159
  532MOL0     C70129  -3.405   8.631   8.548  0.3473 -0.4390  0.4729
  532MOL0     C70130  -3.486   8.720   8.642 -0.3170 -0.1955  0.2085
  532MOL0     C70131  -3.549   8.629   8.759  0.0062 -0.0817  0.0092
  532MOL0     C70132  -3.643   8.722   8.833 -0.4845  0.7568  0.7398
  532MOL0     C70133  -3.723   8.635   8.922 -0.8939 -0.3566 -0.9193
  532MOL0     C70134  -3.833   8.728   8.996  0.1084 -1.3015  0.0885
  532MOL0     C70135  -3.929   8.650   9.094 -0.1151  0.2807  0.5014
  532MOL0    Cl70136  -3.999   8.524   8.994  0.2927 -0.1362  0.3175
  532MOL0     C70137  -3.022   8.867   8.680 -0.0249 -0.5324  0.3309
  532MOL0     C70138  -2.890   8.891   8.712 -0.1030 -0.5288  0.1654
  532MOL0     O70139  -2.669   9.001   8.847  0.3693  0.1929  0.2506
  532MOL0     C70140  -2.373   8.822   8.744  0.9307 -1.1526 -1.4295
  532MOL0     C70141  -2.234   8.840   8.750  1.5319  0.6286 -0.3132
  532MOL0     N70142  -1.675   8.512   9.128 -0.0451  0.8286 -0.2755
  532MOL0     N70143  -1.607   8.452   9.215 -0.0847 -0.3175 -0.0905
  532MOL0     C70144  -0.472   8.102   9.543  0.5562  0.7028 -1.5143
  532MOL0     C70145  -0.362   8.020   9.562  0.3005 -0.5513  1.0797
  532MOL0     C70146   0.096   7.909   9.614  0.1253  0.2777  0.2538
  532MOL0     C70147   0.226   7.942   9.634 -0.5340 -0.2588 -0.2909
  532MOL0     C70148   0.326   7.846   9.664 -0.0525  0.0220 -0.3087
  532MOL0     C70149   0.278   7.716   9.689  0.2038  0.4440  0.0375
  532MOL0     O70150   0.361   7.625   9.747 -0.5959 -0.5045  0.9325
  532MOL0     C70151   0.497   7.648   9.776 -0.8273 -0.8111  0.6275
  532MOL0     C70152   0.569   7.532   9.834  0.4275 -0.6163 -1.4008
  532MOL0     C70153   0.503   7.469   9.953 -0.0930 -0.6423 -0.6050
  532MOL0     C70154   0.462   7.567  10.068  0.6857  0.7034 -0.3158
  532MOL0     C70155   0.567   7.640  10.133  1.0752  0.2019  0.4058
  532MOL0     C70156   0.658   7.695  10.191  0.3542 -0.2042  0.1393
  532MOL0     C70157   0.143   7.684   9.681 -0.1273  0.4888 -0.1839
  532MOL0     C70158   0.055   7.778   9.637  0.3040  0.4298 -0.9623
  532MOL0     H70159  -0.121   8.252   9.595  0.3518 -2.3916  0.3229
  532MOL0     H70160  -0.310   8.403   9.520  4.6695 -0.1310 -2.4366
  532MOL0     H70161  -0.620   8.191   9.331  0.9101  1.3061  0.2846
  532MOL0     H70162  -0.535   8.338   9.280  3.2703 -0.9196  2.6004
  532MOL0     H70163  -0.765   8.379   9.234  2.5057 -0.1738  0.0167
  532MOL0     H70164  -0.698   8.486   9.356 -3.4351  1.5206 -3.5494
  532MOL0     H70165  -0.807   8.350   9.540 -3.4281 -3.3993  2.0779
  532MOL0     H70166  -0.845   8.225   9.441 -3.6888 -0.3084 -2.0906
  532MOL0     H70167  -0.965   8.504   9.408  2.9731  0.0759 -1.3174
  532MOL0     H70168  -1.007   8.375   9.295 -1.1664  0.2082  0.4658
  532MOL0     H70169  -1.038   8.363   9.606 -0.6520 -0.6007  0.6432
  532MOL0     H70170  -1.099   8.251   9.480 -0.8554  0.7169 -5.7082
  532MOL0     H70171  -1.199   8.555   9.529 -1.1515 -1.0241  4.1573
  532MOL0     H70172  -1.269   8.408   9.598 -1.1787 -1.2467 -0.3020
  532MOL0     H70173  -1.244   8.471   9.294 -0.8371 -0.6965 -0.7655
  532MOL0     H70174  -1.309   8.332   9.364 -0.9616  0.8165  0.5103
  532MOL0     H70175  -1.410   8.609   9.434  1.2553  0.4221 -2.7913
  532MOL0     H70176  -1.476   8.443   9.474 -0.4632 -3.3736 -1.3191
  532MOL0     H70177  -1.430   8.722   9.213 -3.7372  2.7261 -0.5215
  532MOL0     H70178  -1.657   8.705   8.920 -1.2165  3.1667 -1.2354
  532MOL0     H70179  -1.582   8.825   9.042  0.9858 -0.2999 -0.9392
  532MOL0     H70180  -1.787   8.870   9.140  0.6596 -2.9928  1.2227
  532MOL0     H70181  -1.864   8.726   9.075  0.4620 -0.9771 -0.8416
  532MOL0     H70182  -1.793   8.991   8.931 -0.7595  0.2011  1.9384
  532MOL0     H70183  -1.816   8.847   8.828 -0.2555  2.0514 -1.6920
  532MOL0     H70184  -2.015   8.985   9.009  1.1803 -0.2021  0.9683
  532MOL0     H70185  -2.039   8.814   8.954  0.1615  0.7714  0.5964
  532MOL0     H70186  -2.217   9.140   8.905  0.9954 -0.4966  0.9488
  532MOL0     H70187  -2.453   9.111   8.908  1.0488 -0.1726  2.2113
  532MOL0     H70188  -2.773   8.578   8.735  0.1638  0.1062 -0.0553
  532MOL0     H70189  -3.029   8.525   8.699 -0.1198 -0.0871  1.0271
  532MOL0     H70190  -3.297   8.573   8.728 -0.5407  1.7429  1.1832
  532MOL0     H70191  -3.211   8.538   8.565 -2.0697 -1.6624 -1.1096
  532MOL0     H70192  -3.444   8.537   8.508 -2.2252  1.2090 -1.2262
  532MOL0     H70193  -3.391   8.687   8.455 -1.4050 -0.6346  0.0422
  532MOL0     H70194  -3.566   8.771   8.586  0.7883 -0.1115 -1.3782
  532MOL0     H70195  -3.423   8.792   8.695  0.4573 -2.2444  2.2376
  532MOL0     H70196  -3.594   8.542   8.710  1.5020 -0.0999 -1.4522
  532MOL0     H70197  -3.470   8.600   8.829 -1.0895  2.0098  2.2511
  532MOL0     H70198  -3.709   8.765   8.757  0.4970  0.7813 -0.1217
  532MOL0     H70199  -3.588   8.803   8.882 -0.1879 -1.3643  4.2696
  532MOL0     H70200  -3.657   8.600   9.001 -0.0465  0.5086 -1.2262
  532MOL0     H70201  -3.767   8.554   8.863 -0.1227 -0.4559 -1.3717
  532MOL0     H70202  -3.784   8.811   9.047 -1.6661  0.8205 -1.4580
  532MOL0     H70203  -3.879   8.782   8.913  0.0104  0.6776  1.3684
  532MOL0     H70204  -4.004   8.721   9.131 -1.1771 -0.8318  0.5363
  532MOL0     H70205  -3.868   8.600   9.171 -0.6522 -1.3570 -0.0911
  532MOL0     H70206  -3.083   8.949   8.643  2.4880  1.0077 -0.6797
  532MOL0     H70207  -2.864   8.993   8.687  0.2445 -1.0655 -1.8152
  532MOL0     H70208  -2.424   8.742   8.692 -1.9660  0.2568 -0.9314
  532MOL0     H70209  -2.175   8.767   8.695  1.4755 -0.9661  1.6185
  532MOL0     H70210  -0.571   8.057   9.536  1.2466 -1.3602  0.7413
  532MOL0     H70211  -0.374   7.915   9.587  3.0660 -0.8323  1.6386
  532MOL0     H70212   0.253   8.044   9.607 -0.4232 -0.3348 -0.4727
  532MOL0     H70213   0.428   7.878   9.681 -1.1585  3.5360  0.4481
  532MOL0     H70214   0.505   7.737   9.839 -0.0036 -0.0469 -0.5016
  532MOL0     H70215   0.549   7.669   9.681 -0.2177  0.1259  1.1476
  532MOL0     H70216   0.568   7.454   9.757  0.6965 -3.6575  1.4279
  532MOL0     H70217   0.672   7.554   9.862  0.5089 -2.6009  0.0839
  532MOL0     H70218   0.568   7.391   9.994 -0.4654 -0.5029  0.2747
  532MOL0     H70219   0.420   7.412   9.910  0.5842 -1.6075 -0.6651
  532MOL0     H70220   0.401   7.644  10.019 -1.4402 -2.1588 -2.5034
  532MOL0     H70221   0.413   7.514  10.150 -0.1418  0.5465 -0.8931
  532MOL0     H70222   0.744   7.756  10.213 -0.5716  1.0848  0.2719
  532MOL0     H70223   0.116   7.583   9.710 -0.2526 -0.9945 -4.7832
  532MOL0     H70224  -0.052   7.758   9.641  0.1277  1.2034 -1.5911
  533MOL0     O70225   5.679   8.090  10.774 -0.5441 -0.0525 -0.0905
  533MOL0     C70226   5.775   8.153  10.801 -1.2268 -0.6630  0.3334
  533MOL0     O70227   5.804   8.208  10.925  0.0413 -0.0063  0.4338
  533MOL0     C70228   5.702   8.250  11.008 -0.7127  0.1908 -0.1972
  533MOL0     C70229   5.565   8.257  10.984  0.2677  0.4446 -0.5886
  533MOL0     C70230   5.469   8.287  11.074 -0.7203  0.2917 -0.5544
  533MOL0     C70231   5.516   8.336  11.200 -0.4749 -0.5293 -0.0746
  533MOL0     O70232   5.441   8.346  11.306  0.0214  0.2778 -0.3841
  533MOL0     C70233   5.331   8.433  11.276 -0.1253 -0.9013 -0.2096
  533MOL0     C70234   5.280   8.485  11.409  0.1045  0.6216 -0.8407
  533MOL0     C70235   5.159   8.587  11.406 -0.3617  0.4241 -0.3046
  533MOL0     C70236   5.019   8.531  11.386 -0.5852  0.0885  0.5692
  533MOL0     C70237   4.919   8.635  11.351  0.1442 -0.3366 -0.0816
  533MOL0     C70238   4.777   8.582  11.356  0.9045  0.2498  0.2263
  533MOL0     C70239   4.672   8.693  11.332 -0.2850 -0.7356 -0.6725
  533MOL0     C70240   4.556   8.657  11.249  0.2095  0.7799  0.9137
  533MOL0     N70241   4.446   8.758  11.237 -0.2585  0.1681  0.6176
  533MOL0     C70242   4.400   8.841  11.333 -0.1696  0.3952  0.0567
  533MOL0     C70243   4.296   8.911  11.282 -0.1220  0.1205 -0.1544
  533MOL0     C70244   4.217   9.012  11.356 -0.1327  0.4143  1.0002
  533MOL0     C70245   4.294   9.148  11.332 -0.4868 -0.7330 -0.4077
  533MOL0     C70246   4.398   9.165  11.445 -0.4155  0.4316  0.2817
  533MOL0     C70247   4.526   9.224  11.397 -0.9262 -0.6327  0.1541
  533MOL0     O70248   4.586   9.128  11.314 -0.3957 -0.3091 -0.5640
  533MOL0     C70249   4.721   9.130  11.277  0.0189 -0.3610 -0.3130
  533MOL0     C70250   4.757   9.012  11.199 -0.0701 -0.1456  0.3243
  533MOL0     C70251   4.882   9.000  11.138 -0.5318 -0.0386  0.2010
  533MOL0     C70252   4.984   9.102  11.161 -0.6291  0.1237  0.7490
  533MOL0     C70253   5.128   9.087  11.118 -0.2057  0.9501  0.2913
  533MOL0     O70254   5.215   9.197  11.146 -0.6453  0.5292  0.2161
  533MOL0     C70255   5.342   9.207  11.104 -0.4047 -1.1185  0.7117
  533MOL0     C70256   5.412   9.124  11.017  0.0720 -0.9413 -0.1624
  533MOL0     C70257   5.549   9.154  10.984  0.2706 -0.2915  0.9162
  533MOL0     C70258   5.610   9.261  11.045 -0.7347 -0.3507 -0.1200
  533MOL0     O70259   5.746   9.292  11.036  0.4894 -0.2326 -0.8840
  533MOL0     C70260   5.844   9.209  10.969  0.7676 -0.4780  0.1915
  533MOL0     C70261   5.988   9.275  10.987 -0.2859  0.0345  0.6510
  533MOL0     C70262   6.016   9.347  11.126  0.0392 -0.3732 -0.3372
  533MOL0     C70263   6.020   9.248  11.240  0.6205 -0.0595 -0.7824
  533MOL0     C70264   6.032   9.319  11.386 -0.3606  0.0808 -0.6869
  533MOL0     C70265   5.891   9.368  11.432 -0.7825 -1.0479  0.4028
  533MOL0     C70266   5.795   9.258  11.458  0.2592  0.0899  1.1108
  533MOL0     C70267   5.688   9.326  11.551 -0.0783 -0.5057  0.0695
  533MOL0    Cl70268   5.567   9.415  11.469  0.5150  0.0658  0.3752
  533MOL0     C70269   5.540   9.338  11.143  0.4649  0.7215  0.2180
  533MOL0     C70270   5.414   9.311  11.174  0.0377  0.0664 -0.5906
  533MOL0     O70271   5.155   8.991  11.047  0.4306  0.5097 -0.2206
  533MOL0     C70272   4.944   9.216  11.246 -0.9139  0.0158 -0.2149
  533MOL0     C70273   4.819   9.229  11.304  0.9136  0.4778  0.4880
  533MOL0     N70274   4.279   8.860  11.153  0.3792  0.1758  0.4481
  533MOL0     N70275   4.365   8.775  11.127 -0.2615 -0.1099 -1.0458
  533MOL0     C70276   5.654   8.341  11.232  0.1518 -0.1270  0.6621
  533MOL0     C70277   5.743   8.293  11.135 -0.3622  0.6719  0.3471
  533MOL0     C70278   5.900   8.132  10.710  0.0469  0.1357  0.2738
  533MOL0     C70279   5.885   8.081  10.578 -0.2877 -0.5503 -0.0905
  533MOL0     C70280   6.002   8.064  10.500  0.4384  0.1372 -0.1962
  533MOL0     C70281   6.131   8.096  10.556  0.7276  0.0887  0.2663
  533MOL0     O70282   6.247   8.111  10.486  1.3484  0.1363  0.1815
  533MOL0     C70283   6.258   8.071  10.343 -0.3391 -0.5043 -0.4851
  533MOL0     C70284   6.407   8.074  10.303  0.2215  0.0352 -0.4213
  533MOL0     C70285   6.468   8.213  10.291  0.4471  0.1205  0.6183
  533MOL0     C70286   6.615   8.198  10.246 -0.1054 -0.0473  0.9584
  533MOL0     C70287   6.673   8.332  10.222 -1.1596 -0.5141 -0.3632
  533MOL0     C70288   6.711   8.448  10.210 -0.1542  0.4385 -0.0962
  533MOL0     C70289   6.142   8.147  10.684 -0.0555 -0.1696 -0.8852
  533MOL0     C70290   6.027   8.173  10.763  1.2285 -0.2673  0.8086
  533MOL0     H70291   5.518   8.233  10.889  2.3190  0.3403 -1.6416
  533MOL0     H70292   5.361   8.281  11.064 -0.6662  1.5275 -2.3498
  533MOL0     H70293   5.252   8.382  11.220 -1.7265  1.0738  0.1595
  533MOL0     H70294   5.359   8.516  11.211  0.0186 -1.7750 -1.2997
  533MOL0     H70295   5.359   8.526  11.472 -0.2682 -0.8704  0.6658
  533MOL0     H70296   5.249   8.391  11.457 -0.3677  0.7940 -0.8074
  533MOL0     H70297   5.182   8.669  11.338 -0.7137  0.9702  0.2228
  533MOL0     H70298   5.154   8.634  11.505 -2.9653  2.2297 -1.2133
  533MOL0     H70299   5.013   8.457  11.305 -0.8227 -2.4018  2.7475
  533MOL0     H70300   4.993   8.482  11.480  0.6256 -0.1837  0.7850
  533MOL0     H70301   4.938   8.663  11.247  1.4217  2.7644  0.8745
  533MOL0     H70302   4.918   8.721  11.418  1.0035  0.2861 -0.8391
  533MOL0     H70303   4.760   8.520  11.444  2.4790 -0.4907  0.0391
  533MOL0     H70304   4.773   8.506  11.277 -0.4225 -1.7676  2.1299
  533MOL0     H70305   4.633   8.721  11.431 -1.8290 -0.1411 -1.4149
  533MOL0     H70306   4.706   8.776  11.270 -0.9615 -1.5915 -2.2506
  533MOL0     H70307   4.516   8.564  11.290 -2.8720  1.1649 -0.8902
  533MOL0     H70308   4.581   8.651  11.143 -2.3900  2.1108  0.1493
  533MOL0     H70309   4.448   8.835  11.431  1.0512 -0.4565 -0.5732
  533MOL0     H70310   4.202   8.983  11.460  1.1841  0.8950  1.3425
  533MOL0     H70311   4.123   9.019  11.301  0.2588 -0.6574  0.1466
  533MOL0     H70312   4.226   9.234  11.342  0.2917 -0.0215 -1.1297
  533MOL0     H70313   4.330   9.148  11.229 -3.9292 -0.3646 -1.7511
  533MOL0     H70314   4.347   9.218  11.527 -1.2964 -1.9011  1.3227
  533MOL0     H70315   4.428   9.068  11.485 -0.5122 -0.3053 -1.3608
  533MOL0     H70316   4.587   9.245  11.485 -1.4211  2.3950 -0.1076
  533MOL0     H70317   4.515   9.315  11.338  2.1218 -0.6505 -0.5727
  533MOL0     H70318   4.681   8.942  11.166  0.7914 -1.6039  1.3196
  533MOL0     H70319   4.891   8.919  11.066 -1.5121  0.8380 -0.9400
  533MOL0     H70320   5.351   9.049  10.967  0.6264 -2.6428  1.5672
  533MOL0     H70321   5.605   9.098  10.909  2.2211  2.1546  0.4379
  533MOL0     H70322   5.824   9.176  10.867  0.0421 -2.6538  0.9897
  533MOL0     H70323   5.856   9.116  11.025  3.6197  0.2333  0.9027
  533MOL0     H70324   5.994   9.353  10.910 -2.5568 -0.9669 -0.6511
  533MOL0     H70325   6.064   9.202  10.960 -0.8165 -0.5956  0.8333
  533MOL0     H70326   5.933   9.414  11.148 -0.7422 -1.8313  1.4362
  533MOL0     H70327   6.104   9.410  11.108  0.8714 -1.3828  0.1235
  533MOL0     H70328   5.933   9.182  11.239 -1.0234  1.9668  0.9600
  533MOL0     H70329   6.106   9.182  11.226  0.0140 -1.6563  2.1854
  533MOL0     H70330   6.106   9.399  11.386 -0.8583  0.6591 -3.6227
  533MOL0     H70331   6.064   9.244  11.459  0.1919  0.2128 -0.7925
  533MOL0     H70332   5.847   9.445  11.368 -1.8420  1.4957  3.9057
  533MOL0     H70333   5.910   9.437  11.515  0.9524 -0.4620 -0.4341
  533MOL0     H70334   5.749   9.231  11.362  1.5568 -1.4558  0.8703
  533MOL0     H70335   5.844   9.168  11.497  1.0037 -0.3336 -0.6956
  533MOL0     H70336   5.727   9.395  11.627 -0.0743  0.1806 -0.5419
  533MOL0     H70337   5.638   9.248  11.608  0.0960 -0.0749  0.8234
  533MOL0     H70338   5.587   9.415  11.204  0.0209  0.7816  0.4865
  533MOL0     H70339   5.352   9.382  11.229  1.3968  0.5591  0.3582
  533MOL0     H70340   5.018   9.286  11.282  0.4557 -2.1110  1.3670
  533MOL0     H70341   4.810   9.313  11.372  1.7815  1.6082 -0.7323
  533MOL0     H70342   5.670   8.382  11.332  0.2307 -1.9988  1.4491
  533MOL0     H70343   5.848   8.285  11.164 -0.7526 -0.4354  1.5529
  533MOL0     H70344   5.784   8.047  10.558 -0.3185 -1.4920  1.5175
  533MOL0     H70345   5.986   8.022  10.402  0.7260  1.6957 -0.9442
  533MOL0     H70346   6.197   8.145  10.291 -0.1965  1.8949  2.5034
  533MOL0     H70347   6.214   7.972  10.329 -1.0884 -0.4569  1.2824
  533MOL0     H70348   6.464   8.015  10.377 -0.1158 -0.3440 -0.4647
  533MOL0     H70349   6.419   8.014  10.212  0.8641 -0.5388  0.0216
  533MOL0     H70350   6.467   8.252  10.394  0.0227  0.0036  0.6582
  533MOL0     H70351   6.410   8.272  10.220  2.3181 -0.3367 -1.4015
  533MOL0     H70352   6.671   8.143  10.321  2.0420  0.2817 -0.3240
  533MOL0     H70353   6.621   8.145  10.150 -4.5776 -1.9644  1.4762
  533MOL0     H70354   6.741   8.549  10.192  0.5013  0.0405 -1.3239
  533MOL0     H70355   6.242   8.167  10.722  0.0816 -1.8146 -0.2894
  533MOL0     H70356   6.026   8.221  10.860 -2.4433 -1.3934  1.4921
  534MOL0     O70357   3.363   0.118   0.017 -0.7775  0.2519  0.7887
  534MOL0     C70358   3.386   0.206  -0.076  0.0321  0.0408 -1.0778
  534MOL0     O70359   3.283   0.277  -0.132  0.1463 -0.4311  0.4591
  534MOL0     C70360   3.155   0.262  -0.089  0.5714  0.4733  0.1363
  534MOL0     C70361   3.093   0.135  -0.096  0.8857 -0.3109 -0.3502
  534MOL0     C70362   2.955   0.126  -0.075  0.3334  0.2001 -0.4586
  534MOL0     C70363   2.873   0.236  -0.051  0.2071  0.9324  0.3535
  534MOL0     O70364   2.740   0.241  -0.018  0.3367 -0.3074  0.3392
  534MOL0     C70365   2.668   0.124  -0.053 -0.6804  0.1432  0.9700
  534MOL0     C70366   2.521   0.154  -0.051 -0.9065  0.6964 -1.1480
  534MOL0     C70367   2.476   0.248  -0.170 -0.3267 -0.9703 -0.5628
  534MOL0     C70368   2.325   0.252  -0.168  1.6879  0.1364 -0.2531
  534MOL0     C70369   2.265   0.367  -0.262 -0.8286  0.3530  0.7077
  534MOL0     C70370   2.117   0.373  -0.254 -0.2885 -0.2279  0.2380
  534MOL0     C70371   2.069   0.487  -0.345 -0.6170 -0.0808  0.0254
  534MOL0     C70372   1.920   0.514  -0.352  0.5177 -0.1201  0.7392
  534MOL0     N70373   1.861   0.393  -0.410  0.0655 -0.6101  0.4710
  534MOL0     C70374   1.870   0.361  -0.542 -0.1469 -0.5228 -0.7727
  534MOL0     C70375   1.803   0.244  -0.565  0.1431 -0.8623 -0.4379
  534MOL0     C70376   1.792   0.181  -0.695 -0.6051  0.7966 -0.0191
  534MOL0     C70377   1.797   0.287  -0.818  0.0477  0.7665 -0.0465
  534MOL0     C70378   1.780   0.225  -0.957  0.4370  0.8781  0.2998
  534MOL0     C70379   1.628   0.214  -0.988  0.8782  0.0924  0.1306
  534MOL0     O70380   1.574   0.345  -1.005 -0.3396  0.4308  0.2516
  534MOL0     C70381   1.441   0.367  -0.996 -0.1952 -0.5647  0.1338
  534MOL0     C70382   1.378   0.490  -0.969 -0.1657  0.5780 -0.2387
  534MOL0     C70383   1.240   0.496  -0.959  0.0592 -0.3487 -0.3740
  534MOL0     C70384   1.157   0.386  -0.979  0.0215 -0.5890 -0.7677
  534MOL0     C70385   1.010   0.405  -0.977 -0.6945 -0.2444  0.7543
  534MOL0     O70386   0.929   0.299  -0.983 -0.5565 -0.0952 -0.5312
  534MOL0     C70387   0.795   0.303  -0.958  0.6833  1.6035  0.2575
  534MOL0     C70388   0.731   0.375  -0.850  0.1751  0.5025  0.1519
  534MOL0     C70389   0.598   0.348  -0.817 -0.8306  0.0690 -0.2431
  534MOL0     C70390   0.529   0.250  -0.886  0.6098 -0.9164  0.3596
  534MOL0     O70391   0.405   0.200  -0.847  0.1518  0.3594 -0.4690
  534MOL0     C70392   0.365   0.211  -0.710 -0.2986  0.9727  0.8246
  534MOL0     C70393   0.315   0.073  -0.671  0.9356 -0.1980 -0.2644
  534MOL0     C70394   0.433  -0.029  -0.651 -0.0595 -0.3530 -1.5387
  534MOL0     C70395   0.406  -0.147  -0.561  0.5365 -0.0999 -0.4603
  534MOL0     C70396   0.511  -0.265  -0.580 -0.6754 -0.4757  0.3094
  534MOL0     C70397   0.652  -0.218  -0.521  0.1748 -0.3314  1.1017
  534MOL0     C70398   0.762  -0.335  -0.540  0.2629 -0.3764  0.3179
  534MOL0     C70399   0.800  -0.358  -0.690 -0.0701 -0.5680 -0.6810
  534MOL0    Cl70400   0.909  -0.495  -0.701  0.4229 -0.0831 -0.4374
  534MOL0     C70401   0.589   0.181  -0.990 -0.1350 -0.6456  0.4985
  534MOL0     C70402   0.720   0.198  -1.019  0.0245 -0.9689 -0.3090
  534MOL0     O70403   0.972   0.522  -0.971 -0.1270  0.8571 -0.3805
  534MOL0     C70404   1.223   0.271  -1.027 -0.2220  0.7271 -0.0510
  534MOL0     C70405   1.357   0.257  -1.021 -0.1561 -0.6966 -0.4949
  534MOL0     N70406   1.748   0.206  -0.443  0.8572 -0.2515 -0.1080
  534MOL0     N70407   1.791   0.289  -0.355 -0.3142 -0.2320 -0.2120
  534MOL0     C70408   2.936   0.357  -0.049 -0.6394  0.2229  0.2269
  534MOL0     C70409   3.071   0.375  -0.063 -0.4666 -0.1804  0.1248
  534MOL0     C70410   3.523   0.239  -0.124 -0.4082  0.3319  0.7180
  534MOL0     C70411   3.636   0.178  -0.065  0.0388 -0.2920  0.7768
  534MOL0     C70412   3.760   0.214  -0.104  0.2362  0.0306 -0.1880
  534MOL0     C70413   3.778   0.301  -0.211 -0.7119 -0.7968  0.6243
  534MOL0     O70414   3.903   0.350  -0.248  0.1113  0.1216  0.1080
  534MOL0     C70415   4.015   0.364  -0.162 -0.4083  0.4850  0.1554
  534MOL0     C70416   4.138   0.379  -0.261  0.6456 -0.5899 -0.4956
  534MOL0     C70417   4.125   0.528  -0.300  1.0592  0.2002  0.3497
  534MOL0     C70418   4.222   0.562  -0.416  0.2955 -0.1160 -0.2796
  534MOL0     C70419   4.358   0.527  -0.385  0.2293 -0.5939  0.1251
  534MOL0     C70420   4.476   0.491  -0.369  0.0548 -0.0867  0.2252
  534MOL0     C70421   3.670   0.354  -0.280 -0.6450  0.4092  0.9355
  534MOL0     C70422   3.542   0.325  -0.240 -0.1675  0.9628  1.1451
  534MOL0     H70423   3.156   0.050  -0.118  1.1920 -0.8325  2.1792
  534MOL0     H70424   2.917   0.026  -0.093 -0.6983  0.7581 -1.4997
  534MOL0     H70425   2.690   0.043   0.017 -0.1682  0.2366  0.9146
  534MOL0     H70426   2.698   0.087  -0.152 -2.1021  0.2225  0.4828
  534MOL0     H70427   2.489   0.192   0.046 -1.9499 -0.0263 -1.2001
  534MOL0     H70428   2.461   0.064  -0.064 -2.9192  2.1896 -3.0152
  534MOL0     H70429   2.522   0.232  -0.268 -0.2568  0.9330 -0.8720
  534MOL0     H70430   2.508   0.351  -0.151  0.5541 -1.6762  2.2926
  534MOL0     H70431   2.298   0.158  -0.218  0.2721  0.9662 -1.1369
  534MOL0     H70432   2.284   0.270  -0.068  0.3210  0.9449 -0.9314
  534MOL0     H70433   2.285   0.342  -0.366 -1.6683 -1.3442  0.9162
  534MOL0     H70434   2.298   0.463  -0.222 -0.7434  1.0821 -1.0280
  534MOL0     H70435   2.099   0.402  -0.150 -3.1513 -0.3569 -0.1486
  534MOL0     H70436   2.064   0.281  -0.281 -1.1671 -0.4009  2.3853
  534MOL0     H70437   2.130   0.578  -0.335 -1.2783  0.7066 -2.4890
  534MOL0     H70438   2.102   0.462  -0.446  0.6903  1.9810 -0.1320
  534MOL0     H70439   1.908   0.603  -0.414  0.1817 -1.3227 -0.9941
  534MOL0     H70440   1.885   0.524  -0.249 -0.3887 -0.0609  0.4325
  534MOL0     H70441   1.917   0.423  -0.618  0.6321 -0.8826 -0.5931
  534MOL0     H70442   1.694   0.135  -0.711 -0.2204  0.6605 -2.3610
  534MOL0     H70443   1.873   0.109  -0.712  0.2182  1.8092 -0.5202
  534MOL0     H70444   1.898   0.329  -0.814  0.3097  0.2782 -1.2731
  534MOL0     H70445   1.731   0.374  -0.818 -2.2554 -0.8091 -3.2044
  534MOL0     H70446   1.828   0.284  -1.036  0.6176 -1.0739 -1.1451
  534MOL0     H70447   1.834   0.130  -0.967 -1.9024 -0.7416  2.1111
  534MOL0     H70448   1.574   0.156  -0.912  1.4252  1.7958  1.9017
  534MOL0     H70449   1.609   0.161  -1.081 -1.7950  2.5228 -0.8723
  534MOL0     H70450   1.437   0.581  -0.958  0.6493  0.6538 -3.9646
  534MOL0     H70451   1.198   0.586  -0.916 -0.1416  0.5265 -2.3137
  534MOL0     H70452   0.792   0.441  -0.789 -1.3906  2.9101 -0.7647
  534MOL0     H70453   0.545   0.409  -0.744 -1.9196 -0.6082 -0.4434
  534MOL0     H70454   0.287   0.288  -0.712 -3.5868 -2.0065 -2.9003
  534MOL0     H70455   0.445   0.254  -0.648  1.3977  0.4120 -0.8860
  534MOL0     H70456   0.242   0.043  -0.747 -2.2959  1.2660  2.0231
  534MOL0     H70457   0.261   0.082  -0.577  0.1283 -2.6263 -0.4171
  534MOL0     H70458   0.516   0.027  -0.607 -1.7832 -0.9977  3.1006
  534MOL0     H70459   0.452  -0.064  -0.753  2.1730  0.9090 -1.6117
  534MOL0     H70460   0.408  -0.110  -0.458  0.8280 -2.3322  0.3900
  534MOL0     H70461   0.306  -0.191  -0.566 -0.3126  1.7279 -0.3868
  534MOL0     H70462   0.514  -0.286  -0.687 -0.0559  2.5441 -0.3493
  534MOL0     H70463   0.480  -0.353  -0.522 -0.7858 -1.1947 -0.8149
  534MOL0     H70464   0.643  -0.202  -0.414 -4.4335  0.2192  0.8374
  534MOL0     H70465   0.679  -0.127  -0.576 -1.8753  0.3458  1.1421
  534MOL0     H70466   0.856  -0.295  -0.501  0.1389 -0.0863  0.3279
  534MOL0     H70467   0.727  -0.427  -0.494 -0.6429  0.1962  0.8181
  534MOL0     H70468   0.839  -0.266  -0.735  0.0953 -0.0294  0.5335
  534MOL0     H70469   0.714  -0.388  -0.751  0.9786 -1.1791 -1.9164
  534MOL0     H70470   0.545   0.093  -1.035 -0.8710  1.0752 -2.4183
  534MOL0     H70471   0.775   0.130  -1.083  0.8054  0.5962 -1.3789
  534MOL0     H70472   1.155   0.187  -1.040  0.6056 -0.3060  1.8520
  534MOL0     H70473   1.397   0.159  -1.044  2.6128  0.0610  0.6652
  534MOL0     H70474   2.874   0.440  -0.017  2.6089  2.1017  2.0706
  534MOL0     H70475   3.115   0.473  -0.050 -2.3522  0.5414  1.5532
  534MOL0     H70476   3.627   0.118   0.025  1.8125 -0.5598  0.8125
  534MOL0     H70477   3.846   0.166  -0.057  0.2099  0.3952  0.2424
  534MOL0     H70478   4.041   0.276  -0.101  3.5048  1.7400  0.5771
  534MOL0     H70479   4.006   0.447  -0.091  1.9380 -1.2355  2.6987
  534MOL0     H70480   4.228   0.360  -0.201 -0.4675 -0.1634  1.3862
  534MOL0     H70481   4.128   0.316  -0.350 -0.4341 -0.3063 -0.5938
  534MOL0     H70482   4.140   0.583  -0.206 -4.6146 -2.3842  3.2660
  534MOL0     H70483   4.021   0.548  -0.327  1.3245 -0.5375 -1.3233
  534MOL0     H70484   4.177   0.522  -0.507 -3.4164 -0.9551  1.7147
  534MOL0     H70485   4.204   0.669  -0.429 -2.3589  0.0792  3.3017
  534MOL0     H70486   4.575   0.452  -0.357 -0.1277 -1.1848 -1.4161
  534MOL0     H70487   3.695   0.416  -0.365  0.1716 -0.7088  0.3406
  534MOL0     H70488   3.468   0.377  -0.300  1.1824  1.9974  0.3136
  535MOL0     O70489   8.824   0.383   4.965 -0.3109 -0.1023 -1.0299
  535MOL0     C70490   8.777   0.487   5.001  0.2612  0.4628 -0.4247
  535MOL0     O70491   8.845   0.595   5.052 -0.1248 -0.0818  0.7425
  535MOL0     C70492   8.985   0.602   5.033  0.9318 -0.0097 -0.7696
  535MOL0     C70493   9.068   0.541   4.934  0.1877  1.0288 -0.1909
  535MOL0     C70494   9.208   0.582   4.927  0.3851 -0.2366  0.9299
  535MOL0     C70495   9.260   0.690   5.014 -0.5496  0.9147  0.9843
  535MOL0     O70496   9.389   0.740   5.005 -0.7100  0.7696 -0.3555
  535MOL0     C70497   9.459   0.732   5.130 -0.1959  0.0129  0.2641
  535MOL0     C70498   9.607   0.744   5.103 -0.5204 -0.2641  0.3330
  535MOL0     C70499   9.654   0.607   5.039 -0.0005  0.8723 -0.0458
  535MOL0     C70500   9.808   0.585   5.019  0.4627 -0.1955  0.4202
  535MOL0     C70501   9.805   0.463   4.919  0.4276 -0.1211  0.3223
  535MOL0     C70502   9.946   0.433   4.870 -0.9504  0.4303  0.4403
  535MOL0     C70503   9.962   0.314   4.774  0.3093  0.3690  0.8805
  535MOL0     C70504  10.100   0.322   4.702 -0.1295  0.7401  0.3707
  535MOL0     N70505  10.212   0.370   4.791 -0.2215  0.2692 -0.1307
  535MOL0     C70506  10.244   0.323   4.912  0.2365  0.2674 -0.5218
  535MOL0     C70507  10.353   0.388   4.943  0.2940  0.1321 -0.8057
  535MOL0     C70508  10.407   0.374   5.081  0.1124 -0.4153 -0.7700
  535MOL0     C70509  10.303   0.436   5.179  1.1319  0.5511 -0.4942
  535MOL0     C70510  10.341   0.417   5.324  1.1213  0.3524  0.4177
  535MOL0     C70511  10.234   0.463   5.418  0.5989 -0.4820 -0.1453
  535MOL0     O70512  10.115   0.389   5.385  0.5689  0.5510 -0.3861
  535MOL0     C70513   9.999   0.450   5.412  0.9630 -0.9894  0.0805
  535MOL0     C70514   9.914   0.400   5.508  1.6689 -0.1559 -0.9470
  535MOL0     C70515   9.786   0.456   5.540 -0.8487  0.7928 -0.6387
  535MOL0     C70516   9.755   0.573   5.475  1.3409  0.3214 -0.8774
  535MOL0     C70517   9.605   0.617   5.486 -0.3437 -0.3591 -0.0412
  535MOL0     O70518   9.507   0.519   5.484 -0.1181 -0.5016  0.8971
  535MOL0     C70519   9.378   0.567   5.517 -0.2875  0.4905 -0.2938
  535MOL0     C70520   9.272   0.505   5.445 -0.1615 -0.3508 -0.3144
  535MOL0     C70521   9.146   0.553   5.456 -0.1984  0.3137 -0.8234
  535MOL0     C70522   9.111   0.669   5.527  0.6642  0.7761 -1.1440
  535MOL0     O70523   8.988   0.723   5.551  0.7861 -0.9955  0.4949
  535MOL0     C70524   8.868   0.637   5.533 -0.5981 -0.3765  0.1447
  535MOL0     C70525   8.756   0.732   5.491  1.5664 -0.2319  0.1657
  535MOL0     C70526   8.628   0.648   5.459 -0.2775  0.4014 -0.7589
  535MOL0     C70527   8.504   0.727   5.413  0.6698 -0.9202  0.2113
  535MOL0     C70528   8.394   0.635   5.362 -0.3124 -0.0005 -0.0682
  535MOL0     C70529   8.329   0.549   5.474  0.4851  0.1655 -0.7735
  535MOL0     C70530   8.234   0.640   5.550  0.4086 -0.4333  0.5897
  535MOL0     C70531   8.132   0.559   5.632 -0.0130 -0.9502  0.6576
  535MOL0    Cl70532   8.010   0.494   5.503 -0.7007  0.0562  0.2415
  535MOL0     C70533   9.211   0.710   5.614 -0.8488 -0.3088 -0.0371
  535MOL0     C70534   9.339   0.662   5.609 -0.1897 -0.2202 -0.4960
  535MOL0     O70535   9.591   0.738   5.478 -0.0692  0.0985 -0.0970
  535MOL0     C70536   9.845   0.633   5.381  0.5047  0.9452  0.2172
  535MOL0     C70537   9.959   0.567   5.349 -0.4623 -0.6571 -0.1865
  535MOL0     N70538  10.384   0.482   4.844  0.1111 -0.8907 -0.0024
  535MOL0     N70539  10.294   0.477   4.758 -0.2664  0.4276 -0.4073
  535MOL0     C70540   9.174   0.739   5.112  0.6658 -0.4918 -0.6328
  535MOL0     C70541   9.044   0.696   5.127  0.7355  0.7527 -0.2649
  535MOL0     C70542   8.626   0.503   4.984  0.7049  0.7249  0.4123
  535MOL0     C70543   8.540   0.422   4.913 -0.7179 -0.1020  0.0881
  535MOL0     C70544   8.404   0.446   4.891  0.3907  0.3322  0.5117
  535MOL0     C70545   8.352   0.567   4.936  0.5270 -0.1629  0.5148
  535MOL0     O70546   8.227   0.602   4.924  0.1739 -0.3344  0.3847
  535MOL0     C70547   8.119   0.505   4.902  0.3508 -0.2555  0.3334
  535MOL0     C70548   7.987   0.564   4.926  0.3026  0.2807  0.2161
  535MOL0     C70549   7.942   0.645   4.802  0.4957  0.4902  0.2158
  535MOL0     C70550   7.808   0.716   4.820 -0.9904  0.8317  0.1558
  535MOL0     C70551   7.700   0.615   4.802  0.0256 -0.6196  0.4396
  535MOL0     C70552   7.609   0.541   4.769 -0.1281  0.5428  0.0073
  535MOL0     C70553   8.429   0.643   5.008 -0.4872 -0.3008 -0.1869
  535MOL0     C70554   8.560   0.611   5.044 -0.0381  0.4808  0.2085
  535MOL0     H70555   9.042   0.458   4.870  2.1974 -0.9142  1.3253
  535MOL0     H70556   9.281   0.547   4.855 -0.1937  2.9541 -1.4436
  535MOL0     H70557   9.443   0.635   5.178 -0.5832  0.6327  1.4100
  535MOL0     H70558   9.434   0.808   5.204  0.7771 -0.2839  0.9237
  535MOL0     H70559   9.652   0.771   5.199 -1.8888  0.0878  0.8853
  535MOL0     H70560   9.639   0.825   5.037  0.8486 -0.2328  0.9852
  535MOL0     H70561   9.597   0.601   4.945  0.3862 -0.7445 -0.1920
  535MOL0     H70562   9.621   0.523   5.100  2.6505 -1.1468 -1.1764
  535MOL0     H70563   9.848   0.672   4.967  1.0955  0.0371  1.2763
  535MOL0     H70564   9.862   0.559   5.110  1.1222 -3.4489 -0.7809
  535MOL0     H70565   9.738   0.494   4.837 -2.6359  0.5953  2.8926
  535MOL0     H70566   9.757   0.374   4.961  1.4138 -0.2160  1.2884
  535MOL0     H70567  10.008   0.417   4.958  0.9817  0.9443 -0.7694
  535MOL0     H70568   9.984   0.515   4.807 -0.9861  0.7090  0.7792
  535MOL0     H70569   9.967   0.223   4.835 -0.6688  0.5392  1.2412
  535MOL0     H70570   9.885   0.310   4.697 -0.6903  0.9341  1.8163
  535MOL0     H70571  10.105   0.390   4.616  3.6730 -0.5241 -0.6090
  535MOL0     H70572  10.117   0.226   4.653  2.1741 -0.4255  3.1309
  535MOL0     H70573  10.182   0.255   4.971  0.0573 -0.7578 -1.8482
  535MOL0     H70574  10.497   0.436   5.077 -1.3142  1.9627  1.0415
  535MOL0     H70575  10.427   0.272   5.115  2.2395  1.1149  3.1007
  535MOL0     H70576  10.209   0.386   5.157  1.0606  1.3678 -2.1653
  535MOL0     H70577  10.294   0.541   5.150  1.7437  0.9448  0.6353
  535MOL0     H70578  10.355   0.312   5.353  2.8101  0.7238  1.0985
  535MOL0     H70579  10.431   0.478   5.333  0.3966  1.5149  0.0036
  535MOL0     H70580  10.233   0.570   5.396 -1.7287 -0.6237 -1.0269
  535MOL0     H70581  10.266   0.452   5.522  0.6279  0.1227 -0.0890
  535MOL0     H70582   9.931   0.299   5.544  1.1496 -1.4013 -3.9172
  535MOL0     H70583   9.711   0.420   5.610  1.7988 -1.1842  1.4031
  535MOL0     H70584   9.287   0.415   5.387 -0.5608 -0.1197 -0.7912
  535MOL0     H70585   9.072   0.498   5.398  2.1574 -3.4988 -0.4937
  535MOL0     H70586   8.850   0.577   5.623 -1.8070 -1.9461 -1.0979
  535MOL0     H70587   8.873   0.569   5.448  2.1055 -2.0996  1.5420
  535MOL0     H70588   8.794   0.791   5.407 -0.2872 -4.7636 -4.3711
  535MOL0     H70589   8.723   0.796   5.573 -0.6163 -2.4485  1.1280
  535MOL0     H70590   8.600   0.593   5.550  2.8881  0.5318  0.4134
  535MOL0     H70591   8.647   0.571   5.383 -0.8514 -1.5712  0.9947
  535MOL0     H70592   8.475   0.789   5.498 -1.9627 -0.5303 -0.8889
  535MOL0     H70593   8.537   0.798   5.337 -0.7543  1.2690  1.5236
  535MOL0     H70594   8.426   0.564   5.285  0.6170 -2.4637  2.4105
  535MOL0     H70595   8.310   0.685   5.314 -0.5774  0.0018  0.3956
  535MOL0     H70596   8.408   0.501   5.532  1.5439  2.3923 -0.2688
  535MOL0     H70597   8.271   0.469   5.428  2.9879 -1.8237 -0.6864
  535MOL0     H70598   8.288   0.695   5.628 -2.1597  3.3696 -0.0278
  535MOL0     H70599   8.185   0.717   5.489  1.7021  0.3849  0.5448
  535MOL0     H70600   8.080   0.606   5.716  0.4502  2.6517 -0.8967
  535MOL0     H70601   8.184   0.471   5.672 -0.2965 -0.4756  2.1402
  535MOL0     H70602   9.190   0.786   5.689  0.8443 -0.7119  0.8979
  535MOL0     H70603   9.416   0.707   5.672 -2.7898  0.8770  2.1345
  535MOL0     H70604   9.816   0.721   5.325 -2.7829 -0.0532  0.1628
  535MOL0     H70605  10.035   0.607   5.282 -0.2867 -2.3034 -1.0383
  535MOL0     H70606   9.207   0.817   5.179 -0.6133 -0.4530 -0.0287
  535MOL0     H70607   8.983   0.744   5.203  0.6667  1.3790 -0.7043
  535MOL0     H70608   8.577   0.327   4.877 -0.5390  0.7996 -2.2918
  535MOL0     H70609   8.334   0.382   4.838 -1.6989  0.8491  2.4845
  535MOL0     H70610   8.131   0.418   4.965  0.1383  0.4072  1.3092
  535MOL0     H70611   8.125   0.479   4.796 -0.4741  0.1431  0.1766
  535MOL0     H70612   7.926   0.473   4.932 -0.7934  1.0106  0.3431
  535MOL0     H70613   7.984   0.619   5.021  0.1096 -1.3502  1.1992
  535MOL0     H70614   7.939   0.578   4.717  0.9986  1.8752 -0.9340
  535MOL0     H70615   8.018   0.721   4.779  2.5171 -2.0276 -2.0810
  535MOL0     H70616   7.819   0.767   4.916  1.2832  1.3360 -0.3150
  535MOL0     H70617   7.794   0.784   4.735 -1.6911  0.1602 -0.2747
  535MOL0     H70618   7.538   0.472   4.729 -0.8646  0.4825  1.3736
  535MOL0     H70619   8.384   0.736   5.043 -2.1111 -1.0186 -0.2640
  535MOL0     H70620   8.613   0.661   5.124  3.5659 -1.6802 -0.6302
  536MOL0     O70621   9.983   5.794   0.621  0.2849 -0.1516 -0.7053
  536MOL0     C70622   9.999   5.737   0.727  0.2205  0.2790  0.5599
  536MOL0     O70623   9.901   5.704   0.819  0.1594  0.2053  0.2166
  536MOL0     C70624   9.764   5.727   0.810  1.2957  0.1329 -0.3306
  536MOL0     C70625   9.689   5.692   0.921  0.2803 -0.1816  0.1971
  536MOL0     C70626   9.543   5.719   0.920 -0.7410 -0.7778 -0.0561
  536MOL0     C70627   9.470   5.757   0.806  0.1584  0.2917  0.3870
  536MOL0     O70628   9.329   5.756   0.820  0.2234  0.1314 -0.9233
  536MOL0     C70629   9.239   5.810   0.716 -0.2443  0.2817 -0.1621
  536MOL0     C70630   9.093   5.755   0.716  0.8572 -0.5910  0.3025
  536MOL0     C70631   9.005   5.813   0.830 -0.4614 -0.5185 -0.9612
  536MOL0     C70632   9.065   5.764   0.965 -0.7409  0.4730 -0.2784
  536MOL0     C70633   8.974   5.773   1.090  0.1162  0.6949  0.9300
  536MOL0     C70634   8.848   5.680   1.102  0.1493  0.3222 -1.3620
  536MOL0     C70635   8.781   5.709   1.240  0.6850  0.6821  1.0807
  536MOL0     C70636   8.635   5.644   1.248  0.2736 -0.1477  1.0054
  536MOL0     N70637   8.536   5.703   1.334 -0.8235  0.2971  0.5164
  536MOL0     C70638   8.517   5.833   1.372  0.4996  0.0657 -0.1247
  536MOL0     C70639   8.386   5.847   1.402 -0.4676 -0.0222  0.1610
  536MOL0     C70640   8.320   5.973   1.431 -0.2109  0.6102 -0.6410
  536MOL0     C70641   8.173   5.951   1.454 -0.0799 -0.3743  0.1891
  536MOL0     C70642   8.145   5.887   1.593  0.3537  0.2237 -0.2566
  536MOL0     C70643   7.999   5.854   1.616  1.1163  0.2757 -0.8624
  536MOL0     O70644   7.943   5.968   1.694  0.7382  0.8095 -0.0345
  536MOL0     C70645   7.958   5.969   1.831  0.3219 -0.3101 -0.1843
  536MOL0     C70646   7.997   5.852   1.904 -0.0003  0.7963 -0.4325
  536MOL0     C70647   8.010   5.875   2.042  0.1819 -0.5829  0.0301
  536MOL0     C70648   7.972   5.990   2.111  0.4946 -0.0519  0.4252
  536MOL0     C70649   7.981   5.998   2.262 -0.5733  0.5502  1.1043
  536MOL0     O70650   8.077   5.923   2.326 -0.0159 -0.4108 -0.3478
  536MOL0     C70651   8.115   5.948   2.463  0.2500 -0.0882 -0.7196
  536MOL0     C70652   8.021   5.954   2.569 -1.4215  0.1654  0.1772
  536MOL0     C70653   8.064   5.980   2.696 -0.1338 -0.6272  0.6637
  536MOL0     C70654   8.199   5.991   2.725 -0.3225 -0.2000  0.8327
  536MOL0     O70655   8.255   6.023   2.849 -0.2636  0.3962 -0.9489
  536MOL0     C70656   8.182   6.106   2.928  0.6731  0.0760 -0.0229
  536MOL0     C70657   8.274   6.165   3.034  0.7189  0.2408  0.2103
  536MOL0     C70658   8.373   6.270   2.975  0.0705 -0.2470  0.4187
  536MOL0     C70659   8.494   6.301   3.058 -0.8823 -0.4408  0.6933
  536MOL0     C70660   8.464   6.370   3.195 -0.4120 -0.1718 -0.0213
  536MOL0     C70661   8.584   6.437   3.262  0.2503  0.8660 -0.4001
  536MOL0     C70662   8.546   6.503   3.397  0.0473  0.7964 -0.1510
  536MOL0     C70663   8.676   6.551   3.463 -0.5706 -0.0849 -0.6000
  536MOL0    Cl70664   8.754   6.414   3.560  0.1014  0.0457  0.6920
  536MOL0     C70665   8.296   5.962   2.623 -0.1660 -0.7906  0.3253
  536MOL0     C70666   8.254   5.954   2.494 -0.4819  1.1858 -0.4361
  536MOL0     O70667   7.891   6.059   2.318 -0.3601 -0.0748  0.1211
  536MOL0     C70668   7.915   6.093   2.035  0.3774  0.0827  0.3718
  536MOL0     C70669   7.910   6.089   1.899 -0.2689  0.2008  0.0117
  536MOL0     N70670   8.332   5.717   1.397  0.6977  0.0660 -0.5614
  536MOL0     N70671   8.423   5.632   1.359  0.2926 -0.3895 -0.7454
  536MOL0     C70672   9.549   5.784   0.692  1.2834  0.2564  0.0648
  536MOL0     C70673   9.692   5.770   0.693 -0.7790 -0.7844  0.2117
  536MOL0     C70674  10.134   5.727   0.766  0.1428 -0.2030 -0.8908
  536MOL0     C70675  10.168   5.694   0.898  0.6896 -0.4258 -0.6443
  536MOL0     C70676  10.301   5.670   0.935 -0.2929 -0.1429  0.5781
  536MOL0     C70677  10.404   5.694   0.848  0.3086 -0.3064 -0.7908
  536MOL0     O70678  10.534   5.663   0.880 -0.3600 -0.4126 -0.3454
  536MOL0     C70679  10.565   5.668   1.021  0.5560 -0.3712  0.0040
  536MOL0     C70680  10.584   5.534   1.075 -1.2833 -0.8260 -0.0236
  536MOL0     C70681  10.704   5.456   1.016  0.3047 -0.8976 -0.6262
  536MOL0     C70682  10.748   5.329   1.096 -0.7371 -0.1601 -0.0334
  536MOL0     C70683  10.842   5.366   1.213  0.3992 -0.7798 -0.1476
  536MOL0     C70684  10.915   5.388   1.304  0.2172 -1.1120  1.2300
  536MOL0     C70685  10.376   5.737   0.717  0.6990  0.4940  0.2929
  536MOL0     C70686  10.246   5.753   0.677 -0.2610 -0.8744  1.0338
  536MOL0     H70687   9.733   5.653   1.012 -0.3820 -3.0073 -0.5703
  536MOL0     H70688   9.483   5.699   1.008 -1.7640 -0.0361 -0.5571
  536MOL0     H70689   9.280   5.784   0.618  1.9561 -1.7219  1.1619
  536MOL0     H70690   9.233   5.917   0.738 -0.1172  0.4646 -0.9718
  536MOL0     H70691   9.094   5.647   0.704  2.5001 -0.3645 -2.6971
  536MOL0     H70692   9.060   5.798   0.621 -2.0614 -0.6805  1.1832
  536MOL0     H70693   8.900   5.783   0.833 -0.5632 -0.1315 -0.5487
  536MOL0     H70694   9.012   5.922   0.837 -0.5869 -0.6137  1.4406
  536MOL0     H70695   9.092   5.659   0.947  1.7931  1.4673 -3.2360
  536MOL0     H70696   9.158   5.819   0.983 -1.2803  1.3513 -0.1639
  536MOL0     H70697   8.932   5.874   1.081 -2.9667 -0.6523 -4.8680
  536MOL0     H70698   9.034   5.763   1.181  1.5383 -2.0297 -0.2002
  536MOL0     H70699   8.885   5.577   1.099 -2.3618 -1.0342  3.6169
  536MOL0     H70700   8.786   5.696   1.014  1.0980  1.4226 -1.8570
  536MOL0     H70701   8.849   5.672   1.318  2.9863  1.6378 -0.3631
  536MOL0     H70702   8.768   5.816   1.254 -1.6310  0.4121  1.4019
  536MOL0     H70703   8.638   5.541   1.286  2.2820 -0.0758  1.1838
  536MOL0     H70704   8.600   5.650   1.145 -2.8256 -2.6226  1.7502
  536MOL0     H70705   8.568   5.925   1.347  0.3276 -0.5883 -3.3391
  536MOL0     H70706   8.321   6.047   1.350 -0.1436  1.7307  0.3530
  536MOL0     H70707   8.364   6.021   1.518 -1.7823 -0.0889  0.6004
  536MOL0     H70708   8.140   5.895   1.366  2.1850  1.6557 -2.0867
  536MOL0     H70709   8.116   6.044   1.453 -0.2878 -0.4638 -2.7472
  536MOL0     H70710   8.204   5.796   1.604  1.9289  1.3475  1.0824
  536MOL0     H70711   8.181   5.951   1.674 -1.0370  0.0632  0.5329
  536MOL0     H70712   7.977   5.757   1.661  2.1042  1.1246  1.6362
  536MOL0     H70713   7.953   5.848   1.517  2.6067 -0.3890 -1.5482
  536MOL0     H70714   8.034   5.761   1.858 -0.2043 -1.9315  4.1521
  536MOL0     H70715   8.059   5.799   2.101  1.6533  1.1729  1.1468
  536MOL0     H70716   7.914   5.955   2.550 -1.3591 -0.9109 -0.2906
  536MOL0     H70717   7.997   5.995   2.780  1.2814  2.0394  1.4597
  536MOL0     H70718   8.110   6.035   2.970  0.0814 -1.0469 -2.7199
  536MOL0     H70719   8.118   6.182   2.881  0.2519 -0.7173 -0.7632
  536MOL0     H70720   8.320   6.083   3.090 -1.2121 -0.8895  0.2171
  536MOL0     H70721   8.218   6.214   3.113  1.1522  2.2786 -0.6704
  536MOL0     H70722   8.311   6.360   2.962  1.3199  0.8022  1.4372
  536MOL0     H70723   8.407   6.236   2.877 -0.3546  3.1417 -1.0519
  536MOL0     H70724   8.543   6.206   3.082 -0.5544  0.1650  2.5903
  536MOL0     H70725   8.560   6.361   2.994 -1.7268  1.1459  1.2686
  536MOL0     H70726   8.420   6.295   3.261  0.0481 -0.2994  0.1448
  536MOL0     H70727   8.395   6.453   3.176  0.0715  0.2898  0.1969
  536MOL0     H70728   8.624   6.515   3.196  2.4297 -0.7603 -1.1161
  536MOL0     H70729   8.659   6.360   3.276 -1.1784 -0.0761  3.3054
  536MOL0     H70730   8.486   6.590   3.370 -1.3139  0.4407  1.5453
  536MOL0     H70731   8.479   6.441   3.458  1.2174 -0.6471 -0.2661
  536MOL0     H70732   8.657   6.631   3.536  1.2996 -2.5713  2.9041
  536MOL0     H70733   8.744   6.588   3.386 -2.0724  1.4403 -1.2675
  536MOL0     H70734   8.400   5.964   2.652 -0.1420 -3.4255  0.6667
  536MOL0     H70735   8.321   5.950   2.408 -0.7384  1.5477 -0.6529
  536MOL0     H70736   7.849   6.166   2.081 -0.4264  0.8033 -1.7942
  536MOL0     H70737   7.851   6.163   1.847 -0.1096  1.0549  1.0166
  536MOL0     H70738   9.495   5.810   0.601  0.1278 -0.0881  0.6269
  536MOL0     H70739   9.748   5.782   0.601 -2.4678 -4.2602 -1.4748
  536MOL0     H70740  10.089   5.658   0.962  0.3190  1.3275 -0.0721
  536MOL0     H70741  10.313   5.626   1.033 -1.0985  2.1916  1.8215
  536MOL0     H70742  10.497   5.724   1.085 -1.5786 -3.0207  0.2493
  536MOL0     H70743  10.663   5.716   1.029  0.7701 -0.0276 -3.2808
  536MOL0     H70744  10.590   5.543   1.184  2.3427 -1.9707 -0.0111
  536MOL0     H70745  10.494   5.478   1.048 -1.8936  0.2707 -0.3229
  536MOL0     H70746  10.792   5.518   1.033  0.9215 -1.0987 -2.7215
  536MOL0     H70747  10.688   5.444   0.908 -0.2933 -2.6985 -0.3694
  536MOL0     H70748  10.653   5.296   1.139 -0.8690  1.5337  1.1226
  536MOL0     H70749  10.792   5.258   1.026 -1.7799 -0.4903 -0.3577
  536MOL0     H70750  10.979   5.428   1.381 -1.3326 -0.7933  2.4194
  536MOL0     H70751  10.453   5.748   0.642 -0.4702 -0.7034 -1.1390
  536MOL0     H70752  10.219   5.774   0.574 -0.3236 -0.1841  1.1820
  537MOL0     O70753   3.781   1.788   4.528  0.3080 -0.1757 -0.7406
  537MOL0     C70754   3.812   1.710   4.615 -0.8376  0.4639 -0.3956
  537MOL0     O70755   3.759   1.587   4.629  0.0720  0.5126 -0.2872
  537MOL0     C70756   3.675   1.538   4.529  0.5290 -0.3450 -0.2407
  537MOL0     C70757   3.555   1.608   4.483 -0.0739  0.2231  0.3090
  537MOL0     C70758   3.471   1.546   4.387  0.3438 -0.9595  1.2076
  537MOL0     C70759   3.516   1.424   4.329 -0.4121 -0.7209  0.1421
  537MOL0     O70760   3.441   1.367   4.223 -0.8288 -0.5320 -0.2815
  537MOL0     C70761   3.334   1.442   4.150 -0.4271 -0.2862 -0.4466
  537MOL0     C70762   3.193   1.434   4.226  0.2331  0.6409 -0.0820
  537MOL0     C70763   3.134   1.290   4.210 -0.0110 -0.1855 -0.3659
  537MOL0     C70764   2.994   1.283   4.259 -0.0870  0.5281 -0.5671
  537MOL0     C70765   2.945   1.142   4.280  0.9548  0.3869 -0.2747
  537MOL0     C70766   2.829   1.156   4.386  0.6826  0.1581 -0.9461
  537MOL0     C70767   2.697   1.221   4.337  0.3388  0.9263  0.1134
  537MOL0     C70768   2.603   1.276   4.443  0.6216 -0.1075 -0.7256
  537MOL0     N70769   2.482   1.194   4.454  0.2762  0.4621  0.0324
  537MOL0     C70770   2.473   1.056   4.475 -0.1162 -0.2120  0.2170
  537MOL0     C70771   2.340   1.036   4.497 -0.8525  0.8513  0.7082
  537MOL0     C70772   2.270   0.908   4.532 -0.2274  0.6235 -0.1211
  537MOL0     C70773   2.351   0.781   4.588 -0.8002  0.3116  0.1466
  537MOL0     C70774   2.268   0.682   4.667  0.2287 -0.3415  0.2398
  537MOL0     C70775   2.249   0.554   4.586  1.0488 -0.2071 -0.6848
  537MOL0     O70776   2.171   0.440   4.638  0.0216 -0.7958  0.2206
  537MOL0     C70777   2.033   0.445   4.642  0.4630 -0.2252  0.1173
  537MOL0     C70778   1.960   0.357   4.725  0.0700  0.1350 -0.2082
  537MOL0     C70779   1.826   0.374   4.755  0.5725 -0.7658 -0.1957
  537MOL0     C70780   1.755   0.483   4.704  0.7458 -0.4407  0.8012
  537MOL0     C70781   1.612   0.509   4.734  0.5285  0.0354  0.0276
  537MOL0     O70782   1.562   0.622   4.664 -0.3758  0.7692  0.0166
  537MOL0     C70783   1.445   0.671   4.707  0.3640  0.0142 -0.9898
  537MOL0     C70784   1.325   0.602   4.687  1.5714 -0.4694  0.2487
  537MOL0     C70785   1.204   0.651   4.733 -0.6150  0.1862 -0.3863
  537MOL0     C70786   1.203   0.775   4.797 -0.9706 -0.2000  0.0042
  537MOL0     O70787   1.099   0.834   4.857 -0.3489 -0.1352 -0.0612
  537MOL0     C70788   0.987   0.847   4.767 -1.2988  0.1083 -0.1893
  537MOL0     C70789   0.887   0.940   4.840  0.7080 -0.3604  0.3358
  537MOL0     C70790   0.770   0.964   4.741 -0.0761  0.6224 -0.0170
  537MOL0     C70791   0.643   1.012   4.795  0.1052 -0.4323  0.3674
  537MOL0     C70792   0.546   1.054   4.680 -0.1388 -0.0827  0.2864
  537MOL0     C70793   0.405   1.111   4.723  1.2673 -0.4498  0.2825
  537MOL0     C70794   0.324   1.126   4.588  0.0175 -0.0683 -1.0934
  537MOL0     C70795   0.185   1.193   4.605  0.0655 -0.7616 -0.1434
  537MOL0    Cl70796   0.117   1.200   4.442 -0.0121  0.2188  0.4180
  537MOL0     C70797   1.326   0.854   4.805 -0.5085 -0.3740  0.3850
  537MOL0     C70798   1.443   0.796   4.769 -0.4576  0.0686  0.5823
  537MOL0     O70799   1.543   0.434   4.799  0.5762 -0.7916  0.0573
  537MOL0     C70800   1.826   0.575   4.622  0.3878  0.2276 -0.8306
  537MOL0     C70801   1.959   0.555   4.581  0.7433  0.3823 -0.2560
  537MOL0     N70802   2.268   1.154   4.485  0.1348  0.1428  0.9046
  537MOL0     N70803   2.358   1.247   4.460  0.3917  0.2063  0.0325
  537MOL0     C70804   3.635   1.359   4.369 -0.4454 -0.9132 -0.5100
  537MOL0     C70805   3.714   1.414   4.473 -0.1013 -0.2509  1.0261
  537MOL0     C70806   3.904   1.759   4.722  0.2104 -0.5423 -0.2108
  537MOL0     C70807   3.927   1.900   4.744  0.3416  0.1599 -1.1807
  537MOL0     C70808   4.013   1.943   4.843 -0.1416 -0.4031 -0.5465
  537MOL0     C70809   4.064   1.848   4.937  0.1391 -0.5831  0.7464
  537MOL0     O70810   4.143   1.883   5.042 -0.0320  0.6125  0.0925
  537MOL0     C70811   4.156   2.019   5.071 -0.3136  0.7225 -0.1093
  537MOL0     C70812   4.237   2.045   5.192  0.5127  0.4324  0.7035
  537MOL0     C70813   4.385   2.007   5.179  0.3029  0.3564 -0.6847
  537MOL0     C70814   4.465   2.097   5.083 -0.3874 -0.2546 -0.5192
  537MOL0     C70815   4.443   2.238   5.092 -0.4998 -0.1779 -0.1991
  537MOL0     C70816   4.431   2.360   5.104 -0.6385  0.4536 -0.0649
  537MOL0     C70817   4.036   1.711   4.924 -0.2880  0.5091  0.2255
  537MOL0     C70818   3.951   1.665   4.814  0.2084 -0.4083  0.2738
  537MOL0     H70819   3.526   1.705   4.522  0.2785 -0.1998  1.6826
  537MOL0     H70820   3.384   1.608   4.365  1.4218  0.5162  0.9329
  537MOL0     H70821   3.332   1.397   4.050  0.6908 -0.7807 -0.2619
  537MOL0     H70822   3.370   1.545   4.140  2.4463 -1.1192  0.3898
  537MOL0     H70823   3.130   1.509   4.176  1.0032  1.8271  0.6789
  537MOL0     H70824   3.187   1.460   4.332 -1.5915  1.8725 -0.4384
  537MOL0     H70825   3.196   1.220   4.266 -0.4122 -0.2313  0.0247
  537MOL0     H70826   3.129   1.260   4.105 -0.3090 -3.6978  0.5422
  537MOL0     H70827   2.999   1.328   4.359 -1.5399  0.3623 -0.4015
  537MOL0     H70828   2.916   1.338   4.205  0.8004 -0.0688 -2.5607
  537MOL0     H70829   3.029   1.079   4.310  1.6207  0.4013 -1.9783
  537MOL0     H70830   2.903   1.104   4.186  1.4216 -0.0457 -0.3104
  537MOL0     H70831   2.862   1.205   4.477  1.8819  1.0274 -1.8131
  537MOL0     H70832   2.804   1.052   4.412 -2.2744  1.5309  2.4663
  537MOL0     H70833   2.743   1.311   4.294  1.9169  0.5861  1.0161
  537MOL0     H70834   2.642   1.161   4.264 -0.3390 -0.0690  1.4164
  537MOL0     H70835   2.564   1.377   4.425 -0.2852 -0.7655 -2.8100
  537MOL0     H70836   2.658   1.282   4.537  0.3843 -1.7795 -0.4453
  537MOL0     H70837   2.555   0.985   4.469 -1.4761 -1.8619  0.3856
  537MOL0     H70838   2.217   0.875   4.442  1.3168  1.3541 -1.3582
  537MOL0     H70839   2.204   0.942   4.612  0.6840  0.3541  0.7622
  537MOL0     H70840   2.424   0.814   4.662 -1.6383  1.6729  0.4126
  537MOL0     H70841   2.402   0.738   4.501  0.1883 -0.2503  0.9910
  537MOL0     H70842   2.319   0.658   4.761  0.5540  1.1714  0.4755
  537MOL0     H70843   2.176   0.731   4.699  1.3741  2.6832 -0.6551
  537MOL0     H70844   2.352   0.524   4.566  1.1452  0.1404 -0.7214
  537MOL0     H70845   2.197   0.584   4.494 -0.9154 -1.5386 -0.0764
  537MOL0     H70846   2.009   0.282   4.786  1.1388 -0.4529 -1.7190
  537MOL0     H70847   1.773   0.302   4.817 -1.3584  0.1997 -0.6466
  537MOL0     H70848   1.330   0.509   4.631  0.5529  0.2022 -1.0078
  537MOL0     H70849   1.114   0.592   4.719 -0.8888  0.4538  0.2185
  537MOL0     H70850   0.946   0.748   4.745  0.5220 -0.9042  0.7254
  537MOL0     H70851   1.010   0.902   4.675  1.5945 -0.2371  0.2269
  537MOL0     H70852   0.932   1.033   4.874  0.9557 -0.6975  0.9438
  537MOL0     H70853   0.843   0.882   4.922 -1.2721 -2.4310 -1.9838
  537MOL0     H70854   0.752   0.865   4.697  2.5633 -1.7430  3.6913
  537MOL0     H70855   0.813   1.026   4.661  1.0838 -0.1130  0.0096
  537MOL0     H70856   0.591   0.945   4.865 -1.9263 -0.1394 -0.7813
  537MOL0     H70857   0.663   1.097   4.861  2.6338 -0.4687 -0.2633
  537MOL0     H70858   0.530   0.968   4.614 -1.3065  0.3173  0.0252
  537MOL0     H70859   0.598   1.124   4.614  0.7902  0.6117  1.6784
  537MOL0     H70860   0.414   1.209   4.771  0.5497  0.3884 -1.2272
  537MOL0     H70861   0.345   1.051   4.792  0.1612 -1.4344 -1.4536
  537MOL0     H70862   0.367   1.194   4.514 -2.7280  0.0973 -2.6628
  537MOL0     H70863   0.304   1.029   4.541 -1.1939  0.4126 -1.6120
  537MOL0     H70864   0.197   1.292   4.650 -1.6331 -0.7876  0.4152
  537MOL0     H70865   0.109   1.142   4.665  0.7040 -0.1516  1.2369
  537MOL0     H70866   1.332   0.959   4.835  2.9691 -0.3230 -0.0793
  537MOL0     H70867   1.542   0.841   4.780 -1.4879  3.4699 -2.2308
  537MOL0     H70868   1.779   0.659   4.572 -0.4662 -1.2710 -2.6615
  537MOL0     H70869   1.992   0.628   4.508  1.6691  1.0446  0.7877
  537MOL0     H70870   3.669   1.269   4.319  0.2435  0.2564 -2.2341
  537MOL0     H70871   3.809   1.366   4.491  0.8269  1.7524  1.8008
  537MOL0     H70872   3.882   1.970   4.675 -1.9836  1.2139  1.2171
  537MOL0     H70873   4.049   2.045   4.843 -0.8161 -0.1581 -1.2298
  537MOL0     H70874   4.056   2.057   5.093 -0.1179  0.8128  0.6788
  537MOL0     H70875   4.194   2.077   4.987 -0.5786  1.9490  0.6005
  537MOL0     H70876   4.220   2.147   5.228  0.3774  0.8164 -0.4168
  537MOL0     H70877   4.203   1.965   5.258  1.2855 -1.3478 -0.9856
  537MOL0     H70878   4.390   1.904   5.142 -0.1291  0.3363 -0.7030
  537MOL0     H70879   4.427   2.016   5.279  0.7423 -2.7451 -0.4803
  537MOL0     H70880   4.569   2.065   5.093 -0.9496 -1.8419  0.6981
  537MOL0     H70881   4.429   2.067   4.984  1.9505 -2.4554 -0.7924
  537MOL0     H70882   4.419   2.467   5.109  0.1922  0.5269  0.5740
  537MOL0     H70883   4.076   1.633   4.987 -0.3940 -1.1684 -1.6898
  537MOL0     H70884   3.932   1.560   4.797  3.6871 -0.8167 -1.9645
  538MOL0     O70885   6.129   4.327   3.627  0.2738 -0.0427  0.1216
  538MOL0     C70886   6.121   4.428   3.696  0.1558  0.1723  0.3355
  538MOL0     O70887   6.028   4.451   3.794  0.0191  0.3131  0.7252
  538MOL0     C70888   5.918   4.361   3.792  0.5189 -0.2398  0.1744
  538MOL0     C70889   5.830   4.352   3.676 -0.2975 -0.1438 -0.2225
  538MOL0     C70890   5.716   4.265   3.671  1.8517 -0.6865 -0.2044
  538MOL0     C70891   5.687   4.186   3.786 -0.5802  0.3384 -0.1190
  538MOL0     O70892   5.581   4.101   3.773 -0.0081 -0.1134  0.0317
  538MOL0     C70893   5.606   3.970   3.808 -0.3881  0.0946  0.2084
  538MOL0     C70894   5.496   3.895   3.741  0.5387  0.1471  0.2893
  538MOL0     C70895   5.505   3.867   3.600  0.3686  0.0195  0.2662
  538MOL0     C70896   5.377   3.814   3.534 -0.1797  0.0775  0.8275
  538MOL0     C70897   5.396   3.749   3.398 -0.0311 -0.1009  1.1029
  538MOL0     C70898   5.519   3.662   3.368  0.0973  0.6269 -1.1294
  538MOL0     C70899   5.521   3.603   3.227 -1.1749  0.7287 -0.1899
  538MOL0     C70900   5.649   3.530   3.189 -0.5941  0.3444  0.4249
  538MOL0     N70901   5.722   3.598   3.080  0.5013 -1.4627 -0.1868
  538MOL0     C70902   5.673   3.631   2.956  0.4707  0.0099 -0.6381
  538MOL0     C70903   5.778   3.688   2.893  0.3117  0.3273 -0.1955
  538MOL0     C70904   5.789   3.740   2.752 -0.3646  1.3462  0.4560
  538MOL0     C70905   5.662   3.801   2.699  0.6506  0.3412 -0.2341
  538MOL0     C70906   5.679   3.883   2.572 -0.1866 -0.5241 -0.4772
  538MOL0     C70907   5.548   3.963   2.544  0.0303 -0.4519 -0.2154
  538MOL0     O70908   5.432   3.885   2.559  0.7510  0.8008 -0.2033
  538MOL0     C70909   5.311   3.936   2.511 -0.1933  1.3218 -0.5097
  538MOL0     C70910   5.289   4.063   2.464 -0.1044  0.6135  1.0602
  538MOL0     C70911   5.168   4.103   2.409  0.7787  0.0032  0.0629
  538MOL0     C70912   5.061   4.017   2.411  0.3837  0.0051  1.2817
  538MOL0     C70913   4.929   4.042   2.342 -0.7111  0.4287  0.1409
  538MOL0     O70914   4.937   4.149   2.253  0.5332  0.5666 -0.4623
  538MOL0     C70915   4.812   4.176   2.190  0.0086 -0.4232 -0.4618
  538MOL0     C70916   4.718   4.267   2.249 -0.3004 -0.2615 -0.5013
  538MOL0     C70917   4.588   4.268   2.205  0.3857 -0.2946 -0.1515
  538MOL0     C70918   4.552   4.196   2.091  0.0183  0.9593  0.4425
  538MOL0     O70919   4.425   4.195   2.041  0.8622  0.3702 -0.1409
  538MOL0     C70920   4.319   4.149   2.129  0.1288 -0.0672 -0.7165
  538MOL0     C70921   4.214   4.062   2.049  0.5111 -0.2465  0.6360
  538MOL0     C70922   4.116   4.143   1.975 -0.4542 -0.2216 -0.7837
  538MOL0     C70923   3.984   4.069   1.923 -0.1847 -0.2953 -0.1075
  538MOL0     C70924   3.870   4.176   1.894 -0.3920 -0.8406 -0.4642
  538MOL0     C70925   3.742   4.096   1.858  0.4165 -0.7866 -0.1385
  538MOL0     C70926   3.629   4.190   1.819 -0.6028  0.2863  1.0198
  538MOL0     C70927   3.498   4.118   1.812 -0.2221 -0.2843 -0.9157
  538MOL0    Cl70928   3.362   4.237   1.795  0.0743 -0.3526  1.1099
  538MOL0     C70929   4.634   4.105   2.031  0.7509 -0.4781 -1.5855
  538MOL0     C70930   4.770   4.102   2.078 -0.3573  0.3504 -0.1449
  538MOL0     O70931   4.836   3.965   2.359  0.0458  0.0865  0.4868
  538MOL0     C70932   5.077   3.886   2.470  0.2249  0.3091  0.5994
  538MOL0     C70933   5.206   3.846   2.517  0.2241 -0.1364 -0.4103
  538MOL0     N70934   5.880   3.695   2.984 -0.0941 -0.2224 -1.2945
  538MOL0     N70935   5.852   3.628   3.088  0.8256  0.1585  0.0387
  538MOL0     C70936   5.765   4.200   3.903 -0.2131 -0.4287 -0.6036
  538MOL0     C70937   5.880   4.282   3.899  0.7364 -0.6612 -0.0771
  538MOL0     C70938   6.226   4.535   3.665  0.1749 -0.5361  0.0943
  538MOL0     C70939   6.358   4.500   3.637  0.1462  0.2229  0.1931
  538MOL0     C70940   6.463   4.595   3.631  0.1281 -0.5318  0.7471
  538MOL0     C70941   6.426   4.732   3.650 -0.5493  0.4185  0.3010
  538MOL0     O70942   6.520   4.831   3.641  0.0851 -0.4846  0.1648
  538MOL0     C70943   6.656   4.825   3.667 -0.4009  0.4812  0.2902
  538MOL0     C70944   6.676   4.832   3.819  0.0797  0.5985  0.0365
  538MOL0     C70945   6.633   4.708   3.909 -0.7001  0.9975  0.6755
  538MOL0     C70946   6.699   4.705   4.045 -0.1078  0.3006 -0.3388
  538MOL0     C70947   6.691   4.575   4.113  0.4216  1.0681  0.2204
  538MOL0     C70948   6.669   4.457   4.138  0.2164  0.1008 -0.4176
  538MOL0     C70949   6.295   4.773   3.681  0.7429  0.5801  0.3918
  538MOL0     C70950   6.193   4.671   3.683 -0.7176  0.0787  0.0773
  538MOL0     H70951   5.847   4.418   3.592  2.9558 -3.0266 -2.0980
  538MOL0     H70952   5.643   4.262   3.592  2.5690 -1.0171 -0.8683
  538MOL0     H70953   5.596   3.952   3.916  2.1533  1.6069  0.7821
  538MOL0     H70954   5.704   3.939   3.770 -0.3296  1.3421 -0.7327
  538MOL0     H70955   5.404   3.954   3.749 -1.0670 -2.1743 -0.1741
  538MOL0     H70956   5.479   3.805   3.801 -1.9227  1.5154  1.8053
  538MOL0     H70957   5.598   3.812   3.582  0.8980  0.9009  0.2502
  538MOL0     H70958   5.515   3.954   3.535 -3.1285  2.2263  2.3968
  538MOL0     H70959   5.328   3.747   3.605 -0.4021 -0.1293  0.4845
  538MOL0     H70960   5.302   3.892   3.520 -1.3418 -1.4231 -2.3565
  538MOL0     H70961   5.390   3.829   3.324 -0.4827 -2.2753 -1.3710
  538MOL0     H70962   5.318   3.678   3.371  0.7107  0.0232 -1.6860
  538MOL0     H70963   5.530   3.582   3.441 -0.1677  1.4603 -0.1463
  538MOL0     H70964   5.608   3.726   3.374 -0.6221  1.5116  1.1122
  538MOL0     H70965   5.440   3.530   3.215 -1.0630  0.4544  0.7027
  538MOL0     H70966   5.504   3.679   3.149 -5.5114 -0.0229 -0.2280
  538MOL0     H70967   5.622   3.431   3.152  3.7728 -0.5113 -0.9338
  538MOL0     H70968   5.709   3.515   3.279 -1.0650 -0.6127  0.5894
  538MOL0     H70969   5.576   3.604   2.917 -0.1623  2.0526 -0.6124
  538MOL0     H70970   5.827   3.655   2.695 -3.0049  1.2935 -1.3812
  538MOL0     H70971   5.867   3.817   2.754  0.0875  0.9030  0.3782
  538MOL0     H70972   5.614   3.866   2.773  0.8644  0.9291 -0.5993
  538MOL0     H70973   5.592   3.718   2.687  0.3118  0.8108 -1.7300
  538MOL0     H70974   5.751   3.963   2.593 -1.1750  0.1194  0.6041
  538MOL0     H70975   5.709   3.815   2.493  2.2201 -1.4201  1.1148
  538MOL0     H70976   5.560   3.990   2.439 -0.6875 -0.8088 -0.3969
  538MOL0     H70977   5.543   4.053   2.606  0.4576  0.0906 -0.9514
  538MOL0     H70978   5.378   4.123   2.447 -0.2951  1.0645  1.6463
  538MOL0     H70979   5.161   4.196   2.353 -0.4819  1.0156  1.7808
  538MOL0     H70980   4.747   4.324   2.337  2.7855 -3.9659  1.2208
  538MOL0     H70981   4.512   4.330   2.251  1.4038 -0.7259  2.2578
  538MOL0     H70982   4.280   4.239   2.177  2.1448  0.7493 -0.5318
  538MOL0     H70983   4.347   4.075   2.205 -0.5959  0.1613 -0.2134
  538MOL0     H70984   4.139   4.016   2.114 -0.8717  2.6796  1.2920
  538MOL0     H70985   4.266   3.989   1.987 -1.3710 -3.2186  2.3388
  538MOL0     H70986   4.159   4.198   1.891  0.2356  2.8075  1.4000
  538MOL0     H70987   4.083   4.218   2.047 -3.1311 -2.3936  0.4384
  538MOL0     H70988   4.003   4.017   1.829  3.0387  1.6333 -0.6763
  538MOL0     H70989   3.956   4.000   2.004  0.6521  0.4060  0.8036
  538MOL0     H70990   3.901   4.247   1.817  1.3131 -0.2944  0.6592
  538MOL0     H70991   3.859   4.241   1.981 -2.1127 -0.7606 -0.7101
  538MOL0     H70992   3.722   4.029   1.942  1.2626 -0.8697  0.0066
  538MOL0     H70993   3.770   4.031   1.774  1.2455 -2.2067  1.1857
  538MOL0     H70994   3.626   4.276   1.887  0.0552  1.4831 -0.3964
  538MOL0     H70995   3.648   4.215   1.714 -2.5216 -2.4711 -0.0873
  538MOL0     H70996   3.472   4.071   1.907 -0.1820  0.2509 -0.6374
  538MOL0     H70997   3.504   4.039   1.736 -1.1453 -0.5469 -0.7373
  538MOL0     H70998   4.605   4.053   1.940 -1.6650  1.2820 -1.8955
  538MOL0     H70999   4.836   4.031   2.028 -1.1188  0.6725 -1.6510
  538MOL0     H71000   5.000   3.810   2.476 -0.0761  0.6220  0.7068
  538MOL0     H71001   5.216   3.744   2.553 -2.5016 -1.0844 -2.0486
  538MOL0     H71002   5.749   4.150   3.998 -0.0088 -0.9182 -0.8206
  538MOL0     H71003   5.948   4.284   3.983 -1.2626  0.9146  1.6289
  538MOL0     H71004   6.381   4.394   3.623  1.7925  0.3254  1.7964
  538MOL0     H71005   6.563   4.572   3.597  0.2866  1.4928 -0.2866
  538MOL0     H71006   6.708   4.908   3.619 -0.1241 -0.0931 -0.4110
  538MOL0     H71007   6.701   4.738   3.619 -0.3525  0.7911 -0.2371
  538MOL0     H71008   6.785   4.837   3.819  0.0507  1.4043 -0.6132
  538MOL0     H71009   6.642   4.931   3.849 -0.2788  0.7756 -0.9187
  538MOL0     H71010   6.656   4.616   3.854 -0.9744 -1.0849  3.7825
  538MOL0     H71011   6.525   4.698   3.920 -0.5707 -0.3035  0.9298
  538MOL0     H71012   6.806   4.728   4.051 -0.4728  1.7949  2.1753
  538MOL0     H71013   6.656   4.781   4.112  0.6544  0.8378 -0.4306
  538MOL0     H71014   6.666   4.353   4.163 -1.9259 -0.1016 -1.3457
  538MOL0     H71015   6.273   4.877   3.705 -1.6521  0.7678 -2.0922
  538MOL0     H71016   6.091   4.693   3.712 -0.3872  0.4520  0.9990
  539MOL0     O71017   8.716  10.474   1.197 -0.6481 -0.0394 -1.5675
  539MOL0     C71018   8.781  10.480   1.300  0.7119 -0.8374 -0.0904
  539MOL0     O71019   8.726  10.476   1.421  0.1738  0.4543  0.5770
  539MOL0     C71020   8.591  10.460   1.436  0.0175  1.8414  0.4863
  539MOL0     C71021   8.548  10.355   1.518 -0.7416 -0.1279  0.4287
  539MOL0     C71022   8.411  10.325   1.539  1.0095  0.5399  0.5270
  539MOL0     C71023   8.318  10.420   1.485 -0.3482  0.2189  0.1579
  539MOL0     O71024   8.189  10.389   1.515  0.7529  0.3939 -0.3144
  539MOL0     C71025   8.089  10.433   1.424 -0.1334  0.2034  0.8548
  539MOL0     C71026   7.946  10.406   1.477 -0.2294  0.2135  0.0687
  539MOL0     C71027   7.900  10.503   1.586  0.4258  0.1939  0.4698
  539MOL0     C71028   7.763  10.473   1.639  0.4689 -0.0190  0.0409
  539MOL0     C71029   7.757  10.340   1.710  0.0428 -0.0987  0.6675
  539MOL0     C71030   7.631  10.327   1.781 -0.5366  0.1709 -0.2160
  539MOL0     C71031   7.503  10.351   1.689  0.2810 -0.1712  0.3232
  539MOL0     C71032   7.371  10.303   1.756  0.3098  0.1103  0.1668
  539MOL0     N71033   7.259  10.291   1.662 -0.1593 -0.6917  0.2096
  539MOL0     C71034   7.149  10.215   1.663 -0.1557 -0.4150 -0.1992
  539MOL0     C71035   7.070  10.261   1.562  0.2978  0.4659  0.6140
  539MOL0     C71036   6.933  10.204   1.527  0.6778  1.0920 -0.3757
  539MOL0     C71037   6.839  10.232   1.641 -0.1995  0.2879  0.3975
  539MOL0     C71038   6.700  10.149   1.621 -0.2109 -0.8721 -0.1676
  539MOL0     C71039   6.595  10.204   1.715  0.7947  0.6526 -0.2220
  539MOL0     O71040   6.464  10.164   1.670  0.7921 -0.3924  0.1501
  539MOL0     C71041   6.368  10.132   1.760 -0.0407  0.0338  0.5990
  539MOL0     C71042   6.259  10.065   1.709 -0.3363 -0.1089 -0.2196
  539MOL0     C71043   6.142  10.029   1.792  0.0135  0.5114 -0.2532
  539MOL0     C71044   6.135  10.067   1.929  0.6626  0.6398  0.3112
  539MOL0     C71045   6.005  10.047   2.000 -0.5245 -0.1746  0.0694
  539MOL0     O71046   5.911   9.958   1.956 -0.1932 -0.3995  0.0793
  539MOL0     C71047   5.820   9.908   2.040  0.0752  0.4190 -0.6383
  539MOL0     C71048   5.834   9.771   2.075  0.0416  0.9456 -0.8439
  539MOL0     C71049   5.740   9.716   2.166 -1.2367  0.6476 -0.4753
  539MOL0     C71050   5.638   9.791   2.224  1.0041 -0.9869  0.5350
  539MOL0     O71051   5.560   9.720   2.310 -0.5004  1.1516  0.4898
  539MOL0     C71052   5.425   9.753   2.327  0.2880 -1.0259 -0.3145
  539MOL0     C71053   5.342   9.754   2.202  0.5484  0.6515 -0.0164
  539MOL0     C71054   5.355   9.623   2.127  0.5946 -0.5473  0.2489
  539MOL0     C71055   5.296   9.503   2.210  0.3567  0.0389  0.1364
  539MOL0     C71056   5.282   9.375   2.131 -0.0585 -0.1685  0.2584
  539MOL0     C71057   5.264   9.248   2.211 -0.0077 -0.0881  0.2975
  539MOL0     C71058   5.157   9.230   2.317  0.1787  0.2867 -0.2888
  539MOL0     C71059   5.160   9.095   2.386 -0.5942  0.2005  0.0713
  539MOL0    Cl71060   5.073   9.093   2.546  0.1563 -0.1922  0.3948
  539MOL0     C71061   5.628   9.927   2.191 -0.8374  0.9917  0.4511
  539MOL0     C71062   5.725   9.983   2.104 -0.8533 -0.2276  1.2664
  539MOL0     O71063   5.999  10.119   2.101  0.3546  0.1471  0.3784
  539MOL0     C71064   6.242  10.143   1.985 -0.3239 -0.4668  0.7042
  539MOL0     C71065   6.363  10.170   1.905 -0.3242  0.5254  0.3928
  539MOL0     N71066   7.127  10.371   1.506 -0.0308  0.2569  1.1026
  539MOL0     N71067   7.238  10.390   1.569 -0.0110 -0.9687 -0.3183
  539MOL0     C71068   8.365  10.538   1.416  0.1433 -0.4713 -0.1448
  539MOL0     C71069   8.499  10.548   1.386 -0.5851 -0.2237 -0.6909
  539MOL0     C71070   8.924  10.505   1.286  0.0429 -0.1670 -0.0302
  539MOL0     C71071   8.992  10.560   1.397  0.2787 -0.1573 -0.0054
  539MOL0     C71072   9.120  10.596   1.393  0.7931  0.3845 -0.6958
  539MOL0     C71073   9.202  10.561   1.284  0.1469  0.2092 -0.8810
  539MOL0     O71074   9.335  10.568   1.285 -0.2922  0.2913  0.5158
  539MOL0     C71075   9.394  10.621   1.397  0.2659  0.3210  0.2512
  539MOL0     C71076   9.545  10.634   1.363 -0.2778  0.0503  0.9629
  539MOL0     C71077   9.600  10.496   1.337  0.2283 -0.0821 -0.3682
  539MOL0     C71078   9.753  10.504   1.343  0.2092  0.5841 -0.9905
  539MOL0     C71079   9.798  10.566   1.215  0.3242  0.4806 -0.4337
  539MOL0     C71080   9.827  10.612   1.109 -0.2183  0.5987  0.7973
  539MOL0     C71081   9.136  10.499   1.175 -0.1343 -0.5060 -0.6130
  539MOL0     C71082   8.997  10.471   1.174 -0.1982 -0.5687  0.4322
  539MOL0     H71083   8.615  10.280   1.556 -2.1698 -2.9178 -2.1383
  539MOL0     H71084   8.377  10.234   1.587 -0.6064  1.3358  0.9576
  539MOL0     H71085   8.095  10.390   1.324 -1.2051  0.0935  0.8222
  539MOL0     H71086   8.097  10.542   1.410 -0.3375 -0.1123 -2.3765
  539MOL0     H71087   7.939  10.301   1.507  2.8651 -0.6070 -1.7228
  539MOL0     H71088   7.871  10.420   1.398  2.4531  0.3368 -2.6420
  539MOL0     H71089   7.918  10.604   1.548  2.8776  0.8939  3.1410
  539MOL0     H71090   7.971  10.492   1.668  0.4077  1.5354  0.6905
  539MOL0     H71091   7.725  10.550   1.707  2.2971  0.5302  0.4863
  539MOL0     H71092   7.699  10.478   1.550  0.6436 -0.3678 -0.1080
  539MOL0     H71093   7.839  10.326   1.781 -2.0352 -1.9967  2.9112
  539MOL0     H71094   7.768  10.250   1.649  0.5186 -0.4564  1.2633
  539MOL0     H71095   7.630  10.390   1.871 -2.9793 -0.5011  0.3166
  539MOL0     H71096   7.623  10.225   1.821 -0.9539 -0.2234 -1.2641
  539MOL0     H71097   7.488  10.459   1.676 -2.1576 -0.6579 -1.6614
  539MOL0     H71098   7.513  10.310   1.587 -1.7241  2.1336 -0.9036
  539MOL0     H71099   7.352  10.368   1.843 -3.9883  1.3769 -1.4526
  539MOL0     H71100   7.390  10.203   1.796  3.0956  0.6013  0.2362
  539MOL0     H71101   7.120  10.139   1.734 -2.3238  1.2579  0.8442
  539MOL0     H71102   6.943  10.099   1.499 -1.9208  1.1370 -1.7824
  539MOL0     H71103   6.895  10.247   1.434 -0.2194  0.3976 -0.3525
  539MOL0     H71104   6.828  10.340   1.630  2.5742  0.4420 -2.3698
  539MOL0     H71105   6.880  10.209   1.740 -2.9436 -1.1625  1.2968
  539MOL0     H71106   6.656  10.154   1.521  1.1929 -1.8245 -0.8722
  539MOL0     H71107   6.720  10.043   1.641  1.7652 -0.7961 -1.4471
  539MOL0     H71108   6.601  10.313   1.718 -3.2093  0.9713  1.3721
  539MOL0     H71109   6.623  10.170   1.816  1.9657 -0.7447 -0.9866
  539MOL0     H71110   6.272  10.030   1.607  0.5918 -0.4719  0.0124
  539MOL0     H71111   6.051   9.987   1.748  0.4371 -0.4765 -0.2010
  539MOL0     H71112   5.914   9.711   2.034 -0.6628 -1.0635  0.5780
  539MOL0     H71113   5.753   9.609   2.174 -0.1668  0.5585 -2.7698
  539MOL0     H71114   5.400   9.846   2.378 -1.6818 -2.8231  2.3244
  539MOL0     H71115   5.371   9.677   2.385 -4.7051  1.7164 -0.8004
  539MOL0     H71116   5.371   9.839   2.139 -1.2233  2.9315  2.0295
  539MOL0     H71117   5.239   9.766   2.235  0.3397  1.3718 -0.8759
  539MOL0     H71118   5.461   9.608   2.105  1.3605  0.6419  2.7376
  539MOL0     H71119   5.302   9.635   2.031 -2.2059  0.6681  1.8105
  539MOL0     H71120   5.354   9.471   2.297 -1.0717  2.8420  2.3182
  539MOL0     H71121   5.192   9.526   2.234  0.2701 -0.0563 -0.1455
  539MOL0     H71122   5.367   9.364   2.062 -1.0134  4.2433 -1.9515
  539MOL0     H71123   5.195   9.385   2.066 -0.1125 -2.6082 -0.1419
  539MOL0     H71124   5.357   9.234   2.266 -0.6626  0.8122  1.7112
  539MOL0     H71125   5.239   9.168   2.141 -1.2025 -0.3043  0.9358
  539MOL0     H71126   5.153   9.313   2.389 -1.1310  0.1322 -0.1676
  539MOL0     H71127   5.058   9.242   2.273 -0.8118  1.1914  1.9946
  539MOL0     H71128   5.261   9.070   2.418 -1.0127  0.7094  1.8684
  539MOL0     H71129   5.126   9.018   2.316  1.7391  1.1140 -2.2263
  539MOL0     H71130   5.552   9.992   2.232 -2.3199  1.4623 -2.7167
  539MOL0     H71131   5.716  10.084   2.066 -1.0132 -1.1951 -1.5561
  539MOL0     H71132   6.245  10.182   2.086  2.3122 -1.8884  1.2657
  539MOL0     H71133   6.453  10.211   1.949  0.6066 -0.4427 -0.5513
  539MOL0     H71134   8.296  10.612   1.376  0.8097 -2.5212 -6.0417
  539MOL0     H71135   8.522  10.633   1.324 -2.4868 -0.6438 -2.0784
  539MOL0     H71136   8.932  10.578   1.485 -1.2163  0.1828 -1.0545
  539MOL0     H71137   9.153  10.628   1.492 -4.2588 -0.3503  1.5433
  539MOL0     H71138   9.376  10.565   1.489 -2.9015  3.3011  1.6762
  539MOL0     H71139   9.357  10.723   1.408 -0.8893  0.1109 -1.3703
  539MOL0     H71140   9.557  10.700   1.277 -0.5628 -3.0298 -1.6342
  539MOL0     H71141   9.590  10.676   1.453  2.1407 -2.7788  1.1974
  539MOL0     H71142   9.568  10.465   1.237  0.4110  1.7167 -1.0145
  539MOL0     H71143   9.561  10.413   1.397  0.6925 -0.3585 -0.4410
  539MOL0     H71144   9.804  10.552   1.428  0.8852 -0.5007 -0.7567
  539MOL0     H71145   9.794  10.402   1.350  0.2154  0.6463 -0.0249
  539MOL0     H71146   9.862  10.647   1.014 -3.2851 -2.3011 -1.6644
  539MOL0     H71147   9.204  10.460   1.100  2.4557 -0.1926  1.4254
  539MOL0     H71148   8.953  10.424   1.086  1.0430  1.1022 -1.1533
  540MOL0     O71149   1.184  10.989   9.815  0.5983 -0.0981  0.2971
  540MOL0     C71150   1.261  10.924   9.755 -0.2933  0.0815  1.3664
  540MOL0     O71151   1.249  10.795   9.720 -0.2720 -0.3802 -0.6765
  540MOL0     C71152   1.124  10.733   9.749 -0.5459  0.6916 -0.5897
  540MOL0     C71153   1.117  10.636   9.853  0.3251  0.3508  0.3575
  540MOL0     C71154   0.994  10.560   9.870  0.0948 -0.1843  0.4039
  540MOL0     C71155   0.884  10.590   9.791 -0.1225 -0.3810 -0.2395
  540MOL0     O71156   0.768  10.526   9.812 -0.0982 -0.2544 -0.2654
  540MOL0     C71157   0.783  10.384   9.797 -0.3337 -0.6727 -0.1297
  540MOL0     C71158   0.655  10.320   9.768 -0.9467  0.4494 -0.5549
  540MOL0     C71159   0.548  10.315   9.878  1.2259  1.0230 -0.2479
  540MOL0     C71160   0.409  10.354   9.830 -0.0769 -0.0601 -0.0976
  540MOL0     C71161   0.298  10.293   9.927 -0.5334 -0.0936 -1.1355
  540MOL0     C71162   0.240  10.159   9.875 -0.8635  0.2382  0.6911
  540MOL0     C71163   0.113  10.106   9.948 -0.0118  0.6383  0.3114
  540MOL0     C71164   0.012  10.219   9.972 -0.0444  0.3900 -0.1725
  540MOL0     N71165  -0.123  10.167   9.970 -0.0006  0.2697 -0.1527
  540MOL0     C71166  -0.192  10.109  10.070 -0.1611  0.4693 -0.5117
  540MOL0     C71167  -0.309  10.082  10.013 -0.6621 -0.4462  0.6526
  540MOL0     C71168  -0.411   9.994  10.077  0.6795 -0.7402 -0.1604
  540MOL0     C71169  -0.379   9.844  10.052  0.8749 -0.7942 -0.7770
  540MOL0     C71170  -0.484   9.738  10.091 -0.0012 -0.7315 -0.0354
  540MOL0     C71171  -0.626   9.763  10.041  0.7030 -0.3944 -0.6398
  540MOL0     O71172  -0.710   9.663  10.091  0.6686 -0.2657  0.8800
  540MOL0     C71173  -0.841   9.700  10.126  0.6221  0.4047 -0.2889
  540MOL0     C71174  -0.920   9.602  10.184  0.6176 -0.1507  0.2972
  540MOL0     C71175  -1.039   9.632  10.243 -0.2104 -0.3632 -0.5884
  540MOL0     C71176  -1.088   9.767  10.236 -0.1101 -0.0436  0.5696
  540MOL0     C71177  -1.200   9.812  10.324 -0.4351 -0.1234 -0.3171
  540MOL0     O71178  -1.270   9.909  10.281  0.3884  0.6627 -0.6642
  540MOL0     C71179  -1.387   9.935  10.351 -0.4930  0.1237 -1.1698
  540MOL0     C71180  -1.482   9.834  10.359 -0.2504  0.3183 -0.3551
  540MOL0     C71181  -1.600   9.860  10.424  0.0181 -0.1885 -0.8453
  540MOL0     C71182  -1.614   9.984  10.487 -0.0007 -0.9518 -0.2194
  540MOL0     O71183  -1.724  10.029  10.555 -0.0812 -0.0248  1.2957
  540MOL0     C71184  -1.781   9.933  10.647 -0.8437 -0.1508  0.7435
  540MOL0     C71185  -1.705   9.948  10.776 -0.2291 -0.0183  0.1975
  540MOL0     C71186  -1.802   9.930  10.903 -1.0704 -0.4747  0.0753
  540MOL0     C71187  -1.740   9.950  11.044 -0.5858  0.0537 -0.2982
  540MOL0     C71188  -1.835   9.938  11.156 -0.1454 -0.2640  0.2185
  540MOL0     C71189  -1.792   9.971  11.303 -0.4678 -0.3026 -0.9835
  540MOL0     C71190  -1.653  10.026  11.319 -0.4011 -1.0798  0.6692
  540MOL0     C71191  -1.630  10.096  11.454  0.9925 -0.6976 -0.4265
  540MOL0    Cl71192  -1.446  10.120  11.475 -0.7432  0.3367  0.0898
  540MOL0     C71193  -1.516  10.080  10.482 -0.3416  0.0858 -0.0035
  540MOL0     C71194  -1.404  10.060  10.406 -0.8621  0.3277  0.1588
  540MOL0     O71195  -1.218   9.745  10.426  0.3980  0.2458  0.1596
  540MOL0     C71196  -1.017   9.862  10.158  1.1460 -0.0330  0.1029
  540MOL0     C71197  -0.898   9.830  10.102 -0.6471 -0.6593  0.1166
  540MOL0     N71198  -0.304  10.117   9.874  0.9486  0.4091  0.2027
  540MOL0     N71199  -0.193  10.157   9.854 -0.5196  0.5888 -0.3194
  540MOL0     C71200   0.887  10.689   9.694 -0.2847  0.2450 -0.1657
  540MOL0     C71201   1.013  10.759   9.671  1.0275  0.6980 -0.0861
  540MOL0     C71202   1.389  10.974   9.714  0.6503 -0.1983 -0.6019
  540MOL0     C71203   1.476  10.907   9.627  0.1915  0.6893  0.6491
  540MOL0     C71204   1.602  10.961   9.586 -0.0079  0.6217  0.7811
  540MOL0     C71205   1.643  11.087   9.639 -0.9984 -0.1124 -0.1782
  540MOL0     O71206   1.762  11.146   9.617 -0.2725  0.9234  1.0926
  540MOL0     C71207   1.867  11.095   9.531  0.1937  1.0430  0.1171
  540MOL0     C71208   1.970  11.210   9.506 -0.7968 -0.0816  0.6459
  540MOL0     C71209   2.087  11.229   9.600 -0.7053 -0.3102 -0.2030
  540MOL0     C71210   2.193  11.124   9.582 -0.0306 -0.2636 -0.5082
  540MOL0     C71211   2.278  11.140   9.461  0.4865  0.6168  0.8124
  540MOL0     C71212   2.326  11.118   9.349  0.2591  0.9800 -0.1036
  540MOL0     C71213   1.552  11.153   9.720  0.2691 -1.3723  0.8083
  540MOL0     C71214   1.431  11.099   9.759  0.5789  0.8359  1.1010
  540MOL0     H71215   1.204  10.626   9.918  0.6636  3.8512  0.6840
  540MOL0     H71216   0.987  10.482   9.946 -2.5717  0.0625  0.4895
  540MOL0     H71217   0.804  10.344   9.897  3.0305  0.4168 -0.2845
  540MOL0     H71218   0.856  10.360   9.719 -0.9419  1.2750 -1.3829
  540MOL0     H71219   0.666  10.223   9.718 -1.9747  0.0918 -0.1184
  540MOL0     H71220   0.611  10.379   9.687 -0.6282  0.9179 -0.3886
  540MOL0     H71221   0.578  10.382   9.959  1.3117  0.2004  0.4141
  540MOL0     H71222   0.549  10.211   9.913 -0.4146 -1.2029 -5.6228
  540MOL0     H71223   0.411  10.463   9.835 -0.0899  0.1220 -2.6483
  540MOL0     H71224   0.392  10.326   9.725  0.4602 -0.5571 -0.0545
  540MOL0     H71225   0.219  10.367   9.941  0.1771  0.6963 -1.2820
  540MOL0     H71226   0.331  10.264  10.027 -1.8987 -3.0483 -1.4376
  540MOL0     H71227   0.323  10.090   9.857 -0.3756  1.0862 -0.4023
  540MOL0     H71228   0.202  10.171   9.773 -0.3575  0.6839  0.5508
  540MOL0     H71229   0.067  10.030   9.883 -1.7285  1.3443  0.6535
  540MOL0     H71230   0.147  10.061  10.042 -2.0297 -0.4666  0.5651
  540MOL0     H71231   0.022  10.285   9.885 -0.1703  0.9278  0.2151
  540MOL0     H71232   0.043  10.275  10.061  5.9319 -2.2560 -0.1709
  540MOL0     H71233  -0.156  10.082  10.168  0.7541  0.1309 -0.9323
  540MOL0     H71234  -0.508  10.027  10.038  1.5117  2.6920  0.3939
  540MOL0     H71235  -0.409  10.010  10.185  1.1154 -2.8370  0.1930
  540MOL0     H71236  -0.284   9.822  10.101 -0.3608 -1.0570  1.7132
  540MOL0     H71237  -0.366   9.820   9.946 -0.6842  1.4392 -1.5476
  540MOL0     H71238  -0.450   9.646  10.042  1.4165 -0.8946  1.1759
  540MOL0     H71239  -0.468   9.719  10.198  4.3909  0.0412 -0.3599
  540MOL0     H71240  -0.647   9.768   9.934 -0.1253  1.3798 -0.4389
  540MOL0     H71241  -0.657   9.861  10.080  1.0332  0.1366 -1.6732
  540MOL0     H71242  -0.886   9.499  10.177 -1.0859 -0.6510 -1.7120
  540MOL0     H71243  -1.112   9.559  10.275  0.2569 -2.3553 -3.7105
  540MOL0     H71244  -1.462   9.743  10.305 -1.2398 -0.7110  0.9442
  540MOL0     H71245  -1.676   9.785  10.444  1.1937 -1.4711 -1.0527
  540MOL0     H71246  -1.788   9.829  10.614 -1.8087 -0.3566  1.5532
  540MOL0     H71247  -1.886   9.964  10.652 -1.0206 -0.5708 -0.2238
  540MOL0     H71248  -1.673  10.052  10.786  0.7195 -0.3569  0.8828
  540MOL0     H71249  -1.612   9.890  10.772 -0.2847 -0.0277 -2.0351
  540MOL0     H71250  -1.846   9.831  10.893 -1.3635 -0.0583 -5.0717
  540MOL0     H71251  -1.881  10.006  10.895 -0.9480 -0.0022  2.4263
  540MOL0     H71252  -1.664   9.872  11.049 -1.3274 -0.9997 -3.3854
  540MOL0     H71253  -1.706  10.053  11.056  0.5794 -0.5692  2.4194
  540MOL0     H71254  -1.872   9.835  11.163 -1.9723  0.2579 -1.0052
  540MOL0     H71255  -1.915  10.011  11.142 -1.6570 -1.7477  0.8252
  540MOL0     H71256  -1.800   9.886  11.371  1.0880  1.4095  1.4983
  540MOL0     H71257  -1.857  10.050  11.344  0.7719 -0.1171  0.7372
  540MOL0     H71258  -1.579   9.945  11.311 -3.2284 -3.8206  0.2324
  540MOL0     H71259  -1.628  10.094  11.237 -1.1388 -1.1481  0.3846
  540MOL0     H71260  -1.676  10.042  11.537  0.1629 -3.4367 -2.5253
  540MOL0     H71261  -1.661  10.200  11.470  1.4313 -0.9044  2.2909
  540MOL0     H71262  -1.509  10.171  10.541 -2.2732  0.4227 -0.2405
  540MOL0     H71263  -1.321  10.130  10.413 -0.0080 -0.7737  1.8311
  540MOL0     H71264  -1.060   9.962  10.165 -1.0194 -0.8642 -0.5811
  540MOL0     H71265  -0.837   9.907  10.055  0.1821 -1.1264  0.3939
  540MOL0     H71266   0.793  10.718   9.647 -0.3421  1.1784  0.4967
  540MOL0     H71267   1.014  10.848   9.610  2.0983  2.6193  2.5525
  540MOL0     H71268   1.433  10.814   9.589 -0.9314  0.4379  2.4285
  540MOL0     H71269   1.671  10.904   9.523 -0.3840  1.6849 -0.6352
  540MOL0     H71270   1.827  11.049   9.440  0.7272 -1.8776  1.2319
  540MOL0     H71271   1.917  11.017   9.590 -0.3137  0.5092 -0.1579
  540MOL0     H71272   2.013  11.184   9.408 -2.6592  0.4734 -0.3578
  540MOL0     H71273   1.927  11.307   9.482  2.1482  0.9686 -0.9146
  540MOL0     H71274   2.045  11.208   9.699  1.0266  1.2472  0.9430
  540MOL0     H71275   2.121  11.332   9.615 -4.0662  0.5895  2.6848
  540MOL0     H71276   2.254  11.122   9.672 -0.1625  0.1165 -0.4098
  540MOL0     H71277   2.156  11.021   9.577  2.7418 -1.2891 -1.7050
  540MOL0     H71278   2.370  11.109   9.252  1.1151 -1.7807  0.4502
  540MOL0     H71279   1.582  11.252   9.754  2.9063 -2.0347  0.5816
  540MOL0     H71280   1.366  11.160   9.821 -0.5317 -0.1812  0.9682
  541MOL0     O71281   5.361   7.003   3.009 -0.1144  0.0675 -0.0698
  541MOL0     C71282   5.328   7.110   2.959  0.6437 -0.4439 -0.6680
  541MOL0     O71283   5.207   7.140   2.913 -0.6095 -0.4004  0.1085
  541MOL0     C71284   5.115   7.045   2.897  0.3401  0.4912  0.7035
  541MOL0     C71285   5.088   7.011   2.765 -0.2438 -0.1855 -0.2841
  541MOL0     C71286   4.990   6.928   2.725  0.1506  0.1207  0.0502
  541MOL0     C71287   4.906   6.874   2.829  0.2354  0.6993  0.2723
  541MOL0     O71288   4.790   6.816   2.789  0.1097  0.0150  0.3036
  541MOL0     C71289   4.679   6.787   2.884 -0.1741  0.3150 -0.0335
  541MOL0     C71290   4.561   6.745   2.796 -0.1085 -0.5935 -0.6838
  541MOL0     C71291   4.416   6.735   2.862 -0.6366  0.1504 -0.0405
  541MOL0     C71292   4.402   6.600   2.940  0.2242  0.0101  0.7884
  541MOL0     C71293   4.252   6.570   2.975 -0.5973 -0.0127  0.3763
  541MOL0     C71294   4.199   6.685   3.070  0.5780  1.0732 -1.1743
  541MOL0     C71295   4.059   6.639   3.113 -0.0825  0.6420 -0.5469
  541MOL0     C71296   4.002   6.748   3.197 -0.1850  0.4114 -0.9642
  541MOL0     N71297   3.875   6.697   3.249  0.1863 -0.2708  0.0358
  541MOL0     C71298   3.758   6.679   3.185  0.0031 -0.8805  0.1498
  541MOL0     C71299   3.681   6.614   3.278  0.9130 -0.6976  0.4720
  541MOL0     C71300   3.541   6.568   3.246  0.6662  0.3508  0.0546
  541MOL0     C71301   3.471   6.477   3.330 -0.0208  0.4411  0.1876
  541MOL0     C71302   3.328   6.467   3.278  0.4021  0.6156 -0.2948
  541MOL0     C71303   3.221   6.379   3.352 -0.1407  0.5450 -0.0003
  541MOL0     O71304   3.112   6.363   3.267 -0.4106  0.2016 -0.4827
  541MOL0     C71305   2.997   6.296   3.311 -0.0467  0.2518  0.0708
  541MOL0     C71306   2.892   6.269   3.214  0.2388 -0.2063 -1.0377
  541MOL0     C71307   2.776   6.197   3.260  0.7203  0.5317 -0.6210
  541MOL0     C71308   2.766   6.163   3.392  0.4547 -0.0356 -0.7999
  541MOL0     C71309   2.652   6.091   3.442 -0.8533 -0.1365 -0.7448
  541MOL0     O71310   2.682   5.987   3.517 -0.4128 -0.2855 -0.3081
  541MOL0     C71311   2.578   5.902   3.554  0.4275  0.1553  0.2150
  541MOL0     C71312   2.435   5.913   3.561  0.3422 -0.4247 -0.5288
  541MOL0     C71313   2.348   5.804   3.592  0.1056  0.1944  0.0575
  541MOL0     C71314   2.415   5.686   3.624  0.1309  0.8340  0.6598
  541MOL0     O71315   2.348   5.572   3.661 -0.1872 -0.5237 -0.1031
  541MOL0     C71316   2.214   5.555   3.668 -0.3870  0.9612 -0.0508
  541MOL0     C71317   2.175   5.416   3.706  0.4632  0.1638 -0.1622
  541MOL0     C71318   2.254   5.355   3.819 -0.3448  0.9361 -0.2152
  541MOL0     C71319   2.209   5.209   3.851  0.2905 -0.1676 -0.2992
  541MOL0     C71320   2.301   5.133   3.952 -1.0489  0.2075  0.7076
  541MOL0     C71321   2.273   5.163   4.100 -0.0790 -1.3817  0.1557
  541MOL0     C71322   2.369   5.274   4.154  0.1258 -0.6898  0.9823
  541MOL0     C71323   2.304   5.344   4.279  0.1109  0.9366 -0.3428
  541MOL0    Cl71324   2.194   5.231   4.390 -0.3286 -0.8805 -0.1029
  541MOL0     C71325   2.546   5.673   3.625 -0.0946  0.0894 -0.5635
  541MOL0     C71326   2.631   5.778   3.589 -0.5466 -0.6666 -0.2495
  541MOL0     O71327   2.540   6.140   3.422 -0.1044 -0.4933 -0.6137
  541MOL0     C71328   2.866   6.196   3.483  0.4085  0.5901  0.0679
  541MOL0     C71329   2.983   6.262   3.446 -0.0304  0.5366  0.7576
  541MOL0     N71330   3.755   6.602   3.394 -0.5580 -0.1154  0.3350
  541MOL0     N71331   3.869   6.645   3.371  0.1843 -0.6460 -0.2007
  541MOL0     C71332   4.938   6.895   2.968  0.6512  0.1230 -0.0694
  541MOL0     C71333   5.042   6.984   3.002  0.4473  0.2765  0.0284
  541MOL0     C71334   5.435   7.215   2.967 -0.1299 -0.3973  0.1319
  541MOL0     C71335   5.567   7.180   2.993 -0.6384 -0.8915 -0.3143
  541MOL0     C71336   5.661   7.281   3.001 -0.6702  0.6547  0.1074
  541MOL0     C71337   5.625   7.420   2.997  0.1477 -0.6520 -0.0369
  541MOL0     O71338   5.718   7.524   3.001  0.0726 -0.3883  0.2415
  541MOL0     C71339   5.851   7.509   3.055 -0.1732 -0.2729 -0.2637
  541MOL0     C71340   5.938   7.638   3.040 -0.0603 -0.3337 -0.3088
  541MOL0     C71341   5.987   7.661   2.897 -0.4189 -0.4448 -0.2310
  541MOL0     C71342   5.902   7.751   2.811  0.6459  0.1438 -0.1172
  541MOL0     C71343   5.950   7.739   2.675  0.2109  0.8243  0.2330
  541MOL0     C71344   5.996   7.715   2.568 -0.1563  0.4218  0.0268
  541MOL0     C71345   5.496   7.446   2.965 -0.3492  0.2320  0.5771
  541MOL0     C71346   5.396   7.347   2.949  0.0052 -0.7032 -0.1146
  541MOL0     H71347   5.159   7.051   2.694 -1.4556  1.7771 -0.4650
  541MOL0     H71348   4.975   6.906   2.619 -0.3383 -0.7822  0.3001
  541MOL0     H71349   4.649   6.869   2.950  0.2852  2.6152 -2.4966
  541MOL0     H71350   4.701   6.696   2.940 -0.1850  0.9523  1.0346
  541MOL0     H71351   4.586   6.645   2.757  1.0694 -1.5594  2.2753
  541MOL0     H71352   4.566   6.821   2.717 -1.8037 -0.8349 -1.0756
  541MOL0     H71353   4.345   6.747   2.780 -2.0237 -2.0688  0.7313
  541MOL0     H71354   4.403   6.813   2.937 -0.7109  0.2767 -0.1868
  541MOL0     H71355   4.438   6.521   2.874  1.5687  0.5647  0.8274
  541MOL0     H71356   4.462   6.608   3.032 -1.8180  0.9669  2.1193
  541MOL0     H71357   4.247   6.477   3.033  1.4280  0.3079  1.1678
  541MOL0     H71358   4.189   6.556   2.887 -4.7097  2.0741  2.6888
  541MOL0     H71359   4.201   6.781   3.019 -2.2238  1.9961  0.2303
  541MOL0     H71360   4.263   6.697   3.158  0.1798 -0.7964 -0.5834
  541MOL0     H71361   3.994   6.613   3.029  1.0522 -1.0571 -0.9425
  541MOL0     H71362   4.076   6.549   3.173 -1.2248  0.0621 -1.0467
  541MOL0     H71363   3.991   6.839   3.137 -0.4009 -0.0893 -1.7019
  541MOL0     H71364   4.068   6.765   3.283 -1.2943 -2.4685  0.5708
  541MOL0     H71365   3.732   6.719   3.088 -1.0705  1.6404  1.3794
  541MOL0     H71366   3.511   6.524   3.150  0.7101 -2.0279  1.0721
  541MOL0     H71367   3.480   6.659   3.247  0.9322  0.5592  2.5011
  541MOL0     H71368   3.471   6.514   3.433 -0.4639  0.0622  0.3287
  541MOL0     H71369   3.520   6.379   3.338 -0.4584  0.2174  0.1584
  541MOL0     H71370   3.285   6.567   3.272 -0.3795  0.2412 -1.2464
  541MOL0     H71371   3.326   6.430   3.175 -0.1231  0.8083 -0.3560
  541MOL0     H71372   3.178   6.428   3.440 -0.1516 -0.6543  0.6764
  541MOL0     H71373   3.262   6.288   3.398  5.8056  1.2263 -3.0154
  541MOL0     H71374   2.903   6.297   3.110  2.7800  0.8269 -0.5633
  541MOL0     H71375   2.695   6.172   3.192 -0.6888  1.2272  0.7424
  541MOL0     H71376   2.396   6.007   3.524  1.0947  0.7180  1.4369
  541MOL0     H71377   2.241   5.819   3.587  0.0527 -0.3708 -0.5801
  541MOL0     H71378   2.174   5.585   3.571 -0.5602  1.7024  0.2341
  541MOL0     H71379   2.177   5.629   3.740  1.8782  2.8780 -0.7085
  541MOL0     H71380   2.184   5.364   3.611  0.4808  2.0720 -1.2674
  541MOL0     H71381   2.069   5.422   3.730  0.4218 -1.7063  0.2528
  541MOL0     H71382   2.243   5.411   3.912  0.8360  1.3604 -0.3267
  541MOL0     H71383   2.362   5.346   3.804 -0.4068 -0.0503 -0.1758
  541MOL0     H71384   2.114   5.211   3.905  1.4876  2.3012  1.9793
  541MOL0     H71385   2.211   5.156   3.755 -0.9697 -0.5774 -0.1106
  541MOL0     H71386   2.406   5.126   3.921 -1.3317  0.0955 -0.2594
  541MOL0     H71387   2.268   5.030   3.941 -1.0156  0.3265 -0.6473
  541MOL0     H71388   2.295   5.073   4.157 -0.9610 -2.5407 -1.2291
  541MOL0     H71389   2.171   5.198   4.120  0.9355  0.2052  3.1880
  541MOL0     H71390   2.463   5.230   4.189  0.4302  0.4124  1.6055
  541MOL0     H71391   2.393   5.348   4.078 -1.2567  0.3075  1.4696
  541MOL0     H71392   2.250   5.434   4.249  1.4437  1.4416 -1.3142
  541MOL0     H71393   2.384   5.378   4.344  0.1611  0.6997 -0.2793
  541MOL0     H71394   2.585   5.573   3.642  0.8360  0.2576 -1.6487
  541MOL0     H71395   2.738   5.766   3.579 -0.2805  1.6536 -0.6672
  541MOL0     H71396   2.866   6.162   3.586 -0.3393  1.1989  0.2799
  541MOL0     H71397   3.055   6.282   3.524 -0.2353 -3.0754  2.0785
  541MOL0     H71398   4.881   6.853   3.050  0.4083  2.9156  1.2932
  541MOL0     H71399   5.065   7.008   3.105 -1.1362  0.5731  0.3454
  541MOL0     H71400   5.604   7.078   3.003  0.6095 -0.3378  0.9865
  541MOL0     H71401   5.759   7.245   3.033  0.4487  2.0057 -1.5784
  541MOL0     H71402   5.905   7.425   3.010 -0.4092 -0.4356 -0.2433
  541MOL0     H71403   5.832   7.490   3.160 -3.8154  0.0063 -0.7467
  541MOL0     H71404   5.888   7.725   3.083 -1.4467 -2.2503  2.2424
  541MOL0     H71405   6.025   7.626   3.105 -0.8054 -0.4976  0.6645
  541MOL0     H71406   6.002   7.563   2.852 -0.7083 -0.3069 -0.6372
  541MOL0     H71407   6.085   7.708   2.903 -0.7147  0.3407 -1.1911
  541MOL0     H71408   5.798   7.718   2.816  0.1181  1.8458  3.9636
  541MOL0     H71409   5.900   7.857   2.840  1.7983 -0.2144  1.3896
  541MOL0     H71410   6.042   7.678   2.479  0.6892  2.5172 -0.4841
  541MOL0     H71411   5.483   7.554   2.954  0.8133  0.4639  1.3352
  541MOL0     H71412   5.295   7.373   2.920 -0.7083 -0.1440  2.5695
  542MOL0     O71413   3.194   6.074   9.622 -0.2888 -0.8649  0.5144
  542MOL0     C71414   3.184   6.086   9.495  0.9179  0.1170 -0.6644
  542MOL0     O71415   3.098   6.162   9.430  0.3896 -0.3995  0.5034
  542MOL0     C71416   3.002   6.213   9.514  0.7827 -0.0175  0.5149
  542MOL0     C71417   3.018   6.354   9.530  0.8448  0.9737 -0.1679
  542MOL0     C71418   2.926   6.419   9.614  0.2573 -0.3287  0.6967
  542MOL0     C71419   2.830   6.350   9.685 -0.5686  0.4401  0.0925
  542MOL0     O71420   2.759   6.426   9.770  0.1079 -0.3002 -0.2901
  542MOL0     C71421   2.653   6.376   9.849 -0.2727  1.2731  0.7570
  542MOL0     C71422   2.715   6.307   9.975 -0.3947 -0.5228  0.2828
  542MOL0     C71423   2.600   6.259  10.071 -0.0137 -0.2525 -0.7519
  542MOL0     C71424   2.483   6.369  10.086 -0.2324 -1.0932 -0.5452
  542MOL0     C71425   2.378   6.350  10.196 -0.1371  0.1243  0.1698
  542MOL0     C71426   2.286   6.231  10.170  1.8897  0.5894 -0.0351
  542MOL0     C71427   2.168   6.256  10.268  0.6058 -0.1282  0.0492
  542MOL0     C71428   2.072   6.365  10.211 -0.0645 -0.6815 -0.2960
  542MOL0     N71429   1.947   6.377  10.286 -0.2368 -0.4101 -0.0479
  542MOL0     C71430   1.934   6.447  10.409 -0.2247  0.0084  1.2577
  542MOL0     C71431   1.802   6.475  10.422 -0.5322 -0.0234 -1.1909
  542MOL0     C71432   1.770   6.549  10.549  0.0291  0.1609  0.0314
  542MOL0     C71433   1.632   6.620  10.548 -0.2055  0.4327  0.5035
  542MOL0     C71434   1.520   6.516  10.544 -0.0108  0.5251  0.7064
  542MOL0     C71435   1.549   6.397  10.638 -0.8778  0.4195  0.1759
  542MOL0     O71436   1.427   6.317  10.629  0.6878  0.0734 -0.1131
  542MOL0     C71437   1.338   6.315  10.724 -0.6034 -0.1594 -0.3690
  542MOL0     C71438   1.368   6.334  10.864  0.0270  0.0981 -0.6669
  542MOL0     C71439   1.264   6.341  10.951  0.6061  0.1855 -0.8727
  542MOL0     C71440   1.135   6.332  10.907  0.3368  0.7416 -0.2038
  542MOL0     C71441   1.019   6.340  11.001 -0.2705 -1.0021 -0.0475
  542MOL0     O71442   0.891   6.322  10.953  0.0559  0.4547  0.1600
  542MOL0     C71443   0.785   6.389  11.010  0.9980 -0.5816 -0.7075
  542MOL0     C71444   0.663   6.356  10.950 -0.2477  0.3210  0.4088
  542MOL0     C71445   0.534   6.406  10.993 -0.1681 -0.2421  1.3552
  542MOL0     C71446   0.531   6.498  11.091 -0.4599 -0.4468 -0.7623
  542MOL0     O71447   0.412   6.561  11.116 -0.0750 -0.4456  0.3426
  542MOL0     C71448   0.410   6.680  11.204 -0.2079  0.1393 -0.2079
  542MOL0     C71449   0.276   6.736  11.218 -0.1674  0.3279 -0.2923
  542MOL0     C71450   0.173   6.637  11.289 -0.3701  0.1387 -0.0441
  542MOL0     C71451   0.026   6.654  11.245 -0.7893  0.2763 -0.4268
  542MOL0     C71452  -0.066   6.629  11.372 -1.1792  0.0723  0.1940
  542MOL0     C71453  -0.208   6.576  11.327  0.6275 -0.5257  0.4231
  542MOL0     C71454  -0.315   6.587  11.438  0.0404 -0.0163  0.1814
  542MOL0     C71455  -0.398   6.711  11.434 -0.2770 -0.4019  0.1499
  542MOL0    Cl71456  -0.297   6.840  11.510  0.0461  0.3855  0.6201
  542MOL0     C71457   0.647   6.535  11.157 -0.1395 -0.4521 -0.2622
  542MOL0     C71458   0.772   6.475  11.122 -0.4045 -0.7061  0.2913
  542MOL0     O71459   1.050   6.385  11.108 -0.0508 -0.6723  0.3086
  542MOL0     C71460   1.105   6.304  10.779  0.1517 -0.6563 -0.0755
  542MOL0     C71461   1.206   6.293  10.684 -0.2980 -0.3112 -0.6011
  542MOL0     N71462   1.734   6.403  10.322  0.5309 -0.2042 -0.5754
  542MOL0     N71463   1.819   6.350  10.238 -1.2604 -0.2862 -0.0025
  542MOL0     C71464   2.820   6.210   9.663  0.8986 -0.3513  0.2972
  542MOL0     C71465   2.898   6.141   9.577 -0.7009  0.6732  0.5840
  542MOL0     C71466   3.270   6.001   9.405  0.1535 -0.1182 -0.3303
  542MOL0     C71467   3.391   5.957   9.447 -0.4242 -0.1823 -0.3930
  542MOL0     C71468   3.477   5.882   9.359  0.5978 -0.3401 -0.7192
  542MOL0     C71469   3.438   5.845   9.231 -1.0962 -0.7127 -1.4568
  542MOL0     O71470   3.521   5.786   9.146 -0.7883  0.3620 -0.0987
  542MOL0     C71471   3.473   5.671   9.079  0.6475 -0.5737  0.6508
  542MOL0     C71472   3.576   5.632   8.971 -0.3898 -0.0761  0.7293
  542MOL0     C71473   3.546   5.491   8.912 -0.7801 -0.3264 -0.4801
  542MOL0     C71474   3.652   5.425   8.810 -0.0066 -0.4711 -0.4083
  542MOL0     C71475   3.788   5.418   8.861 -0.1549 -0.5006 -0.1144
  542MOL0     C71476   3.899   5.401   8.914 -0.3440 -0.3844  0.5504
  542MOL0     C71477   3.327   5.910   9.177  0.8592  0.2452 -0.4231
  542MOL0     C71478   3.237   5.985   9.263 -0.5353 -0.3540  0.2628
  542MOL0     H71479   3.101   6.411   9.489  1.3670  1.7946  1.8912
  542MOL0     H71480   2.925   6.527   9.618 -1.9000 -0.1550 -1.8784
  542MOL0     H71481   2.597   6.299   9.795  2.1509  0.7963 -1.2842
  542MOL0     H71482   2.590   6.461   9.876 -0.1028  0.3472  4.6145
  542MOL0     H71483   2.784   6.380  10.019 -1.6875 -0.1290  1.7155
  542MOL0     H71484   2.781   6.224   9.947 -2.1949 -1.7090 -0.6114
  542MOL0     H71485   2.632   6.227  10.171 -2.8698 -2.4026 -0.4149
  542MOL0     H71486   2.554   6.169  10.029  1.5833 -0.8630 -1.2981
  542MOL0     H71487   2.527   6.468  10.106  0.1998 -1.2616 -0.6534
  542MOL0     H71488   2.430   6.378   9.991  0.9782 -0.9446 -1.2358
  542MOL0     H71489   2.325   6.442  10.221  0.4133  0.5635 -0.2565
  542MOL0     H71490   2.437   6.336  10.286 -1.5447  1.7060  1.4034
  542MOL0     H71491   2.324   6.136  10.208  1.0504  0.6923  1.1534
  542MOL0     H71492   2.255   6.216  10.067 -2.1761  1.4790  0.8645
  542MOL0     H71493   2.106   6.167  10.281 -1.5401  0.7682 -2.9367
  542MOL0     H71494   2.209   6.281  10.366 -0.3084  2.1058 -0.0580
  542MOL0     H71495   2.045   6.351  10.105  1.0899 -3.2561 -0.3427
  542MOL0     H71496   2.108   6.468  10.209  2.6578 -1.5375  0.2289
  542MOL0     H71497   2.009   6.478  10.481  1.8678  1.0843 -1.1946
  542MOL0     H71498   1.850   6.624  10.558 -1.5573  2.1919 -1.6956
  542MOL0     H71499   1.773   6.491  10.641 -1.7073 -1.4074 -0.8365
  542MOL0     H71500   1.627   6.694  10.468  0.1907 -0.8260 -0.7318
  542MOL0     H71501   1.620   6.676  10.641 -0.2692 -1.2627  1.5633
  542MOL0     H71502   1.428   6.567  10.573 -1.6152 -1.7194 -0.1397
  542MOL0     H71503   1.504   6.486  10.440  0.7851  0.3858  0.6184
  542MOL0     H71504   1.574   6.424  10.741  0.6943 -1.4851  0.3577
  542MOL0     H71505   1.630   6.332  10.603  0.2005  2.8480 -2.2535
  542MOL0     H71506   1.472   6.341  10.893  0.3180  2.9273 -2.1275
  542MOL0     H71507   1.280   6.350  11.058 -1.0167 -0.1272 -0.5766
  542MOL0     H71508   0.673   6.297  10.859  1.3140  0.8529  0.2050
  542MOL0     H71509   0.457   6.374  10.923  2.1655 -1.7869 -0.6578
  542MOL0     H71510   0.468   6.765  11.167  1.0030  0.9008  3.0422
  542MOL0     H71511   0.443   6.649  11.304  3.2138 -3.3438 -2.1535
  542MOL0     H71512   0.237   6.772  11.123  0.4027  1.2420 -0.1951
  542MOL0     H71513   0.279   6.826  11.280 -5.4278 -1.9273  4.0741
  542MOL0     H71514   0.183   6.666  11.394 -0.3444  2.2812 -0.5944
  542MOL0     H71515   0.202   6.534  11.269  2.9079  1.2919 -2.0221
  542MOL0     H71516   0.007   6.756  11.209  0.3304  0.8256  0.4765
  542MOL0     H71517   0.014   6.590  11.157 -0.6650  1.2480 -1.1773
  542MOL0     H71518  -0.075   6.716  11.438 -1.6369 -0.1536  0.4329
  542MOL0     H71519  -0.029   6.553  11.440 -0.4891  0.9265  0.7961
  542MOL0     H71520  -0.216   6.475  11.288 -0.1543 -0.1788 -0.3464
  542MOL0     H71521  -0.243   6.637  11.243  0.1997  2.1976  2.4389
  542MOL0     H71522  -0.378   6.498  11.435  1.7267 -1.3073  0.9512
  542MOL0     H71523  -0.267   6.576  11.536 -1.7132 -3.6715  0.8063
  542MOL0     H71524  -0.492   6.692  11.487  0.1036  1.5349  1.6297
  542MOL0     H71525  -0.416   6.733  11.328  2.2976  0.8909 -0.1017
  542MOL0     H71526   0.647   6.605  11.240  0.8774 -0.3005 -0.3677
  542MOL0     H71527   0.864   6.494  11.177 -1.5638 -0.8317  2.3793
  542MOL0     H71528   1.004   6.292  10.739 -2.1857 -1.5979  5.2748
  542MOL0     H71529   1.192   6.272  10.578 -0.2663 -0.4906 -0.5706
  542MOL0     H71530   2.741   6.154   9.714 -0.5164  1.0401 -0.2803
  542MOL0     H71531   2.892   6.033   9.579 -1.3463  0.6915 -0.0737
  542MOL0     H71532   3.423   5.963   9.551  2.2242  0.1447 -1.1336
  542MOL0     H71533   3.580   5.850   9.375  1.4033  1.7060 -1.4428
  542MOL0     H71534   3.376   5.686   9.031 -0.4644  0.8106  3.1384
  542MOL0     H71535   3.472   5.586   9.148  0.9441 -0.5823  0.6487
  542MOL0     H71536   3.565   5.692   8.881  1.2894 -2.4908 -1.2257
  542MOL0     H71537   3.678   5.634   9.012 -0.7498  1.5453  1.6270
  542MOL0     H71538   3.443   5.489   8.874 -0.7870 -1.3858 -0.4368
  542MOL0     H71539   3.550   5.423   8.998  1.2820 -0.6639 -0.8004
  542MOL0     H71540   3.610   5.326   8.791 -1.0200 -0.1647  0.2124
  542MOL0     H71541   3.645   5.495   8.726 -4.1809  0.6795  0.6756
  542MOL0     H71542   3.990   5.377   8.965  1.0856 -1.0313 -2.0771
  542MOL0     H71543   3.310   5.908   9.069  0.6149  0.8252 -0.4006
  542MOL0     H71544   3.164   6.050   9.217 -0.4187 -0.2433  0.2331
  543MOL0     O71545   8.375   8.956   7.918 -0.0935 -0.5630 -0.5997
  543MOL0     C71546   8.335   8.956   7.798 -0.8344 -0.3838 -0.1333
  543MOL0     O71547   8.207   8.957   7.756 -0.4355 -0.5827  0.4315
  543MOL0     C71548   8.107   8.880   7.816 -0.8663  1.0280 -1.3971
  543MOL0     C71549   8.134   8.770   7.899  0.4645  0.5559 -0.4368
  543MOL0     C71550   8.035   8.697   7.961  0.6787  0.4877  0.3074
  543MOL0     C71551   7.900   8.718   7.926  0.0925 -0.0015 -0.3082
  543MOL0     O71552   7.786   8.651   7.970 -0.4850  0.4374 -0.3104
  543MOL0     C71553   7.794   8.578   8.097 -0.5928 -0.1041 -0.4745
  543MOL0     C71554   7.666   8.514   8.118  0.3606  0.6994 -0.9241
  543MOL0     C71555   7.549   8.609   8.161 -0.6008  0.3134 -0.4714
  543MOL0     C71556   7.438   8.534   8.236  0.9632 -0.2948  0.9587
  543MOL0     C71557   7.344   8.469   8.129  0.7979 -0.7285  0.3256
  543MOL0     C71558   7.239   8.366   8.174  0.1689  0.6290 -0.1908
  543MOL0     C71559   7.164   8.424   8.289  0.4310 -0.5618  0.6786
  543MOL0     C71560   7.035   8.337   8.321 -0.0820 -0.1300 -0.0060
  543MOL0     N71561   6.935   8.415   8.385 -0.3254 -0.0206 -0.3645
  543MOL0     C71562   6.832   8.359   8.450  0.4939  0.3259 -0.6434
  543MOL0     C71563   6.733   8.456   8.442  0.2675  0.1875 -0.2647
  543MOL0     C71564   6.592   8.455   8.494  0.0367  0.4510 -0.5026
  543MOL0     C71565   6.581   8.521   8.634  0.0861 -0.2496 -0.5732
  543MOL0     C71566   6.448   8.501   8.703  0.6623  0.8022 -0.7675
  543MOL0     C71567   6.334   8.529   8.600  0.0767  0.5002  0.4253
  543MOL0     O71568   6.198   8.509   8.649  0.0037 -0.6862 -0.6434
  543MOL0     C71569   6.101   8.564   8.573  0.0550 -0.0305 -0.0264
  543MOL0     C71570   6.120   8.618   8.441 -0.1967  0.4720 -1.5103
  543MOL0     C71571   6.009   8.660   8.369 -0.0602  0.7851  0.2913
  543MOL0     C71572   5.882   8.656   8.427  0.0737  0.6431  0.6748
  543MOL0     C71573   5.760   8.712   8.369  0.2401  0.2257 -0.3416
  543MOL0     O71574   5.651   8.726   8.451  0.4759  0.4651  0.6236
  543MOL0     C71575   5.533   8.764   8.393 -0.1338  0.2099 -0.9698
  543MOL0     C71576   5.482   8.734   8.266  0.2046  0.9711  0.2146
  543MOL0     C71577   5.353   8.760   8.230  0.5364 -0.3352 -1.1452
  543MOL0     C71578   5.263   8.808   8.327  0.4743 -1.0200  1.0235
  543MOL0     O71579   5.127   8.822   8.311 -0.1342  0.0556  0.0046
  543MOL0     C71580   5.052   8.744   8.218 -0.3301  0.5387 -0.7617
  543MOL0     C71581   4.975   8.809   8.107  0.5089 -0.1932  0.0440
  543MOL0     C71582   4.870   8.909   8.148  0.3027 -0.8978 -0.2342
  543MOL0     C71583   4.745   8.834   8.207  0.0731 -0.0428  1.1939
  543MOL0     C71584   4.650   8.932   8.262  0.5905  0.2424 -0.0768
  543MOL0     C71585   4.521   8.880   8.340  0.6919 -0.0287  0.2495
  543MOL0     C71586   4.499   8.964   8.467 -0.0758  0.3435  0.1611
  543MOL0     C71587   4.377   8.921   8.556  0.9600 -0.1360 -0.5225
  543MOL0    Cl71588   4.226   8.951   8.457 -0.0563 -0.4513 -0.1835
  543MOL0     C71589   5.305   8.845   8.453  0.5926  0.1783 -0.0305
  543MOL0     C71590   5.437   8.814   8.489  0.1027  0.4741 -0.2677
  543MOL0     O71591   5.776   8.758   8.255 -0.1845  0.9423 -0.1723
  543MOL0     C71592   5.870   8.591   8.552 -0.1673  0.3672 -0.3759
  543MOL0     C71593   5.978   8.547   8.623  0.0508 -1.0138 -0.3743
  543MOL0     N71594   6.781   8.559   8.382 -0.1238 -0.0647  1.0460
  543MOL0     N71595   6.899   8.532   8.329  0.2871 -0.3725  0.0787
  543MOL0     C71596   7.873   8.812   7.824 -0.8791 -0.6495 -0.4891
  543MOL0     C71597   7.973   8.891   7.768 -1.0024  0.0051  0.6556
  543MOL0     C71598   8.440   8.944   7.704 -0.3396  0.1103 -0.8361
  543MOL0     C71599   8.571   8.958   7.749 -0.6341 -0.6045 -0.0068
  543MOL0     C71600   8.677   8.952   7.660 -0.1232  0.0858 -0.3746
  543MOL0     C71601   8.646   8.933   7.527 -0.3456 -0.1016  0.1108
  543MOL0     O71602   8.750   8.937   7.438  0.3911  0.1502  0.3104
  543MOL0     C71603   8.750   8.820   7.351 -1.1273 -0.3067 -0.0252
  543MOL0     C71604   8.899   8.800   7.314  0.2854  0.0783 -0.1118
  543MOL0     C71605   8.929   8.664   7.245  0.2534  1.0040  0.6114
  543MOL0     C71606   9.072   8.644   7.197  0.1526  0.9056  0.4798
  543MOL0     C71607   9.163   8.629   7.309  0.5961 -0.5519 -0.4670
  543MOL0     C71608   9.219   8.631   7.416  0.5341 -0.5189  0.3575
  543MOL0     C71609   8.518   8.911   7.486 -0.3382 -0.8019 -0.4445
  543MOL0     C71610   8.407   8.922   7.571 -0.2211  0.9988 -0.8972
  543MOL0     H71611   8.235   8.749   7.930  0.2703 -0.6854 -0.5885
  543MOL0     H71612   8.067   8.615   8.024 -3.1155 -1.9056 -0.5858
  543MOL0     H71613   7.846   8.637   8.173  1.7592  0.3844 -2.3574
  543MOL0     H71614   7.858   8.491   8.082  0.6304  0.9429 -1.5420
  543MOL0     H71615   7.686   8.440   8.196  0.7831  1.8431  0.0984
  543MOL0     H71616   7.640   8.462   8.026  1.6126  2.7455 -2.5194
  543MOL0     H71617   7.518   8.671   8.077  1.0162  1.6389 -0.1534
  543MOL0     H71618   7.588   8.678   8.237 -0.5985  2.3177 -2.2103
  543MOL0     H71619   7.477   8.460   8.307  1.8602 -0.3829  0.3875
  543MOL0     H71620   7.382   8.618   8.279 -0.2371  0.0237 -1.1130
  543MOL0     H71621   7.409   8.432   8.049 -0.2908 -0.6628 -0.6095
  543MOL0     H71622   7.278   8.550   8.098 -0.9005 -2.3540 -0.5176
  543MOL0     H71623   7.295   8.280   8.212 -0.7432  0.9979  2.1216
  543MOL0     H71624   7.179   8.346   8.084 -0.2566 -2.1252  0.5967
  543MOL0     H71625   7.227   8.431   8.379  1.4331  0.2500 -0.0517
  543MOL0     H71626   7.139   8.531   8.283 -3.1075 -0.9477  4.1743
  543MOL0     H71627   7.076   8.253   8.377  0.2803 -1.3248 -1.9772
  543MOL0     H71628   6.984   8.296   8.233  0.7174 -3.8965  1.0967
  543MOL0     H71629   6.822   8.259   8.491  0.5098 -0.1576 -1.7594
  543MOL0     H71630   6.556   8.352   8.501 -0.8038  0.8001  0.4947
  543MOL0     H71631   6.530   8.514   8.425 -1.0399  2.1690  1.8112
  543MOL0     H71632   6.605   8.627   8.625  0.5012 -0.2081  0.8327
  543MOL0     H71633   6.661   8.473   8.691  1.3339  1.7882 -0.4974
  543MOL0     H71634   6.434   8.400   8.743 -1.4058 -0.7116 -4.7736
  543MOL0     H71635   6.442   8.576   8.783  0.9391  2.1037 -1.9270
  543MOL0     H71636   6.340   8.454   8.520  0.5030 -0.7682  1.6065
  543MOL0     H71637   6.344   8.634   8.572 -0.7383  0.5330  0.2170
  543MOL0     H71638   6.218   8.629   8.397  1.0575  1.7326  1.3758
  543MOL0     H71639   6.040   8.694   8.271 -0.5896 -1.5439 -0.7648
  543MOL0     H71640   5.549   8.705   8.186  1.1113  0.3026  1.1920
  543MOL0     H71641   5.324   8.739   8.128 -0.6647  1.0602 -1.1287
  543MOL0     H71642   4.989   8.678   8.278 -0.2979 -0.9470 -2.2858
  543MOL0     H71643   5.115   8.674   8.163  0.2352  0.7333 -0.3597
  543MOL0     H71644   4.927   8.733   8.044  2.1739 -0.0786 -1.4295
  543MOL0     H71645   5.048   8.854   8.040  1.7127 -1.7713  0.2290
  543MOL0     H71646   4.852   8.973   8.061  1.6138  2.1133  1.5696
  543MOL0     H71647   4.908   8.981   8.221 -1.3515  0.3854 -0.5828
  543MOL0     H71648   4.696   8.770   8.132  0.3319  0.2440  0.7773
  543MOL0     H71649   4.788   8.783   8.294  3.2875  2.3604  1.1897
  543MOL0     H71650   4.609   8.983   8.175 -0.3593  0.1755  0.3203
  543MOL0     H71651   4.709   8.998   8.327  4.2578  1.9014 -4.5687
  543MOL0     H71652   4.526   8.775   8.372  1.4960 -0.5623 -1.4626
  543MOL0     H71653   4.425   8.891   8.289 -0.0439 -0.4717  1.5030
  543MOL0     H71654   4.596   8.960   8.517  1.7099 -3.7672 -3.0186
  543MOL0     H71655   4.482   9.068   8.439  1.6146  0.4283 -0.6892
  543MOL0     H71656   4.361   8.984   8.645  1.8410 -1.9679  1.0152
  543MOL0     H71657   4.390   8.816   8.585  3.3715  0.7110  1.9733
  543MOL0     H71658   5.236   8.889   8.524  1.1908  0.2338  0.5214
  543MOL0     H71659   5.479   8.818   8.589  1.5713 -0.7839 -0.8008
  543MOL0     H71660   5.777   8.569   8.603  0.1485 -2.2170 -0.8089
  543MOL0     H71661   5.964   8.491   8.715  2.7748 -0.5804  0.3834
  543MOL0     H71662   7.772   8.835   7.790 -2.7177 -0.1607  4.5019
  543MOL0     H71663   7.962   8.957   7.683  2.9333 -0.5103 -0.4578
  543MOL0     H71664   8.606   8.972   7.851  2.1833  0.9478 -1.0596
  543MOL0     H71665   8.777   8.976   7.695 -0.6244 -2.3563  3.1958
  543MOL0     H71666   8.682   8.819   7.265 -1.8395  0.2535  0.5255
  543MOL0     H71667   8.730   8.723   7.397 -1.4494 -0.5916 -0.7416
  543MOL0     H71668   8.934   8.875   7.242 -4.0374 -0.6648 -3.4327
  543MOL0     H71669   8.964   8.800   7.402 -0.1404 -1.2322  0.2254
  543MOL0     H71670   8.863   8.665   7.158 -1.0995  1.8040  1.5970
  543MOL0     H71671   8.887   8.578   7.298 -0.7654  0.3350 -1.1783
  543MOL0     H71672   9.070   8.551   7.139 -1.4924 -0.0252  1.9188
  543MOL0     H71673   9.099   8.729   7.133 -2.2718  0.1114 -1.7881
  543MOL0     H71674   9.279   8.646   7.503 -1.5916 -0.7163  1.9584
  543MOL0     H71675   8.486   8.887   7.385 -3.9479  2.0903 -0.2138
  543MOL0     H71676   8.303   8.921   7.540 -0.7226 -0.2576  0.6712
  544MOL0     O71677   5.949   1.358   6.330  0.3038  0.0377 -1.1742
  544MOL0     C71678   5.948   1.242   6.280  1.1367  0.1713  0.4886
  544MOL0     O71679   5.832   1.163   6.261 -0.0154 -0.2849  0.3552
  544MOL0     C71680   5.726   1.196   6.344  0.3599 -0.3266  0.9040
  544MOL0     C71681   5.743   1.196   6.481 -0.2847  0.0840  1.0173
  544MOL0     C71682   5.645   1.247   6.556 -0.0774 -0.4268 -0.1111
  544MOL0     C71683   5.512   1.279   6.508 -0.3368  0.2738 -0.9092
  544MOL0     O71684   5.414   1.335   6.584  1.2347  0.0456 -0.5322
  544MOL0     C71685   5.435   1.340   6.729  0.4005 -0.1468  0.3472
  544MOL0     C71686   5.324   1.429   6.786  0.3608  0.3388  0.1918
  544MOL0     C71687   5.320   1.416   6.930 -0.5457  0.2996 -0.5744
  544MOL0     C71688   5.195   1.467   7.007  0.5900 -0.7889  0.0136
  544MOL0     C71689   5.225   1.526   7.143 -0.7369  0.1105 -1.0363
  544MOL0     C71690   5.087   1.570   7.208  0.4248 -0.4490  0.3195
  544MOL0     C71691   5.088   1.575   7.368  0.3455 -1.4785  0.4952
  544MOL0     C71692   5.171   1.702   7.426  0.2369 -0.2776  0.3218
  544MOL0     N71693   5.145   1.723   7.567  0.4487 -0.2169 -0.1355
  544MOL0     C71694   5.220   1.661   7.665  0.4336 -0.1969 -0.5065
  544MOL0     C71695   5.146   1.678   7.777 -0.0133  0.2416  0.3967
  544MOL0     C71696   5.173   1.621   7.914 -0.7183 -0.1107 -0.3853
  544MOL0     C71697   5.069   1.670   8.017 -0.3609  0.4392  0.2810
  544MOL0     C71698   5.117   1.621   8.145  0.1319 -0.1592 -0.3780
  544MOL0     C71699   5.091   1.471   8.172 -0.8751 -0.5643 -0.2315
  544MOL0     O71700   5.105   1.455   8.315 -0.0454  0.1170 -0.6609
  544MOL0     C71701   4.989   1.426   8.387 -0.0104 -0.2577  1.0494
  544MOL0     C71702   4.921   1.306   8.375 -0.5594  0.3206 -0.5804
  544MOL0     C71703   4.799   1.293   8.443  0.7550  0.1194  0.0266
  544MOL0     C71704   4.737   1.397   8.508  0.5034 -0.1071 -0.8216
  544MOL0     C71705   4.613   1.370   8.582 -0.0883 -0.0640 -0.4204
  544MOL0     O71706   4.540   1.259   8.548  0.2422  0.1532 -0.4662
  544MOL0     C71707   4.413   1.249   8.585  0.2310  0.1032  0.0198
  544MOL0     C71708   4.364   1.129   8.643 -0.2694  0.0186  0.3517
  544MOL0     C71709   4.225   1.107   8.661  0.3050  0.3909  0.0638
  544MOL0     C71710   4.145   1.217   8.672  0.1483  0.2978 -0.2710
  544MOL0     O71711   4.017   1.221   8.720  0.5318 -0.6279 -0.4651
  544MOL0     C71712   3.963   1.101   8.780 -0.2611  0.4857  0.9818
  544MOL0     C71713   3.817   1.131   8.824  0.1351  0.0182 -0.9070
  544MOL0     C71714   3.726   1.172   8.704  0.2552  0.4431 -1.0473
  544MOL0     C71715   3.589   1.152   8.763  0.2544  0.0642  0.2673
  544MOL0     C71716   3.472   1.194   8.662 -0.2739 -0.1341  0.4981
  544MOL0     C71717   3.338   1.124   8.702  0.1319  0.1096  1.0751
  544MOL0     C71718   3.302   1.118   8.854  0.5335 -0.3069 -0.9391
  544MOL0     C71719   3.156   1.060   8.882 -0.1614  0.5674 -0.1617
  544MOL0    Cl71720   3.093   1.101   9.037  0.1083  0.2425  0.5299
  544MOL0     C71721   4.189   1.342   8.619 -0.1416 -0.8516 -0.1428
  544MOL0     C71722   4.323   1.361   8.581 -0.0668 -0.7062  0.2602
  544MOL0     O71723   4.594   1.445   8.675 -0.1640  0.4647  0.6255
  544MOL0     C71724   4.814   1.514   8.525  0.6107 -0.3414  0.0421
  544MOL0     C71725   4.939   1.527   8.462  0.4755 -0.4414 -0.1723
  544MOL0     N71726   5.036   1.754   7.747 -0.1329 -0.0831  0.0382
  544MOL0     N71727   5.041   1.785   7.620  0.4815 -0.0623  0.2859
  544MOL0     C71728   5.497   1.257   6.372  0.5867  1.3629  0.0483
  544MOL0     C71729   5.597   1.220   6.291 -0.2666  0.2182 -0.1658
  544MOL0     C71730   6.071   1.203   6.219 -0.2987  0.1920 -0.1976
  544MOL0     C71731   6.182   1.269   6.267  0.5044 -0.0525  1.0029
  544MOL0     C71732   6.307   1.205   6.240 -0.5851  0.9920 -0.0244
  544MOL0     C71733   6.318   1.105   6.142  1.8884  0.5898  0.3801
  544MOL0     O71734   6.434   1.036   6.121 -0.1223  1.2240 -0.9499
  544MOL0     C71735   6.562   1.086   6.160 -0.1124 -0.5900  0.0607
  544MOL0     C71736   6.682   1.034   6.089 -0.6874  1.2039 -0.0513
  544MOL0     C71737   6.811   1.098   6.145 -0.0195 -0.2433 -1.2104
  544MOL0     C71738   6.932   1.083   6.049 -0.7719  0.2803 -0.0721
  544MOL0     C71739   6.962   0.945   6.020 -0.8064 -0.3705  0.8491
  544MOL0     C71740   6.957   0.834   5.981 -0.5658  0.2047  0.7187
  544MOL0     C71741   6.207   1.034   6.098  0.0315 -0.8795  0.1406
  544MOL0     C71742   6.079   1.088   6.132  0.8378  0.2046  0.1029
  544MOL0     H71743   5.838   1.188   6.532 -0.3980 -0.1342  1.1982
  544MOL0     H71744   5.677   1.261   6.659 -1.0013 -1.4733  0.3400
  544MOL0     H71745   5.525   1.397   6.754 -0.2435  0.3838  1.5694
  544MOL0     H71746   5.444   1.239   6.770 -0.7240 -0.9083 -1.1881
  544MOL0     H71747   5.227   1.396   6.747  0.6450 -0.7394  0.3677
  544MOL0     H71748   5.346   1.536   6.777 -0.3116  0.5818  1.2200
  544MOL0     H71749   5.415   1.460   6.965  1.4659 -3.9937  0.0600
  544MOL0     H71750   5.338   1.314   6.966 -1.0989 -0.4209 -2.2633
  544MOL0     H71751   5.139   1.545   6.955 -1.0070  1.6321  4.8148
  544MOL0     H71752   5.130   1.381   7.024 -2.3905  1.9611  4.2635
  544MOL0     H71753   5.294   1.611   7.147 -1.2358  0.5998  4.0939
  544MOL0     H71754   5.266   1.445   7.204 -1.1164  1.1752  0.6996
  544MOL0     H71755   5.006   1.505   7.176  0.5330  0.9707 -3.3071
  544MOL0     H71756   5.056   1.662   7.157 -1.8096 -1.4224 -0.1906
  544MOL0     H71757   4.986   1.595   7.404  1.6837  1.3012  3.2845
  544MOL0     H71758   5.126   1.483   7.414  3.1409  0.7425  3.0898
  544MOL0     H71759   5.137   1.794   7.379 -0.1686 -1.2723 -1.4132
  544MOL0     H71760   5.276   1.684   7.402  0.1288  2.5911 -3.0771
  544MOL0     H71761   5.304   1.595   7.644  2.5167  3.0218 -3.3734
  544MOL0     H71762   5.269   1.657   7.950 -1.1192  1.3972 -0.7545
  544MOL0     H71763   5.172   1.512   7.899  1.2920  0.1527 -3.1048
  544MOL0     H71764   4.970   1.625   8.010  1.0099 -2.8755  0.1173
  544MOL0     H71765   5.066   1.779   8.019  2.1610  0.6150 -0.7369
  544MOL0     H71766   5.221   1.639   8.173  0.0336 -1.7886  1.2700
  544MOL0     H71767   5.062   1.681   8.219 -0.5786 -0.0237 -1.0038
  544MOL0     H71768   5.165   1.410   8.122 -0.8492  0.0408 -0.9434
  544MOL0     H71769   4.989   1.446   8.140 -2.2102 -1.5537  4.0146
  544MOL0     H71770   4.962   1.226   8.314  0.7947  0.7117 -0.2263
  544MOL0     H71771   4.762   1.191   8.435 -1.2803  0.5099  2.8688
  544MOL0     H71772   4.429   1.043   8.656 -1.2205 -0.6086  1.0371
  544MOL0     H71773   4.198   1.007   8.694  1.4560  0.3746  1.0146
  544MOL0     H71774   4.027   1.059   8.858  2.5230 -0.5909 -1.6505
  544MOL0     H71775   3.964   1.014   8.713 -0.8630  0.4342  1.0373
  544MOL0     H71776   3.835   1.214   8.893 -0.9502 -0.9848  0.6549
  544MOL0     H71777   3.786   1.043   8.881  4.5262 -0.2780  1.5093
  544MOL0     H71778   3.740   1.112   8.613 -2.2899 -3.8209  1.0234
  544MOL0     H71779   3.734   1.277   8.678  0.9869  0.2796 -1.5234
  544MOL0     H71780   3.572   1.046   8.788 -3.3183  0.1733 -1.0843
  544MOL0     H71781   3.590   1.212   8.854 -0.6871 -0.0980  0.3962
  544MOL0     H71782   3.495   1.162   8.560 -1.1251  1.4608 -0.2330
  544MOL0     H71783   3.461   1.303   8.667  0.8492 -0.0685  2.3632
  544MOL0     H71784   3.352   1.022   8.664 -2.6185  0.6512 -1.7517
  544MOL0     H71785   3.248   1.160   8.652 -1.4424 -2.3818  1.8844
  544MOL0     H71786   3.374   1.047   8.894  0.3354 -2.1258 -3.5418
  544MOL0     H71787   3.321   1.216   8.899 -0.6193  0.7961 -2.7240
  544MOL0     H71788   3.170   0.952   8.876  2.3470  0.7198  1.2699
  544MOL0     H71789   3.080   1.101   8.815 -0.0417 -1.9449 -1.9778
  544MOL0     H71790   4.117   1.423   8.622 -0.8604 -1.5190  1.6441
  544MOL0     H71791   4.363   1.458   8.553  1.5885 -1.1526  0.9556
  544MOL0     H71792   4.772   1.586   8.596 -0.6505  0.1701 -1.1698
  544MOL0     H71793   4.996   1.614   8.495  0.5785 -0.6558  0.2292
  544MOL0     H71794   5.397   1.264   6.330  0.0077  0.1113  1.1578
  544MOL0     H71795   5.581   1.212   6.184 -0.4602  1.2023 -0.2219
  544MOL0     H71796   6.180   1.354   6.335 -1.3112 -1.8171  3.3174
  544MOL0     H71797   6.403   1.241   6.276  0.3840  0.3263 -1.8091
  544MOL0     H71798   6.576   1.076   6.268 -0.0818  0.5262  0.1759
  544MOL0     H71799   6.569   1.191   6.127 -0.2427 -0.9696 -1.2337
  544MOL0     H71800   6.680   0.927   6.108 -0.4988  1.2094  0.0054
  544MOL0     H71801   6.666   1.034   5.981 -0.6778  0.3119 -0.0589
  544MOL0     H71802   6.822   1.063   6.247 -2.9776 -0.9735 -1.0573
  544MOL0     H71803   6.811   1.207   6.148 -2.0862 -0.2362  0.2771
  544MOL0     H71804   6.919   1.134   5.953 -0.3521 -1.6843 -1.2284
  544MOL0     H71805   7.023   1.116   6.101  0.2245 -1.6028 -0.5484
  544MOL0     H71806   6.964   0.734   5.944  3.3826  0.8315 -0.6810
  544MOL0     H71807   6.213   0.941   6.042 -0.0122 -1.4827  1.1150
  544MOL0     H71808   5.989   1.038   6.099  0.6719 -1.1226  2.3951
  545MOL0     O71809   9.576  11.154   7.334 -0.2103 -0.6161  0.5572
  545MOL0     C71810   9.649  11.115   7.423 -0.2428  0.1161  0.7159
  545MOL0     O71811   9.645  10.994   7.491 -0.1138 -0.4416 -0.3277
  545MOL0     C71812   9.540  10.906   7.454 -0.0980 -0.1407 -0.5270
  545MOL0     C71813   9.407  10.953   7.460 -0.3072  1.1654  0.2786
  545MOL0     C71814   9.298  10.877   7.436  0.1567  0.8555 -0.1654
  545MOL0     C71815   9.323  10.734   7.439  0.4726  0.3640  0.4881
  545MOL0     O71816   9.220  10.640   7.447 -0.5496  1.0974  0.2529
  545MOL0     C71817   9.115  10.657   7.549 -0.5553  1.1255 -0.0082
  545MOL0     C71818   9.002  10.576   7.480  0.1657  0.4494  0.7809
  545MOL0     C71819   8.923  10.648   7.357  0.6055  1.5785 -0.0738
  545MOL0     C71820   8.795  10.575   7.329 -0.6790  0.4732  0.8531
  545MOL0     C71821   8.732  10.617   7.201  0.1280 -0.3233  0.3061
  545MOL0     C71822   8.678  10.762   7.208 -0.1063 -0.3703  0.4039
  545MOL0     C71823   8.595  10.787   7.091  0.1890 -0.3075  0.3319
  545MOL0     C71824   8.550  10.931   7.070 -0.5207 -0.8239 -0.0155
  545MOL0     N71825   8.468  10.950   6.952  0.0888 -0.3911 -0.0676
  545MOL0     C71826   8.335  10.909   6.930  0.6243 -0.6639  0.3857
  545MOL0     C71827   8.311  10.953   6.807  0.4473  0.1732  0.5695
  545MOL0     C71828   8.198  10.940   6.722  0.2479 -0.8758  0.1461
  545MOL0     C71829   8.121  11.076   6.698  0.1183  0.1075  0.7490
  545MOL0     C71830   8.053  11.125   6.828 -0.5367  0.3386 -0.1792
  545MOL0     C71831   7.933  11.231   6.814 -0.7814  0.2455  0.0518
  545MOL0     O71832   7.827  11.144   6.763 -0.2681 -0.2245 -0.2230
  545MOL0     C71833   7.718  11.189   6.699 -0.3830 -0.2086 -0.7050
  545MOL0     C71834   7.671  11.326   6.692  1.0381  0.3650  0.0476
  545MOL0     C71835   7.549  11.351   6.620  0.0634  0.0688  0.6095
  545MOL0     C71836   7.485  11.252   6.548 -0.4368 -0.5066 -0.2498
  545MOL0     C71837   7.369  11.283   6.463 -0.4371 -0.4178 -0.2106
  545MOL0     O71838   7.278  11.177   6.435 -0.3747 -0.2270 -0.3910
  545MOL0     C71839   7.176  11.190   6.347 -0.2564 -0.3011 -0.3307
  545MOL0     C71840   7.074  11.279   6.371  0.9322  0.4995  0.5932
  545MOL0     C71841   6.960  11.276   6.292  0.1187  0.2675  0.4456
  545MOL0     C71842   6.945  11.191   6.181  0.6691  1.3763 -0.2364
  545MOL0     O71843   6.835  11.203   6.109  0.8297 -0.7339 -0.2132
  545MOL0     C71844   6.794  11.107   6.010  0.1181  0.7355 -0.2119
  545MOL0     C71845   6.649  11.125   5.978  0.5650  0.2769 -0.5931
  545MOL0     C71846   6.589  11.002   5.917  0.5014  0.5626 -0.9764
  545MOL0     C71847   6.448  11.034   5.876 -0.0155 -1.3541 -0.0069
  545MOL0     C71848   6.352  10.921   5.871 -0.3012 -0.0303  0.3545
  545MOL0     C71849   6.218  10.958   5.804 -0.4715 -0.4665  0.4806
  545MOL0     C71850   6.124  10.835   5.799  0.8905 -0.8352  0.3270
  545MOL0     C71851   6.016  10.859   5.697 -0.5185  0.4370 -0.7444
  545MOL0    Cl71852   5.852  10.887   5.772 -0.2412 -0.6038 -0.2215
  545MOL0     C71853   7.052  11.106   6.152  0.5330 -0.3205  0.0468
  545MOL0     C71854   7.164  11.100   6.238  1.3020  0.0863 -1.6629
  545MOL0     O71855   7.357  11.400   6.414  0.6979  0.3041  0.1169
  545MOL0     C71856   7.537  11.126   6.552  0.1366 -0.0566  0.5139
  545MOL0     C71857   7.647  11.089   6.628 -1.0388  0.2814  0.1787
  545MOL0     N71858   8.419  11.016   6.749 -0.0411 -0.3006  0.7611
  545MOL0     N71859   8.517  11.008   6.837  0.5004 -0.6749 -0.0581
  545MOL0     C71860   9.456  10.690   7.421 -0.4324 -0.0761 -0.9374
  545MOL0     C71861   9.565  10.775   7.429  1.0139 -0.5451  0.3710
  545MOL0     C71862   9.742  11.220   7.465 -0.0150 -1.2838  0.2457
  545MOL0     C71863   9.839  11.196   7.573  0.2264 -0.1567  0.9813
  545MOL0     C71864   9.923  11.293   7.616 -0.1045  0.1887 -0.8193
  545MOL0     C71865   9.922  11.420   7.559 -0.3283 -0.7723  0.3985
  545MOL0     O71866  10.000  11.517   7.624 -0.6126  0.1373  0.0963
  545MOL0     C71867   9.954  11.653   7.617 -0.3505 -0.6215 -0.5531
  545MOL0     C71868  10.051  11.739   7.705  1.0024  0.3262 -0.6317
  545MOL0     C71869  10.187  11.759   7.636 -0.4038  0.2210  0.5314
  545MOL0     C71870  10.281  11.842   7.722  0.6143 -0.4163  0.2898
  545MOL0     C71871  10.410  11.864   7.665  0.3301  1.0975  0.5109
  545MOL0     C71872  10.515  11.886   7.617 -0.8465  0.7060 -0.6301
  545MOL0     C71873   9.829  11.452   7.455 -0.0257 -0.1787 -0.1707
  545MOL0     C71874   9.744  11.347   7.410  0.2067 -0.7243  0.3024
  545MOL0     H71875   9.392  11.059   7.480  0.3726  1.1634  0.8338
  545MOL0     H71876   9.196  10.915   7.438 -0.2843 -0.2719 -0.4795
  545MOL0     H71877   9.091  10.763   7.561  3.2159  2.0904  0.3145
  545MOL0     H71878   9.140  10.615   7.647 -3.1949  2.6447  1.4421
  545MOL0     H71879   8.926  10.575   7.560  2.0528  2.9249  2.7641
  545MOL0     H71880   9.020  10.471   7.454 -1.5656  0.5560 -1.1581
  545MOL0     H71881   8.986  10.670   7.270  3.7851 -0.4397  1.5258
  545MOL0     H71882   8.896  10.745   7.401  0.1788  0.7581  1.5484
  545MOL0     H71883   8.826  10.472   7.311  0.1253  1.1700 -2.5045
  545MOL0     H71884   8.721  10.599   7.406 -1.4649  1.4209 -0.1547
  545MOL0     H71885   8.655  10.547   7.166 -0.1494  0.7675 -1.4029
  545MOL0     H71886   8.808  10.614   7.122  0.1805 -0.5337  0.3631
  545MOL0     H71887   8.757  10.838   7.213 -0.2439  0.1198 -2.6896
  545MOL0     H71888   8.607  10.758   7.290  0.4985  0.5665  0.9852
  545MOL0     H71889   8.658  10.760   7.005 -0.2917 -2.0779  0.5134
  545MOL0     H71890   8.512  10.717   7.101  1.7044 -1.8057  4.3521
  545MOL0     H71891   8.627  11.009   7.069 -1.5015  0.1682 -0.6556
  545MOL0     H71892   8.487  10.956   7.156  0.0395  1.8436 -0.2839
  545MOL0     H71893   8.270  10.851   6.995 -0.3752  0.3641  0.3371
  545MOL0     H71894   8.124  10.869   6.761 -1.8228  0.2749 -1.4617
  545MOL0     H71895   8.236  10.901   6.627 -0.9040 -0.3749 -0.5406
  545MOL0     H71896   8.038  11.069   6.627  0.2390  2.5220  0.2754
  545MOL0     H71897   8.189  11.155   6.665 -1.0522  1.0689  0.5853
  545MOL0     H71898   8.010  11.037   6.877  0.2523  0.4648  0.7834
  545MOL0     H71899   8.135  11.161   6.891  1.1756 -2.4335 -0.6619
  545MOL0     H71900   7.950  11.310   6.742  3.4312  0.3558  0.9223
  545MOL0     H71901   7.904  11.278   6.909 -4.2168 -1.8245  0.2171
  545MOL0     H71902   7.734  11.398   6.743 -0.2718  1.8930 -0.4453
  545MOL0     H71903   7.509  11.450   6.602  0.8660 -0.0591 -2.4183
  545MOL0     H71904   7.075  11.356   6.448 -1.8932  0.2787  0.9621
  545MOL0     H71905   6.880  11.343   6.323 -3.2500 -2.3791 -1.8498
  545MOL0     H71906   6.804  11.011   6.062  0.1561  0.4450 -0.7568
  545MOL0     H71907   6.860  11.105   5.923  2.9647  1.9799  1.7682
  545MOL0     H71908   6.639  11.206   5.905 -0.0433 -2.1286 -3.3613
  545MOL0     H71909   6.597  11.146   6.072 -0.4279 -0.5333 -0.9384
  545MOL0     H71910   6.592  10.918   5.987  0.6702  0.3773 -1.2037
  545MOL0     H71911   6.643  10.968   5.828  0.2034  1.9756 -1.7193
  545MOL0     H71912   6.397  11.110   5.936  0.2683 -1.3355  0.2152
  545MOL0     H71913   6.463  11.077   5.777 -0.1769 -0.4542  0.3460
  545MOL0     H71914   6.339  10.887   5.974 -0.3620 -2.5561 -0.4176
  545MOL0     H71915   6.403  10.837   5.823  0.8305  0.1452  1.1854
  545MOL0     H71916   6.256  10.999   5.710  0.5906 -3.3517 -0.4925
  545MOL0     H71917   6.171  11.034   5.866  0.1968 -0.6788  1.2728
  545MOL0     H71918   6.173  10.741   5.773  0.7027 -1.1624  1.1435
  545MOL0     H71919   6.079  10.814   5.896  0.9237 -1.0372  0.2982
  545MOL0     H71920   6.010  10.778   5.624  0.3688 -0.1433 -0.1912
  545MOL0     H71921   6.031  10.956   5.650 -0.8688  3.5937  4.7240
  545MOL0     H71922   7.042  11.043   6.064 -1.5698 -1.3434  0.9369
  545MOL0     H71923   7.244  11.026   6.236  1.0377 -0.3608  0.9827
  545MOL0     H71924   7.488  11.047   6.496 -2.8473  0.8973  1.5533
  545MOL0     H71925   7.671  10.983   6.638 -2.2177 -0.5944 -4.0989
  545MOL0     H71926   9.476  10.584   7.429  0.0630  0.0419 -0.6082
  545MOL0     H71927   9.668  10.743   7.438  1.2072  0.0928  0.5285
  545MOL0     H71928   9.841  11.101   7.626  0.4979  0.0946  1.4240
  545MOL0     H71929   9.998  11.273   7.692  1.8057 -0.6260 -2.7987
  545MOL0     H71930   9.855  11.664   7.662  0.5628 -0.4748  1.5666
  545MOL0     H71931   9.966  11.689   7.514 -1.6824 -0.8085 -0.7920
  545MOL0     H71932  10.003  11.838   7.705  0.9195  0.3104  0.9598
  545MOL0     H71933  10.056  11.720   7.812  1.7777 -0.6771 -0.8394
  545MOL0     H71934  10.165  11.803   7.539 -3.0052 -0.7533  0.5951
  545MOL0     H71935  10.246  11.668   7.627  2.4959  2.0416 -0.2830
  545MOL0     H71936  10.224  11.935   7.733 -0.8354 -1.3653  1.1672
  545MOL0     H71937  10.288  11.795   7.820  2.5601  2.8864  1.9110
  545MOL0     H71938  10.609  11.906   7.569 -1.4952  1.6613 -1.5528
  545MOL0     H71939   9.819  11.549   7.409  3.8137  1.0693  1.2324
  545MOL0     H71940   9.676  11.368   7.327 -0.5251  2.1043  1.4994
  546MOL0     O71941   7.118   8.112  10.681  0.4765 -0.1292 -0.2270
  546MOL0     C71942   7.038   8.161  10.598  0.5787 -0.2954 -0.0972
  546MOL0     O71943   6.906   8.141  10.591 -0.7595  0.5753  0.5759
  546MOL0     C71944   6.845   8.061  10.685 -0.0147 -1.4424 -0.6066
  546MOL0     C71945   6.894   7.960  10.764  0.3045 -0.5910  0.1999
  546MOL0     C71946   6.821   7.891  10.852  0.2470 -1.1902  0.7694
  546MOL0     C71947   6.683   7.927  10.885 -0.5046  0.1964 -0.0247
  546MOL0     O71948   6.627   7.869  10.993  0.2193 -0.5075  0.3541
  546MOL0     C71949   6.511   7.918  11.057  0.2700  0.1163  0.4856
  546MOL0     C71950   6.379   7.892  10.984  0.3461 -0.4380  0.1405
  546MOL0     C71951   6.259   7.921  11.076 -0.2703  0.8780  1.1769
  546MOL0     C71952   6.125   7.890  11.010  0.6012  0.0008 -0.1251
  546MOL0     C71953   6.022   7.893  11.117 -0.3008 -0.0643  0.3035
  546MOL0     C71954   5.896   7.831  11.062  0.0857 -0.5744  0.7424
  546MOL0     C71955   5.778   7.873  11.150 -0.3461 -0.7100  0.2720
  546MOL0     C71956   5.653   7.830  11.078 -0.5805  0.0414  0.5885
  546MOL0     N71957   5.539   7.829  11.176  0.3581 -0.3582  0.0953
  546MOL0     C71958   5.491   7.946  11.242 -0.6057  0.0854 -0.2836
  546MOL0     C71959   5.408   7.895  11.343 -0.1036  0.1751  0.0291
  546MOL0     C71960   5.335   7.965  11.450  0.0042  0.1354  0.2169
  546MOL0     C71961   5.198   8.019  11.396  0.1984 -0.7418  0.6600
  546MOL0     C71962   5.112   8.058  11.517 -0.6084 -1.1573  0.1335
  546MOL0     C71963   4.987   7.968  11.529  0.0751  0.7996 -0.4363
  546MOL0     O71964   4.899   8.008  11.422  0.6620  0.3451  0.4433
  546MOL0     C71965   4.768   7.979  11.430 -0.0865 -0.9636  0.0393
  546MOL0     C71966   4.677   8.064  11.356 -0.6184  0.2860 -0.2212
  546MOL0     C71967   4.537   8.047  11.369 -0.6971 -0.9805 -0.4493
  546MOL0     C71968   4.491   7.956  11.464  1.1851 -0.2295 -0.7932
  546MOL0     C71969   4.347   7.957  11.497  0.4746 -0.0761  0.0393
  546MOL0     O71970   4.278   8.070  11.454  0.4877  0.6446  0.3292
  546MOL0     C71971   4.142   8.056  11.452 -0.6178 -1.0487 -0.0804
  546MOL0     C71972   4.058   7.964  11.387  0.4521  0.2518 -0.1282
  546MOL0     C71973   3.913   7.968  11.373 -0.3941 -0.0502  0.4769
  546MOL0     C71974   3.849   8.079  11.433  0.5508  0.9364 -0.4546
  546MOL0     O71975   3.715   8.093  11.412 -0.4635  0.4208 -0.3025
  546MOL0     C71976   3.658   8.218  11.453  0.1297  0.8196 -1.0500
  546MOL0     C71977   3.519   8.200  11.389 -0.0239  0.4082 -1.2330
  546MOL0     C71978   3.436   8.323  11.391 -0.5174  0.8949 -0.4581
  546MOL0     C71979   3.294   8.304  11.351 -0.4917  0.5909 -0.0547
  546MOL0     C71980   3.214   8.432  11.354 -0.4481  0.6763 -0.2173
  546MOL0     C71981   3.196   8.496  11.495 -0.0383 -0.3766 -0.8696
  546MOL0     C71982   3.094   8.602  11.494 -0.6703 -0.7923  0.6656
  546MOL0     C71983   3.089   8.676  11.627  0.1699  0.1647 -0.0981
  546MOL0    Cl71984   3.066   8.569  11.773  0.1289  0.4474 -0.4097
  546MOL0     C71985   3.928   8.164  11.513  1.1171 -0.3219  0.3019
  546MOL0     C71986   4.067   8.149  11.527  0.1335 -0.4896 -0.0179
  546MOL0     O71987   4.304   7.865  11.572  0.1000  0.3077  0.9291
  546MOL0     C71988   4.579   7.873  11.534  0.3336 -0.1037 -0.2715
  546MOL0     C71989   4.712   7.888  11.518  0.1298  1.4061  1.0391
  546MOL0     N71990   5.392   7.760  11.323 -0.3841 -0.1186  0.3280
  546MOL0     N71991   5.471   7.722  11.231  0.4273 -0.7491  0.2997
  546MOL0     C71992   6.641   8.047  10.821  0.1052 -0.9393  0.5783
  546MOL0     C71993   6.716   8.099  10.716 -0.9652  0.3591  0.1640
  546MOL0     C71994   7.091   8.257  10.498 -0.0010 -0.7348 -0.3443
  546MOL0     C71995   7.005   8.337  10.416 -0.4912  0.1806  0.5027
  546MOL0     C71996   7.054   8.460  10.366  0.7647 -0.0403 -0.1589
  546MOL0     C71997   7.191   8.495  10.369  0.8726 -0.3257  0.1383
  546MOL0     O71998   7.223   8.611  10.303 -0.0044 -0.2934 -0.0760
  546MOL0     C71999   7.356   8.651  10.324 -0.1101  0.4369 -0.2921
  546MOL0     C72000   7.388   8.784  10.255  0.0662  0.4589  1.0742
  546MOL0     C72001   7.534   8.809  10.235 -1.0132 -1.0190 -0.3532
  546MOL0     C72002   7.613   8.831  10.365  1.3336  0.0953 -0.3589
  546MOL0     C72003   7.755   8.831  10.336  0.0846 -0.5333 -0.2886
  546MOL0     C72004   7.873   8.831  10.308  0.3536  0.9113  0.4535
  546MOL0     C72005   7.277   8.408  10.436 -0.4797  0.5917  1.0300
  546MOL0     C72006   7.230   8.294  10.504 -0.5856 -0.1851  0.8725
  546MOL0     H72007   6.996   7.923  10.760  0.3784 -0.5070 -4.0394
  546MOL0     H72008   6.872   7.815  10.911  1.4978 -0.0526  1.1997
  546MOL0     H72009   6.523   8.025  11.080  1.6061  0.6413 -2.2336
  546MOL0     H72010   6.499   7.859  11.148  1.9699  0.8686  1.2455
  546MOL0     H72011   6.376   7.789  10.948  3.5748 -0.8213  0.6915
  546MOL0     H72012   6.375   7.950  10.891  2.0306 -2.6550 -1.4259
  546MOL0     H72013   6.253   8.021  11.121 -3.7925 -0.2335  3.5983
  546MOL0     H72014   6.269   7.856  11.164 -2.3857 -1.1392  0.0426
  546MOL0     H72015   6.098   7.967  10.938  1.6194 -1.8494 -2.6378
  546MOL0     H72016   6.133   7.798  10.951  2.3720  2.3020 -3.8955
  546MOL0     H72017   6.003   7.994  11.153 -0.2292 -0.5825  1.8701
  546MOL0     H72018   6.062   7.827  11.194 -0.8002 -1.4147 -0.5509
  546MOL0     H72019   5.899   7.723  11.050 -1.7153 -1.0492  3.6094
  546MOL0     H72020   5.885   7.879  10.964  5.1301 -0.3424  0.0455
  546MOL0     H72021   5.780   7.812  11.241  1.1881  0.4375  1.0675
  546MOL0     H72022   5.776   7.979  11.175 -1.2578 -0.0038 -2.5065
  546MOL0     H72023   5.682   7.730  11.043  0.0415 -0.6036  2.8076
  546MOL0     H72024   5.637   7.904  10.999  3.7266 -1.2067 -1.8327
  546MOL0     H72025   5.514   8.051  11.232 -0.1425  0.2155  1.6147
  546MOL0     H72026   5.397   8.045  11.491 -0.1960 -1.5584  4.2791
  546MOL0     H72027   5.317   7.900  11.536 -0.3772 -0.4085 -0.2645
  546MOL0     H72028   5.151   7.945  11.331  1.7502  0.5236 -2.0648
  546MOL0     H72029   5.225   8.101  11.330  1.2949 -0.9759  0.7907
  546MOL0     H72030   5.173   8.066  11.607  1.2766  0.7756 -1.2187
  546MOL0     H72031   5.074   8.157  11.491 -0.1988 -1.0404 -0.0173
  546MOL0     H72032   4.934   7.988  11.622 -0.1433  0.6462 -0.5277
  546MOL0     H72033   5.021   7.864  11.533  2.6685  1.5901 -0.0809
  546MOL0     H72034   4.717   8.131  11.281  2.0536 -1.6009 -0.6338
  546MOL0     H72035   4.473   8.105  11.304 -0.5509 -0.4143 -0.0927
  546MOL0     H72036   4.101   7.897  11.312  0.1619 -0.6221  0.4757
  546MOL0     H72037   3.865   7.904  11.299  1.3597 -2.5691  1.3628
  546MOL0     H72038   3.701   8.312  11.416 -0.0834  0.6506 -1.7398
  546MOL0     H72039   3.653   8.223  11.562  1.7132  2.6888 -0.9942
  546MOL0     H72040   3.477   8.123  11.455  3.1036 -1.1896 -0.9314
  546MOL0     H72041   3.524   8.150  11.291  0.4064 -3.7264  0.6815
  546MOL0     H72042   3.487   8.407  11.344 -0.2604  1.3017  0.5135
  546MOL0     H72043   3.437   8.350  11.497 -0.1848  1.6541 -0.6487
  546MOL0     H72044   3.293   8.266  11.249 -0.2492 -0.4010  0.3005
  546MOL0     H72045   3.250   8.231  11.420 -0.3256 -0.2764 -0.8419
  546MOL0     H72046   3.113   8.403  11.324 -1.1613  1.1125  1.6719
  546MOL0     H72047   3.263   8.493  11.277  1.8934 -2.4681 -1.4591
  546MOL0     H72048   3.292   8.528  11.535 -0.0171  1.4273 -2.2355
  546MOL0     H72049   3.144   8.429  11.565 -0.5926  1.8843  0.9913
  546MOL0     H72050   3.118   8.672  11.413 -0.4930  0.2840  1.6247
  546MOL0     H72051   2.993   8.574  11.463 -0.5272  0.8211 -1.5126
  546MOL0     H72052   3.007   8.748  11.624 -0.7021 -0.7558  0.7121
  546MOL0     H72053   3.189   8.717  11.646  0.5753 -1.1514  0.7704
  546MOL0     H72054   3.879   8.243  11.570 -0.2044  0.3373 -1.6484
  546MOL0     H72055   4.110   8.218  11.599  0.3379 -0.2647 -0.3545
  546MOL0     H72056   4.543   7.813  11.617 -0.3127 -0.2398 -0.6449
  546MOL0     H72057   4.780   7.832  11.582 -1.2802  0.3103  1.6216
  546MOL0     H72058   6.550   8.104  10.840 -0.1840 -0.5962 -1.5824
  546MOL0     H72059   6.667   8.179  10.662 -0.1739  0.4100 -0.5027
  546MOL0     H72060   6.899   8.315  10.409 -0.1717 -0.8266 -2.9368
  546MOL0     H72061   6.986   8.533  10.323 -1.3626 -1.0837  1.2553
  546MOL0     H72062   7.430   8.581  10.286  0.2394  1.2910 -1.2035
  546MOL0     H72063   7.373   8.659  10.432  1.8679  0.6190 -0.5924
  546MOL0     H72064   7.343   8.781  10.155  0.7922 -2.6773  0.7471
  546MOL0     H72065   7.332   8.859  10.312 -1.8204  0.3552 -0.5196
  546MOL0     H72066   7.550   8.887  10.161 -3.6130 -1.6284 -1.6777
  546MOL0     H72067   7.571   8.712  10.199  0.6489 -1.2605  1.8020
  546MOL0     H72068   7.574   8.919  10.417  1.7282  0.6928 -1.0643
  546MOL0     H72069   7.599   8.750  10.437 -1.9533 -0.3734 -1.3394
  546MOL0     H72070   7.974   8.837  10.273 -0.6987  0.5662 -2.9997
  546MOL0     H72071   7.383   8.430  10.437 -0.6489  1.6267 -0.7781
  546MOL0     H72072   7.303   8.238  10.562 -0.4255 -1.2127 -0.2694
  547MOL0     O72073  10.912   7.983   8.617  0.0490 -0.0296 -0.2134
  547MOL0     C72074  10.954   7.963   8.731  0.7070  0.4810  0.1911
  547MOL0     O72075  10.901   8.010   8.844  0.2972  0.6419  0.0411
  547MOL0     C72076  10.779   8.070   8.835  0.0934 -0.0891  0.6621
  547MOL0     C72077  10.667   8.036   8.753 -1.1502 -0.1854  0.4519
  547MOL0     C72078  10.556   8.113   8.766  1.2817  0.4762  0.4952
  547MOL0     C72079  10.553   8.231   8.846 -0.6264  0.7921  0.0014
  547MOL0     O72080  10.445   8.311   8.847 -0.0310  0.9404  0.5321
  547MOL0     C72081  10.463   8.421   8.762 -0.4906 -0.8863  0.4267
  547MOL0     C72082  10.495   8.562   8.830  0.6027 -0.5696 -0.5043
  547MOL0     C72083  10.436   8.587   8.967  0.2573 -0.4535  0.3130
  547MOL0     C72084  10.452   8.738   9.002 -0.4537 -0.3811  0.0404
  547MOL0     C72085  10.379   8.769   9.123  0.5836 -0.5105 -0.6173
  547MOL0     C72086  10.387   8.920   9.157 -0.1360  0.6080  0.0715
  547MOL0     C72087  10.307   8.965   9.280 -0.3674 -0.5572  0.4746
  547MOL0     C72088  10.179   8.895   9.298 -0.7217  0.9113  0.5336
  547MOL0     N72089  10.106   8.955   9.406 -0.2782  0.7520  0.0180
  547MOL0     C72090  10.050   9.083   9.397  0.5779  0.4191 -0.2427
  547MOL0     C72091   9.985   9.096   9.516  0.8068 -0.6335 -0.4629
  547MOL0     C72092   9.896   9.205   9.574 -0.6235  0.4233  0.6397
  547MOL0     C72093   9.779   9.240   9.493 -0.0482  0.3458  0.3731
  547MOL0     C72094   9.690   9.106   9.496  0.0047 -0.1069 -0.1663
  547MOL0     C72095   9.548   9.126   9.445  0.7105 -0.5510 -0.0802
  547MOL0     O72096   9.491   8.999   9.405  0.5003  0.1101 -0.0481
  547MOL0     C72097   9.358   8.991   9.372  0.9389  0.2230 -0.5106
  547MOL0     C72098   9.306   8.872   9.333  0.2749  0.5363  0.5182
  547MOL0     C72099   9.177   8.860   9.287 -0.3278  0.2202  0.1395
  547MOL0     C72100   9.082   8.966   9.307  0.5342  0.4354 -0.2625
  547MOL0     C72101   8.938   8.938   9.281 -0.1554 -0.2732 -0.8017
  547MOL0     O72102   8.902   8.810   9.290  0.1833 -0.3406 -0.3584
  547MOL0     C72103   8.769   8.800   9.271  0.4257  0.8150 -0.6543
  547MOL0     C72104   8.714   8.826   9.142  0.9118 -0.2152 -0.4197
  547MOL0     C72105   8.577   8.816   9.119 -0.1282 -0.1257  0.6081
  547MOL0     C72106   8.486   8.791   9.219  0.3718  0.3284 -0.2478
  547MOL0     O72107   8.347   8.801   9.207 -1.1953  0.3137 -0.5048
  547MOL0     C72108   8.294   8.840   9.084 -1.1449  0.2491 -0.2507
  547MOL0     C72109   8.145   8.842   9.076  0.0715  0.6043  0.2931
  547MOL0     C72110   8.076   8.706   9.033 -0.1484 -1.4700 -0.2617
  547MOL0     C72111   8.094   8.591   9.139  0.5106  0.1087 -0.0834
  547MOL0     C72112   8.014   8.462   9.101  0.5719 -0.3013 -0.4658
  547MOL0     C72113   8.047   8.337   9.189  0.7136  0.2868 -0.3243
  547MOL0     C72114   7.953   8.225   9.152 -0.3363 -0.9170  0.4910
  547MOL0     C72115   7.977   8.106   9.236 -0.3635  0.5196  0.4975
  547MOL0    Cl72116   7.877   7.969   9.167  0.0941  0.0728  0.0655
  547MOL0     C72117   8.532   8.747   9.342 -0.5837 -0.4629 -0.6304
  547MOL0     C72118   8.669   8.763   9.375 -0.3457 -0.4035 -0.5354
  547MOL0     O72119   8.862   9.037   9.272 -0.3125  0.2299  0.4467
  547MOL0     C72120   9.130   9.087   9.347 -0.9108 -0.3335 -0.6672
  547MOL0     C72121   9.266   9.100   9.382  0.1835  0.5186 -0.3076
  547MOL0     N72122  10.019   8.994   9.600  0.3242 -0.6300  0.1326
  547MOL0     N72123  10.091   8.911   9.534 -0.4770 -0.7158  0.1601
  547MOL0     C72124  10.668   8.273   8.918  0.5377 -0.1945 -0.4172
  547MOL0     C72125  10.777   8.182   8.918 -0.2860  0.0359 -0.2417
  547MOL0     C72126  11.084   7.882   8.741  0.0857 -1.1095  0.0546
  547MOL0     C72127  11.133   7.837   8.870 -0.0689  0.2381 -0.8537
  547MOL0     C72128  11.255   7.763   8.885 -0.2906 -0.1893 -0.4586
  547MOL0     C72129  11.339   7.727   8.780  0.2411  0.2728  1.1067
  547MOL0     O72130  11.464   7.675   8.778 -0.2118  0.0782  1.9752
  547MOL0     C72131  11.500   7.592   8.886 -0.9220 -0.1950  0.0560
  547MOL0     C72132  11.644   7.531   8.866 -0.2902  1.5846  0.7285
  547MOL0     C72133  11.660   7.467   8.721  0.2497  0.0231 -1.1810
  547MOL0     C72134  11.582   7.341   8.694  0.7185 -0.6297  0.0891
  547MOL0     C72135  11.475   7.373   8.606 -0.2194 -0.6641  0.7961
  547MOL0     C72136  11.396   7.390   8.515 -0.0922 -0.1482 -0.7247
  547MOL0     C72137  11.286   7.766   8.652 -0.2581  0.0346 -0.7816
  547MOL0     C72138  11.174   7.847   8.634  0.7522  0.1450 -0.0537
  547MOL0     H72139  10.675   7.952   8.685 -1.9751 -0.5098  0.7424
  547MOL0     H72140  10.468   8.085   8.710  2.4822 -1.2940 -0.6179
  547MOL0     H72141  10.374   8.436   8.700 -0.1601 -1.6507 -0.2416
  547MOL0     H72142  10.541   8.407   8.687 -1.8881 -0.8946 -1.0722
  547MOL0     H72143  10.468   8.639   8.758  1.8291  0.3772  0.0197
  547MOL0     H72144  10.604   8.562   8.839  0.7333  1.5727 -1.5207
  547MOL0     H72145  10.478   8.523   9.044 -0.5115 -0.4669  0.7339
  547MOL0     H72146  10.331   8.556   8.974  0.9267 -2.6265  1.6101
  547MOL0     H72147  10.560   8.754   9.010 -0.3701 -1.5505  1.8275
  547MOL0     H72148  10.418   8.793   8.913 -2.9493 -0.5668  0.8109
  547MOL0     H72149  10.428   8.710   9.201 -0.4291 -0.9975 -0.3421
  547MOL0     H72150  10.274   8.745   9.109 -0.1214 -0.4913  3.4064
  547MOL0     H72151  10.343   8.965   9.068 -1.4305  2.6674  1.6497
  547MOL0     H72152  10.489   8.958   9.157 -0.3168  1.2735  2.3649
  547MOL0     H72153  10.353   8.954   9.379 -2.9282 -0.9770  1.6998
  547MOL0     H72154  10.290   9.073   9.276  0.3178 -0.4769 -1.9777
  547MOL0     H72155  10.199   8.792   9.328 -1.5472  1.0455  1.5907
  547MOL0     H72156  10.114   8.889   9.210 -2.9684  0.2138  2.1499
  547MOL0     H72157  10.035   9.134   9.303 -0.8962 -2.5395 -1.7396
  547MOL0     H72158   9.954   9.297   9.584 -0.7285  0.3902  1.7595
  547MOL0     H72159   9.863   9.188   9.677 -0.0178  3.5825  1.4584
  547MOL0     H72160   9.802   9.280   9.394 -1.5395  0.4643  0.0454
  547MOL0     H72161   9.717   9.310   9.549 -3.3492 -2.2117  0.2322
  547MOL0     H72162   9.737   9.027   9.436 -1.1287  1.4429 -3.2827
  547MOL0     H72163   9.683   9.069   9.599 -0.4095 -2.0179 -0.8395
  547MOL0     H72164   9.546   9.194   9.360 -3.7121 -0.7117 -0.3494
  547MOL0     H72165   9.485   9.169   9.524 -0.9194 -0.0446 -1.5936
  547MOL0     H72166   9.382   8.795   9.323  2.0728  2.0245  2.0621
  547MOL0     H72167   9.141   8.769   9.239  1.3413  0.0510 -0.8957
  547MOL0     H72168   8.782   8.854   9.063  2.4587 -1.4015  0.4343
  547MOL0     H72169   8.540   8.832   9.019  0.1093 -1.5588  0.2663
  547MOL0     H72170   8.330   8.771   9.006 -0.5354 -0.2358  0.4450
  547MOL0     H72171   8.323   8.940   9.053  2.3342 -0.1510  1.1615
  547MOL0     H72172   8.109   8.919   9.008 -3.6892 -0.2049  1.1636
  547MOL0     H72173   8.121   8.887   9.173 -0.2019 -0.7646  0.8885
  547MOL0     H72174   8.110   8.667   8.936  1.3178 -0.0169 -0.3859
  547MOL0     H72175   7.971   8.733   9.026 -0.0599 -1.4534 -2.0616
  547MOL0     H72176   8.202   8.576   9.143  0.3981 -1.0054 -1.0163
  547MOL0     H72177   8.047   8.633   9.229 -0.5652 -2.3877  0.5901
  547MOL0     H72178   8.045   8.431   9.001 -4.2226 -1.7871 -1.7421
  547MOL0     H72179   7.905   8.476   9.099  0.3926 -1.7075 -1.4297
  547MOL0     H72180   8.031   8.355   9.295  1.4064 -2.0258  0.2190
  547MOL0     H72181   8.152   8.308   9.181  0.5572 -0.5718  0.6493
  547MOL0     H72182   7.846   8.247   9.163 -0.3062 -0.7325  0.4226
  547MOL0     H72183   7.968   8.196   9.048 -3.6363 -2.8389  0.3856
  547MOL0     H72184   7.962   8.124   9.342  2.3536  4.8745  0.3812
  547MOL0     H72185   8.079   8.067   9.225 -0.4006  0.2888  0.9395
  547MOL0     H72186   8.469   8.703   9.419 -0.6127 -2.9343 -1.9636
  547MOL0     H72187   8.701   8.735   9.475  2.4477  2.2341 -0.5217
  547MOL0     H72188   9.055   9.165   9.354 -0.1341  0.4711 -1.1743
  547MOL0     H72189   9.296   9.197   9.418  1.3057  0.5340 -1.2212
  547MOL0     H72190  10.671   8.369   8.968  0.7184 -0.4451  0.0530
  547MOL0     H72191  10.858   8.192   8.990 -3.6168  2.2000  3.6360
  547MOL0     H72192  11.078   7.867   8.959  0.4652  1.1575 -0.8227
  547MOL0     H72193  11.280   7.734   8.986  0.1345 -0.3986 -0.6183
  547MOL0     H72194  11.433   7.505   8.893 -1.0680 -0.0241  1.0583
  547MOL0     H72195  11.501   7.650   8.979 -0.9417  0.5052 -0.3817
  547MOL0     H72196  11.731   7.597   8.879  0.6921  1.5646 -4.0730
  547MOL0     H72197  11.652   7.454   8.944  0.9380  0.6854 -0.2374
  547MOL0     H72198  11.758   7.417   8.723  0.5580  0.3328  3.8470
  547MOL0     H72199  11.651   7.545   8.645  2.3112  3.0389  1.4171
  547MOL0     H72200  11.647   7.279   8.632 -0.9613 -1.3995 -0.9936
  547MOL0     H72201  11.548   7.282   8.780 -1.2989 -2.8313 -2.0652
  547MOL0     H72202  11.317   7.412   8.446 -0.7916  1.1212  0.4509
  547MOL0     H72203  11.327   7.720   8.563  0.7975 -0.3131 -0.1442
  547MOL0     H72204  11.140   7.876   8.535  2.4405  2.7869  0.0431
  548MOL0     O72205   4.133  10.273  10.368  0.0888  0.4979  0.9485
  548MOL0     C72206   4.144  10.355  10.275  0.5390 -0.0677 -0.1318
  548MOL0     O72207   4.051  10.438  10.224  0.0811 -0.2560  0.1818
  548MOL0     C72208   3.917  10.438  10.260 -0.3709  0.1696  0.4387
  548MOL0     C72209   3.847  10.359  10.355 -0.8845  0.5195 -0.2223
  548MOL0     C72210   3.712  10.368  10.369  0.6223 -0.2403  0.3557
  548MOL0     C72211   3.638  10.471  10.306  0.3718 -0.2571 -0.4556
  548MOL0     O72212   3.504  10.496  10.331 -0.4011  0.3605  0.0818
  548MOL0     C72213   3.426  10.413  10.421  0.2009 -0.5241  0.3850
  548MOL0     C72214   3.279  10.457  10.418  0.0746 -0.4370  0.1092
  548MOL0     C72215   3.199  10.361  10.323 -0.1294 -0.4945  0.2357
  548MOL0     C72216   3.239  10.382  10.175  0.6987  0.0559  0.3116
  548MOL0     C72217   3.302  10.256  10.118 -0.0524  0.3333  0.3465
  548MOL0     C72218   3.321  10.267   9.971 -0.0313  0.9368  0.5329
  548MOL0     C72219   3.350  10.126   9.916  0.4679  0.3992  0.5627
  548MOL0     C72220   3.459  10.122   9.802 -0.0327 -0.2779 -0.5538
  548MOL0     N72221   3.498   9.988   9.777  0.6482 -0.4459  1.2000
  548MOL0     C72222   3.629   9.943   9.795  0.6938  0.1979 -1.0879
  548MOL0     C72223   3.621   9.812   9.775 -0.7343 -0.2087 -0.8276
  548MOL0     C72224   3.749   9.731   9.776  0.3923  0.4683 -0.3677
  548MOL0     C72225   3.718   9.592   9.826  0.6815  0.5515 -0.8046
  548MOL0     C72226   3.847   9.525   9.887  0.3305 -0.4800 -0.5336
  548MOL0     C72227   3.964   9.509   9.792 -0.0160 -0.2104 -0.5208
  548MOL0     O72228   4.060   9.612   9.825  0.2969 -0.1640  0.8640
  548MOL0     C72229   4.126   9.685   9.726  0.5294  0.4232  0.3403
  548MOL0     C72230   4.215   9.785   9.765  0.7780 -0.5154 -0.5230
  548MOL0     C72231   4.275   9.867   9.675 -0.6517 -0.1405  0.0853
  548MOL0     C72232   4.281   9.846   9.537 -0.3008 -0.8570  0.3264
  548MOL0     C72233   4.364   9.927   9.444  0.4814 -0.0799  0.5341
  548MOL0     O72234   4.344   9.912   9.311 -0.2411  0.2137  0.2140
  548MOL0     C72235   4.449   9.953   9.228  0.3459  0.0470  0.2101
  548MOL0     C72236   4.452  10.086   9.211  0.0500  0.5261 -0.1633
  548MOL0     C72237   4.537  10.147   9.128 -0.9577 -0.6150 -1.7175
  548MOL0     C72238   4.623  10.071   9.047 -1.0113 -0.2201  0.6280
  548MOL0     O72239   4.713  10.133   8.960  0.1123  0.3480  0.4560
  548MOL0     C72240   4.855  10.132   9.001  0.7332  0.1284 -0.1086
  548MOL0     C72241   4.945  10.085   8.893  0.5725  0.2704  0.6312
  548MOL0     C72242   4.955  10.190   8.786  0.2318 -0.8427  0.1420
  548MOL0     C72243   5.060  10.166   8.677  0.1901  0.0459  0.4201
  548MOL0     C72244   5.205  10.158   8.730  0.0557  0.1454  0.2834
  548MOL0     C72245   5.310  10.260   8.662  0.2163 -0.2159  0.3339
  548MOL0     C72246   5.327  10.222   8.515 -0.4682 -0.3917 -0.4519
  548MOL0     C72247   5.443  10.304   8.454 -0.7676 -0.0349  0.2368
  548MOL0    Cl72248   5.606  10.253   8.531  0.0507  0.0778  0.2760
  548MOL0     C72249   4.614   9.930   9.059 -0.6185  0.0884 -0.3155
  548MOL0     C72250   4.531   9.876   9.157  0.2898  0.3077 -0.4375
  548MOL0     O72251   4.452   9.993   9.496 -0.0342  0.1257  0.4346
  548MOL0     C72252   4.199   9.736   9.487 -0.2403  0.3810  0.1109
  548MOL0     C72253   4.119   9.658   9.586  0.0666  0.1527 -0.0443
  548MOL0     N72254   3.494   9.768   9.752  0.6569  0.3109 -0.1002
  548MOL0     N72255   3.427   9.876   9.745  0.7931 -0.4214 -1.0942
  548MOL0     C72256   3.701  10.564  10.223 -0.6523 -0.1779  0.9941
  548MOL0     C72257   3.841  10.544  10.201  0.0659 -0.0726  0.1363
  548MOL0     C72258   4.286  10.379  10.219 -0.2466  1.0168 -0.2431
  548MOL0     C72259   4.322  10.494  10.146  0.1288 -0.2803 -0.9861
  548MOL0     C72260   4.445  10.515  10.096 -0.4019  0.8269 -0.5806
  548MOL0     C72261   4.546  10.415  10.108 -0.8101  0.1014 -0.3348
  548MOL0     O72262   4.671  10.427  10.048 -0.4149 -1.0909  0.9808
  548MOL0     C72263   4.785  10.442  10.119  0.0519 -0.5412  0.2778
  548MOL0     C72264   4.900  10.403  10.026 -0.5081 -0.5257 -0.1721
  548MOL0     C72265   5.027  10.460  10.076  0.4241 -0.7534 -0.9573
  548MOL0     C72266   5.152  10.388  10.029  0.1208 -0.0632 -0.2027
  548MOL0     C72267   5.156  10.348   9.892 -0.4939  0.2392 -0.4249
  548MOL0     C72268   5.155  10.306   9.779 -0.1887  0.1903  0.4289
  548MOL0     C72269   4.526  10.306  10.188  0.3860  0.8989 -0.6397
  548MOL0     C72270   4.395  10.284  10.234 -0.3368  0.9723  0.6725
  548MOL0     H72271   3.896  10.279  10.409  0.9393  1.1149 -0.9033
  548MOL0     H72272   3.661  10.307  10.443 -0.9325  1.6221  0.9206
  548MOL0     H72273   3.470  10.432  10.518  1.8881 -2.9790  0.1901
  548MOL0     H72274   3.433  10.306  10.398 -3.1755 -0.5021 -1.5118
  548MOL0     H72275   3.263  10.556  10.375  0.0584 -0.4270  0.1385
  548MOL0     H72276   3.227  10.459  10.514 -2.5358  0.3748 -1.2282
  548MOL0     H72277   3.091  10.373  10.333 -0.2702 -2.4188  1.7724
  548MOL0     H72278   3.222  10.258  10.354 -0.9245 -0.5204  0.7382
  548MOL0     H72279   3.152  10.413  10.117  1.0364  0.0612 -0.1951
  548MOL0     H72280   3.306  10.469  10.179  2.3434 -1.1475 -0.2752
  548MOL0     H72281   3.248  10.165  10.146 -0.0020  0.2987  0.3307
  548MOL0     H72282   3.403  10.244  10.157 -0.3737 -1.2127  0.7655
  548MOL0     H72283   3.392  10.346   9.944 -0.1258  0.2294 -1.9548
  548MOL0     H72284   3.228  10.302   9.926 -0.5885  0.8356  1.5549
  548MOL0     H72285   3.384  10.059   9.996 -0.3294  0.2322  0.7660
  548MOL0     H72286   3.254  10.085   9.884  0.8162  0.2285 -0.3068
  548MOL0     H72287   3.539  10.186   9.842 -1.0589  0.5819  0.1817
  548MOL0     H72288   3.417  10.160   9.709 -2.2152  2.6794  1.4225
  548MOL0     H72289   3.716  10.007   9.808  0.9574  0.0623 -2.1123
  548MOL0     H72290   3.811   9.777   9.853  0.5825  0.6491 -0.6252
  548MOL0     H72291   3.796   9.729   9.677  1.6863  0.8392  0.2264
  548MOL0     H72292   3.683   9.526   9.746  0.0270 -1.8984  1.3569
  548MOL0     H72293   3.643   9.601   9.906  1.3131 -2.0982  0.1869
  548MOL0     H72294   3.882   9.581   9.974  2.3261  1.4422 -2.4499
  548MOL0     H72295   3.818   9.428   9.929  1.3463 -1.4652 -1.9909
  548MOL0     H72296   3.929   9.513   9.688  1.4827  1.8670 -1.0254
  548MOL0     H72297   4.014   9.413   9.807  2.6183  1.2832  0.8955
  548MOL0     H72298   4.220   9.790   9.874 -0.6249 -2.2986 -0.3248
  548MOL0     H72299   4.333   9.950   9.714 -1.6651  1.6981 -2.0534
  548MOL0     H72300   4.383  10.149   9.266  1.5366  2.6372 -0.5646
  548MOL0     H72301   4.544  10.253   9.104 -0.5505 -0.6473 -1.7508
  548MOL0     H72302   4.882  10.063   9.081  0.6607 -0.0291 -0.2215
  548MOL0     H72303   4.884  10.231   9.039  0.1124  0.0291  0.6295
  548MOL0     H72304   4.913   9.984   8.865  0.4409 -0.5725  3.5025
  548MOL0     H72305   5.041  10.087   8.945 -0.3425 -0.0202  2.3904
  548MOL0     H72306   4.973  10.292   8.821 -3.2889  0.4318 -1.2946
  548MOL0     H72307   4.861  10.201   8.731  1.4748 -2.8131 -2.5809
  548MOL0     H72308   5.036  10.074   8.622 -0.2913  0.3966  0.0375
  548MOL0     H72309   5.043  10.258   8.620  2.7684  0.9391  0.9730
  548MOL0     H72310   5.243  10.056   8.714 -1.8184 -0.3010 -1.7145
  548MOL0     H72311   5.211  10.174   8.838  1.8516 -0.9810  0.4021
  548MOL0     H72312   5.407  10.254   8.711  0.9477  0.2607 -1.0122
  548MOL0     H72313   5.262  10.358   8.669 -1.6968 -1.0786 -0.0321
  548MOL0     H72314   5.333  10.113   8.505  0.4846 -0.2747 -1.3491
  548MOL0     H72315   5.238  10.257   8.462 -1.0274 -1.6039 -0.3431
  548MOL0     H72316   5.438  10.410   8.482 -3.8346 -0.1477  0.4631
  548MOL0     H72317   5.446  10.297   8.345  1.7027 -1.1424  0.3309
  548MOL0     H72318   4.686   9.859   9.020 -1.9496 -1.6941  0.3291
  548MOL0     H72319   4.528   9.768   9.170 -5.0423  0.0648 -1.3038
  548MOL0     H72320   4.175   9.711   9.384 -2.4201 -0.6167  0.7914
  548MOL0     H72321   4.041   9.598   9.540  1.0855 -1.4507  0.2683
  548MOL0     H72322   3.652  10.645  10.169  0.9475 -1.0236 -1.9891
  548MOL0     H72323   3.908  10.613  10.150 -1.5968  1.2823 -0.3256
  548MOL0     H72324   4.244  10.567  10.132 -0.0008 -0.5126 -1.4818
  548MOL0     H72325   4.468  10.604  10.039  3.7050  1.0870  1.1365
  548MOL0     H72326   4.788  10.383  10.212 -0.8181 -1.6950 -0.4048
  548MOL0     H72327   4.804  10.544  10.153 -0.5755 -0.9473  1.9966
  548MOL0     H72328   4.908  10.295  10.008 -1.0095 -0.4797 -0.7234
  548MOL0     H72329   4.883  10.448   9.927 -1.0319 -1.2415 -0.4137
  548MOL0     H72330   5.016  10.438  10.182  0.6904  0.6625 -0.6245
  548MOL0     H72331   5.015  10.564  10.044 -3.9286 -0.9410 -0.6069
  548MOL0     H72332   5.242  10.442  10.060  0.9002 -1.9958  1.1028
  548MOL0     H72333   5.165  10.290  10.075  1.3411  0.1806  0.0056
  548MOL0     H72334   5.154  10.296   9.673  0.2896 -1.2012  0.5397
  548MOL0     H72335   4.607  10.236  10.204 -1.1918 -0.5658  1.5436
  548MOL0     H72336   4.382  10.190  10.288  2.2704  0.4202  0.4671
  549MOL0     O72337   7.007   5.351   3.326  0.4902  0.1580 -0.3527
  549MOL0     C72338   7.073   5.458   3.346 -0.3753  0.1922  1.0786
  549MOL0     O72339   7.029   5.569   3.406 -0.4922  0.1391 -0.1129
  549MOL0     C72340   6.897   5.585   3.419 -0.8463  1.2395  0.3502
  549MOL0     C72341   6.848   5.616   3.546 -0.0440 -1.0689 -0.7070
  549MOL0     C72342   6.714   5.631   3.576  0.0299 -0.3935  0.2066
  549MOL0     C72343   6.631   5.587   3.470  0.5409  0.1895 -0.8477
  549MOL0     O72344   6.497   5.566   3.493  0.8827  0.2341 -0.0392
  549MOL0     C72345   6.467   5.508   3.619  0.2507  0.3531  0.6960
  549MOL0     C72346   6.498   5.362   3.633 -0.1566 -0.3747  0.0322
  549MOL0     C72347   6.492   5.306   3.774 -0.6958 -0.0183  0.4815
  549MOL0     C72348   6.584   5.373   3.891  0.7926  0.6824 -0.0582
  549MOL0     C72349   6.732   5.366   3.867  0.1253  0.1360  1.0064
  549MOL0     C72350   6.777   5.216   3.847  0.1940 -0.1266 -0.1070
  549MOL0     C72351   6.930   5.192   3.843 -0.4919  0.8667  0.1963
  549MOL0     C72352   6.977   5.227   3.703 -0.0659  0.2389  0.3202
  549MOL0     N72353   7.123   5.209   3.692  0.1313 -0.2606  1.0186
  549MOL0     C72354   7.211   5.302   3.728 -0.8177  0.0684 -0.1986
  549MOL0     C72355   7.331   5.254   3.667 -0.5521 -0.1928 -0.0675
  549MOL0     C72356   7.465   5.326   3.668 -0.2030 -0.7955  0.2768
  549MOL0     C72357   7.447   5.475   3.692 -0.8690 -0.5689  0.3451
  549MOL0     C72358   7.582   5.542   3.726 -0.7453 -0.4076  0.6156
  549MOL0     C72359   7.627   5.517   3.875 -1.1083 -0.8677 -0.0386
  549MOL0     O72360   7.707   5.400   3.883 -0.0851  0.2721 -0.8655
  549MOL0     C72361   7.833   5.389   3.828  0.0735  0.5281  0.5662
  549MOL0     C72362   7.883   5.258   3.807 -0.8334  0.2446 -0.0277
  549MOL0     C72363   8.006   5.229   3.762 -0.6341 -0.2689 -0.0850
  549MOL0     C72364   8.091   5.340   3.734 -0.8680 -0.1494  0.3997
  549MOL0     C72365   8.230   5.328   3.682 -0.1035 -0.4434 -0.9836
  549MOL0     O72366   8.259   5.192   3.672  0.1665 -0.6129  0.2023
  549MOL0     C72367   8.384   5.162   3.620 -0.3423  0.3083 -0.1307
  549MOL0     C72368   8.503   5.170   3.700  0.3583  0.1704 -0.2455
  549MOL0     C72369   8.622   5.139   3.639 -0.3701  1.0413 -0.6148
  549MOL0     C72370   8.631   5.088   3.504 -0.3976  0.5683  0.1869
  549MOL0     O72371   8.759   5.048   3.454 -0.0462 -0.3599 -0.3472
  549MOL0     C72372   8.785   5.034   3.316 -0.4021  0.1416  1.0167
  549MOL0     C72373   8.943   5.019   3.304  0.7275  0.1181  0.3684
  549MOL0     C72374   8.998   4.877   3.323 -0.8330  0.3221  0.4575
  549MOL0     C72375   9.143   4.854   3.268 -0.0137  0.6671 -0.6446
  549MOL0     C72376   9.183   4.701   3.228 -1.0571 -0.5623 -0.2532
  549MOL0     C72377   9.099   4.650   3.120  0.7111 -0.9083  0.4240
  549MOL0     C72378   9.116   4.501   3.102  0.5652  0.2604  0.5908
  549MOL0     C72379   9.032   4.422   3.201  0.5005  0.8267  0.1886
  549MOL0    Cl72380   9.074   4.242   3.165 -0.1107  0.4257 -0.0117
  549MOL0     C72381   8.508   5.070   3.435 -0.2074  0.5709 -1.1726
  549MOL0     C72382   8.384   5.104   3.494 -1.0265 -1.0048  0.5805
  549MOL0     O72383   8.306   5.422   3.667  0.2180 -0.3649  1.1337
  549MOL0     C72384   8.042   5.475   3.753 -0.0209  0.0743  0.7823
  549MOL0     C72385   7.912   5.496   3.791 -0.2247 -0.6858  0.9279
  549MOL0     N72386   7.304   5.129   3.613  0.5751 -0.4385  0.8063
  549MOL0     N72387   7.177   5.112   3.613 -0.3321 -0.0376 -0.1659
  549MOL0     C72388   6.682   5.564   3.343  0.4266 -0.0880 -0.3817
  549MOL0     C72389   6.809   5.563   3.312 -0.1912 -0.0486  0.3416
  549MOL0     C72390   7.213   5.451   3.299 -1.1110  0.0647  0.3954
  549MOL0     C72391   7.282   5.562   3.264 -0.0707 -0.2797 -0.3447
  549MOL0     C72392   7.421   5.568   3.246 -0.7844  0.3010 -0.5125
  549MOL0     C72393   7.495   5.447   3.256 -0.0373 -0.6115 -0.8308
  549MOL0     O72394   7.628   5.436   3.232  0.0473  0.3605 -0.1861
  549MOL0     C72395   7.724   5.534   3.283 -0.6370  0.0659 -0.4125
  549MOL0     C72396   7.766   5.499   3.426 -0.4558  0.2427  0.0331
  549MOL0     C72397   7.906   5.450   3.423  0.1078  0.2031  0.6236
  549MOL0     C72398   7.926   5.317   3.348  0.5030  0.8059  0.5441
  549MOL0     C72399   7.871   5.195   3.424 -0.7434  0.3183  0.5840
  549MOL0     C72400   7.834   5.090   3.477 -0.3118  0.1340  0.8860
  549MOL0     C72401   7.420   5.328   3.285 -0.3099 -0.1598 -0.3600
  549MOL0     C72402   7.283   5.329   3.306  0.3968  0.0702  0.5465
  549MOL0     H72403   6.919   5.638   3.626 -0.2437 -1.9387 -0.2789
  549MOL0     H72404   6.683   5.670   3.673 -1.6253  0.5477 -0.6583
  549MOL0     H72405   6.358   5.507   3.622  0.2354 -0.8770  0.2469
  549MOL0     H72406   6.505   5.570   3.701 -1.2856  2.1400  0.1315
  549MOL0     H72407   6.601   5.346   3.599 -0.7995 -1.9642 -1.3506
  549MOL0     H72408   6.446   5.306   3.554  0.8259 -1.7479  0.3145
  549MOL0     H72409   6.514   5.199   3.770 -1.3938 -0.1451 -0.2420
  549MOL0     H72410   6.390   5.323   3.812 -1.9375 -1.0658 -2.1509
  549MOL0     H72411   6.562   5.480   3.904  0.7230  0.7708 -0.8557
  549MOL0     H72412   6.560   5.322   3.985  0.6373  0.1593 -0.3783
  549MOL0     H72413   6.780   5.413   3.953  1.6729  1.4107 -0.4967
  549MOL0     H72414   6.764   5.432   3.786 -0.8499 -0.8792 -0.2600
  549MOL0     H72415   6.731   5.188   3.751  1.3076  1.2454 -1.0877
  549MOL0     H72416   6.741   5.143   3.920 -2.3791  1.1353 -0.0100
  549MOL0     H72417   6.977   5.243   3.927 -0.3992 -1.3127  1.5583
  549MOL0     H72418   6.946   5.084   3.858  1.9491  1.0204 -0.8248
  549MOL0     H72419   6.948   5.332   3.694 -2.2841 -0.2638  0.9869
  549MOL0     H72420   6.939   5.166   3.620  1.6582  1.6115 -1.5565
  549MOL0     H72421   7.188   5.393   3.783 -1.0712  0.2962 -0.6750
  549MOL0     H72422   7.519   5.326   3.573  0.0605  3.4208  0.2391
  549MOL0     H72423   7.529   5.284   3.746  0.2753 -1.7231 -0.5905
  549MOL0     H72424   7.384   5.490   3.780 -0.7998  1.2999  0.1031
  549MOL0     H72425   7.393   5.517   3.607 -1.7058 -0.4775  0.9127
  549MOL0     H72426   7.662   5.517   3.656 -0.1805 -0.4658  1.2749
  549MOL0     H72427   7.561   5.649   3.715  2.8017  0.3213 -0.1892
  549MOL0     H72428   7.557   5.494   3.957  0.4886  2.6894  2.5824
  549MOL0     H72429   7.687   5.602   3.909 -1.6957  0.1348 -1.4388
  549MOL0     H72430   7.822   5.170   3.825  0.8657 -0.4990  2.6069
  549MOL0     H72431   8.032   5.127   3.737 -0.1101 -0.0748 -0.3355
  549MOL0     H72432   8.493   5.203   3.803 -0.3479  0.0588 -0.2748
  549MOL0     H72433   8.716   5.165   3.688 -2.0113 -0.3132  3.6907
  549MOL0     H72434   8.750   5.122   3.261 -3.4131 -0.3194  2.0154
  549MOL0     H72435   8.743   4.946   3.266  1.7409 -0.1668 -0.3513
  549MOL0     H72436   8.987   5.091   3.373  2.3912 -1.9761  1.6342
  549MOL0     H72437   8.972   5.040   3.200  2.1000 -0.3127  0.6435
  549MOL0     H72438   8.934   4.803   3.274  0.3894 -0.5867  0.1830
  549MOL0     H72439   9.004   4.858   3.431  2.8113  1.8042  0.6654
  549MOL0     H72440   9.155   4.916   3.178 -0.2955  3.5634  1.1656
  549MOL0     H72441   9.219   4.884   3.341 -1.2074  1.5523  0.2857
  549MOL0     H72442   9.176   4.637   3.315  0.6304  0.5996  0.8066
  549MOL0     H72443   9.289   4.701   3.199 -1.1971 -0.4246 -0.7838
  549MOL0     H72444   9.133   4.695   3.027  2.9091 -0.3350  1.4232
  549MOL0     H72445   8.994   4.680   3.128  0.6800 -0.5232 -1.2168
  549MOL0     H72446   9.089   4.475   2.999  2.8422  0.1051 -0.0128
  549MOL0     H72447   9.221   4.472   3.113  0.6982  0.9076  1.1195
  549MOL0     H72448   8.925   4.437   3.182  0.8381  1.0380 -1.8256
  549MOL0     H72449   9.049   4.446   3.306 -0.6502 -0.3367  0.6681
  549MOL0     H72450   8.515   5.035   3.332 -0.3315 -1.7064 -0.4663
  549MOL0     H72451   8.292   5.073   3.444 -3.2515  0.9101  3.1722
  549MOL0     H72452   8.108   5.559   3.728 -0.0610 -0.8201 -3.0410
  549MOL0     H72453   7.894   5.600   3.820 -0.3057 -0.3598 -0.2269
  549MOL0     H72454   6.602   5.539   3.274  1.2355  2.5230 -2.4352
  549MOL0     H72455   6.837   5.532   3.212 -1.6751  1.5058 -0.6063
  549MOL0     H72456   7.213   5.646   3.264  1.5382  1.0972 -0.9032
  549MOL0     H72457   7.463   5.661   3.211 -0.1353  0.7612  1.3812
  549MOL0     H72458   7.675   5.632   3.281 -0.7728 -0.0103 -1.3123
  549MOL0     H72459   7.813   5.541   3.220 -1.3434 -1.3219 -1.6153
  549MOL0     H72460   7.771   5.587   3.491  1.8079 -0.3389  0.7149
  549MOL0     H72461   7.695   5.423   3.460  0.7078 -1.2634 -0.8053
  549MOL0     H72462   7.920   5.435   3.530 -0.2392  1.3738  0.8517
  549MOL0     H72463   7.970   5.529   3.381 -1.5567  1.2717  0.0113
  549MOL0     H72464   7.885   5.315   3.246  3.5402 -0.2557 -0.7631
  549MOL0     H72465   8.033   5.300   3.337 -0.0220 -1.7827 -1.9232
  549MOL0     H72466   7.798   4.993   3.506  1.7213 -1.9378 -2.8033
  549MOL0     H72467   7.473   5.234   3.294  0.7637  0.3866 -0.8332
  549MOL0     H72468   7.230   5.237   3.329 -1.4123  0.9479  0.0966
  550MOL0     O72469   9.556   2.971  10.338 -0.0825 -0.1111  0.3697
  550MOL0     C72470   9.606   2.905  10.244  0.9171 -0.3108  0.2471
  550MOL0     O72471   9.538   2.823  10.164 -0.3813 -0.2709 -0.8331
  550MOL0     C72472   9.407   2.792  10.196 -0.6510  0.4386  0.2416
  550MOL0     C72473   9.361   2.755  10.325 -0.2596 -0.2041  0.1133
  550MOL0     C72474   9.230   2.697  10.337  0.0342  0.4368 -0.6974
  550MOL0     C72475   9.138   2.701  10.233  0.1844 -0.7689  0.1158
  550MOL0     O72476   9.005   2.663  10.250 -0.3122  0.5423  0.9582
  550MOL0     C72477   8.956   2.646  10.394  0.0561  0.6239  1.1641
  550MOL0     C72478   8.823   2.585  10.389  0.9538  1.0119  1.2537
  550MOL0     C72479   8.760   2.557  10.522 -1.0624 -0.2175 -0.5788
  550MOL0     C72480   8.723   2.690  10.583 -0.6439 -0.1439 -0.7360
  550MOL0     C72481   8.600   2.666  10.672  0.1778  0.0232  0.2420
  550MOL0     C72482   8.543   2.809  10.703  0.3691 -0.4316  0.2135
  550MOL0     C72483   8.481   2.890  10.590 -0.3679 -0.1817  0.3457
  550MOL0     C72484   8.358   2.834  10.515  0.6748 -0.4470 -0.2430
  550MOL0     N72485   8.229   2.874  10.591 -0.2894  0.2076  0.4499
  550MOL0     C72486   8.140   2.975  10.556 -0.3512  0.6262  1.0450
  550MOL0     C72487   8.039   2.970  10.648  0.5672 -0.4048  0.2301
  550MOL0     C72488   7.915   3.050  10.627 -0.0037  0.1107 -0.2057
  550MOL0     C72489   7.788   2.971  10.591  0.2031 -0.1813  0.3608
  550MOL0     C72490   7.673   3.048  10.514 -0.0151  1.3028  0.5960
  550MOL0     C72491   7.549   2.963  10.463 -0.0268  0.3342  0.6084
  550MOL0     O72492   7.457   3.033  10.375  0.0143 -0.2910 -0.7958
  550MOL0     C72493   7.331   3.082  10.422 -0.3654 -0.2293 -0.3880
  550MOL0     C72494   7.234   3.118  10.320  0.7788  0.3547 -0.6410
  550MOL0     C72495   7.108   3.165  10.353  0.1946 -0.6688  0.3795
  550MOL0     C72496   7.074   3.186  10.488  0.3415  0.2485 -0.7699
  550MOL0     C72497   6.942   3.240  10.520  0.0172 -0.6474 -0.7271
  550MOL0     O72498   6.852   3.237  10.418 -0.0306  0.4046  0.9867
  550MOL0     C72499   6.718   3.252  10.454 -0.5489  0.4086  0.0242
  550MOL0     C72500   6.657   3.145  10.519 -0.0446  1.0037  0.3134
  550MOL0     C72501   6.522   3.144  10.541 -0.1550  0.5083  0.0723
  550MOL0     C72502   6.447   3.263  10.513  0.1705  0.3150  0.0026
  550MOL0     O72503   6.320   3.286  10.566 -0.2402 -0.0261 -0.1770
  550MOL0     C72504   6.268   3.199  10.669  0.5137 -0.2253 -0.4560
  550MOL0     C72505   6.170   3.094  10.605 -0.1524  0.2506  0.2891
  550MOL0     C72506   6.098   2.983  10.683  0.4463 -0.8967  0.3366
  550MOL0     C72507   6.022   2.887  10.596  0.0518  0.8639 -0.4766
  550MOL0     C72508   5.953   2.783  10.681  0.7269  0.4099 -0.2368
  550MOL0     C72509   5.893   2.672  10.588 -0.1693 -0.0983 -0.0090
  550MOL0     C72510   5.789   2.575  10.649 -0.1631 -0.2518  0.3109
  550MOL0     C72511   5.823   2.428  10.629 -0.0817 -0.3634  1.0557
  550MOL0    Cl72512   5.822   2.391  10.442 -0.1011  0.1786 -0.2659
  550MOL0     C72513   6.511   3.370  10.450  0.0109  0.0048 -0.3270
  550MOL0     C72514   6.642   3.368  10.416 -0.3006  0.6910 -0.0015
  550MOL0     O72515   6.915   3.272  10.636  0.1032 -0.1171 -0.9870
  550MOL0     C72516   7.166   3.154  10.586  0.6121 -0.6754 -0.3284
  550MOL0     C72517   7.291   3.101  10.557 -0.8841  0.5933 -0.0562
  550MOL0     N72518   8.058   2.852  10.719  0.3932  0.8683 -0.2146
  550MOL0     N72519   8.163   2.784  10.674 -0.1368  0.3455  0.3157
  550MOL0     C72520   9.180   2.751  10.108 -0.3448  0.3180 -0.4580
  550MOL0     C72521   9.311   2.791  10.092 -0.6479  0.3096 -0.4333
  550MOL0     C72522   9.742   2.937  10.200 -0.5788 -0.3359  0.4950
  550MOL0     C72523   9.816   2.851  10.118 -0.3426  0.3619  0.0345
  550MOL0     C72524   9.952   2.874  10.104  0.7914 -0.0528 -0.0362
  550MOL0     C72525  10.017   2.987  10.145 -0.7525 -0.7277  0.6397
  550MOL0     O72526  10.153   3.018  10.119  0.1245  0.3857 -0.5427
  550MOL0     C72527  10.237   2.923  10.040  1.0068 -0.2594 -0.0489
  550MOL0     C72528  10.206   2.913   9.889 -0.3087  0.2077 -0.3836
  550MOL0     C72529  10.277   3.016   9.799 -0.5378  0.2464  0.3547
  550MOL0     C72530  10.256   3.165   9.823  0.6594  0.2599  0.0638
  550MOL0     C72531  10.129   3.213   9.762  0.2333 -0.1440  1.0902
  550MOL0     C72532  10.027   3.229   9.693 -0.4336  0.0572  0.5186
  550MOL0     C72533   9.942   3.079  10.230  0.4656  0.1644  0.2256
  550MOL0     C72534   9.810   3.051  10.255  0.1178  0.8525  0.2073
  550MOL0     H72535   9.435   2.749  10.404  3.1881  2.0876 -2.6299
  550MOL0     H72536   9.207   2.675  10.440 -2.1358  1.5127 -0.9092
  550MOL0     H72537   8.967   2.742  10.446  0.8437 -0.2116  2.5924
  550MOL0     H72538   9.019   2.577  10.451 -1.1999 -1.4546  0.1686
  550MOL0     H72539   8.827   2.491  10.333 -1.1582  1.8892 -0.5225
  550MOL0     H72540   8.759   2.649  10.327  1.4984  0.5974  0.2384
  550MOL0     H72541   8.834   2.516  10.592 -0.3864  3.5311  1.1650
  550MOL0     H72542   8.678   2.486  10.506 -1.4989  0.2506 -0.4196
  550MOL0     H72543   8.799   2.738  10.645 -0.3855  0.9753 -1.8622
  550MOL0     H72544   8.713   2.759  10.498  2.0228  1.1095 -0.1633
  550MOL0     H72545   8.639   2.613  10.760  2.6476  0.0469 -0.7758
  550MOL0     H72546   8.525   2.605  10.621  0.4959 -0.6660  0.5864
  550MOL0     H72547   8.620   2.865  10.757 -0.9490 -0.3243  2.0840
  550MOL0     H72548   8.469   2.801  10.783  3.4863 -1.9391  3.2112
  550MOL0     H72549   8.464   2.993  10.621  0.1231 -0.0077  0.0343
  550MOL0     H72550   8.558   2.921  10.519 -0.6399  1.0856  0.5867
  550MOL0     H72551   8.348   2.729  10.485 -3.4637 -0.1936 -0.2248
  550MOL0     H72552   8.371   2.889  10.421 -0.5641 -1.0274 -0.7806
  550MOL0     H72553   8.147   3.046  10.474  0.0258 -1.3138 -0.7019
  550MOL0     H72554   7.940   3.126  10.553  3.6509 -1.4773 -0.8169
  550MOL0     H72555   7.896   3.108  10.718 -1.8602 -0.7611  0.0028
  550MOL0     H72556   7.740   2.923  10.676  0.3291 -1.9427 -0.5156
  550MOL0     H72557   7.829   2.887  10.533  4.0453 -0.1446  2.6795
  550MOL0     H72558   7.633   3.120  10.587 -2.4653 -0.4674  1.1519
  550MOL0     H72559   7.713   3.100  10.426  0.4584 -0.3345 -0.1905
  550MOL0     H72560   7.494   2.928  10.551 -0.3237  1.8898  1.0810
  550MOL0     H72561   7.583   2.879  10.402 -2.1666 -0.6291  0.6753
  550MOL0     H72562   7.265   3.108  10.217  1.4334  2.3833 -0.6793
  550MOL0     H72563   7.039   3.195  10.275  0.1702 -2.5459 -0.3703
  550MOL0     H72564   6.719   3.060  10.547 -1.2816  0.2601  0.8376
  550MOL0     H72565   6.469   3.053  10.567  0.3609  0.0891 -0.3223
  550MOL0     H72566   6.198   3.250  10.736 -1.7980 -2.7149 -0.7829
  550MOL0     H72567   6.347   3.160  10.733  0.3576 -2.1836 -1.3725
  550MOL0     H72568   6.238   3.047  10.533 -1.1841 -1.3487  0.3121
  550MOL0     H72569   6.095   3.149  10.548  0.9533  1.5459  0.0323
  550MOL0     H72570   6.031   3.024  10.759  0.0193  2.8178 -1.8142
  550MOL0     H72571   6.185   2.938  10.733  2.7591  0.2982 -2.3179
  550MOL0     H72572   5.944   2.938  10.540 -2.6688 -2.0008  0.3806
  550MOL0     H72573   6.089   2.840  10.523 -2.0915 -3.1431 -0.2000
  550MOL0     H72574   5.879   2.831  10.746 -0.0675  0.4268 -1.1300
  550MOL0     H72575   6.026   2.723  10.735 -0.1727 -1.0817 -0.6313
  550MOL0     H72576   5.981   2.615  10.558  0.7834 -0.8576  3.6921
  550MOL0     H72577   5.851   2.713  10.495  0.7925 -1.0248 -0.8806
  550MOL0     H72578   5.774   2.604  10.753 -1.6187  3.1014 -0.6923
  550MOL0     H72579   5.696   2.584  10.592  0.4880 -1.9064 -1.1102
  550MOL0     H72580   5.746   2.372  10.683 -0.3700  1.1174  2.2415
  550MOL0     H72581   5.915   2.394  10.678  0.1772 -0.4683  0.4999
  550MOL0     H72582   6.455   3.458  10.419 -0.8542 -1.3958 -3.1003
  550MOL0     H72583   6.697   3.450  10.373  1.4494  0.2540  1.2952
  550MOL0     H72584   7.133   3.167  10.688 -0.5007  1.7255 -0.9150
  550MOL0     H72585   7.358   3.080  10.640 -1.0845 -1.0089 -0.2794
  550MOL0     H72586   9.115   2.760  10.021 -0.1607  1.2058 -0.5089
  550MOL0     H72587   9.345   2.812   9.991 -1.8523  0.3526 -0.8512
  550MOL0     H72588   9.777   2.766  10.063 -1.0988  1.1274 -0.6176
  550MOL0     H72589  10.005   2.787  10.065 -0.0688 -1.8316  2.4613
  550MOL0     H72590  10.232   2.820  10.079 -0.6956 -1.1987 -2.4785
  550MOL0     H72591  10.342   2.951  10.049  0.7111  0.1874  3.5878
  550MOL0     H72592  10.220   2.811   9.851  2.4737  0.8148 -1.2069
  550MOL0     H72593  10.098   2.932   9.887 -0.2291  0.6946 -0.0970
  550MOL0     H72594  10.240   2.994   9.698 -0.8282  0.2627  0.4552
  550MOL0     H72595  10.385   3.002   9.801 -0.1122  2.3489 -2.3289
  550MOL0     H72596  10.262   3.184   9.931  0.4644  2.2190 -0.2317
  550MOL0     H72597  10.336   3.210   9.763  2.5055 -2.2298  0.5158
  550MOL0     H72598   9.941   3.239   9.630 -0.3473  1.4327  0.5808
  550MOL0     H72599   9.988   3.175  10.250 -1.1844  0.9290  0.4677
  550MOL0     H72600   9.751   3.132  10.295 -1.6316 -1.0109  1.6194
  551MOL0     O72601   4.902   4.654   1.337 -0.0080 -0.1736 -0.4050
  551MOL0     C72602   4.906   4.642   1.213  0.9004  0.4051 -0.7438
  551MOL0     O72603   4.803   4.584   1.142  0.6824  0.1092 -0.3379
  551MOL0     C72604   4.690   4.540   1.205  0.0626 -0.0796  0.5480
  551MOL0     C72605   4.676   4.414   1.255 -0.8351  0.8911  0.2974
  551MOL0     C72606   4.557   4.380   1.325 -1.4046 -0.7831 -0.0442
  551MOL0     C72607   4.455   4.472   1.360 -0.5641  0.5158  0.8189
  551MOL0     O72608   4.347   4.424   1.429 -0.6202 -0.3582 -0.5269
  551MOL0     C72609   4.229   4.498   1.432  0.8621 -0.0842 -0.6242
  551MOL0     C72610   4.148   4.431   1.542  0.2404  0.4545  0.4998
  551MOL0     C72611   4.039   4.522   1.594  0.7775 -0.3619 -0.3032
  551MOL0     C72612   3.897   4.514   1.552 -0.2855 -0.1081 -0.2757
  551MOL0     C72613   3.818   4.632   1.595  0.6253  0.0310 -0.1959
  551MOL0     C72614   3.674   4.604   1.547  0.2960 -0.4241 -0.5294
  551MOL0     C72615   3.578   4.723   1.549 -0.3526 -1.1300  0.5120
  551MOL0     C72616   3.596   4.806   1.420 -0.5268  0.8117 -0.1229
  551MOL0     N72617   3.510   4.918   1.418 -0.4876  0.4535  0.3227
  551MOL0     C72618   3.376   4.928   1.450 -1.0056  0.2420  0.0857
  551MOL0     C72619   3.360   5.066   1.459 -0.2503  0.3899  0.7048
  551MOL0     C72620   3.226   5.126   1.477  0.8411  0.0170 -0.0587
  551MOL0     C72621   3.178   5.124   1.617 -0.1910 -0.2405 -0.7674
  551MOL0     C72622   3.151   4.985   1.673  0.3937 -0.1867  0.2446
  551MOL0     C72623   3.110   4.992   1.819  0.5645  0.3909  0.2831
  551MOL0     O72624   3.223   5.032   1.902 -0.2388 -0.1210 -0.6175
  551MOL0     C72625   3.330   4.946   1.931  0.7178  0.1997 -0.5953
  551MOL0     C72626   3.324   4.817   1.893 -0.3337  0.7634  0.2075
  551MOL0     C72627   3.436   4.731   1.909 -0.0470 -0.3370 -0.7460
  551MOL0     C72628   3.552   4.781   1.969  0.3328 -1.1170  0.6849
  551MOL0     C72629   3.678   4.700   1.973  0.6597 -0.3850  0.6944
  551MOL0     O72630   3.790   4.764   2.014  0.3873  0.0044  0.0632
  551MOL0     C72631   3.912   4.714   1.984 -0.9168  0.4050  0.6038
  551MOL0     C72632   3.994   4.810   1.939  0.0142  0.2586  0.8371
  551MOL0     C72633   4.135   4.789   1.900  0.1137  0.0889  0.2509
  551MOL0     C72634   4.183   4.655   1.893 -0.4620  0.3123 -0.9512
  551MOL0     O72635   4.309   4.638   1.841  0.6476  0.1579  0.0508
  551MOL0     C72636   4.384   4.530   1.893  0.1004 -0.3820 -0.1051
  551MOL0     C72637   4.437   4.556   2.038  0.0121 -0.1238 -0.3147
  551MOL0     C72638   4.502   4.696   2.050  0.4356  0.5994 -0.7987
  551MOL0     C72639   4.610   4.740   1.954  0.5184  1.2303  0.0537
  551MOL0     C72640   4.698   4.623   1.903 -0.3615 -0.5600  0.4427
  551MOL0     C72641   4.758   4.623   1.760  0.7464  0.1851 -0.0201
  551MOL0     C72642   4.863   4.520   1.728  0.3987  0.0973  0.1181
  551MOL0     C72643   4.813   4.383   1.770  0.3389 -0.8743  0.7752
  551MOL0    Cl72644   4.670   4.324   1.677  0.0551 -0.3629 -0.1446
  551MOL0     C72645   4.099   4.557   1.951  0.1502  0.2979  0.5750
  551MOL0     C72646   3.967   4.583   1.995  0.2216 -0.1377  0.0458
  551MOL0     O72647   3.672   4.587   1.931 -0.3545  0.0828  0.5829
  551MOL0     C72648   3.549   4.903   2.027 -0.3478 -0.6597 -0.8475
  551MOL0     C72649   3.434   4.988   2.011  0.0087 -0.3774  0.3647
  551MOL0     N72650   3.475   5.131   1.442  0.2831 -0.6223 -0.6087
  551MOL0     N72651   3.567   5.041   1.420 -0.1112 -0.9069  0.1833
  551MOL0     C72652   4.464   4.599   1.299  0.0133 -0.5932 -0.4091
  551MOL0     C72653   4.586   4.641   1.232  0.4629 -0.2878 -0.1833
  551MOL0     C72654   5.029   4.683   1.142  0.2460 -0.5675 -0.0943
  551MOL0     C72655   5.143   4.690   1.223 -0.7601 -0.1295 -0.0071
  551MOL0     C72656   5.269   4.718   1.167 -0.4416  0.5317  0.9672
  551MOL0     C72657   5.298   4.708   1.035 -0.2623 -0.1190  0.5030
  551MOL0     O72658   5.425   4.745   0.989 -0.1625 -0.3083 -0.6998
  551MOL0     C72659   5.438   4.753   0.845 -1.0558 -0.0318 -0.5543
  551MOL0     C72660   5.584   4.783   0.807  0.7980  0.2637 -0.2386
  551MOL0     C72661   5.690   4.692   0.876  0.0863 -0.7270  0.2610
  551MOL0     C72662   5.724   4.752   1.014 -0.7220 -1.2431 -0.0431
  551MOL0     C72663   5.861   4.727   1.058 -0.5244  0.3009 -0.4756
  551MOL0     C72664   5.977   4.717   1.073 -1.1272 -0.7223  1.4515
  551MOL0     C72665   5.178   4.690   0.951  1.4858  0.5490  0.0004
  551MOL0     C72666   5.044   4.677   0.999 -0.1631 -0.1803  0.6112
  551MOL0     H72667   4.755   4.345   1.227 -0.4267  1.1378  0.8169
  551MOL0     H72668   4.552   4.287   1.381 -1.8903 -0.9942 -0.4362
  551MOL0     H72669   4.184   4.487   1.333 -0.3955 -0.8631  0.0049
  551MOL0     H72670   4.258   4.601   1.455  1.7260 -0.4303 -0.1007
  551MOL0     H72671   4.213   4.410   1.627  0.8400  0.3751  0.0226
  551MOL0     H72672   4.114   4.330   1.518  0.5982  0.2119  0.9844
  551MOL0     H72673   4.071   4.626   1.582  0.9472 -0.5462 -1.5676
  551MOL0     H72674   4.033   4.503   1.701  1.3113  0.8106 -0.0529
  551MOL0     H72675   3.898   4.518   1.442  3.2952  1.1069 -0.3190
  551MOL0     H72676   3.851   4.419   1.582  0.3868 -0.5463 -0.5899
  551MOL0     H72677   3.861   4.720   1.548 -1.2355 -0.3542 -2.8309
  551MOL0     H72678   3.819   4.646   1.704 -1.8654  2.5611 -0.3846
  551MOL0     H72679   3.647   4.526   1.619  0.2867 -0.7664 -0.9024
  551MOL0     H72680   3.673   4.554   1.450  3.0698 -0.8642 -0.4182
  551MOL0     H72681   3.474   4.690   1.558 -0.9085  0.9143  2.3798
  551MOL0     H72682   3.592   4.788   1.636 -2.8073 -0.0038  0.1391
  551MOL0     H72683   3.564   4.746   1.334 -1.8674  0.7496  0.3900
  551MOL0     H72684   3.704   4.824   1.413  0.5873 -2.9289  3.3131
  551MOL0     H72685   3.306   4.846   1.460  1.2640 -1.6014  2.0239
  551MOL0     H72686   3.160   5.076   1.406  0.4500 -0.1260  0.4050
  551MOL0     H72687   3.231   5.231   1.446 -0.9148  0.4103  0.8962
  551MOL0     H72688   3.093   5.193   1.615  0.6105  0.8772 -4.4899
  551MOL0     H72689   3.258   5.160   1.682 -1.5091 -0.9922  1.3398
  551MOL0     H72690   3.074   4.944   1.608 -0.2071 -0.2764  1.0014
  551MOL0     H72691   3.238   4.919   1.684  0.8716  0.7946  6.5184
  551MOL0     H72692   3.064   4.898   1.849  1.0985 -0.1877 -0.6700
  551MOL0     H72693   3.035   5.071   1.828 -0.1102 -0.1276 -0.6992
  551MOL0     H72694   3.236   4.771   1.847  0.3629 -3.6327  2.6430
  551MOL0     H72695   3.432   4.633   1.862  2.0565 -1.3151  0.9550
  551MOL0     H72696   3.970   4.916   1.943  0.9318  0.5255 -0.0707
  551MOL0     H72697   4.193   4.874   1.865 -1.1644 -0.6489 -4.2494
  551MOL0     H72698   4.464   4.523   1.820 -0.9613 -1.8015 -1.2088
  551MOL0     H72699   4.330   4.434   1.892  2.4994 -1.8389  0.6515
  551MOL0     H72700   4.502   4.474   2.072  2.0092  1.8859  0.9976
  551MOL0     H72701   4.349   4.554   2.102  1.6677 -3.2415  2.1524
  551MOL0     H72702   4.534   4.717   2.153 -0.2147  4.2553 -1.1814
  551MOL0     H72703   4.418   4.766   2.041 -0.0192  0.7218  2.8670
  551MOL0     H72704   4.557   4.782   1.868 -2.6531 -0.2801  1.1303
  551MOL0     H72705   4.671   4.822   1.994 -0.1872  1.5567  0.4799
  551MOL0     H72706   4.653   4.524   1.916  1.4103 -1.3096  1.2775
  551MOL0     H72707   4.779   4.625   1.978  0.3485  0.9238 -0.3332
  551MOL0     H72708   4.795   4.726   1.757 -2.2399  1.3313 -1.1365
  551MOL0     H72709   4.673   4.632   1.692 -0.7496  2.5386  1.9659
  551MOL0     H72710   4.874   4.520   1.619 -0.9388  1.4761 -0.0576
  551MOL0     H72711   4.956   4.547   1.779 -0.5380 -0.5723  2.2839
  551MOL0     H72712   4.807   4.371   1.879  1.5417  0.3057  1.0060
  551MOL0     H72713   4.888   4.307   1.747  1.3871  0.2238  0.4538
  551MOL0     H72714   4.132   4.454   1.958  0.5873  0.4136  0.2396
  551MOL0     H72715   3.904   4.504   2.036  2.5406 -0.4938  3.3140
  551MOL0     H72716   3.635   4.953   2.070 -1.6732  1.0224  0.0280
  551MOL0     H72717   3.444   5.089   2.050  0.4522 -0.4143  0.3474
  551MOL0     H72718   4.374   4.658   1.285  1.0291  0.5976 -2.4207
  551MOL0     H72719   4.610   4.740   1.196  2.0057 -0.6250 -0.1534
  551MOL0     H72720   5.134   4.689   1.331 -1.1431  0.7601 -0.0243
  551MOL0     H72721   5.349   4.732   1.239  0.6608 -4.3379  1.0028
  551MOL0     H72722   5.368   4.825   0.800 -0.2190  0.7943 -0.5609
  551MOL0     H72723   5.415   4.657   0.797 -0.2745 -0.7080  0.3851
  551MOL0     H72724   5.602   4.786   0.700 -0.0394  1.8455 -0.3702
  551MOL0     H72725   5.605   4.887   0.835 -1.0053  0.2886  1.2423
  551MOL0     H72726   5.779   4.698   0.812 -0.6878 -1.4511 -0.9328
  551MOL0     H72727   5.656   4.589   0.891 -1.5672 -0.0192  1.7150
  551MOL0     H72728   5.715   4.861   1.003  2.1974 -1.0949 -1.9629
  551MOL0     H72729   5.652   4.730   1.093 -3.0957 -1.7033 -2.2067
  551MOL0     H72730   6.082   4.706   1.092 -1.6094 -1.8991  3.7560
  551MOL0     H72731   5.182   4.690   0.842 -1.4487  2.9816 -0.2419
  551MOL0     H72732   4.966   4.647   0.931  1.3356  1.2903 -1.9414
  552MOL0     O72733   5.555   3.472   3.690  0.0229  0.2817 -0.6631
  552MOL0     C72734   5.560   3.358   3.641  0.7392  0.0435  0.2195
  552MOL0     O72735   5.456   3.300   3.585  0.3348  0.3517  0.5902
  552MOL0     C72736   5.341   3.361   3.561 -0.0317  0.3391  0.2395
  552MOL0     C72737   5.261   3.444   3.648 -0.6421 -0.1682  0.3342
  552MOL0     C72738   5.140   3.509   3.607  0.6868  0.3448 -0.3335
  552MOL0     C72739   5.078   3.480   3.485 -1.2371  0.5209 -0.3429
  552MOL0     O72740   4.950   3.510   3.447 -0.2789 -0.6990  0.4859
  552MOL0     C72741   4.856   3.521   3.549  0.8330  0.6099 -0.0408
  552MOL0     C72742   4.727   3.468   3.484 -0.8568 -0.2095  0.7943
  552MOL0     C72743   4.620   3.422   3.583  0.7620  0.1127  0.6553
  552MOL0     C72744   4.499   3.353   3.500 -0.1175 -0.3382 -0.2584
  552MOL0     C72745   4.370   3.324   3.577 -0.2627 -0.5548 -0.0371
  552MOL0     C72746   4.254   3.274   3.478 -0.1178 -0.3834 -1.0737
  552MOL0     C72747   4.123   3.237   3.554 -0.3947  0.1447  0.9243
  552MOL0     C72748   4.004   3.238   3.456 -0.2675  0.1034 -0.1092
  552MOL0     N72749   3.882   3.176   3.517  0.0144  0.1446 -0.4047
  552MOL0     C72750   3.778   3.243   3.568  0.0267 -0.5204  0.2048
  552MOL0     C72751   3.706   3.150   3.625  0.4534 -0.8825  0.6742
  552MOL0     C72752   3.572   3.168   3.696 -0.5579 -0.0205 -0.6313
  552MOL0     C72753   3.582   3.281   3.807  0.5025 -0.3956  0.6940
  552MOL0     C72754   3.702   3.257   3.905  0.3638  0.2826  0.5641
  552MOL0     C72755   3.683   3.371   4.006  0.2574 -0.0141 -0.2638
  552MOL0     O72756   3.800   3.371   4.090 -0.4231 -0.0376 -0.2054
  552MOL0     C72757   3.928   3.412   4.050 -0.0062  0.4650 -0.5281
  552MOL0     C72758   4.032   3.363   4.129 -0.2750  0.3745 -0.3495
  552MOL0     C72759   4.162   3.403   4.088  0.0750  0.2808 -0.0339
  552MOL0     C72760   4.187   3.478   3.978  0.7626 -0.1626 -0.5102
  552MOL0     C72761   4.327   3.506   3.934  0.3514 -0.0122 -0.3125
  552MOL0     O72762   4.431   3.439   3.995  0.9234 -0.4099 -1.1326
  552MOL0     C72763   4.556   3.481   3.980 -1.0231  1.0473  1.1632
  552MOL0     C72764   4.609   3.612   4.023  0.9862  0.1453 -0.0619
  552MOL0     C72765   4.740   3.643   3.992 -0.0879 -0.1567  0.7086
  552MOL0     C72766   4.838   3.555   3.930  0.6809  0.3793  0.0797
  552MOL0     O72767   4.972   3.583   3.927 -0.1715 -0.2482 -0.0877
  552MOL0     C72768   5.021   3.720   3.926  0.1137  0.3438  0.1633
  552MOL0     C72769   5.172   3.723   3.896 -0.5899  0.6274  0.6408
  552MOL0     C72770   5.264   3.688   4.019 -1.3586 -0.4253  0.2446
  552MOL0     C72771   5.287   3.798   4.120 -0.3902  0.5701  0.0903
  552MOL0     C72772   5.371   3.768   4.244  0.0287 -0.5338 -0.0306
  552MOL0     C72773   5.513   3.809   4.225 -0.1707 -0.2106 -0.4095
  552MOL0     C72774   5.614   3.782   4.335 -0.1999 -0.3631 -0.1813
  552MOL0     C72775   5.747   3.851   4.304 -0.6758 -0.4335  0.1921
  552MOL0    Cl72776   5.780   3.916   4.140 -0.0082  0.3627 -0.1507
  552MOL0     C72777   4.777   3.429   3.899 -0.1375 -0.1545  0.0677
  552MOL0     C72778   4.646   3.390   3.922 -0.2910 -0.4273 -0.1872
  552MOL0     O72779   4.347   3.577   3.838  0.3424  0.2006 -0.1571
  552MOL0     C72780   4.086   3.521   3.892 -0.2752 -0.5934  0.4287
  552MOL0     C72781   3.956   3.492   3.932  0.0907 -0.6948  0.2817
  552MOL0     N72782   3.756   3.027   3.603  0.3292  0.7603 -0.1959
  552MOL0     N72783   3.864   3.036   3.534  0.2845 -0.0721  0.2257
  552MOL0     C72784   5.149   3.389   3.401  0.2920 -0.2323 -1.0615
  552MOL0     C72785   5.278   3.345   3.431  0.1330  0.3004 -0.4861
  552MOL0     C72786   5.697   3.284   3.663 -0.1481  0.5962  0.2732
  552MOL0     C72787   5.809   3.353   3.716  0.8127  0.2660  0.0940
  552MOL0     C72788   5.940   3.295   3.723 -0.2148 -0.1433 -0.0562
  552MOL0     C72789   5.953   3.157   3.696  0.6648  0.8000 -0.2713
  552MOL0     O72790   6.069   3.094   3.713  0.2684 -0.0007  0.5451
  552MOL0     C72791   6.147   3.129   3.832 -0.0499 -0.2207  0.0451
  552MOL0     C72792   6.198   2.992   3.879 -0.6428 -0.2649 -0.1433
  552MOL0     C72793   6.286   3.000   4.009  0.5336 -0.0006  0.0480
  552MOL0     C72794   6.427   3.027   3.985 -0.2459  0.5836 -0.3078
  552MOL0     C72795   6.491   3.026   4.116 -0.2665  0.9120  0.7769
  552MOL0     C72796   6.562   3.009   4.220 -0.1930 -0.7892 -0.0203
  552MOL0     C72797   5.845   3.090   3.646 -0.2554  0.1591  0.4709
  552MOL0     C72798   5.719   3.150   3.623 -0.6955 -0.1769  0.4191
  552MOL0     H72799   5.311   3.467   3.741 -0.4496  0.3889  0.0985
  552MOL0     H72800   5.091   3.583   3.669  3.1627 -0.3478  2.6755
  552MOL0     H72801   4.835   3.625   3.576  2.1645  0.0890  3.4724
  552MOL0     H72802   4.893   3.463   3.634  1.7155  4.4858  2.4750
  552MOL0     H72803   4.762   3.382   3.426  0.2512  0.0705  1.0248
  552MOL0     H72804   4.693   3.544   3.413  2.5749  1.0013  0.2495
  552MOL0     H72805   4.570   3.506   3.631  0.3798  0.1521  0.1896
  552MOL0     H72806   4.656   3.349   3.657 -0.4257 -2.7967 -1.4296
  552MOL0     H72807   4.483   3.421   3.416  0.8736  0.0249 -0.1639
  552MOL0     H72808   4.537   3.261   3.455  2.6719 -0.3267  1.8071
  552MOL0     H72809   4.333   3.416   3.622 -1.7166 -1.1087 -0.0147
  552MOL0     H72810   4.388   3.267   3.669  1.2487  0.9093  0.6051
  552MOL0     H72811   4.293   3.186   3.425 -0.7884 -0.4162 -1.5211
  552MOL0     H72812   4.216   3.352   3.412  0.2084  4.4737  3.7866
  552MOL0     H72813   4.132   3.140   3.605  0.6435  0.8272  2.0831
  552MOL0     H72814   4.100   3.322   3.619 -0.2000  0.0939  1.0621
  552MOL0     H72815   4.016   3.186   3.361 -0.1600 -0.3595  0.1525
  552MOL0     H72816   3.987   3.345   3.443 -0.1985  0.0174 -0.9592
  552MOL0     H72817   3.754   3.348   3.555  0.7652 -0.2457  0.9974
  552MOL0     H72818   3.534   3.080   3.750  2.2179 -0.3585  0.9756
  552MOL0     H72819   3.498   3.192   3.620 -0.6346  1.3489 -0.1514
  552MOL0     H72820   3.487   3.260   3.856  0.8718  0.0176  1.6094
  552MOL0     H72821   3.587   3.378   3.755  1.9374 -1.0648 -0.5114
  552MOL0     H72822   3.695   3.161   3.959 -1.2529  1.7789  3.2312
  552MOL0     H72823   3.796   3.262   3.850 -0.8017  1.7299 -1.3980
  552MOL0     H72824   3.596   3.350   4.069  2.4072 -1.5009  2.3922
  552MOL0     H72825   3.664   3.467   3.957 -1.2308  0.0315  0.3492
  552MOL0     H72826   4.037   3.288   4.207  0.1821  1.5853  0.8379
  552MOL0     H72827   4.251   3.367   4.139  0.8322 -0.8392 -2.0682
  552MOL0     H72828   4.552   3.683   4.082 -0.0420  0.2626 -1.1650
  552MOL0     H72829   4.775   3.737   4.031  0.6451 -0.0081 -0.2779
  552MOL0     H72830   5.011   3.763   4.026  1.1474 -0.8252  0.7917
  552MOL0     H72831   4.959   3.786   3.865 -0.2541 -0.7121 -0.6359
  552MOL0     H72832   5.209   3.821   3.865  2.9987 -0.0863  2.2764
  552MOL0     H72833   5.213   3.666   3.812  1.8833  0.0660  2.1491
  552MOL0     H72834   5.361   3.661   3.975 -2.0426 -2.2100 -0.2539
  552MOL0     H72835   5.231   3.597   4.071 -2.1241 -0.1948  0.1703
  552MOL0     H72836   5.314   3.882   4.055 -0.0302  0.6334  0.3244
  552MOL0     H72837   5.190   3.829   4.161 -0.3706 -0.7606  1.2284
  552MOL0     H72838   5.372   3.661   4.267 -1.0906 -0.6294 -0.3958
  552MOL0     H72839   5.346   3.834   4.327 -0.4562 -0.2884 -0.3686
  552MOL0     H72840   5.501   3.917   4.212  0.1225  0.5584  4.0230
  552MOL0     H72841   5.552   3.756   4.137  5.3235  2.0259  0.3032
  552MOL0     H72842   5.571   3.825   4.426 -0.0302  0.6878 -0.5853
  552MOL0     H72843   5.643   3.676   4.343 -0.2131 -0.5599 -2.3094
  552MOL0     H72844   5.836   3.797   4.337  0.2683  0.0777 -1.3792
  552MOL0     H72845   5.737   3.941   4.365 -3.4008 -1.2461  1.0782
  552MOL0     H72846   4.847   3.357   3.860 -1.0422 -0.3802 -1.2185
  552MOL0     H72847   4.615   3.292   3.888  0.2017 -0.3587 -0.8691
  552MOL0     H72848   4.100   3.571   3.797  2.9288 -0.1703  1.0065
  552MOL0     H72849   3.870   3.526   3.876  0.5666 -0.1014 -0.0863
  552MOL0     H72850   5.110   3.380   3.300  0.0570  0.0424 -0.9981
  552MOL0     H72851   5.337   3.290   3.359  3.3159  2.2355  0.4470
  552MOL0     H72852   5.785   3.447   3.764 -1.3692 -1.5850  2.9627
  552MOL0     H72853   6.022   3.352   3.765  0.9403 -2.4737  1.0474
  552MOL0     H72854   6.084   3.168   3.913  1.1756 -0.7459  1.2976
  552MOL0     H72855   6.219   3.204   3.798  1.0196 -0.4865  1.6408
  552MOL0     H72856   6.116   2.920   3.889  1.7188 -3.2229 -0.5086
  552MOL0     H72857   6.253   2.950   3.794 -1.3358 -1.9967  0.2231
  552MOL0     H72858   6.284   2.901   4.057  2.4190 -1.5053 -2.6928
  552MOL0     H72859   6.242   3.078   4.071  1.4168  0.2936  0.3231
  552MOL0     H72860   6.470   2.956   3.913  2.3376  1.3033  0.4010
  552MOL0     H72861   6.431   3.124   3.934 -3.2216  0.3427 -1.1586
  552MOL0     H72862   6.623   2.986   4.305 -0.4078 -0.3591  0.2502
  552MOL0     H72863   5.856   2.986   3.617  2.3076  0.8220 -1.3210
  552MOL0     H72864   5.631   3.095   3.589 -1.2045  0.2338  1.0362
  553MOL0     O72865   4.702  11.162   4.668  0.2268  0.3564  0.0676
  553MOL0     C72866   4.691  11.193   4.551 -0.8851  0.4261  1.0570
  553MOL0     O72867   4.790  11.215   4.468 -0.3310 -0.5291  0.6409
  553MOL0     C72868   4.915  11.216   4.521  0.7978 -0.2550 -0.5205
  553MOL0     C72869   4.997  11.324   4.486 -0.0343 -0.2411 -0.5256
  553MOL0     C72870   5.133  11.325   4.531 -0.2784 -0.5557  0.4337
  553MOL0     C72871   5.185  11.213   4.605  0.1933  0.1397 -0.5176
  553MOL0     O72872   5.303  11.192   4.655 -0.3451 -0.1930 -0.6914
  553MOL0     C72873   5.412  11.296   4.641  0.1640 -0.4449  0.9122
  553MOL0     C72874   5.547  11.233   4.642 -0.3162  0.2312 -0.9748
  553MOL0     C72875   5.653  11.331   4.597 -0.8264  0.4161  0.2748
  553MOL0     C72876   5.724  11.412   4.707  0.2976 -0.4358  0.2869
  553MOL0     C72877   5.844  11.485   4.650 -0.5365 -0.1743 -0.3576
  553MOL0     C72878   5.981  11.398   4.676  0.6784  0.3718 -0.0090
  553MOL0     C72879   6.018  11.312   4.555  0.1151 -0.1964  1.0738
  553MOL0     C72880   6.168  11.282   4.558 -0.8629 -0.0942 -0.2537
  553MOL0     N72881   6.192  11.175   4.652 -0.2506  0.5420 -0.9098
  553MOL0     C72882   6.188  11.038   4.622  0.5646 -0.7827 -0.0761
  553MOL0     C72883   6.226  10.979   4.736 -0.4349  0.0852 -0.6645
  553MOL0     C72884   6.252  10.835   4.757  0.1979  0.1064 -0.2616
  553MOL0     C72885   6.401  10.819   4.778  0.5349  0.1456  0.5350
  553MOL0     C72886   6.438  10.683   4.830  0.5300  0.1328 -0.4766
  553MOL0     C72887   6.421  10.570   4.738  1.0586 -0.3984  0.2056
  553MOL0     O72888   6.474  10.456   4.815 -0.1039 -0.3351 -0.2642
  553MOL0     C72889   6.396  10.378   4.890  0.3946  0.2600 -0.6685
  553MOL0     C72890   6.477  10.278   4.952  0.5772 -0.5563 -0.6121
  553MOL0     C72891   6.419  10.195   5.045  0.4602 -0.1937  0.2628
  553MOL0     C72892   6.278  10.194   5.073  0.2905  0.8616 -0.0360
  553MOL0     C72893   6.212  10.097   5.163  1.0558  0.7766 -0.2822
  553MOL0     O72894   6.087  10.119   5.209  0.1140  0.3955 -0.2903
  553MOL0     C72895   6.000  10.035   5.263 -0.1382  0.0373 -0.0243
  553MOL0     C72896   6.003   9.896   5.258 -0.0407  0.5700 -0.3582
  553MOL0     C72897   5.906   9.822   5.311  0.1395 -0.3893 -0.3677
  553MOL0     C72898   5.790   9.885   5.369 -1.4561 -0.4971 -0.1775
  553MOL0     O72899   5.696   9.804   5.432 -0.2532 -0.3512 -0.0743
  553MOL0     C72900   5.560   9.841   5.393 -0.3326 -0.2022 -0.2969
  553MOL0     C72901   5.455   9.790   5.493 -0.2633  0.5234  0.2198
  553MOL0     C72902   5.317   9.807   5.449 -0.2853  0.2086  0.3171
  553MOL0     C72903   5.212   9.741   5.542  0.2986  0.7408  1.0895
  553MOL0     C72904   5.066   9.780   5.505 -0.7851  1.3255 -1.0299
  553MOL0     C72905   4.985   9.699   5.605 -0.5839 -0.2353  0.9290
  553MOL0     C72906   4.837   9.703   5.595  0.5920  0.0506 -0.9363
  553MOL0     C72907   4.752   9.832   5.620 -0.6709  0.6277  0.3427
  553MOL0    Cl72908   4.573   9.807   5.665 -0.0401 -0.1554  0.2297
  553MOL0     C72909   5.777  10.028   5.366 -0.0714  1.0680 -0.5412
  553MOL0     C72910   5.888  10.100   5.315  0.3886  0.0962  0.6738
  553MOL0     O72911   6.277   9.996   5.183 -1.0978  0.4409  0.5149
  553MOL0     C72912   6.201  10.308   5.020 -0.3004  0.5242  0.6906
  553MOL0     C72913   6.266  10.390   4.922  0.3090 -0.0206  0.3080
  553MOL0     N72914   6.230  11.070   4.835 -0.8474 -0.1906 -0.0145
  553MOL0     N72915   6.213  11.185   4.786 -0.6071  0.7988  0.3795
  553MOL0     C72916   5.098  11.105   4.630 -1.2767 -0.1966  0.4890
  553MOL0     C72917   4.968  11.109   4.583 -0.2168 -1.3012  0.1146
  553MOL0     C72918   4.561  11.168   4.483  0.9622  0.6639  0.2663
  553MOL0     C72919   4.525  11.194   4.342 -0.8936 -0.3402 -0.5723
  553MOL0     C72920   4.402  11.151   4.293  0.1590  0.0535  0.9946
  553MOL0     C72921   4.306  11.093   4.375  0.0878 -0.3691 -0.4893
  553MOL0     O72922   4.185  11.058   4.319 -0.0836 -0.5286 -0.0461
  553MOL0     C72923   4.140  11.100   4.187  0.4572 -0.3469  0.6543
  553MOL0     C72924   3.990  11.044   4.175 -1.0899  0.0284 -0.6088
  553MOL0     C72925   3.898  11.130   4.095  0.3899  0.6526 -0.0869
  553MOL0     C72926   3.871  11.267   4.152  1.1751  0.0799 -0.4603
  553MOL0     C72927   3.751  11.255   4.231  0.5030 -0.0625 -0.7951
  553MOL0     C72928   3.657  11.241   4.305 -0.1715 -0.0986  0.4763
  553MOL0     C72929   4.329  11.069   4.512  0.2355  0.7821  0.5429
  553MOL0     C72930   4.455  11.112   4.560 -0.1289 -0.4656  1.0124
  553MOL0     H72931   4.952  11.409   4.436 -3.6184  0.1125  2.8701
  553MOL0     H72932   5.188  11.414   4.503 -0.4386 -0.6359 -0.1444
  553MOL0     H72933   5.406  11.381   4.709 -0.1305 -1.2197  1.8651
  553MOL0     H72934   5.407  11.339   4.540  0.4897 -0.9815  0.6612
  553MOL0     H72935   5.532  11.153   4.570 -1.5380  1.4195 -2.0860
  553MOL0     H72936   5.582  11.197   4.740  0.4234 -0.9349 -1.6469
  553MOL0     H72937   5.626  11.401   4.517  1.0562 -0.6762 -1.3791
  553MOL0     H72938   5.733  11.269   4.557  1.8978  1.3570  3.7148
  553MOL0     H72939   5.654  11.475   4.763 -0.4142 -1.2915  0.3773
  553MOL0     H72940   5.763  11.337   4.777  2.6329  1.0462  0.6995
  553MOL0     H72941   5.846  11.570   4.717 -2.0837 -0.3801 -0.0139
  553MOL0     H72942   5.832  11.521   4.547  0.1217 -1.0882 -0.7761
  553MOL0     H72943   5.972  11.342   4.770  3.3044 -3.0112 -1.5701
  553MOL0     H72944   6.063  11.465   4.704  1.2244 -0.9204  1.7008
  553MOL0     H72945   5.969  11.214   4.555  2.3124 -1.3831 -0.7670
  553MOL0     H72946   5.991  11.360   4.460  0.2040  0.7334  1.5053
  553MOL0     H72947   6.233  11.364   4.591  1.5608 -3.3502  4.0117
  553MOL0     H72948   6.198  11.261   4.454 -0.9616  0.1680 -0.3373
  553MOL0     H72949   6.158  10.984   4.533 -1.9912  0.5092 -0.0751
  553MOL0     H72950   6.233  10.780   4.665  2.6200  0.0709 -0.7926
  553MOL0     H72951   6.192  10.803   4.843  1.3564  2.0007  1.3387
  553MOL0     H72952   6.441  10.902   4.837  1.2500  1.0099 -1.1282
  553MOL0     H72953   6.456  10.823   4.684 -0.1697 -0.6985  0.0741
  553MOL0     H72954   6.544  10.677   4.857  0.8135 -1.6853 -1.7865
  553MOL0     H72955   6.385  10.661   4.924  0.0802 -0.3549 -0.8369
  553MOL0     H72956   6.477  10.579   4.645  1.2040 -0.5519  0.2785
  553MOL0     H72957   6.320  10.538   4.708  1.1373  0.7366 -1.3783
  553MOL0     H72958   6.586  10.279   4.945  0.7183 -3.0401  0.2329
  553MOL0     H72959   6.481  10.125   5.100  1.1535  2.3698  3.0670
  553MOL0     H72960   6.081   9.830   5.223 -0.0201  0.2935  0.2003
  553MOL0     H72961   5.916   9.714   5.323  5.0107 -0.4005 -2.4053
  553MOL0     H72962   5.533   9.795   5.298  1.5052  0.0389 -0.9782
  553MOL0     H72963   5.545   9.949   5.380 -3.2442 -0.5898 -0.7627
  553MOL0     H72964   5.453   9.844   5.588 -0.0668  0.1406  0.4472
  553MOL0     H72965   5.471   9.683   5.510  1.1160  0.4018 -1.5785
  553MOL0     H72966   5.304   9.763   5.349  1.9214  0.6603 -0.2205
  553MOL0     H72967   5.287   9.912   5.447  0.7961  0.5361  0.8146
  553MOL0     H72968   5.221   9.636   5.511 -0.0125  1.4180 -1.5976
  553MOL0     H72969   5.233   9.766   5.646 -1.1405  2.1808  1.0729
  553MOL0     H72970   5.045   9.762   5.399  2.9848 -2.8650 -1.3613
  553MOL0     H72971   5.054   9.887   5.522  0.8116  1.1360  1.8606
  553MOL0     H72972   5.012   9.732   5.705  1.7214 -1.3349  0.7228
  553MOL0     H72973   5.007   9.596   5.576  2.5542  0.9636 -1.5723
  553MOL0     H72974   4.806   9.676   5.493 -1.0234  1.4993 -0.8676
  553MOL0     H72975   4.808   9.632   5.673  4.1177 -0.0704  0.4276
  553MOL0     H72976   4.768   9.902   5.538  1.2276 -1.0888 -0.8573
  553MOL0     H72977   4.800   9.889   5.700 -1.3604  1.8958 -0.1178
  553MOL0     H72978   5.704  10.080   5.427 -0.9015 -1.6444  0.9353
  553MOL0     H72979   5.884  10.208   5.322  0.6164  0.3216 -1.8296
  553MOL0     H72980   6.097  10.336   5.015 -0.6817 -0.6683  1.4603
  553MOL0     H72981   6.197  10.467   4.890 -2.9758 -2.1831  1.6052
  553MOL0     H72982   5.128  11.023   4.693 -0.5953  1.3877  2.3206
  553MOL0     H72983   4.910  11.019   4.601 -0.2225 -1.2823  0.1915
  553MOL0     H72984   4.601  11.237   4.278 -1.5447 -0.2049 -1.2704
  553MOL0     H72985   4.390  11.144   4.185  0.6123 -0.5456  0.9808
  553MOL0     H72986   4.187  11.037   4.111 -1.0734  1.0409 -1.5770
  553MOL0     H72987   4.155  11.205   4.162  1.4071 -0.5951  0.1484
  553MOL0     H72988   4.004  10.945   4.129  3.8421 -1.0365  2.4108
  553MOL0     H72989   3.948  11.034   4.275 -0.1110 -1.5789 -0.3028
  553MOL0     H72990   3.803  11.080   4.073 -0.4475  3.3695 -3.6158
  553MOL0     H72991   3.935  11.139   3.992  1.0139  2.2574  0.2638
  553MOL0     H72992   3.952  11.304   4.215  2.2845 -1.8753 -0.6938
  553MOL0     H72993   3.857  11.345   4.075  0.1392 -0.9883 -1.4025
  553MOL0     H72994   3.580  11.247   4.380  1.4363  0.0017  2.1791
  553MOL0     H72995   4.249  11.025   4.572 -0.0466  0.1058 -0.3071
  553MOL0     H72996   4.475  11.096   4.666 -0.2588 -0.5287  1.0274
  554MOL0     O72997   2.334   7.320   9.287  0.2028 -0.3881  0.6270
  554MOL0     C72998   2.320   7.213   9.349 -0.8163  0.0043 -0.3675
  554MOL0     O72999   2.414   7.108   9.346 -0.1715 -0.3811 -0.1404
  554MOL0     C73000   2.533   7.123   9.261  0.1699  0.3019 -0.5005
  554MOL0     C73001   2.655   7.076   9.316 -1.6170 -0.1573  0.7719
  554MOL0     C73002   2.773   7.072   9.235  0.3126  0.6832 -0.8218
  554MOL0     C73003   2.771   7.116   9.105 -1.0042 -0.0405  0.6049
  554MOL0     O73004   2.884   7.120   9.033 -0.2940 -0.0865  0.2861
  554MOL0     C73005   2.892   7.021   8.925 -0.1447 -0.5627 -0.4656
  554MOL0     C73006   3.016   7.061   8.842  0.0851 -1.4787  0.3883
  554MOL0     C73007   3.146   7.030   8.908  0.2705 -0.7716  0.8065
  554MOL0     C73008   3.262   7.084   8.816 -0.1738 -0.9391  0.0795
  554MOL0     C73009   3.290   7.002   8.689  0.0350  0.1934  0.4636
  554MOL0     C73010   3.432   7.026   8.625  0.0994  0.5480 -0.3883
  554MOL0     C73011   3.478   6.902   8.543  0.2549  0.1200 -0.4969
  554MOL0     C73012   3.588   6.942   8.446 -0.6147  0.3302  1.0515
  554MOL0     N73013   3.719   6.951   8.508  0.2644 -0.1304  0.4256
  554MOL0     C73014   3.769   7.070   8.541 -0.0678 -0.8386 -0.1154
  554MOL0     C73015   3.891   7.039   8.588 -0.1202  0.4415 -1.2133
  554MOL0     C73016   3.995   7.144   8.637 -0.3427  0.2940  1.2219
  554MOL0     C73017   3.988   7.176   8.778  0.0297 -0.1564 -0.0897
  554MOL0     C73018   4.094   7.281   8.833 -0.4184  0.4459 -0.3008
  554MOL0     C73019   4.068   7.420   8.777 -0.3808 -0.1699  0.2036
  554MOL0     O73020   3.967   7.507   8.838  1.2968  0.2118 -0.6723
  554MOL0     C73021   3.837   7.493   8.816 -1.0754  0.3036 -0.5427
  554MOL0     C73022   3.754   7.553   8.915 -0.2485 -0.9820 -0.1129
  554MOL0     C73023   3.617   7.547   8.901 -0.5676  0.0790 -0.3320
  554MOL0     C73024   3.556   7.498   8.782 -0.0075  0.1041 -0.8895
  554MOL0     C73025   3.413   7.510   8.765 -0.1569 -0.5323 -0.7375
  554MOL0     O73026   3.359   7.615   8.836 -0.2485 -0.6770  0.0344
  554MOL0     C73027   3.229   7.638   8.856 -1.2702  0.6646 -0.8761
  554MOL0     C73028   3.185   7.768   8.833  0.8096  0.8283  0.4018
  554MOL0     C73029   3.051   7.795   8.847  1.1710 -0.0950 -0.2887
  554MOL0     C73030   2.954   7.692   8.868 -0.7445 -0.0693 -0.0968
  554MOL0     O73031   2.824   7.710   8.881  0.0030  0.5168  0.4006
  554MOL0     C73032   2.767   7.810   8.799 -0.2315 -0.5125  0.5764
  554MOL0     C73033   2.626   7.858   8.838  0.4407 -0.2648 -1.0453
  554MOL0     C73034   2.604   7.905   8.982 -0.0952 -0.0470 -0.4868
  554MOL0     C73035   2.470   7.963   9.011  0.1256  0.1866  0.6707
  554MOL0     C73036   2.434   8.008   9.155 -0.0258  0.0317 -0.0696
  554MOL0     C73037   2.475   8.145   9.204 -0.0652  0.1515 -1.1388
  554MOL0     C73038   2.419   8.261   9.118 -0.9087 -0.0098  0.1798
  554MOL0     C73039   2.289   8.310   9.175  0.5410 -0.1420  0.5749
  554MOL0    Cl73040   2.221   8.444   9.066  0.2844 -0.0475 -0.1043
  554MOL0     C73041   3.004   7.560   8.889 -0.9658  0.1875 -0.2541
  554MOL0     C73042   3.139   7.532   8.879  0.3633 -0.2964  0.3754
  554MOL0     O73043   3.350   7.431   8.704  0.0282 -0.5254 -0.0574
  554MOL0     C73044   3.635   7.432   8.688  0.1029 -0.0872 -0.0179
  554MOL0     C73045   3.778   7.434   8.699 -0.3002 -0.4861 -0.6510
  554MOL0     N73046   3.919   6.903   8.581  0.1755 -0.7694 -0.2517
  554MOL0     N73047   3.811   6.851   8.539  0.7224  0.1608 -0.4822
  554MOL0     C73048   2.659   7.169   9.050  0.6461  0.7412  0.7392
  554MOL0     C73049   2.534   7.157   9.119 -0.0594 -0.6488 -0.0612
  554MOL0     C73050   2.205   7.207   9.441  1.2191  0.5441 -0.3087
  554MOL0     C73051   2.201   7.110   9.543  0.0686  0.3421 -1.2176
  554MOL0     C73052   2.087   7.100   9.626  0.0976 -0.6344 -0.3049
  554MOL0     C73053   1.974   7.179   9.609  0.0929 -0.4668  0.6961
  554MOL0     O73054   1.851   7.174   9.660 -0.0591  0.2322  0.4336
  554MOL0     C73055   1.836   7.087   9.776 -0.6998 -0.5025  0.0309
  554MOL0     C73056   1.689   7.085   9.827  0.0934 -1.4503 -0.3940
  554MOL0     C73057   1.649   7.221   9.891  0.9704  0.3110 -0.0460
  554MOL0     C73058   1.504   7.195   9.950  0.1170 -0.3208 -0.0940
  554MOL0     C73059   1.467   7.301  10.044  0.5353  0.3737 -0.5244
  554MOL0     C73060   1.451   7.397  10.116 -0.2082 -0.4515  0.6492
  554MOL0     C73061   1.979   7.275   9.509 -0.1342 -0.1367 -0.5831
  554MOL0     C73062   2.088   7.279   9.421  1.1616  0.1580  0.0248
  554MOL0     H73063   2.650   7.038   9.417  2.6677 -0.1553  1.1836
  554MOL0     H73064   2.867   7.040   9.280 -0.0259 -2.4151 -2.1109
  554MOL0     H73065   2.796   7.029   8.873 -0.9274  0.0446  1.0178
  554MOL0     H73066   2.912   6.921   8.965 -0.7607 -0.3190  0.4586
  554MOL0     H73067   3.003   7.169   8.827 -0.5822 -1.4561  1.0793
  554MOL0     H73068   3.010   7.010   8.745 -0.0274 -2.7960  1.0750
  554MOL0     H73069   3.148   6.924   8.936 -1.5472 -1.5176 -1.5107
  554MOL0     H73070   3.149   7.095   8.996  0.4301  2.3543 -1.3570
  554MOL0     H73071   3.251   7.191   8.798 -2.0578 -1.3208 -1.4263
  554MOL0     H73072   3.355   7.079   8.872 -0.2926 -1.2661  0.2543
  554MOL0     H73073   3.220   7.023   8.608  0.8959  1.5443  0.0358
  554MOL0     H73074   3.290   6.896   8.717  0.9370 -0.2315 -1.0437
  554MOL0     H73075   3.512   7.051   8.696  1.0107  0.3000 -1.2935
  554MOL0     H73076   3.426   7.113   8.558  2.7524 -0.0503 -1.5442
  554MOL0     H73077   3.513   6.817   8.602 -0.6729 -0.3652 -0.6183
  554MOL0     H73078   3.393   6.861   8.488 -0.2199  0.9930 -0.4315
  554MOL0     H73079   3.565   7.031   8.388  0.4073 -0.4684 -0.6611
  554MOL0     H73080   3.611   6.858   8.380  1.7843 -0.2233  2.4624
  554MOL0     H73081   3.715   7.164   8.536 -0.0720 -0.6495  2.5246
  554MOL0     H73082   3.967   7.230   8.576 -0.1801 -1.8005 -2.0462
  554MOL0     H73083   4.093   7.109   8.604 -1.0796  0.7234 -1.7110
  554MOL0     H73084   4.022   7.090   8.837 -1.6778 -1.9737 -1.5947
  554MOL0     H73085   3.885   7.206   8.802 -0.7058 -0.8055 -2.2009
  554MOL0     H73086   4.097   7.292   8.942 -1.7260 -0.4831 -0.1490
  554MOL0     H73087   4.193   7.238   8.814 -1.0144 -1.2786  0.2561
  554MOL0     H73088   4.045   7.419   8.670 -1.0659  0.7688  0.3299
  554MOL0     H73089   4.166   7.467   8.771  0.5920 -1.9009  1.5958
  554MOL0     H73090   3.806   7.602   8.997 -1.3254 -1.8679  1.1380
  554MOL0     H73091   3.554   7.583   8.982 -0.2047 -2.2872  1.0960
  554MOL0     H73092   3.247   7.852   8.801  0.4865  0.3257 -1.6583
  554MOL0     H73093   3.029   7.901   8.852 -0.6549 -0.4617  0.0633
  554MOL0     H73094   2.759   7.782   8.693 -0.9247  0.1211  0.4533
  554MOL0     H73095   2.821   7.904   8.808 -0.2986 -0.4344  0.1720
  554MOL0     H73096   2.553   7.783   8.806 -0.3758 -0.0075  0.1296
  554MOL0     H73097   2.606   7.952   8.786  0.7891  1.2798  1.4320
  554MOL0     H73098   2.679   7.981   9.008  0.0124 -0.7626  1.4465
  554MOL0     H73099   2.622   7.828   9.058  0.2079  0.3683 -0.1321
  554MOL0     H73100   2.452   8.045   8.940 -0.3947  1.1613  1.8809
  554MOL0     H73101   2.405   7.880   8.983 -0.5832  1.5894 -2.2869
  554MOL0     H73102   2.463   7.940   9.236  1.3431  0.3290 -0.3017
  554MOL0     H73103   2.324   8.005   9.152  0.0084 -0.1247 -1.3865
  554MOL0     H73104   2.581   8.153   9.227 -0.0962  2.1510 -1.5553
  554MOL0     H73105   2.436   8.154   9.306 -0.8133  2.5212 -1.5758
  554MOL0     H73106   2.490   8.341   9.144 -2.7775  1.3966  1.1879
  554MOL0     H73107   2.418   8.249   9.009 -2.0601  0.1991  0.1584
  554MOL0     H73108   2.309   8.356   9.273 -1.4608  0.7309  0.6077
  554MOL0     H73109   2.217   8.229   9.186 -1.0299  0.7821 -2.1242
  554MOL0     H73110   2.935   7.478   8.908  0.8803 -0.8613  2.6763
  554MOL0     H73111   3.164   7.427   8.889 -0.6376 -0.8813 -2.5477
  554MOL0     H73112   3.585   7.386   8.603  2.2899  0.2248 -1.5875
  554MOL0     H73113   3.842   7.391   8.623  1.5315 -0.9258  1.0467
  554MOL0     H73114   2.662   7.204   8.948  0.1601 -0.7587  0.1939
  554MOL0     H73115   2.454   7.195   9.057  0.7115 -0.6080 -1.0505
  554MOL0     H73116   2.286   7.045   9.560  1.0460  2.4202  3.2632
  554MOL0     H73117   2.091   7.011   9.689 -0.6975 -0.3419  0.1703
  554MOL0     H73118   1.907   7.119   9.853 -0.2061  3.6463 -1.8727
  554MOL0     H73119   1.853   6.984   9.743 -2.5595 -0.2652 -1.9174
  554MOL0     H73120   1.623   7.057   9.744  0.4786 -0.1605 -1.1632
  554MOL0     H73121   1.683   7.006   9.902 -1.6848  1.2659  2.5384
  554MOL0     H73122   1.656   7.310   9.828  0.8950  0.2869 -0.0888
  554MOL0     H73123   1.714   7.239   9.977  0.5712 -0.1948  0.3668
  554MOL0     H73124   1.438   7.191   9.863  2.3840  0.5554 -1.9682
  554MOL0     H73125   1.514   7.101  10.006  0.0125  0.2706  0.9387
  554MOL0     H73126   1.442   7.488  10.172  5.3003 -0.1638  1.5975
  554MOL0     H73127   1.892   7.338   9.494 -1.1662 -1.1349  0.9167
  554MOL0     H73128   2.075   7.339   9.331  1.5905  1.7058  0.9625
  555MOL0     O73129   7.778   5.392   5.767  0.1170 -0.8426 -0.4945
  555MOL0     C73130   7.878   5.325   5.810  0.3228  0.1489  0.5766
  555MOL0     O73131   7.876   5.240   5.909  0.7620 -0.0352  0.2210
  555MOL0     C73132   7.756   5.210   5.970  0.6641  0.7814 -0.5068
  555MOL0     C73133   7.710   5.286   6.079  0.6587  0.0355  0.2148
  555MOL0     C73134   7.600   5.234   6.149 -0.0502 -0.6783  0.2932
  555MOL0     C73135   7.530   5.113   6.115 -1.0152 -0.1894 -0.0526
  555MOL0     O73136   7.412   5.076   6.178  0.2632  0.2567  0.0452
  555MOL0     C73137   7.388   4.938   6.205  0.3640  0.4767  0.2555
  555MOL0     C73138   7.313   4.934   6.342 -0.3188 -0.2882  0.7279
  555MOL0     C73139   7.188   5.032   6.350 -0.6158  0.1505 -0.1949
  555MOL0     C73140   7.101   4.997   6.465  0.1722  0.1305 -0.7714
  555MOL0     C73141   7.012   5.103   6.521  0.6532 -0.3351  0.7104
  555MOL0     C73142   6.881   5.031   6.577  0.3439  0.3157  0.0807
  555MOL0     C73143   6.784   5.140   6.615  0.3234 -0.5210  0.4051
  555MOL0     C73144   6.629   5.109   6.594 -0.0484  1.1686 -0.9592
  555MOL0     N73145   6.543   5.182   6.678 -0.5604 -0.0372 -0.3336
  555MOL0     C73146   6.506   5.305   6.643  0.2038  0.5969  0.3886
  555MOL0     C73147   6.463   5.361   6.756  0.5392 -0.7221 -0.8086
  555MOL0     C73148   6.396   5.495   6.766  0.2670  0.2194 -0.1731
  555MOL0     C73149   6.245   5.480   6.736 -0.1788 -0.4065  0.2760
  555MOL0     C73150   6.163   5.407   6.838 -0.2496  0.6789 -1.4222
  555MOL0     C73151   6.023   5.405   6.784 -0.4272  0.1085  0.1745
  555MOL0     O73152   5.938   5.353   6.881 -0.3111  0.1809  0.0284
  555MOL0     C73153   5.844   5.425   6.948  0.5495  0.0915 -0.1762
  555MOL0     C73154   5.726   5.355   6.990 -0.3476 -0.3469  0.1521
  555MOL0     C73155   5.621   5.428   7.042 -0.0318 -0.3126 -0.4452
  555MOL0     C73156   5.633   5.568   7.070 -0.7196 -0.5906 -0.2996
  555MOL0     C73157   5.515   5.637   7.117 -0.6882  0.0060  0.0818
  555MOL0     O73158   5.433   5.567   7.207  0.6401 -0.4178 -1.1032
  555MOL0     C73159   5.325   5.629   7.260  0.5670 -0.3034 -0.3204
  555MOL0     C73160   5.307   5.632   7.396  0.4418  0.8521  0.1272
  555MOL0     C73161   5.184   5.686   7.453 -0.3616  0.6237 -0.3240
  555MOL0     C73162   5.090   5.739   7.362  0.4793  0.7863  0.0026
  555MOL0     O73163   4.976   5.791   7.407  0.5302 -0.1256  0.5334
  555MOL0     C73164   4.901   5.742   7.514 -0.2205  1.0685  0.7356
  555MOL0     C73165   4.755   5.766   7.483 -1.4633 -0.3721 -0.2252
  555MOL0     C73166   4.673   5.691   7.577  1.5156 -0.4261 -0.2761
  555MOL0     C73167   4.527   5.689   7.534  0.4478 -0.1152 -0.2647
  555MOL0     C73168   4.427   5.683   7.653 -0.1530  0.6073  0.9185
  555MOL0     C73169   4.274   5.661   7.614  0.3433 -0.2631  0.9950
  555MOL0     C73170   4.174   5.681   7.724 -0.5603  0.0571  0.2189
  555MOL0     C73171   4.100   5.810   7.713  0.1676 -0.0452  0.0171
  555MOL0    Cl73172   3.952   5.795   7.808 -0.3915  0.5477  0.2520
  555MOL0     C73173   5.105   5.728   7.230  0.2136  1.1013  0.4168
  555MOL0     C73174   5.233   5.682   7.183  0.8436 -0.2777  0.3046
  555MOL0     O73175   5.501   5.752   7.073  0.1788  0.1965  0.7319
  555MOL0     C73176   5.754   5.634   7.045 -0.6331  0.4777  0.6666
  555MOL0     C73177   5.860   5.565   6.977  0.4171 -0.4507 -1.1285
  555MOL0     N73178   6.464   5.271   6.866 -0.7269  0.2473  0.0458
  555MOL0     N73179   6.515   5.167   6.816 -0.5153 -0.0340  0.3346
  555MOL0     C73180   7.586   5.038   6.010  0.0845  0.0835 -0.5030
  555MOL0     C73181   7.693   5.085   5.938  0.4805 -0.1873 -1.3269
  555MOL0     C73182   8.011   5.343   5.744 -0.0349  0.6416  0.3018
  555MOL0     C73183   8.039   5.457   5.665  0.1270 -0.2527  0.6025
  555MOL0     C73184   8.159   5.456   5.586 -0.7308  1.4847  0.6611
  555MOL0     C73185   8.248   5.346   5.603 -0.2699  0.1022  0.1793
  555MOL0     O73186   8.369   5.340   5.536  0.2425  0.1535  0.6379
  555MOL0     C73187   8.352   5.325   5.392  0.2905 -0.3305  0.0087
  555MOL0     C73188   8.293   5.193   5.350 -0.0886 -0.6509 -0.6368
  555MOL0     C73189   8.373   5.068   5.381 -0.0008  0.2558 -0.5337
  555MOL0     C73190   8.294   4.962   5.442 -0.9438  0.9572 -0.7892
  555MOL0     C73191   8.375   4.836   5.445  0.5419 -0.3228  0.8202
  555MOL0     C73192   8.435   4.730   5.445  0.7062  0.5869 -0.5999
  555MOL0     C73193   8.219   5.240   5.683 -0.3259 -0.1683  0.8041
  555MOL0     C73194   8.101   5.240   5.761  0.4398 -0.4606 -0.6434
  555MOL0     H73195   7.750   5.384   6.103  0.0705 -0.7281  5.2948
  555MOL0     H73196   7.552   5.300   6.221 -0.5236 -0.5068 -0.1741
  555MOL0     H73197   7.480   4.879   6.205  0.6827  0.9591  0.7606
  555MOL0     H73198   7.331   4.896   6.123 -0.5281 -2.5523  2.2584
  555MOL0     H73199   7.379   4.952   6.427  1.3773  2.2922 -0.9832
  555MOL0     H73200   7.274   4.832   6.354  0.4052 -0.2936  3.8276
  555MOL0     H73201   7.137   5.017   6.254  0.3894 -0.1399 -0.6940
  555MOL0     H73202   7.208   5.138   6.364 -0.2371  0.1972 -0.9982
  555MOL0     H73203   7.036   4.919   6.424 -2.4238  0.8790  1.5946
  555MOL0     H73204   7.148   4.947   6.550 -0.5820 -3.8499 -2.4639
  555MOL0     H73205   6.985   5.167   6.437  2.3619 -2.0430 -1.2645
  555MOL0     H73206   7.062   5.156   6.603 -0.1085 -0.0173  0.9737
  555MOL0     H73207   6.916   4.979   6.667  3.3284 -0.4504 -1.4101
  555MOL0     H73208   6.829   4.964   6.509  2.0931 -0.5494 -0.4630
  555MOL0     H73209   6.793   5.166   6.721  1.8941 -1.2299  0.4618
  555MOL0     H73210   6.811   5.236   6.570 -1.0925  0.5410  1.7055
  555MOL0     H73211   6.616   5.001   6.601 -3.1199  1.0834 -4.8758
  555MOL0     H73212   6.598   5.120   6.490 -0.6356  1.8939 -0.7168
  555MOL0     H73213   6.519   5.348   6.545 -0.6511  0.0236  0.0113
  555MOL0     H73214   6.439   5.569   6.698 -3.8506  0.9826 -2.1942
  555MOL0     H73215   6.415   5.529   6.868  1.3162 -2.0039  0.4456
  555MOL0     H73216   6.240   5.441   6.634  0.0315  0.3054 -0.0129
  555MOL0     H73217   6.195   5.578   6.729 -2.5142 -1.5107  0.4329
  555MOL0     H73218   6.196   5.304   6.851  0.4866  1.1723  1.1330
  555MOL0     H73219   6.159   5.449   6.939 -0.4041  2.3603 -2.0917
  555MOL0     H73220   6.016   5.344   6.693  0.0351  1.0615 -0.5134
  555MOL0     H73221   5.982   5.502   6.756 -2.4626 -1.1237 -1.4371
  555MOL0     H73222   5.712   5.252   6.961 -2.7243 -0.2303  0.6817
  555MOL0     H73223   5.538   5.371   7.083  0.0344  0.1625  0.3807
  555MOL0     H73224   5.379   5.589   7.465  0.1253  2.2613  1.3747
  555MOL0     H73225   5.177   5.696   7.561  0.9328  0.2163 -0.1792
  555MOL0     H73226   4.930   5.786   7.610  3.7710  1.1710 -0.3251
  555MOL0     H73227   4.918   5.634   7.514 -1.0764  0.9231  1.5213
  555MOL0     H73228   4.721   5.741   7.382  0.0569  0.9990 -1.1193
  555MOL0     H73229   4.746   5.874   7.498  2.0762  0.1426 -0.9728
  555MOL0     H73230   4.684   5.734   7.676 -2.6370  0.9120 -0.2015
  555MOL0     H73231   4.700   5.586   7.593 -0.5914 -1.2041 -1.3760
  555MOL0     H73232   4.525   5.793   7.499  0.6038 -0.2739 -0.7586
  555MOL0     H73233   4.517   5.616   7.454 -1.0696  0.7746 -0.9393
  555MOL0     H73234   4.444   5.768   7.721  4.2773 -1.2708  2.4912
  555MOL0     H73235   4.454   5.595   7.711  3.2685 -0.2471 -1.6978
  555MOL0     H73236   4.272   5.557   7.580 -0.2075  0.3501 -0.9534
  555MOL0     H73237   4.244   5.717   7.524 -0.4836 -2.4737 -0.1697
  555MOL0     H73238   4.094   5.607   7.710  2.7587 -3.5697 -1.2514
  555MOL0     H73239   4.217   5.667   7.823 -0.4698  0.7614  0.2847
  555MOL0     H73240   4.071   5.841   7.612 -0.1798 -0.3229  0.0309
  555MOL0     H73241   4.166   5.886   7.758  1.9435 -2.6611  2.1559
  555MOL0     H73242   5.029   5.763   7.161  0.1353 -2.5267 -1.5846
  555MOL0     H73243   5.245   5.679   7.075 -1.2128 -0.5643  0.0301
  555MOL0     H73244   5.771   5.738   7.070  1.3156  0.2366  0.4870
  555MOL0     H73245   5.952   5.622   6.965 -0.7042  2.1604  1.4455
  555MOL0     H73246   7.549   4.942   5.976  0.6094 -0.6817  1.0088
  555MOL0     H73247   7.725   5.028   5.852  3.5624 -0.6703  0.0061
  555MOL0     H73248   7.962   5.533   5.664 -0.5502 -0.8085  3.2574
  555MOL0     H73249   8.176   5.537   5.516 -2.1563 -0.1242 -1.7023
  555MOL0     H73250   8.455   5.333   5.355  1.0535  3.4598  2.3460
  555MOL0     H73251   8.293   5.407   5.352 -0.4908 -0.0627  1.6122
  555MOL0     H73252   8.188   5.190   5.379  0.6757 -5.9808  3.0581
  555MOL0     H73253   8.285   5.207   5.242 -0.0184 -0.5914 -0.6346
  555MOL0     H73254   8.461   5.070   5.446 -0.0899 -0.3459 -0.3822
  555MOL0     H73255   8.403   5.035   5.281  1.5565  0.9575 -0.3210
  555MOL0     H73256   8.250   4.999   5.535 -0.5993  1.2192 -0.7306
  555MOL0     H73257   8.209   4.937   5.378 -0.6314 -2.2869 -0.1154
  555MOL0     H73258   8.483   4.634   5.455 -0.0556  0.3468  1.0557
  555MOL0     H73259   8.279   5.150   5.686  2.3882  1.5497  3.0310
  555MOL0     H73260   8.088   5.153   5.824 -0.1445 -0.5803 -0.9287
  556MOL0     O73261   1.127   4.902   0.363  0.1785 -0.4999  0.0833
  556MOL0     C73262   1.155   4.837   0.264  0.3885  0.0255  0.0276
  556MOL0     O73263   1.069   4.785   0.177 -0.0931 -0.8089  0.1411
  556MOL0     C73264   0.939   4.808   0.175  0.1861 -0.7916 -0.1224
  556MOL0     C73265   0.845   4.727   0.242  0.2663  0.2391  0.5004
  556MOL0     C73266   0.707   4.765   0.238  0.9316 -0.1297 -0.6743
  556MOL0     C73267   0.670   4.875   0.165  1.1094 -0.8041 -0.0403
  556MOL0     O73268   0.549   4.911   0.169  0.3354  0.7884 -0.3111
  556MOL0     C73269   0.476   4.928   0.041 -1.1785  0.6113 -0.6993
  556MOL0     C73270   0.333   4.866   0.073  0.2397  1.3840 -0.5158
  556MOL0     C73271   0.246   4.952   0.169  0.2614  0.2302  0.8790
  556MOL0     C73272   0.104   4.892   0.196  0.2416 -0.3611 -0.7693
  556MOL0     C73273   0.035   4.962   0.315  0.7749  0.0306  0.1095
  556MOL0     C73274  -0.116   4.911   0.319 -0.1484 -0.4346 -0.1094
  556MOL0     C73275  -0.187   4.965   0.439  0.6710 -0.4668  0.9582
  556MOL0     C73276  -0.332   4.913   0.448 -0.0841  0.0988  1.3439
  556MOL0     N73277  -0.405   4.965   0.558 -0.5989  0.4312 -0.8004
  556MOL0     C73278  -0.474   5.084   0.567 -0.3270  1.4614 -0.1066
  556MOL0     C73279  -0.556   5.083   0.674 -0.3258  0.3239 -0.8283
  556MOL0     C73280  -0.637   5.188   0.732 -0.1251 -0.0679  0.2290
  556MOL0     C73281  -0.786   5.155   0.765 -1.7480  0.2249 -0.1697
  556MOL0     C73282  -0.847   5.292   0.817  0.0889 -0.7596  0.5330
  556MOL0     C73283  -1.002   5.310   0.789 -0.1525 -0.2908  0.4708
  556MOL0     O73284  -1.039   5.329   0.648  0.0046 -0.0552  0.6774
  556MOL0     C73285  -1.175   5.336   0.634  0.1338  0.4202 -0.8446
  556MOL0     C73286  -1.281   5.250   0.686  0.1613 -0.3697  0.7509
  556MOL0     C73287  -1.417   5.265   0.660  0.4388  1.1165 -0.9832
  556MOL0     C73288  -1.464   5.370   0.579  0.2704  0.0771  0.4120
  556MOL0     C73289  -1.604   5.395   0.548  0.3148  0.6607 -0.2403
  556MOL0     O73290  -1.697   5.332   0.628  0.4300 -0.3012  0.9344
  556MOL0     C73291  -1.828   5.333   0.590  0.5907 -1.0905 -0.2904
  556MOL0     C73292  -1.901   5.448   0.552 -1.2050 -0.1440  0.3329
  556MOL0     C73293  -2.030   5.443   0.510  0.1182 -0.7695 -0.1145
  556MOL0     C73294  -2.095   5.323   0.490  1.5588 -0.2658  0.0825
  556MOL0     O73295  -2.220   5.314   0.428  0.6901 -0.2822 -0.0558
  556MOL0     C73296  -2.257   5.422   0.339  0.8321 -0.2178  0.1655
  556MOL0     C73297  -2.398   5.397   0.289  0.5043 -0.3562 -0.7878
  556MOL0     C73298  -2.515   5.428   0.390 -0.7747 -0.0633 -0.1340
  556MOL0     C73299  -2.581   5.553   0.333 -0.2739 -0.6236 -0.4968
  556MOL0     C73300  -2.685   5.626   0.428 -0.1856  0.8230  0.5418
  556MOL0     C73301  -2.808   5.533   0.435 -0.4014 -0.7734  0.7748
  556MOL0     C73302  -2.920   5.626   0.490 -0.7711 -0.0062 -0.0709
  556MOL0     C73303  -3.052   5.557   0.505 -0.5476  0.5270 -0.4010
  556MOL0    Cl73304  -3.103   5.481   0.348 -0.2273 -0.2852  0.4532
  556MOL0     C73305  -2.022   5.211   0.518 -0.0174  0.7889 -0.3959
  556MOL0     C73306  -1.894   5.211   0.577 -0.0636  0.5276 -0.1033
  556MOL0     O73307  -1.633   5.466   0.454  0.6843  1.4877 -0.5483
  556MOL0     C73308  -1.359   5.454   0.522 -0.1933  0.0200  0.4218
  556MOL0     C73309  -1.224   5.432   0.546  1.1861 -0.4189 -0.5424
  556MOL0     N73310  -0.529   4.964   0.737  0.0758 -0.1701 -0.0526
  556MOL0     N73311  -0.450   4.895   0.664 -0.6442 -0.4156 -1.0416
  556MOL0     C73312   0.758   4.956   0.091 -0.1574  0.4378  0.0349
  556MOL0     C73313   0.894   4.920   0.106 -0.0424  0.1377  0.2804
  556MOL0     C73314   1.304   4.825   0.227 -0.1252 -0.0004 -0.2426
  556MOL0     C73315   1.349   4.717   0.155 -1.1717 -0.5487 -0.3507
  556MOL0     C73316   1.490   4.715   0.132 -0.5981  0.4349  0.0398
  556MOL0     C73317   1.584   4.803   0.191  0.8431  0.6113 -0.7570
  556MOL0     O73318   1.719   4.800   0.174  0.1739  0.0901  0.6189
  556MOL0     C73319   1.780   4.703   0.096 -0.4367 -0.5575 -0.0966
  556MOL0     C73320   1.929   4.705   0.135  0.4842 -0.4129  0.3035
  556MOL0     C73321   1.990   4.557   0.122  0.3522 -0.4670  0.6573
  556MOL0     C73322   2.125   4.555   0.194 -0.6594  0.3416 -0.7374
  556MOL0     C73323   2.185   4.424   0.188 -0.4575  0.4534  0.3002
  556MOL0     C73324   2.242   4.317   0.187  1.1215  0.0829  0.8887
  556MOL0     C73325   1.531   4.894   0.280  0.1144  1.2270 -0.6642
  556MOL0     C73326   1.391   4.912   0.302 -0.3790  0.6397  0.7795
  556MOL0     H73327   0.875   4.638   0.297 -0.6001  0.5553  1.5403
  556MOL0     H73328   0.630   4.707   0.288  0.6195 -2.3565 -3.4229
  556MOL0     H73329   0.529   4.867  -0.032  3.2477  3.6087 -0.4054
  556MOL0     H73330   0.489   5.031   0.006  3.6535  0.4607  0.0139
  556MOL0     H73331   0.347   4.762   0.103 -0.3361  1.8803  1.6229
  556MOL0     H73332   0.281   4.867  -0.024 -2.1783 -0.2441  0.6396
  556MOL0     H73333   0.239   5.053   0.127 -2.3923  0.8851  2.6367
  556MOL0     H73334   0.302   4.953   0.263  2.2296 -0.1616 -0.2415
  556MOL0     H73335   0.042   4.897   0.106 -1.0640 -2.6228 -0.0982
  556MOL0     H73336   0.104   4.787   0.228 -4.1500  0.0698  1.3915
  556MOL0     H73337   0.040   5.069   0.294  1.8729 -0.2810 -1.3942
  556MOL0     H73338   0.085   4.946   0.411 -0.9663  1.2959  1.2910
  556MOL0     H73339  -0.115   4.802   0.325 -1.8984 -0.4621  0.2348
  556MOL0     H73340  -0.178   4.931   0.231  0.3998 -0.5281 -0.5257
  556MOL0     H73341  -0.134   4.937   0.531 -2.9986  1.1742  3.8120
  556MOL0     H73342  -0.193   5.073   0.428 -1.1367 -0.7717 -2.0896
  556MOL0     H73343  -0.347   4.806   0.465 -2.3520  0.3885  1.5089
  556MOL0     H73344  -0.397   4.914   0.360  0.0468 -5.6390  0.8072
  556MOL0     H73345  -0.473   5.170   0.501  0.6456  0.9301 -0.8195
  556MOL0     H73346  -0.641   5.269   0.658 -0.4792 -0.9909 -0.7854
  556MOL0     H73347  -0.577   5.227   0.815  1.5861  1.4494 -1.6252
  556MOL0     H73348  -0.792   5.079   0.844 -1.5169  1.7510  1.3811
  556MOL0     H73349  -0.848   5.112   0.687 -1.7490 -1.2583  0.6173
  556MOL0     H73350  -0.818   5.291   0.923  1.4847  0.9597  0.2127
  556MOL0     H73351  -0.803   5.371   0.755 -0.7625  0.5108  1.5159
  556MOL0     H73352  -1.036   5.390   0.854 -0.1001  0.7144 -0.7085
  556MOL0     H73353  -1.045   5.216   0.825 -2.7052  1.7517  3.2753
  556MOL0     H73354  -1.251   5.154   0.729 -0.3492 -1.6873 -1.6552
  556MOL0     H73355  -1.484   5.190   0.703  1.7080 -0.4797 -1.6802
  556MOL0     H73356  -1.847   5.542   0.554  0.3791 -0.9889 -0.7347
  556MOL0     H73357  -2.096   5.527   0.491 -1.9417 -2.1338  0.7558
  556MOL0     H73358  -2.186   5.412   0.256  1.9421  1.2190  0.9074
  556MOL0     H73359  -2.245   5.527   0.365 -1.5451  0.6719 -1.9163
  556MOL0     H73360  -2.402   5.290   0.266 -0.8254 -0.4839 -0.0230
  556MOL0     H73361  -2.416   5.457   0.199  0.1534 -0.6696 -0.9280
  556MOL0     H73362  -2.466   5.454   0.484  3.1223  1.2423 -2.3006
  556MOL0     H73363  -2.584   5.343   0.395 -1.0013  0.1231 -0.0579
  556MOL0     H73364  -2.509   5.632   0.308 -2.3449  2.0915  1.4184
  556MOL0     H73365  -2.631   5.535   0.237 -0.0749  0.7003 -0.8706
  556MOL0     H73366  -2.703   5.726   0.389  2.2813  0.5333 -1.5667
  556MOL0     H73367  -2.639   5.634   0.528  1.4163 -0.8283  0.0075
  556MOL0     H73368  -2.786   5.454   0.507 -4.2838 -3.0592 -0.2689
  556MOL0     H73369  -2.832   5.490   0.337  1.8329 -2.8455  1.0542
  556MOL0     H73370  -2.891   5.662   0.589  0.3064 -1.2892  0.1084
  556MOL0     H73371  -2.934   5.716   0.430  0.4032 -0.2316 -0.7192
  556MOL0     H73372  -3.128   5.625   0.544 -1.2431  1.6330 -3.3826
  556MOL0     H73373  -3.039   5.487   0.588 -1.9051  2.1228  1.2133
  556MOL0     H73374  -2.063   5.113   0.496  0.5898  0.5478 -0.4565
  556MOL0     H73375  -1.854   5.114   0.604 -1.3611 -0.1288 -0.5127
  556MOL0     H73376  -1.384   5.529   0.448  2.4293 -0.9956 -1.6527
  556MOL0     H73377  -1.142   5.493   0.508  1.8365  0.6242  2.2731
  556MOL0     H73378   0.739   5.044   0.030  0.0724 -0.8081 -1.9458
  556MOL0     H73379   0.975   4.970   0.055 -0.4070 -1.0852 -1.5967
  556MOL0     H73380   1.279   4.646   0.114  1.3109 -2.0463 -2.2694
  556MOL0     H73381   1.520   4.631   0.071 -1.6733  0.2118 -0.2060
  556MOL0     H73382   1.777   4.728  -0.011  0.5124 -0.2017 -0.0546
  556MOL0     H73383   1.737   4.608   0.128 -1.7330  0.8895  2.7784
  556MOL0     H73384   1.980   4.766   0.061 -0.5317 -0.0486 -0.1145
  556MOL0     H73385   1.948   4.741   0.237 -0.8181 -1.5432  0.9926
  556MOL0     H73386   1.997   4.524   0.018  2.1541 -0.8505  0.8589
  556MOL0     H73387   1.918   4.487   0.167  0.6405 -1.3141 -0.1665
  556MOL0     H73388   2.185   4.634   0.147 -2.1110  1.6566 -0.4562
  556MOL0     H73389   2.111   4.584   0.299  0.3930 -1.5052 -0.0380
  556MOL0     H73390   2.299   4.226   0.181  2.8036  1.1290  0.1000
  556MOL0     H73391   1.610   4.946   0.335  2.7808 -2.1735 -0.9150
  556MOL0     H73392   1.358   4.998   0.359  0.9194  0.4890  1.8200
  557MOL0     O73393   2.631   8.842   6.492  0.0113  0.5481 -0.3048
  557MOL0     C73394   2.698   8.752   6.443  0.7284  0.4912 -0.3793
  557MOL0     O73395   2.637   8.637   6.401  0.0698  0.0232 -0.0350
  557MOL0     C73396   2.496   8.622   6.406  1.0571 -0.2250 -1.4097
  557MOL0     C73397   2.443   8.524   6.496  0.0150  0.2268 -0.9209
  557MOL0     C73398   2.305   8.483   6.497 -0.0980  1.1717  0.9027
  557MOL0     C73399   2.213   8.553   6.418  0.4246 -0.0618  0.4200
  557MOL0     O73400   2.079   8.524   6.431  0.3964  0.1113 -0.0032
  557MOL0     C73401   1.990   8.595   6.354  0.5540  0.6124  0.1161
  557MOL0     C73402   1.854   8.526   6.334  0.0785 -0.0017 -0.0903
  557MOL0     C73403   1.864   8.371   6.311 -0.7208 -0.6886  0.2274
  557MOL0     C73404   1.969   8.322   6.215 -0.6112  0.0709 -0.4855
  557MOL0     C73405   1.926   8.204   6.128  1.2689  0.2207  0.8116
  557MOL0     C73406   1.834   8.260   6.006 -0.6874  0.4089 -0.5064
  557MOL0     C73407   1.743   8.154   5.947  0.5130 -1.4944  0.1862
  557MOL0     C73408   1.613   8.140   6.023  0.7831 -0.3769  0.7215
  557MOL0     N73409   1.519   8.251   5.975  0.7975 -0.5454  0.2155
  557MOL0     C73410   1.410   8.219   5.894  0.6276  0.6909  0.9274
  557MOL0     C73411   1.349   8.339   5.877  0.4120  0.0597  0.5262
  557MOL0     C73412   1.235   8.358   5.789 -0.1450 -0.2893 -0.0645
  557MOL0     C73413   1.106   8.346   5.863  0.7114  0.4382 -0.0525
  557MOL0     C73414   0.983   8.380   5.774  0.0984  0.6612  0.2411
  557MOL0     C73415   0.861   8.397   5.862 -0.3115  0.1178 -0.2043
  557MOL0     O73416   0.748   8.444   5.785 -0.5728  0.4414  0.2439
  557MOL0     C73417   0.640   8.487   5.852  0.7157  0.3281 -0.4416
  557MOL0     C73418   0.549   8.546   5.765 -0.1723 -0.0470 -0.4497
  557MOL0     C73419   0.431   8.598   5.816  0.9429 -0.2862  0.0330
  557MOL0     C73420   0.388   8.562   5.946 -0.6158 -0.7331 -0.9780
  557MOL0     C73421   0.256   8.617   5.991 -0.1872  0.0948 -0.0907
  557MOL0     O73422   0.197   8.587   6.116 -0.3225  0.2395  0.0557
  557MOL0     C73423   0.075   8.653   6.134 -0.3654 -0.7104  0.0307
  557MOL0     C73424   0.066   8.782   6.197  0.0781 -0.2060 -0.2220
  557MOL0     C73425  -0.060   8.828   6.238 -0.7974 -0.1510 -0.2883
  557MOL0     C73426  -0.177   8.754   6.221  0.0356  0.3425  0.8136
  557MOL0     O73427  -0.301   8.799   6.269  0.8635 -0.4922  0.2015
  557MOL0     C73428  -0.416   8.783   6.179 -0.3999 -1.0838  0.4752
  557MOL0     C73429  -0.532   8.884   6.224 -0.1367 -0.0805 -0.3091
  557MOL0     C73430  -0.667   8.855   6.171 -0.3571 -0.4935  0.0666
  557MOL0     C73431  -0.775   8.961   6.217  0.1264  0.2499  0.1346
  557MOL0     C73432  -0.924   8.927   6.171 -0.9110 -0.6288  0.7292
  557MOL0     C73433  -0.995   9.073   6.171 -0.1692 -0.1636 -0.1549
  557MOL0     C73434  -1.149   9.059   6.139 -0.9036  0.4348  0.0777
  557MOL0     C73435  -1.221   9.187   6.198 -0.1538 -0.0038  1.0873
  557MOL0    Cl73436  -1.396   9.191   6.148 -0.8201  0.1245 -0.4235
  557MOL0     C73437  -0.169   8.636   6.150  0.2406 -1.3329 -0.3233
  557MOL0     C73438  -0.044   8.582   6.112  0.7364 -0.0544 -0.5378
  557MOL0     O73439   0.215   8.705   5.914 -0.6489  0.0851  0.0794
  557MOL0     C73440   0.476   8.493   6.028  0.1576 -0.4670  0.6004
  557MOL0     C73441   0.602   8.452   5.978 -0.3103 -0.9093  0.2160
  557MOL0     N73442   1.399   8.433   5.957 -0.5964  0.8732 -0.3599
  557MOL0     N73443   1.494   8.373   6.026  0.3586 -0.4070  0.5723
  557MOL0     C73444   2.263   8.667   6.337  0.2804  0.1778  0.6217
  557MOL0     C73445   2.401   8.702   6.334  0.3902  0.8706 -0.4173
  557MOL0     C73446   2.842   8.761   6.445 -0.4875 -0.5907  0.2231
  557MOL0     C73447   2.907   8.872   6.498  0.4654 -0.4921 -0.1238
  557MOL0     C73448   3.047   8.879   6.506 -1.4668  0.5834 -0.7431
  557MOL0     C73449   3.128   8.773   6.465  0.6340 -0.0954 -0.3911
  557MOL0     O73450   3.261   8.792   6.498  0.4707 -0.3131  0.1480
  557MOL0     C73451   3.355   8.703   6.451 -0.1787  0.3241 -0.3963
  557MOL0     C73452   3.483   8.782   6.416 -0.4224 -0.4023  0.5932
  557MOL0     C73453   3.532   8.883   6.521  0.2220 -0.4282 -0.3304
  557MOL0     C73454   3.671   8.935   6.490 -0.4983 -0.4414 -0.5982
  557MOL0     C73455   3.685   9.017   6.369 -0.0301 -0.2479 -0.1075
  557MOL0     C73456   3.689   9.080   6.265 -0.7552 -0.8816 -0.2961
  557MOL0     C73457   3.076   8.652   6.413  1.0243  0.3632  0.1222
  557MOL0     C73458   2.933   8.652   6.405  0.6498  0.9328 -0.4857
  557MOL0     H73459   2.514   8.483   6.567 -0.3133 -0.7260 -1.1272
  557MOL0     H73460   2.262   8.413   6.568  1.1875  0.1514  0.7175
  557MOL0     H73461   2.028   8.593   6.252 -2.1815 -1.2439 -0.9796
  557MOL0     H73462   1.971   8.701   6.373  0.1085  0.7652 -1.1356
  557MOL0     H73463   1.817   8.570   6.240  1.8270 -2.1116 -1.8815
  557MOL0     H73464   1.787   8.563   6.412 -1.7193 -3.2497  0.0439
  557MOL0     H73465   1.767   8.341   6.269 -0.9087 -1.9064  1.4633
  557MOL0     H73466   1.878   8.325   6.409  0.2611 -0.7876  0.0518
  557MOL0     H73467   1.997   8.400   6.143 -2.3416  1.0602 -0.1314
  557MOL0     H73468   2.050   8.288   6.280 -1.6194  0.5133  1.0524
  557MOL0     H73469   1.860   8.136   6.183  1.1886 -0.9058 -0.6135
  557MOL0     H73470   2.009   8.154   6.078  1.6595  2.3164 -0.8304
  557MOL0     H73471   1.904   8.290   5.928  2.3861 -1.6558  1.2530
  557MOL0     H73472   1.788   8.356   6.034  0.8793  0.0221  4.3630
  557MOL0     H73473   1.716   8.202   5.853 -0.1163  4.5908  3.0378
  557MOL0     H73474   1.797   8.059   5.937  1.6761 -0.7478 -0.9626
  557MOL0     H73475   1.629   8.139   6.131 -1.9212 -1.0946  1.2121
  557MOL0     H73476   1.565   8.052   5.980 -3.7947  1.8058  0.7019
  557MOL0     H73477   1.375   8.127   5.848  0.6685 -0.5790  3.3076
  557MOL0     H73478   1.238   8.279   5.714  0.7496 -2.0441  1.7494
  557MOL0     H73479   1.249   8.449   5.730  2.5861 -0.9638 -0.5626
  557MOL0     H73480   1.104   8.401   5.957 -2.2706 -0.7173  0.6801
  557MOL0     H73481   1.094   8.242   5.896 -0.0400  1.1092  1.8592
  557MOL0     H73482   0.991   8.473   5.718 -2.3041 -0.1265 -1.5675
  557MOL0     H73483   0.974   8.296   5.705  0.9155 -2.5027  3.6119
  557MOL0     H73484   0.887   8.476   5.934 -0.7749  0.7721 -0.7521
  557MOL0     H73485   0.834   8.310   5.922 -1.3190  0.1371 -0.6244
  557MOL0     H73486   0.555   8.566   5.659 -2.1140 -1.1200 -0.8160
  557MOL0     H73487   0.364   8.642   5.744  0.5301  0.0798  0.6296
  557MOL0     H73488   0.156   8.839   6.218 -0.0020 -0.4082  0.6992
  557MOL0     H73489  -0.057   8.923   6.290 -1.1948 -0.4194  0.2354
  557MOL0     H73490  -0.460   8.682   6.179  1.0387 -1.7410 -0.1004
  557MOL0     H73491  -0.391   8.794   6.073 -1.1355 -2.8317  0.0709
  557MOL0     H73492  -0.512   8.990   6.206 -1.7779  0.7030  1.9704
  557MOL0     H73493  -0.539   8.875   6.333 -0.5056  0.6166 -0.2674
  557MOL0     H73494  -0.706   8.757   6.201 -3.6847 -0.3579 -3.1872
  557MOL0     H73495  -0.677   8.851   6.063 -1.7596 -1.2816  0.1989
  557MOL0     H73496  -0.771   8.968   6.326 -0.7147  0.4446  0.1558
  557MOL0     H73497  -0.753   9.063   6.183 -3.1580  1.0609  0.0962
  557MOL0     H73498  -0.977   8.859   6.238 -0.2176 -0.6749  1.2304
  557MOL0     H73499  -0.937   8.882   6.072  0.8460 -1.3926  0.8047
  557MOL0     H73500  -0.954   9.126   6.085 -4.9326  2.5941 -1.1111
  557MOL0     H73501  -0.975   9.113   6.272 -1.1777 -0.0052 -0.0049
  557MOL0     H73502  -1.155   9.068   6.030  1.4206  1.9298  0.0101
  557MOL0     H73503  -1.187   8.962   6.172  1.7748 -0.4357  0.8727
  557MOL0     H73504  -1.167   9.275   6.161  0.5098 -0.6917  0.3958
  557MOL0     H73505  -1.224   9.188   6.307 -1.0259 -1.9007  1.1115
  557MOL0     H73506  -0.260   8.578   6.139  0.0784 -0.9412 -1.0953
  557MOL0     H73507  -0.038   8.483   6.068  0.8459 -0.8541  1.1899
  557MOL0     H73508   0.446   8.450   6.123  0.3391 -2.0271 -0.0209
  557MOL0     H73509   0.656   8.385   6.045 -0.4800 -0.9912  0.2722
  557MOL0     H73510   2.197   8.726   6.274  2.3784  3.0464  0.9278
  557MOL0     H73511   2.432   8.787   6.274  1.8014  1.5384  1.1407
  557MOL0     H73512   2.850   8.960   6.523  1.3936 -0.7440  3.3858
  557MOL0     H73513   3.089   8.976   6.532 -0.8709 -0.0261  0.6424
  557MOL0     H73514   3.317   8.653   6.362 -0.1232  0.5946 -0.5738
  557MOL0     H73515   3.376   8.624   6.524  2.9959  1.1592 -0.2419
  557MOL0     H73516   3.563   8.709   6.400  0.5743  0.6188  0.8561
  557MOL0     H73517   3.466   8.827   6.318  0.1354 -3.0996 -0.8366
  557MOL0     H73518   3.529   8.834   6.619 -0.1148 -1.9995 -1.0841
  557MOL0     H73519   3.458   8.963   6.524 -1.6660 -2.1232  2.2613
  557MOL0     H73520   3.705   9.002   6.570 -0.7946 -0.4455 -0.4680
  557MOL0     H73521   3.740   8.851   6.479  0.3993  0.2358 -0.3104
  557MOL0     H73522   3.688   9.138   6.176 -3.5388 -0.1596  0.1151
  557MOL0     H73523   3.122   8.555   6.399 -0.2236 -0.4184  1.2642
  557MOL0     H73524   2.890   8.554   6.388 -2.6404  1.7734  1.9062
  558MOL0     O73525   0.257   9.343   2.504 -0.0419  0.4543 -1.0121
  558MOL0     C73526   0.227   9.428   2.590 -0.1062  0.3901  0.5954
  558MOL0     O73527   0.104   9.435   2.653  0.1010 -1.5115 -0.2976
  558MOL0     C73528   0.006   9.345   2.628 -0.5028 -0.2879 -0.8301
  558MOL0     C73529  -0.121   9.398   2.623 -0.2311 -0.7041  0.1187
  558MOL0     C73530  -0.228   9.317   2.592  1.0260  1.3183 -0.1368
  558MOL0     C73531  -0.211   9.174   2.568  1.0314  0.0710 -0.2780
  558MOL0     O73532  -0.303   9.071   2.541 -0.1304 -0.2563  0.4961
  558MOL0     C73533  -0.431   9.122   2.502 -0.2246  0.2836  0.1910
  558MOL0     C73534  -0.511   9.006   2.459  0.6642 -0.2030  0.6852
  558MOL0     C73535  -0.654   9.033   2.424  0.0224 -0.4664  0.0477
  558MOL0     C73536  -0.716   8.909   2.368 -0.5840 -0.6413  0.1439
  558MOL0     C73537  -0.862   8.950   2.329 -0.2681  0.0061  0.1085
  558MOL0     C73538  -0.920   8.835   2.262  0.2246  0.8058 -1.3787
  558MOL0     C73539  -1.065   8.837   2.211 -0.9491 -0.2814  0.1168
  558MOL0     C73540  -1.161   8.898   2.305  0.2666 -0.1817 -0.6022
  558MOL0     N73541  -1.296   8.855   2.294  0.1990 -1.0870  0.4180
  558MOL0     C73542  -1.349   8.813   2.174 -0.1135 -0.6990  0.0243
  558MOL0     C73543  -1.482   8.799   2.199 -0.1057 -0.1570  0.4072
  558MOL0     C73544  -1.591   8.756   2.105  0.0662  0.3730 -0.5111
  558MOL0     C73545  -1.706   8.862   2.102 -0.4657  0.3395  0.2657
  558MOL0     C73546  -1.815   8.826   1.998 -1.1353  0.4687  0.3647
  558MOL0     C73547  -1.936   8.913   1.987 -0.1289 -0.9387  0.7136
  558MOL0     O73548  -1.903   9.049   1.945 -0.2907  0.8659 -0.3690
  558MOL0     C73549  -1.958   9.082   1.820 -0.3029 -0.1748  0.4949
  558MOL0     C73550  -2.033   9.192   1.824  0.2992 -0.2935  0.2707
  558MOL0     C73551  -2.080   9.242   1.702  0.2612  0.2932  0.4398
  558MOL0     C73552  -2.041   9.195   1.573 -1.0019  0.0372 -0.0049
  558MOL0     C73553  -2.095   9.263   1.452  0.1961  0.7128  0.1779
  558MOL0     O73554  -2.196   9.354   1.459 -1.2103  0.2438  0.1075
  558MOL0     C73555  -2.262   9.380   1.343 -0.1046 -0.3855 -0.4607
  558MOL0     C73556  -2.363   9.307   1.315 -0.2801 -0.2462  0.2158
  558MOL0     C73557  -2.448   9.338   1.210 -1.0356 -0.3360 -0.2994
  558MOL0     C73558  -2.420   9.447   1.131 -1.0920  0.4554  0.3678
  558MOL0     O73559  -2.496   9.479   1.019  0.1755 -0.2515  0.5280
  558MOL0     C73560  -2.638   9.447   1.014 -0.5662 -0.1580  0.4859
  558MOL0     C73561  -2.709   9.498   0.893 -0.3711  0.7980  0.8178
  558MOL0     C73562  -2.679   9.647   0.869  0.3685 -0.2325  0.1710
  558MOL0     C73563  -2.760   9.704   0.751  0.5359 -0.1245 -0.3000
  558MOL0     C73564  -2.726   9.854   0.727 -0.1051  0.9873  0.2277
  558MOL0     C73565  -2.614   9.889   0.636 -1.3498  0.0019 -0.1058
  558MOL0     C73566  -2.470   9.864   0.688  0.9115 -0.2648  0.2439
  558MOL0     C73567  -2.365   9.923   0.596  0.4260  0.1295 -0.6786
  558MOL0    Cl73568  -2.384  10.104   0.576 -0.1750  0.2613 -0.0955
  558MOL0     C73569  -2.308   9.527   1.161 -0.9380 -0.5517 -0.6573
  558MOL0     C73570  -2.230   9.493   1.265 -0.0310 -0.3245  0.1392
  558MOL0     O73571  -2.053   9.209   1.352 -0.0271 -0.6213 -0.9252
  558MOL0     C73572  -1.951   9.087   1.574 -0.7813  1.3262  1.4552
  558MOL0     C73573  -1.911   9.026   1.695  0.4884 -0.3416 -0.3724
  558MOL0     N73574  -1.498   8.830   2.338 -0.1623 -0.3673  0.7283
  558MOL0     N73575  -1.390   8.857   2.393 -0.5923 -0.0850 -0.1042
  558MOL0     C73576  -0.079   9.124   2.574  0.0673 -0.2139  0.3299
  558MOL0     C73577   0.035   9.206   2.616  0.0918 -0.0585  0.3924
  558MOL0     C73578   0.317   9.545   2.612  1.0092  0.2618  0.2124
  558MOL0     C73579   0.423   9.578   2.528  0.5710  0.9451  0.9811
  558MOL0     C73580   0.503   9.687   2.552  0.8839  0.0129 -0.4354
  558MOL0     C73581   0.467   9.781   2.649 -0.2978  0.1124 -0.4774
  558MOL0     O73582   0.543   9.892   2.658 -0.5558 -0.1453  0.1165
  558MOL0     C73583   0.510  10.002   2.741 -0.2479  1.0998 -0.2354
  558MOL0     C73584   0.619  10.108   2.728 -0.4980 -0.3413  0.2142
  558MOL0     C73585   0.638  10.171   2.590  0.1668  0.0711  0.3305
  558MOL0     C73586   0.515  10.204   2.509  1.2776 -0.1564 -0.2893
  558MOL0     C73587   0.529  10.304   2.408 -0.5712  0.1030  0.2284
  558MOL0     C73588   0.561  10.375   2.318  0.2543 -0.8207  0.9280
  558MOL0     C73589   0.357   9.748   2.727  0.3111 -0.8888  0.8610
  558MOL0     C73590   0.286   9.634   2.713 -1.3469 -0.3743 -0.1321
  558MOL0     H73591  -0.123   9.505   2.640  0.9376 -0.3121 -1.9026
  558MOL0     H73592  -0.324   9.368   2.587 -0.2760 -0.5795  2.8328
  558MOL0     H73593  -0.430   9.191   2.417 -0.2332 -1.8240 -1.6059
  558MOL0     H73594  -0.482   9.177   2.582  0.5181  0.6649  0.4085
  558MOL0     H73595  -0.524   8.938   2.545 -2.6082 -0.9699 -0.2814
  558MOL0     H73596  -0.454   8.973   2.372  1.0623 -0.3295  0.9889
  558MOL0     H73597  -0.651   9.126   2.365 -0.4082 -1.1983 -1.1533
  558MOL0     H73598  -0.697   9.064   2.520  2.0031  1.2294  0.4674
  558MOL0     H73599  -0.665   8.864   2.283 -3.2177  1.2843 -2.6366
  558MOL0     H73600  -0.710   8.844   2.456 -1.9286 -0.1413  0.6265
  558MOL0     H73601  -0.857   9.022   2.247 -1.5991  1.0353  0.8966
  558MOL0     H73602  -0.928   8.985   2.408  0.3606 -0.7450  0.9916
  558MOL0     H73603  -0.915   8.757   2.340 -1.0107  0.4815 -1.6049
  558MOL0     H73604  -0.862   8.794   2.179  0.7082 -0.2030 -0.5802
  558MOL0     H73605  -1.060   8.898   2.121  1.9802 -1.4618 -0.6361
  558MOL0     H73606  -1.088   8.731   2.197 -1.3614 -0.3846  1.4066
  558MOL0     H73607  -1.147   9.006   2.299  3.4848 -0.5419 -1.3198
  558MOL0     H73608  -1.137   8.878   2.410  0.9900  5.0505  0.5203
  558MOL0     H73609  -1.293   8.802   2.081  1.4464  3.2629  0.2680
  558MOL0     H73610  -1.612   8.652   2.134  0.3789  0.7631  1.1802
  558MOL0     H73611  -1.547   8.751   2.005  2.9595 -1.3632  0.7350
  558MOL0     H73612  -1.668   8.957   2.065  1.9835 -1.4201 -2.0930
  558MOL0     H73613  -1.747   8.888   2.200  0.1401 -1.6570  1.1169
  558MOL0     H73614  -1.769   8.809   1.901 -0.5099 -0.9871  0.8933
  558MOL0     H73615  -1.836   8.725   2.033 -0.5618 -0.3383 -1.5167
  558MOL0     H73616  -1.984   8.908   2.085  1.1031  1.4482  1.5166
  558MOL0     H73617  -2.007   8.862   1.920 -3.7016  1.1805  2.5844
  558MOL0     H73618  -2.050   9.231   1.923  3.4580 -0.0393  0.8060
  558MOL0     H73619  -2.142   9.330   1.689 -0.1151 -0.2342 -1.7617
  558MOL0     H73620  -2.394   9.232   1.387  0.4300 -0.8311 -0.0721
  558MOL0     H73621  -2.537   9.278   1.192 -0.5390 -1.6688  1.4655
  558MOL0     H73622  -2.680   9.487   1.107  0.2715 -0.0114  0.8113
  558MOL0     H73623  -2.647   9.339   1.028  1.0123 -0.3297  0.3548
  558MOL0     H73624  -2.816   9.488   0.913 -0.2626 -0.0028  1.0358
  558MOL0     H73625  -2.674   9.441   0.807 -0.6096  1.3768  0.3271
  558MOL0     H73626  -2.570   9.658   0.861  0.0916  2.1975 -1.1790
  558MOL0     H73627  -2.703   9.710   0.956  2.5485  2.3714 -0.9670
  558MOL0     H73628  -2.742   9.645   0.661  0.4267  0.5716 -0.7881
  558MOL0     H73629  -2.868   9.696   0.761  0.2936  1.0394 -1.6834
  558MOL0     H73630  -2.708   9.918   0.814 -0.5500 -1.1455  1.9754
  558MOL0     H73631  -2.813   9.891   0.672  0.4345  1.4998 -0.2902
  558MOL0     H73632  -2.623   9.996   0.612 -0.6586  0.1565  0.3222
  558MOL0     H73633  -2.629   9.831   0.545  2.3763  0.1986 -0.9763
  558MOL0     H73634  -2.448   9.924   0.777 -0.9490  1.2951 -0.2873
  558MOL0     H73635  -2.455   9.756   0.695 -0.4397 -0.4370  0.7007
  558MOL0     H73636  -2.361   9.869   0.501  1.4493 -1.2975  0.1453
  558MOL0     H73637  -2.267   9.915   0.642  0.5393 -0.4795 -1.0148
  558MOL0     H73638  -2.299   9.614   1.096 -1.7035 -1.4433 -2.0069
  558MOL0     H73639  -2.152   9.556   1.309 -1.4727 -0.4927  3.1783
  558MOL0     H73640  -1.918   9.037   1.484 -0.9864  1.7447  1.1423
  558MOL0     H73641  -1.847   8.938   1.689  2.2512  0.9091 -0.4951
  558MOL0     H73642  -0.057   9.018   2.563  2.3135  0.1448  0.9148
  558MOL0     H73643   0.133   9.164   2.636  0.0417  0.3718  1.6155
  558MOL0     H73644   0.437   9.515   2.441  3.5263  1.8441  0.6821
  558MOL0     H73645   0.580   9.707   2.479 -0.1883  0.0841 -1.5816
  558MOL0     H73646   0.498   9.951   2.837 -1.7476  0.2570 -0.8373
  558MOL0     H73647   0.413  10.040   2.707  0.8041  2.9274 -1.3605
  558MOL0     H73648   0.582  10.188   2.793  0.3460  0.0648  0.2101
  558MOL0     H73649   0.717  10.074   2.764 -0.6502 -0.4411  0.5410
  558MOL0     H73650   0.711  10.104   2.544  1.0788 -0.3607  2.2949
  558MOL0     H73651   0.693  10.265   2.601 -1.9779  1.6720 -1.6984
  558MOL0     H73652   0.469  10.117   2.461 -0.6143  0.3193  0.5606
  558MOL0     H73653   0.443  10.246   2.580  1.6713 -1.1762  0.7379
  558MOL0     H73654   0.589  10.441   2.239 -0.9018 -0.7706  0.5504
  558MOL0     H73655   0.318   9.829   2.789 -1.0609 -0.2357 -0.7791
  558MOL0     H73656   0.211   9.614   2.789  1.1060 -1.0909  2.2260
  559MOL0     O73657   4.084   3.175   0.255  0.3748  0.2291 -0.3576
  559MOL0     C73658   4.129   3.061   0.273 -0.7849  0.5458  0.4953
  559MOL0     O73659   4.099   2.960   0.186 -0.4236 -0.1037 -0.0376
  559MOL0     C73660   3.982   2.957   0.116 -0.3213  0.7031 -0.2661
  559MOL0     C73661   3.979   2.908  -0.014 -0.2137 -0.1868  0.0837
  559MOL0     C73662   3.858   2.918  -0.086  0.4183 -0.2961 -0.0467
  559MOL0     C73663   3.745   2.974  -0.028  0.5377 -0.0360  0.8950
  559MOL0     O73664   3.628   2.968  -0.103  0.5470  0.1418 -0.0547
  559MOL0     C73665   3.559   3.094  -0.117 -0.4381 -0.0350 -0.3365
  559MOL0     C73666   3.560   3.148  -0.257 -0.6136 -0.0180  1.4728
  559MOL0     C73667   3.474   3.274  -0.283  0.2002 -0.2712 -0.4390
  559MOL0     C73668   3.426   3.281  -0.428  0.0637 -0.6765  0.2202
  559MOL0     C73669   3.360   3.407  -0.463 -0.1306 -0.4271 -0.4505
  559MOL0     C73670   3.281   3.401  -0.594  0.2170  0.6435 -0.2675
  559MOL0     C73671   3.227   3.531  -0.652  0.5261 -0.8593  0.0282
  559MOL0     C73672   3.172   3.507  -0.794 -0.3549  0.5240  0.1720
  559MOL0     N73673   3.124   3.624  -0.869 -0.0365  0.2514  0.4108
  559MOL0     C73674   2.992   3.681  -0.872 -0.2347  0.3274  0.0483
  559MOL0     C73675   3.022   3.802  -0.921  0.8014 -0.2255  0.5182
  559MOL0     C73676   2.924   3.909  -0.930  0.0497 -0.5549  0.2050
  559MOL0     C73677   2.953   4.010  -0.816  0.5985  0.3102  0.5015
  559MOL0     C73678   2.834   4.088  -0.766 -0.6468  0.1513  0.1676
  559MOL0     C73679   2.736   4.145  -0.873 -0.7044  0.9541  0.2984
  559MOL0     O73680   2.638   4.227  -0.807  0.2401  0.0345  0.4145
  559MOL0     C73681   2.524   4.159  -0.774 -0.3385  0.3224  0.0525
  559MOL0     C73682   2.438   4.100  -0.867 -0.0134  0.4180 -0.2161
  559MOL0     C73683   2.317   4.041  -0.824 -0.2022  0.1340 -0.5020
  559MOL0     C73684   2.282   4.050  -0.679  0.1534  0.0918  0.3531
  559MOL0     C73685   2.151   3.998  -0.628 -0.3682  0.2465 -0.8376
  559MOL0     O73686   2.058   3.963  -0.713  0.3925 -0.0961 -0.3063
  559MOL0     C73687   1.931   3.968  -0.669  0.8436  1.3310 -0.0385
  559MOL0     C73688   1.845   4.061  -0.728 -0.6481  0.8667 -0.9178
  559MOL0     C73689   1.711   4.073  -0.689 -0.3151 -0.0521  0.2372
  559MOL0     C73690   1.659   3.994  -0.584 -0.5509 -0.0557  0.1250
  559MOL0     O73691   1.525   4.016  -0.571  0.2047  0.0671  0.5659
  559MOL0     C73692   1.461   3.965  -0.452  0.4846  0.4689 -0.6144
  559MOL0     C73693   1.330   4.033  -0.432  0.6049  0.2882  0.0588
  559MOL0     C73694   1.231   3.998  -0.552  0.5293 -0.0321 -0.1695
  559MOL0     C73695   1.092   4.036  -0.513  0.1386 -0.0458 -0.1241
  559MOL0     C73696   1.003   4.004  -0.634  0.1970  0.5546  0.8361
  559MOL0     C73697   1.040   4.085  -0.755  0.4433 -0.3062 -0.1192
  559MOL0     C73698   0.946   4.049  -0.882 -0.2241  0.7349 -0.2428
  559MOL0     C73699   0.811   4.102  -0.866 -1.1112 -0.3564 -0.1030
  559MOL0    Cl73700   0.742   4.099  -1.026  0.1350 -0.2796 -0.1449
  559MOL0     C73701   1.745   3.900  -0.520 -0.0848 -0.0186  0.2737
  559MOL0     C73702   1.881   3.886  -0.565  1.2745  0.7397  0.0629
  559MOL0     O73703   2.140   4.010  -0.504  0.1265 -0.4401  0.5235
  559MOL0     C73704   2.372   4.111  -0.593  0.0931  0.6274  1.0326
  559MOL0     C73705   2.489   4.164  -0.643  0.0075 -0.5075 -0.2666
  559MOL0     N73706   3.156   3.819  -0.941  0.4998  0.0823  0.5982
  559MOL0     N73707   3.218   3.711  -0.918 -0.2291 -0.2195 -0.0959
  559MOL0     C73708   3.744   3.024   0.103 -0.3653  0.2300  0.1137
  559MOL0     C73709   3.867   3.012   0.173  0.7541  1.2919 -0.0895
  559MOL0     C73710   4.241   3.032   0.367 -0.4276 -0.4847  0.7064
  559MOL0     C73711   4.266   3.122   0.472  0.3130  1.0979  0.3262
  559MOL0     C73712   4.383   3.108   0.544  0.6004  0.7602 -0.1374
  559MOL0     C73713   4.469   2.999   0.531  0.7792 -0.0790 -0.0781
  559MOL0     O73714   4.594   2.977   0.584  0.5249  0.3770 -0.4233
  559MOL0     C73715   4.673   3.096   0.597 -0.0915  0.9012  0.0610
  559MOL0     C73716   4.705   3.089   0.745 -0.3537 -0.3700  0.2394
  559MOL0     C73717   4.824   3.184   0.775  0.2252 -0.3782  0.1379
  559MOL0     C73718   4.941   3.125   0.849 -0.5465 -0.8951 -0.2105
  559MOL0     C73719   4.895   3.078   0.984 -0.5864  0.6960  0.4922
  559MOL0     C73720   4.869   3.046   1.100 -0.7293  0.0006 -0.0116
  559MOL0     C73721   4.431   2.905   0.439 -0.2661  0.7657 -1.0345
  559MOL0     C73722   4.322   2.921   0.357 -0.2871 -0.5370  0.0272
  559MOL0     H73723   4.073   2.870  -0.053  0.5756 -0.7499  2.3527
  559MOL0     H73724   3.852   2.899  -0.193 -1.0165  0.3501 -0.1017
  559MOL0     H73725   3.605   3.173  -0.058 -0.0959 -1.4797  1.4132
  559MOL0     H73726   3.461   3.090  -0.067 -0.9082 -0.6387 -1.2767
  559MOL0     H73727   3.530   3.069  -0.327  2.7700  0.0257 -0.2161
  559MOL0     H73728   3.661   3.172  -0.290 -1.3641 -2.7138 -4.0098
  559MOL0     H73729   3.541   3.358  -0.264  0.9267 -1.3517  2.2905
  559MOL0     H73730   3.378   3.268  -0.231  0.3502  0.4738 -0.0627
  559MOL0     H73731   3.517   3.265  -0.487  0.0112  0.8123 -0.3030
  559MOL0     H73732   3.355   3.201  -0.451 -1.4901  0.4619  0.9256
  559MOL0     H73733   3.432   3.489  -0.470  0.5156 -0.5356  3.1492
  559MOL0     H73734   3.288   3.433  -0.385 -0.2294 -0.7520 -0.4335
  559MOL0     H73735   3.215   3.317  -0.573  0.5378  0.7086  1.0889
  559MOL0     H73736   3.341   3.360  -0.676 -2.4074 -1.3526 -1.3585
  559MOL0     H73737   3.144   3.562  -0.587 -1.5012 -1.5053 -2.1218
  559MOL0     H73738   3.304   3.608  -0.660  0.3644 -0.9008 -3.0215
  559MOL0     H73739   3.091   3.433  -0.789 -1.5216  1.7427 -0.1560
  559MOL0     H73740   3.261   3.465  -0.843 -0.7665  1.7238 -1.7085
  559MOL0     H73741   2.901   3.636  -0.833  0.1362  2.3742  3.7209
  559MOL0     H73742   2.821   3.877  -0.916 -1.6578  4.6815  1.7970
  559MOL0     H73743   2.929   3.971  -1.021  0.5126 -0.2695  0.4236
  559MOL0     H73744   3.031   4.075  -0.857  1.9067 -0.8484  1.0945
  559MOL0     H73745   3.004   3.963  -0.731 -0.6083 -1.4183  0.3278
  559MOL0     H73746   2.765   4.016  -0.721 -0.4132 -2.0764 -2.7390
  559MOL0     H73747   2.859   4.161  -0.687  0.3134  1.3947 -1.2276
  559MOL0     H73748   2.699   4.060  -0.931 -0.0980  0.4877  0.5848
  559MOL0     H73749   2.800   4.209  -0.933  1.5149  0.0928  1.6355
  559MOL0     H73750   2.468   4.091  -0.971  1.8267 -0.5984  0.3552
  559MOL0     H73751   2.250   3.992  -0.893 -0.0500 -1.4017  0.3872
  559MOL0     H73752   1.890   4.134  -0.794  2.3463  0.2208  0.2542
  559MOL0     H73753   1.640   4.146  -0.728  1.7695  1.4263 -0.9989
  559MOL0     H73754   1.523   3.988  -0.366 -0.4333 -0.8766  0.4591
  559MOL0     H73755   1.455   3.856  -0.461  2.0614  0.3409 -0.3932
  559MOL0     H73756   1.337   4.141  -0.416 -1.3641  0.6208 -1.0315
  559MOL0     H73757   1.280   3.985  -0.347  2.0100  0.5332  1.0598
  559MOL0     H73758   1.235   3.890  -0.570  0.9846 -0.4047  1.9445
  559MOL0     H73759   1.264   4.047  -0.645  0.0213 -0.5666 -0.6428
  559MOL0     H73760   1.064   3.972  -0.428  0.3037 -0.4907 -0.4020
  559MOL0     H73761   1.087   4.140  -0.481  2.2580  0.2004 -0.4426
  559MOL0     H73762   0.898   4.014  -0.605 -0.2386  1.6650 -0.9128
  559MOL0     H73763   1.022   3.902  -0.669 -0.7750  1.3192 -2.2578
  559MOL0     H73764   1.139   4.069  -0.797  0.4243 -1.0541  0.1070
  559MOL0     H73765   1.034   4.190  -0.725  0.7512 -1.0338  2.8705
  559MOL0     H73766   0.994   4.085  -0.973  0.2457 -1.1028 -0.7590
  559MOL0     H73767   0.933   3.941  -0.893 -2.8241  0.8905  0.5568
  559MOL0     H73768   0.804   4.196  -0.810  0.1622 -0.9397  1.0976
  559MOL0     H73769   0.750   4.032  -0.809 -1.5558 -1.3532 -1.7374
  559MOL0     H73770   1.714   3.838  -0.437  0.1249 -1.3663 -0.6191
  559MOL0     H73771   1.935   3.803  -0.520 -1.8677 -2.0886 -0.8755
  559MOL0     H73772   2.368   4.114  -0.484 -2.7622  1.0644  0.9948
  559MOL0     H73773   2.559   4.208  -0.573  1.9549 -2.0747 -1.1342
  559MOL0     H73774   3.653   3.064   0.147 -0.3236 -1.7615  2.2027
  559MOL0     H73775   3.866   3.053   0.274  0.5747  2.0612 -0.3974
  559MOL0     H73776   4.206   3.211   0.491 -0.9584  0.0528  1.3652
  559MOL0     H73777   4.409   3.181   0.621  0.4306 -0.3474  1.0068
  559MOL0     H73778   4.623   3.187   0.564 -0.8533 -0.1674 -1.9012
  559MOL0     H73779   4.758   3.068   0.535 -1.2249 -1.2215 -0.6259
  559MOL0     H73780   4.616   3.130   0.795  0.7420  3.4893 -0.5961
  559MOL0     H73781   4.724   2.987   0.777  0.7997 -0.6915 -1.3453
  559MOL0     H73782   4.769   3.260   0.831  0.4186 -0.1555  0.0248
  559MOL0     H73783   4.857   3.238   0.686 -1.4732  1.8664  0.7750
  559MOL0     H73784   5.002   3.052   0.796 -1.7544 -2.0790 -0.0151
  559MOL0     H73785   5.004   3.210   0.879 -0.8481  0.2442 -2.5649
  559MOL0     H73786   4.847   3.028   1.203 -0.1246  0.1160  0.1407
  559MOL0     H73787   4.492   2.818   0.418 -2.3963 -0.6903 -1.4783
  559MOL0     H73788   4.309   2.852   0.274 -1.2812 -1.4746  0.9392
  560MOL0     O73789   2.625   8.214   6.248  0.1527 -0.2343 -0.5876
  560MOL0     C73790   2.707   8.256   6.172 -0.2713  0.3635  0.3999
  560MOL0     O73791   2.673   8.297   6.046 -0.5560 -0.0181  0.4319
  560MOL0     C73792   2.542   8.294   6.000 -0.0797 -0.1089 -0.2054
  560MOL0     C73793   2.522   8.290   5.861 -0.5344  0.4534 -0.1001
  560MOL0     C73794   2.394   8.329   5.807  0.0944  0.2551  0.2355
  560MOL0     C73795   2.290   8.344   5.898  0.2655  0.7094 -0.5961
  560MOL0     O73796   2.167   8.382   5.857  0.1143 -0.7241 -0.1871
  560MOL0     C73797   2.154   8.448   5.722  1.0055  0.1829  0.6769
  560MOL0     C73798   2.014   8.506   5.719 -0.5033  0.7454  0.2138
  560MOL0     C73799   1.935   8.437   5.604 -0.3742 -0.2182  0.2021
  560MOL0     C73800   1.788   8.479   5.606  0.4356  0.5466  0.2848
  560MOL0     C73801   1.722   8.464   5.472 -0.1219 -0.2952 -0.2476
  560MOL0     C73802   1.564   8.453   5.475  0.1346 -0.4214  0.2034
  560MOL0     C73803   1.501   8.411   5.338 -1.0016 -0.0207 -0.0992
  560MOL0     C73804   1.498   8.542   5.250 -0.1719  0.7180  0.4884
  560MOL0     N73805   1.434   8.503   5.124 -0.5795  0.4122  0.1287
  560MOL0     C73806   1.309   8.530   5.076 -0.4339 -0.7713  0.1164
  560MOL0     C73807   1.317   8.474   4.953  0.1716  1.1289  0.3754
  560MOL0     C73808   1.209   8.492   4.846  0.2875 -1.2860 -0.5209
  560MOL0     C73809   1.134   8.364   4.827  0.5186  0.9592 -0.1045
  560MOL0     C73810   1.048   8.368   4.694 -0.0040  0.2425 -0.8088
  560MOL0     C73811   0.982   8.219   4.673 -0.3532 -0.2582 -0.6682
  560MOL0     O73812   0.884   8.190   4.573  0.0438  0.5175 -0.5939
  560MOL0     C73813   0.821   8.067   4.570  0.2616 -0.1190  0.4441
  560MOL0     C73814   0.747   8.050   4.451 -0.1468  1.0008  0.0335
  560MOL0     C73815   0.694   7.921   4.423 -0.0028 -0.2333  0.1240
  560MOL0     C73816   0.706   7.811   4.516  1.0545  0.1262 -0.2137
  560MOL0     C73817   0.639   7.685   4.499  0.6078  0.0288  0.6323
  560MOL0     O73818   0.680   7.580   4.571 -0.0369 -0.0669  0.1288
  560MOL0     C73819   0.629   7.449   4.563 -0.3649 -0.4930 -0.9055
  560MOL0     C73820   0.725   7.338   4.567  0.5558 -0.4219  0.2047
  560MOL0     C73821   0.684   7.209   4.565  0.6576  0.4989 -0.4811
  560MOL0     C73822   0.546   7.184   4.582 -0.3034  0.5807  0.7388
  560MOL0     O73823   0.488   7.066   4.576 -0.4115  0.0053 -0.9029
  560MOL0     C73824   0.565   6.949   4.551  0.0917 -0.6650 -0.3752
  560MOL0     C73825   0.623   6.895   4.681 -0.0375  0.0103 -0.9595
  560MOL0     C73826   0.724   6.775   4.661 -0.5485 -1.0182  0.0328
  560MOL0     C73827   0.862   6.827   4.615 -0.1692  0.8405  0.4721
  560MOL0     C73828   0.966   6.706   4.613  0.3910  0.0364  0.2631
  560MOL0     C73829   1.098   6.743   4.543 -0.3277 -0.5786  0.1515
  560MOL0     C73830   1.213   6.657   4.599  0.7394  0.1718  0.3591
  560MOL0     C73831   1.344   6.692   4.553 -0.9180 -0.0052  0.5278
  560MOL0    Cl73832   1.477   6.580   4.624  0.1293 -0.2711  0.0842
  560MOL0     C73833   0.457   7.289   4.595  1.1128  0.3326  0.8450
  560MOL0     C73834   0.500   7.419   4.581  0.4858  0.4335  0.2272
  560MOL0     O73835   0.550   7.686   4.414 -0.6901  0.2791 -1.2936
  560MOL0     C73836   0.782   7.837   4.634 -0.3852  1.0341  0.0799
  560MOL0     C73837   0.843   7.959   4.661 -0.6378 -0.1061  0.4179
  560MOL0     N73838   1.439   8.411   4.935 -0.1263  0.3770 -0.1016
  560MOL0     N73839   1.515   8.432   5.036  0.3164  1.2732  0.1109
  560MOL0     C73840   2.307   8.335   6.034  0.0720  0.2931  0.4564
  560MOL0     C73841   2.433   8.312   6.086 -0.0036  0.1628  0.1318
  560MOL0     C73842   2.845   8.259   6.219  0.7307 -0.9068 -0.4365
  560MOL0     C73843   2.896   8.208   6.341 -0.7564  0.1025  0.6878
  560MOL0     C73844   3.026   8.227   6.392  0.4958  0.1793  0.0050
  560MOL0     C73845   3.115   8.289   6.301 -0.0708  0.7311  0.5734
  560MOL0     O73846   3.252   8.291   6.323  0.1703  0.2200  0.5397
  560MOL0     C73847   3.316   8.187   6.396  0.1953 -0.4120  0.1317
  560MOL0     C73848   3.463   8.164   6.365  0.9828  0.2534 -0.2249
  560MOL0     C73849   3.500   8.041   6.436 -1.4146  0.5785  0.0677
  560MOL0     C73850   3.644   7.993   6.427  0.7259  0.0937 -0.5468
  560MOL0     C73851   3.740   8.103   6.414 -0.3959 -0.4931  0.8645
  560MOL0     C73852   3.809   8.198   6.412  0.7247 -0.6461  0.3599
  560MOL0     C73853   3.078   8.337   6.183 -0.0797 -0.8364 -0.9810
  560MOL0     C73854   2.941   8.324   6.138 -0.0181 -0.8615  0.6054
  560MOL0     H73855   2.601   8.264   5.791 -0.7315  2.2470 -1.0575
  560MOL0     H73856   2.378   8.331   5.699 -0.9611 -1.7537  0.3007
  560MOL0     H73857   2.169   8.374   5.642  0.1562  0.7600 -0.0399
  560MOL0     H73858   2.224   8.531   5.704 -0.0982  1.7620  3.1674
  560MOL0     H73859   2.017   8.614   5.706 -0.3407  0.8728  1.2384
  560MOL0     H73860   1.965   8.499   5.817 -0.1743  1.3067  0.4188
  560MOL0     H73861   1.939   8.330   5.630  3.4235 -0.4580 -0.7644
  560MOL0     H73862   1.997   8.468   5.520  0.2052  0.7772  0.9802
  560MOL0     H73863   1.734   8.427   5.686 -0.0031  1.1107  0.3570
  560MOL0     H73864   1.771   8.582   5.636 -0.3506  0.5049  0.0257
  560MOL0     H73865   1.751   8.366   5.433 -6.3578 -1.8566 -2.1180
  560MOL0     H73866   1.746   8.541   5.399 -0.6529  3.3734  3.0945
  560MOL0     H73867   1.535   8.555   5.502 -0.0317  0.0097 -1.4749
  560MOL0     H73868   1.532   8.381   5.551 -0.6867 -1.1396 -0.7995
  560MOL0     H73869   1.563   8.336   5.289 -2.0412  0.9126 -3.0739
  560MOL0     H73870   1.403   8.366   5.357 -0.2723 -1.4326  0.4621
  560MOL0     H73871   1.595   8.591   5.242  0.5056 -0.4619  1.1910
  560MOL0     H73872   1.428   8.606   5.303  1.0347 -0.9063  4.4565
  560MOL0     H73873   1.232   8.578   5.136  1.1008  2.2393 -0.1669
  560MOL0     H73874   1.257   8.518   4.751  0.0600  1.6002  0.0677
  560MOL0     H73875   1.158   8.582   4.879  3.9665 -0.0234  2.4794
  560MOL0     H73876   1.063   8.355   4.910 -2.2948 -0.1280 -2.4388
  560MOL0     H73877   1.204   8.280   4.822 -2.5067 -1.8904  1.3843
  560MOL0     H73878   0.973   8.447   4.701  0.6081  0.9559 -2.0216
  560MOL0     H73879   1.110   8.383   4.605 -0.0134  0.4565 -0.7795
  560MOL0     H73880   0.943   8.186   4.770  0.1399 -1.1851 -0.7736
  560MOL0     H73881   1.067   8.151   4.665  1.7787  1.9834  1.0725
  560MOL0     H73882   0.746   8.129   4.376 -0.0438 -1.2290 -2.4967
  560MOL0     H73883   0.652   7.902   4.324  0.6533  1.7751 -0.5821
  560MOL0     H73884   0.830   7.359   4.549 -0.1145  3.6706  0.1322
  560MOL0     H73885   0.763   7.136   4.549 -1.5623 -2.3125  0.5492
  560MOL0     H73886   0.636   6.970   4.470 -0.2989  2.5622  0.0014
  560MOL0     H73887   0.502   6.867   4.516  2.4724 -3.5744  1.6283
  560MOL0     H73888   0.534   6.861   4.736  0.8178 -0.0164  0.4415
  560MOL0     H73889   0.669   6.978   4.735 -3.2389  0.8569  0.7786
  560MOL0     H73890   0.674   6.702   4.598 -2.3563  0.4596 -0.3391
  560MOL0     H73891   0.733   6.745   4.766 -1.2990  0.1576  0.4623
  560MOL0     H73892   0.847   6.891   4.528  0.3178  0.4626  0.1015
  560MOL0     H73893   0.896   6.904   4.684  1.1895  1.5279 -0.9042
  560MOL0     H73894   0.905   6.633   4.559 -5.0703  3.0013  1.6587
  560MOL0     H73895   0.986   6.671   4.715  0.2751 -0.1148  0.2362
  560MOL0     H73896   1.116   6.848   4.571  1.3203 -1.3718  2.3858
  560MOL0     H73897   1.083   6.731   4.435 -0.4404 -1.9613  0.3063
  560MOL0     H73898   1.208   6.655   4.708  0.7831 -1.8288  0.3606
  560MOL0     H73899   1.196   6.554   4.567  2.7487 -0.0877 -0.0290
  560MOL0     H73900   1.359   6.796   4.581 -1.1754 -0.1168  1.1048
  560MOL0     H73901   1.352   6.670   4.447  1.2464 -0.8505  0.8240
  560MOL0     H73902   0.352   7.269   4.613  1.6717 -1.6592  2.2573
  560MOL0     H73903   0.417   7.488   4.592 -1.0174 -0.7839 -2.4606
  560MOL0     H73904   0.795   7.760   4.710 -0.5138  2.1178  1.2297
  560MOL0     H73905   0.899   7.973   4.753  0.5449 -3.1923  0.3104
  560MOL0     H73906   2.226   8.333   6.106 -1.0101  0.0208 -0.7430
  560MOL0     H73907   2.436   8.330   6.193  2.3781 -1.8145  0.5037
  560MOL0     H73908   2.836   8.164   6.420  0.3152  0.7716  1.9246
  560MOL0     H73909   3.030   8.189   6.494 -0.8515 -0.4972 -0.1730
  560MOL0     H73910   3.257   8.097   6.374 -2.0702  1.6305 -2.9542
  560MOL0     H73911   3.294   8.225   6.496 -3.7344 -0.8671 -0.3982
  560MOL0     H73912   3.492   8.182   6.261  1.1268 -2.0168 -0.6248
  560MOL0     H73913   3.518   8.246   6.412 -0.4251  2.9846 -2.9377
  560MOL0     H73914   3.445   7.958   6.390  1.3938 -2.1154  1.1882
  560MOL0     H73915   3.472   8.041   6.542  0.1923 -0.6275  0.5271
  560MOL0     H73916   3.667   7.927   6.511 -1.9527  1.5780  1.5236
  560MOL0     H73917   3.649   7.944   6.330 -0.6817 -0.3567 -0.4164
  560MOL0     H73918   3.870   8.285   6.406  0.4444 -0.4575  0.2041
  560MOL0     H73919   3.147   8.387   6.116 -1.7869  2.4981 -0.4803
  560MOL0     H73920   2.928   8.372   6.041 -4.0459 -2.1779  0.3239
  561MOL0     O73921   6.220   5.822   8.578  0.4079 -0.1693  0.2446
  561MOL0     C73922   6.167   5.719   8.615  0.5206 -0.0759 -0.8872
  561MOL0     O73923   6.055   5.672   8.574  0.6527 -0.4160  0.0173
  561MOL0     C73924   5.979   5.737   8.477  0.7704  0.5278 -1.0482
  561MOL0     C73925   6.017   5.779   8.346  0.2435  0.5551 -0.5913
  561MOL0     C73926   5.929   5.841   8.256  0.4669  1.2427 -0.1201
  561MOL0     C73927   5.810   5.889   8.309  0.3277  0.5853  0.1215
  561MOL0     O73928   5.726   5.980   8.244  0.2388  0.7422 -0.8093
  561MOL0     C73929   5.711   5.977   8.109 -0.0522 -0.0101 -0.4084
  561MOL0     C73930   5.610   6.080   8.085 -0.6707 -1.0270  0.1697
  561MOL0     C73931   5.471   6.051   8.147 -0.7648 -0.2386  0.5688
  561MOL0     C73932   5.417   5.907   8.120  0.4781 -0.1882 -0.7718
  561MOL0     C73933   5.275   5.906   8.165  1.4455  0.3434 -0.6306
  561MOL0     C73934   5.251   5.945   8.319 -0.0100  0.7004 -0.5163
  561MOL0     C73935   5.294   5.850   8.427  0.8786  0.2015 -0.1603
  561MOL0     C73936   5.332   5.927   8.554 -0.2320 -1.1796  0.9286
  561MOL0     N73937   5.393   5.837   8.648 -0.0653  0.1790  0.5119
  561MOL0     C73938   5.521   5.839   8.701 -0.2672  0.6521 -0.0384
  561MOL0     C73939   5.530   5.733   8.788 -0.5243  0.2343  0.5539
  561MOL0     C73940   5.640   5.706   8.887  0.4319 -0.1942  0.6122
  561MOL0     C73941   5.593   5.749   9.035 -0.2438  0.0587  0.0325
  561MOL0     C73942   5.577   5.904   9.055  0.2491 -0.1576  0.0632
  561MOL0     C73943   5.524   5.942   9.184 -0.9056 -0.1037 -0.2176
  561MOL0     O73944   5.434   5.846   9.249  0.2670  0.1869  1.0338
  561MOL0     C73945   5.307   5.861   9.201  0.1369 -0.2193 -0.1301
  561MOL0     C73946   5.247   5.950   9.103 -0.0215 -0.5920 -0.8621
  561MOL0     C73947   5.112   5.955   9.082  0.4825  0.9040 -0.1628
  561MOL0     C73948   5.023   5.876   9.157  0.2320  0.2619 -0.4164
  561MOL0     C73949   4.876   5.887   9.136  0.1933 -0.2080  0.4513
  561MOL0     O73950   4.838   5.943   9.015 -0.3557 -0.4108  0.4745
  561MOL0     C73951   4.721   6.014   9.018  0.6714  0.0692 -0.2009
  561MOL0     C73952   4.732   6.157   9.039  0.1405 -0.0793  0.5347
  561MOL0     C73953   4.631   6.250   9.019  0.0661  0.3176  0.0514
  561MOL0     C73954   4.510   6.208   8.982  0.5838  1.1767  0.7842
  561MOL0     O73955   4.420   6.310   8.964  0.6610  0.1866  0.3910
  561MOL0     C73956   4.286   6.285   8.930 -0.6441 -0.5451 -0.4798
  561MOL0     C73957   4.177   6.376   8.985 -0.9152  0.0472 -0.7324
  561MOL0     C73958   4.190   6.509   8.900 -0.4672  0.7705  0.4040
  561MOL0     C73959   4.113   6.513   8.770  0.1103  0.0654  0.1724
  561MOL0     C73960   3.958   6.525   8.787 -0.0447  0.4007  0.1334
  561MOL0     C73961   3.876   6.442   8.690  0.3677 -0.8754  0.0757
  561MOL0     C73962   3.726   6.457   8.726 -0.8481 -0.2252  0.9992
  561MOL0     C73963   3.645   6.418   8.603 -0.0048 -0.0107  0.1303
  561MOL0    Cl73964   3.470   6.437   8.643 -0.5587 -0.2293 -0.2970
  561MOL0     C73965   4.489   6.066   8.957 -0.4260 -0.9231  0.1191
  561MOL0     C73966   4.587   5.973   8.984  0.3108 -0.3571  0.0778
  561MOL0     O73967   4.800   5.841   9.210  0.4833  0.5527 -0.2181
  561MOL0     C73968   5.075   5.796   9.254  0.0414 -0.0197  0.9897
  561MOL0     C73969   5.215   5.785   9.269  0.0813 -0.8940  0.1449
  561MOL0     N73970   5.401   5.677   8.795  0.0961 -0.3565  0.6954
  561MOL0     N73971   5.318   5.742   8.713 -0.2018  0.1079 -0.6292
  561MOL0     C73972   5.777   5.852   8.440  0.5620  0.7320  0.3414
  561MOL0     C73973   5.853   5.775   8.515  0.0070  0.1441  0.0758
  561MOL0     C73974   6.243   5.650   8.719  0.3735 -0.1200  0.5730
  561MOL0     C73975   6.368   5.703   8.769 -0.4613  0.8447 -0.1344
  561MOL0     C73976   6.448   5.625   8.846 -0.7761 -0.4914  0.2439
  561MOL0     C73977   6.402   5.503   8.897  0.9460  0.1250 -0.6044
  561MOL0     O73978   6.457   5.424   9.004  0.6369  1.2871 -0.0818
  561MOL0     C73979   6.592   5.459   9.043 -0.0170 -0.1405  0.6897
  561MOL0     C73980   6.637   5.376   9.158 -0.3167 -0.0052  0.8465
  561MOL0     C73981   6.650   5.232   9.135  0.4986 -0.4357 -0.5501
  561MOL0     C73982   6.790   5.181   9.088  1.3664  0.6214 -0.0087
  561MOL0     C73983   6.810   5.205   8.946 -0.1592 -0.1761 -1.5119
  561MOL0     C73984   6.814   5.213   8.830 -0.5157  0.0532  0.2218
  561MOL0     C73985   6.270   5.462   8.861  1.2333  0.4510  0.0878
  561MOL0     C73986   6.192   5.528   8.771  0.8290 -0.2988 -0.7254
  561MOL0     H73987   6.115   5.773   8.299 -0.0723 -0.7607 -1.0980
  561MOL0     H73988   5.962   5.864   8.156 -3.1531  1.8448 -1.3177
  561MOL0     H73989   5.678   5.879   8.073  1.7613 -0.5666 -0.7005
  561MOL0     H73990   5.803   6.001   8.055 -0.9587 -1.4855 -2.7520
  561MOL0     H73991   5.599   6.097   7.978  3.2571  1.1713 -0.0655
  561MOL0     H73992   5.645   6.171   8.133  1.1472 -2.5846  2.0053
  561MOL0     H73993   5.409   6.132   8.107  1.8965  3.1167  2.7225
  561MOL0     H73994   5.468   6.067   8.255 -2.9730  0.5759  0.4393
  561MOL0     H73995   5.422   5.887   8.013 -0.2621 -0.7857 -0.6998
  561MOL0     H73996   5.479   5.837   8.177  0.0454 -0.3802 -0.5327
  561MOL0     H73997   5.237   5.805   8.146 -0.3290  0.8204  0.2520
  561MOL0     H73998   5.211   5.969   8.103 -0.3690  2.1652  2.8296
  561MOL0     H73999   5.142   5.949   8.319 -0.1877 -1.7937  1.3804
  561MOL0     H74000   5.291   6.043   8.345  3.4503 -1.2765  2.6480
  561MOL0     H74001   5.225   5.766   8.439  3.0974 -1.4867  1.4652
  561MOL0     H74002   5.388   5.807   8.393  0.4777 -1.4950  0.7674
  561MOL0     H74003   5.247   5.979   8.598 -1.1875 -0.1010 -1.9598
  561MOL0     H74004   5.399   6.009   8.527  0.6021 -1.4272  2.1438
  561MOL0     H74005   5.585   5.922   8.673 -1.1902  1.4005  0.0265
  561MOL0     H74006   5.720   5.775   8.858  1.4128 -1.4611  0.2172
  561MOL0     H74007   5.668   5.601   8.882  1.1935  0.0170  0.2733
  561MOL0     H74008   5.678   5.717   9.097 -1.2526  2.8620  3.1255
  561MOL0     H74009   5.511   5.679   9.055 -0.7351  0.9321  1.2242
  561MOL0     H74010   5.676   5.951   9.050  0.2981 -0.1985  0.5710
  561MOL0     H74011   5.510   5.939   8.976  3.0347  1.3696 -1.7714
  561MOL0     H74012   5.489   6.046   9.178  2.0688  0.9983  0.0215
  561MOL0     H74013   5.607   5.940   9.254  0.1890 -0.1777 -1.4676
  561MOL0     H74014   5.308   6.020   9.047  1.2421  2.0734  3.3796
  561MOL0     H74015   5.082   6.014   8.996 -4.2261  0.9383  1.2030
  561MOL0     H74016   4.827   6.204   9.061 -0.1867  1.3169 -0.9320
  561MOL0     H74017   4.657   6.353   9.040  1.8945 -0.5135  2.3299
  561MOL0     H74018   4.263   6.185   8.966 -0.9292  0.5143  2.6302
  561MOL0     H74019   4.285   6.290   8.821 -2.5334  0.0061 -0.4735
  561MOL0     H74020   4.209   6.395   9.087  0.5398 -1.7908 -0.8041
  561MOL0     H74021   4.071   6.348   8.983 -1.2824  1.3373 -0.4074
  561MOL0     H74022   4.293   6.537   8.876 -0.5686  2.5157  1.8316
  561MOL0     H74023   4.165   6.586   8.973  1.8241  2.3692 -0.3685
  561MOL0     H74024   4.138   6.604   8.716  1.7097 -0.0528  0.6620
  561MOL0     H74025   4.148   6.438   8.697 -1.3615  0.9509 -1.5206
  561MOL0     H74026   3.943   6.633   8.778 -0.9427  0.2272 -0.5447
  561MOL0     H74027   3.935   6.498   8.890  0.0330 -0.1456  0.0075
  561MOL0     H74028   3.908   6.338   8.701  2.4972 -0.3359 -0.5210
  561MOL0     H74029   3.890   6.478   8.587  0.0020 -0.4385  0.1787
  561MOL0     H74030   3.692   6.390   8.806 -3.2276 -0.8891 -0.4738
  561MOL0     H74031   3.702   6.560   8.751 -1.0274 -0.7976  3.5134
  561MOL0     H74032   3.666   6.316   8.567 -1.8267 -1.0690  1.8361
  561MOL0     H74033   3.665   6.482   8.517 -0.9503 -0.8219 -0.7122
  561MOL0     H74034   4.392   6.027   8.926  0.0155 -1.9212 -0.0738
  561MOL0     H74035   4.569   5.869   8.957  2.4085 -0.8993  0.5762
  561MOL0     H74036   4.999   5.751   9.317 -2.0378  0.7364 -0.8913
  561MOL0     H74037   5.242   5.710   9.342  1.7366  0.9641  1.5480
  561MOL0     H74038   5.686   5.887   8.487  1.1488 -1.0401  3.0211
  561MOL0     H74039   5.811   5.753   8.613 -2.2136  0.0469 -0.8478
  561MOL0     H74040   6.408   5.798   8.734  0.0564  0.1895 -1.3556
  561MOL0     H74041   6.545   5.658   8.881 -1.0939 -1.3772  2.1174
  561MOL0     H74042   6.600   5.564   9.074 -3.4787 -0.2496  2.4213
  561MOL0     H74043   6.660   5.444   8.959 -0.2706  2.0980  0.0081
  561MOL0     H74044   6.737   5.416   9.181  0.5958 -2.2546  1.1546
  561MOL0     H74045   6.569   5.396   9.241 -2.4650 -1.5611 -0.4398
  561MOL0     H74046   6.570   5.188   9.074  1.4968 -0.4523 -1.9089
  561MOL0     H74047   6.635   5.181   9.230 -1.4393 -0.9786 -1.0973
  561MOL0     H74048   6.876   5.219   9.144  2.0210 -0.5314 -0.2032
  561MOL0     H74049   6.796   5.077   9.122  2.0006  1.5152  2.8873
  561MOL0     H74050   6.816   5.250   8.729 -0.7253  1.0651  0.5758
  561MOL0     H74051   6.218   5.378   8.906  1.9476 -0.1655 -0.2339
  561MOL0     H74052   6.091   5.492   8.756  0.5908  0.0418  0.0138
  562MOL0     O74053  11.003   2.879   7.854  0.7230  0.0257 -0.5529
  562MOL0     C74054  10.918   2.834   7.930 -0.1655 -0.6463 -0.1310
  562MOL0     O74055  10.779   2.831   7.902 -1.6073  0.3372 -0.0572
  562MOL0     C74056  10.745   2.865   7.773  1.1968  0.3423 -1.7044
  562MOL0     C74057  10.644   2.964   7.777  0.2919  0.1798  0.3870
  562MOL0     C74058  10.618   3.021   7.649 -0.6606  0.6422 -0.2616
  562MOL0     C74059  10.682   2.983   7.530 -0.6415  0.0236 -0.2403
  562MOL0     O74060  10.670   3.042   7.404 -0.0618  0.3604 -0.3992
  562MOL0     C74061  10.617   3.171   7.399 -0.0141  1.2012 -0.5662
  562MOL0     C74062  10.466   3.144   7.362 -0.5459  0.6934 -0.3549
  562MOL0     C74063  10.401   3.266   7.290 -0.3806 -0.5778 -0.0423
  562MOL0     C74064  10.365   3.374   7.394 -0.5841  0.9317 -1.0897
  562MOL0     C74065  10.308   3.508   7.334  0.1693  0.3334  0.0565
  562MOL0     C74066  10.414   3.577   7.244  0.1258 -0.4371  0.5066
  562MOL0     C74067  10.361   3.692   7.162  0.9196  0.4295  0.2148
  562MOL0     C74068  10.466   3.785   7.105 -0.5090 -1.2303  0.3148
  562MOL0     N74069  10.583   3.710   7.062 -0.0631  0.0049  0.4664
  562MOL0     C74070  10.592   3.633   6.958  0.0414  0.1201 -0.1391
  562MOL0     C74071  10.726   3.594   6.959  0.3707 -1.5087 -0.5048
  562MOL0     C74072  10.773   3.494   6.857  0.6315 -0.2901  0.4695
  562MOL0     C74073  10.854   3.385   6.934  0.8520 -0.5019  0.8373
  562MOL0     C74074  10.913   3.293   6.831  0.4950  0.3614 -0.0963
  562MOL0     C74075  11.018   3.202   6.883 -0.1007  0.1669 -0.7754
  562MOL0     O74076  11.133   3.282   6.888 -0.4050 -0.1365 -0.0194
  562MOL0     C74077  11.256   3.214   6.880  0.0562 -0.6675  0.4762
  562MOL0     C74078  11.284   3.119   6.981  0.5832 -0.5087  0.1255
  562MOL0     C74079  11.411   3.055   6.979 -0.2328  0.3052  0.6003
  562MOL0     C74080  11.512   3.082   6.886 -0.0342  0.1907  0.2556
  562MOL0     C74081  11.645   3.018   6.890 -0.8007  0.1381 -0.2866
  562MOL0     O74082  11.744   3.062   6.803 -0.1934  0.1904 -0.2103
  562MOL0     C74083  11.866   3.011   6.810 -0.3703  0.1722  0.2153
  562MOL0     C74084  11.889   2.882   6.764  0.4678 -0.4423  0.5412
  562MOL0     C74085  12.015   2.827   6.786 -0.0601  0.1029  0.4063
  562MOL0     C74086  12.125   2.910   6.828 -0.5160  0.0203 -0.6545
  562MOL0     O74087  12.239   2.836   6.849 -0.1839 -0.0200 -0.7593
  562MOL0     C74088  12.351   2.911   6.886 -0.3658 -1.0692  0.3545
  562MOL0     C74089  12.464   2.811   6.881 -0.6810 -0.0282  0.4703
  562MOL0     C74090  12.593   2.888   6.878 -0.6601 -0.4216  0.0188
  562MOL0     C74091  12.702   2.793   6.902  0.5177  1.5123  0.8057
  562MOL0     C74092  12.809   2.816   6.799  0.0353  0.1772  0.3314
  562MOL0     C74093  12.930   2.734   6.842 -0.0317 -0.2136  0.3698
  562MOL0     C74094  13.036   2.729   6.731 -0.5241 -0.3629  0.2462
  562MOL0     C74095  12.991   2.649   6.608  0.3752 -0.0641 -0.6646
  562MOL0    Cl74096  12.924   2.501   6.674 -0.2942 -0.3736 -0.3248
  562MOL0     C74097  12.092   3.041   6.866  0.4581  0.3904  0.1886
  562MOL0     C74098  11.968   3.089   6.855  0.7789  0.4047  0.6882
  562MOL0     O74099  11.665   2.943   6.987 -0.7819 -0.3188 -0.6930
  562MOL0     C74100  11.477   3.187   6.801 -0.0276  0.5727  0.5454
  562MOL0     C74101  11.354   3.250   6.793 -0.1937  0.4917 -0.4126
  562MOL0     N74102  10.785   3.643   7.072 -0.1578 -0.3045  0.0018
  562MOL0     N74103  10.696   3.705   7.139  1.0807  0.5518  0.3131
  562MOL0     C74104  10.773   2.879   7.540  0.0379  0.4149  1.5752
  562MOL0     C74105  10.796   2.813   7.658 -0.3222 -1.4847 -0.4171
  562MOL0     C74106  10.961   2.796   8.065  0.3672 -0.8994 -0.3637
  562MOL0     C74107  11.090   2.824   8.118  0.0294 -0.0004 -0.3633
  562MOL0     C74108  11.109   2.807   8.262  0.6841  0.2564  1.0513
  562MOL0     C74109  11.024   2.733   8.339 -0.1570  0.5316  1.2676
  562MOL0     O74110  11.056   2.681   8.468  0.1733 -0.0601 -0.0700
  562MOL0     C74111  11.194   2.684   8.527  0.1262 -0.3297  0.0816
  562MOL0     C74112  11.236   2.821   8.596 -0.9005 -0.6188  0.3985
  562MOL0     C74113  11.147   2.860   8.712 -0.7278  0.1916 -0.0463
  562MOL0     C74114  11.221   2.835   8.846 -0.6215 -0.4866  0.3051
  562MOL0     C74115  11.319   2.949   8.874 -0.2306  0.5834  0.0335
  562MOL0     C74116  11.401   3.032   8.908  0.9296 -0.0170  0.7356
  562MOL0     C74117  10.910   2.681   8.278  0.3113 -0.1704  0.6057
  562MOL0     C74118  10.871   2.717   8.144  0.1411 -0.8817 -0.2990
  562MOL0     H74119  10.607   3.002   7.872 -0.2735 -0.3155  0.3704
  562MOL0     H74120  10.545   3.101   7.649 -2.2938 -0.7738  0.5607
  562MOL0     H74121  10.659   3.213   7.307 -0.4812  0.1783 -1.2797
  562MOL0     H74122  10.629   3.235   7.487 -0.8934 -1.2033  1.4089
  562MOL0     H74123  10.412   3.125   7.456 -0.6320  1.6467 -0.2061
  562MOL0     H74124  10.461   3.055   7.299 -0.8897 -0.4336  1.1930
  562MOL0     H74125  10.313   3.226   7.237 -0.1899  1.1910 -1.8051
  562MOL0     H74126  10.473   3.301   7.216 -1.0597  2.1269  0.5001
  562MOL0     H74127  10.283   3.336   7.455 -0.3305 -0.6027 -1.6595
  562MOL0     H74128  10.453   3.396   7.455 -0.2684  0.2829 -1.3056
  562MOL0     H74129  10.274   3.578   7.412  1.3063  0.2318  0.6633
  562MOL0     H74130  10.232   3.466   7.267  1.4623 -1.5343 -0.3008
  562MOL0     H74131  10.448   3.503   7.171 -2.4067  0.4332 -1.7346
  562MOL0     H74132  10.503   3.617   7.293  0.2136 -1.0884  0.8945
  562MOL0     H74133  10.316   3.642   7.075  0.9828  0.1826  0.3250
  562MOL0     H74134  10.285   3.753   7.211 -3.2796 -0.4713 -4.3421
  562MOL0     H74135  10.472   3.864   7.180 -1.4188 -1.4974  0.6823
  562MOL0     H74136  10.418   3.828   7.016 -1.1914 -0.3752  1.0761
  562MOL0     H74137  10.513   3.627   6.884 -0.9652  0.7440  0.8335
  562MOL0     H74138  10.843   3.537   6.785  2.2018 -0.2115  1.9689
  562MOL0     H74139  10.680   3.455   6.813 -0.6708  0.5406  2.3671
  562MOL0     H74140  10.789   3.334   7.007 -3.5916  1.0048 -1.7012
  562MOL0     H74141  10.931   3.442   6.986  1.0321  0.4480 -0.4283
  562MOL0     H74142  10.843   3.216   6.799  0.8209 -1.7319  3.6449
  562MOL0     H74143  10.949   3.354   6.748 -2.7719  3.2615  0.3999
  562MOL0     H74144  11.026   3.121   6.810 -3.1359 -1.1702  0.2327
  562MOL0     H74145  10.994   3.161   6.982  1.9368 -2.7958 -1.3713
  562MOL0     H74146  11.210   3.105   7.058  1.7177  0.3070  1.4175
  562MOL0     H74147  11.437   2.986   7.058 -0.1275 -1.9315 -1.2573
  562MOL0     H74148  11.801   2.826   6.735  0.0628 -0.3442  1.5315
  562MOL0     H74149  12.036   2.725   6.754  1.1529  1.5338 -3.9814
  562MOL0     H74150  12.324   2.956   6.982 -1.4928  1.5848 -1.0628
  562MOL0     H74151  12.370   2.991   6.813 -0.1477 -1.8295 -0.4424
  562MOL0     H74152  12.450   2.751   6.790  1.1225 -0.0953  0.2037
  562MOL0     H74153  12.454   2.738   6.963 -0.9679  1.2028  1.5588
  562MOL0     H74154  12.598   2.965   6.955  1.2944 -1.7851  1.3482
  562MOL0     H74155  12.613   2.949   6.789 -0.6750  2.0852  1.6534
  562MOL0     H74156  12.734   2.811   7.005  1.5067  1.9116  0.4419
  562MOL0     H74157  12.674   2.688   6.896 -0.4047  1.7809  0.1615
  562MOL0     H74158  12.835   2.921   6.786 -0.4990  0.1911 -0.6974
  562MOL0     H74159  12.768   2.783   6.703 -1.3220  1.1842  0.5337
  562MOL0     H74160  12.901   2.638   6.883 -2.0198  0.8634  1.6473
  562MOL0     H74161  12.970   2.785   6.930  1.8161  0.5393 -0.8159
  562MOL0     H74162  13.076   2.826   6.700 -0.4758 -0.3505  0.3469
  562MOL0     H74163  13.121   2.689   6.786 -3.0344 -1.4086  3.7381
  562MOL0     H74164  13.077   2.616   6.548 -0.3925 -1.5203 -1.0139
  562MOL0     H74165  12.915   2.704   6.552 -0.6470  1.8582  2.3740
  562MOL0     H74166  12.174   3.104   6.900  0.7384  1.1981 -1.8208
  562MOL0     H74167  11.941   3.194   6.866 -2.7288 -0.1932 -0.7789
  562MOL0     H74168  11.559   3.212   6.734 -1.3545 -3.6051 -3.1605
  562MOL0     H74169  11.330   3.317   6.710  3.9640  0.0290 -2.2471
  562MOL0     H74170  10.827   2.834   7.457 -2.4724  0.2195 -0.0519
  562MOL0     H74171  10.850   2.719   7.663 -3.5086 -3.4262  1.8533
  562MOL0     H74172  11.169   2.875   8.062  1.8819  1.3825  3.2044
  562MOL0     H74173  11.204   2.836   8.304  0.5484 -0.9168  2.2529
  562MOL0     H74174  11.260   2.671   8.441 -0.7947 -3.2855 -0.2836
  562MOL0     H74175  11.208   2.606   8.603 -0.1600  1.2201  1.7988
  562MOL0     H74176  11.333   2.798   8.641 -0.2624  0.0137 -0.6263
  562MOL0     H74177  11.249   2.902   8.524  0.2770  1.0814  2.3876
  562MOL0     H74178  11.052   2.805   8.717 -1.9791  2.2648  0.2907
  562MOL0     H74179  11.129   2.968   8.701  0.7594  0.4262 -0.4088
  562MOL0     H74180  11.146   2.851   8.923 -0.5105  0.5377  0.2108
  562MOL0     H74181  11.260   2.732   8.845  0.8873  0.0685  0.1191
  562MOL0     H74182  11.459   3.120   8.927 -0.7322  0.7642  2.5443
  562MOL0     H74183  10.868   2.598   8.335  1.7921 -2.8411 -1.9003
  562MOL0     H74184  10.772   2.688   8.109 -0.3768  0.1814  0.2266
  563MOL0     O74185   7.462   6.612   8.864 -0.5357  0.4286 -0.2835
  563MOL0     C74186   7.466   6.489   8.841 -0.5061 -0.1705 -0.4756
  563MOL0     O74187   7.580   6.411   8.849  0.3454 -0.7888 -0.5502
  563MOL0     C74188   7.706   6.476   8.851 -0.6925  0.6774 -0.0517
  563MOL0     C74189   7.811   6.391   8.878 -0.5403  1.0208 -0.3680
  563MOL0     C74190   7.942   6.426   8.876 -0.1732 -1.9590 -0.5411
  563MOL0     C74191   7.985   6.566   8.866  0.0982 -0.6887  0.2470
  563MOL0     O74192   8.117   6.595   8.856 -0.1349  0.0852  0.0088
  563MOL0     C74193   8.156   6.722   8.909  0.7327 -0.2482  0.3034
  563MOL0     C74194   8.308   6.732   8.910  1.1461  0.1226  0.1156
  563MOL0     C74195   8.366   6.703   8.770  0.1478  0.0489 -0.6081
  563MOL0     C74196   8.510   6.699   8.772 -0.7395  0.0830  0.7685
  563MOL0     C74197   8.571   6.650   8.641 -0.3477 -0.8905 -0.3885
  563MOL0     C74198   8.581   6.766   8.539  0.9970 -0.1476  0.3592
  563MOL0     C74199   8.679   6.717   8.431  1.1595 -0.5166  0.2786
  563MOL0     C74200   8.666   6.791   8.295  0.3237  1.4555 -0.1092
  563MOL0     N74201   8.627   6.929   8.300 -0.3189  0.5304 -0.3421
  563MOL0     C74202   8.529   6.986   8.232 -0.0356  0.2833 -0.8158
  563MOL0     C74203   8.548   7.117   8.236  0.7921 -0.1935 -1.2227
  563MOL0     C74204   8.464   7.216   8.166 -0.1796 -0.6867  0.6823
  563MOL0     C74205   8.317   7.227   8.214 -0.9257  0.2986  0.0202
  563MOL0     C74206   8.260   7.360   8.154 -0.1631 -0.4130 -0.3856
  563MOL0     C74207   8.119   7.385   8.205 -0.9932 -0.1242  0.3775
  563MOL0     O74208   8.032   7.280   8.176 -0.5412 -0.2171 -0.8998
  563MOL0     C74209   7.902   7.278   8.224  0.1903 -0.5293 -0.9401
  563MOL0     C74210   7.861   7.368   8.324 -0.7379  0.9667 -0.4838
  563MOL0     C74211   7.747   7.346   8.396  0.6327  0.1433 -0.0300
  563MOL0     C74212   7.655   7.248   8.369 -0.4816  1.0305 -0.4362
  563MOL0     C74213   7.523   7.240   8.428  0.0180  0.1490 -0.3842
  563MOL0     O74214   7.442   7.144   8.383 -0.9711  0.2885  0.1762
  563MOL0     C74215   7.332   7.107   8.446 -0.0063  1.2797 -0.4216
  563MOL0     C74216   7.240   7.057   8.356  0.3385  0.0640 -0.5650
  563MOL0     C74217   7.115   7.020   8.403  0.3002 -0.3400  0.5807
  563MOL0     C74218   7.069   7.033   8.534  0.0248 -1.2826 -0.4153
  563MOL0     O74219   6.933   7.004   8.554 -0.1935 -0.5688 -0.7120
  563MOL0     C74220   6.880   7.029   8.684  0.0999  0.1208  0.4008
  563MOL0     C74221   6.727   7.047   8.666 -0.7285  0.4020  0.0535
  563MOL0     C74222   6.691   7.156   8.565 -0.5085 -0.3869 -0.4426
  563MOL0     C74223   6.555   7.220   8.585 -0.3447 -0.0641  0.4517
  563MOL0     C74224   6.424   7.139   8.562  0.7208  0.0087 -0.1013
  563MOL0     C74225   6.375   7.047   8.686  0.1238  1.0241  0.2360
  563MOL0     C74226   6.221   7.021   8.686 -0.2541  0.6599 -0.0523
  563MOL0     C74227   6.135   7.127   8.725  0.6146 -0.2266  0.4670
  563MOL0    Cl74228   6.169   7.187   8.890  0.1867  0.2090 -0.3768
  563MOL0     C74229   7.158   7.086   8.628  0.0050  0.6997  0.2726
  563MOL0     C74230   7.295   7.113   8.588  1.9235 -0.6993  0.3713
  563MOL0     O74231   7.478   7.337   8.493 -1.0371  0.4144 -0.5288
  563MOL0     C74232   7.693   7.156   8.272 -0.1638 -1.2695 -0.3430
  563MOL0     C74233   7.812   7.171   8.202 -0.8454  0.2614 -0.7607
  563MOL0     N74234   8.659   7.142   8.314  0.7339  0.2789  0.3087
  563MOL0     N74235   8.705   7.025   8.344 -0.2554  1.0146 -0.3929
  563MOL0     C74236   7.875   6.655   8.834  0.2187  0.4061  1.0046
  563MOL0     C74237   7.745   6.610   8.827  0.3103  0.3251  0.0370
  563MOL0     C74238   7.352   6.415   8.802 -0.2641 -0.0656  0.1454
  563MOL0     C74239   7.221   6.461   8.816  1.2482  0.0489  0.5295
  563MOL0     C74240   7.116   6.372   8.779 -0.1148  0.0501  0.3723
  563MOL0     C74241   7.135   6.245   8.721 -0.8055  0.6679 -0.5103
  563MOL0     O74242   7.023   6.165   8.684 -0.6105  0.2478 -0.3934
  563MOL0     C74243   6.898   6.198   8.738 -0.0267  1.1966  0.4315
  563MOL0     C74244   6.789   6.087   8.738 -0.0439  0.2845 -0.4648
  563MOL0     C74245   6.675   6.146   8.821  0.1415 -0.4975 -0.2344
  563MOL0     C74246   6.585   6.037   8.868  0.5761 -0.0181 -0.4762
  563MOL0     C74247   6.652   5.960   8.977 -0.3584 -0.1797 -0.1141
  563MOL0     C74248   6.687   5.903   9.076 -0.4023 -0.7014 -0.4499
  563MOL0     C74249   7.269   6.202   8.704 -0.0802 -0.1820 -0.6886
  563MOL0     C74250   7.365   6.280   8.751  0.1995 -1.3376  0.1344
  563MOL0     H74251   7.798   6.284   8.885 -1.2512  1.1569  0.4082
  563MOL0     H74252   8.022   6.357   8.900  1.1724  0.1451  1.5519
  563MOL0     H74253   8.114   6.748   9.007  2.7649  3.1449  0.4164
  563MOL0     H74254   8.109   6.792   8.839 -2.0991 -0.3990  1.8969
  563MOL0     H74255   8.348   6.672   8.993  2.8839  2.8475  1.3896
  563MOL0     H74256   8.344   6.832   8.937  2.9296 -0.0144 -1.5164
  563MOL0     H74257   8.329   6.780   8.702 -0.3027  0.9367  0.5968
  563MOL0     H74258   8.333   6.605   8.737  1.4873 -1.1586  1.4211
  563MOL0     H74259   8.538   6.800   8.802  1.3114 -0.6961  1.7324
  563MOL0     H74260   8.535   6.635   8.857 -1.6242  1.6806  2.2772
  563MOL0     H74261   8.512   6.570   8.595  0.6044  0.4888 -4.4732
  563MOL0     H74262   8.669   6.611   8.669  0.2771  0.6194 -0.3566
  563MOL0     H74263   8.608   6.868   8.569 -3.9573  1.7851 -0.7187
  563MOL0     H74264   8.484   6.779   8.491  0.9669 -1.8446 -0.0996
  563MOL0     H74265   8.783   6.730   8.460  1.0219 -0.5023  0.7711
  563MOL0     H74266   8.666   6.610   8.416 -1.6876 -0.2063 -0.1425
  563MOL0     H74267   8.591   6.741   8.231 -1.9159  2.6460  1.4696
  563MOL0     H74268   8.767   6.797   8.252  0.9821 -0.3278  1.0609
  563MOL0     H74269   8.445   6.940   8.181 -1.1019  1.5158 -0.2298
  563MOL0     H74270   8.469   7.212   8.057  0.8228  1.9363  0.5563
  563MOL0     H74271   8.513   7.309   8.198 -2.4371 -0.3558  3.6198
  563MOL0     H74272   8.321   7.229   8.323  1.9494 -2.9203  0.1331
  563MOL0     H74273   8.266   7.135   8.184 -3.2123  0.8188  1.9771
  563MOL0     H74274   8.327   7.444   8.169  2.4530 -2.2629 -1.0519
  563MOL0     H74275   8.245   7.356   8.046 -1.4304 -2.5813 -0.1955
  563MOL0     H74276   8.093   7.479   8.156  2.2179  1.5398  1.5216
  563MOL0     H74277   8.122   7.407   8.312  3.2728 -0.8702  0.6010
  563MOL0     H74278   7.925   7.450   8.358 -0.9727 -0.5660  4.3114
  563MOL0     H74279   7.733   7.408   8.484 -0.5243 -1.8030  1.2399
  563MOL0     H74280   7.268   7.041   8.252  0.6661 -2.0304 -0.2010
  563MOL0     H74281   7.046   6.979   8.331 -1.2594  2.8096  0.1071
  563MOL0     H74282   6.919   7.125   8.720 -0.7465  0.3828  0.6456
  563MOL0     H74283   6.894   6.949   8.757 -2.5902 -0.1610  0.7108
  563MOL0     H74284   6.692   7.067   8.768  2.9664 -1.2897  1.8803
  563MOL0     H74285   6.686   6.955   8.625  1.4587  0.5467 -2.7646
  563MOL0     H74286   6.683   7.109   8.466 -1.7839 -0.5693 -0.2767
  563MOL0     H74287   6.774   7.226   8.576 -1.1180  0.6362 -1.9177
  563MOL0     H74288   6.557   7.264   8.685 -0.5285  0.3129  0.2899
  563MOL0     H74289   6.558   7.307   8.520  1.3828 -0.2911  0.1766
  563MOL0     H74290   6.438   7.079   8.471  3.7033  1.5207 -0.7404
  563MOL0     H74291   6.346   7.212   8.539  0.1121 -0.4564  0.4472
  563MOL0     H74292   6.415   7.095   8.776 -0.5459 -0.3158  1.2845
  563MOL0     H74293   6.429   6.951   8.680  0.5218  1.1953  0.9623
  563MOL0     H74294   6.188   6.991   8.585  0.0412  0.8520 -0.2057
  563MOL0     H74295   6.199   6.934   8.749  0.8889 -2.6044 -3.6885
  563MOL0     H74296   6.030   7.097   8.723  0.2349  1.0529  0.3192
  563MOL0     H74297   6.159   7.211   8.659 -0.0010 -1.4433 -1.3825
  563MOL0     H74298   7.131   7.104   8.731 -0.3489 -1.5552  0.6258
  563MOL0     H74299   7.358   7.160   8.662  2.2037  1.4523 -1.1391
  563MOL0     H74300   7.642   7.068   8.233 -0.2950 -0.3346 -2.4380
  563MOL0     H74301   7.827   7.097   8.124  0.1301 -1.5203  1.0197
  563MOL0     H74302   7.896   6.758   8.807 -1.4914  0.7285  0.7907
  563MOL0     H74303   7.679   6.691   8.798  0.1119  0.1420 -0.0241
  563MOL0     H74304   7.204   6.562   8.851  2.9722  0.3294  0.6297
  563MOL0     H74305   7.016   6.412   8.779  0.2646  1.0158 -0.0419
  563MOL0     H74306   6.855   6.284   8.687 -0.4181  0.5757 -0.3062
  563MOL0     H74307   6.898   6.217   8.846 -4.5433  0.2289  0.7855
  563MOL0     H74308   6.753   6.050   8.642  2.5522 -3.9902 -0.0687
  563MOL0     H74309   6.833   6.004   8.794 -2.3235 -0.8446 -0.2459
  563MOL0     H74310   6.612   6.211   8.759  1.2743  0.5446 -0.3313
  563MOL0     H74311   6.715   6.195   8.910  0.8404 -0.3777 -0.6090
  563MOL0     H74312   6.501   6.079   8.925  2.2701  0.2810  1.9427
  563MOL0     H74313   6.562   5.966   8.788  5.2573 -3.2519  0.6362
  563MOL0     H74314   6.719   5.856   9.167  0.9630  2.6050  0.9643
  563MOL0     H74315   7.281   6.101   8.665 -0.4912 -0.1624 -0.8650
  563MOL0     H74316   7.463   6.235   8.738  1.4071  0.7415  1.4372
  564MOL0     O74317   6.105   2.747   1.669  0.8056  0.0623 -0.0602
  564MOL0     C74318   6.182   2.718   1.759  0.1337  1.3715 -1.3438
  564MOL0     O74319   6.163   2.613   1.845  0.2054  0.1982  0.7035
  564MOL0     C74320   6.042   2.543   1.828 -0.4596  0.1388  0.2518
  564MOL0     C74321   5.910   2.610   1.828 -0.6836  0.2437  0.9458
  564MOL0     C74322   5.795   2.539   1.807  0.3090  0.4769  0.7342
  564MOL0     C74323   5.802   2.395   1.792 -1.0141 -0.1641  0.4178
  564MOL0     O74324   5.706   2.311   1.779 -0.3300 -0.0048  0.0046
  564MOL0     C74325   5.573   2.362   1.771  0.0139  0.4182  0.6728
  564MOL0     C74326   5.489   2.236   1.729 -0.0611 -0.4040  0.1025
  564MOL0     C74327   5.337   2.246   1.731 -0.1135 -0.6827  0.8615
  564MOL0     C74328   5.275   2.351   1.620 -0.7719 -0.1202 -0.3264
  564MOL0     C74329   5.252   2.294   1.475  0.1123  0.3346 -0.1810
  564MOL0     C74330   5.251   2.407   1.369  0.2992  0.7617  0.4322
  564MOL0     C74331   5.391   2.431   1.318 -0.0248  0.5606 -0.0107
  564MOL0     C74332   5.402   2.570   1.258 -0.2410  0.8067 -0.1958
  564MOL0     N74333   5.298   2.585   1.157  0.7076 -0.5546  0.3653
  564MOL0     C74334   5.201   2.682   1.160 -0.2956 -0.5097  0.2535
  564MOL0     C74335   5.121   2.655   1.046 -0.7075  0.3499 -0.7314
  564MOL0     C74336   4.996   2.731   1.009 -0.2669  0.7416 -0.1136
  564MOL0     C74337   4.866   2.649   1.041 -1.5164 -0.3666  0.3306
  564MOL0     C74338   4.737   2.740   1.045  0.0744 -0.6201  0.5724
  564MOL0     C74339   4.605   2.664   1.033 -0.7918 -0.8129  0.1884
  564MOL0     O74340   4.496   2.755   1.054  0.3812  0.0019 -0.2496
  564MOL0     C74341   4.390   2.740   0.964  1.1385  0.3392  0.0350
  564MOL0     C74342   4.365   2.828   0.869 -0.1174 -0.1496 -0.1569
  564MOL0     C74343   4.243   2.831   0.800 -0.5429 -0.6564  0.1583
  564MOL0     C74344   4.143   2.731   0.823 -0.2972  0.6570  0.3420
  564MOL0     C74345   4.009   2.740   0.749  0.5786  0.0739 -1.1817
  564MOL0     O74346   4.009   2.817   0.633 -0.3534 -0.0553 -0.4518
  564MOL0     C74347   3.888   2.860   0.578  0.8255 -0.4398 -0.4866
  564MOL0     C74348   3.821   2.957   0.652 -0.6636 -0.3495 -0.4424
  564MOL0     C74349   3.700   3.011   0.602 -0.7342 -0.9205 -0.1073
  564MOL0     C74350   3.643   2.962   0.482  0.4810  0.2374  0.2354
  564MOL0     O74351   3.517   3.009   0.452  0.4171  0.2841  0.3631
  564MOL0     C74352   3.445   2.961   0.340  0.3001  0.4193 -0.2891
  564MOL0     C74353   3.351   3.073   0.304 -0.6530 -0.3899  0.0618
  564MOL0     C74354   3.265   3.038   0.186  0.2086  0.5141 -0.1780
  564MOL0     C74355   3.213   3.156   0.101 -0.3757 -0.3442 -0.4246
  564MOL0     C74356   3.067   3.166   0.051 -0.1727 -1.3764  0.0164
  564MOL0     C74357   3.019   3.052  -0.042 -0.1632 -0.4536  0.5051
  564MOL0     C74358   2.864   3.077  -0.045 -0.4966 -0.7793 -0.1078
  564MOL0     C74359   2.797   2.973  -0.122 -0.0010  0.4196 -0.1032
  564MOL0    Cl74360   2.880   2.929  -0.275  0.2768  0.4608 -0.1251
  564MOL0     C74361   3.711   2.862   0.406 -0.7476 -0.6961 -0.2808
  564MOL0     C74362   3.833   2.814   0.456  0.7425 -0.3328  0.1068
  564MOL0     O74363   3.912   2.696   0.809  0.8064  0.2483 -0.0027
  564MOL0     C74364   4.173   2.623   0.913 -0.3438 -0.8018 -1.2234
  564MOL0     C74365   4.294   2.637   0.990 -0.0404 -0.0910  0.0189
  564MOL0     N74366   5.162   2.536   0.990 -0.5839 -0.0722 -0.5715
  564MOL0     N74367   5.278   2.510   1.047  0.3712 -0.2848  0.9386
  564MOL0     C74368   5.931   2.340   1.793  0.0290  0.4045  0.3601
  564MOL0     C74369   6.052   2.409   1.807  0.3265 -0.2226  0.3051
  564MOL0     C74370   6.307   2.792   1.797  0.2353 -0.1026  0.8170
  564MOL0     C74371   6.375   2.768   1.917 -0.8956  0.2653  0.0896
  564MOL0     C74372   6.502   2.828   1.941  0.3152 -0.0024  0.5878
  564MOL0     C74373   6.568   2.917   1.849  0.3120 -0.2341 -0.3564
  564MOL0     O74374   6.684   2.967   1.883  0.0007  0.1219  0.1972
  564MOL0     C74375   6.759   3.064   1.809  0.2433  0.2132  0.1022
  564MOL0     C74376   6.910   3.051   1.843  0.3453 -0.5727 -0.7368
  564MOL0     C74377   6.997   3.138   1.748 -0.1523  0.4525 -0.1340
  564MOL0     C74378   7.101   3.218   1.814  0.0218  0.1271 -0.0612
  564MOL0     C74379   7.193   3.123   1.881 -0.0206  0.4725 -0.3158
  564MOL0     C74380   7.258   3.055   1.955  0.1798  0.3370  0.0026
  564MOL0     C74381   6.486   2.945   1.733 -0.8030  0.0872 -0.0671
  564MOL0     C74382   6.365   2.885   1.707 -0.2588  0.0069 -0.3607
  564MOL0     H74383   5.905   2.718   1.837  1.6668  0.4451  0.5387
  564MOL0     H74384   5.705   2.600   1.801 -0.4014 -0.4988  1.2850
  564MOL0     H74385   5.571   2.448   1.703  0.7251 -0.4954 -0.5618
  564MOL0     H74386   5.538   2.397   1.868  0.9638 -2.0540  2.0020
  564MOL0     H74387   5.505   2.169   1.814  0.8317 -1.6364 -1.0099
  564MOL0     H74388   5.524   2.209   1.629 -1.3120  4.2843 -1.8797
  564MOL0     H74389   5.296   2.281   1.827  1.1185 -2.4400  2.0918
  564MOL0     H74390   5.305   2.142   1.722  1.9915 -1.1839 -2.0165
  564MOL0     H74391   5.175   2.369   1.660 -0.1909  0.2645  1.0178
  564MOL0     H74392   5.322   2.450   1.619  0.0209 -0.4957 -0.7855
  564MOL0     H74393   5.167   2.226   1.487  1.4782 -1.3352  0.7083
  564MOL0     H74394   5.327   2.220   1.446 -0.2319 -1.3680  2.8115
  564MOL0     H74395   5.203   2.497   1.407 -1.7071 -0.7254  1.6459
  564MOL0     H74396   5.199   2.369   1.281 -0.0387  0.4179  0.7737
  564MOL0     H74397   5.468   2.430   1.396  1.9094  0.4092 -1.8211
  564MOL0     H74398   5.432   2.350   1.257  1.3558  1.0945  0.1711
  564MOL0     H74399   5.505   2.584   1.224  0.3599 -2.1582  0.1475
  564MOL0     H74400   5.387   2.656   1.324 -1.8496 -1.7698  3.1114
  564MOL0     H74401   5.180   2.770   1.221 -1.7672 -1.4088  1.0752
  564MOL0     H74402   4.999   2.768   0.907  2.9933  0.5500 -0.2109
  564MOL0     H74403   4.991   2.816   1.077 -1.5068  0.6337 -0.0521
  564MOL0     H74404   4.877   2.608   1.142  3.5469 -0.5260 -0.0309
  564MOL0     H74405   4.856   2.562   0.976 -2.1238 -1.1368  1.4194
  564MOL0     H74406   4.736   2.784   1.145  0.8733 -1.7009  1.0854
  564MOL0     H74407   4.726   2.825   0.977 -1.3624 -0.8211  0.5272
  564MOL0     H74408   4.599   2.583   1.106 -1.7698  0.0466  1.0928
  564MOL0     H74409   4.600   2.613   0.936 -2.0057  1.7804 -1.2082
  564MOL0     H74410   4.430   2.914   0.850 -1.6760  0.5658 -2.8663
  564MOL0     H74411   4.224   2.905   0.723  2.9038 -0.6293 -0.8177
  564MOL0     H74412   3.872   2.997   0.739  0.7834  1.5102 -2.0559
  564MOL0     H74413   3.644   3.078   0.667  0.2627  0.0858 -0.2452
  564MOL0     H74414   3.395   2.869   0.373 -0.6524  1.1430  0.3503
  564MOL0     H74415   3.507   2.939   0.253 -3.0637 -1.2255 -2.5081
  564MOL0     H74416   3.413   3.162   0.288 -0.8583 -0.2779 -0.1075
  564MOL0     H74417   3.286   3.098   0.388 -1.8970  0.9598 -1.2517
  564MOL0     H74418   3.181   2.972   0.209  1.3802 -1.9620 -2.4400
  564MOL0     H74419   3.332   2.988   0.116  0.2250  0.0095  0.1889
  564MOL0     H74420   3.251   3.243   0.156  0.0274 -0.5614 -0.3608
  564MOL0     H74421   3.268   3.148   0.007  0.8486 -0.4700  0.2835
  564MOL0     H74422   3.068   3.264   0.002 -1.4326 -0.8200  1.0409
  564MOL0     H74423   3.008   3.166   0.143 -0.7599 -0.2302 -0.3440
  564MOL0     H74424   3.044   2.950  -0.013  1.1633 -0.5925 -1.0119
  564MOL0     H74425   3.065   3.078  -0.138 -2.2204 -0.7155 -0.5890
  564MOL0     H74426   2.813   3.094   0.050 -0.9533  1.1549 -0.6469
  564MOL0     H74427   2.857   3.176  -0.090 -0.1473  0.0949  1.6736
  564MOL0     H74428   2.693   3.000  -0.143 -1.0051 -1.8576  1.5653
  564MOL0     H74429   2.787   2.891  -0.050  0.2414  1.6972  1.4343
  564MOL0     H74430   3.668   2.829   0.312 -1.1766  0.0363 -0.3501
  564MOL0     H74431   3.882   2.740   0.394  0.4567 -2.1904  1.9891
  564MOL0     H74432   4.102   2.545   0.939  1.8765 -2.4024  0.3671
  564MOL0     H74433   4.320   2.569   1.071  1.5722 -0.6406 -0.8980
  564MOL0     H74434   5.944   2.235   1.767  0.1883  0.3392  0.6930
  564MOL0     H74435   6.148   2.366   1.782  1.6004  1.8592  1.4071
  564MOL0     H74436   6.330   2.719   2.003 -1.5903  1.3789  0.3951
  564MOL0     H74437   6.544   2.811   2.039 -1.2213  0.5302  1.3817
  564MOL0     H74438   6.735   3.165   1.844  0.8812 -0.3533  2.3258
  564MOL0     H74439   6.743   3.070   1.701  3.4503  1.8661 -0.3962
  564MOL0     H74440   6.928   3.082   1.946 -2.3971  1.4610 -0.7656
  564MOL0     H74441   6.943   2.947   1.830  0.3851 -0.6574  0.0087
  564MOL0     H74442   6.924   3.201   1.697 -3.1048 -3.1418 -0.7659
  564MOL0     H74443   7.042   3.073   1.673  1.0477  0.2887  0.6918
  564MOL0     H74444   7.144   3.273   1.730 -1.6861  0.1203 -0.9914
  564MOL0     H74445   7.054   3.297   1.873 -0.5058 -1.3764  1.6403
  564MOL0     H74446   7.311   2.996   2.027  0.7582  2.1561  1.1272
  564MOL0     H74447   6.539   3.003   1.658 -1.5211  0.7600 -0.0655
  564MOL0     H74448   6.323   2.905   1.609  0.5848  0.4243 -0.6527
  565MOL0     O74449   6.929   1.527   6.833 -0.7282 -0.3917  0.4010
  565MOL0     C74450   6.832   1.574   6.774  0.6440  0.4787 -1.2397
  565MOL0     O74451   6.832   1.644   6.657  0.5733  0.6387  0.5160
  565MOL0     C74452   6.945   1.665   6.589  0.0074  0.3767  0.9594
  565MOL0     C74453   6.934   1.645   6.446 -0.0656 -0.0503 -0.1294
  565MOL0     C74454   7.031   1.701   6.369  0.9404 -0.2328  0.7415
  565MOL0     C74455   7.131   1.780   6.422 -0.3136  1.0244 -0.1707
  565MOL0     O74456   7.210   1.842   6.331 -0.1937  0.2359 -0.5584
  565MOL0     C74457   7.312   1.935   6.379 -0.1104  0.6457 -0.4930
  565MOL0     C74458   7.256   2.082   6.381 -0.8859  0.4290 -0.9862
  565MOL0     C74459   7.368   2.185   6.381  0.7203  0.7963 -0.2183
  565MOL0     C74460   7.319   2.327   6.420  0.2401 -0.0916 -0.0301
  565MOL0     C74461   7.433   2.421   6.457 -0.5142 -0.2676 -0.0069
  565MOL0     C74462   7.551   2.418   6.351  0.5685 -0.6846  0.9393
  565MOL0     C74463   7.652   2.524   6.388  0.8925 -0.5806  0.2947
  565MOL0     C74464   7.758   2.530   6.278  0.0711  0.2319  0.0664
  565MOL0     N74465   7.871   2.614   6.314  0.6992 -0.3396 -0.7750
  565MOL0     C74466   7.995   2.568   6.293  0.2621  0.4681  0.7886
  565MOL0     C74467   8.076   2.676   6.301  0.4105 -0.6130 -0.0017
  565MOL0     C74468   8.229   2.686   6.289 -0.6715  0.8137 -0.7320
  565MOL0     C74469   8.319   2.722   6.409  0.2924 -0.1749 -0.1792
  565MOL0     C74470   8.309   2.879   6.420 -0.1425  0.5234  0.2943
  565MOL0     C74471   8.401   2.923   6.527  0.0762  0.4568 -0.5607
  565MOL0     O74472   8.403   3.063   6.555  0.2135 -0.6218  0.7821
  565MOL0     C74473   8.287   3.133   6.590  0.5671  0.3347  1.0311
  565MOL0     C74474   8.289   3.270   6.579  0.9224 -0.1088 -0.3144
  565MOL0     C74475   8.178   3.347   6.602 -0.1817  0.0287 -0.5624
  565MOL0     C74476   8.054   3.294   6.627 -0.3591  0.1975  0.2041
  565MOL0     C74477   7.935   3.369   6.649 -0.0820 -0.5442  0.3479
  565MOL0     O74478   7.816   3.309   6.674  0.5642 -0.3037 -0.3424
  565MOL0     C74479   7.697   3.380   6.695  0.0305 -0.3171  0.4289
  565MOL0     C74480   7.643   3.439   6.569  0.8765 -0.8653 -0.6843
  565MOL0     C74481   7.514   3.491   6.584 -0.2393  0.2960 -0.0457
  565MOL0     C74482   7.452   3.505   6.713  0.5051 -0.3275 -0.6249
  565MOL0     O74483   7.327   3.563   6.736 -0.0823 -0.4695 -0.3155
  565MOL0     C74484   7.222   3.549   6.638 -0.5742 -0.2227  0.1711
  565MOL0     C74485   7.127   3.669   6.644  0.4716 -0.2561 -0.5057
  565MOL0     C74486   7.189   3.810   6.600 -0.5417  0.9269 -0.8601
  565MOL0     C74487   7.276   3.796   6.479 -0.8112 -0.0018 -0.8076
  565MOL0     C74488   7.352   3.931   6.465  0.2945 -0.3000 -0.4523
  565MOL0     C74489   7.376   3.966   6.317 -0.3245  0.1148 -0.6537
  565MOL0     C74490   7.403   4.122   6.309 -0.3141  0.4800 -0.3682
  565MOL0     C74491   7.486   4.153   6.176  0.2801 -0.9065  0.4968
  565MOL0    Cl74492   7.392   4.269   6.068 -0.4508 -0.0851  0.5461
  565MOL0     C74493   7.517   3.465   6.819 -0.7039 -0.1826 -0.1909
  565MOL0     C74494   7.636   3.399   6.820  0.7336  0.2804 -0.5245
  565MOL0     O74495   7.962   3.484   6.681 -0.8390  0.9043  0.1926
  565MOL0     C74496   8.047   3.153   6.635 -0.1670 -0.2414 -0.2416
  565MOL0     C74497   8.160   3.074   6.619  0.1417 -0.1931  0.6556
  565MOL0     N74498   7.994   2.786   6.319  0.2808  0.4241 -0.7421
  565MOL0     N74499   7.870   2.751   6.328 -0.2996  0.0653 -1.0044
  565MOL0     C74500   7.148   1.800   6.562  0.0323  0.0883  0.4194
  565MOL0     C74501   7.047   1.745   6.647  0.1980  0.9123  0.2590
  565MOL0     C74502   6.698   1.569   6.842 -0.0333  1.0780 -0.1137
  565MOL0     C74503   6.588   1.628   6.786  0.5047 -1.5519  0.1964
  565MOL0     C74504   6.464   1.614   6.845  0.6433 -0.7329 -0.2742
  565MOL0     C74505   6.454   1.520   6.953  0.1878  0.5891  0.5635
  565MOL0     O74506   6.325   1.482   7.001 -0.7253 -0.0909 -0.6172
  565MOL0     C74507   6.292   1.508   7.140  1.2143  0.2136 -0.3143
  565MOL0     C74508   6.145   1.514   7.165 -0.2942 -0.2396 -0.8238
  565MOL0     C74509   6.117   1.565   7.309 -0.0694 -1.3446  0.1125
  565MOL0     C74510   5.973   1.523   7.356  0.3307 -0.0713  0.2537
  565MOL0     C74511   5.969   1.516   7.504 -0.3956  0.0754 -0.6139
  565MOL0     C74512   5.961   1.513   7.634 -0.0555 -0.4467  0.3372
  565MOL0     C74513   6.573   1.458   7.008  0.2706 -0.6249 -1.0121
  565MOL0     C74514   6.694   1.490   6.952  0.2253 -0.4455 -0.4843
  565MOL0     H74515   6.861   1.583   6.396 -1.6453  0.5011  1.3778
  565MOL0     H74516   7.021   1.709   6.261  0.9018  0.4848  0.7940
  565MOL0     H74517   7.391   1.919   6.306 -0.1059  2.0473 -0.8311
  565MOL0     H74518   7.351   1.904   6.476 -2.2641 -4.1212 -0.8794
  565MOL0     H74519   7.188   2.095   6.466  1.4880  0.4400  1.0330
  565MOL0     H74520   7.200   2.096   6.288 -0.6964  1.3309 -0.9767
  565MOL0     H74521   7.432   2.179   6.292 -0.3329  0.5348 -0.9700
  565MOL0     H74522   7.424   2.153   6.469  0.6845 -0.2422 -0.5542
  565MOL0     H74523   7.263   2.359   6.331  0.2255 -0.3493 -0.1168
  565MOL0     H74524   7.242   2.322   6.498  3.2127 -0.6715  3.1156
  565MOL0     H74525   7.467   2.395   6.558 -1.7720 -0.1009  0.4699
  565MOL0     H74526   7.396   2.524   6.462 -1.0201 -0.5030  1.7186
  565MOL0     H74527   7.512   2.442   6.252  0.4514 -1.2230  0.8549
  565MOL0     H74528   7.599   2.320   6.343  0.4399 -0.5726 -3.7971
  565MOL0     H74529   7.611   2.625   6.396  1.4639 -0.2790 -0.4573
  565MOL0     H74530   7.698   2.493   6.483 -0.7608  0.0681  1.3542
  565MOL0     H74531   7.717   2.582   6.192  3.7354  4.4359  0.4634
  565MOL0     H74532   7.800   2.431   6.259  1.0679  0.0983  2.5680
  565MOL0     H74533   8.016   2.464   6.269 -1.0524  0.5908 -1.1549
  565MOL0     H74534   8.250   2.765   6.217  1.2108  2.7275  1.7478
  565MOL0     H74535   8.264   2.589   6.251 -1.0096 -0.4252  1.8663
  565MOL0     H74536   8.424   2.696   6.394  1.2548  2.3967  1.4602
  565MOL0     H74537   8.287   2.674   6.503  3.8051  1.3105  1.9745
  565MOL0     H74538   8.352   2.924   6.329 -2.1921  0.2781 -0.8565
  565MOL0     H74539   8.205   2.904   6.438 -0.2004  1.0007 -0.6167
  565MOL0     H74540   8.498   2.888   6.490 -0.2554 -0.8131 -0.2927
  565MOL0     H74541   8.378   2.870   6.621 -1.9293  1.1681 -0.6049
  565MOL0     H74542   8.390   3.311   6.571  0.9270  0.1638  0.8552
  565MOL0     H74543   8.184   3.454   6.619  1.8578  0.1030 -1.4632
  565MOL0     H74544   7.696   3.428   6.475  0.3199  2.1228 -1.4502
  565MOL0     H74545   7.467   3.534   6.496 -0.5393 -1.8541 -1.0030
  565MOL0     H74546   7.161   3.461   6.662 -1.2922  0.0524 -0.5932
  565MOL0     H74547   7.257   3.531   6.536  1.4787 -2.3944  1.1543
  565MOL0     H74548   7.063   3.663   6.732 -2.0247  1.3393 -2.0972
  565MOL0     H74549   7.062   3.655   6.557  0.1440  3.1743 -0.9436
  565MOL0     H74550   7.260   3.829   6.681 -0.6804 -1.5123 -0.0861
  565MOL0     H74551   7.121   3.893   6.580  0.0124  0.9294 -2.8913
  565MOL0     H74552   7.348   3.716   6.496  0.5054  1.9202  5.3307
  565MOL0     H74553   7.211   3.777   6.393 -0.7674  1.7867 -1.2734
  565MOL0     H74554   7.446   3.923   6.520  0.0033 -2.5652 -0.1941
  565MOL0     H74555   7.295   4.007   6.519 -0.3074 -0.7371 -0.4589
  565MOL0     H74556   7.286   3.930   6.267 -0.6655 -1.7961  1.2132
  565MOL0     H74557   7.454   3.906   6.269 -0.3862  0.0370 -0.6562
  565MOL0     H74558   7.307   4.173   6.305 -1.2432 -1.1973 -0.2887
  565MOL0     H74559   7.466   4.160   6.390  1.0536  0.9015 -1.5903
  565MOL0     H74560   7.526   4.069   6.119 -1.7176 -0.9972 -0.8604
  565MOL0     H74561   7.575   4.207   6.210  0.8915 -3.1257  2.7444
  565MOL0     H74562   7.472   3.479   6.916 -1.9542  1.1801 -0.9350
  565MOL0     H74563   7.675   3.354   6.911 -3.7962 -3.1220  0.0571
  565MOL0     H74564   7.955   3.109   6.671 -0.1363 -0.7045 -0.7191
  565MOL0     H74565   8.154   2.966   6.618 -1.9426 -0.1109  0.0957
  565MOL0     H74566   7.223   1.865   6.606  0.1401  0.6082 -0.4994
  565MOL0     H74567   7.048   1.775   6.751 -0.9247  1.0071  0.2514
  565MOL0     H74568   6.605   1.687   6.697  0.1750 -3.2763 -1.0567
  565MOL0     H74569   6.364   1.639   6.809  0.3259 -0.2645  0.8907
  565MOL0     H74570   6.344   1.600   7.170  1.3704  0.4951 -1.4186
  565MOL0     H74571   6.329   1.431   7.208  1.3507  2.4452  2.3344
  565MOL0     H74572   6.115   1.585   7.087  3.5104  1.1612 -1.2012
  565MOL0     H74573   6.091   1.420   7.149 -1.1964 -0.3643  2.2781
  565MOL0     H74574   6.136   1.672   7.320 -0.1968 -1.3172  0.0701
  565MOL0     H74575   6.188   1.513   7.374  1.0883  0.9733  0.7983
  565MOL0     H74576   5.902   1.605   7.341  0.7781  0.3440  0.3522
  565MOL0     H74577   5.945   1.432   7.303  0.5145  1.0284 -1.8447
  565MOL0     H74578   5.946   1.522   7.740 -0.0312 -0.8209  0.3717
  565MOL0     H74579   6.579   1.406   7.103  1.3202  1.1813 -0.0435
  565MOL0     H74580   6.779   1.437   6.993 -0.0169 -0.0191  0.6081
  566MOL0     O74581  11.097   6.089   8.878  0.9613 -0.4342 -0.2879
  566MOL0     C74582  11.106   6.043   8.991  0.1865 -0.1283 -0.3717
  566MOL0     O74583  11.004   6.013   9.077 -0.5762  0.1910 -0.2320
  566MOL0     C74584  10.886   6.075   9.037  0.2093 -0.0905 -0.1475
  566MOL0     C74585  10.791   6.001   8.959 -0.4885 -0.0624  1.2389
  566MOL0     C74586  10.666   6.052   8.916  0.3337 -0.1886 -0.2848
  566MOL0     C74587  10.637   6.180   8.953 -1.0389  0.6211  0.7990
  566MOL0     O74588  10.510   6.219   8.923  0.9309  0.1479 -0.1624
  566MOL0     C74589  10.434   6.270   9.039  0.0213 -0.0918  0.2271
  566MOL0     C74590  10.286   6.281   9.014  0.4530 -0.1497  0.6968
  566MOL0     C74591  10.243   6.357   8.890  0.3115  0.2474 -0.5837
  566MOL0     C74592  10.095   6.332   8.852  0.7372 -0.0769 -1.1782
  566MOL0     C74593  10.083   6.219   8.742 -0.6883 -0.0045  0.6853
  566MOL0     C74594   9.940   6.215   8.696 -0.4454 -0.4214 -0.1345
  566MOL0     C74595   9.920   6.112   8.597 -0.6954  0.8890  0.4665
  566MOL0     C74596   9.769   6.093   8.574  1.1017  0.4979  0.3692
  566MOL0     N74597   9.737   6.022   8.457 -0.5714 -0.1005 -0.2753
  566MOL0     C74598   9.627   6.051   8.387 -0.7534 -0.1206  0.3352
  566MOL0     C74599   9.611   5.956   8.296 -0.3414  0.5624 -0.1905
  566MOL0     C74600   9.504   5.955   8.183  1.0708 -0.5353 -0.6540
  566MOL0     C74601   9.462   5.812   8.159  0.4855  0.3870  0.0183
  566MOL0     C74602   9.352   5.797   8.049 -0.6382  0.3905  0.5403
  566MOL0     C74603   9.218   5.825   8.118 -0.0190  0.8880  0.0599
  566MOL0     O74604   9.115   5.858   8.019  0.1210  0.1025  0.3621
  566MOL0     C74605   8.987   5.867   8.075 -0.3633  0.7122  0.3154
  566MOL0     C74606   8.920   5.763   8.140 -0.5272  0.2013  0.1242
  566MOL0     C74607   8.783   5.790   8.175 -0.1119 -0.1565  0.5715
  566MOL0     C74608   8.710   5.908   8.143 -0.1314 -0.3247  0.3921
  566MOL0     C74609   8.564   5.922   8.171  0.0791  0.4862 -0.7207
  566MOL0     O74610   8.496   6.031   8.101 -0.5384  0.3665 -0.4322
  566MOL0     C74611   8.359   6.041   8.089 -0.7534  0.7095  0.4728
  566MOL0     C74612   8.274   5.936   8.080  1.0376 -0.0198  0.5454
  566MOL0     C74613   8.133   5.948   8.066  0.3439 -0.6297  0.2368
  566MOL0     C74614   8.080   6.082   8.047 -0.1629 -0.4636 -1.3916
  566MOL0     O74615   7.947   6.113   8.047 -0.4657  0.8057  0.4692
  566MOL0     C74616   7.904   6.198   7.939 -0.1641 -0.3665 -0.2055
  566MOL0     C74617   7.743   6.205   7.949  0.7812  0.3705  0.3028
  566MOL0     C74618   7.682   6.106   7.853 -0.7065 -0.4862  0.2495
  566MOL0     C74619   7.522   6.117   7.859 -0.0103  0.3354  0.4874
  566MOL0     C74620   7.457   5.992   7.785  0.6773  0.3270 -0.1752
  566MOL0     C74621   7.309   5.965   7.813 -0.0086  0.6669 -0.7297
  566MOL0     C74622   7.262   5.836   7.753 -0.4225  0.1040 -0.0085
  566MOL0     C74623   7.121   5.774   7.796  0.2637 -0.4011 -0.4325
  566MOL0    Cl74624   6.984   5.886   7.747 -0.2072  0.0411 -0.0460
  566MOL0     C74625   8.171   6.195   8.044  0.0746  0.5952  0.3716
  566MOL0     C74626   8.307   6.172   8.071  0.5184 -0.5797 -0.2957
  566MOL0     O74627   8.519   5.832   8.238 -0.1780  0.1984 -0.1150
  566MOL0     C74628   8.783   5.998   8.068 -1.5082  0.6731 -0.2340
  566MOL0     C74629   8.921   5.983   8.043  0.1826 -0.7233  0.4967
  566MOL0     N74630   9.700   5.854   8.329  0.0519 -0.7888  0.0502
  566MOL0     N74631   9.769   5.894   8.432 -1.1715  0.2991 -0.1604
  566MOL0     C74632  10.723   6.257   9.023  0.3130  0.4111 -0.7856
  566MOL0     C74633  10.849   6.209   9.075 -0.6131  0.8263  0.1981
  566MOL0     C74634  11.245   6.016   9.034 -0.1718  0.6387  0.3764
  566MOL0     C74635  11.359   6.058   8.956  0.2405  0.7237  0.2095
  566MOL0     C74636  11.490   6.013   8.989  1.2881 -1.0826 -0.1857
  566MOL0     C74637  11.526   5.944   9.103  0.3998 -0.0951  0.1607
  566MOL0     O74638  11.660   5.915   9.124  0.2154  0.0365 -0.3289
  566MOL0     C74639  11.700   5.832   9.230  0.4964 -0.9231 -0.4350
  566MOL0     C74640  11.649   5.682   9.214 -0.0393  0.0701 -0.3243
  566MOL0     C74641  11.730   5.610   9.110 -0.1042 -0.1558  0.1217
  566MOL0     C74642  11.694   5.459   9.100 -0.1688  1.3979  0.0254
  566MOL0     C74643  11.567   5.425   9.068  0.2518  0.3376 -0.4315
  566MOL0     C74644  11.444   5.405   9.063 -0.3702  0.0786  0.1442
  566MOL0     C74645  11.413   5.909   9.186 -0.4059 -0.1266  0.2166
  566MOL0     C74646  11.277   5.947   9.156  0.3870  0.3139  0.1481
  566MOL0     H74647  10.816   5.900   8.928 -3.1401 -0.1397 -1.1640
  566MOL0     H74648  10.599   5.992   8.855 -1.4371  1.2203  0.2257
  566MOL0     H74649  10.467   6.370   9.072 -0.7161 -0.5534  2.5238
  566MOL0     H74650  10.454   6.208   9.127 -1.2110  0.6250  1.0314
  566MOL0     H74651  10.235   6.322   9.102 -1.1578  0.8595 -0.6385
  566MOL0     H74652  10.247   6.181   8.993  0.3015  0.6770 -4.0944
  566MOL0     H74653  10.303   6.307   8.813 -2.0226 -0.4685 -2.0468
  566MOL0     H74654  10.271   6.462   8.904 -4.1927  1.6382 -0.5371
  566MOL0     H74655  10.039   6.309   8.943  3.1204 -1.0695  0.1406
  566MOL0     H74656  10.061   6.427   8.811 -0.2016  0.2128  0.2249
  566MOL0     H74657  10.115   6.121   8.779 -1.2438  0.4936  2.6280
  566MOL0     H74658  10.151   6.245   8.661 -0.5692 -0.5610  0.6065
  566MOL0     H74659   9.925   6.309   8.641 -0.9271 -0.3387  0.1343
  566MOL0     H74660   9.880   6.193   8.785  4.5120 -3.1883  2.9599
  566MOL0     H74661   9.961   6.142   8.501  2.6080 -2.1317  0.7467
  566MOL0     H74662   9.968   6.020   8.633 -0.7034  1.6240  2.5061
  566MOL0     H74663   9.706   6.182   8.580 -1.9941 -1.6376  2.2493
  566MOL0     H74664   9.734   6.035   8.660  2.3938 -0.1872  0.4708
  566MOL0     H74665   9.558   6.135   8.379  1.1135  1.3580 -1.3723
  566MOL0     H74666   9.560   6.003   8.102 -0.2306  4.0687  0.8654
  566MOL0     H74667   9.419   6.018   8.206 -0.7704 -2.8967 -0.5728
  566MOL0     H74668   9.437   5.764   8.254 -2.6919  3.5970  1.0368
  566MOL0     H74669   9.547   5.757   8.117  1.0902 -0.5759  2.3497
  566MOL0     H74670   9.379   5.873   7.976 -0.0610  0.1345  0.4820
  566MOL0     H74671   9.357   5.697   8.005  0.7928 -0.8719  3.2876
  566MOL0     H74672   9.229   5.903   8.194  2.2920  0.3441  0.3537
  566MOL0     H74673   9.182   5.744   8.181 -2.4238  1.0004 -1.0381
  566MOL0     H74674   8.964   5.667   8.166 -1.0916 -0.2177 -0.4375
  566MOL0     H74675   8.736   5.703   8.221  1.5883  0.2976  3.4000
  566MOL0     H74676   8.296   5.829   8.085 -4.6922 -2.0644 -4.8251
  566MOL0     H74677   8.074   5.859   8.050  0.2713  0.0728 -4.7994
  566MOL0     H74678   7.946   6.161   7.845  2.2667 -1.9897  1.3921
  566MOL0     H74679   7.954   6.294   7.957  0.6893 -0.8529  0.0706
  566MOL0     H74680   7.694   6.303   7.949 -0.0270  0.0525  3.2183
  566MOL0     H74681   7.735   6.158   8.048 -0.1257 -3.2010 -1.2893
  566MOL0     H74682   7.711   6.006   7.886  3.5142  0.2801 -0.6059
  566MOL0     H74683   7.719   6.121   7.752  1.2304  0.4670  1.0514
  566MOL0     H74684   7.484   6.116   7.962  1.2501 -2.9983  1.0588
  566MOL0     H74685   7.494   6.212   7.813  2.9974  0.2895 -1.7021
  566MOL0     H74686   7.504   5.897   7.811  0.2402 -0.0251 -0.6658
  566MOL0     H74687   7.479   6.009   7.679  0.4043 -3.5343 -0.9771
  566MOL0     H74688   7.247   6.045   7.772 -1.2565 -0.7389 -1.7126
  566MOL0     H74689   7.297   5.965   7.922 -1.4070 -3.1179 -0.7128
  566MOL0     H74690   7.258   5.835   7.644 -0.2483 -1.6004 -0.0389
  566MOL0     H74691   7.332   5.759   7.786  0.3293  0.7275 -0.1307
  566MOL0     H74692   7.104   5.756   7.903 -1.6678 -0.4935 -0.7296
  566MOL0     H74693   7.116   5.675   7.750  1.5305  0.9900 -3.8565
  566MOL0     H74694   8.141   6.295   8.014  1.3362 -0.2012 -4.5333
  566MOL0     H74695   8.379   6.252   8.055  0.2867 -0.4724 -0.8344
  566MOL0     H74696   8.724   6.083   8.037 -2.2175  0.0252 -0.7090
  566MOL0     H74697   8.965   6.067   7.989 -3.2758  1.0089  0.0466
  566MOL0     H74698  10.688   6.358   9.044  1.4216  0.3425  1.8664
  566MOL0     H74699  10.913   6.263   9.145  1.0885 -0.8830  0.0569
  566MOL0     H74700  11.345   6.113   8.864  0.6957 -1.0199 -0.9736
  566MOL0     H74701  11.571   6.057   8.933  0.8351  1.3727  0.9531
  566MOL0     H74702  11.655   5.865   9.324  3.2060 -2.7437  1.6514
  566MOL0     H74703  11.808   5.843   9.242  0.1009  7.5678  1.5123
  566MOL0     H74704  11.674   5.628   9.306  1.0160 -1.3741 -1.4216
  566MOL0     H74705  11.541   5.673   9.197 -0.0968 -1.7122  0.7337
  566MOL0     H74706  11.838   5.622   9.124  0.6584  0.1251 -4.3085
  566MOL0     H74707  11.713   5.645   9.007 -0.8550 -2.3094 -0.5544
  566MOL0     H74708  11.765   5.412   9.031  0.5004  1.8386  0.4016
  566MOL0     H74709  11.718   5.424   9.201 -0.9970  0.1681 -0.1821
  566MOL0     H74710  11.342   5.373   9.063  0.0946 -1.5366  1.7689
  566MOL0     H74711  11.443   5.865   9.281  0.7830 -0.4172 -0.2857
  566MOL0     H74712  11.205   5.914   9.230 -0.6851 -2.9675 -2.1611
  567MOL0     O74713   3.460   0.542   6.678 -0.2036  0.3373  0.1675
  567MOL0     C74714   3.398   0.512   6.578 -0.1117  0.1016 -0.0973
  567MOL0     O74715   3.443   0.519   6.451  0.2898  0.0645 -0.5751
  567MOL0     C74716   3.572   0.550   6.418 -0.8896  0.2009 -0.1113
  567MOL0     C74717   3.625   0.676   6.453 -0.2253  0.3392  0.4705
  567MOL0     C74718   3.757   0.709   6.415  0.3307 -0.0455  0.5001
  567MOL0     C74719   3.832   0.624   6.331 -0.3590  0.6902  0.0328
  567MOL0     O74720   3.965   0.641   6.284 -0.2587  0.4765 -0.4774
  567MOL0     C74721   4.029   0.759   6.337 -0.0415  0.3319  0.1691
  567MOL0     C74722   4.154   0.770   6.250  0.4879 -0.0626 -1.0797
  567MOL0     C74723   4.267   0.856   6.306 -0.8390 -0.8099  0.0197
  567MOL0     C74724   4.385   0.866   6.201 -0.4263  0.0890  0.8434
  567MOL0     C74725   4.519   0.891   6.266 -0.3635  0.5532  1.1057
  567MOL0     C74726   4.626   0.901   6.152  0.0126  0.7030 -0.1105
  567MOL0     C74727   4.644   1.042   6.106 -0.2419  0.3534  1.0864
  567MOL0     C74728   4.750   1.044   5.999  0.6547 -0.4910 -0.0082
  567MOL0     N74729   4.804   1.175   5.944 -0.0859  0.5272 -0.1313
  567MOL0     C74730   4.854   1.190   5.820 -1.7206 -0.6909 -0.2016
  567MOL0     C74731   4.873   1.329   5.831  0.0452  0.8172  0.1694
  567MOL0     C74732   4.924   1.429   5.740 -0.6806  0.2783  1.1631
  567MOL0     C74733   4.807   1.521   5.677  0.0068  0.9703  0.6176
  567MOL0     C74734   4.675   1.442   5.643  0.2390  0.2328 -0.4046
  567MOL0     C74735   4.682   1.390   5.497  1.2020  0.9782  0.3532
  567MOL0     O74736   4.570   1.290   5.480  0.7876  0.1546  0.4285
  567MOL0     C74737   4.459   1.336   5.418  0.6168 -0.0594  0.2902
  567MOL0     C74738   4.347   1.254   5.439  0.8962  0.0147 -0.4296
  567MOL0     C74739   4.218   1.289   5.407 -0.6819 -0.9987  0.0238
  567MOL0     C74740   4.201   1.420   5.356  0.2801  0.0144  0.9546
  567MOL0     C74741   4.057   1.468   5.334 -0.3630  0.9095 -0.8813
  567MOL0     O74742   3.961   1.401   5.409 -0.1817  0.1360 -0.5997
  567MOL0     C74743   3.828   1.429   5.393  0.6392 -0.0451 -0.3051
  567MOL0     C74744   3.769   1.446   5.273 -0.1675 -0.1231  0.5463
  567MOL0     C74745   3.633   1.448   5.254  0.2587 -0.8971 -0.0787
  567MOL0     C74746   3.544   1.440   5.363 -0.8404  0.3468  0.0546
  567MOL0     O74747   3.418   1.426   5.350  0.5612 -0.2453 -0.2088
  567MOL0     C74748   3.339   1.528   5.411  0.5760  0.6797  0.3489
  567MOL0     C74749   3.188   1.510   5.389  0.1262 -0.1359  0.9684
  567MOL0     C74750   3.119   1.383   5.445  0.8248 -0.1985  0.0862
  567MOL0     C74751   2.964   1.386   5.419 -0.0831  0.0649  0.0313
  567MOL0     C74752   2.877   1.261   5.452  0.3475 -0.6494  0.5029
  567MOL0     C74753   2.847   1.259   5.603  1.2674 -0.5610  0.5457
  567MOL0     C74754   2.753   1.147   5.651  0.1785 -0.3214  0.0278
  567MOL0     C74755   2.667   1.187   5.768  0.5089  0.7007  0.0971
  567MOL0    Cl74756   2.621   1.019   5.829 -0.6269 -0.2015  0.0687
  567MOL0     C74757   3.600   1.423   5.492 -0.6539  0.0173  0.0025
  567MOL0     C74758   3.739   1.422   5.508  0.1420 -0.2434  0.6700
  567MOL0     O74759   4.031   1.559   5.261  1.0660 -0.4318  0.1623
  567MOL0     C74760   4.305   1.507   5.343 -1.0145  0.8980  0.3419
  567MOL0     C74761   4.433   1.469   5.379  0.1238  0.0014 -0.1315
  567MOL0     N74762   4.828   1.385   5.949  0.5117  0.8905  0.7268
  567MOL0     N74763   4.787   1.287   6.015 -0.0807 -0.6956 -0.6804
  567MOL0     C74764   3.779   0.498   6.294  0.2664  0.3288 -0.2124
  567MOL0     C74765   3.646   0.470   6.331 -0.5335  0.1136 -0.8184
  567MOL0     C74766   3.260   0.470   6.601 -0.2798 -0.1563  0.6908
  567MOL0     C74767   3.196   0.384   6.505 -0.2811  0.1218 -0.0736
  567MOL0     C74768   3.061   0.349   6.505 -1.5998  1.0794 -0.3171
  567MOL0     C74769   2.983   0.385   6.614 -0.7380  0.5793  0.5593
  567MOL0     O74770   2.849   0.357   6.633  0.0983  0.1528 -0.0146
  567MOL0     C74771   2.793   0.249   6.561 -0.1748 -0.2673  0.4962
  567MOL0     C74772   2.642   0.223   6.596 -0.3684 -0.6092  0.1416
  567MOL0     C74773   2.578   0.106   6.509  0.9084 -0.2008  0.3525
  567MOL0     C74774   2.440   0.076   6.554 -0.4057  0.0369 -0.1814
  567MOL0     C74775   2.385  -0.055   6.509 -0.1717  0.5091 -0.5978
  567MOL0     C74776   2.339  -0.162   6.483 -0.1347  0.5984  0.4885
  567MOL0     C74777   3.046   0.455   6.715  0.3204  0.4021  0.2680
  567MOL0     C74778   3.183   0.497   6.716  0.0851  0.1655 -1.0498
  567MOL0     H74779   3.571   0.748   6.513 -1.2952  0.5440 -0.7082
  567MOL0     H74780   3.796   0.809   6.429 -0.9837  0.9387 -2.2821
  567MOL0     H74781   4.063   0.737   6.438 -0.5946  0.2158  0.3363
  567MOL0     H74782   3.963   0.846   6.326  0.2651  1.0265  3.0219
  567MOL0     H74783   4.130   0.820   6.156  3.5534  2.1394 -0.8458
  567MOL0     H74784   4.198   0.671   6.236  0.5219 -0.8604  3.2109
  567MOL0     H74785   4.297   0.820   6.405  0.7015  0.7271  0.1521
  567MOL0     H74786   4.228   0.956   6.324  0.9803 -0.3161  1.5532
  567MOL0     H74787   4.405   0.763   6.171  0.1406  0.1385  1.0319
  567MOL0     H74788   4.363   0.930   6.115 -0.0588 -1.9933 -0.8585
  567MOL0     H74789   4.551   0.807   6.329 -0.4232  0.0623  0.4926
  567MOL0     H74790   4.516   0.990   6.312 -1.1306  1.2879 -0.4372
  567MOL0     H74791   4.594   0.842   6.066 -1.7159  1.4912 -0.0514
  567MOL0     H74792   4.724   0.874   6.193  0.7372  2.9328 -0.2049
  567MOL0     H74793   4.545   1.069   6.066 -0.0790 -0.3022  0.2047
  567MOL0     H74794   4.671   1.118   6.180 -3.8813  1.4522  1.5044
  567MOL0     H74795   4.706   0.983   5.919  4.1005 -2.3867 -0.6576
  567MOL0     H74796   4.837   0.987   6.035 -1.0096 -1.7572  2.3362
  567MOL0     H74797   4.881   1.114   5.747 -0.7847  1.8006 -2.6283
  567MOL0     H74798   4.974   1.374   5.660 -0.7855  1.6366  0.1444
  567MOL0     H74799   4.990   1.501   5.789 -0.6789  0.9524  0.1955
  567MOL0     H74800   4.841   1.560   5.581 -2.5766 -1.5136 -1.4736
  567MOL0     H74801   4.792   1.603   5.748  0.9775 -1.0185  3.3213
  567MOL0     H74802   4.650   1.367   5.718 -1.6719  1.5267  0.3362
  567MOL0     H74803   4.598   1.517   5.662  1.3977  0.5182  4.1857
  567MOL0     H74804   4.772   1.333   5.472 -0.8510 -0.7559 -4.1990
  567MOL0     H74805   4.694   1.471   5.424 -0.2974  3.2019  2.4220
  567MOL0     H74806   4.361   1.155   5.481 -1.8547  0.6967  2.4912
  567MOL0     H74807   4.138   1.225   5.445 -1.5044 -0.1180 -0.1906
  567MOL0     H74808   3.837   1.445   5.187  2.4121  1.2609  2.4289
  567MOL0     H74809   3.604   1.462   5.150 -0.3364 -0.4731  0.1392
  567MOL0     H74810   3.361   1.634   5.395 -1.1224  1.3427  1.9908
  567MOL0     H74811   3.356   1.524   5.519 -1.4221  1.1301  0.7267
  567MOL0     H74812   3.188   1.514   5.280 -0.5205 -1.1572  0.9173
  567MOL0     H74813   3.130   1.597   5.421 -1.9555 -1.9843  2.4685
  567MOL0     H74814   3.135   1.375   5.553 -0.0717  0.1304  0.2525
  567MOL0     H74815   3.164   1.297   5.393 -2.1387 -1.2539 -0.9130
  567MOL0     H74816   2.921   1.471   5.472  0.2647  0.2067  0.0832
  567MOL0     H74817   2.956   1.409   5.312 -0.3008  1.6791  0.3702
  567MOL0     H74818   2.925   1.166   5.428 -3.4862 -2.3125 -1.3805
  567MOL0     H74819   2.786   1.261   5.391  1.3364  0.1565 -1.0414
  567MOL0     H74820   2.800   1.354   5.631  0.9944  0.0019 -1.6595
  567MOL0     H74821   2.943   1.244   5.652  0.3516 -1.7733  2.0970
  567MOL0     H74822   2.689   1.105   5.573 -1.6497  0.4029  1.0766
  567MOL0     H74823   2.815   1.069   5.695  2.9017  0.6882 -1.7574
  567MOL0     H74824   2.580   1.251   5.749  2.5542  3.3922 -0.6655
  567MOL0     H74825   2.724   1.239   5.845 -0.8680 -0.7609  2.2134
  567MOL0     H74826   3.532   1.420   5.577 -0.6687 -3.5230  0.0425
  567MOL0     H74827   3.783   1.415   5.607  1.2670 -0.3236  0.1871
  567MOL0     H74828   4.291   1.612   5.322  0.1022  0.8894 -0.4918
  567MOL0     H74829   4.508   1.545   5.363  0.5725 -0.2971  0.5508
  567MOL0     H74830   3.837   0.429   6.234  1.4571 -0.4976  1.8119
  567MOL0     H74831   3.601   0.374   6.306 -2.3312  0.3828  1.1425
  567MOL0     H74832   3.258   0.340   6.428  1.2674  1.9866  0.0286
  567MOL0     H74833   3.031   0.289   6.420  1.6446 -0.2741 -0.6739
  567MOL0     H74834   2.849   0.157   6.584 -0.8456 -0.7597  0.1984
  567MOL0     H74835   2.807   0.268   6.454  1.6300  0.0882  0.7637
  567MOL0     H74836   2.632   0.189   6.699 -0.8139  0.6664  0.5330
  567MOL0     H74837   2.586   0.314   6.576  1.3377  0.6909  1.0028
  567MOL0     H74838   2.644   0.019   6.506  0.9304 -0.1607 -1.4133
  567MOL0     H74839   2.570   0.137   6.404  0.3365  2.8168  1.1933
  567MOL0     H74840   2.438   0.057   6.661 -3.9519 -2.1498 -0.4550
  567MOL0     H74841   2.381   0.163   6.523 -1.5159 -1.3828 -2.3040
  567MOL0     H74842   2.298  -0.260   6.471  0.2086  0.5247 -0.1001
  567MOL0     H74843   2.980   0.480   6.797 -2.9978  1.7782 -2.5500
  567MOL0     H74844   3.218   0.557   6.799  0.7692 -1.9305  0.2593
  568MOL0     O74845   4.419   0.189   3.585 -0.6813 -0.4841 -0.0471
  568MOL0     C74846   4.496   0.269   3.634  0.5248 -0.6571 -0.0070
  568MOL0     O74847   4.467   0.358   3.730  0.0314 -0.6824 -0.7654
  568MOL0     C74848   4.338   0.371   3.775  1.1735  0.4434 -0.1209
  568MOL0     C74849   4.321   0.393   3.913  0.1599 -0.3653  0.1491
  568MOL0     C74850   4.195   0.421   3.962 -0.1606  0.2707 -0.0870
  568MOL0     C74851   4.084   0.438   3.873  0.1454  0.4260 -0.6055
  568MOL0     O74852   3.948   0.470   3.907 -0.7461  0.3668 -0.0919
  568MOL0     C74853   3.915   0.490   4.046  0.0748 -0.3010 -0.2389
  568MOL0     C74854   3.910   0.364   4.129  0.3305 -0.2627  0.2809
  568MOL0     C74855   3.841   0.395   4.257  0.6744 -0.0339 -0.7693
  568MOL0     C74856   3.767   0.278   4.316 -0.3895 -0.2642 -0.3127
  568MOL0     C74857   3.692   0.318   4.437 -0.1684  0.3567 -0.0257
  568MOL0     C74858   3.576   0.208   4.445 -0.3617  0.0728 -0.0796
  568MOL0     C74859   3.467   0.256   4.550  0.0243  0.7039  0.2019
  568MOL0     C74860   3.346   0.163   4.578  0.3528  0.4946 -0.0435
  568MOL0     N74861   3.372   0.029   4.623 -0.8312  0.5516  0.3454
  568MOL0     C74862   3.336  -0.023   4.749 -0.6294 -0.4529 -0.3488
  568MOL0     C74863   3.392  -0.145   4.765 -0.8632  0.1332  0.9741
  568MOL0     C74864   3.354  -0.247   4.865  0.6851 -0.0888 -0.6403
  568MOL0     C74865   3.284  -0.364   4.807  0.2995  0.1679 -0.9928
  568MOL0     C74866   3.174  -0.414   4.899  0.0593  0.4102 -0.6110
  568MOL0     C74867   3.099  -0.529   4.842  0.1562 -0.4443 -0.1231
  568MOL0     O74868   3.027  -0.607   4.938  0.7358  0.3725 -0.8408
  568MOL0     C74869   2.895  -0.583   4.959 -0.4446 -0.6870 -0.2604
  568MOL0     C74870   2.843  -0.666   5.062  0.0175  1.2398 -0.1502
  568MOL0     C74871   2.707  -0.664   5.102  0.1815 -0.5441  0.4805
  568MOL0     C74872   2.620  -0.568   5.044 -1.0116  0.4607 -0.2745
  568MOL0     C74873   2.480  -0.561   5.086  0.1912 -1.0839  0.2934
  568MOL0     O74874   2.437  -0.658   5.172 -0.4800 -0.4472  0.2121
  568MOL0     C74875   2.315  -0.649   5.218 -0.0190  0.1101  0.9894
  568MOL0     C74876   2.253  -0.532   5.281  0.3453  0.1123 -0.9271
  568MOL0     C74877   2.119  -0.525   5.316 -0.0631  1.4480  0.4417
  568MOL0     C74878   2.038  -0.636   5.287 -0.0185  0.5054 -0.0774
  568MOL0     O74879   1.913  -0.655   5.327 -0.3825  0.2174  0.7912
  568MOL0     C74880   1.840  -0.562   5.413  0.3157  0.7345 -0.2430
  568MOL0     C74881   1.712  -0.636   5.457  0.0878  0.4624  0.2465
  568MOL0     C74882   1.599  -0.552   5.527 -0.5826 -1.3237 -0.5748
  568MOL0     C74883   1.465  -0.630   5.517  0.3092 -0.0369 -0.7610
  568MOL0     C74884   1.354  -0.557   5.594 -0.6789  0.9460  0.0251
  568MOL0     C74885   1.231  -0.645   5.600  0.1986  0.1033  0.8270
  568MOL0     C74886   1.125  -0.600   5.704 -0.2904 -0.4539  0.4350
  568MOL0     C74887   1.003  -0.696   5.710  0.2167 -0.2291  0.1993
  568MOL0    Cl74888   0.925  -0.693   5.564  0.1970 -0.0961 -0.2720
  568MOL0     C74889   2.089  -0.752   5.232  0.4909 -0.4428  0.4564
  568MOL0     C74890   2.224  -0.759   5.200 -0.2312 -0.3949  0.2870
  568MOL0     O74891   2.406  -0.466   5.038 -0.3669  0.4256  0.3344
  568MOL0     C74892   2.668  -0.501   4.930  0.5195  0.0109  0.1013
  568MOL0     C74893   2.805  -0.504   4.887  0.8431 -0.5520  0.6072
  568MOL0     N74894   3.472  -0.166   4.651 -1.3721  0.0975 -0.7375
  568MOL0     N74895   3.458  -0.061   4.579  0.3552  0.3602  0.4130
  568MOL0     C74896   4.108   0.406   3.741 -0.6586 -0.6290  1.1538
  568MOL0     C74897   4.227   0.368   3.684  0.1821 -0.4653 -0.0068
  568MOL0     C74898   4.627   0.283   3.585 -0.5687  1.0756 -0.5869
  568MOL0     C74899   4.692   0.170   3.533 -0.0272 -0.2832 -0.9249
  568MOL0     C74900   4.829   0.173   3.503 -0.4292 -0.0623  0.4350
  568MOL0     C74901   4.907   0.282   3.509 -0.1159 -0.0608  0.4741
  568MOL0     O74902   5.039   0.300   3.500 -0.3930  0.3293  0.2161
  568MOL0     C74903   5.113   0.255   3.395 -0.7634  0.3034 -0.5049
  568MOL0     C74904   5.087   0.347   3.268 -0.2562 -0.0786  0.5806
  568MOL0     C74905   5.201   0.350   3.173 -0.2778 -0.0696 -0.9766
  568MOL0     C74906   5.232   0.204   3.123  0.4948  0.1766 -0.2623
  568MOL0     C74907   5.314   0.212   2.991 -0.9108  0.0715 -0.4430
  568MOL0     C74908   5.374   0.235   2.887 -0.0073 -0.3724 -1.0483
  568MOL0     C74909   4.843   0.402   3.548  0.2044 -0.4965 -0.1679
  568MOL0     C74910   4.708   0.399   3.598  0.6136  0.7361  0.6873
  568MOL0     H74911   4.405   0.384   3.981  0.3488 -0.9300 -0.1514
  568MOL0     H74912   4.174   0.425   4.068 -0.0972  0.3155 -0.0762
  568MOL0     H74913   3.812   0.529   4.047  0.1279 -0.1280  1.1518
  568MOL0     H74914   3.976   0.564   4.098 -2.5012  1.0234  1.1071
  568MOL0     H74915   4.008   0.317   4.143  1.0271  0.6619 -1.2393
  568MOL0     H74916   3.847   0.300   4.068 -0.2592  0.2368  0.3540
  568MOL0     H74917   3.762   0.467   4.232  1.0728 -0.0864 -2.3119
  568MOL0     H74918   3.909   0.430   4.334 -1.0538 -1.5245  1.5744
  568MOL0     H74919   3.698   0.244   4.239 -0.1408 -0.6148 -0.3843
  568MOL0     H74920   3.846   0.205   4.336 -1.1518 -0.4458  2.5153
  568MOL0     H74921   3.648   0.414   4.410  0.2109  0.1441 -1.5324
  568MOL0     H74922   3.763   0.313   4.520  2.6412 -2.5934 -2.3170
  568MOL0     H74923   3.618   0.111   4.474 -0.7335  0.3973  1.6647
  568MOL0     H74924   3.527   0.197   4.348  0.9406  1.2637 -0.9114
  568MOL0     H74925   3.521   0.273   4.643  0.4825 -2.3309  0.6053
  568MOL0     H74926   3.427   0.357   4.533 -1.5363  0.6472  2.9497
  568MOL0     H74927   3.290   0.147   4.485  0.3476  1.1879 -0.1623
  568MOL0     H74928   3.272   0.210   4.643 -1.0194 -2.1348  0.4354
  568MOL0     H74929   3.266   0.022   4.818  1.4077  3.2575 -0.4440
  568MOL0     H74930   3.299  -0.204   4.950  0.8213 -1.0488 -0.0466
  568MOL0     H74931   3.445  -0.275   4.919 -0.6004 -1.6874  0.8744
  568MOL0     H74932   3.351  -0.448   4.785 -2.7621 -2.1282 -2.3968
  568MOL0     H74933   3.244  -0.350   4.707  0.3029  1.2110 -0.8563
  568MOL0     H74934   3.220  -0.436   4.996  1.2436 -1.3842 -1.5217
  568MOL0     H74935   3.104  -0.331   4.906  0.2881  0.6339 -0.9509
  568MOL0     H74936   3.163  -0.598   4.786 -0.9448  0.2403 -2.3517
  568MOL0     H74937   3.035  -0.478   4.770  0.0596 -0.2200  0.1222
  568MOL0     H74938   2.915  -0.728   5.114 -1.3582 -1.7958 -1.6497
  568MOL0     H74939   2.670  -0.734   5.177 -0.6821 -0.5106  0.0902
  568MOL0     H74940   2.324  -0.454   5.310  3.7612 -3.9861  3.3206
  568MOL0     H74941   2.070  -0.438   5.356  2.4956  3.0919  0.2290
  568MOL0     H74942   1.811  -0.470   5.361  1.9217  1.0253 -0.6579
  568MOL0     H74943   1.898  -0.534   5.501 -0.5839  0.2778  0.5150
  568MOL0     H74944   1.735  -0.725   5.515  0.1115 -0.3441 -0.9556
  568MOL0     H74945   1.666  -0.696   5.378  2.1030 -2.0309  0.8374
  568MOL0     H74946   1.600  -0.454   5.478 -0.5125 -0.0708  1.7948
  568MOL0     H74947   1.628  -0.530   5.630  4.7436 -1.0797 -1.8341
  568MOL0     H74948   1.443  -0.649   5.412  1.6494  1.5162 -1.3438
  568MOL0     H74949   1.478  -0.720   5.578 -3.9584  0.2985  1.0196
  568MOL0     H74950   1.325  -0.465   5.544  1.5386  2.0081  0.5845
  568MOL0     H74951   1.400  -0.535   5.691 -0.9282  3.7132 -0.4099
  568MOL0     H74952   1.268  -0.745   5.625  3.4713  1.3967  1.5773
  568MOL0     H74953   1.192  -0.652   5.498  0.2491  2.2708  0.6149
  568MOL0     H74954   1.170  -0.605   5.804 -0.6565  0.7752  0.6803
  568MOL0     H74955   1.098  -0.495   5.688  0.3065  0.0136  2.2698
  568MOL0     H74956   0.935  -0.667   5.791 -0.7651  1.3239 -1.1024
  568MOL0     H74957   1.024  -0.803   5.712 -0.9585 -0.6475 -3.0440
  568MOL0     H74958   2.034  -0.843   5.206 -0.8831  1.5170 -4.7036
  568MOL0     H74959   2.273  -0.838   5.144 -3.3795 -2.4730  0.2378
  568MOL0     H74960   2.598  -0.436   4.878 -0.9223  0.2307  2.1932
  568MOL0     H74961   2.830  -0.455   4.793 -1.9799 -0.5047 -0.2105
  568MOL0     H74962   4.035   0.409   3.661  0.3318 -1.8296  0.1600
  568MOL0     H74963   4.223   0.342   3.579  4.0655  0.9423 -0.6556
  568MOL0     H74964   4.638   0.077   3.525 -0.4694  0.0934 -3.0723
  568MOL0     H74965   4.873   0.076   3.482  2.6226  1.6001 -1.5596
  568MOL0     H74966   5.086   0.155   3.359 -0.1340  0.2800 -0.9067
  568MOL0     H74967   5.215   0.255   3.432 -0.2847  2.1096 -1.7363
  568MOL0     H74968   5.006   0.307   3.206  2.5423 -2.1849 -2.0226
  568MOL0     H74969   5.068   0.449   3.304  0.8287  0.6105 -0.6854
  568MOL0     H74970   5.292   0.394   3.214 -1.3097  2.0435 -0.8157
  568MOL0     H74971   5.179   0.414   3.086  5.2688  2.1434 -1.1228
  568MOL0     H74972   5.288   0.160   3.206  1.3781  1.0744 -0.3628
  568MOL0     H74973   5.137   0.153   3.103 -0.2246  1.4369 -0.1519
  568MOL0     H74974   5.441   0.258   2.807  3.7744 -0.9638  1.6409
  568MOL0     H74975   4.890   0.498   3.572 -2.6826  0.9169  0.2846
  568MOL0     H74976   4.668   0.479   3.661  1.7784  1.7416  0.1825
  569MOL0     O74977   7.356   3.037  10.994 -0.0159 -0.1823 -0.4811
  569MOL0     C74978   7.303   2.925  10.984  0.0704 -0.0834  0.2462
  569MOL0     O74979   7.374   2.803  10.988  0.4795  0.4832  0.1382
  569MOL0     C74980   7.506   2.800  11.014 -1.0542  0.2004 -0.3444
  569MOL0     C74981   7.543   2.760  11.146 -0.4363  0.3437  0.4497
  569MOL0     C74982   7.679   2.757  11.187 -0.8165 -0.0254  0.2143
  569MOL0     C74983   7.781   2.805  11.098  0.2074 -0.0061 -0.5228
  569MOL0     O74984   7.916   2.789  11.131  0.0911  0.3334 -0.8576
  569MOL0     C74985   8.012   2.783  11.025 -0.0506  0.2196  0.0543
  569MOL0     C74986   8.154   2.754  11.086 -0.1308 -0.2317 -0.8002
  569MOL0     C74987   8.246   2.739  10.971  0.9916  0.1432 -0.6488
  569MOL0     C74988   8.382   2.682  11.019  1.0486  0.3466  0.2821
  569MOL0     C74989   8.465   2.783  11.089 -0.3261 -0.3633  1.0221
  569MOL0     C74990   8.575   2.714  11.171  0.5632 -0.8764 -0.0678
  569MOL0     C74991   8.684   2.649  11.085 -0.4158  0.5997  0.6036
  569MOL0     C74992   8.793   2.743  11.032 -0.1202 -0.0404  0.4874
  569MOL0     N74993   8.908   2.676  10.961  0.0797 -0.6692  0.2133
  569MOL0     C74994   8.969   2.554  10.986 -0.6117 -0.5140  0.2386
  569MOL0     C74995   9.044   2.533  10.877 -0.4810 -0.8963 -1.2312
  569MOL0     C74996   9.117   2.405  10.833  0.0037  0.6200 -0.9219
  569MOL0     C74997   9.038   2.325  10.740 -0.5314 -0.0679 -0.0087
  569MOL0     C74998   9.114   2.202  10.680  0.6037  0.3054 -0.4478
  569MOL0     C74999   9.225   2.237  10.588 -0.0608  0.0464 -0.5783
  569MOL0     O75000   9.181   2.317  10.484  0.2293  0.4534  0.4113
  569MOL0     C75001   9.271   2.352  10.393  0.2524 -0.8527  0.3431
  569MOL0     C75002   9.394   2.411  10.424 -0.4017 -0.6622  0.1875
  569MOL0     C75003   9.491   2.443  10.326  0.3454 -0.4446 -0.4126
  569MOL0     C75004   9.454   2.444  10.195 -0.9642  0.8255  0.3687
  569MOL0     C75005   9.547   2.506  10.092 -0.0860  0.2536  0.8968
  569MOL0     O75006   9.506   2.502   9.965 -0.5003 -0.1681  0.3343
  569MOL0     C75007   9.587   2.559   9.872 -0.1008 -0.2262  0.5557
  569MOL0     C75008   9.561   2.682   9.810  0.8011  0.5413 -0.1869
  569MOL0     C75009   9.640   2.730   9.707 -0.2813 -0.6275  0.5141
  569MOL0     C75010   9.760   2.669   9.668 -0.0008  0.7945 -0.0500
  569MOL0     O75011   9.855   2.711   9.576 -1.3316  0.3957 -0.1041
  569MOL0     C75012   9.835   2.846   9.534  0.7473 -0.7010  0.1516
  569MOL0     C75013   9.959   2.909   9.468  0.0089 -0.5168  0.4516
  569MOL0     C75014   9.911   3.010   9.373 -0.0133 -0.8962 -0.3561
  569MOL0     C75015  10.015   3.108   9.326  0.2680 -0.2580  0.0047
  569MOL0     C75016  10.151   3.057   9.278  0.8789  0.2524  0.2926
  569MOL0     C75017  10.231   3.175   9.226 -0.1898 -0.5779 -0.0407
  569MOL0     C75018  10.365   3.120   9.191 -0.8117  0.5801 -0.3457
  569MOL0     C75019  10.467   3.222   9.162  0.6488 -0.1502  0.6202
  569MOL0    Cl75020  10.614   3.134   9.151  0.0807  0.2422  0.4214
  569MOL0     C75021   9.782   2.550   9.733  0.2244  0.4954 -0.4617
  569MOL0     C75022   9.704   2.491   9.837  0.0119 -0.3204  0.3609
  569MOL0     O75023   9.657   2.533  10.129 -1.3220 -0.1523  0.0363
  569MOL0     C75024   9.326   2.387  10.159  0.2772 -0.5406  0.0324
  569MOL0     C75025   9.236   2.351  10.258 -0.8237  0.1904 -0.0957
  569MOL0     N75026   9.043   2.642  10.795  1.0709 -0.7222  0.3277
  569MOL0     N75027   8.964   2.732  10.849 -0.3153  0.5336  0.7671
  569MOL0     C75028   7.741   2.853  10.973 -0.4909  0.0327  0.1600
  569MOL0     C75029   7.608   2.841  10.927 -0.6103 -0.1682 -0.7573
  569MOL0     C75030   7.154   2.929  10.966  0.1001 -0.8103 -0.6863
  569MOL0     C75031   7.074   2.813  10.980  0.5279 -0.4513 -0.9677
  569MOL0     C75032   6.936   2.833  11.003  0.1882  0.1397 -0.6548
  569MOL0     C75033   6.864   2.943  10.975  1.2349  0.2240  0.0888
  569MOL0     O75034   6.726   2.940  10.990 -0.3046  0.5682  0.4387
  569MOL0     C75035   6.647   3.062  10.991  0.4017 -0.0520  0.3407
  569MOL0     C75036   6.509   3.016  11.026  0.5438  0.3532  0.6486
  569MOL0     C75037   6.503   2.993  11.174  0.7861  0.1150  0.6815
  569MOL0     C75038   6.366   2.938  11.228  0.6127  0.1397  0.6766
  569MOL0     C75039   6.262   3.045  11.220 -0.1167 -0.8710 -1.3857
  569MOL0     C75040   6.179   3.130  11.213  0.1829 -0.4579  0.7895
  569MOL0     C75041   6.938   3.057  10.937 -0.1469  0.5346 -0.2549
  569MOL0     C75042   7.081   3.050  10.926 -0.4252 -0.3400 -0.4249
  569MOL0     H75043   7.462   2.755  11.218  1.2012  1.0007  2.4319
  569MOL0     H75044   7.705   2.703  11.277 -1.2122 -2.3952 -1.0106
  569MOL0     H75045   8.013   2.875  10.965  1.0189 -0.2131 -0.6153
  569MOL0     H75046   7.983   2.693  10.968 -0.1169 -2.3957  3.8674
  569MOL0     H75047   8.141   2.659  11.140  1.5077  0.5519  1.1223
  569MOL0     H75048   8.179   2.832  11.159 -0.1212  0.6028 -1.6852
  569MOL0     H75049   8.268   2.837  10.927  2.5210  0.2619  0.3322
  569MOL0     H75050   8.196   2.670  10.903  1.6303  0.3023 -1.2891
  569MOL0     H75051   8.366   2.594  11.082 -1.9552  0.6029  0.0500
  569MOL0     H75052   8.435   2.649  10.930  1.1296  0.0286  0.4457
  569MOL0     H75053   8.402   2.828  11.166 -1.9015 -0.2490 -0.3015
  569MOL0     H75054   8.509   2.854  11.019 -0.2950 -3.3545 -2.2513
  569MOL0     H75055   8.525   2.634  11.227 -0.9744 -1.0300 -1.5821
  569MOL0     H75056   8.617   2.793  11.233 -1.9539  0.2080  0.3550
  569MOL0     H75057   8.735   2.572  11.143 -0.8806 -1.7405 -1.9133
  569MOL0     H75058   8.639   2.581  11.012 -0.6182  0.5956  0.7295
  569MOL0     H75059   8.822   2.793  11.125  0.6676 -2.1229  1.4146
  569MOL0     H75060   8.762   2.814  10.954  1.9276 -0.0643 -0.4123
  569MOL0     H75061   8.934   2.483  11.061  0.7549 -0.5227  0.9040
  569MOL0     H75062   9.135   2.348  10.925 -0.7795  2.2792  0.3008
  569MOL0     H75063   9.215   2.427  10.789  1.0163 -2.7125 -0.6667
  569MOL0     H75064   9.018   2.401  10.664  2.8022 -0.0579 -1.0326
  569MOL0     H75065   8.951   2.278  10.786 -0.9123  1.0158  0.4072
  569MOL0     H75066   9.155   2.146  10.765 -0.8861  1.5614  1.1793
  569MOL0     H75067   9.042   2.143  10.624 -0.1108 -1.6660  2.3214
  569MOL0     H75068   9.275   2.145  10.554 -1.7277 -1.0632 -0.1489
  569MOL0     H75069   9.306   2.298  10.629 -0.8808  1.3035 -0.7987
  569MOL0     H75070   9.411   2.436  10.528 -0.2223 -1.9008  0.4775
  569MOL0     H75071   9.590   2.475  10.358  1.2144 -1.2604 -2.1778
  569MOL0     H75072   9.472   2.729   9.851 -0.4519 -2.2038  0.4903
  569MOL0     H75073   9.603   2.811   9.645  0.8852 -2.0279 -2.1853
  569MOL0     H75074   9.812   2.907   9.622 -2.2264 -0.7788 -0.4722
  569MOL0     H75075   9.747   2.855   9.469 -1.1335 -1.4667  2.4241
  569MOL0     H75076  10.012   2.830   9.414  0.4826  0.7406 -0.9858
  569MOL0     H75077  10.015   2.950   9.552  0.0499 -1.4689  0.9018
  569MOL0     H75078   9.837   3.075   9.421  3.1436  1.0185  2.3081
  569MOL0     H75079   9.866   2.960   9.286  0.7043  0.5473 -1.5899
  569MOL0     H75080   9.975   3.160   9.238 -1.1431 -0.3411  0.5681
  569MOL0     H75081  10.030   3.185   9.402  2.2943 -0.6592  0.0626
  569MOL0     H75082  10.144   2.983   9.197  1.9970 -0.9496  1.2520
  569MOL0     H75083  10.202   3.007   9.361 -2.6895  1.6753  3.6610
  569MOL0     H75084  10.241   3.243   9.311  0.4879 -1.6432  0.7646
  569MOL0     H75085  10.189   3.224   9.138 -1.2764 -2.2649 -0.5022
  569MOL0     H75086  10.410   3.062   9.272  0.3365 -1.5939 -2.3964
  569MOL0     H75087  10.346   3.042   9.116 -1.1130 -1.8474  2.1135
  569MOL0     H75088  10.467   3.296   9.242 -0.5154 -2.2740  2.7505
  569MOL0     H75089  10.446   3.275   9.069  1.3682 -0.5887  0.1951
  569MOL0     H75090   9.867   2.491   9.701 -1.9432 -1.2986 -3.4479
  569MOL0     H75091   9.738   2.399   9.882 -1.9544 -0.0402  2.5961
  569MOL0     H75092   9.293   2.375  10.056  1.0476  0.6602 -0.3760
  569MOL0     H75093   9.144   2.302  10.228  0.6315 -3.1624  0.5771
  569MOL0     H75094   7.807   2.916  10.915 -0.7519  0.7946  0.6705
  569MOL0     H75095   7.576   2.897  10.840 -2.7625  0.0833  0.1443
  569MOL0     H75096   7.119   2.714  10.980  1.4220 -0.0553 -1.5789
  569MOL0     H75097   6.888   2.742  11.037  0.9867 -0.5852 -1.4215
  569MOL0     H75098   6.656   3.107  10.891  1.5489 -2.1691 -0.5847
  569MOL0     H75099   6.689   3.138  11.057  1.8398  1.6068 -2.3001
  569MOL0     H75100   6.426   3.076  10.987 -1.7915 -2.4903  0.9461
  569MOL0     H75101   6.506   2.921  10.972 -0.5752  0.2753  0.8185
  569MOL0     H75102   6.526   3.089  11.220 -0.2495  0.8514 -0.2767
  569MOL0     H75103   6.577   2.916  11.200  4.4229  2.7319 -1.0442
  569MOL0     H75104   6.332   2.853  11.169 -0.7221  1.3688 -0.3741
  569MOL0     H75105   6.368   2.913  11.335  0.5056  2.6183  1.3211
  569MOL0     H75106   6.104   3.206  11.200 -0.4139 -1.4830 -3.6806
  569MOL0     H75107   6.905   3.160  10.929  5.2954  2.6834  0.5713
  569MOL0     H75108   7.140   3.138  10.901 -0.1635 -0.6014 -0.7308
  570MOL0     O75109  11.325   7.727   2.499 -0.9190  0.3174 -0.2726
  570MOL0     C75110  11.405   7.635   2.500  0.0495 -0.2773 -0.4693
  570MOL0     O75111  11.371   7.507   2.505 -0.0019  0.5835  0.4131
  570MOL0     C75112  11.240   7.469   2.485  0.0190  0.1397  0.4431
  570MOL0     C75113  11.194   7.364   2.574  0.9351 -0.1296 -0.4681
  570MOL0     C75114  11.055   7.326   2.567 -0.0024 -0.6914  0.4811
  570MOL0     C75115  10.968   7.388   2.466 -0.3921  0.5244  0.5035
  570MOL0     O75116  10.832   7.352   2.469  0.2669 -0.4753  0.5231
  570MOL0     C75117  10.747   7.427   2.382  1.1685  0.7525 -0.2051
  570MOL0     C75118  10.601   7.382   2.403 -0.4638 -0.7428 -0.0462
  570MOL0     C75119  10.508   7.452   2.315 -0.6226 -0.2183 -0.6070
  570MOL0     C75120  10.363   7.418   2.355 -0.5177  0.7437  0.7298
  570MOL0     C75121  10.267   7.497   2.257  0.0966 -0.0845 -0.9343
  570MOL0     C75122  10.124   7.463   2.278  0.0648  0.2974 -0.4257
  570MOL0     C75123  10.030   7.551   2.184  0.1726 -0.3610 -0.6136
  570MOL0     C75124  10.013   7.690   2.232 -0.0882 -0.2712  0.3751
  570MOL0     N75125   9.917   7.768   2.160 -0.1123  0.2910 -0.7383
  570MOL0     C75126   9.797   7.823   2.205  0.5902 -0.2046  0.1179
  570MOL0     C75127   9.752   7.901   2.102 -1.4568  0.2846  0.2370
  570MOL0     C75128   9.608   7.964   2.092 -0.5584 -0.4454  0.0734
  570MOL0     C75129   9.602   8.067   2.206  0.2941  0.2918  0.3957
  570MOL0     C75130   9.713   8.179   2.196 -0.2106 -0.9854 -0.4144
  570MOL0     C75131   9.693   8.287   2.083  0.2854  0.5852  0.8678
  570MOL0     O75132   9.809   8.357   2.042 -0.7757  0.0147 -0.3775
  570MOL0     C75133   9.793   8.458   1.952  0.2900  0.9280  0.4225
  570MOL0     C75134   9.673   8.479   1.884 -0.3178  0.4907  1.2793
  570MOL0     C75135   9.679   8.572   1.777  0.7114 -0.5819 -0.4014
  570MOL0     C75136   9.792   8.642   1.738 -0.6365 -0.4838  0.3092
  570MOL0     C75137   9.784   8.744   1.632  0.6183 -0.4086 -0.4304
  570MOL0     O75138   9.907   8.794   1.594  0.3234 -0.2673 -0.3533
  570MOL0     C75139   9.925   8.890   1.492  0.2996 -0.6976  0.1896
  570MOL0     C75140  10.061   8.927   1.467  0.0361  0.0572 -0.0875
  570MOL0     C75141  10.091   9.018   1.370  0.6426  0.6322 -0.8132
  570MOL0     C75142   9.987   9.071   1.293 -0.2395  0.6839  0.0098
  570MOL0     O75143  10.010   9.163   1.197  0.1931  0.4608  0.0334
  570MOL0     C75144  10.142   9.219   1.176 -0.1429 -1.3512  1.2099
  570MOL0     C75145  10.225   9.131   1.080 -0.0346  1.0922 -0.1583
  570MOL0     C75146  10.338   9.221   1.019  0.6019  0.0576  0.5263
  570MOL0     C75147  10.441   9.130   0.951 -0.7376  0.1497  0.2405
  570MOL0     C75148  10.534   9.190   0.847  0.5977 -0.1361  0.5516
  570MOL0     C75149  10.622   9.086   0.782 -0.7887 -0.0937 -1.0735
  570MOL0     C75150  10.694   9.143   0.653 -0.2822 -0.2737  0.2343
  570MOL0     C75151  10.804   9.053   0.601 -1.1574 -0.0336  0.3741
  570MOL0    Cl75152  10.764   8.886   0.581 -0.0810  0.4160  0.2237
  570MOL0     C75153   9.858   9.031   1.310  0.1467  0.1003  0.7295
  570MOL0     C75154   9.824   8.936   1.404 -0.0111  0.8013 -0.1436
  570MOL0     O75155   9.663   8.776   1.595 -0.3888 -0.2772  0.2070
  570MOL0     C75156   9.913   8.616   1.809  0.4520 -0.3903  0.3270
  570MOL0     C75157   9.914   8.520   1.913  0.2881  0.0844 -0.4874
  570MOL0     N75158   9.843   7.885   2.002 -0.6763 -0.7317  0.9818
  570MOL0     N75159   9.936   7.804   2.032 -0.1402  0.7502  0.4744
  570MOL0     C75160  11.027   7.486   2.377  0.5977 -0.5476  0.5812
  570MOL0     C75161  11.158   7.532   2.386  0.4660  0.3598  0.9858
  570MOL0     C75162  11.550   7.673   2.503  0.6315 -0.6471  0.1610
  570MOL0     C75163  11.653   7.580   2.457  0.1309 -0.3957  0.1800
  570MOL0     C75164  11.788   7.616   2.471 -0.4236  1.2150 -0.0523
  570MOL0     C75165  11.829   7.742   2.522 -0.1902  0.0571  0.4643
  570MOL0     O75166  11.955   7.805   2.520 -0.7519  0.8666 -0.0648
  570MOL0     C75167  12.069   7.726   2.493 -1.0084  0.1354  0.3044
  570MOL0     C75168  12.189   7.821   2.460  0.2665 -0.4349  0.1579
  570MOL0     C75169  12.248   7.870   2.592 -0.2093  0.8536 -0.3221
  570MOL0     C75170  12.363   7.780   2.649 -0.0153  0.3121  0.0756
  570MOL0     C75171  12.424   7.841   2.764 -0.6813 -0.0886 -0.8654
  570MOL0     C75172  12.490   7.885   2.855  0.0392  0.0531  0.2455
  570MOL0     C75173  11.735   7.831   2.572  0.1272 -0.4670 -0.1020
  570MOL0     C75174  11.598   7.796   2.558  0.2840  1.5289 -0.1087
  570MOL0     H75175  11.263   7.318   2.644  2.2158  3.8284  1.1606
  570MOL0     H75176  11.009   7.248   2.628 -2.3561  0.4783  0.3185
  570MOL0     H75177  10.768   7.422   2.274  1.8321 -0.8955 -0.0205
  570MOL0     H75178  10.739   7.527   2.426 -4.4704  1.2291 -1.5994
  570MOL0     H75179  10.570   7.393   2.508 -4.9724  1.5913 -1.3775
  570MOL0     H75180  10.601   7.275   2.386  0.0929 -0.4445 -2.1603
  570MOL0     H75181  10.522   7.440   2.207 -3.7267  3.1123 -1.5810
  570MOL0     H75182  10.521   7.561   2.322 -2.2683 -0.0791  0.9336
  570MOL0     H75183  10.346   7.310   2.356 -1.4407  0.8009 -1.7847
  570MOL0     H75184  10.332   7.451   2.454 -0.4479 -1.5518  1.5850
  570MOL0     H75185  10.295   7.480   2.152  0.2650  3.8931 -1.6901
  570MOL0     H75186  10.279   7.604   2.270  1.4463 -0.5416  2.5470
  570MOL0     H75187  10.087   7.478   2.380 -0.2993  0.4802 -0.5819
  570MOL0     H75188  10.108   7.358   2.250 -2.8460  0.3913  0.5819
  570MOL0     H75189  10.070   7.552   2.083  1.8071  0.4380  0.0065
  570MOL0     H75190   9.933   7.500   2.175  0.3942 -0.4658 -2.8522
  570MOL0     H75191  10.106   7.746   2.220  1.3943 -1.9283  3.1128
  570MOL0     H75192   9.985   7.682   2.338  0.2527  0.1187  0.4993
  570MOL0     H75193   9.741   7.789   2.291  1.3513 -1.7881  0.0211
  570MOL0     H75194   9.524   7.893   2.092 -2.3306  1.4793 -2.2537
  570MOL0     H75195   9.598   8.015   1.996 -0.0498 -0.3837  0.0475
  570MOL0     H75196   9.604   8.006   2.296  0.9643  2.7551  2.1569
  570MOL0     H75197   9.506   8.118   2.192  0.3721 -0.2597 -3.0025
  570MOL0     H75198   9.709   8.237   2.288 -1.6244 -0.2172 -0.9325
  570MOL0     H75199   9.814   8.136   2.188  0.7891  0.9644  0.9931
  570MOL0     H75200   9.614   8.355   2.118  0.9852  1.3115  1.0703
  570MOL0     H75201   9.657   8.235   1.994 -0.9999  2.4611  0.2061
  570MOL0     H75202   9.582   8.421   1.896  0.1605 -0.7180 -0.5652
  570MOL0     H75203   9.581   8.595   1.738  1.2196  1.1501 -0.7589
  570MOL0     H75204  10.139   8.888   1.533 -1.4341  1.5833  2.7591
  570MOL0     H75205  10.197   9.042   1.364  0.5265  0.7821 -2.6648
  570MOL0     H75206  10.203   9.230   1.266  3.8650  0.3417 -1.4497
  570MOL0     H75207  10.136   9.316   1.126  1.5124 -1.0750  1.4933
  570MOL0     H75208  10.160   9.088   1.004  2.4031  1.9005 -2.8965
  570MOL0     H75209  10.267   9.056   1.148  0.3892 -0.8016 -2.3743
  570MOL0     H75210  10.394   9.287   1.086  4.5224 -3.7006  1.4397
  570MOL0     H75211  10.286   9.275   0.939 -0.5702  1.0752  1.9323
  570MOL0     H75212  10.495   9.096   1.040 -2.2142 -0.5730  0.9100
  570MOL0     H75213  10.380   9.047   0.913 -3.0613  1.8534 -0.0169
  570MOL0     H75214  10.586   9.278   0.884 -3.5929  3.0272 -0.2553
  570MOL0     H75215  10.474   9.228   0.763  0.3794 -2.6945 -0.5481
  570MOL0     H75216  10.562   8.999   0.753 -1.6981 -0.3071  1.2697
  570MOL0     H75217  10.690   9.040   0.854 -1.9743 -2.9052 -1.6111
  570MOL0     H75218  10.627   9.165   0.570  2.2210 -0.0863 -1.8566
  570MOL0     H75219  10.740   9.238   0.685 -1.5820  0.0253  1.2947
  570MOL0     H75220  10.883   9.052   0.676  0.2087  0.5499 -1.0007
  570MOL0     H75221  10.837   9.079   0.500  2.4851 -2.2551  0.8025
  570MOL0     H75222   9.789   9.056   1.230 -0.7207 -2.4120  0.6110
  570MOL0     H75223   9.720   8.906   1.417 -0.7899  3.1238 -0.4980
  570MOL0     H75224  10.006   8.657   1.773  0.3242 -0.0111  0.4156
  570MOL0     H75225  10.000   8.492   1.972 -1.1329 -0.5489  1.3853
  570MOL0     H75226  10.966   7.508   2.290 -0.1736  1.0323  1.4821
  570MOL0     H75227  11.187   7.605   2.311  1.9910 -0.2791  0.9280
  570MOL0     H75228  11.629   7.479   2.423  1.1545 -0.7796  0.5788
  570MOL0     H75229  11.856   7.545   2.426 -1.2877  0.7152 -0.5939
  570MOL0     H75230  12.054   7.661   2.406  1.6171  1.8312 -1.5593
  570MOL0     H75231  12.093   7.667   2.581  0.1063  0.1839  0.0531
  570MOL0     H75232  12.265   7.765   2.405 -1.7349 -3.0759 -0.1749
  570MOL0     H75233  12.152   7.903   2.398 -0.3317 -1.5215 -0.9927
  570MOL0     H75234  12.169   7.888   2.666 -0.2949 -0.9477  0.0564
  570MOL0     H75235  12.291   7.971   2.586 -0.0478  0.8456  0.5913
  570MOL0     H75236  12.324   7.681   2.672 -1.3160  0.3895 -1.5936
  570MOL0     H75237  12.452   7.768   2.587  1.4713 -1.1965  2.3411
  570MOL0     H75238  12.532   7.916   2.948 -0.0980 -2.4242  1.2028
  570MOL0     H75239  11.761   7.932   2.601 -1.0853  0.2709 -1.4522
  570MOL0     H75240  11.519   7.862   2.591 -2.2581 -1.8022  1.1211
  571MOL0     O75241   9.205  10.385   6.563  0.8219  0.4699  0.4193
  571MOL0     C75242   9.271  10.347   6.658  0.2745  1.0912  0.6573
  571MOL0     O75243   9.230  10.253   6.744  0.2683 -0.0121  0.2368
  571MOL0     C75244   9.107  10.201   6.723  0.1655  0.6887 -0.8477
  571MOL0     C75245   9.090  10.068   6.672  0.6586 -0.0571  0.8210
  571MOL0     C75246   8.964  10.014   6.664  0.6694  0.0992 -0.0351
  571MOL0     C75247   8.852  10.092   6.694  0.1058 -0.1097  0.0342
  571MOL0     O75248   8.726  10.035   6.684 -0.9201 -0.9984  0.4308
  571MOL0     C75249   8.615  10.109   6.635 -0.0743  0.5825  0.2477
  571MOL0     C75250   8.497  10.017   6.665 -0.3805  0.2497 -0.0381
  571MOL0     C75251   8.367  10.087   6.617  0.1588  1.0680  0.4794
  571MOL0     C75252   8.333  10.035   6.471 -0.8827  0.3287 -0.9482
  571MOL0     C75253   8.206  10.104   6.436 -0.1667  0.7102  0.3927
  571MOL0     C75254   8.150  10.061   6.296 -0.5053 -0.1987 -0.1296
  571MOL0     C75255   8.002  10.095   6.281  0.2125 -0.2790 -0.0091
  571MOL0     C75256   7.944  10.073   6.139 -0.7938 -0.1961 -0.5049
  571MOL0     N75257   7.954   9.931   6.102  0.1539 -0.8446  0.7878
  571MOL0     C75258   7.885   9.822   6.153 -0.8272  0.9125  0.3286
  571MOL0     C75259   7.944   9.717   6.085  0.0042 -0.2660  0.0127
  571MOL0     C75260   7.892   9.580   6.092  0.2161  1.1222  0.3606
  571MOL0     C75261   7.979   9.473   6.171  0.6044 -0.5121 -0.6997
  571MOL0     C75262   7.924   9.337   6.195  0.3067 -0.5975 -1.0856
  571MOL0     C75263   7.886   9.262   6.061 -0.3262  0.5465 -0.7638
  571MOL0     O75264   7.744   9.291   6.029 -0.8288 -0.0445  0.1425
  571MOL0     C75265   7.640   9.227   6.082  0.0082 -1.2347  0.4603
  571MOL0     C75266   7.654   9.132   6.186  0.8829  0.2562 -0.2385
  571MOL0     C75267   7.541   9.072   6.243 -0.3108  0.2907  0.8066
  571MOL0     C75268   7.409   9.111   6.198  0.0366  0.5239  0.5469
  571MOL0     C75269   7.285   9.050   6.262  0.2695 -0.1631 -0.1272
  571MOL0     O75270   7.158   9.074   6.214 -0.3148  0.5808 -0.3396
  571MOL0     C75271   7.063   9.016   6.292  0.5256  0.0013  0.4217
  571MOL0     C75272   6.959   8.960   6.223  0.2909  0.1993  0.3504
  571MOL0     C75273   6.835   8.921   6.289  0.0979  0.6910 -1.5140
  571MOL0     C75274   6.818   8.949   6.423  0.2331 -0.2468 -0.0320
  571MOL0     O75275   6.714   8.907   6.491  0.3230 -0.2225  0.2412
  571MOL0     C75276   6.608   8.836   6.420  0.4504 -0.1223  0.0380
  571MOL0     C75277   6.490   8.804   6.521  0.2027 -0.0971  0.4050
  571MOL0     C75278   6.413   8.674   6.461 -0.5074 -0.6712 -0.6173
  571MOL0     C75279   6.274   8.644   6.528  0.1806 -0.2016  0.1092
  571MOL0     C75280   6.194   8.539   6.449  0.6427 -0.3371 -0.1976
  571MOL0     C75281   6.054   8.517   6.524 -0.7845 -0.5646 -0.5863
  571MOL0     C75282   5.940   8.467   6.439  0.1495  0.3668 -0.6744
  571MOL0     C75283   5.804   8.450   6.518  0.1917 -0.3288 -0.9212
  571MOL0    Cl75284   5.671   8.416   6.415 -0.3834  0.1168  0.1342
  571MOL0     C75285   6.925   9.007   6.498  0.1727 -0.2571  0.2342
  571MOL0     C75286   7.045   9.042   6.432 -0.7629  0.4096 -1.0105
  571MOL0     O75287   7.305   8.976   6.358 -1.3193  0.4025 -0.4204
  571MOL0     C75288   7.396   9.201   6.086  0.5396  0.6884 -0.1326
  571MOL0     C75289   7.511   9.249   6.029 -0.1145  0.4630  0.1633
  571MOL0     N75290   8.033   9.757   6.001 -0.1085 -0.7216  0.4715
  571MOL0     N75291   8.058   9.881   6.022  0.4937  0.1959 -0.3965
  571MOL0     C75292   8.865  10.225   6.745 -0.1246  0.3644  1.8474
  571MOL0     C75293   8.995  10.279   6.752 -0.5411 -1.1510  0.1720
  571MOL0     C75294   9.401  10.412   6.670  0.5853  0.5354  0.1334
  571MOL0     C75295   9.448  10.505   6.576 -1.0158 -0.1657 -0.8081
  571MOL0     C75296   9.577  10.564   6.588 -1.2200  0.2845 -0.3787
  571MOL0     C75297   9.663  10.529   6.703  0.3434 -0.4060  0.9113
  571MOL0     O75298   9.784  10.595   6.720 -0.2929  0.7503  0.0876
  571MOL0     C75299   9.816  10.611   6.852 -0.1717 -0.3033  0.0656
  571MOL0     C75300   9.948  10.698   6.882  0.3512  0.7227  0.0859
  571MOL0     C75301  10.072  10.653   6.798 -0.7071 -0.4433 -0.2149
  571MOL0     C75302  10.205  10.643   6.886 -0.4363 -0.1980 -0.9460
  571MOL0     C75303  10.251  10.764   6.958 -0.3776  0.6280  0.6125
  571MOL0     C75304  10.274  10.864   7.020 -0.4035 -0.3529 -0.0952
  571MOL0     C75305   9.605  10.445   6.805 -0.0931 -0.3681 -0.2937
  571MOL0     C75306   9.486  10.384   6.783 -0.8017 -0.1776 -0.7806
  571MOL0     H75307   9.179  10.016   6.639  1.9815  1.0626  2.4821
  571MOL0     H75308   8.941   9.918   6.618 -1.1358  1.1331 -1.4352
  571MOL0     H75309   8.624  10.129   6.528 -4.3709  4.4818  0.3181
  571MOL0     H75310   8.600  10.194   6.702 -1.5181 -0.3478  1.1673
  571MOL0     H75311   8.484  10.013   6.773  1.8572 -1.6452  0.2289
  571MOL0     H75312   8.505   9.921   6.613 -1.1774  0.0821  0.1393
  571MOL0     H75313   8.371  10.195   6.634  0.4220  1.1737 -0.2212
  571MOL0     H75314   8.279  10.059   6.675  0.2476 -0.0135  0.1232
  571MOL0     H75315   8.410  10.063   6.398  0.9461  0.4410  0.9094
  571MOL0     H75316   8.320   9.927   6.482 -1.2079  0.5918  2.9832
  571MOL0     H75317   8.228  10.211   6.440 -0.6721  0.8601 -0.6497
  571MOL0     H75318   8.133  10.084   6.515  0.9880 -0.2400  1.2738
  571MOL0     H75319   8.175   9.956   6.280  1.2559  0.5597 -3.2449
  571MOL0     H75320   8.194  10.109   6.207 -0.4112  0.3511  0.2073
  571MOL0     H75321   7.949  10.041   6.361  2.3233 -1.1685  0.8672
  571MOL0     H75322   7.992  10.203   6.296  2.0358  0.4213 -2.9404
  571MOL0     H75323   8.000  10.127   6.062 -0.6326  0.5962  0.1534
  571MOL0     H75324   7.840  10.106   6.140 -1.1352 -1.1241  1.9420
  571MOL0     H75325   7.806   9.803   6.225  1.6675  0.2469  3.0804
  571MOL0     H75326   7.876   9.548   5.989 -2.1561 -0.8017  1.2268
  571MOL0     H75327   7.790   9.595   6.129  0.1764  0.8191  0.3808
  571MOL0     H75328   7.986   9.519   6.270 -1.9557 -0.3759 -0.5284
  571MOL0     H75329   8.079   9.465   6.127  1.4643 -3.8007  1.5447
  571MOL0     H75330   7.996   9.277   6.252 -1.7248  1.0129  3.6201
  571MOL0     H75331   7.832   9.344   6.253 -1.2752  1.0628 -3.6088
  571MOL0     H75332   7.898   9.153   6.065 -1.3062  0.2456 -3.9929
  571MOL0     H75333   7.950   9.280   5.975  0.0460 -0.1551 -0.6456
  571MOL0     H75334   7.751   9.113   6.229  1.0373 -2.5012 -1.6080
  571MOL0     H75335   7.570   9.007   6.325 -1.0105  0.2402  1.0201
  571MOL0     H75336   6.968   8.963   6.115  1.7867  0.8255  0.4627
  571MOL0     H75337   6.758   8.871   6.231  0.0423 -0.5141 -0.4491
  571MOL0     H75338   6.647   8.741   6.384 -2.1779 -2.2117  2.2897
  571MOL0     H75339   6.577   8.886   6.327  1.6169 -0.8359 -0.7666
  571MOL0     H75340   6.425   8.889   6.547  0.7754  0.8411 -1.0669
  571MOL0     H75341   6.545   8.776   6.612  0.9960 -1.4695 -0.4647
  571MOL0     H75342   6.476   8.584   6.465 -2.5141 -2.0974  1.3261
  571MOL0     H75343   6.395   8.706   6.358  0.6908  1.0688 -0.3263
  571MOL0     H75344   6.288   8.614   6.632  2.2636 -0.7635 -0.2722
  571MOL0     H75345   6.215   8.736   6.524  0.9447  0.2586 -1.5210
  571MOL0     H75346   6.246   8.443   6.447  4.5726  1.5606  0.9143
  571MOL0     H75347   6.180   8.569   6.345 -0.9854 -1.9853 -0.5036
  571MOL0     H75348   6.019   8.607   6.575  1.3664 -0.2957  0.5128
  571MOL0     H75349   6.078   8.445   6.603 -0.4572  1.6113  1.3891
  571MOL0     H75350   5.915   8.533   6.356 -2.2212  0.1129 -0.2317
  571MOL0     H75351   5.975   8.369   6.406 -0.4837 -0.9371  2.1667
  571MOL0     H75352   5.772   8.546   6.559 -4.8135 -2.0098 -0.1747
  571MOL0     H75353   5.825   8.378   6.597  2.8372 -3.7432 -4.3814
  571MOL0     H75354   6.910   9.025   6.604  0.6610  1.8540 -0.0005
  571MOL0     H75355   7.125   9.087   6.489 -0.4305 -0.5229 -0.7129
  571MOL0     H75356   7.299   9.224   6.044  0.4669 -0.8754 -0.8996
  571MOL0     H75357   7.519   9.318   5.945  1.6990 -0.2347 -0.2813
  571MOL0     H75358   8.776  10.282   6.769 -1.5685 -1.3649  0.9053
  571MOL0     H75359   9.016  10.381   6.781  4.0022 -1.4426 -1.3628
  571MOL0     H75360   9.386  10.532   6.491  0.0725  0.5917 -1.3949
  571MOL0     H75361   9.597  10.647   6.521  0.6855 -0.9288 -1.4013
  571MOL0     H75362   9.849  10.517   6.897  0.9482  1.4310  3.1314
  571MOL0     H75363   9.733  10.660   6.902  1.1754  0.9409  1.1822
  571MOL0     H75364   9.921  10.800   6.856 -0.2720  0.1130 -1.7763
  571MOL0     H75365   9.973  10.684   6.988  1.2720 -2.6624 -0.4701
  571MOL0     H75366  10.087  10.725   6.716  0.0349  0.0346  0.3241
  571MOL0     H75367  10.045  10.559   6.749 -4.2627  0.8766 -1.1657
  571MOL0     H75368  10.195  10.567   6.964 -1.6064  1.3712  0.5207
  571MOL0     H75369  10.283  10.610   6.817  0.6866 -2.4476  1.2595
  571MOL0     H75370  10.313  10.957   7.054 -1.4884  0.1185 -0.1241
  571MOL0     H75371   9.653  10.425   6.900  1.4369  0.0967 -0.9421
  571MOL0     H75372   9.449  10.305   6.849  1.4649  1.8200  3.2700
  572MOL0     O75373   6.203   9.810   5.530  0.1837  0.2120  0.0936
  572MOL0     C75374   6.270   9.854   5.622  0.3350 -0.2056  0.0901
  572MOL0     O75375   6.222   9.879   5.748  0.4540 -0.1576  0.2866
  572MOL0     C75376   6.095   9.842   5.777  0.5237 -1.0329 -0.9470
  572MOL0     C75377   5.987   9.905   5.725  0.3227 -0.5355 -0.3173
  572MOL0     C75378   5.857   9.875   5.770 -0.9747 -0.1452  0.2720
  572MOL0     C75379   5.838   9.784   5.876  0.7130 -0.6267 -0.5531
  572MOL0     O75380   5.717   9.743   5.933 -0.0547 -0.1156  0.1144
  572MOL0     C75381   5.603   9.805   5.877 -0.1345  0.3241  0.0596
  572MOL0     C75382   5.476   9.786   5.960 -1.0093  0.1396  1.0099
  572MOL0     C75383   5.357   9.866   5.921  0.4565 -0.3825 -0.2524
  572MOL0     C75384   5.240   9.808   5.996  0.7408 -0.1526 -0.3799
  572MOL0     C75385   5.111   9.894   5.961  0.5455  0.4413  0.1994
  572MOL0     C75386   5.112  10.036   6.022  0.3435 -0.4464  0.3099
  572MOL0     C75387   5.135  10.046   6.168 -0.1901 -0.4457 -0.5422
  572MOL0     C75388   5.032   9.970   6.248  0.1887 -0.6448 -0.1476
  572MOL0     N75389   4.892  10.010   6.231 -0.4529 -0.2674  0.0658
  572MOL0     C75390   4.797   9.927   6.180  0.5789 -0.2822 -0.0201
  572MOL0     C75391   4.686  10.009   6.168  0.2390 -0.5976 -0.8010
  572MOL0     C75392   4.552   9.970   6.107 -0.9269 -0.1666  0.5275
  572MOL0     C75393   4.425  10.012   6.180  0.5114 -0.9560 -0.0342
  572MOL0     C75394   4.296   9.946   6.129  0.0778 -0.6231 -0.4688
  572MOL0     C75395   4.169  10.032   6.157 -0.3519  0.0935  0.1880
  572MOL0     O75396   4.124  10.028   6.295 -0.6357 -0.6835  0.5636
  572MOL0     C75397   4.005  10.088   6.331 -0.1491  0.8598 -0.3830
  572MOL0     C75398   3.913  10.146   6.244  0.2087  0.2213  0.1972
  572MOL0     C75399   3.802  10.210   6.299 -0.2178  0.0583  0.4968
  572MOL0     C75400   3.781  10.212   6.434  0.9955 -0.6056  0.0712
  572MOL0     C75401   3.657  10.274   6.493  0.1210 -0.5035  0.8732
  572MOL0     O75402   3.627  10.246   6.619  0.1640 -0.0902 -0.5567
  572MOL0     C75403   3.512  10.317   6.668 -0.2330  1.1766 -0.5622
  572MOL0     C75404   3.407  10.230   6.702 -0.5078  0.3942 -0.2821
  572MOL0     C75405   3.287  10.278   6.750 -0.8158 -1.0096  0.5255
  572MOL0     C75406   3.266  10.419   6.759 -0.0188 -0.3549  0.6370
  572MOL0     O75407   3.150  10.488   6.796  0.2461  0.4877 -0.9752
  572MOL0     C75408   3.028  10.415   6.825 -0.1352 -0.1150 -0.1375
  572MOL0     C75409   2.923  10.523   6.847  0.3879  0.0137 -0.4484
  572MOL0     C75410   2.795  10.451   6.891  0.9296  0.1949  1.0097
  572MOL0     C75411   2.682  10.554   6.919  0.3857 -0.4058  0.4320
  572MOL0     C75412   2.567  10.485   6.984 -1.0324  0.4816 -0.3661
  572MOL0     C75413   2.436  10.559   6.982  0.1338  1.0110  0.7420
  572MOL0     C75414   2.364  10.556   6.841 -1.1798 -0.9164 -0.5928
  572MOL0     C75415   2.341  10.419   6.789 -0.3567 -0.4560 -1.1141
  572MOL0    Cl75416   2.235  10.315   6.884  0.1333 -0.4497  0.3700
  572MOL0     C75417   3.374  10.502   6.736 -0.2933  0.1320 -1.0492
  572MOL0     C75418   3.494  10.455   6.686  0.4629  0.3763  0.5602
  572MOL0     O75419   3.588  10.336   6.413 -0.0085 -0.4088 -0.2203
  572MOL0     C75420   3.882  10.168   6.526 -0.5237  0.6638 -1.1840
  572MOL0     C75421   3.988  10.093   6.477  0.0746  0.0155 -0.0526
  572MOL0     N75422   4.715  10.135   6.206  0.2939  0.4276  0.3691
  572MOL0     N75423   4.841  10.136   6.235  0.3662 -0.0036 -0.1657
  572MOL0     C75424   5.950   9.725   5.929 -0.4740 -0.7363  0.4792
  572MOL0     C75425   6.076   9.759   5.880 -0.1076  0.2750 -0.4557
  572MOL0     C75426   6.412   9.860   5.596 -0.5549 -0.2344  0.3986
  572MOL0     C75427   6.473   9.872   5.465 -0.3190 -0.2190  1.0475
  572MOL0     C75428   6.610   9.882   5.454 -0.3493 -0.1013 -0.6247
  572MOL0     C75429   6.695   9.862   5.565 -0.1134  0.9592 -0.3914
  572MOL0     O75430   6.827   9.850   5.537 -0.4825 -0.4681  0.1245
  572MOL0     C75431   6.929   9.887   5.633  0.4736 -0.1029  0.6356
  572MOL0     C75432   7.046   9.956   5.567 -0.5807  0.6674 -1.0575
  572MOL0     C75433   7.175   9.940   5.656  0.0886  0.4772 -0.4068
  572MOL0     C75434   7.153   9.987   5.795 -0.2070  0.5822  0.0699
  572MOL0     C75435   7.271  10.017   5.881  0.1962  0.4744 -0.5191
  572MOL0     C75436   7.360  10.023   5.968  1.0487  0.5485 -0.2791
  572MOL0     C75437   6.638   9.853   5.690 -0.6920  0.6489 -0.3593
  572MOL0     C75438   6.503   9.858   5.708  0.7696  0.2085 -0.2911
  572MOL0     H75439   6.000   9.972   5.641 -1.6872 -1.0500 -1.0955
  572MOL0     H75440   5.771   9.908   5.713 -0.7140  0.8334  0.4266
  572MOL0     H75441   5.590   9.765   5.776 -0.1405 -2.4320  1.0724
  572MOL0     H75442   5.624   9.912   5.862  2.8293 -0.5762 -3.9655
  572MOL0     H75443   5.500   9.813   6.063 -0.3073  0.6127  0.7218
  572MOL0     H75444   5.452   9.680   5.974 -1.8909  0.7836  6.3502
  572MOL0     H75445   5.341   9.851   5.814 -3.3891  0.7903 -0.0000
  572MOL0     H75446   5.376   9.972   5.938 -3.4619  0.3716  0.3203
  572MOL0     H75447   5.223   9.702   5.973  2.0420 -0.1021 -1.7865
  572MOL0     H75448   5.258   9.807   6.103  3.2359  1.3093 -0.7148
  572MOL0     H75449   5.027   9.837   6.001  0.6854  0.1000  0.0105
  572MOL0     H75450   5.091   9.906   5.854 -2.3601 -1.1792  0.4493
  572MOL0     H75451   5.019  10.091   6.003  0.1386 -1.1506 -0.8146
  572MOL0     H75452   5.190  10.092   5.970  1.1094  1.4974  3.2805
  572MOL0     H75453   5.236  10.004   6.177  0.7064  1.3241 -1.8507
  572MOL0     H75454   5.144  10.147   6.210 -0.8459 -0.7127  0.2863
  572MOL0     H75455   5.057   9.991   6.353 -3.6493  1.1051  0.5925
  572MOL0     H75456   5.041   9.863   6.226  0.5526 -0.9765  1.4196
  572MOL0     H75457   4.812   9.821   6.160 -0.1842 -0.5681  0.8804
  572MOL0     H75458   4.541   9.862   6.112 -1.6891 -0.0867  0.7800
  572MOL0     H75459   4.536   9.995   6.002  0.3737  1.9632  0.7554
  572MOL0     H75460   4.412  10.120   6.184 -0.3272 -1.0286 -0.5822
  572MOL0     H75461   4.435   9.984   6.285 -1.1475  1.2283  0.7954
  572MOL0     H75462   4.302   9.923   6.022 -0.0832  2.2374 -1.1794
  572MOL0     H75463   4.290   9.850   6.181  2.9820  0.2428  1.7643
  572MOL0     H75464   4.085   9.987   6.103 -3.0962  0.9018  3.4286
  572MOL0     H75465   4.192  10.132   6.119  2.0647 -0.4758  0.0138
  572MOL0     H75466   3.916  10.136   6.136 -0.1932  3.3361 -0.1895
  572MOL0     H75467   3.735  10.257   6.229  0.6696 -0.3179 -0.6399
  572MOL0     H75468   3.422  10.123   6.694 -0.9596  0.3308 -0.3022
  572MOL0     H75469   3.211  10.218   6.800 -2.1968 -1.1685 -1.6458
  572MOL0     H75470   3.036  10.358   6.918 -0.5872  1.9425  1.2203
  572MOL0     H75471   2.997  10.341   6.751 -2.1760 -0.7798  1.2843
  572MOL0     H75472   2.906  10.573   6.751 -2.6025 -0.5060 -0.2961
  572MOL0     H75473   2.954  10.587   6.930 -0.3877 -2.2385  1.6881
  572MOL0     H75474   2.819  10.396   6.982  0.0291 -0.1093  1.0742
  572MOL0     H75475   2.757  10.381   6.816 -1.8701  2.4850  0.0949
  572MOL0     H75476   2.726  10.632   6.982  3.1695  0.3727 -2.2691
  572MOL0     H75477   2.644  10.609   6.833 -1.2603  1.6700  2.3347
  572MOL0     H75478   2.604  10.470   7.086  4.9422 -0.9202 -2.3368
  572MOL0     H75479   2.560  10.388   6.933  0.3364 -0.3368  0.9411
  572MOL0     H75480   2.452  10.658   7.024  0.1761  1.3552 -0.0535
  572MOL0     H75481   2.369  10.508   7.051 -0.5824 -2.6759 -2.3371
  572MOL0     H75482   2.265  10.602   6.854 -1.0219 -0.4896 -0.8780
  572MOL0     H75483   2.419  10.626   6.777  1.3804  0.0673  2.4256
  572MOL0     H75484   2.430  10.360   6.764 -0.7665  0.0874 -4.3000
  572MOL0     H75485   2.288  10.434   6.694  0.4489  3.9178 -1.0687
  572MOL0     H75486   3.350  10.608   6.742  1.7327  0.6195 -1.1308
  572MOL0     H75487   3.576  10.520   6.657 -0.2556  0.3165 -1.8538
  572MOL0     H75488   3.871  10.168   6.634  0.3625 -0.5961 -1.0651
  572MOL0     H75489   4.067  10.058   6.541 -1.2029  1.3956  2.4432
  572MOL0     H75490   5.943   9.643   6.000 -0.3551  1.7551  3.6021
  572MOL0     H75491   6.158   9.705   5.927 -0.6144  0.4871  0.7090
  572MOL0     H75492   6.401   9.896   5.387  4.1786  3.2988 -2.5635
  572MOL0     H75493   6.658   9.889   5.356  2.9022 -0.1033  0.8318
  572MOL0     H75494   6.948   9.791   5.682 -2.3313 -0.9666  0.2486
  572MOL0     H75495   6.886   9.947   5.713 -1.9463 -0.3238 -0.4075
  572MOL0     H75496   7.060   9.921   5.465  0.6779 -0.1521 -0.6303
  572MOL0     H75497   7.018  10.061   5.573 -4.7548 -0.3557  2.3772
  572MOL0     H75498   7.254  10.006   5.619 -1.1207  1.0066 -2.1491
  572MOL0     H75499   7.222   9.841   5.652  0.9292  0.8625 -0.2239
  572MOL0     H75500   7.095  10.079   5.780  1.3068  1.8037  1.3181
  572MOL0     H75501   7.092   9.911   5.844  0.7171  0.1799  0.5987
  572MOL0     H75502   7.455  10.025   6.017  2.6508  0.8692 -3.1931
  572MOL0     H75503   6.705   9.840   5.774  0.2045  0.1079 -1.1363
  572MOL0     H75504   6.461   9.842   5.807 -0.3588 -0.0454 -0.7979
  573MOL0     O75505  10.586   2.699  11.262  0.1107 -0.3617 -0.9085
  573MOL0     C75506  10.655   2.797  11.280 -0.8221 -0.7150 -0.2419
  573MOL0     O75507  10.617   2.914  11.331  0.1262 -0.0765 -0.4866
  573MOL0     C75508  10.499   2.915  11.401  0.2323  0.3751 -0.0322
  573MOL0     C75509  10.397   2.996  11.355 -0.0309 -0.3928  0.0873
  573MOL0     C75510  10.276   3.015  11.424  0.0420  0.1626  0.9861
  573MOL0     C75511  10.250   2.937  11.533  0.6061  0.3115  0.2062
  573MOL0     O75512  10.122   2.950  11.587 -0.1441 -0.3249 -0.2921
  573MOL0     C75513  10.099   2.944  11.727 -1.2288  0.1196 -0.3323
  573MOL0     C75514  10.183   3.044  11.806 -0.0472 -0.1289 -0.3265
  573MOL0     C75515  10.135   3.061  11.953  0.0305  0.3251  0.4859
  573MOL0     C75516  10.233   3.138  12.030 -0.3316 -0.1200 -0.2440
  573MOL0     C75517  10.207   3.121  12.177 -0.2508 -0.0606 -0.9120
  573MOL0     C75518  10.337   3.172  12.244 -0.2542  0.0810  0.6169
  573MOL0     C75519  10.316   3.172  12.398  0.4370 -0.4298  0.1628
  573MOL0     C75520  10.326   3.031  12.454  0.1575  1.3217  0.6730
  573MOL0     N75521  10.263   3.006  12.584  0.3318  0.1996  0.1117
  573MOL0     C75522  10.299   3.050  12.714 -0.0682  0.1189 -0.1450
  573MOL0     C75523  10.200   3.013  12.799  0.2811  0.6251 -0.2259
  573MOL0     C75524  10.210   3.034  12.941  0.0792 -0.1444  0.2695
  573MOL0     C75525  10.118   2.937  13.028  0.0116  0.7389  0.3389
  573MOL0     C75526   9.976   2.987  13.020  0.1591 -0.0107 -0.5597
  573MOL0     C75527   9.886   2.914  13.116 -0.2883 -0.2703  0.5944
  573MOL0     O75528   9.748   2.965  13.111  1.6878  0.5535  0.7690
  573MOL0     C75529   9.654   2.895  13.184  0.3340  1.2042 -0.7230
  573MOL0     C75530   9.675   2.777  13.261 -0.5343  0.7447  0.1186
  573MOL0     C75531   9.564   2.719  13.332  0.1522  0.0194  0.7307
  573MOL0     C75532   9.433   2.766  13.314 -0.3638 -0.2543 -0.5542
  573MOL0     C75533   9.318   2.713  13.391  0.1288 -0.0710  0.4804
  573MOL0     O75534   9.189   2.755  13.359 -1.5036  0.3053 -0.4080
  573MOL0     C75535   9.087   2.699  13.432 -1.1851 -0.5392  0.0184
  573MOL0     C75536   9.062   2.733  13.568  0.4665  0.1450  0.2267
  573MOL0     C75537   8.964   2.675  13.647 -0.4699  1.5124 -0.7068
  573MOL0     C75538   8.872   2.591  13.590 -0.8096  0.7148  0.9999
  573MOL0     O75539   8.775   2.528  13.655 -0.1089 -0.7921  0.0739
  573MOL0     C75540   8.641   2.531  13.607 -0.0554 -0.5166 -0.0917
  573MOL0     C75541   8.543   2.468  13.709 -0.0972 -0.1007 -1.1264
  573MOL0     C75542   8.402   2.475  13.648 -0.3521 -0.6297  0.3108
  573MOL0     C75543   8.307   2.391  13.737 -0.8191 -0.6973  0.1777
  573MOL0     C75544   8.161   2.392  13.697  0.3054 -0.6193  0.1272
  573MOL0     C75545   8.091   2.532  13.712  0.9474 -0.8731  0.1884
  573MOL0     C75546   7.941   2.518  13.668 -0.0956 -0.1243 -1.1487
  573MOL0     C75547   7.848   2.621  13.730 -0.8412 -0.3607  0.3491
  573MOL0    Cl75548   7.676   2.602  13.690  0.1010  0.5608 -0.0646
  573MOL0     C75549   8.888   2.560  13.449  0.3086 -0.7898  0.3930
  573MOL0     C75550   9.003   2.607  13.378  0.4081 -0.3356  0.0475
  573MOL0     O75551   9.340   2.629  13.477 -0.3521 -0.5032  0.1315
  573MOL0     C75552   9.416   2.888  13.241  0.5530  0.2709  0.1182
  573MOL0     C75553   9.526   2.946  13.181 -0.5565  0.2922 -0.7119
  573MOL0     N75554  10.108   2.942  12.725  0.4408 -0.2507  0.0786
  573MOL0     N75555  10.156   2.928  12.604 -0.3677  0.2576  0.1384
  573MOL0     C75556  10.347   2.848  11.580 -0.4520  0.3012 -0.8381
  573MOL0     C75557  10.467   2.833  11.518 -0.4549  0.1189  0.6047
  573MOL0     C75558  10.800   2.786  11.219 -0.3696 -0.1044  0.0871
  573MOL0     C75559  10.888   2.894  11.212  0.9204  0.1473 -0.0036
  573MOL0     C75560  11.020   2.881  11.171 -0.2003  0.2489 -0.4437
  573MOL0     C75561  11.069   2.765  11.113 -0.8508 -0.6348  0.1385
  573MOL0     O75562  11.204   2.772  11.068  0.0304 -0.3899  0.5556
  573MOL0     C75563  11.255   2.657  11.007 -0.7143  0.5860  0.6721
  573MOL0     C75564  11.400   2.699  10.955  0.1183 -0.2817  0.7804
  573MOL0     C75565  11.496   2.742  11.068  0.5820  0.7023 -0.3459
  573MOL0     C75566  11.622   2.802  11.015 -0.1092  0.0958 -0.4247
  573MOL0     C75567  11.700   2.705  10.925  0.1449  0.4859  0.2594
  573MOL0     C75568  11.770   2.628  10.859 -0.4515 -0.8063 -0.1493
  573MOL0     C75569  10.977   2.659  11.108 -0.0920  0.5134  0.7967
  573MOL0     C75570  10.852   2.669  11.174 -0.0689  0.1810  0.2383
  573MOL0     H75571  10.421   3.059  11.271 -0.8393  0.0110  0.1472
  573MOL0     H75572  10.201   3.084  11.387 -0.2956 -0.9863 -0.6120
  573MOL0     H75573  10.115   2.849  11.779  1.3488  2.5045  3.8412
  573MOL0     H75574   9.993   2.965  11.742 -1.1860 -0.8190  1.5257
  573MOL0     H75575  10.177   3.144  11.763 -0.6478  0.7669  1.7062
  573MOL0     H75576  10.283   3.000  11.805  0.0886  0.1657 -0.0037
  573MOL0     H75577  10.126   2.958  11.989  1.1472 -0.8579 -2.3915
  573MOL0     H75578  10.036   3.107  11.939 -1.5762 -2.5752  1.3944
  573MOL0     H75579  10.326   3.089  11.999  0.1415  1.6234 -1.7615
  573MOL0     H75580  10.241   3.242  11.998  2.0004 -0.7337 -1.9308
  573MOL0     H75581  10.182   3.018  12.206  0.9060  0.2409  1.4142
  573MOL0     H75582  10.125   3.184  12.213  1.2409  0.6591  1.4343
  573MOL0     H75583  10.351   3.271  12.201  1.2510 -1.2546 -2.2813
  573MOL0     H75584  10.433   3.122  12.229  0.4350  0.0225  4.3215
  573MOL0     H75585  10.380   3.242  12.453 -0.6751  2.0730 -1.5201
  573MOL0     H75586  10.213   3.202  12.419  0.3830 -0.7510  0.3555
  573MOL0     H75587  10.433   3.018  12.472  0.0426  0.6886  0.9182
  573MOL0     H75588  10.287   2.964  12.377  0.5559  1.6295  0.1904
  573MOL0     H75589  10.382   3.108  12.752 -0.4109 -0.8940  2.3760
  573MOL0     H75590  10.192   3.139  12.966  0.0928  0.3570 -1.6732
  573MOL0     H75591  10.317   3.018  12.961  0.7647 -2.0392 -3.8482
  573MOL0     H75592  10.155   2.916  13.129 -0.3290 -1.9033 -0.0080
  573MOL0     H75593  10.129   2.841  12.977  0.0764  0.7859  0.2641
  573MOL0     H75594   9.975   3.093  13.045  0.3795 -0.3472  0.9364
  573MOL0     H75595   9.937   2.985  12.917  0.6092  1.3789 -0.7706
  573MOL0     H75596   9.934   2.915  13.213  2.2255  0.4777 -0.5873
  573MOL0     H75597   9.887   2.809  13.085 -2.5838  0.0233 -0.7650
  573MOL0     H75598   9.773   2.731  13.275 -1.5189 -1.5604 -0.1915
  573MOL0     H75599   9.579   2.637  13.401  0.4153  0.1207  0.7977
  573MOL0     H75600   9.106   2.824  13.606 -0.1835 -0.0705  1.5574
  573MOL0     H75601   8.953   2.702  13.752 -0.6211 -1.9474  0.2997
  573MOL0     H75602   8.622   2.471  13.518 -0.2281 -3.4047  1.7617
  573MOL0     H75603   8.608   2.635  13.599  0.1850 -0.3153  1.1971
  573MOL0     H75604   8.555   2.510  13.809  0.7254 -1.9849 -0.3904
  573MOL0     H75605   8.570   2.363  13.722 -3.2465 -0.7088  1.8163
  573MOL0     H75606   8.394   2.442  13.544  1.8396 -1.3913  0.3409
  573MOL0     H75607   8.373   2.580  13.644  0.6572 -0.3621 -0.0431
  573MOL0     H75608   8.349   2.290  13.738  2.7400  0.6268 -0.7409
  573MOL0     H75609   8.319   2.436  13.836  0.7352  0.0926 -0.3419
  573MOL0     H75610   8.102   2.321  13.757  0.4647 -0.5792  0.3332
  573MOL0     H75611   8.146   2.366  13.592 -1.9322  2.8160 -0.5507
  573MOL0     H75612   8.146   2.591  13.639 -1.2263 -1.3613 -2.0100
  573MOL0     H75613   8.106   2.567  13.814  2.1614  0.5458 -0.4558
  573MOL0     H75614   7.927   2.514  13.560  1.7214  3.7186 -1.6989
  573MOL0     H75615   7.920   2.425  13.721 -0.9337 -0.4522 -2.0411
  573MOL0     H75616   7.884   2.715  13.687  1.5071 -1.5435 -0.4380
  573MOL0     H75617   7.869   2.633  13.836 -0.0432  1.7673  0.0000
  573MOL0     H75618   8.820   2.485  13.409 -0.4130 -0.1645  0.4281
  573MOL0     H75619   9.031   2.568  13.281 -0.3812  1.4030 -0.9340
  573MOL0     H75620   9.320   2.939  13.232  1.4818  1.8050 -1.8654
  573MOL0     H75621   9.516   3.037  13.122  3.6947  0.3016 -1.7477
  573MOL0     H75622  10.326   2.785  11.665  0.1803 -0.3785 -1.1745
  573MOL0     H75623  10.536   2.755  11.548 -1.1033 -0.6830  0.0776
  573MOL0     H75624  10.850   2.991  11.242 -0.0344 -0.4439  0.7588
  573MOL0     H75625  11.087   2.966  11.175  0.7706 -0.3794 -2.2311
  573MOL0     H75626  11.190   2.627  10.924  1.8972 -0.9367 -0.9755
  573MOL0     H75627  11.266   2.569  11.071  3.6584 -1.6055 -2.5131
  573MOL0     H75628  11.439   2.609  10.907 -3.1619 -1.2609 -0.3789
  573MOL0     H75629  11.385   2.773  10.876 -2.3276 -2.3705 -0.8924
  573MOL0     H75630  11.509   2.661  11.141  1.8510  1.2759  0.0959
  573MOL0     H75631  11.447   2.818  11.130  0.4792  0.0489  0.3812
  573MOL0     H75632  11.605   2.894  10.959 -0.6102 -1.5847 -3.2113
  573MOL0     H75633  11.681   2.827  11.104 -1.4057 -0.0056  0.4949
  573MOL0     H75634  11.828   2.552  10.810  1.3966 -0.5186  1.4694
  573MOL0     H75635  11.003   2.568  11.056  0.8788  1.0290  0.3434
  573MOL0     H75636  10.783   2.587  11.157  0.9396 -0.4082 -1.1907
  574MOL0     O75637   9.831   3.270   0.429  0.4638  0.1023  0.0902
  574MOL0     C75638   9.779   3.188   0.359  0.2268  0.5670 -0.6192
  574MOL0     O75639   9.680   3.103   0.394 -0.1488 -0.6297 -1.1695
  574MOL0     C75640   9.615   3.135   0.514  1.0158  0.5674  0.7778
  574MOL0     C75641   9.539   3.257   0.525  0.3884  0.1154  0.0236
  574MOL0     C75642   9.459   3.281   0.641 -0.4318  1.2676 -0.3656
  574MOL0     C75643   9.442   3.185   0.745 -0.0273 -0.2040 -0.4717
  574MOL0     O75644   9.372   3.203   0.863 -0.5931 -0.6390 -0.0044
  574MOL0     C75645   9.351   3.340   0.905  0.3170  0.2892 -0.1541
  574MOL0     C75646   9.319   3.369   1.054 -0.5943 -0.1508  0.4378
  574MOL0     C75647   9.176   3.330   1.086 -0.7038  1.0325 -0.5995
  574MOL0     C75648   9.165   3.310   1.238 -0.8844 -0.7608  0.2524
  574MOL0     C75649   9.027   3.333   1.275  0.1994 -0.1304  0.7812
  574MOL0     C75650   9.005   3.284   1.415 -0.3207 -0.0276 -0.0235
  574MOL0     C75651   8.864   3.310   1.455 -0.7189  0.8173  0.1238
  574MOL0     C75652   8.850   3.272   1.607  0.6798 -0.2349  0.8851
  574MOL0     N75653   8.700   3.283   1.635  0.3401  0.6852  0.1389
  574MOL0     C75654   8.612   3.184   1.638  0.3785 -0.2871  0.0845
  574MOL0     C75655   8.490   3.250   1.645  0.7844  0.1875  0.8432
  574MOL0     C75656   8.369   3.169   1.634 -0.7633  0.4721  0.2989
  574MOL0     C75657   8.257   3.227   1.535 -0.2663 -0.1361  0.0355
  574MOL0     C75658   8.308   3.276   1.401  0.1847 -0.0778  1.2522
  574MOL0     C75659   8.367   3.172   1.314 -0.8070 -1.0784 -1.3280
  574MOL0     O75660   8.416   3.234   1.204  0.0893  0.1705 -0.1161
  574MOL0     C75661   8.527   3.179   1.141  0.3314 -0.4549 -0.3056
  574MOL0     C75662   8.543   3.192   0.999 -0.7461  0.9427 -0.1171
  574MOL0     C75663   8.654   3.157   0.925  0.4295  0.2671 -0.7667
  574MOL0     C75664   8.758   3.091   0.983 -0.5370 -0.2090  0.4831
  574MOL0     C75665   8.863   3.023   0.897 -0.5388  0.3186 -0.5157
  574MOL0     O75666   8.858   3.043   0.760  0.1970 -0.3741  0.4194
  574MOL0     C75667   8.948   2.989   0.681 -1.0032 -0.3184  0.6626
  574MOL0     C75668   8.904   2.952   0.550 -0.1457  0.1062 -0.3058
  574MOL0     C75669   8.999   2.933   0.447 -0.1415  0.0940  0.1683
  574MOL0     C75670   9.132   2.949   0.476  0.1814 -0.3735  0.2977
  574MOL0     O75671   9.230   2.950   0.378  0.4219  0.1403 -0.3523
  574MOL0     C75672   9.193   3.032   0.268 -0.2511 -0.2174  0.4731
  574MOL0     C75673   9.323   3.056   0.195  0.1887  0.4599 -0.1679
  574MOL0     C75674   9.297   3.124   0.062 -0.8381  0.3015  0.4950
  574MOL0     C75675   9.414   3.176  -0.016  0.7862 -0.0863  0.8393
  574MOL0     C75676   9.493   3.295   0.042  0.2576 -0.3767 -0.9162
  574MOL0     C75677   9.579   3.372  -0.056 -0.5764 -0.4627 -0.0529
  574MOL0     C75678   9.634   3.504  -0.002 -0.5386  0.9047 -0.3511
  574MOL0     C75679   9.746   3.555  -0.092 -0.2980 -0.3330  0.0864
  574MOL0    Cl75680   9.699   3.554  -0.262 -0.0794 -0.1333 -0.0255
  574MOL0     C75681   9.175   2.985   0.598 -0.3913  0.2946 -0.1700
  574MOL0     C75682   9.082   3.002   0.699 -0.1120  0.2316  0.9501
  574MOL0     O75683   8.956   2.967   0.957 -0.2053 -0.5398 -0.6291
  574MOL0     C75684   8.753   3.083   1.123  1.3948  0.3302  1.2180
  574MOL0     C75685   8.642   3.124   1.200  0.1013  0.6681 -0.1719
  574MOL0     N75686   8.509   3.383   1.671  0.0314  0.2094  0.4071
  574MOL0     N75687   8.637   3.396   1.660  0.6566 -0.8707  0.0011
  574MOL0     C75688   9.522   3.061   0.729 -0.1277  0.1910 -0.0621
  574MOL0     C75689   9.603   3.037   0.611  0.0983 -0.1507  0.0594
  574MOL0     C75690   9.828   3.165   0.221  0.9958  0.6549  0.9174
  574MOL0     C75691   9.762   3.072   0.127 -0.3856  0.1657 -0.1237
  574MOL0     C75692   9.808   3.056   0.007 -0.8814 -0.4549  0.0330
  574MOL0     C75693   9.923   3.114  -0.034 -0.4406  0.3830 -0.2758
  574MOL0     O75694   9.963   3.071  -0.160 -0.3438 -0.4689 -0.7746
  574MOL0     C75695  10.047   3.157  -0.238  0.3004 -0.2491 -0.2591
  574MOL0     C75696   9.970   3.281  -0.294  0.2083 -0.0370  0.2734
  574MOL0     C75697   9.861   3.231  -0.395 -0.4609  1.1803  0.9780
  574MOL0     C75698   9.907   3.251  -0.540  0.6752 -0.8651  0.5281
  574MOL0     C75699   9.799   3.227  -0.630  0.2327  0.1266  0.1750
  574MOL0     C75700   9.718   3.199  -0.722 -0.1311 -0.1838 -0.0171
  574MOL0     C75701   9.978   3.212   0.042  0.1446 -0.0059  0.4276
  574MOL0     C75702   9.931   3.237   0.170 -0.0408 -0.5251  0.4251
  574MOL0     H75703   9.543   3.340   0.454 -0.2748  0.4910  0.4097
  574MOL0     H75704   9.417   3.380   0.657  2.8985  2.7490  0.2243
  574MOL0     H75705   9.267   3.381   0.848 -0.4716 -0.5031  0.3990
  574MOL0     H75706   9.445   3.394   0.890 -0.1419  2.2588  3.1371
  574MOL0     H75707   9.341   3.473   1.081 -1.8520  0.8942 -2.2374
  574MOL0     H75708   9.377   3.303   1.120 -0.9058 -0.6629  0.2056
  574MOL0     H75709   9.142   3.241   1.033 -1.5417  0.2449  1.1741
  574MOL0     H75710   9.114   3.412   1.050 -0.9377  0.7648 -0.8152
  574MOL0     H75711   9.190   3.205   1.256  0.4246 -0.4839  0.1287
  574MOL0     H75712   9.236   3.375   1.289 -1.3210  0.2706 -0.4256
  574MOL0     H75713   8.961   3.278   1.208  0.3981  1.9221 -1.2099
  574MOL0     H75714   8.999   3.437   1.252  0.1419 -0.9453 -3.6624
  574MOL0     H75715   9.070   3.339   1.484 -0.3245  0.0538 -0.0845
  574MOL0     H75716   9.031   3.178   1.415  1.4387  0.3791 -0.6027
  574MOL0     H75717   8.824   3.407   1.424 -1.5012  0.8188  1.0914
  574MOL0     H75718   8.804   3.238   1.400 -0.5730  0.1982  0.7630
  574MOL0     H75719   8.911   3.342   1.663  3.2839  0.8641 -2.9369
  574MOL0     H75720   8.879   3.169   1.629  3.0664 -0.1313 -1.2921
  574MOL0     H75721   8.634   3.079   1.619  3.3179  0.7484 -3.1539
  574MOL0     H75722   8.322   3.150   1.731  0.4929 -4.2684  0.2633
  574MOL0     H75723   8.396   3.070   1.596 -0.5698  0.5145  0.3231
  574MOL0     H75724   8.207   3.307   1.591  1.0511  0.5127  0.3120
  574MOL0     H75725   8.179   3.151   1.524  0.9168 -1.3733 -0.0749
  574MOL0     H75726   8.222   3.324   1.355  0.0437  0.2094  1.8092
  574MOL0     H75727   8.388   3.349   1.417  0.0303  0.2632  0.5064
  574MOL0     H75728   8.293   3.096   1.286 -0.9823 -0.7560 -1.7550
  574MOL0     H75729   8.442   3.121   1.375 -1.3368  0.4709  0.7440
  574MOL0     H75730   8.465   3.241   0.942 -1.8797 -1.2253 -0.5528
  574MOL0     H75731   8.662   3.188   0.821  0.3831  2.1975 -0.2303
  574MOL0     H75732   8.797   2.938   0.532 -0.0437  0.5571 -1.3244
  574MOL0     H75733   8.969   2.914   0.344 -2.2311  2.7814  0.1769
  574MOL0     H75734   9.163   3.129   0.309 -1.7744 -1.3169  2.0919
  574MOL0     H75735   9.116   2.992   0.202  0.3214  1.1223 -1.0736
  574MOL0     H75736   9.373   2.960   0.178 -0.5496 -0.1084  0.7935
  574MOL0     H75737   9.387   3.120   0.256 -2.8503  2.7445  0.8132
  574MOL0     H75738   9.228   3.209   0.069 -2.8864 -1.3361  0.8824
  574MOL0     H75739   9.245   3.043   0.012 -2.9048  1.6657  0.3125
  574MOL0     H75740   9.476   3.090  -0.040  0.4454  0.3405 -1.8758
  574MOL0     H75741   9.373   3.215  -0.110 -1.1031  1.7761  2.3406
  574MOL0     H75742   9.545   3.260   0.132  0.2513  2.8019  0.4767
  574MOL0     H75743   9.423   3.371   0.080  1.8748  0.5951  0.2710
  574MOL0     H75744   9.515   3.388  -0.144  0.5837 -0.5893 -0.9528
  574MOL0     H75745   9.661   3.304  -0.082  0.6222  0.1894  1.8244
  574MOL0     H75746   9.556   3.580  -0.000  0.6697  2.5405 -4.3424
  574MOL0     H75747   9.683   3.503   0.096 -0.3959 -0.0923 -0.4193
  574MOL0     H75748   9.836   3.495  -0.074 -0.5334 -1.6933 -2.6604
  574MOL0     H75749   9.765   3.662  -0.080  0.7067 -0.4698 -0.2051
  574MOL0     H75750   9.278   3.017   0.606  0.1238 -1.4454  0.6371
  574MOL0     H75751   9.122   3.033   0.795  0.0085  2.4845  0.2338
  574MOL0     H75752   8.832   3.028   1.173 -0.3380 -0.7310  2.8787
  574MOL0     H75753   8.640   3.128   1.309 -1.2863  1.3421 -0.1935
  574MOL0     H75754   9.524   2.992   0.813 -3.0425  0.1242  0.0434
  574MOL0     H75755   9.643   2.939   0.587 -2.0585 -0.3805 -3.3352
  574MOL0     H75756   9.677   3.014   0.161  1.1544 -1.8064  0.5789
  574MOL0     H75757   9.755   2.985  -0.055  0.0738 -2.2550  1.2093
  574MOL0     H75758  10.094   3.100  -0.319  0.9589  1.1589 -0.8996
  574MOL0     H75759  10.130   3.199  -0.180 -0.6663  0.4220  0.6720
  574MOL0     H75760   9.914   3.337  -0.218  0.2169 -1.9455  1.7678
  574MOL0     H75761  10.046   3.349  -0.333 -1.6461  1.9147 -0.1796
  574MOL0     H75762   9.769   3.290  -0.387 -0.5676  0.8647  2.1492
  574MOL0     H75763   9.841   3.126  -0.376 -0.3953  0.9969  0.0854
  574MOL0     H75764   9.925   3.358  -0.547 -2.4346 -0.3029 -0.2789
  574MOL0     H75765  10.004   3.208  -0.568 -0.0239 -1.2959 -1.3629
  574MOL0     H75766   9.646   3.174  -0.797 -0.7597  0.0515  0.4942
  574MOL0     H75767  10.051   3.277  -0.007 -1.1730  0.0410 -1.5874
  574MOL0     H75768   9.979   3.316   0.227  0.1578 -2.1283  2.6230
  575MOL0     O75769  10.717   5.313   8.926  0.3476  0.1704  0.0646
  575MOL0     C75770  10.805   5.396   8.908 -0.7895 -0.3948  0.2985
  575MOL0     O75771  10.785   5.533   8.915 -0.2833  0.3379  0.5791
  575MOL0     C75772  10.655   5.572   8.920  0.3218 -0.1949  0.2456
  575MOL0     C75773  10.616   5.650   9.033  0.2428  0.2191  0.9907
  575MOL0     C75774  10.482   5.704   9.031  0.1924  0.0788 -0.3132
  575MOL0     C75775  10.388   5.673   8.932 -0.6469  0.0144  0.6948
  575MOL0     O75776  10.258   5.710   8.948  0.0192  0.1857 -0.6476
  575MOL0     C75777  10.166   5.691   8.838  0.3298  0.0148  0.0803
  575MOL0     C75778  10.027   5.705   8.904 -0.2089 -0.3824  1.4888
  575MOL0     C75779   9.907   5.644   8.837 -0.0890  0.6317  0.3168
  575MOL0     C75780   9.860   5.696   8.703 -0.1080  0.1149 -0.6854
  575MOL0     C75781   9.722   5.655   8.659  0.0644  0.4149 -0.5501
  575MOL0     C75782   9.605   5.735   8.729 -0.4403  0.6735  0.0151
  575MOL0     C75783   9.462   5.700   8.682  0.8887 -0.4275  0.3300
  575MOL0     C75784   9.428   5.745   8.544  0.3819 -0.0542 -0.2639
  575MOL0     N75785   9.283   5.732   8.520  0.5484  0.7228 -0.0177
  575MOL0     C75786   9.214   5.618   8.535  0.2513  0.6499 -0.0376
  575MOL0     C75787   9.095   5.634   8.487 -0.3874 -0.4927  0.7912
  575MOL0     C75788   8.969   5.556   8.501  0.3686  0.4708  0.2060
  575MOL0     C75789   8.873   5.613   8.605  0.2352 -1.1039  0.0998
  575MOL0     C75790   8.771   5.701   8.536  0.7596  0.0712  0.0006
  575MOL0     C75791   8.657   5.743   8.616  0.2895  0.0658 -0.1082
  575MOL0     O75792   8.595   5.644   8.692 -0.0121 -0.1928 -0.1282
  575MOL0     C75793   8.475   5.660   8.742  0.0280  0.0538 -0.6118
  575MOL0     C75794   8.412   5.783   8.768 -0.3650 -0.9704 -0.9271
  575MOL0     C75795   8.289   5.788   8.828  0.1895 -0.6933 -0.5957
  575MOL0     C75796   8.222   5.674   8.862 -0.1914  0.2159  0.4670
  575MOL0     C75797   8.081   5.680   8.911 -1.0957  0.3801  0.3249
  575MOL0     O75798   8.010   5.566   8.958  0.5090 -0.3017  0.1925
  575MOL0     C75799   7.873   5.574   8.971  0.5951 -0.4050  0.0646
  575MOL0     C75800   7.814   5.500   9.088 -0.2409 -0.6053  0.6180
  575MOL0     C75801   7.680   5.497   9.117 -0.1488 -0.0750 -0.2695
  575MOL0     C75802   7.594   5.587   9.038 -0.2549 -0.3679 -1.0798
  575MOL0     O75803   7.458   5.601   9.056 -0.4527 -0.1130 -0.2835
  575MOL0     C75804   7.416   5.722   9.102  0.6231  0.1698  1.4149
  575MOL0     C75805   7.285   5.760   9.032 -0.0177  0.5312 -0.2488
  575MOL0     C75806   7.170   5.676   9.065 -0.8406  0.6955 -0.1541
  575MOL0     C75807   7.106   5.670   9.212  0.0679 -0.2438  0.8816
  575MOL0     C75808   7.024   5.793   9.254  0.2087  0.0732  0.7347
  575MOL0     C75809   6.921   5.773   9.366 -0.0766  0.7342  0.7077
  575MOL0     C75810   6.887   5.911   9.428  0.1331 -0.3781  0.0465
  575MOL0     C75811   6.770   5.904   9.529 -0.1870  0.0480  0.6283
  575MOL0    Cl75812   6.621   5.891   9.442  0.1752  0.5052 -0.4818
  575MOL0     C75813   7.642   5.664   8.933 -0.6244  0.6528  0.0060
  575MOL0     C75814   7.780   5.659   8.895 -0.0910  0.2486  0.2972
  575MOL0     O75815   8.031   5.785   8.875 -0.1914  0.6366  0.1961
  575MOL0     C75816   8.276   5.547   8.825  0.3997  0.1214  0.4230
  575MOL0     C75817   8.405   5.543   8.777 -0.6827  0.2720 -0.0160
  575MOL0     N75818   9.081   5.768   8.446  0.0371  0.0552 -0.2029
  575MOL0     N75819   9.196   5.821   8.469  0.0798  0.3097  0.2547
  575MOL0     C75820  10.442   5.603   8.820  0.0380 -0.4611  0.0705
  575MOL0     C75821  10.572   5.561   8.812 -0.6372  0.4729  0.0691
  575MOL0     C75822  10.943   5.347   8.879 -0.5877  0.0457  0.3266
  575MOL0     C75823  10.985   5.220   8.909 -0.5990 -0.0776 -0.2306
  575MOL0     C75824  11.117   5.182   8.883 -1.0891  0.0696  0.7343
  575MOL0     C75825  11.212   5.271   8.826  0.4883 -0.6382 -0.5493
  575MOL0     O75826  11.337   5.223   8.795 -1.0091 -1.2214  0.9802
  575MOL0     C75827  11.438   5.307   8.720  0.1870 -0.1951  0.1216
  575MOL0     C75828  11.558   5.226   8.675 -1.4692  0.4180 -0.4952
  575MOL0     C75829  11.644   5.166   8.785  0.1800 -0.2127  0.2032
  575MOL0     C75830  11.786   5.140   8.733 -0.0711 -0.6438 -0.1517
  575MOL0     C75831  11.875   5.099   8.843  0.8284  0.0864 -0.2353
  575MOL0     C75832  11.963   5.078   8.926 -0.3834  0.4155 -1.4539
  575MOL0     C75833  11.171   5.404   8.803 -0.5317  0.1922  0.9645
  575MOL0     C75834  11.039   5.444   8.831 -0.0726 -0.2207  0.2434
  575MOL0     H75835  10.678   5.649   9.122  1.8636  0.3332 -0.1007
  575MOL0     H75836  10.457   5.768   9.115 -2.8408  0.5778 -1.4683
  575MOL0     H75837  10.168   5.591   8.795  1.8599 -0.2679  0.7249
  575MOL0     H75838  10.192   5.763   8.761  0.4610 -1.6787 -1.5291
  575MOL0     H75839  10.007   5.813   8.911 -0.4238 -0.2084 -0.9252
  575MOL0     H75840  10.034   5.672   9.008 -2.1355 -1.6781  1.2441
  575MOL0     H75841   9.822   5.661   8.904 -0.0142  2.2716  0.0382
  575MOL0     H75842   9.937   5.539   8.831  1.0966  1.0162 -1.2715
  575MOL0     H75843   9.862   5.805   8.715 -1.4403  0.1475 -0.6714
  575MOL0     H75844   9.933   5.674   8.624  0.4415 -3.5707  0.6550
  575MOL0     H75845   9.708   5.547   8.669 -0.6989  0.4442 -1.2192
  575MOL0     H75846   9.719   5.673   8.551  1.7493  0.1574 -0.6647
  575MOL0     H75847   9.628   5.840   8.708 -0.1157  0.8776  1.3017
  575MOL0     H75848   9.609   5.728   8.838 -1.7766  1.3529  0.1148
  575MOL0     H75849   9.434   5.598   8.709 -0.6292  0.5347  2.7623
  575MOL0     H75850   9.402   5.761   8.751 -0.0550 -1.1342  0.1484
  575MOL0     H75851   9.485   5.681   8.476  1.0198  0.6215 -0.3746
  575MOL0     H75852   9.455   5.847   8.513 -0.0540 -0.8796 -3.7966
  575MOL0     H75853   9.255   5.529   8.583 -1.6151  0.6539  1.6856
  575MOL0     H75854   9.000   5.458   8.537 -0.2440  0.6104  1.1300
  575MOL0     H75855   8.914   5.521   8.413 -0.1891 -3.3803  1.8931
  575MOL0     H75856   8.916   5.665   8.691 -1.7963  0.2967  0.3427
  575MOL0     H75857   8.816   5.532   8.651 -0.8377  1.0938  2.8989
  575MOL0     H75858   8.815   5.795   8.502 -0.6242  0.4693 -0.7444
  575MOL0     H75859   8.734   5.646   8.449  1.2671  1.6274 -1.2551
  575MOL0     H75860   8.578   5.788   8.555  0.9894 -1.0709 -1.9376
  575MOL0     H75861   8.695   5.816   8.688 -0.9942 -0.6449  1.3455
  575MOL0     H75862   8.460   5.880   8.757  2.0533 -2.1246 -1.2343
  575MOL0     H75863   8.237   5.881   8.846 -3.4373 -2.3040 -1.7105
  575MOL0     H75864   7.877   5.437   9.148  1.4662 -0.9863 -1.4579
  575MOL0     H75865   7.637   5.436   9.195  0.0958  1.2430  0.9382
  575MOL0     H75866   7.491   5.798   9.080  0.0212  0.8101  1.5708
  575MOL0     H75867   7.403   5.709   9.210  1.7662  0.1771  1.5611
  575MOL0     H75868   7.288   5.765   8.922  0.4000  0.4552 -0.2407
  575MOL0     H75869   7.258   5.860   9.066 -2.1313 -0.4657  1.2408
  575MOL0     H75870   7.178   5.577   9.018 -2.2955  0.3395  0.2907
  575MOL0     H75871   7.090   5.714   9.001 -1.8303 -0.6650  0.2191
  575MOL0     H75872   7.032   5.590   9.217  0.7270 -0.7715  3.2143
  575MOL0     H75873   7.184   5.642   9.284  0.4882 -1.6863 -0.0756
  575MOL0     H75874   6.976   5.838   9.167 -1.7526 -2.9263  0.1213
  575MOL0     H75875   7.086   5.874   9.293  2.0422  0.6544 -3.0005
  575MOL0     H75876   6.953   5.707   9.447  0.5844  1.6139  1.1785
  575MOL0     H75877   6.834   5.721   9.325 -1.4772  3.8350 -0.5963
  575MOL0     H75878   6.979   5.944   9.476 -0.5330  0.6090  0.6984
  575MOL0     H75879   6.861   5.971   9.341 -2.4386  0.1842  1.0821
  575MOL0     H75880   6.774   6.003   9.574 -1.8887  0.9452 -1.0205
  575MOL0     H75881   6.772   5.829   9.608 -2.6777 -0.7404  0.0408
  575MOL0     H75882   7.574   5.720   8.870  0.9207 -1.2675 -3.7067
  575MOL0     H75883   7.803   5.727   8.814 -0.7292 -1.3073 -1.2642
  575MOL0     H75884   8.221   5.454   8.834  0.8339  0.0110  2.8662
  575MOL0     H75885   8.425   5.447   8.730 -1.9454  1.4167 -3.1562
  575MOL0     H75886  10.380   5.591   8.731  0.8411 -3.0844 -0.2299
  575MOL0     H75887  10.602   5.508   8.722 -0.4386  1.0781 -0.2234
  575MOL0     H75888  10.927   5.148   8.966  0.7912 -1.6160 -0.6735
  575MOL0     H75889  11.150   5.085   8.918  1.3813 -0.0296 -1.5530
  575MOL0     H75890  11.466   5.395   8.779  0.9567  3.0505 -4.5325
  575MOL0     H75891  11.382   5.337   8.631  1.9003  1.0600 -0.5794
  575MOL0     H75892  11.531   5.149   8.603  1.3259 -0.6132 -0.5344
  575MOL0     H75893  11.626   5.295   8.625  0.2254  0.7432  2.0463
  575MOL0     H75894  11.589   5.075   8.809 -1.3938  0.0528 -2.1257
  575MOL0     H75895  11.652   5.237   8.868 -1.1991 -0.3521  0.4852
  575MOL0     H75896  11.779   5.068   8.651 -0.8482  0.4383 -1.0618
  575MOL0     H75897  11.821   5.235   8.691 -0.0994 -1.3061 -1.7654
  575MOL0     H75898  12.037   5.035   8.990 -0.2593 -1.9138 -3.0138
  575MOL0     H75899  11.240   5.480   8.770  0.9428 -0.7989  1.6534
  575MOL0     H75900  11.013   5.546   8.805 -2.3469 -0.6572  0.6392
  576MOL0     O75901   7.541   8.345  11.285 -0.3850 -0.0270  0.2086
  576MOL0     C75902   7.614   8.323  11.389 -0.3167  0.1549 -0.6302
  576MOL0     O75903   7.588   8.224  11.486 -0.0913 -0.0739  0.5436
  576MOL0     C75904   7.460   8.188  11.514  0.6679 -0.1022  0.0009
  576MOL0     C75905   7.350   8.278  11.518 -0.1863 -0.3283 -0.6297
  576MOL0     C75906   7.217   8.236  11.536  0.5761  0.0845  0.8141
  576MOL0     C75907   7.188   8.099  11.545  0.1982  0.4764 -0.9852
  576MOL0     O75908   7.057   8.058  11.550 -0.8994 -0.4142  0.3686
  576MOL0     C75909   7.019   7.921  11.579 -0.4145 -0.4358  0.7482
  576MOL0     C75910   7.050   7.893  11.717  0.4466 -0.0767  0.1144
  576MOL0     C75911   7.071   7.744  11.735  0.3068 -0.9242 -0.6512
  576MOL0     C75912   6.943   7.677  11.749  0.0769 -0.3294  0.6744
  576MOL0     C75913   6.962   7.520  11.763  0.6144  0.2384 -0.7125
  576MOL0     C75914   7.008   7.468  11.899 -0.5733  0.0774 -1.0651
  576MOL0     C75915   7.021   7.312  11.905  0.7452  0.2336 -0.4492
  576MOL0     C75916   6.902   7.234  11.847 -0.3079 -0.5299 -0.0679
  576MOL0     N75917   6.896   7.088  11.879 -0.3202 -0.4843  0.7729
  576MOL0     C75918   6.875   7.049  12.007 -0.0522  0.1349 -0.2961
  576MOL0     C75919   6.824   6.919  11.994  0.6365 -0.1318 -0.9366
  576MOL0     C75920   6.772   6.828  12.099 -0.7721 -0.6393 -0.1769
  576MOL0     C75921   6.626   6.874  12.134  0.0522 -0.5006  0.2578
  576MOL0     C75922   6.620   7.017  12.197 -0.3851  0.4769  0.2881
  576MOL0     C75923   6.487   7.048  12.264 -0.0323  0.9060 -0.1975
  576MOL0     O75924   6.380   7.029  12.167 -0.2651  0.3499 -0.3760
  576MOL0     C75925   6.255   7.022  12.225 -0.4007  0.3208  0.1768
  576MOL0     C75926   6.222   7.091  12.340 -0.0316  0.9149 -1.1253
  576MOL0     C75927   6.098   7.090  12.391  0.2214  0.4779 -0.4848
  576MOL0     C75928   6.002   7.011  12.333 -0.0962  0.6079  0.0734
  576MOL0     C75929   5.865   7.014  12.394 -0.3820 -0.6439  0.3820
  576MOL0     O75930   5.773   6.929  12.344 -0.8273  0.3372 -0.1050
  576MOL0     C75931   5.652   6.924  12.403 -0.4763  0.0827  0.1718
  576MOL0     C75932   5.546   6.999  12.347  0.2559 -0.5187  0.8411
  576MOL0     C75933   5.416   7.001  12.399 -0.3928 -0.8077 -0.3625
  576MOL0     C75934   5.384   6.933  12.524 -0.5471 -0.2233 -0.8644
  576MOL0     O75935   5.257   6.941  12.574 -0.0530 -0.0449  0.1705
  576MOL0     C75936   5.232   6.896  12.711  0.2345  0.0573  0.1111
  576MOL0     C75937   5.084   6.919  12.735 -0.0186  0.0530  0.6091
  576MOL0     C75938   5.008   6.827  12.644  1.4422 -0.2455  0.4021
  576MOL0     C75939   4.860   6.817  12.694 -0.2816 -0.1592 -0.2898
  576MOL0     C75940   4.850   6.723  12.817 -0.4626  0.1790 -0.4826
  576MOL0     C75941   4.707   6.670  12.836 -0.4650 -0.4117 -0.2478
  576MOL0     C75942   4.706   6.537  12.908  0.4876 -0.3721 -1.1654
  576MOL0     C75943   4.732   6.426  12.809 -0.1921  0.1987  0.4665
  576MOL0    Cl75944   4.795   6.287  12.890  0.6722  0.0656  0.2570
  576MOL0     C75945   5.491   6.849  12.576 -0.2302 -0.2253 -0.7462
  576MOL0     C75946   5.623   6.849  12.516 -0.4040  0.0373 -0.2698
  576MOL0     O75947   5.847   7.082  12.498  0.2262  0.1519 -0.2875
  576MOL0     C75948   6.027   6.941  12.218  1.0829 -0.0526  0.2338
  576MOL0     C75949   6.149   6.957  12.158  0.4555  0.4734  0.0217
  576MOL0     N75950   6.817   6.896  11.861 -0.1198  0.1949  0.5823
  576MOL0     N75951   6.866   6.993  11.791 -0.2265  0.4768 -0.0938
  576MOL0     C75952   7.304   8.011  11.552 -1.1708  0.3367  0.8004
  576MOL0     C75953   7.435   8.052  11.525  0.6208 -1.1364  1.2804
  576MOL0     C75954   7.747   8.394  11.410  0.3024  1.5923 -0.1130
  576MOL0     C75955   7.825   8.365  11.519  0.1889 -0.2028  0.2277
  576MOL0     C75956   7.933   8.446  11.540 -0.5613  0.7684  0.1678
  576MOL0     C75957   7.988   8.533  11.438  0.6884  0.5243  0.1045
  576MOL0     O75958   8.108   8.601  11.467 -1.2312 -0.4014 -0.0575
  576MOL0     C75959   8.181   8.662  11.363 -0.1153  0.2247  0.0199
  576MOL0     C75960   8.248   8.556  11.277  0.9259  0.6106 -0.1318
  576MOL0     C75961   8.340   8.622  11.167 -0.4351 -0.3302  0.4198
  576MOL0     C75962   8.410   8.508  11.089  0.7920  0.0368 -0.7609
  576MOL0     C75963   8.470   8.575  10.977  0.1810  0.9206 -0.3972
  576MOL0     C75964   8.506   8.619  10.876  0.5087  0.6930 -0.0114
  576MOL0     C75965   7.904   8.552  11.326 -0.4924  0.0405  0.2698
  576MOL0     C75966   7.781   8.488  11.317  0.0101  0.1732 -0.1268
  576MOL0     H75967   7.357   8.386  11.516 -0.2784 -0.1237  3.0598
  576MOL0     H75968   7.133   8.303  11.524  0.4072  0.7305  4.5373
  576MOL0     H75969   7.074   7.853  11.514 -0.8483 -2.1279  2.0794
  576MOL0     H75970   6.911   7.907  11.566 -0.6173  0.7593  1.0180
  576MOL0     H75971   6.970   7.934  11.779 -2.9836  2.3616 -5.2281
  576MOL0     H75972   7.141   7.947  11.745  1.2868 -0.4326 -1.7568
  576MOL0     H75973   7.121   7.734  11.832 -3.1172  0.7966  1.5235
  576MOL0     H75974   7.128   7.689  11.660  0.3830 -2.8374  0.7422
  576MOL0     H75975   6.881   7.716  11.830 -1.2705  1.3681 -1.0731
  576MOL0     H75976   6.886   7.693  11.657  0.5275 -0.5210  0.3583
  576MOL0     H75977   7.041   7.478  11.700 -1.1832 -1.6106 -1.8483
  576MOL0     H75978   6.868   7.471  11.737  1.4699 -1.2620 -1.0973
  576MOL0     H75979   6.922   7.495  11.960  0.2156  0.2333 -0.0054
  576MOL0     H75980   7.093   7.517  11.948 -0.8774  1.6271 -2.0181
  576MOL0     H75981   7.114   7.275  11.861  1.9810  0.4250  1.8217
  576MOL0     H75982   7.030   7.289  12.012 -1.3940  1.4896  0.0509
  576MOL0     H75983   6.887   7.258  11.741  0.0461  0.5434  0.1124
  576MOL0     H75984   6.817   7.282  11.896 -0.5603 -1.1816  0.1395
  576MOL0     H75985   6.899   7.098  12.101 -0.6338 -1.7654  0.9009
  576MOL0     H75986   6.849   6.831  12.176  2.2327 -0.5826 -2.9537
  576MOL0     H75987   6.776   6.730  12.050  0.5432  0.6674 -2.9504
  576MOL0     H75988   6.581   6.800  12.201 -0.7173  0.3705  0.7310
  576MOL0     H75989   6.565   6.864  12.044  1.8175 -1.5779 -0.8939
  576MOL0     H75990   6.698   7.033  12.273  0.9953 -1.7713 -0.5638
  576MOL0     H75991   6.623   7.081  12.109 -3.9400  0.6658  0.1861
  576MOL0     H75992   6.506   7.147  12.309  0.3071  0.8698 -0.2644
  576MOL0     H75993   6.474   6.982  12.350  0.5423  1.6904  0.5121
  576MOL0     H75994   6.293   7.162  12.379  0.1445 -0.6461  1.6371
  576MOL0     H75995   6.080   7.136  12.488  1.7818 -1.8644  1.0385
  576MOL0     H75996   5.567   7.042  12.249  0.2586 -1.6957  0.3144
  576MOL0     H75997   5.340   7.059  12.346 -1.7774  0.2552  2.5868
  576MOL0     H75998   5.290   6.952  12.785  1.7011  0.3344 -1.2100
  576MOL0     H75999   5.248   6.788  12.715 -1.9506 -0.4490 -2.0109
  576MOL0     H76000   5.052   7.021  12.712  0.5878  0.4704  1.5215
  576MOL0     H76001   5.058   6.909  12.841 -0.5603  0.8507  0.5640
  576MOL0     H76002   5.059   6.731  12.632  2.5998  0.4308 -0.3706
  576MOL0     H76003   4.997   6.875  12.546  0.9095 -0.5290  0.3173
  576MOL0     H76004   4.836   6.922  12.714  0.7194  0.0768 -0.2760
  576MOL0     H76005   4.801   6.787  12.606 -1.9135 -0.0630  0.7338
  576MOL0     H76006   4.875   6.777  12.909  0.3077 -3.3621  1.5386
  576MOL0     H76007   4.925   6.644  12.809  0.9024  1.6034 -3.4485
  576MOL0     H76008   4.652   6.661  12.742  0.1921 -1.7070 -0.5331
  576MOL0     H76009   4.658   6.743  12.903 -2.2126 -0.2073 -1.6725
  576MOL0     H76010   4.790   6.530  12.978  0.8934  1.2513 -1.4427
  576MOL0     H76011   4.607   6.515  12.947  0.7192  0.6297  0.0483
  576MOL0     H76012   4.814   6.456  12.743  0.0955  2.7359  1.8048
  576MOL0     H76013   4.650   6.394  12.744  1.1276 -1.3459 -0.4944
  576MOL0     H76014   5.481   6.788  12.666  2.9469 -0.2108 -0.2819
  576MOL0     H76015   5.699   6.783  12.557  1.3653  1.8466 -0.4696
  576MOL0     H76016   5.950   6.878  12.172  2.4178  2.1421 -6.0888
  576MOL0     H76017   6.172   6.890  12.076  0.8977  2.4887 -1.5837
  576MOL0     H76018   7.283   7.905  11.565  1.4186 -0.6215 -1.8306
  576MOL0     H76019   7.521   7.989  11.505  1.8000  1.6296 -4.2091
  576MOL0     H76020   7.809   8.304  11.608  0.5713  2.6089  2.3872
  576MOL0     H76021   7.997   8.436  11.627  2.0701  1.7088 -1.5307
  576MOL0     H76022   8.262   8.721  11.406 -0.0010  1.3365 -1.6295
  576MOL0     H76023   8.120   8.721  11.294  1.0385 -1.8506 -2.9263
  576MOL0     H76024   8.301   8.481  11.337 -0.5040  0.6696  1.2757
  576MOL0     H76025   8.169   8.489  11.238  2.0856 -0.8958  0.0070
  576MOL0     H76026   8.423   8.680  11.208  1.1294 -1.9188 -0.3296
  576MOL0     H76027   8.274   8.685  11.108  0.0754 -1.2824 -1.2286
  576MOL0     H76028   8.479   8.465  11.163 -0.6895 -1.9302 -0.4407
  576MOL0     H76029   8.341   8.431  11.055 -0.4650  1.1136 -0.7136
  576MOL0     H76030   8.543   8.644  10.779  2.0077 -1.7867 -0.1660
  576MOL0     H76031   7.932   8.619  11.245 -0.3037  0.6620  0.8415
  576MOL0     H76032   7.721   8.512  11.229 -2.4386 -0.6242  1.2222
  577MOL0     O76033   7.025  10.881   5.033 -0.7922  0.2460  0.0295
  577MOL0     C76034   7.127  10.865   5.104  0.3457  0.2585  0.7466
  577MOL0     O76035   7.179  10.961   5.184 -0.4482  0.3317  0.0002
  577MOL0     C76036   7.101  11.074   5.200 -0.2635  0.5891  0.3283
  577MOL0     C76037   7.007  11.084   5.305  0.6870 -0.0208 -0.2163
  577MOL0     C76038   6.928  11.209   5.312 -0.4813  0.0127  0.0775
  577MOL0     C76039   6.929  11.310   5.213 -0.3919 -0.7702  0.3492
  577MOL0     O76040   6.847  11.414   5.234 -0.6709 -0.1387 -0.2380
  577MOL0     C76041   6.883  11.544   5.200  0.9039 -0.4318  0.6138
  577MOL0     C76042   6.812  11.590   5.074  0.0791  0.2741 -0.1822
  577MOL0     C76043   6.657  11.633   5.099  0.2790 -0.5718 -0.6296
  577MOL0     C76044   6.590  11.656   4.963 -0.0616 -0.0388  0.2956
  577MOL0     C76045   6.446  11.697   4.981  0.4455 -0.2641  0.4880
  577MOL0     C76046   6.356  11.583   5.038  0.4145  0.6878  0.0064
  577MOL0     C76047   6.209  11.620   5.042 -1.0574  0.6552 -0.9181
  577MOL0     C76048   6.131  11.490   5.071 -0.2223 -0.3523  0.3826
  577MOL0     N76049   5.990  11.507   5.041 -0.4129 -0.0434  1.1731
  577MOL0     C76050   5.892  11.414   5.054 -0.1051  0.8272  0.2458
  577MOL0     C76051   5.771  11.474   5.054  0.4623  0.9657  0.8577
  577MOL0     C76052   5.640  11.395   5.071 -0.4171 -0.1893 -0.5141
  577MOL0     C76053   5.545  11.483   5.149 -0.1879 -0.4866  0.2778
  577MOL0     C76054   5.400  11.429   5.154  0.0771 -0.3155  0.0679
  577MOL0     C76055   5.304  11.527   5.226 -0.0620  0.7870  0.1913
  577MOL0     O76056   5.267  11.631   5.134  0.0196  0.5046  0.1027
  577MOL0     C76057   5.178  11.728   5.174 -0.4452  0.1728  0.2018
  577MOL0     C76058   5.091  11.775   5.070  0.1759 -0.2699 -0.7805
  577MOL0     C76059   4.974  11.832   5.115  0.0777  0.0394  0.8287
  577MOL0     C76060   4.940  11.845   5.247  0.3309  0.0539  0.8516
  577MOL0     C76061   4.804  11.894   5.277 -0.2614  0.5825 -0.2253
  577MOL0     O76062   4.726  11.919   5.171  0.0851 -0.6396  0.6454
  577MOL0     C76063   4.614  11.994   5.197 -0.6004  0.0120 -0.5147
  577MOL0     C76064   4.618  12.127   5.223  0.1057  0.0253 -0.0443
  577MOL0     C76065   4.508  12.208   5.251  0.3786  0.2239  0.5727
  577MOL0     C76066   4.380  12.152   5.243 -0.6692  0.3930 -0.1136
  577MOL0     O76067   4.278  12.244   5.253 -0.5208 -0.2818  0.0375
  577MOL0     C76068   4.147  12.195   5.248 -0.2714  0.2026 -0.8669
  577MOL0     C76069   4.052  12.313   5.244  1.1300  0.3548  0.3241
  577MOL0     C76070   3.920  12.271   5.189 -0.6821 -0.3718  0.1539
  577MOL0     C76071   3.806  12.354   5.248 -0.5397 -0.4091 -0.1187
  577MOL0     C76072   3.681  12.312   5.187 -0.1139 -0.2871  0.0903
  577MOL0     C76073   3.558  12.390   5.253 -0.8957 -0.7442 -0.7713
  577MOL0     C76074   3.431  12.339   5.187  0.3548  0.6758  0.3224
  577MOL0     C76075   3.301  12.397   5.233 -0.8265 -0.0348  0.1396
  577MOL0    Cl76076   3.203  12.425   5.089 -0.0694 -0.0327 -0.1486
  577MOL0     C76077   4.369  12.015   5.216  0.6138  0.6335 -0.8066
  577MOL0     C76078   4.486  11.929   5.204 -0.1551 -0.3771 -0.2368
  577MOL0     O76079   4.768  11.898   5.397  0.1846  0.8371 -0.0437
  577MOL0     C76080   5.030  11.803   5.353  0.1704 -0.4133  0.4629
  577MOL0     C76081   5.153  11.752   5.311 -0.1261 -0.5303  0.0000
  577MOL0     N76082   5.798  11.607   5.035 -1.0869  0.0419 -0.1504
  577MOL0     N76083   5.928  11.624   5.033 -0.1912  0.0687 -0.2708
  577MOL0     C76084   7.023  11.297   5.115 -0.5963  0.1965  0.8444
  577MOL0     C76085   7.112  11.186   5.116 -0.2614  0.5842 -0.2873
  577MOL0     C76086   7.195  10.741   5.115  0.0941 -0.3009 -1.1481
  577MOL0     C76087   7.141  10.629   5.042 -0.8392 -0.3851 -0.8008
  577MOL0     C76088   7.202  10.500   5.044 -0.0345  0.6301 -0.7219
  577MOL0     C76089   7.315  10.480   5.124  0.5478 -0.0319 -0.2981
  577MOL0     O76090   7.389  10.360   5.111  0.1437 -0.2252 -0.4032
  577MOL0     C76091   7.515  10.379   5.047  0.0988 -1.1124 -0.3440
  577MOL0     C76092   7.536  10.259   4.955 -0.2463  0.2526  0.1905
  577MOL0     C76093   7.424  10.259   4.841  0.0061  0.3762  0.5987
  577MOL0     C76094   7.444  10.365   4.737  0.3355 -0.7962 -0.1642
  577MOL0     C76095   7.346  10.349   4.629  0.3728 -0.1077  0.4535
  577MOL0     C76096   7.271  10.343   4.534  0.2436 -0.4827 -0.3782
  577MOL0     C76097   7.366  10.588   5.194 -0.6249  1.2738  0.1257
  577MOL0     C76098   7.313  10.721   5.185 -0.0267 -0.4764  0.3729
  577MOL0     H76099   6.979  11.004   5.373  2.5843  0.1030  0.7765
  577MOL0     H76100   6.845  11.226   5.379 -1.7414  1.7853 -1.8313
  577MOL0     H76101   6.991  11.558   5.195  0.9627 -0.7441  0.9651
  577MOL0     H76102   6.845  11.611   5.278 -1.8749  2.3355 -2.7847
  577MOL0     H76103   6.806  11.519   4.992 -0.1012  0.3576 -0.2433
  577MOL0     H76104   6.861  11.678   5.030 -0.1667  0.4306 -0.1509
  577MOL0     H76105   6.640  11.721   5.162 -1.4070 -2.3430  1.5648
  577MOL0     H76106   6.607  11.547   5.144  0.8183 -0.7245 -0.3152
  577MOL0     H76107   6.659  11.729   4.920  1.7435 -1.3143  0.9132
  577MOL0     H76108   6.586  11.566   4.901 -0.5697  0.4375 -0.3723
  577MOL0     H76109   6.405  11.724   4.883  1.5296 -4.0615 -1.2261
  577MOL0     H76110   6.433  11.790   5.037  1.4116 -0.3947  0.9365
  577MOL0     H76111   6.388  11.548   5.137  0.3928  0.9798  0.1174
  577MOL0     H76112   6.371  11.493   4.977 -0.8414  1.2260 -1.1184
  577MOL0     H76113   6.192  11.688   5.126 -0.5623  0.3232 -0.5364
  577MOL0     H76114   6.167  11.670   4.954 -3.1844  1.1929  0.3416
  577MOL0     H76115   6.136  11.468   5.178  0.0079 -0.7851  0.2861
  577MOL0     H76116   6.163  11.402   5.014  0.4651  0.4620 -0.4952
  577MOL0     H76117   5.905  11.307   5.060  3.0307  1.1851  2.3645
  577MOL0     H76118   5.658  11.303   5.128  3.9458  0.3096 -0.7513
  577MOL0     H76119   5.595  11.379   4.972 -1.2568 -0.8266 -0.0342
  577MOL0     H76120   5.535  11.581   5.102 -3.0844 -0.8324  0.0236
  577MOL0     H76121   5.590  11.495   5.248  1.7665 -1.6364 -0.4221
  577MOL0     H76122   5.348  11.431   5.057 -1.7548  4.5209  0.8432
  577MOL0     H76123   5.401  11.329   5.198  2.6761  0.1479  1.1947
  577MOL0     H76124   5.356  11.573   5.311  0.9192  2.8995 -1.4737
  577MOL0     H76125   5.209  11.480   5.254  0.0114 -0.4451 -1.5395
  577MOL0     H76126   5.104  11.750   4.965 -0.8014 -1.2887 -0.6823
  577MOL0     H76127   4.909  11.853   5.030 -1.6635 -1.5172  1.7211
  577MOL0     H76128   4.712  12.181   5.220  0.6377 -0.8582 -3.1110
  577MOL0     H76129   4.523  12.315   5.256  2.6302 -0.0201  0.3942
  577MOL0     H76130   4.141  12.130   5.336 -0.5934  3.5898  1.8248
  577MOL0     H76131   4.131  12.130   5.161  0.9679 -2.8577  1.0406
  577MOL0     H76132   4.102  12.394   5.191  1.6218 -0.9358 -1.2717
  577MOL0     H76133   4.049  12.341   5.349 -0.1486  1.2161  0.0921
  577MOL0     H76134   3.894  12.167   5.212 -1.3976 -0.8986 -2.6541
  577MOL0     H76135   3.918  12.277   5.080  0.9555  2.5743  0.1775
  577MOL0     H76136   3.800  12.331   5.355  0.4091 -1.9280 -0.3620
  577MOL0     H76137   3.812  12.463   5.234  1.2789 -0.4085  0.4369
  577MOL0     H76138   3.659  12.205   5.192 -1.4367  0.0173  2.5039
  577MOL0     H76139   3.675  12.333   5.080 -0.3939  1.2685  0.3962
  577MOL0     H76140   3.561  12.496   5.226 -1.0333 -0.3278  0.7458
  577MOL0     H76141   3.549  12.380   5.362  0.5038  1.8366 -0.3292
  577MOL0     H76142   3.447  12.352   5.079 -0.0115 -0.5131  0.1081
  577MOL0     H76143   3.428  12.232   5.208  0.0900  0.2814 -1.5147
  577MOL0     H76144   3.320  12.492   5.283 -2.2460  0.0225  0.5971
  577MOL0     H76145   3.244  12.334   5.301  1.4370 -2.2897  0.1135
  577MOL0     H76146   4.273  11.968   5.203  0.0064  0.7975  2.2500
  577MOL0     H76147   4.492  11.822   5.186 -2.6500 -0.9101  1.5847
  577MOL0     H76148   5.009  11.804   5.459  2.5889  1.4193  1.0338
  577MOL0     H76149   5.220  11.704   5.382 -0.2778 -1.6353 -0.5852
  577MOL0     H76150   7.041  11.373   5.039  2.0412 -0.6526  0.5068
  577MOL0     H76151   7.184  11.175   5.035 -1.0912  2.1657 -1.2994
  577MOL0     H76152   7.053  10.636   4.978 -0.6770  3.2339 -0.8539
  577MOL0     H76153   7.157  10.420   4.985 -1.0605  0.6653 -0.0063
  577MOL0     H76154   7.592  10.378   5.124 -2.6026 -2.0873  2.5229
  577MOL0     H76155   7.536  10.472   4.992 -1.1191 -2.0405 -2.5208
  577MOL0     H76156   7.633  10.267   4.906  0.6760 -2.0759  1.4240
  577MOL0     H76157   7.535  10.167   5.015  1.4287 -0.7465 -1.2094
  577MOL0     H76158   7.328  10.269   4.893 -0.7091 -0.6252 -0.4513
  577MOL0     H76159   7.424  10.163   4.788 -2.5695 -0.1290  1.3491
  577MOL0     H76160   7.420  10.461   4.783 -2.9339 -0.6450 -1.9114
  577MOL0     H76161   7.546  10.369   4.697  0.3861  0.9233  0.0796
  577MOL0     H76162   7.203  10.330   4.452 -1.9985 -2.9508  1.7074
  577MOL0     H76163   7.451  10.552   5.252 -1.7535 -2.1686 -0.1380
  577MOL0     H76164   7.357  10.804   5.241 -0.7736  1.6748 -2.0479
  578MOL0     O76165  11.059   0.282   0.376  0.3591  0.7889 -0.5531
  578MOL0     C76166  11.084   0.166   0.415 -1.7350 -0.3323 -0.1561
  578MOL0     O76167  11.032   0.099   0.521 -0.2526 -0.1214 -0.2282
  578MOL0     C76168  10.940   0.175   0.600 -0.2008 -0.5969 -1.0881
  578MOL0     C76169  10.985   0.244   0.715  0.8820 -0.3239 -0.4906
  578MOL0     C76170  10.902   0.320   0.802 -0.4663  0.7598  0.1721
  578MOL0     C76171  10.762   0.326   0.775 -0.7696  0.5363  0.4653
  578MOL0     O76172  10.683   0.356   0.888  0.1472 -0.9928 -0.1803
  578MOL0     C76173  10.546   0.327   0.896 -0.4068 -0.1200  0.5089
  578MOL0     C76174  10.464   0.414   0.984 -0.7017  0.2750  0.0660
  578MOL0     C76175  10.517   0.454   1.120 -0.1992  0.3252  0.1109
  578MOL0     C76176  10.407   0.549   1.179 -0.5073  0.6403  0.7731
  578MOL0     C76177  10.402   0.537   1.326  0.1917  0.3714  0.8605
  578MOL0     C76178  10.342   0.661   1.383 -0.6986 -0.3632  0.0823
  578MOL0     C76179  10.332   0.634   1.529  0.1390 -0.2347 -0.2349
  578MOL0     C76180  10.252   0.746   1.600  0.6497  0.0281 -0.1711
  578MOL0     N76181  10.102   0.726   1.576 -0.5754 -0.1532  0.8166
  578MOL0     C76182  10.037   0.617   1.623 -0.0096  1.2203  0.0044
  578MOL0     C76183   9.919   0.611   1.566 -0.1533 -0.2003  0.6425
  578MOL0     C76184   9.805   0.510   1.571  0.3087  0.8909  0.1263
  578MOL0     C76185   9.676   0.592   1.598 -0.4039  1.1146  0.0786
  578MOL0     C76186   9.559   0.497   1.582 -0.5593  0.3840 -0.3488
  578MOL0     C76187   9.432   0.579   1.585 -0.0682 -1.2522  0.6811
  578MOL0     O76188   9.408   0.622   1.719 -0.2586 -0.5730 -0.5068
  578MOL0     C76189   9.277   0.652   1.745  0.8179  0.0600  0.7822
  578MOL0     C76190   9.159   0.590   1.697 -0.3745  0.1523 -0.7504
  578MOL0     C76191   9.035   0.629   1.746  0.1364 -0.0281 -0.0698
  578MOL0     C76192   9.023   0.713   1.854 -0.4747 -0.8521  0.0085
  578MOL0     C76193   8.884   0.742   1.912  0.4836  0.9450 -0.2330
  578MOL0     O76194   8.774   0.697   1.850 -0.7919 -0.0654 -0.0185
  578MOL0     C76195   8.659   0.733   1.902  0.2423  0.0515 -0.2238
  578MOL0     C76196   8.579   0.643   1.971  0.3067  0.9005  0.9234
  578MOL0     C76197   8.449   0.674   2.026  0.0360  0.5715  0.5892
  578MOL0     C76198   8.403   0.799   2.010  0.2710 -0.2112 -0.6467
  578MOL0     O76199   8.278   0.813   2.062 -0.2553 -0.4000  0.0528
  578MOL0     C76200   8.180   0.883   1.983 -0.2409 -0.4815 -0.3038
  578MOL0     C76201   8.043   0.831   2.007 -0.5732 -0.1490  0.3754
  578MOL0     C76202   7.953   0.870   1.889 -0.5661 -0.5433  0.1574
  578MOL0     C76203   7.821   0.797   1.904 -0.1613 -0.2742 -0.1103
  578MOL0     C76204   7.723   0.817   1.789  0.6942  0.4622  0.1199
  578MOL0     C76205   7.638   0.935   1.799 -0.0031 -1.0826  0.4531
  578MOL0     C76206   7.548   0.950   1.677  0.3660 -0.4376 -0.4279
  578MOL0     C76207   7.425   1.035   1.697 -0.9522 -0.0556  0.1424
  578MOL0    Cl76208   7.336   1.050   1.541  0.3569  0.0969 -0.0612
  578MOL0     C76209   8.483   0.895   1.942  0.0961  0.1556  0.0399
  578MOL0     C76210   8.608   0.861   1.890  0.1775  0.5275 -0.1020
  578MOL0     O76211   8.883   0.807   2.017 -0.1073  0.4628  0.7157
  578MOL0     C76212   9.146   0.775   1.905 -0.0333 -0.1124 -0.2883
  578MOL0     C76213   9.269   0.743   1.854  0.5701  0.5835 -0.1296
  578MOL0     N76214   9.922   0.715   1.471 -0.1435  0.5084 -0.0388
  578MOL0     N76215  10.028   0.777   1.470 -0.5318  0.3076  0.1681
  578MOL0     C76216  10.715   0.262   0.654  1.3756 -0.4080 -0.7466
  578MOL0     C76217  10.803   0.188   0.576  0.4160  0.1575  0.3674
  578MOL0     C76218  11.174   0.091   0.318 -0.0094 -0.6617 -0.5263
  578MOL0     C76219  11.215  -0.043   0.345  0.2391 -0.6307  0.6199
  578MOL0     C76220  11.300  -0.113   0.256 -0.6201 -0.3539 -1.2316
  578MOL0     C76221  11.361  -0.046   0.152 -0.0878  0.1435  0.3200
  578MOL0     O76222  11.450  -0.129   0.071  0.6422 -0.1225 -0.1982
  578MOL0     C76223  11.503  -0.075  -0.050  0.0697 -0.0114 -0.4892
  578MOL0     C76224  11.533  -0.186  -0.143 -0.4613 -0.1578 -0.3751
  578MOL0     C76225  11.656  -0.266  -0.092  0.8602  0.4891  0.2046
  578MOL0     C76226  11.693  -0.363  -0.206 -0.0333  0.2303 -0.0058
  578MOL0     C76227  11.780  -0.468  -0.163 -0.3900  0.4980 -0.4621
  578MOL0     C76228  11.869  -0.538  -0.118 -0.4454  0.6033 -0.2847
  578MOL0     C76229  11.326   0.085   0.124  0.1257  0.0653  0.4193
  578MOL0     C76230  11.240   0.160   0.209  0.1048  0.6279 -0.2723
  578MOL0     H76231  11.089   0.233   0.746  0.8051  0.3563  0.0153
  578MOL0     H76232  10.949   0.360   0.891 -1.9368  0.5881  1.0651
  578MOL0     H76233  10.539   0.222   0.923 -0.8402 -1.2417 -3.3820
  578MOL0     H76234  10.510   0.331   0.793  0.8302  1.4901  0.0921
  578MOL0     H76235  10.364   0.373   0.999 -1.4455  2.4131  1.3625
  578MOL0     H76236  10.450   0.511   0.935  1.2041  1.6719  2.0950
  578MOL0     H76237  10.610   0.511   1.116 -0.8192  1.3088 -0.8677
  578MOL0     H76238  10.546   0.374   1.189  2.5188  0.0831 -1.1918
  578MOL0     H76239  10.417   0.653   1.148  0.1330 -0.2571 -2.4095
  578MOL0     H76240  10.311   0.521   1.135 -0.9751  1.3716  1.3154
  578MOL0     H76241  10.496   0.516   1.378 -1.5325 -1.2675  3.5203
  578MOL0     H76242  10.336   0.451   1.340 -1.6366  1.6172  0.3643
  578MOL0     H76243  10.244   0.683   1.339  0.0774  0.9301 -1.0980
  578MOL0     H76244  10.401   0.753   1.374  0.0148 -0.6337  1.6126
  578MOL0     H76245  10.282   0.540   1.556 -2.6504  1.3217  0.4854
  578MOL0     H76246  10.432   0.625   1.572  0.3892 -2.6240 -1.2128
  578MOL0     H76247  10.277   0.843   1.557  0.1053 -0.9606 -2.9294
  578MOL0     H76248  10.273   0.738   1.707 -4.4155 -0.9269  0.9880
  578MOL0     H76249  10.081   0.557   1.703  0.7793  1.5339 -0.1874
  578MOL0     H76250   9.836   0.433   1.642 -0.1947  0.5664 -0.0000
  578MOL0     H76251   9.808   0.450   1.480 -1.6600 -0.5667  0.9538
  578MOL0     H76252   9.658   0.676   1.530  0.1131  0.4072 -0.9690
  578MOL0     H76253   9.693   0.621   1.702 -1.3534  1.6067  0.1041
  578MOL0     H76254   9.580   0.446   1.488  1.8782 -0.1753  0.4283
  578MOL0     H76255   9.562   0.414   1.653  2.2018  0.8205  0.1834
  578MOL0     H76256   9.351   0.516   1.550 -0.1162 -0.3472 -0.9347
  578MOL0     H76257   9.425   0.658   1.510 -2.1457 -2.4184 -0.4427
  578MOL0     H76258   9.152   0.506   1.628 -3.1137 -2.5162  2.3885
  578MOL0     H76259   8.947   0.585   1.700  0.1323 -0.7802  0.6318
  578MOL0     H76260   8.606   0.540   1.989 -2.7205 -0.1524 -0.0425
  578MOL0     H76261   8.385   0.599   2.071 -2.0886  1.4321 -0.8146
  578MOL0     H76262   8.214   0.879   1.879  2.4493 -0.7316  0.4889
  578MOL0     H76263   8.181   0.990   2.005 -0.5818  0.5378 -4.4351
  578MOL0     H76264   8.021   0.882   2.101  2.5657  1.1226  0.5256
  578MOL0     H76265   8.045   0.723   2.020  0.4368 -0.1840  0.0035
  578MOL0     H76266   8.010   0.838   1.801  1.7055 -1.4265  1.8554
  578MOL0     H76267   7.934   0.977   1.877  2.3488  0.1001  0.3078
  578MOL0     H76268   7.840   0.689   1.913  2.1302 -0.1559 -2.3218
  578MOL0     H76269   7.781   0.838   1.997  0.7187 -0.8203  0.5306
  578MOL0     H76270   7.675   0.720   1.775  3.4365 -0.9130 -0.3987
  578MOL0     H76271   7.778   0.828   1.695 -0.3903 -3.5705 -1.1826
  578MOL0     H76272   7.684   1.034   1.808 -0.2338 -1.1506  2.9808
  578MOL0     H76273   7.579   0.917   1.889  1.7746  2.7204  2.6333
  578MOL0     H76274   7.608   1.000   1.601  2.4673 -1.6853  0.3263
  578MOL0     H76275   7.516   0.851   1.641  0.8149 -1.6560  2.2735
  578MOL0     H76276   7.456   1.137   1.720 -0.8060  0.6614 -2.8978
  578MOL0     H76277   7.351   1.003   1.771 -1.8543  0.4272 -0.5278
  578MOL0     H76278   8.434   0.991   1.933 -0.9301 -0.3509  0.0437
  578MOL0     H76279   8.665   0.934   1.832 -1.5833 -1.4487 -4.8207
  578MOL0     H76280   9.137   0.847   1.986 -0.8801 -2.6794  2.0649
  578MOL0     H76281   9.363   0.780   1.894 -0.7265  0.0759  3.8255
  578MOL0     H76282  10.610   0.261   0.626  0.1714 -1.0579  3.2387
  578MOL0     H76283  10.758   0.140   0.490 -0.1388  2.1975 -0.5572
  578MOL0     H76284  11.180  -0.101   0.429  0.0462 -0.8506  0.3910
  578MOL0     H76285  11.319  -0.219   0.272 -2.0005 -0.5141 -0.4592
  578MOL0     H76286  11.592  -0.021  -0.018  1.7497 -2.4831 -0.6911
  578MOL0     H76287  11.430  -0.011  -0.101 -0.8048  0.7206  1.5730
  578MOL0     H76288  11.442  -0.246  -0.147 -0.6665  0.0502  0.8735
  578MOL0     H76289  11.558  -0.156  -0.246  0.8893  0.0133 -0.0208
  578MOL0     H76290  11.621  -0.325  -0.007  2.4228 -0.5891  0.1536
  578MOL0     H76291  11.733  -0.204  -0.046 -0.2852  1.9440  0.2169
  578MOL0     H76292  11.604  -0.412  -0.246  1.7366 -2.1448 -1.2461
  578MOL0     H76293  11.743  -0.310  -0.288 -0.1279  0.0988 -0.1491
  578MOL0     H76294  11.943  -0.606  -0.081  0.5435  0.5123 -2.3205
  578MOL0     H76295  11.365   0.137   0.037 -1.0211  1.5496  0.7535
  578MOL0     H76296  11.225   0.266   0.190  0.2480  0.7150  0.0951
  579MOL0     O76297   5.125   7.911   1.633  0.0152  0.3715 -0.2034
  579MOL0     C76298   5.148   7.805   1.583 -0.6055 -0.0983 -0.5833
  579MOL0     O76299   5.267   7.742   1.573 -0.2346 -0.2953  0.1133
  579MOL0     C76300   5.378   7.783   1.636 -0.5441 -0.1020  0.2668
  579MOL0     C76301   5.503   7.820   1.570  0.4990  0.3633  0.1941
  579MOL0     C76302   5.608   7.859   1.654  0.0903 -0.2730  0.4179
  579MOL0     C76303   5.604   7.879   1.791  1.0758 -0.1195  0.5362
  579MOL0     O76304   5.706   7.934   1.858 -0.4637 -0.7524 -0.4258
  579MOL0     C76305   5.696   7.991   1.991  0.9317  0.6811 -0.2389
  579MOL0     C76306   5.836   8.051   2.034 -0.1869  0.7976 -0.2054
  579MOL0     C76307   5.857   8.174   1.948 -0.8774  0.5541  0.4275
  579MOL0     C76308   5.998   8.230   1.983  0.2397 -0.1060  0.1267
  579MOL0     C76309   6.052   8.327   1.887 -0.2120 -1.5274  1.1188
  579MOL0     C76310   5.984   8.473   1.900 -0.1589 -0.8925 -0.2676
  579MOL0     C76311   6.046   8.562   1.785  0.0740  0.2364  0.3872
  579MOL0     C76312   6.198   8.579   1.803  0.6848 -0.0227 -0.1891
  579MOL0     N76313   6.246   8.671   1.695  0.0696  0.2095 -0.5852
  579MOL0     C76314   6.301   8.797   1.714 -0.3317 -0.7870 -0.2635
  579MOL0     C76315   6.342   8.831   1.594 -1.4053 -0.1521  0.3153
  579MOL0     C76316   6.403   8.968   1.552  1.1210  1.1447  0.2137
  579MOL0     C76317   6.528   8.955   1.476 -0.0483  0.5503 -0.1790
  579MOL0     C76318   6.643   8.913   1.573 -0.3418  0.8133  0.7477
  579MOL0     C76319   6.770   8.903   1.495 -0.3456 -0.3906 -0.1944
  579MOL0     O76320   6.879   8.867   1.582  0.3431 -0.4665  0.3785
  579MOL0     C76321   7.008   8.862   1.535 -0.2412 -0.1604  0.5534
  579MOL0     C76322   7.118   8.863   1.629  0.0172 -0.7263 -0.1460
  579MOL0     C76323   7.251   8.857   1.586  0.2933  0.8978  0.4199
  579MOL0     C76324   7.285   8.853   1.452 -0.6773 -0.1603 -0.8802
  579MOL0     C76325   7.422   8.855   1.404 -0.1255  0.4361  1.5258
  579MOL0     O76326   7.447   8.787   1.288  0.2041 -0.1027 -0.3109
  579MOL0     C76327   7.580   8.792   1.247  0.1638 -0.2793 -0.1416
  579MOL0     C76328   7.636   8.676   1.210  0.3129  0.0978 -0.7127
  579MOL0     C76329   7.750   8.677   1.132  0.7150  0.4705 -0.1712
  579MOL0     C76330   7.820   8.789   1.103 -0.8085  0.4869  0.2799
  579MOL0     O76331   7.932   8.781   1.014  0.3226  0.8333 -0.4636
  579MOL0     C76332   8.006   8.905   0.998  0.3681 -0.6466 -0.4990
  579MOL0     C76333   8.153   8.895   0.922 -0.4100  0.3943 -0.2028
  579MOL0     C76334   8.208   9.041   0.929 -0.2187 -0.1745  0.2054
  579MOL0     C76335   8.323   9.061   0.823  0.0788 -0.3058 -0.4053
  579MOL0     C76336   8.442   9.136   0.886  1.1405 -0.2087 -0.4155
  579MOL0     C76337   8.562   9.128   0.806  0.3980 -0.5659 -0.0296
  579MOL0     C76338   8.639   8.992   0.817  0.1083 -0.2065  0.0137
  579MOL0     C76339   8.790   8.990   0.831 -0.0807 -0.1562  0.4091
  579MOL0    Cl76340   8.863   9.094   0.960 -0.3610  0.0018  0.1856
  579MOL0     C76341   7.765   8.909   1.142  0.3949  0.3849 -0.4409
  579MOL0     C76342   7.643   8.907   1.206 -0.2897 -0.1656 -0.3096
  579MOL0     O76343   7.513   8.898   1.476  0.6001 -0.7400  0.0817
  579MOL0     C76344   7.179   8.872   1.357 -0.2507 -0.4775 -0.5095
  579MOL0     C76345   7.048   8.862   1.400 -0.6128  0.3744 -0.2404
  579MOL0     N76346   6.302   8.734   1.508  0.3337  0.2391  0.2156
  579MOL0     N76347   6.258   8.634   1.571  0.2496 -1.0755  0.4657
  579MOL0     C76348   5.483   7.844   1.848 -0.7343 -1.0589 -0.2183
  579MOL0     C76349   5.371   7.807   1.769 -0.2782  0.4555 -1.6580
  579MOL0     C76350   5.035   7.736   1.534  0.1043 -0.6043  0.5594
  579MOL0     C76351   5.044   7.606   1.477  0.2269  0.3519 -0.6109
  579MOL0     C76352   4.946   7.550   1.401  0.3752  0.2245 -0.1533
  579MOL0     C76353   4.824   7.617   1.379 -0.7375 -0.1907 -0.5973
  579MOL0     O76354   4.728   7.557   1.304  1.0073  0.3166  0.2422
  579MOL0     C76355   4.604   7.622   1.297  0.6467 -0.1549  0.7783
  579MOL0     C76356   4.506   7.552   1.205  0.0287  0.0453 -0.2673
  579MOL0     C76357   4.475   7.414   1.270  0.3396  0.1567 -0.7366
  579MOL0     C76358   4.341   7.364   1.216 -0.3244  0.2247 -0.7672
  579MOL0     C76359   4.305   7.236   1.267 -0.2616 -0.8371 -0.3637
  579MOL0     C76360   4.268   7.129   1.295  0.6548  1.0114  0.6578
  579MOL0     C76361   4.800   7.739   1.449 -1.2116 -0.3760  1.2626
  579MOL0     C76362   4.905   7.799   1.525  0.5547 -0.1993 -0.2278
  579MOL0     H76363   5.516   7.802   1.464  0.5670  4.2482 -0.5916
  579MOL0     H76364   5.705   7.880   1.611 -0.4152 -2.1624 -1.8981
  579MOL0     H76365   5.659   7.919   2.064 -0.1000 -0.5557 -1.9000
  579MOL0     H76366   5.623   8.071   1.972 -1.6272 -1.2908  0.7064
  579MOL0     H76367   5.900   7.963   2.025 -1.3763 -0.2625  1.2363
  579MOL0     H76368   5.841   8.081   2.139  1.9426  2.7169 -0.7875
  579MOL0     H76369   5.782   8.250   1.969  2.6930  3.8548  2.6041
  579MOL0     H76370   5.855   8.159   1.840 -1.4536 -1.3529  0.6649
  579MOL0     H76371   5.992   8.277   2.081 -3.8636  1.1770 -0.5268
  579MOL0     H76372   6.060   8.140   1.985  1.6028  0.7925 -0.1389
  579MOL0     H76373   6.046   8.292   1.784 -2.3566  2.6730 -0.4217
  579MOL0     H76374   6.157   8.341   1.915 -0.0536 -1.5305  0.5244
  579MOL0     H76375   6.015   8.520   1.994  2.0469  2.5459 -2.4793
  579MOL0     H76376   5.875   8.469   1.890 -0.1047 -3.6554 -0.4419
  579MOL0     H76377   6.022   8.520   1.688  1.9088  0.3908 -0.1841
  579MOL0     H76378   5.997   8.660   1.791 -0.2960  0.0003  1.6024
  579MOL0     H76379   6.242   8.482   1.780 -1.8043 -0.7552 -2.3121
  579MOL0     H76380   6.229   8.620   1.899 -0.4829 -0.9295  0.5967
  579MOL0     H76381   6.309   8.847   1.810 -0.4515  0.2010 -0.7546
  579MOL0     H76382   6.415   9.038   1.636 -0.2739  0.2791  1.1847
  579MOL0     H76383   6.334   9.016   1.481  4.0767  2.6254 -1.8599
  579MOL0     H76384   6.550   9.050   1.428 -1.1146  1.1532  0.4764
  579MOL0     H76385   6.511   8.873   1.406 -1.3463  0.5474  0.1051
  579MOL0     H76386   6.646   8.971   1.665  2.9269 -1.3150  2.1359
  579MOL0     H76387   6.627   8.810   1.606  0.2097  0.2151 -0.7372
  579MOL0     H76388   6.792   8.997   1.444 -0.2671 -0.2701  0.0589
  579MOL0     H76389   6.773   8.837   1.408  0.5013  0.1382 -0.5774
  579MOL0     H76390   7.078   8.870   1.730 -2.4239 -1.4817 -0.9721
  579MOL0     H76391   7.324   8.846   1.665 -0.5281 -0.8821  1.0052
  579MOL0     H76392   7.603   8.574   1.224  0.2382  0.3881  1.6376
  579MOL0     H76393   7.787   8.582   1.095 -3.2337 -0.5675 -2.0229
  579MOL0     H76394   8.033   8.934   1.100 -1.5162  1.0973 -0.4272
  579MOL0     H76395   7.948   8.984   0.950 -1.0499  1.9515  4.7608
  579MOL0     H76396   8.135   8.858   0.820 -0.1571  1.5200 -0.6701
  579MOL0     H76397   8.225   8.830   0.973 -0.3167  3.1616  3.6226
  579MOL0     H76398   8.245   9.079   1.025  0.1776 -1.4564  0.5790
  579MOL0     H76399   8.127   9.108   0.901  1.1734  2.0399  1.2177
  579MOL0     H76400   8.370   8.969   0.789 -0.3880 -0.3300 -1.0042
  579MOL0     H76401   8.291   9.115   0.733 -1.2130 -1.4974 -0.6911
  579MOL0     H76402   8.474   9.089   0.979  2.5654 -2.8650 -2.1379
  579MOL0     H76403   8.420   9.243   0.901  1.2145 -0.2388 -0.0799
  579MOL0     H76404   8.624   9.207   0.848 -0.6350  1.7339 -2.5428
  579MOL0     H76405   8.531   9.151   0.704 -0.0925 -1.9753 -0.2151
  579MOL0     H76406   8.607   8.941   0.908  1.0397  0.7587  0.9020
  579MOL0     H76407   8.615   8.925   0.734  0.1375  0.9838 -0.9839
  579MOL0     H76408   8.835   9.009   0.732  0.2775  2.5776  0.9965
  579MOL0     H76409   8.822   8.889   0.856 -1.5982 -0.6338  0.4900
  579MOL0     H76410   7.820   9.002   1.133  3.9628 -1.5673 -0.9326
  579MOL0     H76411   7.598   9.003   1.229 -1.8904 -1.0100  0.2930
  579MOL0     H76412   7.187   8.881   1.249 -0.5396 -1.6791 -0.6385
  579MOL0     H76413   6.970   8.872   1.325 -1.3760  0.8799  0.5933
  579MOL0     H76414   5.459   7.849   1.954 -0.9913  1.4935 -0.3456
  579MOL0     H76415   5.281   7.786   1.825 -0.6806 -0.2543 -2.5451
  579MOL0     H76416   5.132   7.542   1.485 -0.9195 -1.0669  2.3532
  579MOL0     H76417   4.982   7.461   1.350  0.6350 -0.4734  1.1898
  579MOL0     H76418   4.625   7.721   1.255 -1.2189  0.1043  0.3744
  579MOL0     H76419   4.559   7.633   1.396 -1.9654 -3.6477  0.1817
  579MOL0     H76420   4.417   7.616   1.194  0.1992 -0.1024 -3.2958
  579MOL0     H76421   4.549   7.543   1.105 -2.3714  0.8520 -1.4556
  579MOL0     H76422   4.448   7.421   1.376  0.0636 -0.7284 -0.7471
  579MOL0     H76423   4.554   7.342   1.249 -0.7197 -1.2016 -0.1788
  579MOL0     H76424   4.265   7.434   1.251  1.0554  0.5372  1.8714
  579MOL0     H76425   4.347   7.367   1.107 -0.2792 -2.3455 -0.9114
  579MOL0     H76426   4.239   7.026   1.304  1.6644  0.8209  1.9756
  579MOL0     H76427   4.712   7.797   1.422 -0.8703 -0.4591 -0.1037
  579MOL0     H76428   4.892   7.903   1.552  1.1568 -0.4261  1.0145
  580MOL0     O76429   0.115   6.195  10.221 -0.5611 -0.4579  0.0059
  580MOL0     C76430   0.144   6.250  10.324 -0.1271 -0.7847  0.7439
  580MOL0     O76431   0.052   6.303  10.410  0.6126 -0.0513  0.2572
  580MOL0     C76432  -0.088   6.292  10.401  0.4961  0.8798  0.6769
  580MOL0     C76433  -0.157   6.411  10.380 -0.7655 -0.2061 -0.2293
  580MOL0     C76434  -0.294   6.412  10.378 -0.1852  0.1060  0.2569
  580MOL0     C76435  -0.363   6.298  10.402 -0.1238  0.9254  0.8040
  580MOL0     O76436  -0.503   6.294  10.397 -0.3730  0.1878  0.3176
  580MOL0     C76437  -0.584   6.394  10.467 -0.1356 -0.1904 -0.1856
  580MOL0     C76438  -0.711   6.424  10.402  0.2870 -0.4885 -0.1484
  580MOL0     C76439  -0.806   6.524  10.480 -0.0473 -0.2334  0.8390
  580MOL0     C76440  -0.942   6.512  10.418 -0.6184 -0.3541 -0.5161
  580MOL0     C76441  -1.037   6.618  10.477  0.8250 -0.3634 -0.1763
  580MOL0     C76442  -1.175   6.604  10.407 -0.8516 -0.6324  1.0937
  580MOL0     C76443  -1.192   6.730  10.312  0.1080 -0.0219 -0.3890
  580MOL0     C76444  -1.115   6.706  10.192  0.2399 -1.0798  0.2435
  580MOL0     N76445  -1.143   6.800  10.089  0.0773  0.9064  0.2732
  580MOL0     C76446  -1.268   6.811  10.030  0.3422 -0.0509 -0.9136
  580MOL0     C76447  -1.247   6.906   9.934  0.9069 -0.1765  0.8989
  580MOL0     C76448  -1.362   6.979   9.858 -0.8076  0.9342 -0.5505
  580MOL0     C76449  -1.360   6.927   9.705  0.2058 -0.3068 -0.2361
  580MOL0     C76450  -1.477   6.989   9.618 -0.7418 -0.3921  0.6307
  580MOL0     C76451  -1.462   7.143   9.606  0.9114 -0.1730 -0.6896
  580MOL0     O76452  -1.565   7.226   9.677 -0.3662  0.3163 -0.5007
  580MOL0     C76453  -1.681   7.245   9.610 -0.8370 -0.6861  0.1841
  580MOL0     C76454  -1.775   7.296   9.701 -0.1277 -0.4969  0.1972
  580MOL0     C76455  -1.902   7.326   9.654 -0.2460 -0.0887  0.0949
  580MOL0     C76456  -1.947   7.306   9.518  0.0187 -0.3326 -0.2542
  580MOL0     C76457  -2.089   7.324   9.478  0.7281  0.5673  0.6404
  580MOL0     O76458  -2.179   7.353   9.577  0.5292  0.1788 -0.1444
  580MOL0     C76459  -2.312   7.383   9.551  1.1922  0.5196  0.0251
  580MOL0     C76460  -2.387   7.344   9.658 -0.3020 -0.5308 -0.7955
  580MOL0     C76461  -2.526   7.339   9.651 -0.2024  0.4882 -0.0097
  580MOL0     C76462  -2.588   7.394   9.532 -0.1111  1.0063 -0.6478
  580MOL0     O76463  -2.719   7.405   9.521  0.5607 -0.1785  0.5080
  580MOL0     C76464  -2.796   7.433   9.642 -0.9419 -0.2866 -0.2781
  580MOL0     C76465  -2.905   7.523   9.599 -0.6684 -0.6981  0.1162
  580MOL0     C76466  -2.857   7.652   9.520  0.0370 -0.5356  1.3321
  580MOL0     C76467  -2.752   7.737   9.580 -0.3451  0.9290  0.2404
  580MOL0     C76468  -2.679   7.830   9.479  0.2313 -0.1747 -0.0175
  580MOL0     C76469  -2.569   7.921   9.534  0.1777 -0.8711 -1.2211
  580MOL0     C76470  -2.531   8.023   9.432 -0.7786 -1.0394  0.1005
  580MOL0     C76471  -2.422   8.116   9.479  0.5191 -0.5405  0.1503
  580MOL0    Cl76472  -2.469   8.252   9.579 -0.4454  0.1342  0.0879
  580MOL0     C76473  -2.515   7.432   9.426 -0.3411 -0.2503 -0.2017
  580MOL0     C76474  -2.373   7.438   9.433 -0.2112  0.3586 -0.1740
  580MOL0     O76475  -2.120   7.288   9.363  0.2288  0.2929 -0.3566
  580MOL0     C76476  -1.846   7.261   9.426 -0.9629  0.6658 -0.3835
  580MOL0     C76477  -1.719   7.231   9.472  0.8583 -1.0477 -0.0933
  580MOL0     N76478  -1.111   6.927   9.922  0.4663  0.1217  0.1970
  580MOL0     N76479  -1.048   6.862  10.019  0.3348 -0.3072  0.4780
  580MOL0     C76480  -0.298   6.175  10.408 -0.0080 -0.3458  0.1788
  580MOL0     C76481  -0.155   6.168  10.408  1.0086  0.2407  0.1426
  580MOL0     C76482   0.297   6.285  10.346  0.1647  0.8360 -0.5080
  580MOL0     C76483   0.338   6.388  10.428  0.4493  0.3367 -1.2539
  580MOL0     C76484   0.470   6.419  10.436 -0.6309  0.0357  0.2956
  580MOL0     C76485   0.564   6.346  10.361 -0.2080  0.0255  0.3511
  580MOL0     O76486   0.704   6.361  10.370 -1.0676  0.1652 -0.3870
  580MOL0     C76487   0.758   6.498  10.347  0.2506  0.2095 -0.0060
  580MOL0     C76488   0.880   6.539  10.428  0.5807 -0.2791  0.3591
  580MOL0     C76489   0.998   6.444  10.385  1.0561 -0.8471  0.1567
  580MOL0     C76490   1.136   6.499  10.416  0.3007 -0.1677  0.6912
  580MOL0     C76491   1.165   6.608  10.317 -0.6289  0.1952 -0.1037
  580MOL0     C76492   1.191   6.685  10.224 -0.3464 -0.0463  0.4151
  580MOL0     C76493   0.517   6.240  10.286 -0.1668  0.6765  0.2560
  580MOL0     C76494   0.380   6.207  10.269 -0.4663  0.6463  0.3944
  580MOL0     H76495  -0.104   6.504  10.361 -0.8140  0.0596  0.8702
  580MOL0     H76496  -0.359   6.494  10.351  0.3217  0.5938  0.4950
  580MOL0     H76497  -0.530   6.489  10.477  0.2557 -0.4101 -0.2116
  580MOL0     H76498  -0.605   6.349  10.564 -1.3420  0.5847 -0.0645
  580MOL0     H76499  -0.762   6.327  10.399 -1.3072  0.1253  2.9228
  580MOL0     H76500  -0.692   6.459  10.300 -0.6764 -0.4803 -0.3395
  580MOL0     H76501  -0.764   6.624  10.467  2.7205 -1.2015  1.5643
  580MOL0     H76502  -0.805   6.501  10.587 -1.5071  0.0569  0.9432
  580MOL0     H76503  -0.918   6.525  10.312  0.6812  0.4301 -0.1512
  580MOL0     H76504  -0.983   6.413  10.439 -4.6773  1.1976 -0.2558
  580MOL0     H76505  -0.995   6.719  10.473 -0.6224  0.2889  0.3429
  580MOL0     H76506  -1.046   6.594  10.583  0.1341  1.2959  0.1671
  580MOL0     H76507  -1.255   6.626  10.477 -2.6274  0.4625 -1.1405
  580MOL0     H76508  -1.177   6.505  10.360  0.1423  0.4049 -1.3415
  580MOL0     H76509  -1.295   6.737  10.277  0.4582 -0.1087 -1.4653
  580MOL0     H76510  -1.164   6.816  10.374 -2.3868  0.3883  0.2983
  580MOL0     H76511  -1.136   6.603  10.162 -3.2492 -1.0046  1.9860
  580MOL0     H76512  -1.007   6.704  10.209  0.5194  0.4683 -1.0685
  580MOL0     H76513  -1.354   6.745  10.036 -2.6994  2.6872 -6.5331
  580MOL0     H76514  -1.341   7.087   9.863  0.1831  0.7888 -1.2633
  580MOL0     H76515  -1.454   6.963   9.914  0.4162 -1.9405  0.8722
  580MOL0     H76516  -1.369   6.819   9.700 -0.3994 -0.4748  2.5312
  580MOL0     H76517  -1.261   6.952   9.667  1.7445 -1.4634  2.6980
  580MOL0     H76518  -1.463   6.937   9.523  0.1489  1.6232 -0.4048
  580MOL0     H76519  -1.574   6.960   9.658 -0.8797  0.5579  1.0066
  580MOL0     H76520  -1.448   7.175   9.502  0.5908  0.3238 -0.5825
  580MOL0     H76521  -1.370   7.174   9.656  1.7272 -1.1705 -1.5283
  580MOL0     H76522  -1.737   7.306   9.802  0.2977 -1.3733  0.1285
  580MOL0     H76523  -1.967   7.372   9.728 -0.7065 -0.0545 -0.3282
  580MOL0     H76524  -2.336   7.302   9.743 -1.6756  0.1691  0.4152
  580MOL0     H76525  -2.592   7.298   9.727  0.8896 -1.4834 -0.0534
  580MOL0     H76526  -2.741   7.495   9.713 -0.2126 -0.5129 -0.6335
  580MOL0     H76527  -2.821   7.335   9.684 -2.5396 -1.3148 -3.3130
  580MOL0     H76528  -2.950   7.563   9.691 -0.3517  2.2657 -0.9171
  580MOL0     H76529  -2.977   7.466   9.539  0.7854 -0.9689 -1.4271
  580MOL0     H76530  -2.941   7.713   9.486 -0.0296 -1.4635 -0.2755
  580MOL0     H76531  -2.814   7.614   9.427 -1.0674  0.0277  0.5742
  580MOL0     H76532  -2.793   7.806   9.655  2.5975  0.7597  2.1544
  580MOL0     H76533  -2.674   7.679   9.630  2.6754  2.8215 -1.9509
  580MOL0     H76534  -2.752   7.895   9.430 -0.5870 -2.3301 -1.8203
  580MOL0     H76535  -2.641   7.766   9.399 -0.8032 -1.3733  0.4034
  580MOL0     H76536  -2.482   7.861   9.563 -0.2150 -0.8642  0.0347
  580MOL0     H76537  -2.613   7.974   9.619  1.9714 -1.1379 -0.0859
  580MOL0     H76538  -2.492   7.962   9.350  2.8868  0.2696  0.6409
  580MOL0     H76539  -2.612   8.079   9.384 -0.3528 -2.3965 -2.3591
  580MOL0     H76540  -2.364   8.154   9.395 -0.6828  0.6210 -0.1861
  580MOL0     H76541  -2.353   8.051   9.533  1.3861 -0.1025 -0.4172
  580MOL0     H76542  -2.552   7.461   9.328  0.6078 -2.7410 -1.3838
  580MOL0     H76543  -2.322   7.464   9.341  1.4030  1.4390  0.9752
  580MOL0     H76544  -1.862   7.255   9.319  0.1098  2.0616 -0.6547
  580MOL0     H76545  -1.643   7.182   9.411 -0.9228 -2.4188 -1.3120
  580MOL0     H76546  -0.354   6.082  10.415 -1.2499  0.4135  0.7127
  580MOL0     H76547  -0.097   6.077  10.416  1.1024  0.2042 -0.7948
  580MOL0     H76548   0.269   6.443  10.492  3.0037 -1.3796  3.4298
  580MOL0     H76549   0.505   6.496  10.504  0.6583  0.1929 -0.5245
  580MOL0     H76550   0.676   6.565  10.374 -0.5107 -2.0923  4.3061
  580MOL0     H76551   0.782   6.513  10.242 -1.2188  0.0023 -0.3846
  580MOL0     H76552   0.909   6.635  10.385  1.1191 -1.1957 -1.3909
  580MOL0     H76553   0.869   6.542  10.537  0.7956  3.5496  0.3974
  580MOL0     H76554   0.991   6.407  10.282 -0.8315 -1.6561  0.5261
  580MOL0     H76555   0.979   6.357  10.449 -3.4614  2.3223  3.7115
  580MOL0     H76556   1.139   6.545  10.515 -2.8173  1.0461  0.3583
  580MOL0     H76557   1.197   6.409  10.405 -1.3468 -1.2071 -0.5246
  580MOL0     H76558   1.201   6.737  10.131 -0.9399 -1.7536 -0.6656
  580MOL0     H76559   0.600   6.200  10.229  0.1310  1.8213 -0.1370
  580MOL0     H76560   0.348   6.135  10.194 -0.4725  0.1798  0.8413
  581MOL0     O76561   4.515   5.457  10.804 -0.4356 -0.0661  0.5113
  581MOL0     C76562   4.450   5.381  10.726  0.0522  0.5361 -0.7420
  581MOL0     O76563   4.323   5.394  10.698  0.1172 -0.8889  0.3449
  581MOL0     C76564   4.236   5.459  10.789 -0.5683 -0.1514 -0.1712
  581MOL0     C76565   4.129   5.529  10.731  0.8841 -0.3303 -0.5665
  581MOL0     C76566   4.032   5.596  10.809  0.0910 -0.6846 -0.1587
  581MOL0     C76567   4.042   5.589  10.951 -0.4771  0.4809 -1.1323
  581MOL0     O76568   3.956   5.648  11.035  0.3172 -0.3345  0.9400
  581MOL0     C76569   3.972   5.795  11.048 -0.3706  0.0534 -0.1917
  581MOL0     C76570   3.906   5.841  11.175 -0.1729 -0.9377 -0.3059
  581MOL0     C76571   3.911   5.756  11.305  0.7064  0.0856  0.7291
  581MOL0     C76572   4.026   5.798  11.406  0.1187 -0.4328 -0.3170
  581MOL0     C76573   4.023   5.931  11.485  0.1894  1.6418  0.5731
  581MOL0     C76574   3.895   5.943  11.572 -1.1206  0.5188  0.4000
  581MOL0     C76575   3.886   5.821  11.662 -0.3541  0.2325  0.7428
  581MOL0     C76576   3.787   5.833  11.785  0.4759  0.0745 -0.6841
  581MOL0     N76577   3.785   5.712  11.869  0.0099 -0.0631  0.7829
  581MOL0     C76578   3.769   5.582  11.819  0.4570  0.0833  0.1322
  581MOL0     C76579   3.739   5.504  11.926 -1.1476 -0.0164 -0.1500
  581MOL0     C76580   3.698   5.366  11.916 -0.5390  0.6500  0.3257
  581MOL0     C76581   3.572   5.342  11.991  0.3670 -0.4212  0.7042
  581MOL0     C76582   3.488   5.240  11.926  0.5652 -0.2198 -0.1186
  581MOL0     C76583   3.375   5.210  12.019  1.0522  0.6920  0.1926
  581MOL0     O76584   3.268   5.302  12.004 -0.4408  0.4326 -0.0795
  581MOL0     C76585   3.145   5.273  12.061 -0.4513 -0.1378 -0.2524
  581MOL0     C76586   3.044   5.364  12.050  0.4557  0.0314  0.1062
  581MOL0     C76587   2.924   5.351  12.117  0.9859 -0.4365 -0.5098
  581MOL0     C76588   2.892   5.221  12.175  0.0240 -0.2148  0.1673
  581MOL0     C76589   2.754   5.182  12.202  0.7536 -0.3616 -0.3759
  581MOL0     O76590   2.730   5.073  12.283  0.1317 -0.7204 -0.4913
  581MOL0     C76591   2.594   5.055  12.299 -0.4002  0.9727 -0.4650
  581MOL0     C76592   2.520   4.965  12.209 -0.5852  0.6410  0.4602
  581MOL0     C76593   2.394   4.918  12.242  0.5567  0.2829  0.1806
  581MOL0     C76594   2.328   4.960  12.355 -0.0836  0.2710 -0.7943
  581MOL0     O76595   2.212   4.898  12.405  0.2416 -0.5522 -0.3770
  581MOL0     C76596   2.149   4.798  12.321 -0.2611  0.9787  0.2941
  581MOL0     C76597   2.013   4.738  12.372 -0.2085 -0.0426 -0.2246
  581MOL0     C76598   2.044   4.648  12.505  1.1896 -0.6339 -0.2837
  581MOL0     C76599   1.925   4.561  12.536  0.1991  0.1071  0.3216
  581MOL0     C76600   1.920   4.437  12.447  0.3404  0.1655 -1.2337
  581MOL0     C76601   1.829   4.329  12.509 -0.1700 -0.9451 -0.4707
  581MOL0     C76602   1.910   4.238  12.608  0.5331 -0.1746  0.4155
  581MOL0     C76603   1.818   4.160  12.697 -0.8299  0.3638 -0.3200
  581MOL0    Cl76604   1.772   4.264  12.828  0.2578 -0.4246 -0.3087
  581MOL0     C76605   2.399   5.053  12.442  0.7870  0.1110 -0.0181
  581MOL0     C76606   2.529   5.098  12.414 -0.0914  0.1588 -0.0373
  581MOL0     O76607   2.665   5.258  12.150 -0.4618 -0.1621 -0.4448
  581MOL0     C76608   2.989   5.126  12.185  0.5626 -0.2935  0.4159
  581MOL0     C76609   3.114   5.153  12.127 -0.0035  0.0492  0.0986
  581MOL0     N76610   3.748   5.587  12.040 -0.1173 -0.0731  0.2602
  581MOL0     N76611   3.771   5.717  12.007  0.7420  0.4851  0.4577
  581MOL0     C76612   4.143   5.507  11.005 -0.0477 -1.0329  0.1259
  581MOL0     C76613   4.237   5.441  10.932  0.4652 -1.1329 -0.2981
  581MOL0     C76614   4.520   5.278  10.650  0.2392 -0.6110 -1.1103
  581MOL0     C76615   4.644   5.228  10.696  0.1224 -0.0755  0.1901
  581MOL0     C76616   4.723   5.141  10.615  0.6078 -0.3686  0.0940
  581MOL0     C76617   4.666   5.091  10.500  0.7261 -0.2820 -0.4162
  581MOL0     O76618   4.715   5.001  10.419  0.1692 -0.6328  0.1653
  581MOL0     C76619   4.816   4.913  10.458  0.0273  0.2397 -0.7730
  581MOL0     C76620   4.954   4.970  10.405  0.7905 -0.3662 -0.5278
  581MOL0     C76621   4.991   4.942  10.262  0.2160 -0.3112  1.1323
  581MOL0     C76622   5.013   4.796  10.230  0.7933 -0.0503 -0.4392
  581MOL0     C76623   5.059   4.779  10.093 -0.7945 -0.7208 -0.6091
  581MOL0     C76624   5.107   4.764   9.983  0.2081 -0.3964  0.0114
  581MOL0     C76625   4.546   5.140  10.462  0.0559 -0.2547  0.6735
  581MOL0     C76626   4.464   5.228  10.529  0.1669 -0.1548  0.3703
  581MOL0     H76627   4.116   5.535  10.624 -1.1578  2.2422 -0.2709
  581MOL0     H76628   3.953   5.655  10.764 -0.4666  0.7942  2.5093
  581MOL0     H76629   3.936   5.844  10.957  0.2125  0.9933  0.0593
  581MOL0     H76630   4.078   5.821  11.063 -0.7374  0.2910  2.3577
  581MOL0     H76631   3.800   5.856  11.151 -0.5469 -3.2661 -0.2814
  581MOL0     H76632   3.955   5.939  11.185 -0.9781 -0.4346 -1.1642
  581MOL0     H76633   3.926   5.655  11.267  0.2122  0.7860 -1.5008
  581MOL0     H76634   3.814   5.760  11.354  0.3516  2.3710 -0.0606
  581MOL0     H76635   4.049   5.718  11.478  0.4781  0.9335  1.1367
  581MOL0     H76636   4.117   5.797  11.346 -0.0860 -1.5348 -0.6370
  581MOL0     H76637   4.033   6.014  11.415  2.8744  0.4123 -0.6442
  581MOL0     H76638   4.116   5.930  11.541  0.7594  1.9872 -0.3491
  581MOL0     H76639   3.810   5.969  11.509 -0.8208  1.0345  0.1954
  581MOL0     H76640   3.904   6.029  11.640  2.1917  1.2186 -0.7065
  581MOL0     H76641   3.845   5.746  11.594 -0.3436 -0.2439  1.2557
  581MOL0     H76642   3.985   5.788  11.696 -0.1956 -1.2488 -0.9947
  581MOL0     H76643   3.684   5.843  11.750  0.6912 -2.3465 -2.2636
  581MOL0     H76644   3.811   5.923  11.844 -0.7029 -0.7801  1.1787
  581MOL0     H76645   3.774   5.549  11.716  3.0285  1.8385 -0.3962
  581MOL0     H76646   3.770   5.297  11.962 -0.1046 -0.9021 -2.4545
  581MOL0     H76647   3.694   5.336  11.810 -1.1232  2.4278 -0.1869
  581MOL0     H76648   3.512   5.431  12.014 -2.1523 -2.4121  2.4563
  581MOL0     H76649   3.588   5.304  12.093 -1.5437  0.3576  1.3456
  581MOL0     H76650   3.451   5.296  11.839  1.9178  1.9597  0.6359
  581MOL0     H76651   3.550   5.151  11.910  0.1033 -0.9575  1.9517
  581MOL0     H76652   3.409   5.220  12.123  0.6414 -1.4851  0.5888
  581MOL0     H76653   3.345   5.106  12.001  1.1351  0.6512  0.2877
  581MOL0     H76654   3.068   5.454  11.994  1.5862 -0.4290 -0.1785
  581MOL0     H76655   2.846   5.427  12.103  1.7762  0.3136 -0.9491
  581MOL0     H76656   2.567   4.940  12.114  1.4253  3.0503  0.7312
  581MOL0     H76657   2.357   4.849  12.166  5.9251 -1.5814 -1.2251
  581MOL0     H76658   2.217   4.713  12.310 -2.6868 -1.0611  0.2148
  581MOL0     H76659   2.139   4.841  12.221  1.5920  1.3354  0.2238
  581MOL0     H76660   1.979   4.672  12.292  1.3069  1.0774 -1.8691
  581MOL0     H76661   1.945   4.823  12.383  1.4091  1.3952 -0.9459
  581MOL0     H76662   2.034   4.720  12.588 -1.0001  2.8589 -3.2699
  581MOL0     H76663   2.130   4.581  12.496  1.3096 -0.1276 -4.9484
  581MOL0     H76664   1.938   4.534  12.641  0.6819  0.3408  0.3206
  581MOL0     H76665   1.828   4.611  12.527  0.6020  1.0362  0.9993
  581MOL0     H76666   2.018   4.399  12.417  0.8463  1.0861 -0.7600
  581MOL0     H76667   1.872   4.457  12.350 -0.4841  1.0837 -0.6528
  581MOL0     H76668   1.799   4.266  12.425 -0.1673 -0.3105 -0.9583
  581MOL0     H76669   1.743   4.385  12.550  0.9733  2.6277 -2.4620
  581MOL0     H76670   1.961   4.170  12.541  0.1076 -1.1049  1.0085
  581MOL0     H76671   1.974   4.307  12.664  1.5001  0.7784 -1.7648
  581MOL0     H76672   1.880   4.082  12.742  0.2955  0.1101 -2.2087
  581MOL0     H76673   1.727   4.120  12.650 -1.8647 -1.0166  2.5998
  581MOL0     H76674   2.355   5.067  12.540  0.3678  1.6773 -0.4027
  581MOL0     H76675   2.580   5.142  12.499 -2.7839  3.2658  0.1818
  581MOL0     H76676   2.962   5.035  12.239  1.1146  0.2630  1.6739
  581MOL0     H76677   3.187   5.074  12.140 -1.9845 -2.1142 -1.2181
  581MOL0     H76678   4.131   5.497  11.113 -3.7079  1.0966  0.0877
  581MOL0     H76679   4.310   5.380  10.984  0.7838 -0.5736 -0.0829
  581MOL0     H76680   4.696   5.277  10.778  0.5472  0.0377 -0.1472
  581MOL0     H76681   4.822   5.124  10.655 -0.2851 -0.0482  2.5620
  581MOL0     H76682   4.802   4.810  10.422  1.3990 -0.3185  0.2251
  581MOL0     H76683   4.809   4.898  10.566  0.1937 -1.5832 -0.9829
  581MOL0     H76684   4.955   5.077  10.424 -0.4723 -0.9102  3.4548
  581MOL0     H76685   5.031   4.915  10.460  0.4230 -2.1572 -1.6894
  581MOL0     H76686   5.080   4.999  10.234 -1.6082  1.6730 -1.1019
  581MOL0     H76687   4.914   4.986  10.198  0.8621 -0.3209  0.3279
  581MOL0     H76688   5.080   4.750  10.304 -1.6181  0.7620  2.4421
  581MOL0     H76689   4.921   4.738  10.243  0.0368  1.5613  2.2453
  581MOL0     H76690   5.124   4.770   9.877  0.3959  2.6057  0.1043
  581MOL0     H76691   4.515   5.107  10.363  2.8295  1.2370 -0.8179
  581MOL0     H76692   4.372   5.271  10.490  0.3525  0.8783  1.0261
  582MOL0     O76693   1.139   5.578   0.252 -0.9905  0.4116 -0.4655
  582MOL0     C76694   1.111   5.689   0.213 -0.4675 -0.6458  0.6932
  582MOL0     O76695   1.206   5.793   0.190  0.4134  0.6838 -0.2835
  582MOL0     C76696   1.334   5.744   0.179  0.7606 -0.2567 -0.1132
  582MOL0     C76697   1.422   5.794   0.274  0.7354  0.5583  0.5373
  582MOL0     C76698   1.554   5.758   0.274  0.1161 -0.3606  0.1622
  582MOL0     C76699   1.604   5.658   0.189  0.2530  0.1855  0.1165
  582MOL0     O76700   1.736   5.632   0.198  0.5583  0.2978  0.1857
  582MOL0     C76701   1.799   5.562   0.089 -0.2163 -0.3596  0.4139
  582MOL0     C76702   1.957   5.565   0.116 -0.1259  0.3424 -0.4796
  582MOL0     C76703   2.008   5.704   0.110 -0.3396 -0.3459  0.3310
  582MOL0     C76704   2.166   5.696   0.120  0.2245  0.2460  0.0510
  582MOL0     C76705   2.213   5.745   0.263 -0.1274 -0.4694 -1.0230
  582MOL0     C76706   2.171   5.664   0.392  0.2988 -0.2178 -0.5318
  582MOL0     C76707   2.232   5.712   0.526  0.1626 -1.0589  0.1395
  582MOL0     C76708   2.171   5.634   0.632 -0.5638 -0.4885 -0.5378
  582MOL0     N76709   2.029   5.657   0.672  0.8351 -0.0410 -0.2616
  582MOL0     C76710   1.911   5.617   0.606 -0.5388  0.0595 -0.6968
  582MOL0     C76711   1.804   5.661   0.676 -0.2322 -1.1368 -0.3188
  582MOL0     C76712   1.665   5.638   0.636  0.5217  0.1183 -1.0913
  582MOL0     C76713   1.582   5.735   0.713 -0.7553  0.3569 -0.4669
  582MOL0     C76714   1.444   5.750   0.654  0.6390  0.1344 -0.6834
  582MOL0     C76715   1.363   5.850   0.743  0.3703  0.3959  0.0962
  582MOL0     O76716   1.254   5.909   0.674  0.4603 -0.0663  0.4039
  582MOL0     C76717   1.126   5.863   0.693  0.0815 -0.0950  0.3684
  582MOL0     C76718   1.068   5.815   0.581 -0.3746 -0.5150 -0.7175
  582MOL0     C76719   0.935   5.783   0.579 -0.5830 -0.0933  0.8362
  582MOL0     C76720   0.857   5.796   0.702 -0.1248  0.5000 -0.4208
  582MOL0     C76721   0.711   5.764   0.714  0.3307 -0.2459 -0.1534
  582MOL0     O76722   0.670   5.720   0.830  0.1404 -0.4469 -0.3503
  582MOL0     C76723   0.544   5.676   0.846  0.9834 -1.0189 -0.7881
  582MOL0     C76724   0.514   5.545   0.819 -0.2915  0.1341  0.4053
  582MOL0     C76725   0.388   5.497   0.847  0.3753 -0.5650 -0.0186
  582MOL0     C76726   0.292   5.585   0.907 -0.5277  0.1084  0.7860
  582MOL0     O76727   0.170   5.533   0.939  0.1466  0.1372 -0.0702
  582MOL0     C76728   0.172   5.415   1.019 -1.0493 -0.4706 -0.1844
  582MOL0     C76729   0.044   5.414   1.093  0.5598 -0.2535  1.1107
  582MOL0     C76730   0.026   5.523   1.196 -0.4182  0.7232 -0.1995
  582MOL0     C76731   0.121   5.520   1.319  0.0120  0.6454  0.3003
  582MOL0     C76732   0.084   5.612   1.431 -0.0285  0.1990 -0.0823
  582MOL0     C76733   0.186   5.614   1.543  0.3116  0.3473  0.1332
  582MOL0     C76734   0.291   5.723   1.525 -0.0750  0.5561 -0.3516
  582MOL0     C76735   0.402   5.687   1.429  0.6461  0.6686  0.2498
  582MOL0    Cl76736   0.358   5.758   1.272  0.1986 -0.0391  0.0911
  582MOL0     C76737   0.318   5.723   0.931  0.2284 -0.3407  0.8866
  582MOL0     C76738   0.444   5.772   0.889  0.1457 -0.7505  0.0066
  582MOL0     O76739   0.647   5.767   0.608  0.6313 -0.0729 -0.5449
  582MOL0     C76740   0.921   5.847   0.815 -0.0071  0.0929  0.0096
  582MOL0     C76741   1.060   5.882   0.808  0.5485 -0.3065 -0.3834
  582MOL0     N76742   1.859   5.742   0.772  0.2208 -0.4964  0.6803
  582MOL0     N76743   1.982   5.746   0.767  0.0157  0.8389 -0.4329
  582MOL0     C76744   1.516   5.597   0.094  0.2418 -0.1798 -0.0913
  582MOL0     C76745   1.379   5.641   0.093  0.1691 -0.8021  0.6468
  582MOL0     C76746   0.969   5.732   0.209  0.1140 -0.1782  0.8006
  582MOL0     C76747   0.929   5.857   0.186 -0.3316  0.9406 -0.2934
  582MOL0     C76748   0.798   5.899   0.192  0.5255 -0.4106 -0.0836
  582MOL0     C76749   0.696   5.811   0.212  0.4967 -0.8930  0.5018
  582MOL0     O76750   0.565   5.841   0.232 -0.2280  0.5700 -0.3340
  582MOL0     C76751   0.537   5.973   0.273  0.0063  0.7370 -0.0332
  582MOL0     C76752   0.393   6.002   0.333 -0.4684  0.2782  0.0140
  582MOL0     C76753   0.268   5.966   0.252 -0.5077 -0.7527  0.2235
  582MOL0     C76754   0.219   5.824   0.255  0.8677 -0.8516  0.3165
  582MOL0     C76755   0.176   5.786   0.389  0.5830  0.4635  0.0530
  582MOL0     C76756   0.141   5.764   0.500  0.4792 -0.2922  0.2930
  582MOL0     C76757   0.731   5.679   0.228  0.5724  0.1333  0.2636
  582MOL0     C76758   0.865   5.643   0.217 -0.6460  0.3081  0.2028
  582MOL0     H76759   1.393   5.882   0.331 -5.6771 -1.2447  0.7806
  582MOL0     H76760   1.606   5.815   0.350 -1.4833  1.3013  0.1019
  582MOL0     H76761   1.770   5.622   0.002 -0.2465  3.2862  2.7229
  582MOL0     H76762   1.771   5.457   0.079  1.3345 -0.8066  0.3843
  582MOL0     H76763   2.006   5.500   0.042 -1.9702 -0.4663 -1.0618
  582MOL0     H76764   1.981   5.532   0.217 -0.1403  2.0402  0.0982
  582MOL0     H76765   1.966   5.773   0.184  3.8135  1.9516  0.8265
  582MOL0     H76766   1.999   5.748   0.010 -2.0905  5.4165  2.6341
  582MOL0     H76767   2.199   5.594   0.101 -1.4598 -0.2224 -0.5621
  582MOL0     H76768   2.221   5.749   0.042  0.6652  0.8372  0.7472
  582MOL0     H76769   2.170   5.843   0.288  1.5689 -0.3784  2.0013
  582MOL0     H76770   2.322   5.743   0.262 -0.1171  0.0052 -2.6709
  582MOL0     H76771   2.190   5.557   0.375 -0.2043 -0.1270 -1.7408
  582MOL0     H76772   2.062   5.673   0.404  0.4936  0.7492  0.7291
  582MOL0     H76773   2.340   5.703   0.514  0.1774  0.3299 -1.1468
  582MOL0     H76774   2.212   5.818   0.542  2.2870 -0.6271  0.2099
  582MOL0     H76775   2.234   5.654   0.719  0.1978  1.3377 -1.4522
  582MOL0     H76776   2.187   5.528   0.610  0.3826 -0.5512  0.3827
  582MOL0     H76777   1.906   5.550   0.520  0.9912 -3.3732  1.6480
  582MOL0     H76778   1.632   5.540   0.671 -0.7566  0.7977 -0.3520
  582MOL0     H76779   1.645   5.647   0.529  1.2525  2.2667 -1.1099
  582MOL0     H76780   1.630   5.833   0.717 -2.5879  1.3042  2.9779
  582MOL0     H76781   1.574   5.702   0.817  2.4594  1.0028  0.0980
  582MOL0     H76782   1.467   5.803   0.561 -1.2261  1.0213 -0.6948
  582MOL0     H76783   1.400   5.653   0.632  2.2405 -0.3730 -1.8137
  582MOL0     H76784   1.431   5.927   0.781  1.6046  0.8248 -2.7184
  582MOL0     H76785   1.314   5.794   0.823 -2.7263 -1.4850 -2.8375
  582MOL0     H76786   1.132   5.794   0.496  0.0097 -0.0505 -0.5506
  582MOL0     H76787   0.892   5.758   0.482 -0.0208 -0.9259  0.7983
  582MOL0     H76788   0.581   5.477   0.768  0.3394 -1.4107  3.0870
  582MOL0     H76789   0.354   5.401   0.811  2.1137 -0.9411 -0.7564
  582MOL0     H76790   0.261   5.419   1.082 -0.6440 -2.2953 -0.6087
  582MOL0     H76791   0.189   5.320   0.969  0.1593  0.4513 -1.6055
  582MOL0     H76792   0.030   5.321   1.150 -1.0308 -0.4956  0.3578
  582MOL0     H76793  -0.037   5.422   1.021  1.0276 -2.9650  0.1606
  582MOL0     H76794  -0.078   5.519   1.230 -0.3201 -1.1144 -0.0342
  582MOL0     H76795   0.039   5.620   1.146  1.6414  1.1336  1.0045
  582MOL0     H76796   0.134   5.420   1.361  1.3261  1.8685  3.1035
  582MOL0     H76797   0.220   5.554   1.285 -0.6725  2.2640 -0.1987
  582MOL0     H76798  -0.015   5.588   1.469 -1.0312  2.4559 -1.1008
  582MOL0     H76799   0.073   5.716   1.397 -1.4230  0.8188  2.0583
  582MOL0     H76800   0.232   5.518   1.567 -1.5491 -0.4952  0.5266
  582MOL0     H76801   0.126   5.634   1.633 -0.0980 -5.1846  1.4468
  582MOL0     H76802   0.241   5.821   1.521 -1.4070  0.0300  1.6006
  582MOL0     H76803   0.336   5.729   1.625 -0.8382 -2.7120  0.2828
  582MOL0     H76804   0.419   5.580   1.421  2.1775  1.0147 -2.0332
  582MOL0     H76805   0.498   5.732   1.458  1.4146 -0.9341  0.2882
  582MOL0     H76806   0.242   5.790   0.969  0.6330 -0.0598  1.2113
  582MOL0     H76807   0.476   5.876   0.884  2.0690 -1.3723 -2.0083
  582MOL0     H76808   0.866   5.877   0.904 -2.0002 -1.5028 -0.5867
  582MOL0     H76809   1.110   5.930   0.892 -0.1137  0.4349 -0.4070
  582MOL0     H76810   1.546   5.523   0.020 -1.7932 -1.1311 -0.0307
  582MOL0     H76811   1.307   5.600   0.024  1.3057  0.3678 -1.3042
  582MOL0     H76812   1.002   5.934   0.162  0.0716  1.5650  2.5750
  582MOL0     H76813   0.779   6.003   0.169  2.1650 -0.3951 -1.5461
  582MOL0     H76814   0.544   6.037   0.184 -0.2113 -1.1573 -1.4679
  582MOL0     H76815   0.606   6.001   0.353  0.4456  0.4859 -0.3178
  582MOL0     H76816   0.392   5.949   0.429  4.9973 -2.4144 -1.0101
  582MOL0     H76817   0.393   6.110   0.352 -0.7810  0.1180  1.0124
  582MOL0     H76818   0.286   6.010   0.153  1.8520  0.0033  0.9225
  582MOL0     H76819   0.182   6.020   0.292 -0.8542  1.1274 -2.7282
  582MOL0     H76820   0.129   5.826   0.194  0.5735  2.2195  0.7134
  582MOL0     H76821   0.295   5.757   0.213  0.9849 -0.4514 -0.1196
  582MOL0     H76822   0.115   5.747   0.603 -1.0163  3.8033  0.8142
  582MOL0     H76823   0.650   5.607   0.221 -0.2381  1.0832 -0.5051
  582MOL0     H76824   0.907   5.543   0.223  0.1978  0.3776 -2.8477
  583MOL0     O76825   4.379   4.891  11.251 -0.3926  0.5318 -0.0514
  583MOL0     C76826   4.451   4.970  11.185  0.1194  0.7342 -0.4161
  583MOL0     O76827   4.397   5.079  11.115 -0.3140  0.2600  0.0626
  583MOL0     C76828   4.265   5.088  11.091  0.2008 -0.2756  0.7579
  583MOL0     C76829   4.178   5.129  11.190 -1.1170 -0.2436 -0.1766
  583MOL0     C76830   4.042   5.148  11.170  0.4413  0.5015 -0.3758
  583MOL0     C76831   3.984   5.132  11.046  0.1215  0.4014  1.2010
  583MOL0     O76832   3.842   5.114  11.015 -1.2364 -0.4536  0.3944
  583MOL0     C76833   3.734   5.141  11.096  0.1128  0.9457 -0.8580
  583MOL0     C76834   3.680   5.281  11.102  0.3109 -0.4978 -0.1454
  583MOL0     C76835   3.630   5.326  11.240  0.8093 -0.2870  0.8190
  583MOL0     C76836   3.563   5.459  11.246  1.3441 -0.0668 -0.6517
  583MOL0     C76837   3.558   5.499  11.394 -0.0879  0.7522  0.8103
  583MOL0     C76838   3.494   5.636  11.415 -0.2943 -0.1037 -0.5178
  583MOL0     C76839   3.477   5.680  11.557  0.0290 -0.0960  0.2434
  583MOL0     C76840   3.372   5.590  11.624 -0.2180  0.2061 -0.6770
  583MOL0     N76841   3.325   5.658  11.743 -0.8456  0.8652 -0.1505
  583MOL0     C76842   3.405   5.655  11.862  0.8421  0.1767 -0.9958
  583MOL0     C76843   3.337   5.744  11.942  0.1828 -0.5643 -0.2044
  583MOL0     C76844   3.383   5.770  12.089 -0.0484 -0.9597 -0.3399
  583MOL0     C76845   3.263   5.800  12.174  1.1269 -0.1003 -0.0913
  583MOL0     C76846   3.164   5.680  12.173 -0.0322  1.1571 -0.3815
  583MOL0     C76847   3.056   5.713  12.275 -0.1728  1.2998 -0.5439
  583MOL0     O76848   2.981   5.595  12.289 -0.1054  0.1207 -0.9586
  583MOL0     C76849   2.875   5.598  12.380  0.7784 -0.2321  0.0995
  583MOL0     C76850   2.819   5.471  12.403 -0.0471 -0.2386  0.1503
  583MOL0     C76851   2.698   5.452  12.479 -0.0435  0.0666  0.1344
  583MOL0     C76852   2.633   5.564  12.533 -0.7700  0.4452  0.2797
  583MOL0     C76853   2.523   5.549  12.625 -0.8886  0.1660  0.3666
  583MOL0     O76854   2.485   5.428  12.665  0.1556 -0.0802 -0.1987
  583MOL0     C76855   2.393   5.419  12.771 -0.1268  0.4562 -0.9082
  583MOL0     C76856   2.312   5.307  12.768 -0.4102  0.1695 -0.9289
  583MOL0     C76857   2.211   5.283  12.869 -0.3299 -0.1719 -0.5509
  583MOL0     C76858   2.190   5.377  12.965  0.2108 -0.3725 -0.1494
  583MOL0     O76859   2.105   5.351  13.064  0.1272  0.3363 -0.5362
  583MOL0     C76860   1.960   5.383  13.054 -0.0051 -1.2594  1.0404
  583MOL0     C76861   1.881   5.266  13.000  0.4905  0.1987  0.6493
  583MOL0     C76862   1.910   5.153  13.102 -0.6735 -1.1197  0.4169
  583MOL0     C76863   1.864   5.016  13.038  0.4974 -0.5093 -0.5847
  583MOL0     C76864   1.718   4.983  13.092  0.2445  0.2839 -0.2529
  583MOL0     C76865   1.683   4.833  13.090  0.2711  0.2108  0.2760
  583MOL0     C76866   1.653   4.788  12.946  0.4558  0.1849 -0.6591
  583MOL0     C76867   1.571   4.666  12.937  0.2048 -0.5678 -0.2794
  583MOL0    Cl76868   1.461   4.681  12.795 -0.2276 -0.4792  0.4241
  583MOL0     C76869   2.275   5.488  12.970 -0.6842  0.0842 -0.8027
  583MOL0     C76870   2.372   5.511  12.877 -0.6269  0.5310  0.5817
  583MOL0     O76871   2.469   5.659  12.642 -0.4617  0.1696  0.4215
  583MOL0     C76872   2.680   5.688  12.493  0.4064 -0.1655  0.1432
  583MOL0     C76873   2.795   5.708  12.413  0.0815 -0.5830  0.2873
  583MOL0     N76874   3.245   5.812  11.873  0.0943 -0.3837  0.4848
  583MOL0     N76875   3.226   5.753  11.757 -0.1401 -0.7922 -1.0287
  583MOL0     C76876   4.072   5.102  10.938 -0.2444  0.0992  0.0776
  583MOL0     C76877   4.208   5.086  10.962 -0.1274 -1.2366 -0.1998
  583MOL0     C76878   4.591   4.949  11.175  0.2865  0.4635  0.5876
  583MOL0     C76879   4.679   5.018  11.095 -0.6792 -0.3074  0.5984
  583MOL0     C76880   4.822   4.994  11.081 -0.0277 -0.0344 -0.0564
  583MOL0     C76881   4.879   4.903  11.170  0.1910  0.6295  0.1065
  583MOL0     O76882   5.009   4.886  11.193 -0.0114  0.9176 -0.1879
  583MOL0     C76883   5.096   4.994  11.152 -0.2798 -0.9411  0.3759
  583MOL0     C76884   5.235   4.967  11.223  0.0509 -1.1818 -0.1450
  583MOL0     C76885   5.304   4.845  11.155 -0.0313 -0.9577  0.1579
  583MOL0     C76886   5.452   4.845  11.178  0.1920  0.8525 -0.1430
  583MOL0     C76887   5.471   4.807  11.315  0.8028 -0.3051  0.4353
  583MOL0     C76888   5.491   4.764  11.423 -0.7047 -0.2112 -0.4877
  583MOL0     C76889   4.795   4.831  11.257 -0.3311 -0.2867 -0.2399
  583MOL0     C76890   4.658   4.851  11.258 -0.3525 -0.6122 -1.1096
  583MOL0     H76891   4.241   5.124  11.278  1.3125 -2.5760 -1.8590
  583MOL0     H76892   3.982   5.163  11.259  1.4122  1.5698  0.1251
  583MOL0     H76893   3.763   5.096  11.192  0.4922  0.1071 -1.3524
  583MOL0     H76894   3.654   5.087  11.044  1.2096 -0.2168 -1.3858
  583MOL0     H76895   3.599   5.294  11.029 -0.3008  0.8875  0.7184
  583MOL0     H76896   3.763   5.346  11.072 -2.4580  2.8828 -1.3015
  583MOL0     H76897   3.706   5.325  11.319  0.8804  0.3291  0.7609
  583MOL0     H76898   3.552   5.254  11.268  1.2140 -0.1598  2.3518
  583MOL0     H76899   3.603   5.532  11.175  1.3573 -1.2492 -1.9197
  583MOL0     H76900   3.457   5.448  11.218  1.2074 -0.0686 -0.1463
  583MOL0     H76901   3.660   5.500  11.432  0.2032  0.3711  0.0544
  583MOL0     H76902   3.498   5.418  11.437  0.6009 -0.7142 -0.9170
  583MOL0     H76903   3.398   5.657  11.366 -0.4882 -0.7254 -0.4119
  583MOL0     H76904   3.562   5.708  11.369  1.6830 -1.9425 -0.6688
  583MOL0     H76905   3.569   5.649  11.609  1.3214 -2.1799 -2.9543
  583MOL0     H76906   3.452   5.786  11.561  0.2300 -0.0573  0.5635
  583MOL0     H76907   3.416   5.495  11.657 -0.5291 -0.4040 -1.9617
  583MOL0     H76908   3.288   5.574  11.556 -0.0419 -1.4188 -0.5648
  583MOL0     H76909   3.491   5.595  11.888  0.8347  0.6476  0.1520
  583MOL0     H76910   3.458   5.850  12.084  2.1996 -2.9725 -0.4204
  583MOL0     H76911   3.436   5.688  12.137  2.5694  0.7359 -0.1397
  583MOL0     H76912   3.217   5.889  12.129 -2.5327 -1.1161  1.2651
  583MOL0     H76913   3.301   5.825  12.273  1.9041  0.9643 -0.6336
  583MOL0     H76914   3.116   5.664  12.076 -0.2066  0.4239 -0.1814
  583MOL0     H76915   3.203   5.581  12.198 -4.0968 -0.2482  1.1559
  583MOL0     H76916   2.991   5.796  12.247 -3.3607 -0.6343  0.6039
  583MOL0     H76917   3.100   5.738  12.372 -1.0243  0.5976  0.0336
  583MOL0     H76918   2.865   5.379  12.370 -0.4036 -0.1506 -0.5941
  583MOL0     H76919   2.659   5.351  12.488 -2.8394  0.9151 -1.1012
  583MOL0     H76920   2.310   5.244  12.680 -0.7296 -1.5633  0.2733
  583MOL0     H76921   2.142   5.200  12.855 -3.1466  2.0698 -0.8519
  583MOL0     H76922   1.946   5.469  12.988  1.0118 -0.2499  2.1025
  583MOL0     H76923   1.932   5.401  13.158  3.2835  0.1700  1.7755
  583MOL0     H76924   1.904   5.235  12.898 -2.7581  0.2053 -0.1793
  583MOL0     H76925   1.774   5.286  13.007  0.5089  1.0816 -1.0896
  583MOL0     H76926   1.862   5.164  13.200  0.0090 -1.7270  0.8405
  583MOL0     H76927   2.014   5.143  13.135 -0.6095 -2.5870 -0.1549
  583MOL0     H76928   1.875   5.027  12.930  0.1987  0.1849 -0.5535
  583MOL0     H76929   1.934   4.939  13.073  1.8598  0.9669  0.1193
  583MOL0     H76930   1.642   5.045  13.043 -1.8594 -2.5658 -0.8452
  583MOL0     H76931   1.714   5.013  13.197 -0.0869  1.8880 -0.6983
  583MOL0     H76932   1.594   4.816  13.151 -0.5732  0.2240 -0.9102
  583MOL0     H76933   1.761   4.768  13.131  1.0874 -0.6414 -2.3828
  583MOL0     H76934   1.602   4.869  12.894 -0.2117  0.2301  0.0470
  583MOL0     H76935   1.746   4.759  12.897  0.5552 -2.2878  0.8358
  583MOL0     H76936   1.511   4.656  13.028  0.4871  1.7341  0.2067
  583MOL0     H76937   1.634   4.577  12.929  1.5123  0.4205 -1.6014
  583MOL0     H76938   2.244   5.544  13.057  0.9841  1.3288 -0.9806
  583MOL0     H76939   2.439   5.595  12.891 -0.0136  0.1815 -0.1842
  583MOL0     H76940   2.619   5.777  12.511  1.1889  0.7251 -1.4783
  583MOL0     H76941   2.823   5.810  12.391  2.4633 -1.4588 -1.2026
  583MOL0     H76942   4.035   5.099  10.836 -0.9826 -2.1930  0.3503
  583MOL0     H76943   4.262   5.074  10.869  1.2654 -1.3148  0.5961
  583MOL0     H76944   4.631   5.084  11.024 -3.1531 -3.7079 -1.1736
  583MOL0     H76945   4.882   5.061  11.019  0.6452  2.5169  3.1105
  583MOL0     H76946   5.060   5.093  11.183 -1.4670 -0.5111 -2.1164
  583MOL0     H76947   5.097   4.998  11.043 -4.1468  2.9631  0.2074
  583MOL0     H76948   5.294   5.058  11.213 -1.1503 -0.3635  0.0227
  583MOL0     H76949   5.216   4.945  11.328  1.1133 -0.6188  0.1728
  583MOL0     H76950   5.306   4.847  11.045  0.6055 -2.8406  0.1062
  583MOL0     H76951   5.248   4.755  11.182  2.9434 -2.6441  1.1474
  583MOL0     H76952   5.514   4.776  11.120  2.1662 -0.3017  3.0088
  583MOL0     H76953   5.495   4.945  11.163  0.6516  0.8447  1.0175
  583MOL0     H76954   5.500   4.735  11.526 -1.3385  1.8037  0.1762
  583MOL0     H76955   4.834   4.760  11.329  0.6838  0.2787 -0.2095
  583MOL0     H76956   4.610   4.790  11.333  0.1952  0.1446 -0.1226
  584MOL0     O76957   4.964   4.254   9.271  0.5792 -0.3440 -0.1540
  584MOL0     C76958   5.044   4.278   9.185  0.4807  0.4528  1.5590
  584MOL0     O76959   5.166   4.325   9.199 -0.2251  0.4058  0.0521
  584MOL0     C76960   5.194   4.370   9.321  0.1049 -0.2195 -0.8374
  584MOL0     C76961   5.156   4.495   9.364  0.0810 -0.5476 -0.1366
  584MOL0     C76962   5.172   4.535   9.497 -0.4791  0.1105  0.1259
  584MOL0     C76963   5.214   4.442   9.591  0.1263 -0.0426  0.5701
  584MOL0     O76964   5.222   4.488   9.723  0.0923  0.1322 -0.5326
  584MOL0     C76965   5.248   4.392   9.826  0.5166 -0.5797 -0.9706
  584MOL0     C76966   5.124   4.300   9.855 -0.4398 -0.5427  0.6830
  584MOL0     C76967   5.133   4.233   9.990  0.2726 -0.1394 -1.1542
  584MOL0     C76968   5.250   4.147  10.015 -0.0272  0.2596 -0.4260
  584MOL0     C76969   5.260   4.107  10.162 -0.3615 -0.1573  1.0659
  584MOL0     C76970   5.138   4.031  10.224  0.1102  0.2123 -0.1435
  584MOL0     C76971   5.100   3.912  10.138 -0.2695 -0.2492  0.1618
  584MOL0     C76972   4.994   3.814  10.211  0.5047  0.5711  0.6527
  584MOL0     N76973   4.867   3.880  10.250  0.1465  0.2594 -0.0500
  584MOL0     C76974   4.780   3.937  10.168 -0.9283 -0.3786  0.4139
  584MOL0     C76975   4.664   3.959  10.235 -0.1123 -0.4701  0.2520
  584MOL0     C76976   4.548   4.033  10.172  0.2413 -0.8516 -0.5381
  584MOL0     C76977   4.489   4.147  10.259 -0.2639  0.4746 -0.2711
  584MOL0     C76978   4.358   4.202  10.202 -0.1223  0.1556 -0.8031
  584MOL0     C76979   4.270   4.296  10.281  0.4498  0.6967 -0.4457
  584MOL0     O76980   4.210   4.232  10.392 -0.0184 -0.0309  0.1685
  584MOL0     C76981   4.091   4.282  10.419  0.4456 -0.1021  0.0085
  584MOL0     C76982   4.055   4.398  10.490 -0.3151 -0.1163  0.2143
  584MOL0     C76983   3.922   4.444  10.503  0.5095  0.1687 -0.1960
  584MOL0     C76984   3.819   4.361  10.450 -0.1647 -0.0104  0.4777
  584MOL0     C76985   3.684   4.413  10.451  0.1494  0.0009  0.2126
  584MOL0     O76986   3.589   4.345  10.378  0.1894  0.6048 -0.2008
  584MOL0     C76987   3.459   4.399  10.374 -0.6063 -0.2274 -0.2481
  584MOL0     C76988   3.430   4.514  10.300  0.3302 -0.8096 -0.7309
  584MOL0     C76989   3.303   4.565  10.305 -0.3077 -0.0356 -0.5154
  584MOL0     C76990   3.204   4.503  10.377  0.3469  0.3706 -0.0891
  584MOL0     O76991   3.077   4.556  10.377 -0.1715 -0.1709 -0.2846
  584MOL0     C76992   2.974   4.465  10.332  0.2892  0.6427 -0.1507
  584MOL0     C76993   2.845   4.552  10.295  0.4902 -0.1089  0.0258
  584MOL0     C76994   2.726   4.452  10.269  0.2281  0.1743  0.2006
  584MOL0     C76995   2.624   4.515  10.176  0.2817  0.5266 -0.2955
  584MOL0     C76996   2.578   4.657  10.223 -0.3265  0.0138 -1.2889
  584MOL0     C76997   2.438   4.705  10.175  0.0991  0.6099  0.7358
  584MOL0     C76998   2.430   4.745  10.026 -1.4733 -0.4127  0.1002
  584MOL0     C76999   2.301   4.817   9.990 -0.4632 -0.2161  0.4410
  584MOL0    Cl77000   2.153   4.722  10.015  0.0262  0.2392  0.6303
  584MOL0     C77001   3.233   4.384  10.449 -1.1319 -0.9047 -0.6417
  584MOL0     C77002   3.364   4.333  10.455 -0.4738 -0.0627  0.5855
  584MOL0     O77003   3.660   4.511  10.520 -0.2576  0.1905 -0.2015
  584MOL0     C77004   3.861   4.240  10.380  0.0216  0.1832 -0.7736
  584MOL0     C77005   3.998   4.201  10.364  1.0454 -1.2397  0.0936
  584MOL0     N77006   4.679   3.913  10.362 -0.3110  0.3772 -0.4153
  584MOL0     N77007   4.803   3.869  10.372  0.2815  0.6788 -0.3349
  584MOL0     C77008   5.256   4.314   9.541  0.7989  0.4848 -0.0620
  584MOL0     C77009   5.255   4.277   9.413 -1.1036  0.4200 -0.2535
  584MOL0     C77010   5.017   4.234   9.039 -0.0547  1.5354  0.3012
  584MOL0     C77011   4.923   4.130   9.015  0.2890 -0.1337  0.0413
  584MOL0     C77012   4.893   4.084   8.886 -0.1951  0.2116  0.0595
  584MOL0     C77013   4.941   4.154   8.776 -0.1955  0.4986 -0.0606
  584MOL0     O77014   4.907   4.110   8.652 -0.1448  0.1109  0.1638
  584MOL0     C77015   5.006   4.143   8.549  0.4977 -0.3373  0.1406
  584MOL0     C77016   4.957   4.097   8.419  0.3636  0.8145  1.0566
  584MOL0     C77017   5.082   4.113   8.319 -0.2376  0.5166 -0.7799
  584MOL0     C77018   5.051   4.242   8.248 -0.0418  0.5139 -0.0878
  584MOL0     C77019   4.947   4.245   8.149  0.4083 -0.6487  0.3819
  584MOL0     C77020   4.846   4.251   8.081  0.2100 -0.2282 -0.0677
  584MOL0     C77021   5.027   4.271   8.796 -0.2167 -0.4680  0.2478
  584MOL0     C77022   5.068   4.303   8.928  0.1443 -0.6582  0.0011
  584MOL0     H77023   5.104   4.564   9.298  1.8955  0.6462 -0.3773
  584MOL0     H77024   5.135   4.631   9.533 -0.5955  0.8064 -1.7375
  584MOL0     H77025   5.270   4.456   9.912 -0.7527 -0.1323 -0.9544
  584MOL0     H77026   5.338   4.332   9.813  0.9569 -0.2831  0.4982
  584MOL0     H77027   5.108   4.224   9.777 -0.3546 -0.8678  0.9808
  584MOL0     H77028   5.032   4.358   9.843  0.8104  1.1242 -1.7576
  584MOL0     H77029   5.046   4.166   9.987  0.2145 -0.0570 -1.3142
  584MOL0     H77030   5.131   4.308  10.069  1.6492 -1.0521 -0.2034
  584MOL0     H77031   5.256   4.062   9.947  1.8442  0.9801 -1.2200
  584MOL0     H77032   5.340   4.205   9.993  1.0700 -2.3504 -3.5988
  584MOL0     H77033   5.283   4.203  10.209  2.5725  0.8419 -1.9472
  584MOL0     H77034   5.344   4.038  10.175 -0.1846 -0.0165  0.6970
  584MOL0     H77035   5.054   4.097  10.250 -0.2768  0.3345 -1.5797
  584MOL0     H77036   5.167   4.008  10.326  0.2990  1.9508  0.2277
  584MOL0     H77037   5.061   3.949  10.043  0.2640  0.0062  0.0424
  584MOL0     H77038   5.189   3.855  10.110 -0.8160 -0.9691 -0.1520
  584MOL0     H77039   5.032   3.769  10.303  0.7045  2.3663  1.4844
  584MOL0     H77040   4.971   3.737  10.136 -2.3032  1.5158  0.4392
  584MOL0     H77041   4.807   3.961  10.066  1.0524 -0.7137  0.8191
  584MOL0     H77042   4.472   3.959  10.146 -0.3974 -1.3120  2.2329
  584MOL0     H77043   4.589   4.087  10.086  2.7382 -0.3280  0.8622
  584MOL0     H77044   4.557   4.231  10.275 -2.2113  1.7536  1.9897
  584MOL0     H77045   4.465   4.111  10.360  0.3024 -0.9450 -0.6115
  584MOL0     H77046   4.388   4.269  10.120 -2.0505  0.8304 -1.0270
  584MOL0     H77047   4.293   4.123  10.163  0.1894 -0.6719  0.3166
  584MOL0     H77048   4.194   4.323  10.208  2.0924  2.6993 -1.5220
  584MOL0     H77049   4.326   4.387  10.305 -2.4112  3.4150 -3.2028
  584MOL0     H77050   4.132   4.457  10.539 -0.2614 -0.1161  0.1308
  584MOL0     H77051   3.898   4.544  10.538  0.2489 -0.0916  0.3704
  584MOL0     H77052   3.505   4.561  10.239  1.2842  0.6039  1.4006
  584MOL0     H77053   3.279   4.655  10.248 -0.4786 -1.4348 -2.7742
  584MOL0     H77054   2.948   4.382  10.399 -0.9088  2.7745  2.1796
  584MOL0     H77055   3.006   4.416  10.240  1.4394 -0.7729  0.9445
  584MOL0     H77056   2.872   4.614  10.209 -1.1731  1.9589  0.9108
  584MOL0     H77057   2.807   4.613  10.377 -0.7454 -1.0718  0.2064
  584MOL0     H77058   2.694   4.427  10.370  2.2969 -3.2563  0.1881
  584MOL0     H77059   2.752   4.356  10.223 -0.4115  0.7779 -1.5091
  584MOL0     H77060   2.683   4.520  10.085  1.4287 -3.7942 -0.0153
  584MOL0     H77061   2.536   4.452  10.162  0.4866  0.2567 -0.3721
  584MOL0     H77062   2.654   4.726  10.185  0.0577 -0.4617 -1.3952
  584MOL0     H77063   2.592   4.662  10.331 -1.8156  0.6993 -1.1166
  584MOL0     H77064   2.408   4.793  10.233 -0.3227  1.6512 -1.0192
  584MOL0     H77065   2.370   4.623  10.198 -0.2260 -0.5093 -3.4531
  584MOL0     H77066   2.517   4.806   9.999 -1.9385  0.2491  0.0892
  584MOL0     H77067   2.442   4.656   9.963  1.2928 -1.2338  1.6300
  584MOL0     H77068   2.309   4.829   9.882  1.1560 -3.6273  0.0655
  584MOL0     H77069   2.290   4.915  10.038  0.1000  0.6442 -1.1228
  584MOL0     H77070   3.146   4.324  10.473 -0.9675 -1.6449 -1.8358
  584MOL0     H77071   3.385   4.236  10.500  3.5335  0.8859  1.2189
  584MOL0     H77072   3.780   4.173  10.354 -0.9402 -0.3427  2.9796
  584MOL0     H77073   4.024   4.104  10.323  2.1484 -0.2667 -1.5974
  584MOL0     H77074   5.296   4.250   9.619 -1.0143  0.9228  1.2819
  584MOL0     H77075   5.292   4.176   9.403  0.2968  0.7193  1.4957
  584MOL0     H77076   4.882   4.071   9.096 -1.5035  3.7500  2.2477
  584MOL0     H77077   4.822   4.003   8.881  1.1302 -0.9287 -1.7013
  584MOL0     H77078   5.097   4.093   8.583  0.9047  0.2651 -0.0425
  584MOL0     H77079   5.017   4.252   8.550  2.0718 -0.4547  2.2835
  584MOL0     H77080   4.940   3.990   8.429  0.3548  0.9157  2.2015
  584MOL0     H77081   4.867   4.148   8.382 -1.5906 -4.7384 -3.2734
  584MOL0     H77082   5.078   4.040   8.237 -0.1394  2.9222 -3.0728
  584MOL0     H77083   5.175   4.103   8.375 -1.1202  1.4597  0.9402
  584MOL0     H77084   5.012   4.310   8.324 -1.9878  1.8035 -2.0943
  584MOL0     H77085   5.148   4.277   8.211  0.8025 -0.2274  1.3413
  584MOL0     H77086   4.754   4.259   8.028  1.1316  0.9870 -1.5683
  584MOL0     H77087   5.067   4.326   8.712 -1.5903  0.2488  0.0396
  584MOL0     H77088   5.134   4.389   8.935  2.8793 -2.3666 -2.6858
  585MOL0     O77089   6.786   9.372   0.929  0.0439 -0.8580 -0.2731
  585MOL0     C77090   6.755   9.393   1.051  0.2820  1.2281  0.2033
  585MOL0     O77091   6.839   9.444   1.143 -0.4836  0.7111 -0.5858
  585MOL0     C77092   6.920   9.541   1.093 -0.0355 -0.4446  0.0236
  585MOL0     C77093   6.878   9.685   1.089  0.7608 -0.1606  0.5850
  585MOL0     C77094   6.970   9.777   1.043 -0.2793  0.6611  0.0613
  585MOL0     C77095   7.092   9.740   0.994 -0.7848 -0.1837  1.4084
  585MOL0     O77096   7.183   9.823   0.927  0.2164 -0.8819  0.8371
  585MOL0     C77097   7.122   9.927   0.851  0.2397  0.3378  0.3684
  585MOL0     C77098   7.244  10.009   0.785 -0.0015  0.3681 -0.1038
  585MOL0     C77099   7.204  10.107   0.660 -0.2477 -0.1202 -0.9508
  585MOL0     C77100   7.153  10.022   0.539 -0.3986 -0.5426  0.2782
  585MOL0     C77101   7.167  10.088   0.401 -0.8494 -0.0625 -0.3440
  585MOL0     C77102   7.058  10.197   0.377 -0.5110  0.3768 -0.5639
  585MOL0     C77103   7.108  10.290   0.259  0.9454  0.0683  0.0356
  585MOL0     C77104   7.020  10.416   0.245 -0.9996  0.7646 -0.1171
  585MOL0     N77105   6.900  10.374   0.164  0.3901  0.3038 -0.0573
  585MOL0     C77106   6.772  10.372   0.207  1.1340  0.7071  0.3255
  585MOL0     C77107   6.696  10.340   0.105  0.0176 -0.9794  0.3260
  585MOL0     C77108   6.546  10.336   0.116  0.4819 -1.8784  0.4520
  585MOL0     C77109   6.473  10.398   0.001 -0.4012 -0.0859 -0.6993
  585MOL0     C77110   6.452  10.307  -0.118 -0.7321 -1.0319  1.1324
  585MOL0     C77111   6.371  10.375  -0.230  0.0939 -0.0375 -0.3137
  585MOL0     O77112   6.264  10.438  -0.166  0.8981 -0.5623 -0.5335
  585MOL0     C77113   6.144  10.367  -0.136 -0.7711 -0.0602  0.7468
  585MOL0     C77114   6.038  10.449  -0.109  0.0274  0.1299  0.0697
  585MOL0     C77115   5.913  10.409  -0.074 -0.8706 -0.8008 -0.3831
  585MOL0     C77116   5.879  10.278  -0.102 -0.0911  0.3869 -0.1014
  585MOL0     C77117   5.749  10.223  -0.079 -0.7291  0.8707 -0.3075
  585MOL0     O77118   5.655  10.316  -0.057 -0.6670  0.3301  0.6316
  585MOL0     C77119   5.541  10.268  -0.006 -0.0278  0.3847  0.7313
  585MOL0     C77120   5.501  10.314   0.119  0.9222 -0.1966 -0.8696
  585MOL0     C77121   5.380  10.266   0.181 -0.3904 -0.1385 -0.1914
  585MOL0     C77122   5.300  10.170   0.115  0.3471 -0.9163 -0.7865
  585MOL0     O77123   5.190  10.122   0.175 -0.0374  0.0303 -0.5115
  585MOL0     C77124   5.141  10.198   0.281 -0.0681  0.1051  0.3212
  585MOL0     C77125   5.000  10.166   0.312 -0.0995  0.6331 -0.0613
  585MOL0     C77126   4.915  10.145   0.186  0.2257 -0.0584 -0.9419
  585MOL0     C77127   4.761  10.132   0.228 -0.0040 -0.6697 -0.0970
  585MOL0     C77128   4.707  10.246   0.309  0.3115 -0.0320 -0.1121
  585MOL0     C77129   4.548  10.241   0.306 -1.2497  0.1612 -0.3234
  585MOL0     C77130   4.493  10.113   0.382  0.1112  0.3857  0.4743
  585MOL0     C77131   4.537  10.090   0.529  1.2486  0.2641 -0.0461
  585MOL0    Cl77132   4.550  10.246   0.619  0.1264  0.0786  0.1781
  585MOL0     C77133   5.331  10.132  -0.016  0.7140 -1.4039  0.3376
  585MOL0     C77134   5.449  10.182  -0.074 -0.7941 -0.5209 -0.1172
  585MOL0     O77135   5.733  10.100  -0.078 -0.2461  0.0395  0.3600
  585MOL0     C77136   5.984  10.190  -0.140 -0.7091  0.3518  0.0937
  585MOL0     C77137   6.124  10.234  -0.164 -0.5318 -0.0709  0.2164
  585MOL0     N77138   6.780  10.340  -0.008  0.4327  0.3936 -0.4174
  585MOL0     N77139   6.903  10.362   0.034  0.0405  0.8748 -0.8167
  585MOL0     C77140   7.128   9.606   0.997  0.0000 -0.1069 -1.0410
  585MOL0     C77141   7.040   9.505   1.050 -0.6212 -0.3654 -0.2759
  585MOL0     C77142   6.623   9.322   1.096  0.0158  0.8401 -0.0140
  585MOL0     C77143   6.584   9.326   1.229 -0.5852  0.8839 -0.4869
  585MOL0     C77144   6.465   9.277   1.273  1.0083  0.1016 -0.5908
  585MOL0     C77145   6.380   9.212   1.188  0.1413 -0.5341 -0.5228
  585MOL0     O77146   6.259   9.178   1.244 -0.0979 -0.5507 -0.3571
  585MOL0     C77147   6.153   9.127   1.166  0.4222 -0.4125  0.2937
  585MOL0     C77148   6.040   9.083   1.252 -0.1849  0.8491 -1.3196
  585MOL0     C77149   5.986   9.191   1.353  0.4844  0.0586  0.0410
  585MOL0     C77150   5.874   9.156   1.456 -0.2176 -0.3381 -0.0653
  585MOL0     C77151   5.923   9.040   1.528  0.6112 -0.0771 -0.9332
  585MOL0     C77152   5.964   8.946   1.595 -0.2293  0.3125 -0.0227
  585MOL0     C77153   6.415   9.205   1.049 -0.0971  0.6501  0.0302
  585MOL0     C77154   6.540   9.251   1.010  0.6582 -0.2580  0.4909
  585MOL0     H77155   6.785   9.711   1.138  1.1632  1.6944  0.4496
  585MOL0     H77156   6.931   9.878   1.043  1.0073  1.1744 -0.8898
  585MOL0     H77157   7.054   9.978   0.919 -0.3789 -0.1364  0.1183
  585MOL0     H77158   7.055   9.890   0.773  0.7031  1.4528 -0.5815
  585MOL0     H77159   7.315   9.932   0.753  2.1681  1.2742  2.2465
  585MOL0     H77160   7.295  10.067   0.862 -0.4203 -2.6417  2.6399
  585MOL0     H77161   7.298  10.157   0.637 -0.9677  2.2286  0.7798
  585MOL0     H77162   7.129  10.179   0.695  2.0006  1.0814  1.8674
  585MOL0     H77163   7.222   9.937   0.535 -1.1991 -1.1857 -0.2850
  585MOL0     H77164   7.052   9.981   0.550 -1.4961  1.8389 -0.3956
  585MOL0     H77165   7.166  10.005   0.331  0.1288 -0.2656 -0.1305
  585MOL0     H77166   7.262  10.141   0.402 -0.4783 -0.7217 -0.2591
  585MOL0     H77167   7.065  10.258   0.467  1.7427 -2.0489  1.0520
  585MOL0     H77168   6.962  10.150   0.356  0.5524 -1.7681 -0.9109
  585MOL0     H77169   7.214  10.315   0.267  1.4634 -1.7807 -0.6931
  585MOL0     H77170   7.093  10.231   0.168  0.6496 -1.7676  1.2287
  585MOL0     H77171   7.080  10.485   0.184 -1.2499 -0.4358 -1.8152
  585MOL0     H77172   6.983  10.460   0.337  1.3026  0.5293  1.0007
  585MOL0     H77173   6.739  10.375   0.310  0.8511  0.1020  0.2556
  585MOL0     H77174   6.527  10.405   0.199  0.2707 -1.4146  0.0196
  585MOL0     H77175   6.511  10.238   0.151  1.2401 -2.4615 -0.3561
  585MOL0     H77176   6.531  10.485  -0.030  1.8283 -1.3201 -0.2043
  585MOL0     H77177   6.374  10.421   0.041 -0.0950  1.5861 -0.8366
  585MOL0     H77178   6.551  10.278  -0.152 -0.2887 -0.5318  1.9587
  585MOL0     H77179   6.409  10.211  -0.088  0.1846 -2.6397 -2.2091
  585MOL0     H77180   6.340  10.305  -0.307 -2.6392  1.0116 -0.2664
  585MOL0     H77181   6.439  10.455  -0.262 -0.1260 -0.4070 -1.7773
  585MOL0     H77182   6.061  10.555  -0.103  0.0266  0.0622  2.1241
  585MOL0     H77183   5.839  10.476  -0.032 -1.7726 -2.1552  0.2690
  585MOL0     H77184   5.567  10.380   0.173 -2.2159  1.3426  1.4229
  585MOL0     H77185   5.365  10.289   0.286  1.3526 -3.8059  1.0140
  585MOL0     H77186   5.136  10.303   0.250  1.6196  0.2589  0.4659
  585MOL0     H77187   5.202  10.191   0.372  1.9611  0.2679 -0.9524
  585MOL0     H77188   4.961  10.249   0.373  1.2920  1.0168  0.3525
  585MOL0     H77189   5.000  10.078   0.377 -0.4577 -0.4413 -1.4751
  585MOL0     H77190   4.954  10.059   0.131  0.9994 -0.5644  0.3575
  585MOL0     H77191   4.931  10.239   0.131 -0.2769  1.5327  1.4910
  585MOL0     H77192   4.707  10.121   0.134  1.2130  0.5701 -0.9776
  585MOL0     H77193   4.738  10.042   0.286 -1.0175 -0.5518 -0.2932
  585MOL0     H77194   4.738  10.346   0.275  1.6705  0.5918  2.7184
  585MOL0     H77195   4.733  10.236   0.414 -1.9538  2.0938  0.7464
  585MOL0     H77196   4.518  10.230   0.202 -2.7835 -0.3956  0.1475
  585MOL0     H77197   4.504  10.332   0.349 -0.1433 -0.3173  2.0027
  585MOL0     H77198   4.383  10.110   0.380 -0.2703  5.4067  1.4011
  585MOL0     H77199   4.523  10.024   0.326 -2.3536 -0.7143  0.7854
  585MOL0     H77200   4.627  10.028   0.535  2.4944  1.8243 -1.4578
  585MOL0     H77201   4.453  10.039   0.576 -0.9909  2.8863 -0.9381
  585MOL0     H77202   5.275  10.063  -0.078  1.8498  1.2446 -4.0808
  585MOL0     H77203   5.477  10.150  -0.174  0.6838 -0.0546  0.1119
  585MOL0     H77204   5.957  10.086  -0.157 -4.2509  1.3064 -1.0791
  585MOL0     H77205   6.192  10.167  -0.216  1.0729  1.6036  0.0781
  585MOL0     H77206   7.213   9.569   0.941  0.6961 -0.8534  0.4241
  585MOL0     H77207   7.072   9.402   1.058 -0.2939 -0.2817 -0.4945
  585MOL0     H77208   6.648   9.363   1.309  1.7799 -3.0468 -0.2879
  585MOL0     H77209   6.438   9.283   1.378 -2.8372  2.1937 -1.4903
  585MOL0     H77210   6.191   9.060   1.088  0.1858  1.0550 -1.1467
  585MOL0     H77211   6.115   9.209   1.104  3.5331  0.9275 -0.0346
  585MOL0     H77212   5.955   9.047   1.193 -0.3938  1.1789 -1.2179
  585MOL0     H77213   6.076   9.001   1.317  0.2497  0.5648 -1.9083
  585MOL0     H77214   5.944   9.273   1.293 -0.0067 -0.1946  0.0297
  585MOL0     H77215   6.077   9.224   1.403  1.2151 -1.2530 -0.3956
  585MOL0     H77216   5.856   9.250   1.509  0.4929 -0.5653  0.5989
  585MOL0     H77217   5.778   9.129   1.411 -0.7966  0.5606  0.6009
  585MOL0     H77218   6.000   8.852   1.630 -0.4280 -0.0637 -0.8048
  585MOL0     H77219   6.354   9.158   0.972 -0.1922  2.4937 -1.0968
  585MOL0     H77220   6.568   9.229   0.907 -0.4431 -2.2925  0.5708
  586MOL0     O77221   9.574   7.546   6.006  0.0045 -0.8087 -0.3045
  586MOL0     C77222   9.557   7.456   6.085  0.2961  0.9045  0.4305
  586MOL0     O77223   9.449   7.370   6.091 -0.2698  0.3613 -0.2296
  586MOL0     C77224   9.332   7.407   6.027 -0.4018  0.0533  0.3509
  586MOL0     C77225   9.285   7.538   6.006 -0.5838 -0.0301  0.2469
  586MOL0     C77226   9.159   7.556   5.944  0.1360 -0.1911 -0.7949
  586MOL0     C77227   9.073   7.450   5.906 -0.2121 -0.4994  0.1074
  586MOL0     O77228   8.956   7.473   5.850  0.1086  0.0374 -0.2976
  586MOL0     C77229   8.853   7.393   5.908 -0.1409  0.3650 -0.4892
  586MOL0     C77230   8.721   7.465   5.932  0.2026 -0.3397  0.7032
  586MOL0     C77231   8.672   7.535   5.801 -0.7151  0.2527  1.1956
  586MOL0     C77232   8.521   7.560   5.799 -0.9482 -0.4519  0.2917
  586MOL0     C77233   8.495   7.679   5.707 -0.5984 -0.5079  0.1495
  586MOL0     C77234   8.352   7.731   5.729  0.6871 -1.1298 -0.2659
  586MOL0     C77235   8.340   7.825   5.848 -0.2878  0.4627  0.1034
  586MOL0     C77236   8.208   7.904   5.838 -0.0801  0.5866  0.0427
  586MOL0     N77237   8.085   7.837   5.891  0.9750 -0.3820 -0.0546
  586MOL0     C77238   7.978   7.900   5.951 -0.5956 -0.4259  0.7428
  586MOL0     C77239   7.884   7.805   5.967 -0.1654  0.6816  0.2544
  586MOL0     C77240   7.749   7.807   6.037 -0.1131  0.1214 -1.0484
  586MOL0     C77241   7.754   7.824   6.192  0.1219  0.0958 -0.5405
  586MOL0     C77242   7.783   7.697   6.267 -0.4002  0.4605  0.8222
  586MOL0     C77243   7.797   7.721   6.414  0.0812 -0.5160 -0.6902
  586MOL0     O77244   7.823   7.591   6.485 -0.6283 -0.1679 -0.1094
  586MOL0     C77245   7.720   7.520   6.536  0.2686  0.0735  1.2127
  586MOL0     C77246   7.750   7.415   6.623 -0.2539  0.3723 -0.3780
  586MOL0     C77247   7.649   7.337   6.674  0.7827 -0.0844 -0.2369
  586MOL0     C77248   7.507   7.355   6.634 -0.3380 -0.2410 -0.0758
  586MOL0     C77249   7.408   7.268   6.687 -0.2282 -0.4921 -0.4754
  586MOL0     O77250   7.278   7.315   6.688 -0.3405 -0.1925 -0.0782
  586MOL0     C77251   7.184   7.235   6.720  0.0956 -0.4526 -0.5415
  586MOL0     C77252   7.149   7.200   6.849  0.4344  0.4738  0.1827
  586MOL0     C77253   7.045   7.104   6.882 -0.3666  1.1315 -0.1618
  586MOL0     C77254   6.983   7.034   6.772 -0.0586  0.1052  0.0064
  586MOL0     O77255   6.901   6.919   6.780 -0.6626 -0.2248  0.0252
  586MOL0     C77256   6.870   6.880   6.909  0.0534 -0.3318 -0.9502
  586MOL0     C77257   6.806   6.742   6.903 -0.2920 -0.8918  0.2155
  586MOL0     C77258   6.677   6.755   6.827  0.4639  0.3452  0.1658
  586MOL0     C77259   6.561   6.717   6.920  0.5829  0.7564  0.3838
  586MOL0     C77260   6.429   6.763   6.862 -0.1444  0.5436  0.3885
  586MOL0     C77261   6.302   6.717   6.940 -1.0081  0.5414 -1.0792
  586MOL0     C77262   6.176   6.791   6.903  0.3898  0.5656 -0.2702
  586MOL0     C77263   6.051   6.737   6.982 -0.8180 -0.6111 -0.0333
  586MOL0    Cl77264   6.071   6.792   7.145  0.2866 -0.2216 -0.2164
  586MOL0     C77265   7.025   7.062   6.640 -0.3850 -0.2106 -0.0512
  586MOL0     C77266   7.119   7.161   6.619 -0.0698 -0.0919 -0.5180
  586MOL0     O77267   7.446   7.159   6.718 -0.0614 -0.0814  0.4855
  586MOL0     C77268   7.482   7.468   6.552 -0.0902 -0.8501  0.1241
  586MOL0     C77269   7.586   7.546   6.499 -0.5562 -0.3075  0.7835
  586MOL0     N77270   7.931   7.686   5.910 -0.8727  0.3988 -0.6133
  586MOL0     N77271   8.052   7.702   5.869  0.5940 -0.0113 -0.6839
  586MOL0     C77272   9.132   7.322   5.921 -0.0619 -0.1720 -0.5149
  586MOL0     C77273   9.250   7.302   5.985  0.2900  0.0900 -0.4795
  586MOL0     C77274   9.668   7.436   6.192  0.5517 -0.4856 -0.0312
  586MOL0     C77275   9.789   7.515   6.193  0.4230 -0.4946  0.0511
  586MOL0     C77276   9.893   7.494   6.281 -0.6956 -0.6612  0.9057
  586MOL0     C77277   9.880   7.407   6.391 -0.6555 -0.7000  0.2224
  586MOL0     O77278   9.981   7.380   6.483 -0.3955  0.3251 -0.7615
  586MOL0     C77279  10.101   7.455   6.478 -0.2697 -0.7679 -0.7157
  586MOL0     C77280  10.153   7.456   6.621 -0.0506  0.0351  0.4709
  586MOL0     C77281  10.307   7.463   6.612  0.3477 -0.0054 -0.7063
  586MOL0     C77282  10.375   7.574   6.526  0.2683  0.9342 -0.5386
  586MOL0     C77283  10.519   7.600   6.563  0.8695  0.3603  0.5179
  586MOL0     C77284  10.634   7.604   6.593 -0.3829  1.2057 -0.0221
  586MOL0     C77285   9.757   7.329   6.387 -0.0907 -0.3110  0.1208
  586MOL0     C77286   9.661   7.347   6.292 -0.5850  0.5127 -0.0270
  586MOL0     H77287   9.353   7.619   6.027 -1.0780  0.6671 -0.7632
  586MOL0     H77288   9.118   7.653   5.917  0.8137 -0.4867 -3.0848
  586MOL0     H77289   8.873   7.369   6.013 -1.7372  2.4554  0.3514
  586MOL0     H77290   8.837   7.297   5.857  1.1878 -1.6546  2.5602
  586MOL0     H77291   8.745   7.541   6.007  3.7318 -0.0727 -0.5004
  586MOL0     H77292   8.650   7.389   5.964  0.0134 -0.2816  0.4250
  586MOL0     H77293   8.702   7.484   5.709 -2.3532 -0.3524  0.9692
  586MOL0     H77294   8.715   7.635   5.811 -1.9130  0.6496  2.8125
  586MOL0     H77295   8.462   7.480   5.753 -1.1908  0.1776 -0.5393
  586MOL0     H77296   8.494   7.570   5.904  3.9898  0.9335  1.6690
  586MOL0     H77297   8.517   7.650   5.604 -1.3762  3.5737 -1.3616
  586MOL0     H77298   8.565   7.758   5.735 -1.0852 -0.2009  0.5112
  586MOL0     H77299   8.285   7.647   5.750  0.0422 -0.3220  0.9876
  586MOL0     H77300   8.318   7.777   5.637  0.0451 -1.5538 -0.2440
  586MOL0     H77301   8.341   7.766   5.940  2.5737 -1.0105 -0.7330
  586MOL0     H77302   8.424   7.895   5.845 -0.7742  1.0305 -1.7111
  586MOL0     H77303   8.187   7.955   5.744 -1.5795  1.9777  1.0861
  586MOL0     H77304   8.229   7.991   5.902  0.8482 -0.6616  1.5302
  586MOL0     H77305   7.971   8.005   5.979 -2.2691  0.2345 -1.8231
  586MOL0     H77306   7.696   7.712   6.029 -3.0133  1.6385 -1.2076
  586MOL0     H77307   7.681   7.885   5.999  0.2356 -0.2493 -2.4869
  586MOL0     H77308   7.659   7.859   6.233 -0.0293  0.5420 -1.2437
  586MOL0     H77309   7.829   7.905   6.195  0.9092 -0.5576 -1.8143
  586MOL0     H77310   7.718   7.612   6.244  2.1957 -2.0673  2.2038
  586MOL0     H77311   7.879   7.668   6.223 -0.1929  3.8740 -1.3762
  586MOL0     H77312   7.706   7.771   6.448 -0.4870  0.3001 -3.1702
  586MOL0     H77313   7.884   7.784   6.436  0.0300 -0.8235  0.4388
  586MOL0     H77314   7.856   7.400   6.645 -0.5872 -2.2229 -0.1890
  586MOL0     H77315   7.684   7.273   6.755 -0.8186  2.5848  2.8033
  586MOL0     H77316   7.198   7.257   6.928 -1.7219  2.9053 -0.0946
  586MOL0     H77317   7.024   7.079   6.986 -0.5042 -1.9742 -0.8604
  586MOL0     H77318   6.800   6.944   6.964 -1.3304  1.6354 -4.6637
  586MOL0     H77319   6.963   6.877   6.967 -1.1368  0.5987  1.1218
  586MOL0     H77320   6.787   6.704   7.004 -5.0270  0.5522  0.1251
  586MOL0     H77321   6.872   6.672   6.851  1.3383 -0.1216  1.1651
  586MOL0     H77322   6.688   6.702   6.732  0.0840 -2.3230  1.5130
  586MOL0     H77323   6.654   6.859   6.804  0.7443  0.5169  0.6496
  586MOL0     H77324   6.552   6.608   6.927  1.5208  0.6141 -0.4176
  586MOL0     H77325   6.581   6.762   7.018  1.1996 -0.6960  0.9542
  586MOL0     H77326   6.429   6.730   6.758  2.6929 -1.7879  0.9739
  586MOL0     H77327   6.430   6.872   6.855 -4.2371  0.7136 -0.2720
  586MOL0     H77328   6.323   6.742   7.045  1.9513 -1.1779 -1.1409
  586MOL0     H77329   6.295   6.608   6.937 -1.0639  0.5265 -0.4771
  586MOL0     H77330   6.195   6.892   6.941  2.8823  0.2777 -0.5643
  586MOL0     H77331   6.147   6.787   6.798 -2.9445 -2.5032  0.5794
  586MOL0     H77332   6.039   6.629   6.998 -2.5455 -0.5895 -0.9513
  586MOL0     H77333   5.962   6.779   6.935 -1.0239 -3.9590 -3.0496
  586MOL0     H77334   6.988   7.003   6.557 -1.1201 -3.4728  2.4093
  586MOL0     H77335   7.143   7.193   6.518  1.4234 -0.4991 -0.3097
  586MOL0     H77336   7.379   7.494   6.532  0.0777 -0.1563  0.1380
  586MOL0     H77337   7.571   7.627   6.429  1.8235  2.1402  2.8941
  586MOL0     H77338   9.065   7.240   5.896  0.2520 -1.1259  1.5745
  586MOL0     H77339   9.303   7.207   5.983 -1.7493 -1.1750 -3.8423
  586MOL0     H77340   9.791   7.585   6.110  0.3664  0.8853  1.1807
  586MOL0     H77341   9.987   7.541   6.255 -0.1399 -1.1743  1.9137
  586MOL0     H77342  10.081   7.561   6.463  1.8516 -0.1136  0.6485
  586MOL0     H77343  10.170   7.422   6.400 -1.0949  1.1676 -2.3374
  586MOL0     H77344  10.110   7.533   6.686  0.7822 -0.1348  1.2496
  586MOL0     H77345  10.126   7.359   6.664 -0.9449  0.2027  0.3087
  586MOL0     H77346  10.344   7.365   6.581  1.1776  0.9304 -2.8544
  586MOL0     H77347  10.343   7.477   6.715  0.8056 -0.1333 -0.8452
  586MOL0     H77348  10.373   7.545   6.420  3.1594  0.4345 -0.5531
  586MOL0     H77349  10.319   7.665   6.548 -1.1862 -0.4679  1.9157
  586MOL0     H77350  10.736   7.592   6.625 -0.2132  0.8211 -0.6826
  586MOL0     H77351   9.738   7.267   6.473 -0.2102  0.3088  0.5462
  586MOL0     H77352   9.571   7.290   6.313  0.6744 -1.7267 -0.3582
  587MOL0     O77353   9.017   5.505   1.448 -0.0138  0.0472 -0.4270
  587MOL0     C77354   9.077   5.603   1.504  0.2893 -0.4996  0.3572
  587MOL0     O77355   9.033   5.675   1.611  0.4964 -0.0311  0.3857
  587MOL0     C77356   8.914   5.634   1.656  0.1494 -0.0877 -0.1593
  587MOL0     C77357   8.797   5.700   1.612 -0.5275  0.5067 -0.4518
  587MOL0     C77358   8.666   5.667   1.648 -0.6470  0.4198  0.3992
  587MOL0     C77359   8.649   5.553   1.732 -0.3983  0.4105  0.3326
  587MOL0     O77360   8.524   5.506   1.780  0.0491 -0.0061  0.9869
  587MOL0     C77361   8.411   5.535   1.700 -0.2189 -0.1856 -0.0363
  587MOL0     C77362   8.306   5.420   1.733 -0.4752 -0.1947  0.1277
  587MOL0     C77363   8.162   5.469   1.720  0.2811 -0.4890  0.4154
  587MOL0     C77364   8.055   5.367   1.736 -0.1958  0.1854  0.1057
  587MOL0     C77365   8.041   5.273   1.609  0.7844 -0.6765 -0.1970
  587MOL0     C77366   7.941   5.327   1.503  0.2218 -0.4620 -0.7221
  587MOL0     C77367   7.939   5.246   1.365 -1.1233 -0.5504 -0.5187
  587MOL0     C77368   7.819   5.274   1.279 -0.5378 -0.1182 -0.8650
  587MOL0     N77369   7.838   5.235   1.140  0.2850 -0.1740 -0.3348
  587MOL0     C77370   7.823   5.103   1.094  0.2789  0.1179 -0.3183
  587MOL0     C77371   7.857   5.123   0.967  0.6567 -0.0889  0.5683
  587MOL0     C77372   7.884   5.010   0.863  0.1901 -0.3127 -0.0387
  587MOL0     C77373   7.791   4.893   0.872  0.6496  0.2600  0.3608
  587MOL0     C77374   7.787   4.792   0.755  0.0314 -1.1516  0.1801
  587MOL0     C77375   7.670   4.689   0.771 -0.1005  0.0579  0.8991
  587MOL0     O77376   7.550   4.757   0.783 -0.5580 -0.4673  0.0745
  587MOL0     C77377   7.430   4.689   0.765 -0.4448 -0.0473  0.6091
  587MOL0     C77378   7.413   4.558   0.788  0.1121 -0.4606 -0.9642
  587MOL0     C77379   7.293   4.501   0.771  0.7215 -0.2121  0.1606
  587MOL0     C77380   7.185   4.567   0.724  0.2941  0.4087  0.9523
  587MOL0     C77381   7.051   4.502   0.706  0.4306 -0.5900  0.2022
  587MOL0     O77382   7.037   4.386   0.774  0.6093 -0.5079 -0.1842
  587MOL0     C77383   6.916   4.324   0.766 -0.5025 -0.3197  0.4804
  587MOL0     C77384   6.857   4.303   0.638  0.2490 -0.0964 -0.7896
  587MOL0     C77385   6.725   4.254   0.641  0.8345  0.6861 -0.2491
  587MOL0     C77386   6.652   4.232   0.758 -0.5049 -0.3152  0.2789
  587MOL0     O77387   6.518   4.197   0.764 -0.2791  0.9618 -0.2782
  587MOL0     C77388   6.425   4.252   0.667  0.2374 -0.3447 -0.8163
  587MOL0     C77389   6.293   4.271   0.740 -0.4019  0.0099 -0.4894
  587MOL0     C77390   6.226   4.149   0.806 -0.7143  0.9379 -0.0668
  587MOL0     C77391   6.164   4.058   0.697  0.3044 -0.6917 -0.8471
  587MOL0     C77392   6.104   3.923   0.730  0.2606  0.2410  0.2174
  587MOL0     C77393   5.983   3.931   0.828 -0.8247  0.2746  0.0256
  587MOL0     C77394   5.952   3.806   0.906  0.2276 -0.1741  0.0916
  587MOL0     C77395   5.801   3.772   0.914 -0.7004 -0.2065  0.7241
  587MOL0    Cl77396   5.786   3.607   0.998 -0.1363  0.0850 -0.1901
  587MOL0     C77397   6.717   4.252   0.882  0.5825 -0.1448 -0.7386
  587MOL0     C77398   6.848   4.294   0.885 -0.3435 -0.2166  0.3016
  587MOL0     O77399   6.959   4.562   0.642  0.5632  0.2058 -0.3197
  587MOL0     C77400   7.198   4.708   0.686 -0.4264  0.9222 -0.0437
  587MOL0     C77401   7.323   4.767   0.718  0.0947  1.0865 -0.1506
  587MOL0     N77402   7.865   5.257   0.940  0.3055  0.8231  0.1160
  587MOL0     N77403   7.872   5.323   1.050  0.7133  0.2543 -0.0168
  587MOL0     C77404   8.764   5.490   1.784 -0.7649  0.5244 -0.7312
  587MOL0     C77405   8.893   5.523   1.740 -0.6171 -0.0110 -0.8455
  587MOL0     C77406   9.212   5.630   1.446  0.1764  0.4495 -0.7770
  587MOL0     C77407   9.288   5.729   1.504 -0.7699 -0.4067  0.3456
  587MOL0     C77408   9.418   5.754   1.460 -0.5993  0.1659 -0.2599
  587MOL0     C77409   9.473   5.686   1.351 -0.2429  0.2524 -0.1421
  587MOL0     O77410   9.596   5.700   1.296 -0.7127 -0.0440 -0.1445
  587MOL0     C77411   9.691   5.782   1.365  0.5323 -0.4556  0.0103
  587MOL0     C77412   9.816   5.799   1.288 -0.4406  0.5269  0.1291
  587MOL0     C77413   9.911   5.903   1.354 -0.1927  0.5506 -0.0950
  587MOL0     C77414  10.036   5.948   1.275  0.3316  0.6097  0.1554
  587MOL0     C77415   9.996   6.030   1.159  0.6794 -0.1785 -0.7714
  587MOL0     C77416   9.979   6.082   1.051 -0.6621  0.9761  0.5253
  587MOL0     C77417   9.397   5.580   1.304 -1.3707 -0.0489 -0.8473
  587MOL0     C77418   9.268   5.551   1.343  0.1836 -0.6457 -0.3677
  587MOL0     H77419   8.793   5.786   1.546 -0.5870  0.8428 -0.0130
  587MOL0     H77420   8.578   5.710   1.601 -2.2415 -1.9778  0.9862
  587MOL0     H77421   8.433   5.557   1.595 -1.2559  1.7140  0.1115
  587MOL0     H77422   8.362   5.622   1.744  1.4328  0.9541 -0.3410
  587MOL0     H77423   8.319   5.378   1.833 -0.6043  1.9558  1.0997
  587MOL0     H77424   8.330   5.345   1.657 -3.2257 -0.8300 -0.2305
  587MOL0     H77425   8.139   5.521   1.627 -0.3241 -0.2055  0.7195
  587MOL0     H77426   8.138   5.547   1.792 -0.9684  1.0085 -1.5384
  587MOL0     H77427   8.082   5.310   1.826 -0.5001 -0.1219  0.0053
  587MOL0     H77428   7.958   5.416   1.748 -0.4258 -0.4581  1.0997
  587MOL0     H77429   8.000   5.178   1.646  0.2112  0.4912  2.4137
  587MOL0     H77430   8.139   5.245   1.571  1.9255  0.7937  1.4840
  587MOL0     H77431   7.987   5.421   1.471 -0.1616 -0.4230 -1.1627
  587MOL0     H77432   7.850   5.342   1.562 -0.4986 -4.1323 -0.6194
  587MOL0     H77433   8.027   5.272   1.305 -0.9594  2.6694  0.9411
  587MOL0     H77434   7.939   5.139   1.387  0.6715 -0.6593 -0.8385
  587MOL0     H77435   7.796   5.379   1.300 -0.7666 -0.5355  1.1941
  587MOL0     H77436   7.740   5.217   1.328  2.3154 -0.8401  3.5480
  587MOL0     H77437   7.808   5.018   1.160 -0.1616 -0.0414 -0.6195
  587MOL0     H77438   7.990   4.984   0.872  0.2109 -0.4267 -0.5935
  587MOL0     H77439   7.861   5.052   0.765 -0.4909  0.2274  0.3432
  587MOL0     H77440   7.687   4.920   0.887 -0.0723 -1.6793 -0.7941
  587MOL0     H77441   7.817   4.840   0.964 -0.2240  0.6864  0.8637
  587MOL0     H77442   7.792   4.848   0.661  1.4701  1.2720  1.6008
  587MOL0     H77443   7.883   4.739   0.744  1.4122  1.7865 -5.7787
  587MOL0     H77444   7.686   4.626   0.859  2.5490  1.6480  1.6585
  587MOL0     H77445   7.671   4.635   0.675 -0.8985  2.7892 -0.7699
  587MOL0     H77446   7.501   4.499   0.814  1.9526  1.8355 -1.6755
  587MOL0     H77447   7.288   4.398   0.804  0.2128 -0.2060  0.1089
  587MOL0     H77448   6.927   4.300   0.554  0.5858 -0.3196 -0.5027
  587MOL0     H77449   6.680   4.250   0.542 -0.3377  2.2356  0.1890
  587MOL0     H77450   6.421   4.193   0.575 -2.4358 -0.3946 -0.7441
  587MOL0     H77451   6.446   4.356   0.639 -2.1922  0.1602 -1.0171
  587MOL0     H77452   6.223   4.308   0.665  1.4484  1.2468 -1.6935
  587MOL0     H77453   6.319   4.357   0.803  4.4645  0.5066 -2.6590
  587MOL0     H77454   6.146   4.189   0.869 -0.5598  1.0352  0.0677
  587MOL0     H77455   6.302   4.090   0.859  0.0737 -0.7472 -2.8849
  587MOL0     H77456   6.085   4.121   0.655 -0.9407 -1.2331  0.5811
  587MOL0     H77457   6.238   4.036   0.620  0.3115 -2.2319 -0.4334
  587MOL0     H77458   6.180   3.869   0.786 -0.4130  2.9235  4.1761
  587MOL0     H77459   6.080   3.875   0.635  1.0067  1.9429 -0.8926
  587MOL0     H77460   5.893   3.957   0.772 -1.7393 -1.6877  0.5126
  587MOL0     H77461   6.004   4.011   0.899 -2.5115 -1.4079  2.5729
  587MOL0     H77462   5.997   3.717   0.862 -1.8602  0.1737 -3.0770
  587MOL0     H77463   5.991   3.821   1.007 -1.9995 -0.2119  1.0135
  587MOL0     H77464   5.758   3.767   0.813 -2.4573  1.1456  1.3460
  587MOL0     H77465   5.747   3.842   0.978 -0.8012 -0.5444  1.0091
  587MOL0     H77466   6.658   4.231   0.970  0.1423 -3.1574 -1.6359
  587MOL0     H77467   6.902   4.300   0.978  2.4670 -1.4582 -1.1109
  587MOL0     H77468   7.121   4.771   0.642  0.5431  1.6165 -0.7831
  587MOL0     H77469   7.331   4.873   0.693 -0.2984  0.8986 -1.1256
  587MOL0     H77470   8.742   5.399   1.839 -0.7343  0.3462 -1.0169
  587MOL0     H77471   8.972   5.455   1.770 -2.0409 -1.4598 -0.2300
  587MOL0     H77472   9.240   5.795   1.575  1.5164  0.2444  1.3606
  587MOL0     H77473   9.474   5.828   1.516  0.7248 -1.9000  1.2857
  587MOL0     H77474   9.691   5.754   1.470  0.3412 -0.0499  0.1211
  587MOL0     H77475   9.645   5.882   1.363  5.2641  1.9944 -1.9738
  587MOL0     H77476   9.856   5.697   1.295 -0.2632  0.6572  1.2408
  587MOL0     H77477   9.790   5.815   1.183  0.1345 -0.4069 -0.1630
  587MOL0     H77478   9.951   5.866   1.449  2.5551  0.0640 -1.3214
  587MOL0     H77479   9.857   5.996   1.373  2.1029  1.8343  0.6003
  587MOL0     H77480  10.089   6.013   1.344  0.9033 -1.7572  2.0763
  587MOL0     H77481  10.097   5.858   1.259 -1.4454 -0.9358  1.6378
  587MOL0     H77482   9.965   6.104   0.947  0.6160 -0.5335 -0.0020
  587MOL0     H77483   9.433   5.516   1.225  2.4854 -2.2768  2.2879
  587MOL0     H77484   9.211   5.477   1.288 -0.2367  1.9754 -3.8565
  588MOL0     O77485   1.124   4.121   3.511  0.3403 -0.5784 -0.7622
  588MOL0     C77486   1.183   4.158   3.613  0.2145 -0.2546  0.2376
  588MOL0     O77487   1.120   4.195   3.732 -0.0537 -0.5213  0.6774
  588MOL0     C77488   0.986   4.198   3.723  0.8880  0.0394  0.4533
  588MOL0     C77489   0.903   4.090   3.724  0.4053  0.4372 -0.2330
  588MOL0     C77490   0.773   4.100   3.755  0.3507  0.0339 -0.0623
  588MOL0     C77491   0.705   4.225   3.755  0.0093  0.9436 -0.6150
  588MOL0     O77492   0.571   4.251   3.779  0.2374 -0.0285 -0.6659
  588MOL0     C77493   0.476   4.141   3.799  0.8408 -0.5552 -0.6033
  588MOL0     C77494   0.425   4.154   3.944  0.4332  0.9725 -0.1326
  588MOL0     C77495   0.321   4.036   3.981 -0.1877 -0.3975  0.7249
  588MOL0     C77496   0.177   4.094   3.955  0.1631 -0.4982  0.6169
  588MOL0     C77497   0.078   3.992   4.004 -0.0407  0.0373 -0.2391
  588MOL0     C77498  -0.058   4.075   4.016  0.3141 -0.5279  0.2230
  588MOL0     C77499  -0.183   3.977   4.025  0.7057 -0.3301  0.0082
  588MOL0     C77500  -0.311   4.059   4.075  0.0797 -0.4914 -0.7198
  588MOL0     N77501  -0.434   3.982   4.077 -0.0308 -0.3363 -0.8241
  588MOL0     C77502  -0.528   3.984   4.180  0.2999 -0.1254 -0.6239
  588MOL0     C77503  -0.611   3.885   4.152 -0.0181  0.2771 -1.3700
  588MOL0     C77504  -0.710   3.835   4.251 -0.0061 -0.4149 -0.0596
  588MOL0     C77505  -0.843   3.924   4.253  0.2186  0.0945 -0.5433
  588MOL0     C77506  -0.948   3.869   4.352 -0.1002 -0.3100 -0.1686
  588MOL0     C77507  -1.084   3.943   4.336  0.8389  0.1051 -0.3204
  588MOL0     O77508  -1.185   3.866   4.407  0.1279 -0.9541  0.7230
  588MOL0     C77509  -1.319   3.895   4.383  0.3999 -0.4227  0.6187
  588MOL0     C77510  -1.383   4.017   4.338 -0.0279 -0.6815 -0.2179
  588MOL0     C77511  -1.522   4.026   4.329 -0.7858 -0.6278  0.1034
  588MOL0     C77512  -1.600   3.914   4.367 -0.0019  0.0603  0.3501
  588MOL0     C77513  -1.748   3.918   4.355 -0.4458 -0.6394  0.1695
  588MOL0     O77514  -1.800   3.990   4.247  0.2024 -0.0693 -0.4159
  588MOL0     C77515  -1.933   3.983   4.229 -0.4287 -0.6144 -0.5388
  588MOL0     C77516  -1.999   3.873   4.173 -0.4571 -0.0003 -0.2946
  588MOL0     C77517  -2.134   3.867   4.164 -0.0528 -0.6082  0.6650
  588MOL0     C77518  -2.209   3.974   4.212  0.8106  0.0195 -0.0482
  588MOL0     O77519  -2.340   3.949   4.201 -0.5141  0.4855  0.3612
  588MOL0     C77520  -2.432   4.034   4.270  0.1618 -0.7576 -0.0841
  588MOL0     C77521  -2.581   4.007   4.257  1.0144 -0.4470  0.1642
  588MOL0     C77522  -2.617   4.014   4.106  1.0960  0.5284  0.0844
  588MOL0     C77523  -2.769   3.993   4.109  0.3440 -0.5876  0.1416
  588MOL0     C77524  -2.811   3.987   3.968 -0.7082 -0.1619 -0.5830
  588MOL0     C77525  -2.952   3.984   3.952 -0.4762  0.4079  0.4556
  588MOL0     C77526  -3.002   4.123   3.929 -0.7239  0.0832  0.1406
  588MOL0     C77527  -3.154   4.119   3.905 -0.1669 -0.1636 -0.2599
  588MOL0    Cl77528  -3.210   4.278   3.828 -0.1056  0.1161 -0.0039
  588MOL0     C77529  -2.154   4.081   4.282 -0.4182 -1.0773 -0.6171
  588MOL0     C77530  -2.012   4.086   4.285  0.2380 -0.7350  0.0586
  588MOL0     O77531  -1.810   3.880   4.453 -0.5712  0.2184 -0.0339
  588MOL0     C77532  -1.538   3.796   4.390  0.1043  1.1590  0.1588
  588MOL0     C77533  -1.398   3.785   4.394 -0.1556 -0.6365 -0.1598
  588MOL0     N77534  -0.580   3.821   4.031 -0.6648  0.0959 -0.4087
  588MOL0     N77535  -0.473   3.878   3.988  0.0151  0.4250 -0.9157
  588MOL0     C77536   0.788   4.329   3.745  0.0536 -0.3637  0.2428
  588MOL0     C77537   0.928   4.323   3.730  0.3388 -1.0371  0.3849
  588MOL0     C77538   1.332   4.168   3.615  0.1055 -0.3034  0.4101
  588MOL0     C77539   1.408   4.115   3.516 -0.4616  0.6038 -0.5086
  588MOL0     C77540   1.552   4.118   3.520  0.3607 -0.0199 -0.2361
  588MOL0     C77541   1.617   4.177   3.618 -0.3958 -0.8661  0.3002
  588MOL0     O77542   1.754   4.167   3.619 -0.3457  0.5189 -0.7278
  588MOL0     C77543   1.837   4.209   3.730 -0.8663 -0.7576  0.2457
  588MOL0     C77544   1.984   4.136   3.710 -0.7031 -0.6768  0.0292
  588MOL0     C77545   2.093   4.230   3.657  0.1910  1.1267 -1.4819
  588MOL0     C77546   2.070   4.254   3.508 -0.7417 -0.2664 -0.5860
  588MOL0     C77547   2.195   4.327   3.466  0.5612 -1.2148  0.7821
  588MOL0     C77548   2.298   4.375   3.427 -0.4379 -0.3849 -0.5987
  588MOL0     C77549   1.541   4.241   3.719  0.5313 -0.0074 -0.3024
  588MOL0     C77550   1.398   4.242   3.714 -0.6678 -0.6432 -0.5816
  588MOL0     H77551   0.938   3.987   3.712 -1.0183  0.1589 -2.5939
  588MOL0     H77552   0.720   4.007   3.774 -1.4055  0.8781 -0.5496
  588MOL0     H77553   0.523   4.043   3.785  0.6874 -1.1181  2.2643
  588MOL0     H77554   0.397   4.143   3.723  0.5255  2.0219 -0.2987
  588MOL0     H77555   0.379   4.253   3.950 -1.1324  0.1990  2.0574
  588MOL0     H77556   0.504   4.154   4.019 -0.1159 -2.2789  0.5973
  588MOL0     H77557   0.331   4.006   4.086  1.5907  1.2648  1.0910
  588MOL0     H77558   0.334   3.943   3.925 -2.2787 -0.8482  0.9257
  588MOL0     H77559   0.161   4.181   4.020 -1.5299  0.1288 -0.6011
  588MOL0     H77560   0.160   4.122   3.851  1.1666 -0.7687  0.3632
  588MOL0     H77561   0.119   3.942   4.092 -0.2666  1.5202  0.7442
  588MOL0     H77562   0.063   3.922   3.921  1.5487  0.3790 -0.8647
  588MOL0     H77563  -0.083   4.133   3.927  2.5996  0.9688  0.4724
  588MOL0     H77564  -0.057   4.148   4.097 -0.6354  0.4859 -0.6540
  588MOL0     H77565  -0.215   3.935   3.930 -0.1229 -0.4102  0.3152
  588MOL0     H77566  -0.168   3.897   4.099 -2.6850 -2.9996 -1.9010
  588MOL0     H77567  -0.320   4.151   4.016 -0.7157  0.0355  0.2077
  588MOL0     H77568  -0.293   4.079   4.181 -1.9532 -0.0434 -0.4230
  588MOL0     H77569  -0.526   4.037   4.275 -2.4016 -0.7493 -0.1195
  588MOL0     H77570  -0.668   3.826   4.352 -0.3878  3.6375  0.6384
  588MOL0     H77571  -0.740   3.738   4.212 -0.4772 -0.3347  0.1008
  588MOL0     H77572  -0.882   3.919   4.151 -1.5745  0.1566  0.0903
  588MOL0     H77573  -0.830   4.026   4.290  0.3994  0.4078 -1.4651
  588MOL0     H77574  -0.961   3.763   4.326  0.9613 -0.6919  0.7750
  588MOL0     H77575  -0.906   3.881   4.452 -1.2726  2.3965  0.0826
  588MOL0     H77576  -1.106   3.937   4.229 -1.8675 -0.3869  0.1938
  588MOL0     H77577  -1.085   4.048   4.367 -0.1157 -0.1383  0.5470
  588MOL0     H77578  -1.305   4.084   4.303 -0.4882 -0.1401 -0.2239
  588MOL0     H77579  -1.579   4.112   4.298  0.4323  0.5099  0.9071
  588MOL0     H77580  -1.928   3.804   4.130 -0.4326 -0.6044  0.6873
  588MOL0     H77581  -2.189   3.785   4.119  0.2360  0.3124 -1.5300
  588MOL0     H77582  -2.419   4.132   4.222 -0.1687 -0.2663  0.8048
  588MOL0     H77583  -2.409   4.040   4.376  0.7851 -1.8816 -0.1487
  588MOL0     H77584  -2.645   4.072   4.317  0.1714  1.6796 -2.8029
  588MOL0     H77585  -2.595   3.905   4.294 -0.2812  0.7537  3.3675
  588MOL0     H77586  -2.565   3.944   4.040 -0.0649 -1.7049  1.4617
  588MOL0     H77587  -2.593   4.120   4.092 -0.0593  1.3119  3.2996
  588MOL0     H77588  -2.800   3.900   4.158  0.3039 -1.9864 -2.4111
  588MOL0     H77589  -2.809   4.085   4.153 -0.7461  0.7040 -3.2779
  588MOL0     H77590  -2.773   3.895   3.924  0.6810 -0.8301  1.8399
  588MOL0     H77591  -2.765   4.076   3.923 -1.4680 -0.0231 -1.0995
  588MOL0     H77592  -3.004   3.931   4.033  0.4711  1.1130  1.5584
  588MOL0     H77593  -2.973   3.922   3.864 -0.0080 -0.9878  1.2926
  588MOL0     H77594  -2.988   4.184   4.019 -2.5545 -0.7968  1.0838
  588MOL0     H77595  -2.959   4.161   3.836 -0.2582 -3.6081 -1.2991
  588MOL0     H77596  -3.202   4.112   4.003  0.6901  3.3150  0.5416
  588MOL0     H77597  -3.170   4.040   3.831 -1.3201  0.6784 -0.9391
  588MOL0     H77598  -2.209   4.155   4.340  1.5948 -1.3926  1.8630
  588MOL0     H77599  -1.964   4.171   4.333  0.3960 -1.1911  0.7191
  588MOL0     H77600  -1.602   3.717   4.428  1.0663 -0.3696 -1.2433
  588MOL0     H77601  -1.361   3.687   4.424 -1.0211 -0.0130  3.3637
  588MOL0     H77602   0.731   4.422   3.749  0.7989  0.2401 -1.9938
  588MOL0     H77603   0.988   4.413   3.731 -0.2187 -0.6575  0.5015
  588MOL0     H77604   1.373   4.065   3.426  1.4003  0.3475 -1.1159
  588MOL0     H77605   1.603   4.077   3.434  0.6939  0.8396 -0.4565
  588MOL0     H77606   1.797   4.170   3.824 -0.2131 -2.1764 -0.0349
  588MOL0     H77607   1.844   4.317   3.747  2.0573 -1.3180  3.6311
  588MOL0     H77608   2.013   4.110   3.812  2.4604  3.7829  0.5357
  588MOL0     H77609   1.979   4.053   3.639  0.3293  0.9225 -2.0444
  588MOL0     H77610   2.185   4.173   3.675 -1.3273 -1.4795 -1.4442
  588MOL0     H77611   2.092   4.321   3.718 -2.9495  0.2428 -0.0207
  588MOL0     H77612   2.075   4.157   3.458 -0.2177 -0.5167 -0.0647
  588MOL0     H77613   1.982   4.311   3.475 -0.0410  0.7640 -0.7275
  588MOL0     H77614   2.384   4.417   3.380 -1.8057  0.8185 -2.1837
  588MOL0     H77615   1.587   4.305   3.794 -1.6780  1.0173  0.2568
  588MOL0     H77616   1.339   4.285   3.794  0.2224  0.8690 -0.7019
  589MOL0     O77617   5.311   5.233   2.153 -1.2550 -0.5106 -0.6069
  589MOL0     C77618   5.408   5.307   2.179  0.7907 -0.1263  0.2689
  589MOL0     O77619   5.410   5.389   2.286 -0.7258 -0.5604 -0.9205
  589MOL0     C77620   5.299   5.405   2.366  0.9974  0.1669 -0.2786
  589MOL0     C77621   5.169   5.417   2.322  0.7441  0.1051  0.4869
  589MOL0     C77622   5.066   5.439   2.420 -0.2820  0.7241  0.1694
  589MOL0     C77623   5.094   5.456   2.557 -1.1789  1.1955  0.5801
  589MOL0     O77624   4.998   5.474   2.648 -0.3693 -0.2490  0.1611
  589MOL0     C77625   4.862   5.456   2.612 -0.5954  1.0527 -0.5504
  589MOL0     C77626   4.800   5.393   2.736  1.1866  0.3406  0.0812
  589MOL0     C77627   4.875   5.275   2.808  0.7496  0.1052  0.7536
  589MOL0     C77628   4.787   5.223   2.922  0.4586 -0.8183 -0.1234
  589MOL0     C77629   4.829   5.090   2.972  0.2789  0.5033 -0.2726
  589MOL0     C77630   4.953   5.109   3.057  0.5481  0.4126 -1.4030
  589MOL0     C77631   4.984   4.976   3.145 -0.1666 -0.4980  0.2750
  589MOL0     C77632   5.071   5.009   3.263 -0.4116 -0.3534 -0.3251
  589MOL0     N77633   5.214   4.990   3.231 -0.2117  0.1328 -0.1474
  589MOL0     C77634   5.304   4.899   3.272 -0.1162 -0.2870 -1.2854
  589MOL0     C77635   5.417   4.925   3.204 -0.5551 -0.1919  1.0754
  589MOL0     C77636   5.550   4.850   3.190  0.5695  0.1772 -0.2713
  589MOL0     C77637   5.636   4.883   3.304  0.2767 -0.0431 -0.1922
  589MOL0     C77638   5.772   4.812   3.298  0.0873  0.5939 -0.3677
  589MOL0     C77639   5.833   4.824   3.438 -1.2796  0.0294  0.5349
  589MOL0     O77640   5.949   4.737   3.462  0.1835  0.2832 -0.6691
  589MOL0     C77641   6.071   4.785   3.403  0.2976  0.7244  0.1122
  589MOL0     C77642   6.170   4.686   3.374 -0.6748 -0.7028  0.8510
  589MOL0     C77643   6.296   4.729   3.325 -0.4984  0.6233 -0.2343
  589MOL0     C77644   6.337   4.865   3.321  0.2040 -0.3002 -0.2838
  589MOL0     C77645   6.482   4.911   3.287 -0.2767 -0.3444 -0.2195
  589MOL0     O77646   6.575   4.821   3.260 -0.0776 -0.3536  1.0331
  589MOL0     C77647   6.705   4.840   3.232  0.5854 -0.5000  0.0016
  589MOL0     C77648   6.791   4.929   3.300  0.3193 -0.0729  0.3624
  589MOL0     C77649   6.925   4.936   3.264  0.0192  0.4979  0.2264
  589MOL0     C77650   6.979   4.847   3.176  0.3404 -0.7430  0.0749
  589MOL0     O77651   7.113   4.848   3.147 -0.0997 -0.2333 -0.7387
  589MOL0     C77652   7.202   4.897   3.247 -0.2388 -0.6338  0.0053
  589MOL0     C77653   7.342   4.843   3.220  0.0948  1.2613 -0.0595
  589MOL0     C77654   7.410   4.944   3.127  0.9395 -0.3515 -0.4637
  589MOL0     C77655   7.542   4.909   3.062 -0.5759  0.5278  0.4953
  589MOL0     C77656   7.645   4.894   3.176 -0.1514 -0.0050  0.2345
  589MOL0     C77657   7.771   4.990   3.162  0.8418  0.3386 -0.6345
  589MOL0     C77658   7.835   4.988   3.024  0.1771  0.1356  0.1233
  589MOL0     C77659   7.898   5.125   2.976  0.7233  0.3663 -0.0419
  589MOL0    Cl77660   7.991   5.103   2.825  0.6120  0.2148 -0.3042
  589MOL0     C77661   6.903   4.751   3.110  0.4035  0.4169 -0.3180
  589MOL0     C77662   6.768   4.741   3.142 -0.6832  1.6634  0.2490
  589MOL0     O77663   6.501   5.032   3.290  0.4251 -0.5005 -0.5160
  589MOL0     C77664   6.227   4.957   3.333  0.1694 -0.9129  0.0812
  589MOL0     C77665   6.098   4.916   3.384  0.8204  0.3332  0.2784
  589MOL0     N77666   5.403   5.045   3.141 -0.5555 -1.1281 -1.2259
  589MOL0     N77667   5.289   5.089   3.163 -0.0928  0.0795 -0.1466
  589MOL0     C77668   5.220   5.433   2.601 -0.1222  0.7440 -0.0833
  589MOL0     C77669   5.323   5.410   2.505  0.4617  0.2652 -0.7659
  589MOL0     C77670   5.526   5.298   2.098 -0.6010  0.3430  0.5395
  589MOL0     C77671   5.635   5.375   2.135  0.6375  0.2560  0.0735
  589MOL0     C77672   5.753   5.362   2.066 -0.9268  0.8725  0.7359
  589MOL0     C77673   5.764   5.273   1.961 -0.2878 -0.0946 -0.2987
  589MOL0     O77674   5.879   5.252   1.894  0.3385 -0.8116  0.0794
  589MOL0     C77675   6.005   5.267   1.966  0.4242 -0.2566  0.0889
  589MOL0     C77676   6.097   5.179   1.885  0.1115 -0.1309  0.2325
  589MOL0     C77677   6.245   5.182   1.934  0.2277  0.2432 -0.0101
  589MOL0     C77678   6.304   5.321   1.914 -0.5644  0.3439 -0.9067
  589MOL0     C77679   6.448   5.322   1.945 -0.1141 -0.0008  0.7381
  589MOL0     C77680   6.566   5.349   1.977  1.0720  0.7193 -0.2180
  589MOL0     C77681   5.651   5.208   1.917 -0.7268 -1.0883 -0.0401
  589MOL0     C77682   5.531   5.220   1.983 -0.2397 -0.1860  0.7541
  589MOL0     H77683   5.140   5.427   2.218  0.8749  1.2526  0.5485
  589MOL0     H77684   4.966   5.457   2.382 -0.1044  0.2790 -0.5392
  589MOL0     H77685   4.853   5.388   2.527  0.1022  1.0494 -0.6276
  589MOL0     H77686   4.803   5.546   2.594 -2.5727  0.6770  3.0775
  589MOL0     H77687   4.705   5.349   2.706  1.4603  0.7646 -1.5461
  589MOL0     H77688   4.780   5.468   2.813 -1.4400 -2.1149  1.9721
  589MOL0     H77689   4.974   5.311   2.838  0.6824  1.6147 -0.7041
  589MOL0     H77690   4.893   5.199   2.732 -1.0647 -1.5374  1.8737
  589MOL0     H77691   4.785   5.289   3.009 -0.9227 -1.1313  0.0910
  589MOL0     H77692   4.683   5.212   2.890  0.2834  0.2604  0.0669
  589MOL0     H77693   4.860   5.026   2.889  1.3272 -0.4379  0.8113
  589MOL0     H77694   4.748   5.047   3.031 -0.3967  2.1795  0.0811
  589MOL0     H77695   4.934   5.178   3.140  0.2706 -0.8168 -0.4199
  589MOL0     H77696   5.035   5.147   2.995  1.3751 -0.1052 -0.6438
  589MOL0     H77697   4.889   4.950   3.193 -1.3475 -0.5889 -2.0043
  589MOL0     H77698   5.014   4.892   3.083 -1.9944 -0.0513 -1.3033
  589MOL0     H77699   5.051   4.946   3.350  3.3933 -1.0695  0.2302
  589MOL0     H77700   5.058   5.111   3.300 -0.3026  0.3843 -2.2173
  589MOL0     H77701   5.294   4.804   3.323  1.6842  0.2254  0.1436
  589MOL0     H77702   5.599   4.874   3.095  0.1088 -1.8810 -1.0671
  589MOL0     H77703   5.538   4.742   3.181  1.6431 -0.4708  4.0068
  589MOL0     H77704   5.580   4.853   3.393 -0.1380 -0.2003 -0.5034
  589MOL0     H77705   5.653   4.991   3.313 -0.0280  0.2507 -2.5298
  589MOL0     H77706   5.757   4.706   3.276  2.4079 -0.0390  0.8732
  589MOL0     H77707   5.830   4.848   3.212 -1.6030 -0.1435 -1.8945
  589MOL0     H77708   5.760   4.790   3.512 -0.4532 -2.3836  0.3378
  589MOL0     H77709   5.848   4.925   3.477 -0.5251 -0.9718  3.0314
  589MOL0     H77710   6.144   4.583   3.398  1.3442 -1.8447 -1.3942
  589MOL0     H77711   6.369   4.649   3.326  0.1450  1.1877 -0.6500
  589MOL0     H77712   6.751   5.000   3.372  3.6878 -0.4463  2.8306
  589MOL0     H77713   6.979   5.015   3.315  2.4094 -0.9060  0.0212
  589MOL0     H77714   7.162   4.862   3.343  0.8922 -0.7761  0.4402
  589MOL0     H77715   7.204   5.007   3.248 -3.8917 -0.3743 -1.9490
  589MOL0     H77716   7.326   4.744   3.176 -2.6149  1.3467  0.5409
  589MOL0     H77717   7.397   4.827   3.312 -0.9862 -0.1034  0.3802
  589MOL0     H77718   7.402   5.045   3.170 -3.6706  0.5850 -2.8200
  589MOL0     H77719   7.350   4.960   3.037  0.8861 -1.3363 -0.6122
  589MOL0     H77720   7.529   4.817   3.004  0.9303  0.0505  0.8641
  589MOL0     H77721   7.570   4.985   2.989  1.7563  0.2248  0.9971
  589MOL0     H77722   7.686   4.794   3.195  1.7415  0.6067 -0.3805
  589MOL0     H77723   7.602   4.906   3.276  0.1529  0.2765  0.3328
  589MOL0     H77724   7.846   4.960   3.236 -0.2603 -2.1278 -0.4266
  589MOL0     H77725   7.715   5.079   3.193 -1.1276 -0.7286 -0.9858
  589MOL0     H77726   7.896   4.899   3.008 -0.3495 -0.4992  1.5771
  589MOL0     H77727   7.765   4.972   2.941  2.6825  4.1064 -3.1784
  589MOL0     H77728   7.955   5.158   3.064 -1.0287 -1.0184  1.7009
  589MOL0     H77729   7.817   5.191   2.943  2.4552  2.2092 -0.8237
  589MOL0     H77730   6.951   4.672   3.054  1.7834  0.0375  1.3103
  589MOL0     H77731   6.705   4.656   3.119  0.5244  0.2728  1.8360
  589MOL0     H77732   6.244   5.065   3.332 -1.7765 -0.5626  0.4803
  589MOL0     H77733   6.023   4.992   3.403 -0.3325 -0.6421 -0.2483
  589MOL0     H77734   5.245   5.445   2.706  0.2580  4.9999 -0.4802
  589MOL0     H77735   5.429   5.414   2.530  0.7024 -2.2798 -1.1413
  589MOL0     H77736   5.621   5.449   2.213  1.7832 -1.9643  2.5048
  589MOL0     H77737   5.835   5.417   2.112  0.5873 -1.8996  1.6004
  589MOL0     H77738   5.996   5.239   2.071  2.6710  2.1414  1.0519
  589MOL0     H77739   6.038   5.372   1.957  1.7627 -0.7550 -1.3436
  589MOL0     H77740   6.050   5.081   1.880  1.6813 -0.8656 -3.3362
  589MOL0     H77741   6.093   5.225   1.786  0.6369  4.0413  1.9288
  589MOL0     H77742   6.313   5.126   1.869 -3.4883 -3.8765 -0.8063
  589MOL0     H77743   6.239   5.159   2.041 -0.3176  0.9255  0.1116
  589MOL0     H77744   6.300   5.364   1.813  1.2629  0.6909 -0.8747
  589MOL0     H77745   6.244   5.389   1.975 -1.0446  0.8590 -1.9170
  589MOL0     H77746   6.668   5.377   1.995  1.1882 -0.7254  1.6548
  589MOL0     H77747   5.669   5.152   1.826  2.5334 -0.6034  0.1904
  589MOL0     H77748   5.443   5.171   1.944 -1.1611 -0.4904  3.1046
  590MOL0     O77749   3.541   3.211   6.682 -0.1706  0.5524  0.2050
  590MOL0     C77750   3.505   3.328   6.664 -0.1862  0.4968 -0.5598
  590MOL0     O77751   3.393   3.381   6.717 -0.3563  0.1003 -0.8186
  590MOL0     C77752   3.314   3.317   6.816 -0.3525 -0.4248 -0.5644
  590MOL0     C77753   3.261   3.391   6.924  0.0611 -0.4326 -0.5211
  590MOL0     C77754   3.219   3.323   7.033 -0.1523  0.5605  0.4200
  590MOL0     C77755   3.208   3.189   7.041  0.2926 -0.2865 -0.1870
  590MOL0     O77756   3.152   3.131   7.153  0.0199 -0.3330  0.2946
  590MOL0     C77757   3.136   2.990   7.171  0.8090 -0.0188 -0.8256
  590MOL0     C77758   3.074   2.973   7.296  0.0028  0.0403 -0.0528
  590MOL0     C77759   2.926   2.996   7.283 -0.4806 -0.0855 -0.6886
  590MOL0     C77760   2.858   3.065   7.401 -0.5779  0.3001  0.3843
  590MOL0     C77761   2.708   3.060   7.366 -0.3972  0.4013 -0.9115
  590MOL0     C77762   2.628   3.115   7.484 -0.1543 -0.3654  0.1422
  590MOL0     C77763   2.506   3.183   7.432 -0.4612  0.1295 -0.0693
  590MOL0     C77764   2.446   3.261   7.553  0.3774  0.1505  1.0357
  590MOL0     N77765   2.328   3.326   7.508  0.0330  0.0591 -0.2369
  590MOL0     C77766   2.318   3.458   7.490  0.5091 -0.4784  0.6601
  590MOL0     C77767   2.194   3.477   7.448 -0.4118  0.7624 -0.4213
  590MOL0     C77768   2.129   3.600   7.423 -0.0936  0.7763  0.0855
  590MOL0     C77769   2.005   3.582   7.345 -0.0365  0.1994 -0.3559
  590MOL0     C77770   1.944   3.724   7.297 -0.2345  0.3130 -0.8600
  590MOL0     C77771   1.788   3.711   7.275 -0.6399  0.4859  0.0850
  590MOL0     O77772   1.719   3.679   7.396 -0.5360  0.6137  0.1668
  590MOL0     C77773   1.590   3.646   7.387  1.0040 -0.3125  0.3304
  590MOL0     C77774   1.522   3.638   7.507  0.5048 -0.3526  0.0419
  590MOL0     C77775   1.387   3.595   7.508  0.6339  0.2451  0.4449
  590MOL0     C77776   1.310   3.565   7.393  0.1656 -0.4250  0.0912
  590MOL0     C77777   1.164   3.535   7.399 -0.8340 -0.1909  0.8297
  590MOL0     O77778   1.106   3.479   7.287  0.4355 -0.5486  1.3395
  590MOL0     C77779   0.985   3.414   7.289  0.6121 -0.3071  0.2543
  590MOL0     C77780   0.912   3.409   7.172  0.3828  0.8434 -0.0069
  590MOL0     C77781   0.801   3.318   7.164 -0.1446 -0.6786 -0.4407
  590MOL0     C77782   0.751   3.255   7.276  0.2601  0.6866 -0.1763
  590MOL0     O77783   0.635   3.184   7.281 -0.0754  0.2437  0.2289
  590MOL0     C77784   0.521   3.211   7.190 -0.2616  0.6057  0.1217
  590MOL0     C77785   0.443   3.328   7.231  0.3009  0.5948 -0.5780
  590MOL0     C77786   0.312   3.346   7.155 -0.7743 -1.1364 -0.1519
  590MOL0     C77787   0.234   3.466   7.194 -0.2838  0.1177  0.3374
  590MOL0     C77788   0.138   3.508   7.086  0.3283  0.3669 -0.2555
  590MOL0     C77789   0.126   3.659   7.096 -0.1114 -0.4701  0.2684
  590MOL0     C77790   0.011   3.708   7.009  0.4035  0.7510 -0.1335
  590MOL0     C77791  -0.059   3.831   7.068 -1.4003 -0.8041 -0.3320
  590MOL0    Cl77792   0.049   3.960   7.092 -0.0809  0.1928  0.2919
  590MOL0     C77793   0.806   3.273   7.401 -0.4242 -0.3665 -0.4867
  590MOL0     C77794   0.927   3.346   7.406 -0.6894 -0.9068  0.2735
  590MOL0     O77795   1.115   3.566   7.505  0.9286  0.3549  0.2450
  590MOL0     C77796   1.383   3.578   7.278 -0.3155  0.3837  0.8742
  590MOL0     C77797   1.515   3.619   7.272 -0.4174 -0.2631 -0.3912
  590MOL0     N77798   2.126   3.358   7.464  0.2434  0.1448  0.1804
  590MOL0     N77799   2.209   3.267   7.506  0.1878 -0.4689  0.7382
  590MOL0     C77800   3.242   3.120   6.927 -1.0691 -0.2859  0.3156
  590MOL0     C77801   3.289   3.184   6.813  0.5595 -0.2025  0.1968
  590MOL0     C77802   3.596   3.428   6.603  0.4048 -0.3972  0.3958
  590MOL0     C77803   3.728   3.396   6.572 -0.4679 -0.9178  0.5877
  590MOL0     C77804   3.825   3.494   6.553 -0.2815 -0.3829 -0.0067
  590MOL0     C77805   3.780   3.628   6.545 -0.6858 -0.4575 -0.5862
  590MOL0     O77806   3.868   3.734   6.514  0.5766 -0.2505  0.5110
  590MOL0     C77807   3.999   3.699   6.469 -0.3967 -0.3881  0.3696
  590MOL0     C77808   4.068   3.833   6.426  0.5484  0.0314 -0.4430
  590MOL0     C77809   4.006   3.898   6.300  0.2154  0.3866  0.1884
  590MOL0     C77810   4.098   4.013   6.263  1.4225  0.7909 -0.4483
  590MOL0     C77811   4.220   3.979   6.188 -0.7349 -0.0831 -0.1799
  590MOL0     C77812   4.307   3.960   6.107 -0.1024  0.2239  0.3320
  590MOL0     C77813   3.649   3.659   6.560  0.7152  0.5265 -0.4083
  590MOL0     C77814   3.558   3.559   6.587 -1.1621  0.7377  0.2916
  590MOL0     H77815   3.276   3.499   6.923  1.7629 -0.4831  3.3192
  590MOL0     H77816   3.199   3.380   7.123 -1.6963  1.2297 -0.3067
  590MOL0     H77817   3.230   2.934   7.161  0.6012 -0.8190  1.3179
  590MOL0     H77818   3.077   2.944   7.091 -0.6551  0.0961  0.1539
  590MOL0     H77819   3.115   3.056   7.354  0.4754  1.1121 -1.8209
  590MOL0     H77820   3.103   2.881   7.347  1.8602  0.7685  0.3038
  590MOL0     H77821   2.883   2.895   7.280 -0.6981  0.0301 -1.8636
  590MOL0     H77822   2.909   3.057   7.194  0.3675 -0.1782 -0.9149
  590MOL0     H77823   2.886   3.022   7.497 -0.0446  0.8344  0.4769
  590MOL0     H77824   2.883   3.171   7.404 -0.1862  0.2319 -0.2543
  590MOL0     H77825   2.672   2.959   7.349 -2.1199  0.9838 -0.8953
  590MOL0     H77826   2.684   3.113   7.274 -1.3497  0.9014 -0.3967
  590MOL0     H77827   2.689   3.179   7.548  1.1635 -0.1212 -1.3044
  590MOL0     H77828   2.595   3.027   7.540 -0.5208 -1.7265 -2.0689
  590MOL0     H77829   2.524   3.256   7.353 -0.4135  0.4812  0.2639
  590MOL0     H77830   2.434   3.105   7.407  0.0937  0.0257 -1.4118
  590MOL0     H77831   2.512   3.343   7.583 -1.2742  2.3641 -0.9450
  590MOL0     H77832   2.410   3.188   7.626  1.2556 -2.4290 -0.9763
  590MOL0     H77833   2.398   3.531   7.495 -0.4728  0.7666 -0.8571
  590MOL0     H77834   2.187   3.663   7.355  1.3691 -0.5943  0.0237
  590MOL0     H77835   2.103   3.662   7.510 -3.4308  1.4641 -1.2274
  590MOL0     H77836   1.934   3.536   7.414  0.5086 -0.5419 -0.2773
  590MOL0     H77837   2.010   3.513   7.260 -1.5636  1.3977 -1.4678
  590MOL0     H77838   1.967   3.806   7.366  0.8984 -2.5142  2.3942
  590MOL0     H77839   1.982   3.750   7.198 -0.4213 -0.2428 -1.0751
  590MOL0     H77840   1.783   3.628   7.204 -3.1250  1.8701 -1.4791
  590MOL0     H77841   1.748   3.803   7.232 -3.1723 -0.2058  0.7982
  590MOL0     H77842   1.575   3.647   7.601 -1.1587 -1.4383  1.1464
  590MOL0     H77843   1.339   3.590   7.605 -0.1644 -0.8214  0.0058
  590MOL0     H77844   0.943   3.449   7.076  0.7767  0.3648 -0.0811
  590MOL0     H77845   0.760   3.321   7.063 -1.2379  3.6972 -0.0836
  590MOL0     H77846   0.452   3.127   7.203  0.1101  0.5368  1.8676
  590MOL0     H77847   0.547   3.220   7.084 -2.0620 -1.7190 -0.6161
  590MOL0     H77848   0.501   3.417   7.206 -2.4102  2.4520 -0.7895
  590MOL0     H77849   0.433   3.321   7.339 -1.3050 -2.5154 -0.8001
  590MOL0     H77850   0.243   3.263   7.167 -1.4056 -0.7651 -1.0461
  590MOL0     H77851   0.337   3.361   7.049 -1.6428  1.2055 -0.0985
  590MOL0     H77852   0.190   3.471   7.294  0.4482 -1.3763  0.7560
  590MOL0     H77853   0.310   3.544   7.207 -1.7274  1.1346  3.6461
  590MOL0     H77854   0.046   3.453   7.108 -0.6646  2.6410  1.7714
  590MOL0     H77855   0.177   3.483   6.987  1.6568  0.9756  0.0910
  590MOL0     H77856   0.218   3.704   7.060  1.3104 -2.8035  0.7520
  590MOL0     H77857   0.110   3.691   7.199 -3.0615  0.0945 -0.2689
  590MOL0     H77858   0.051   3.736   6.911  0.7288  0.9198  0.0465
  590MOL0     H77859  -0.061   3.628   6.988  1.5959 -0.3229 -0.2674
  590MOL0     H77860  -0.106   3.806   7.164  3.0198 -1.1707  1.9945
  590MOL0     H77861  -0.136   3.865   6.999 -0.3727  1.5302 -0.4177
  590MOL0     H77862   0.780   3.233   7.498  0.6778  0.1735  0.0535
  590MOL0     H77863   0.972   3.364   7.503 -1.8386  1.0059  0.5050
  590MOL0     H77864   1.325   3.538   7.196  3.7582 -1.3902 -1.4263
  590MOL0     H77865   1.564   3.598   7.177 -0.9840 -2.1431 -0.3038
  590MOL0     H77866   3.213   3.016   6.925 -1.2557 -0.2285 -0.8015
  590MOL0     H77867   3.331   3.122   6.735  4.7033 -0.3975  2.3188
  590MOL0     H77868   3.762   3.292   6.571 -0.3643 -0.9228  2.0588
  590MOL0     H77869   3.929   3.466   6.536  0.6218  2.7057 -0.2202
  590MOL0     H77870   3.997   3.638   6.378  1.6268 -0.7195  0.4914
  590MOL0     H77871   4.061   3.652   6.546 -1.0715 -0.6581  0.7609
  590MOL0     H77872   4.063   3.901   6.511 -0.4410  0.1815 -0.6164
  590MOL0     H77873   4.175   3.813   6.415  0.6035 -0.0529  0.2152
  590MOL0     H77874   3.909   3.940   6.328 -0.0612  0.0864 -0.3084
  590MOL0     H77875   3.994   3.831   6.214  2.2670  2.7292 -2.1194
  590MOL0     H77876   4.042   4.082   6.200  0.2171 -1.2005 -1.6510
  590MOL0     H77877   4.126   4.063   6.356  2.6167 -1.7051  0.6287
  590MOL0     H77878   4.381   3.917   6.043 -0.1670 -0.3665  0.6521
  590MOL0     H77879   3.609   3.759   6.542  1.3198  2.2852  5.7062
  590MOL0     H77880   3.453   3.588   6.594 -1.3198  0.6127 -1.2494
  591MOL0     O77881   5.573  10.437   2.883 -0.2197  0.0442 -0.1893
  591MOL0     C77882   5.585  10.394   2.770  0.1429 -0.0666  0.6307
  591MOL0     O77883   5.518  10.287   2.718 -0.0406 -0.1940 -0.3481
  591MOL0     C77884   5.410  10.251   2.800 -0.4829  0.5542  0.8640
  591MOL0     C77885   5.299  10.338   2.813 -0.5054 -0.1171  0.0464
  591MOL0     C77886   5.181  10.303   2.875  0.5048  0.4279  0.3207
  591MOL0     C77887   5.174  10.177   2.922  0.4028  0.6668  1.1872
  591MOL0     O77888   5.067  10.132   2.987 -1.3127 -0.3433  0.2083
  591MOL0     C77889   5.022  10.214   3.098  0.1486  0.7016  0.1231
  591MOL0     C77890   4.977  10.131   3.216 -0.5211 -0.0870 -1.0995
  591MOL0     C77891   4.842  10.058   3.209  0.3407 -0.5787 -0.7772
  591MOL0     C77892   4.791  10.012   3.343  0.4420 -0.7458 -0.1634
  591MOL0     C77893   4.634  10.015   3.369 -0.2392  0.0106  0.0164
  591MOL0     C77894   4.554   9.907   3.280  0.4463  0.5921 -0.2642
  591MOL0     C77895   4.605   9.761   3.295 -1.2188 -0.2854 -0.2033
  591MOL0     C77896   4.516   9.644   3.245 -0.4255  0.0799 -0.6086
  591MOL0     N77897   4.462   9.663   3.112  0.8540  0.2925 -0.0144
  591MOL0     C77898   4.387   9.767   3.072  0.3651  0.2446 -0.2436
  591MOL0     C77899   4.386   9.764   2.940  0.0763 -0.3755 -0.1576
  591MOL0     C77900   4.298   9.845   2.853 -0.4100 -0.0633  0.1464
  591MOL0     C77901   4.161   9.781   2.826 -0.2369 -0.9267 -0.4556
  591MOL0     C77902   4.076   9.863   2.725 -0.2894 -0.1126 -0.1620
  591MOL0     C77903   3.935   9.812   2.714  0.3480 -0.0552  1.1717
  591MOL0     O77904   3.872   9.831   2.837 -1.1581  0.4194 -0.5157
  591MOL0     C77905   3.739   9.827   2.822  0.3646 -0.2275 -0.1631
  591MOL0     C77906   3.669   9.724   2.760  0.1455 -0.5163 -0.3714
  591MOL0     C77907   3.531   9.726   2.753  0.3100  0.0267  0.5546
  591MOL0     C77908   3.457   9.826   2.807  0.4031  0.1198 -0.0380
  591MOL0     C77909   3.309   9.827   2.789 -0.6340  0.0480  1.3383
  591MOL0     O77910   3.246   9.720   2.738  0.4148 -0.5306 -0.2577
  591MOL0     C77911   3.115   9.698   2.764  0.5152  0.4709 -0.3592
  591MOL0     C77912   3.032   9.695   2.659  0.1677  0.0096 -0.4157
  591MOL0     C77913   2.902   9.650   2.681 -0.2992 -0.3758  0.7186
  591MOL0     C77914   2.834   9.640   2.803 -1.0628  0.2959  1.6358
  591MOL0     O77915   2.704   9.613   2.806  0.1582  0.8592  0.7716
  591MOL0     C77916   2.640   9.640   2.930  0.0632  0.1843  0.5969
  591MOL0     C77917   2.490   9.629   2.905  0.1283 -0.7208 -1.4042
  591MOL0     C77918   2.419   9.763   2.863 -0.6625  0.4861 -0.4564
  591MOL0     C77919   2.269   9.758   2.853  0.8758  1.1686  0.0871
  591MOL0     C77920   2.207   9.891   2.802 -0.5908 -0.2134  0.4515
  591MOL0     C77921   2.216   9.993   2.920  0.5667  0.4741 -0.4485
  591MOL0     C77922   2.088  10.066   2.923 -0.6985 -1.0178  0.5300
  591MOL0     C77923   2.053  10.137   2.785  0.0656 -0.6385  0.0199
  591MOL0    Cl77924   1.922  10.254   2.813  0.1374 -0.1169 -0.2241
  591MOL0     C77925   2.929   9.645   2.906  0.2373 -0.4278 -0.7337
  591MOL0     C77926   3.063   9.671   2.892  0.0146 -0.3383  0.5011
  591MOL0     O77927   3.256   9.927   2.824 -0.7392  0.1161  0.4827
  591MOL0     C77928   3.527   9.931   2.862  0.0159  0.0670 -0.3823
  591MOL0     C77929   3.668   9.922   2.888 -0.2292  0.2139  0.4042
  591MOL0     N77930   4.461   9.657   2.900  0.4786 -0.0906  1.0083
  591MOL0     N77931   4.514   9.604   2.997  0.2456  0.0351  0.3046
  591MOL0     C77932   5.281  10.088   2.907  0.0736 -1.0071 -1.1214
  591MOL0     C77933   5.395  10.114   2.836  0.1045 -0.6090 -0.1008
  591MOL0     C77934   5.706  10.440   2.698 -0.3370 -0.8847 -0.7158
  591MOL0     C77935   5.781  10.547   2.753  0.2664 -0.0785 -0.5011
  591MOL0     C77936   5.895  10.591   2.688  0.0493 -0.2421  0.7685
  591MOL0     C77937   5.936  10.542   2.563 -0.0185 -0.2584 -0.3074
  591MOL0     O77938   6.044  10.580   2.489  0.0443  0.2060 -0.2872
  591MOL0     C77939   6.123  10.686   2.538 -0.1345 -0.3463  0.3495
  591MOL0     C77940   6.215  10.753   2.426  0.8147  0.5373  1.0460
  591MOL0     C77941   6.282  10.651   2.339 -0.4558  0.4676 -0.1009
  591MOL0     C77942   6.420  10.702   2.303  0.0610 -0.2484 -0.3113
  591MOL0     C77943   6.485  10.610   2.211 -0.1253 -0.1829 -0.4378
  591MOL0     C77944   6.550  10.544   2.129 -0.0571  0.4011 -0.2427
  591MOL0     C77945   5.867  10.430   2.513 -0.0297  0.1372  1.4751
  591MOL0     C77946   5.755  10.376   2.585 -0.1795 -0.0632 -0.1165
  591MOL0     H77947   5.298  10.440   2.774  3.6445 -0.6100 -1.9407
  591MOL0     H77948   5.108  10.383   2.885 -2.3808 -2.1948  2.0388
  591MOL0     H77949   4.941  10.281   3.069 -1.3499  0.4494  3.2457
  591MOL0     H77950   5.105  10.277   3.129  0.8089  0.8578 -1.8245
  591MOL0     H77951   4.966  10.203   3.298 -2.7953 -2.2585  0.6620
  591MOL0     H77952   5.051  10.058   3.250  0.7186  2.0057  0.9972
  591MOL0     H77953   4.851   9.975   3.140  0.1421  0.8653 -2.6094
  591MOL0     H77954   4.786  10.140   3.164  2.3076  0.1476 -2.0520
  591MOL0     H77955   4.825   9.908   3.347  2.3264 -0.1508  0.7242
  591MOL0     H77956   4.838  10.077   3.417  0.4992  2.6012 -2.8878
  591MOL0     H77957   4.585  10.110   3.346  1.2738  0.7909 -0.0696
  591MOL0     H77958   4.616   9.994   3.475  1.5125  1.3367  0.6201
  591MOL0     H77959   4.567   9.936   3.176  0.1803  1.3305 -0.0945
  591MOL0     H77960   4.447   9.918   3.303  0.6636  0.2129  0.9960
  591MOL0     H77961   4.703   9.751   3.248 -1.1642 -1.9238  0.1765
  591MOL0     H77962   4.621   9.737   3.401 -0.0286 -2.1635 -0.7602
  591MOL0     H77963   4.437   9.639   3.321  0.6584 -0.1354  0.5343
  591MOL0     H77964   4.577   9.553   3.246  0.3802  0.5616 -2.1373
  591MOL0     H77965   4.332   9.837   3.135  0.3696 -0.0760  0.1242
  591MOL0     H77966   4.358   9.867   2.764  3.3673 -1.3122  2.1831
  591MOL0     H77967   4.282   9.943   2.898  0.2752 -0.3627  1.0649
  591MOL0     H77968   4.103   9.771   2.919 -1.3168 -1.3178 -1.1571
  591MOL0     H77969   4.169   9.678   2.790  0.1587 -0.9635 -0.2757
  591MOL0     H77970   4.075   9.970   2.745  2.9475 -0.0611  0.2103
  591MOL0     H77971   4.121   9.837   2.629 -1.8129  1.4777 -1.3694
  591MOL0     H77972   3.936   9.705   2.688  0.8225  0.2846 -0.3590
  591MOL0     H77973   3.882   9.868   2.636  1.8927 -0.6867 -0.4003
  591MOL0     H77974   3.721   9.639   2.717 -1.2900 -0.5461 -2.1611
  591MOL0     H77975   3.486   9.631   2.725  0.3903 -2.0077  6.0776
  591MOL0     H77976   3.057   9.739   2.563  0.2514  0.8013 -0.0348
  591MOL0     H77977   2.831   9.645   2.598  1.7834 -0.9123 -1.1376
  591MOL0     H77978   2.672   9.742   2.955  1.8556  0.4219 -2.2250
  591MOL0     H77979   2.671   9.567   3.005 -0.9437  1.5239  2.3849
  591MOL0     H77980   2.440   9.609   3.000  1.6654  2.3868  0.2047
  591MOL0     H77981   2.465   9.552   2.831 -2.5622 -1.6378  0.2928
  591MOL0     H77982   2.454   9.782   2.761  3.2445  0.6658  0.7576
  591MOL0     H77983   2.453   9.840   2.933 -0.7428  0.1708 -0.0678
  591MOL0     H77984   2.245   9.673   2.789 -1.3565  0.3735  1.8177
  591MOL0     H77985   2.223   9.733   2.950  0.0640  0.8385 -0.3740
  591MOL0     H77986   2.106   9.877   2.763 -0.7000  1.9157 -0.1527
  591MOL0     H77987   2.272   9.924   2.720  0.6765 -1.1840  1.0145
  591MOL0     H77988   2.300  10.063   2.914  0.5337  0.4866 -0.7588
  591MOL0     H77989   2.226   9.932   3.011  0.8604 -0.9089 -1.3769
  591MOL0     H77990   2.007  10.005   2.963 -1.0860  0.0855  1.5068
  591MOL0     H77991   2.103  10.139   3.003 -1.0133 -0.6455  0.2513
  591MOL0     H77992   2.024  10.066   2.707  0.2550 -1.5879  0.7953
  591MOL0     H77993   2.140  10.193   2.750  1.0235 -2.9968 -1.5702
  591MOL0     H77994   2.891   9.619   3.005 -2.1386 -0.8240 -1.6792
  591MOL0     H77995   3.130   9.660   2.977 -1.7927  0.2205  2.0671
  591MOL0     H77996   3.482  10.018   2.908  1.0739  0.3798  0.0926
  591MOL0     H77997   3.708   9.993   2.960 -0.7922  0.9781 -0.0259
  591MOL0     H77998   5.267   9.990   2.950  0.6331  0.2379  2.2567
  591MOL0     H77999   5.471  10.040   2.812  0.7739  0.3102 -0.9084
  591MOL0     H78000   5.771  10.590   2.852  2.1274  1.2980 -0.8534
  591MOL0     H78001   5.954  10.663   2.743 -0.1703 -1.4397  2.6723
  591MOL0     H78002   6.189  10.636   2.609  0.8631 -0.7488 -0.8220
  591MOL0     H78003   6.061  10.762   2.587 -0.3130 -1.4018  1.8347
  591MOL0     H78004   6.154  10.814   2.359 -0.3280 -1.5363  0.1072
  591MOL0     H78005   6.286  10.827   2.466  1.7631 -0.0621  0.5215
  591MOL0     H78006   6.223  10.633   2.249  0.2115  2.9787 -1.1377
  591MOL0     H78007   6.297  10.559   2.395  2.2396  1.9617  1.9073
  591MOL0     H78008   6.397  10.799   2.258  1.3093 -0.3672 -1.2505
  591MOL0     H78009   6.482  10.707   2.393 -0.0248  1.2946 -0.3156
  591MOL0     H78010   6.606  10.478   2.067 -0.5737 -3.5451  3.0247
  591MOL0     H78011   5.917  10.374   2.435  4.9519  1.5034  3.3165
  591MOL0     H78012   5.713  10.280   2.556  0.1440 -0.1116 -0.4327
  592MOL0     O78013  10.118   5.102   8.030 -0.8423  0.1202 -0.2285
  592MOL0     C78014  10.190   5.101   7.930 -0.1773  0.1719 -0.2744
  592MOL0     O78015  10.141   5.068   7.807 -0.6765  0.1342 -0.5645
  592MOL0     C78016  10.011   5.027   7.803  0.0895  0.7906  0.5111
  592MOL0     C78017   9.911   5.118   7.790  0.2213 -0.3404  0.1127
  592MOL0     C78018   9.778   5.069   7.788 -0.5492 -0.0905 -0.3573
  592MOL0     C78019   9.751   4.929   7.798 -0.0244 -0.4650 -0.4151
  592MOL0     O78020   9.629   4.877   7.817 -0.1249  0.1337 -0.3380
  592MOL0     C78021   9.538   4.927   7.724 -0.0948 -0.8873 -0.3944
  592MOL0     C78022   9.405   4.860   7.769  0.4543  0.2481 -0.2439
  592MOL0     C78023   9.292   4.866   7.675  0.7491  1.0296  0.5817
  592MOL0     C78024   9.161   4.784   7.727  0.0112 -1.0081 -0.5230
  592MOL0     C78025   9.105   4.849   7.855  0.2033  0.0394 -0.2404
  592MOL0     C78026   9.020   4.749   7.928 -0.2152  0.2880 -0.9662
  592MOL0     C78027   8.876   4.718   7.871 -0.6184 -0.3106  0.6977
  592MOL0     C78028   8.775   4.696   7.983  0.2484  0.3538 -0.1397
  592MOL0     N78029   8.812   4.584   8.079  0.5842 -0.2268  0.2330
  592MOL0     C78030   8.820   4.447   8.045  0.1767 -0.0621  0.3642
  592MOL0     C78031   8.870   4.396   8.159 -0.3367 -0.2936  0.6350
  592MOL0     C78032   8.915   4.250   8.140  0.2210 -0.9714 -0.3733
  592MOL0     C78033   8.813   4.156   8.201  0.4882 -0.2082 -0.6997
  592MOL0     C78034   8.683   4.148   8.119  0.7609 -0.0716  0.2823
  592MOL0     C78035   8.704   4.093   7.978  0.1536  0.0840 -0.2262
  592MOL0     O78036   8.760   3.964   7.992  0.1125  0.0133 -0.1758
  592MOL0     C78037   8.813   3.894   7.891 -0.7796  0.5232  0.2729
  592MOL0     C78038   8.885   3.769   7.921 -0.2313 -0.3222  0.4305
  592MOL0     C78039   8.943   3.705   7.827  0.5716  0.3351 -0.2579
  592MOL0     C78040   8.938   3.747   7.691 -0.4884 -0.0436 -0.3486
  592MOL0     C78041   9.010   3.665   7.594 -0.1293  0.4660 -0.1921
  592MOL0     O78042   8.986   3.683   7.463  0.2552  0.5359  0.4346
  592MOL0     C78043   9.081   3.623   7.381  0.0130  0.3201  0.6906
  592MOL0     C78044   9.147   3.706   7.301 -1.1942  0.1367 -0.1294
  592MOL0     C78045   9.229   3.657   7.194  0.5023 -0.2191  0.6114
  592MOL0     C78046   9.229   3.518   7.169  1.4765  0.4130 -0.9386
  592MOL0     O78047   9.305   3.453   7.078  0.0824 -0.4461  0.2229
  592MOL0     C78048   9.356   3.536   6.973 -0.0736 -0.7149 -0.3513
  592MOL0     C78049   9.391   3.458   6.845  0.0214  0.3476 -0.2626
  592MOL0     C78050   9.498   3.358   6.893 -0.1217 -1.6355  0.3871
  592MOL0     C78051   9.558   3.274   6.777  0.1983  0.5143 -0.2050
  592MOL0     C78052   9.711   3.266   6.788  0.7872  0.1538 -0.1055
  592MOL0     C78053   9.773   3.260   6.649  0.2703  0.5356 -0.6018
  592MOL0     C78054   9.925   3.248   6.665 -0.3391 -0.1473 -0.1808
  592MOL0     C78055   9.995   3.237   6.525 -0.2559  0.2719  0.1783
  592MOL0    Cl78056  10.163   3.198   6.566  0.7102  0.1528  0.3263
  592MOL0     C78057   9.159   3.433   7.256  0.5558 -0.0904 -0.5697
  592MOL0     C78058   9.084   3.488   7.358  0.7701  0.5771  0.5706
  592MOL0     O78059   9.104   3.590   7.640  1.0895  0.2429  0.4697
  592MOL0     C78060   8.862   3.853   7.654  0.1414  0.0377 -0.7975
  592MOL0     C78061   8.808   3.934   7.753 -0.9708  0.3346  0.2521
  592MOL0     N78062   8.880   4.491   8.261  0.9147 -0.5729  0.1653
  592MOL0     N78063   8.858   4.596   8.208 -0.5345  0.2428 -0.0460
  592MOL0     C78064   9.861   4.839   7.818 -0.1200 -0.1089  0.8312
  592MOL0     C78065   9.990   4.891   7.809 -0.0471 -0.5642 -0.4295
  592MOL0     C78066  10.334   5.118   7.951 -0.3984 -0.6834 -0.7477
  592MOL0     C78067  10.420   5.148   7.843 -0.1791 -0.0336  0.3935
  592MOL0     C78068  10.550   5.172   7.867 -0.6539  0.0436 -0.1514
  592MOL0     C78069  10.609   5.168   7.995  0.0581  0.4863  0.5078
  592MOL0     O78070  10.743   5.183   8.023  0.0234  0.2469 -0.3798
  592MOL0     C78071  10.833   5.208   7.913 -1.2319  0.4618  0.3831
  592MOL0     C78072  10.973   5.161   7.949  0.1403 -0.5159 -0.8610
  592MOL0     C78073  11.038   5.236   8.062  0.9571 -0.0567 -0.1754
  592MOL0     C78074  11.134   5.348   8.026 -0.6718 -0.3413  0.6453
  592MOL0     C78075  11.257   5.290   7.964 -0.2808 -0.3515 -0.6877
  592MOL0     C78076  11.364   5.234   7.931 -0.2844 -0.9795 -0.6944
  592MOL0     C78077  10.524   5.142   8.104 -0.7139 -0.4334  0.8738
  592MOL0     C78078  10.392   5.116   8.080  0.0656 -0.2803 -0.5349
  592MOL0     H78079   9.935   5.224   7.788  2.3526 -0.7254  1.5675
  592MOL0     H78080   9.697   5.141   7.785 -0.0026  0.5728  0.3544
  592MOL0     H78081   9.581   4.904   7.626  0.6218  3.8123 -1.4310
  592MOL0     H78082   9.527   5.035   7.733  2.0197 -0.6688  0.1515
  592MOL0     H78083   9.378   4.904   7.866 -0.0861 -2.1424  0.7578
  592MOL0     H78084   9.419   4.758   7.806  0.1602  0.9293  1.9284
  592MOL0     H78085   9.320   4.827   7.577 -0.9340  0.1805  0.4020
  592MOL0     H78086   9.259   4.969   7.659  0.7972  1.4577  2.8547
  592MOL0     H78087   9.094   4.779   7.640  1.1418 -0.1983 -1.4676
  592MOL0     H78088   9.193   4.682   7.751  2.1639 -0.1791  0.3377
  592MOL0     H78089   9.050   4.942   7.838  2.3102  1.3710 -0.1264
  592MOL0     H78090   9.188   4.876   7.921 -1.2892 -0.5139  1.9993
  592MOL0     H78091   9.015   4.784   8.032  1.3882 -2.9825  0.3633
  592MOL0     H78092   9.072   4.653   7.932 -0.2497  0.3127  0.6092
  592MOL0     H78093   8.855   4.804   7.807 -0.9465 -1.2973 -0.5533
  592MOL0     H78094   8.887   4.632   7.804  0.1793  0.4228 -0.1341
  592MOL0     H78095   8.683   4.667   7.931 -0.6015 -0.7817  1.8817
  592MOL0     H78096   8.760   4.783   8.047  0.9006  0.7236 -0.4774
  592MOL0     H78097   8.782   4.399   7.956 -2.5613  1.3505  0.6635
  592MOL0     H78098   9.006   4.238   8.200 -0.0408 -1.1045 -0.0032
  592MOL0     H78099   8.931   4.226   8.035 -1.1663 -0.5733 -0.6919
  592MOL0     H78100   8.785   4.179   8.304  1.2153  0.2211 -0.5944
  592MOL0     H78101   8.851   4.053   8.204  1.4622  0.1063 -1.7340
  592MOL0     H78102   8.612   4.084   8.172 -1.4750  2.4885  0.6185
  592MOL0     H78103   8.636   4.247   8.112 -0.2919 -0.6355 -1.4561
  592MOL0     H78104   8.765   4.154   7.910 -0.4837  0.1517 -0.7520
  592MOL0     H78105   8.603   4.083   7.936  0.3704 -1.1824 -0.5011
  592MOL0     H78106   8.883   3.727   8.021 -0.8279  3.7154  2.3038
  592MOL0     H78107   8.987   3.613   7.862 -0.7662 -0.7916 -1.4174
  592MOL0     H78108   9.157   3.813   7.319  2.0633 -0.0199 -0.3057
  592MOL0     H78109   9.292   3.715   7.126  0.6813 -0.5922  0.4563
  592MOL0     H78110   9.430   3.610   7.001 -2.3151  1.7288 -0.4811
  592MOL0     H78111   9.270   3.601   6.952 -0.8170 -0.8540  1.9659
  592MOL0     H78112   9.425   3.526   6.767 -2.7541  0.0962 -1.8129
  592MOL0     H78113   9.304   3.401   6.812 -0.7756 -0.1019  2.3394
  592MOL0     H78114   9.454   3.283   6.960 -4.7276  1.5325  1.4192
  592MOL0     H78115   9.576   3.416   6.943 -0.9284 -0.0730 -0.0751
  592MOL0     H78116   9.515   3.173   6.779  0.6422  0.3361  0.7555
  592MOL0     H78117   9.522   3.313   6.682  0.7030  0.6345 -0.3477
  592MOL0     H78118   9.749   3.183   6.849  0.9380 -1.2555 -2.0472
  592MOL0     H78119   9.747   3.358   6.836 -2.0778  2.0468 -1.3018
  592MOL0     H78120   9.744   3.349   6.592  1.0219  0.9989 -0.2774
  592MOL0     H78121   9.727   3.170   6.608 -3.0810 -0.2837  4.1484
  592MOL0     H78122   9.965   3.334   6.721  0.4630 -1.2709  1.0348
  592MOL0     H78123   9.946   3.162   6.729  2.6436  0.3733 -0.3038
  592MOL0     H78124  10.001   3.332   6.471 -0.1298  0.3047  0.2498
  592MOL0     H78125   9.952   3.166   6.453  5.7838 -1.8155 -2.0110
  592MOL0     H78126   9.151   3.328   7.231 -0.0948 -0.2166  0.1097
  592MOL0     H78127   9.026   3.413   7.411  2.9980 -2.3891 -0.8638
  592MOL0     H78128   8.851   3.889   7.552  1.9709  1.3688 -0.5765
  592MOL0     H78129   8.742   4.011   7.715  1.3635  1.7992 -1.1180
  592MOL0     H78130   9.856   4.731   7.824 -0.2464 -0.1750 -0.2035
  592MOL0     H78131  10.081   4.833   7.801 -1.3824 -2.6183 -1.7255
  592MOL0     H78132  10.393   5.141   7.738  0.2048  1.8607  0.1366
  592MOL0     H78133  10.614   5.200   7.784  0.8087 -0.3854  0.7910
  592MOL0     H78134  10.830   5.316   7.895 -1.1105  0.0644 -2.4696
  592MOL0     H78135  10.806   5.154   7.822 -1.0460  1.2328 -0.1351
  592MOL0     H78136  10.979   5.057   7.982 -1.8278 -0.5975 -0.6212
  592MOL0     H78137  11.040   5.168   7.863  1.5089  2.4126  0.3074
  592MOL0     H78138  11.097   5.157   8.109  0.3679 -1.9495 -2.4484
  592MOL0     H78139  10.962   5.270   8.132  0.2342 -0.7535 -0.6058
  592MOL0     H78140  11.092   5.416   7.951 -1.0950 -2.4391 -1.1234
  592MOL0     H78141  11.168   5.397   8.117 -0.5343 -0.0925  0.4626
  592MOL0     H78142  11.447   5.178   7.891  0.6876  0.3593 -0.6062
  592MOL0     H78143  10.565   5.146   8.204 -1.9424  0.4323  1.3697
  592MOL0     H78144  10.335   5.090   8.168  1.4639  0.4867  0.6364
  593MOL0     O78145  11.107   2.710   0.877 -0.4194 -0.2671  0.1894
  593MOL0     C78146  11.115   2.826   0.845 -0.6260 -0.2610 -0.5647
  593MOL0     O78147  11.010   2.913   0.853  0.6621 -0.1646 -0.1918
  593MOL0     C78148  10.894   2.868   0.910 -0.3170 -0.5160 -0.6764
  593MOL0     C78149  10.793   2.811   0.829 -0.1857 -0.0450  0.0957
  593MOL0     C78150  10.675   2.775   0.894  0.4407  0.5933  0.2790
  593MOL0     C78151  10.652   2.799   1.027 -0.0229  0.8035 -0.2833
  593MOL0     O78152  10.538   2.766   1.093  0.1119 -0.2384 -0.4243
  593MOL0     C78153  10.531   2.756   1.239  0.3346  0.2217  1.0096
  593MOL0     C78154  10.404   2.697   1.285  0.4379  0.7739 -0.0354
  593MOL0     C78155  10.423   2.608   1.414  0.3198 -0.6639 -0.3120
  593MOL0     C78156  10.301   2.522   1.433 -0.2284 -1.6109  0.3175
  593MOL0     C78157  10.324   2.432   1.548  0.3962 -0.5199  0.0016
  593MOL0     C78158  10.340   2.495   1.688 -0.0593  0.0623  0.8642
  593MOL0     C78159  10.390   2.379   1.775  0.5944  0.4109  0.5874
  593MOL0     C78160  10.392   2.427   1.912  0.5880 -0.1676  0.5612
  593MOL0     N78161  10.421   2.315   1.998 -1.3449 -0.0486 -0.5952
  593MOL0     C78162  10.343   2.207   2.023 -0.3343  0.8087 -0.8705
  593MOL0     C78163  10.413   2.126   2.112 -0.4953 -1.3466  0.4984
  593MOL0     C78164  10.380   1.994   2.177 -0.0661  1.0084 -0.0469
  593MOL0     C78165  10.498   1.891   2.141 -1.1167 -0.2447  0.3040
  593MOL0     C78166  10.518   1.779   2.240  0.3091 -0.5549  0.3450
  593MOL0     C78167  10.607   1.661   2.204 -0.4633 -0.5602 -0.7075
  593MOL0     O78168  10.575   1.616   2.069  0.2471 -0.0162  0.2155
  593MOL0     C78169  10.608   1.487   2.029  0.4462 -0.8519  0.2157
  593MOL0     C78170  10.528   1.418   1.941  0.7558  0.0319 -0.9859
  593MOL0     C78171  10.555   1.299   1.880 -0.1987 -0.3637  0.3219
  593MOL0     C78172  10.675   1.234   1.921  0.3173  0.4243 -0.1837
  593MOL0     C78173  10.708   1.101   1.856 -0.0214 -0.1539 -0.1900
  593MOL0     O78174  10.606   1.035   1.795 -0.1777  0.5562  0.5060
  593MOL0     C78175  10.648   0.929   1.706  0.0739  0.1840  1.0948
  593MOL0     C78176  10.692   0.955   1.575  0.0477 -0.5971 -0.1446
  593MOL0     C78177  10.731   0.853   1.486 -0.1300  0.0117  0.6701
  593MOL0     C78178  10.747   0.717   1.536 -0.6282  0.7131 -0.0235
  593MOL0     O78179  10.793   0.611   1.457 -0.2839 -0.2727  0.2553
  593MOL0     C78180  10.850   0.649   1.330 -0.0299  0.4792 -0.2959
  593MOL0     C78181  10.916   0.523   1.273  0.8435  0.0995 -0.1472
  593MOL0     C78182  11.032   0.457   1.354  0.2549  1.1382  0.1443
  593MOL0     C78183  11.082   0.340   1.265 -0.9996 -0.6285  0.8922
  593MOL0     C78184  11.178   0.243   1.329  0.6827 -0.2022  0.3317
  593MOL0     C78185  11.194   0.117   1.260  0.6390  0.0062  0.9577
  593MOL0     C78186  11.260   0.127   1.120  1.1450 -0.0229 -0.1327
  593MOL0     C78187  11.352   0.011   1.094 -1.3682 -0.1304 -0.3861
  593MOL0    Cl78188  11.267  -0.139   1.083 -0.0514  0.0360 -0.1116
  593MOL0     C78189  10.699   0.695   1.667 -0.2130  0.4238 -0.2534
  593MOL0     C78190  10.659   0.800   1.752 -0.4280 -0.6246 -0.1809
  593MOL0     O78191  10.823   1.067   1.858 -0.3163  0.2391  0.3584
  593MOL0     C78192  10.760   1.297   2.014 -0.0930 -0.0502  0.4702
  593MOL0     C78193  10.727   1.424   2.058  0.0493 -0.9955  0.2363
  593MOL0     N78194  10.525   2.196   2.148  0.1723  0.4896  0.2852
  593MOL0     N78195  10.524   2.310   2.088  0.3100 -0.0230  0.7983
  593MOL0     C78196  10.748   2.868   1.096 -0.7521 -0.6644 -0.7156
  593MOL0     C78197  10.871   2.905   1.043  0.2496  1.0158 -0.0502
  593MOL0     C78198  11.233   2.887   0.790  0.3641  0.9418 -0.5718
  593MOL0     C78199  11.230   2.974   0.679 -0.0529  0.3033  0.2780
  593MOL0     C78200  11.345   3.014   0.615  0.3948 -0.6402  0.3566
  593MOL0     C78201  11.472   2.972   0.654  0.4994 -0.0694  0.6389
  593MOL0     O78202  11.572   3.000   0.565  0.2040 -0.3327 -0.1209
  593MOL0     C78203  11.695   2.933   0.578  0.4075  0.0333  0.0606
  593MOL0     C78204  11.793   3.025   0.503 -0.4927 -0.8550  0.0156
  593MOL0     C78205  11.761   3.049   0.358 -0.8182 -0.7645  0.7148
  593MOL0     C78206  11.837   3.173   0.306 -0.3787  0.2036 -0.5554
  593MOL0     C78207  11.817   3.185   0.163  0.4160  0.1171 -0.1236
  593MOL0     C78208  11.803   3.200   0.041 -0.9868 -0.2143  0.2890
  593MOL0     C78209  11.473   2.892   0.771 -0.0070 -0.7979  0.4789
  593MOL0     C78210  11.357   2.847   0.831  0.8062  0.2645 -0.2225
  593MOL0     H78211  10.826   2.800   0.727  2.2912  2.3306  0.5216
  593MOL0     H78212  10.593   2.729   0.839 -1.3891  0.5671  2.8237
  593MOL0     H78213  10.550   2.848   1.295 -0.2185  0.3784  0.9473
  593MOL0     H78214  10.612   2.691   1.272  0.8579 -1.4168 -3.0045
  593MOL0     H78215  10.364   2.641   1.200 -0.1878  2.3418 -0.8092
  593MOL0     H78216  10.321   2.767   1.292 -0.9648 -0.7642 -0.7753
  593MOL0     H78217  10.437   2.673   1.502 -0.3334 -2.5469  1.2698
  593MOL0     H78218  10.501   2.533   1.406  1.4353  0.3091  0.9610
  593MOL0     H78219  10.202   2.568   1.445 -0.4057 -1.7513 -0.5608
  593MOL0     H78220  10.295   2.460   1.343  1.1213  2.1372 -2.6542
  593MOL0     H78221  10.413   2.375   1.520 -0.8392 -1.2172 -2.8212
  593MOL0     H78222  10.240   2.363   1.561  0.9146 -1.1682 -0.0468
  593MOL0     H78223  10.245   2.542   1.714 -0.3367  0.6234 -1.0417
  593MOL0     H78224  10.416   2.572   1.677 -1.1838  1.1756  0.6250
  593MOL0     H78225  10.322   2.293   1.768  0.0487  0.6373  2.4315
  593MOL0     H78226  10.487   2.344   1.739 -0.3218 -2.7792  0.8522
  593MOL0     H78227  10.292   2.465   1.937 -0.9350 -3.3373 -0.1872
  593MOL0     H78228  10.468   2.504   1.923 -0.0110  0.6392 -0.7408
  593MOL0     H78229  10.246   2.179   1.984  0.7065 -0.0527 -3.0122
  593MOL0     H78230  10.288   1.949   2.140  0.3696 -1.4271  1.6125
  593MOL0     H78231  10.381   2.012   2.285  0.9849  0.6334  0.0174
  593MOL0     H78232  10.593   1.945   2.145 -1.0290 -0.3444 -0.3103
  593MOL0     H78233  10.473   1.846   2.044 -1.5714 -0.4016  0.4894
  593MOL0     H78234  10.569   1.820   2.327 -1.3958 -0.3151  1.2670
  593MOL0     H78235  10.423   1.737   2.273 -1.1419 -0.3507 -3.1404
  593MOL0     H78236  10.588   1.580   2.275 -2.9035  2.3454  2.2990
  593MOL0     H78237  10.710   1.695   2.210  0.1522 -2.1873 -1.5886
  593MOL0     H78238  10.435   1.460   1.903 -0.4379 -1.9623 -0.3863
  593MOL0     H78239  10.481   1.237   1.830 -1.7719  0.2829  1.7626
  593MOL0     H78240  10.694   1.055   1.534 -3.0938  1.5659  4.1431
  593MOL0     H78241  10.763   0.894   1.391  0.6050  0.5899  1.1567
  593MOL0     H78242  10.940   0.710   1.326  1.3752 -1.5402 -0.7444
  593MOL0     H78243  10.760   0.683   1.276 -0.7717 -0.0762  0.5622
  593MOL0     H78244  10.950   0.539   1.170  1.0985 -1.8566 -0.4056
  593MOL0     H78245  10.830   0.455   1.269 -0.9380  2.0798  1.9014
  593MOL0     H78246  10.992   0.427   1.451 -0.5629  4.7724  1.0798
  593MOL0     H78247  11.119   0.518   1.377  1.4420 -0.5930  0.4389
  593MOL0     H78248  11.001   0.272   1.236  1.9547 -2.6720 -3.6470
  593MOL0     H78249  11.124   0.386   1.175  0.0483 -2.8600  0.1718
  593MOL0     H78250  11.159   0.224   1.435 -1.9287  4.2356  0.8765
  593MOL0     H78251  11.271   0.301   1.337  0.9506 -0.1557 -2.3390
  593MOL0     H78252  11.092   0.078   1.251  0.2213  0.6937  2.3695
  593MOL0     H78253  11.251   0.054   1.329 -2.1729 -1.1389  2.3875
  593MOL0     H78254  11.177   0.146   1.051  0.6774 -0.3512  0.3269
  593MOL0     H78255  11.318   0.219   1.128  1.1538 -0.1804  2.3684
  593MOL0     H78256  11.436   0.006   1.163  1.6070  3.5826 -3.3272
  593MOL0     H78257  11.407   0.026   1.000  2.9495  1.7827  2.1640
  593MOL0     H78258  10.705   0.591   1.698 -1.6373  0.3251 -0.2226
  593MOL0     H78259  10.628   0.776   1.853 -0.3831  0.0651 -0.0013
  593MOL0     H78260  10.850   1.246   2.047  0.3916  1.0740  0.9421
  593MOL0     H78261  10.794   1.474   2.128 -0.9918  0.0892  0.5002
  593MOL0     H78262  10.741   2.894   1.201  1.1736  1.2359 -1.0025
  593MOL0     H78263  10.935   2.971   1.100  0.6802  1.1062 -0.6321
  593MOL0     H78264  11.135   2.993   0.629  1.9175  2.1234 -3.1050
  593MOL0     H78265  11.322   3.061   0.520 -1.4900 -0.9490  0.6225
  593MOL0     H78266  11.681   2.831   0.541 -1.3074  0.2244  0.1113
  593MOL0     H78267  11.718   2.922   0.685  3.2283  1.3734 -0.3369
  593MOL0     H78268  11.807   3.124   0.549 -2.0321 -0.1899 -0.8795
  593MOL0     H78269  11.889   2.973   0.507 -2.3417 -4.4790  1.0559
  593MOL0     H78270  11.653   3.043   0.339 -0.9650 -1.8942  1.8263
  593MOL0     H78271  11.814   2.971   0.303 -2.1458 -3.3489  2.8958
  593MOL0     H78272  11.791   3.253   0.365 -0.0741  1.2637 -1.7165
  593MOL0     H78273  11.941   3.168   0.341 -0.9289 -1.0345  1.0431
  593MOL0     H78274  11.781   3.217  -0.063  0.2743  4.0335  0.5376
  593MOL0     H78275  11.569   2.873   0.819 -1.4046 -3.9685  2.3530
  593MOL0     H78276  11.364   2.788   0.922 -2.1284  0.3576  0.1408
  594MOL0     O78277   4.695   7.031   8.821 -0.1617 -0.2410 -0.1354
  594MOL0     C78278   4.762   7.020   8.926 -0.4634 -0.0550  0.6796
  594MOL0     O78279   4.710   7.003   9.054 -0.0852 -0.6514 -0.2744
  594MOL0     C78280   4.577   6.998   9.072 -0.9916  1.2002 -0.0429
  594MOL0     C78281   4.510   7.095   9.140 -0.3892 -0.0511 -0.6929
  594MOL0     C78282   4.369   7.092   9.156  0.2354  0.8122 -0.2255
  594MOL0     C78283   4.290   6.981   9.115  0.9175  0.3531  0.1897
  594MOL0     O78284   4.153   6.986   9.118  1.2314 -0.3926  0.3610
  594MOL0     C78285   4.073   6.882   9.056  0.0088 -0.2255 -0.0419
  594MOL0     C78286   3.926   6.917   9.079  0.5883 -1.1527 -0.1673
  594MOL0     C78287   3.845   6.852   8.968  0.6144  0.7841 -0.9616
  594MOL0     C78288   3.698   6.868   8.982  0.3771 -0.4909  0.0429
  594MOL0     C78289   3.622   6.755   8.929  0.3779  0.3854 -0.1065
  594MOL0     C78290   3.478   6.774   8.965  0.8788  0.3940 -0.2164
  594MOL0     C78291   3.413   6.637   8.933 -0.3125  0.3427 -0.8506
  594MOL0     C78292   3.463   6.509   9.013  0.4048  0.5243 -0.0386
  594MOL0     N78293   3.361   6.400   9.001 -1.0754  0.2225  0.1092
  594MOL0     C78294   3.242   6.392   9.065  0.5230 -0.9759 -0.6970
  594MOL0     C78295   3.176   6.275   9.036 -0.3321 -0.0028 -0.4893
  594MOL0     C78296   3.039   6.217   9.072 -0.1468 -0.1369  0.1851
  594MOL0     C78297   2.931   6.309   9.009  0.5117 -0.3486 -0.2168
  594MOL0     C78298   2.821   6.339   9.117 -0.3791 -0.5703 -0.1230
  594MOL0     C78299   2.770   6.209   9.183 -0.1865 -0.2361  0.6895
  594MOL0     O78300   2.719   6.121   9.087 -0.5610 -0.5408  0.3376
  594MOL0     C78301   2.594   6.140   9.042  0.2272  0.3183 -0.4567
  594MOL0     C78302   2.500   6.242   9.073 -0.3124 -0.9991  1.0256
  594MOL0     C78303   2.363   6.227   9.029  0.0758 -0.7126 -0.6082
  594MOL0     C78304   2.325   6.129   8.943  0.2753  0.4297  0.2409
  594MOL0     C78305   2.191   6.115   8.902 -0.8016  0.3077  0.2498
  594MOL0     O78306   2.108   6.198   8.964  0.5278 -0.4317  0.2206
  594MOL0     C78307   1.968   6.189   8.953 -0.0647  0.1490  0.9833
  594MOL0     C78308   1.897   6.081   8.912 -1.0597 -0.6442 -0.1056
  594MOL0     C78309   1.757   6.082   8.922 -0.3803 -0.2550 -0.0926
  594MOL0     C78310   1.687   6.189   8.968  0.2334 -1.0437  0.5885
  594MOL0     O78311   1.550   6.184   8.989  0.2662  0.4182 -0.2845
  594MOL0     C78312   1.476   6.083   8.923  0.7919  0.1025  0.5784
  594MOL0     C78313   1.324   6.102   8.951 -0.2541 -0.1160 -0.1740
  594MOL0     C78314   1.283   6.108   9.102 -0.5913 -0.3368  0.1207
  594MOL0     C78315   1.141   6.149   9.122  0.5336  0.1724 -0.7877
  594MOL0     C78316   1.079   6.119   9.269  0.3767 -0.0641 -0.0384
  594MOL0     C78317   0.939   6.179   9.280 -0.2235  0.4887  0.7263
  594MOL0     C78318   0.877   6.170   9.411 -0.2000 -0.8199  0.0983
  594MOL0     C78319   0.875   6.039   9.459  1.3147  0.0410 -0.0370
  594MOL0    Cl78320   0.762   5.941   9.344 -0.0751  0.1560  0.1138
  594MOL0     C78321   1.762   6.302   9.013 -0.6432  0.2403  0.0134
  594MOL0     C78322   1.902   6.301   9.003  0.3117 -0.2493  0.8085
  594MOL0     O78323   2.163   6.021   8.822  0.0617 -0.7308 -0.3559
  594MOL0     C78324   2.415   6.032   8.899 -0.4657 -0.6288 -0.8451
  594MOL0     C78325   2.543   6.039   8.956  0.7242 -0.6740 -0.0694
  594MOL0     N78326   3.259   6.207   8.955 -0.7343  0.1309  0.8008
  594MOL0     N78327   3.367   6.276   8.939  0.0666  0.0312 -0.9018
  594MOL0     C78328   4.362   6.877   9.051  0.9161  0.1256 -0.9195
  594MOL0     C78329   4.503   6.879   9.035  0.3619 -0.9980 -0.5019
  594MOL0     C78330   4.914   7.012   8.920  0.0598 -0.0507 -0.0431
  594MOL0     C78331   4.992   7.003   8.795 -0.4123  0.2107  0.3122
  594MOL0     C78332   5.135   6.980   8.796  0.4520  0.3479  0.1956
  594MOL0     C78333   5.201   6.992   8.921 -0.4472  0.4628  0.6373
  594MOL0     O78334   5.340   6.999   8.927 -0.0280 -0.0925 -0.0140
  594MOL0     C78335   5.397   7.106   8.855 -0.0242  0.4088 -0.7710
  594MOL0     C78336   5.483   7.043   8.749  0.0122 -0.3013 -0.1105
  594MOL0     C78337   5.559   7.153   8.676  0.4447 -0.7736  0.1713
  594MOL0     C78338   5.672   7.105   8.585 -0.4274  0.1183  0.2584
  594MOL0     C78339   5.752   7.206   8.511  0.3002 -0.1878 -0.5966
  594MOL0     C78340   5.791   7.294   8.449  0.4287  0.5035  1.5391
  594MOL0     C78341   5.126   6.999   9.040 -0.4705 -0.3709 -0.2907
  594MOL0     C78342   4.988   7.007   9.042 -0.2391  0.2751  0.8012
  594MOL0     H78343   4.556   7.186   9.177 -2.1050  0.0722  1.3607
  594MOL0     H78344   4.326   7.181   9.202 -2.8314  0.0043 -1.2994
  594MOL0     H78345   4.102   6.788   9.104 -2.5084 -0.7921  0.5073
  594MOL0     H78346   4.099   6.883   8.950  0.2289 -1.6930 -0.0244
  594MOL0     H78347   3.918   7.026   9.084 -0.7917 -1.2382  0.0946
  594MOL0     H78348   3.892   6.880   9.176  2.6386 -1.8704  0.3132
  594MOL0     H78349   3.866   6.745   8.971 -3.7705 -0.2670  1.6688
  594MOL0     H78350   3.874   6.898   8.873 -0.5052  1.9795 -0.7619
  594MOL0     H78351   3.675   6.884   9.088  1.8909  1.6067  0.1159
  594MOL0     H78352   3.678   6.960   8.926 -0.1725  1.2960  3.0011
  594MOL0     H78353   3.662   6.671   8.986  1.6895  0.2317 -1.2062
  594MOL0     H78354   3.623   6.739   8.821 -1.8992  0.5116 -0.2111
  594MOL0     H78355   3.428   6.858   8.915 -1.0519 -1.8776 -2.3689
  594MOL0     H78356   3.469   6.796   9.072 -1.1295  1.6783 -0.5801
  594MOL0     H78357   3.306   6.656   8.947 -0.6880 -1.2591 -1.4006
  594MOL0     H78358   3.428   6.612   8.827 -1.0994  2.1933 -1.4436
  594MOL0     H78359   3.474   6.532   9.119 -2.0401 -1.7788  0.8076
  594MOL0     H78360   3.563   6.478   8.980  2.4982  3.0058  3.2573
  594MOL0     H78361   3.205   6.467   9.134 -0.2083 -1.6945 -0.2843
  594MOL0     H78362   3.033   6.232   9.181  0.9130  1.3415  0.0678
  594MOL0     H78363   3.024   6.113   9.042 -1.0589  0.0570 -0.0689
  594MOL0     H78364   2.889   6.255   8.924 -0.8398 -2.9040  1.9311
  594MOL0     H78365   2.962   6.407   8.973 -2.1218  1.2126  1.5061
  594MOL0     H78366   2.859   6.394   9.203  1.5339 -1.4747 -0.3331
  594MOL0     H78367   2.738   6.391   9.068 -0.1428  0.6044  0.6995
  594MOL0     H78368   2.688   6.238   9.250 -0.9540  1.6109 -0.9359
  594MOL0     H78369   2.855   6.159   9.230  1.2628 -0.0703 -1.6229
  594MOL0     H78370   2.539   6.332   9.119  1.8605 -2.0058  1.2650
  594MOL0     H78371   2.290   6.305   9.049 -1.6829 -1.7742 -2.5744
  594MOL0     H78372   1.943   5.995   8.864  2.6188  1.7940 -1.3601
  594MOL0     H78373   1.706   5.990   8.897  0.0427 -0.2764 -0.8781
  594MOL0     H78374   1.516   5.988   8.958 -0.1375  0.1965  1.9872
  594MOL0     H78375   1.500   6.079   8.816 -0.3803 -1.0547  0.3339
  594MOL0     H78376   1.272   6.013   8.916  0.6165 -0.2252 -1.2639
  594MOL0     H78377   1.288   6.193   8.903 -0.6604 -1.4881 -2.6592
  594MOL0     H78378   1.339   6.191   9.147  0.0538 -0.7153  0.0277
  594MOL0     H78379   1.311   6.014   9.150 -0.1106 -0.7464 -0.9330
  594MOL0     H78380   1.129   6.255   9.098 -0.7158  0.2700  0.2196
  594MOL0     H78381   1.072   6.097   9.055 -1.8545  1.2521  0.7397
  594MOL0     H78382   1.142   6.172   9.341  0.2995 -0.8615  0.6193
  594MOL0     H78383   1.078   6.011   9.284  1.1471 -0.1087 -0.2519
  594MOL0     H78384   0.873   6.128   9.210 -0.9599 -0.4448  2.0489
  594MOL0     H78385   0.956   6.283   9.249 -1.6669  1.0276  1.6126
  594MOL0     H78386   0.933   6.232   9.482  0.2519 -0.2008 -0.7677
  594MOL0     H78387   0.773   6.202   9.409 -1.3348 -3.8360  3.0132
  594MOL0     H78388   0.845   6.044   9.563  2.4610 -0.7457  0.3562
  594MOL0     H78389   0.972   5.988   9.456  1.1222 -0.5952 -5.3952
  594MOL0     H78390   1.709   6.383   9.062  0.1856 -0.1617  1.6703
  594MOL0     H78391   1.966   6.377   9.045 -0.2368  0.8656 -0.3094
  594MOL0     H78392   2.401   5.946   8.834 -0.5478 -0.2728 -1.3041
  594MOL0     H78393   2.621   5.971   8.924  2.2625  0.2110  1.5930
  594MOL0     H78394   4.319   6.785   9.014 -0.1669  0.1359  0.2213
  594MOL0     H78395   4.541   6.794   8.981  0.7084 -0.3569 -1.2904
  594MOL0     H78396   4.940   6.995   8.700 -0.6584 -1.7815  0.5569
  594MOL0     H78397   5.191   6.954   8.706  3.7217 -0.1514  2.2347
  594MOL0     H78398   5.466   7.154   8.924  2.2685 -2.5847 -0.7745
  594MOL0     H78399   5.327   7.177   8.809 -0.2501  1.0684  0.5376
  594MOL0     H78400   5.562   6.983   8.796 -2.0952 -1.2762  2.4024
  594MOL0     H78401   5.422   6.989   8.677  0.3284 -2.3478  1.0719
  594MOL0     H78402   5.594   7.229   8.747 -0.6581 -0.5991  0.5506
  594MOL0     H78403   5.481   7.198   8.615  0.3630 -0.7567  0.2888
  594MOL0     H78404   5.741   7.041   8.639 -0.1075  0.5291  0.3439
  594MOL0     H78405   5.624   7.031   8.520 -0.7332  1.1997 -0.7844
  594MOL0     H78406   5.818   7.366   8.374 -3.1957 -0.0229 -0.4994
  594MOL0     H78407   5.179   7.013   9.133 -0.2544  0.7402 -0.5613
  594MOL0     H78408   4.944   7.013   9.141 -1.9413 -0.9747  0.1647
  595MOL0     O78409   9.426   5.748   2.181 -0.2210 -0.4238  0.1278
  595MOL0     C78410   9.364   5.834   2.118  0.9609  0.0271  0.1775
  595MOL0     O78411   9.226   5.827   2.082  0.1929 -0.3809  1.1067
  595MOL0     C78412   9.146   5.723   2.120 -0.5943  0.1201  0.2097
  595MOL0     C78413   9.145   5.652   2.238  0.2763  0.3369  0.6015
  595MOL0     C78414   9.029   5.568   2.273  0.4135 -0.0915 -0.5661
  595MOL0     C78415   8.924   5.552   2.190 -0.6083 -0.1358  0.9164
  595MOL0     O78416   8.816   5.473   2.193 -0.0898  0.0522  0.1316
  595MOL0     C78417   8.799   5.389   2.314  0.3354  0.2481 -0.4993
  595MOL0     C78418   8.671   5.304   2.294 -0.3041 -0.0227  0.3953
  595MOL0     C78419   8.693   5.178   2.204 -0.2130  0.3431 -0.0596
  595MOL0     C78420   8.560   5.117   2.169  0.1171  0.4810  0.5319
  595MOL0     C78421   8.558   4.964   2.182 -0.0323  0.1927  0.6000
  595MOL0     C78422   8.412   4.915   2.164 -0.1686 -1.1494  0.3246
  595MOL0     C78423   8.404   4.768   2.200  0.0493  0.1711  0.1019
  595MOL0     C78424   8.365   4.744   2.351 -1.1649 -0.4726  0.1372
  595MOL0     N78425   8.224   4.779   2.365  0.6684 -0.2444  0.3636
  595MOL0     C78426   8.163   4.809   2.480  0.8991  0.6693  0.2294
  595MOL0     C78427   8.033   4.834   2.457  0.2304  0.2518  0.1884
  595MOL0     C78428   7.914   4.871   2.550  0.5843  0.2865 -0.7227
  595MOL0     C78429   7.796   4.781   2.511  0.0708  0.0298 -0.5101
  595MOL0     C78430   7.676   4.793   2.617  0.3819 -0.2105 -0.4896
  595MOL0     C78431   7.594   4.917   2.622  0.6878 -0.0380 -0.2417
  595MOL0     O78432   7.492   4.912   2.728  0.9832  0.1258  0.5324
  595MOL0     C78433   7.364   4.866   2.699  0.3019 -0.4470 -0.5382
  595MOL0     C78434   7.259   4.928   2.767  0.7473  0.5297  1.0439
  595MOL0     C78435   7.123   4.892   2.757 -0.0150  0.8396 -0.3676
  595MOL0     C78436   7.090   4.775   2.689  0.0827 -0.4540 -0.9166
  595MOL0     C78437   6.948   4.733   2.672 -0.4882  0.1176  0.9213
  595MOL0     O78438   6.868   4.759   2.774  0.4280 -0.3478  0.0056
  595MOL0     C78439   6.732   4.720   2.775 -1.0321 -0.3428 -0.5824
  595MOL0     C78440   6.653   4.801   2.860 -0.9236 -0.5451  0.9638
  595MOL0     C78441   6.521   4.774   2.908 -0.5071  0.5965  0.0957
  595MOL0     C78442   6.455   4.662   2.850  0.1633 -0.4182  0.6230
  595MOL0     O78443   6.329   4.620   2.882  0.0308 -0.5640 -0.4294
  595MOL0     C78444   6.244   4.702   2.970 -1.4849 -0.2328  1.7958
  595MOL0     C78445   6.101   4.650   2.994 -0.1643 -1.6498  0.5936
  595MOL0     C78446   6.079   4.521   3.070 -0.8290 -0.1301 -0.7587
  595MOL0     C78447   5.935   4.497   3.109  0.1121 -0.6940  0.7530
  595MOL0     C78448   5.919   4.369   3.202 -0.2740 -0.4407 -0.3358
  595MOL0     C78449   5.802   4.381   3.296 -0.1175 -1.2219  0.7021
  595MOL0     C78450   5.672   4.401   3.223  0.3581 -0.0380  0.2419
  595MOL0     C78451   5.555   4.370   3.309  0.2203 -0.2572 -0.2922
  595MOL0    Cl78452   5.527   4.497   3.428 -0.3259  0.0680  0.2531
  595MOL0     C78453   6.527   4.588   2.745  0.5046  0.1526  0.3690
  595MOL0     C78454   6.661   4.620   2.715 -0.1761 -0.1245 -0.1130
  595MOL0     O78455   6.916   4.670   2.571  0.0601 -0.1249 -0.0902
  595MOL0     C78456   7.190   4.711   2.621  0.4572 -0.7503  0.2354
  595MOL0     C78457   7.329   4.750   2.628  0.1000  0.8290  0.6170
  595MOL0     N78458   8.013   4.815   2.330  0.5600  1.0384  1.0158
  595MOL0     N78459   8.124   4.778   2.270  0.0104  0.0412 -0.2266
  595MOL0     C78460   8.918   5.634   2.081  0.1912  0.4714  0.1548
  595MOL0     C78461   9.026   5.713   2.046  0.3824 -1.0220 -0.4480
  595MOL0     C78462   9.436   5.959   2.101 -0.8275 -0.7408  0.9848
  595MOL0     C78463   9.573   5.972   2.114  0.0256 -0.0493  0.7270
  595MOL0     C78464   9.640   6.092   2.092  0.2412 -0.1895  0.6233
  595MOL0     C78465   9.576   6.212   2.054 -0.2730  0.8453  0.0649
  595MOL0     O78466   9.657   6.316   2.027 -0.0224 -0.7091 -0.0841
  595MOL0     C78467   9.687   6.395   2.146 -0.0914 -0.3297  0.3364
  595MOL0     C78468   9.776   6.512   2.113  0.4320 -0.6910 -0.2618
  595MOL0     C78469   9.698   6.632   2.053 -0.5198  0.5116 -1.2206
  595MOL0     C78470   9.698   6.643   1.907  0.7966 -0.9162  0.2536
  595MOL0     C78471   9.829   6.679   1.852 -0.2917 -0.6898 -1.0484
  595MOL0     C78472   9.935   6.721   1.805 -1.0830 -0.3766 -0.0141
  595MOL0     C78473   9.434   6.202   2.043  0.4490 -0.9447 -0.8024
  595MOL0     C78474   9.365   6.083   2.064 -0.0013  0.9548 -0.4583
  595MOL0     H78475   9.223   5.671   2.311 -0.8849  1.3673  1.6314
  595MOL0     H78476   9.037   5.529   2.374 -1.6678  2.7475  0.8396
  595MOL0     H78477   8.802   5.454   2.402 -0.9443 -0.4972  0.1100
  595MOL0     H78478   8.877   5.313   2.320 -2.6799 -2.9388  1.6167
  595MOL0     H78479   8.588   5.366   2.258 -0.6974 -1.4119 -1.1969
  595MOL0     H78480   8.641   5.262   2.390 -0.5897 -3.5074 -1.0979
  595MOL0     H78481   8.741   5.117   2.281 -3.2860  1.3044  2.8770
  595MOL0     H78482   8.754   5.211   2.120  0.3821  2.0139  0.9738
  595MOL0     H78483   8.483   5.157   2.235  0.6681  0.2305  1.3393
  595MOL0     H78484   8.515   5.151   2.075  0.8742  0.9135  0.3199
  595MOL0     H78485   8.600   4.923   2.275 -2.3270 -1.3366  1.0676
  595MOL0     H78486   8.611   4.925   2.095 -2.7661 -0.6378 -0.8147
  595MOL0     H78487   8.408   4.930   2.056 -0.7290  1.0193  0.5848
  595MOL0     H78488   8.337   4.980   2.212  0.3055  2.1948 -2.9706
  595MOL0     H78489   8.333   4.726   2.128  0.9787  0.3203 -0.9357
  595MOL0     H78490   8.492   4.718   2.157 -2.5514 -1.5995 -3.7685
  595MOL0     H78491   8.411   4.823   2.412 -1.7619  2.7449 -3.2047
  595MOL0     H78492   8.386   4.640   2.377  2.0556 -0.2478 -1.1571
  595MOL0     H78493   8.209   4.811   2.578  0.4713  0.1612  0.4480
  595MOL0     H78494   7.883   4.975   2.549 -1.9510 -0.3995 -1.7969
  595MOL0     H78495   7.940   4.836   2.650 -1.6846  0.5586  0.0098
  595MOL0     H78496   7.831   4.677   2.517 -3.1402 -1.0805  1.7728
  595MOL0     H78497   7.764   4.793   2.407 -0.4372  1.7395 -0.1858
  595MOL0     H78498   7.622   4.701   2.593  0.1259  0.2539 -1.8359
  595MOL0     H78499   7.721   4.797   2.716 -0.6817  0.6463 -0.0239
  595MOL0     H78500   7.560   4.938   2.520 -0.0146 -0.2405 -0.0514
  595MOL0     H78501   7.652   5.007   2.647 -1.2643  1.3055 -0.3141
  595MOL0     H78502   7.285   5.018   2.821  3.5255  0.3067  0.2500
  595MOL0     H78503   7.062   4.954   2.821  3.0982  4.3334 -0.4229
  595MOL0     H78504   6.713   4.884   2.897  2.9001 -1.7605 -1.8303
  595MOL0     H78505   6.469   4.836   2.980  2.7547  1.7275  1.7076
  595MOL0     H78506   6.224   4.802   2.929 -1.2574 -0.3961  1.2788
  595MOL0     H78507   6.292   4.706   3.068  1.3336  1.1035  0.4850
  595MOL0     H78508   6.057   4.634   2.895  1.5405  0.7579 -0.6372
  595MOL0     H78509   6.061   4.735   3.050  2.5537 -0.0829  0.3219
  595MOL0     H78510   6.141   4.526   3.161 -1.7565  5.3760 -0.0928
  595MOL0     H78511   6.108   4.440   3.003 -4.2613 -0.2951 -2.2529
  595MOL0     H78512   5.905   4.580   3.173  0.6970  0.4671 -0.4436
  595MOL0     H78513   5.868   4.483   3.024 -1.5375 -2.0060  2.1743
  595MOL0     H78514   6.013   4.362   3.258  0.9740 -1.2737 -2.3861
  595MOL0     H78515   5.916   4.271   3.153  0.7657 -0.4463 -0.4243
  595MOL0     H78516   5.810   4.466   3.364  0.0486 -1.6555  1.2314
  595MOL0     H78517   5.794   4.294   3.361 -0.6719 -0.9522  1.0083
  595MOL0     H78518   5.663   4.497   3.170 -1.0472 -0.8155 -1.0189
  595MOL0     H78519   5.677   4.320   3.150 -1.0526 -0.9526  1.1188
  595MOL0     H78520   5.560   4.272   3.356  2.1149  0.9219  2.2062
  595MOL0     H78521   5.458   4.369   3.258 -0.0467 -2.4608  0.1814
  595MOL0     H78522   6.480   4.503   2.696  3.2452 -0.7460 -0.8512
  595MOL0     H78523   6.714   4.557   2.644  0.0458 -0.8935  0.7189
  595MOL0     H78524   7.169   4.631   2.551 -3.2869  0.9857 -0.9167
  595MOL0     H78525   7.415   4.707   2.578 -0.6052  2.2684 -2.0353
  595MOL0     H78526   8.845   5.635   2.000  2.0783  1.7593 -1.6449
  595MOL0     H78527   9.007   5.764   1.952  0.0109 -1.0973 -0.4152
  595MOL0     H78528   9.623   5.883   2.150 -1.6773 -0.1968  2.9102
  595MOL0     H78529   9.745   6.105   2.118  0.9778 -0.0181 -2.1053
  595MOL0     H78530   9.740   6.335   2.221  1.0441  0.8636  0.5169
  595MOL0     H78531   9.595   6.425   2.196  0.5624  0.7190  0.9510
  595MOL0     H78532   9.811   6.537   2.214  1.5845  0.2560 -0.8719
  595MOL0     H78533   9.859   6.491   2.046  1.3865  0.1490  0.6236
  595MOL0     H78534   9.739   6.722   2.101 -1.5929 -0.4782  1.8318
  595MOL0     H78535   9.594   6.625   2.087 -1.0055  0.1643 -2.7222
  595MOL0     H78536   9.656   6.551   1.866 -0.3179 -1.2013  1.9270
  595MOL0     H78537   9.634   6.731   1.893  4.4968  2.6134  3.2207
  595MOL0     H78538  10.037   6.750   1.789 -1.6950  1.3030 -1.1632
  595MOL0     H78539   9.375   6.293   2.046  4.1872  1.7163 -0.0638
  595MOL0     H78540   9.258   6.076   2.054 -0.4862  0.4887  3.4209
  596MOL0     O78541   0.927   8.806   4.768 -0.6919  0.4828  0.6310
  596MOL0     C78542   0.912   8.773   4.650 -0.1802 -0.3162  0.1522
  596MOL0     O78543   0.790   8.738   4.588  0.6415 -0.1261 -0.0337
  596MOL0     C78544   0.675   8.753   4.659 -1.3811  0.3465  0.3234
  596MOL0     C78545   0.598   8.637   4.698 -0.8266 -1.2254 -0.9631
  596MOL0     C78546   0.478   8.655   4.770 -0.6601  0.0026  0.2258
  596MOL0     C78547   0.440   8.783   4.819 -0.5660 -0.0896 -0.1252
  596MOL0     O78548   0.328   8.784   4.903  0.2982 -0.4082  0.2626
  596MOL0     C78549   0.217   8.871   4.876 -0.0710  0.6992  0.4828
  596MOL0     C78550   0.130   8.878   5.003  0.6098 -0.7073  0.4190
  596MOL0     C78551   0.020   8.979   4.981  0.2201 -0.0728  0.3095
  596MOL0     C78552  -0.081   8.983   5.098 -0.9649  0.5543  0.0203
  596MOL0     C78553  -0.209   9.060   5.062 -0.4673  0.2358 -0.0058
  596MOL0     C78554  -0.332   9.028   5.147 -0.1360 -0.1590 -0.4544
  596MOL0     C78555  -0.435   9.145   5.125 -0.5554  0.4478  0.0425
  596MOL0     C78556  -0.523   9.146   5.250 -0.1302 -0.4941  0.0398
  596MOL0     N78557  -0.590   9.279   5.268  0.5791 -0.0393  0.2234
  596MOL0     C78558  -0.707   9.310   5.209 -0.5374  0.5199  0.2851
  596MOL0     C78559  -0.724   9.441   5.230 -0.2482  0.0749  0.3855
  596MOL0     C78560  -0.838   9.525   5.174 -0.0261  0.4609 -0.2119
  596MOL0     C78561  -0.973   9.504   5.247  0.0518 -0.6778 -0.0978
  596MOL0     C78562  -1.066   9.609   5.198  0.1182  0.3131  0.1765
  596MOL0     C78563  -1.207   9.608   5.256 -0.6887  0.5312  0.8191
  596MOL0     O78564  -1.276   9.736   5.250  0.0160 -0.3570 -0.1259
  596MOL0     C78565  -1.408   9.742   5.282 -0.2787 -0.5955  0.2399
  596MOL0     C78566  -1.466   9.645   5.371 -0.4564 -1.2574  0.7946
  596MOL0     C78567  -1.592   9.658   5.420 -0.8863 -0.8103 -0.3610
  596MOL0     C78568  -1.670   9.777   5.386  0.2174 -0.1699  0.6444
  596MOL0     C78569  -1.810   9.788   5.422 -0.6090  0.7690  0.8613
  596MOL0     O78570  -1.897   9.853   5.353 -0.4758 -0.2344  0.3358
  596MOL0     C78571  -2.028   9.851   5.390 -0.2050 -0.3733 -1.9652
  596MOL0     C78572  -2.093   9.726   5.401 -0.4311  0.6126 -0.5739
  596MOL0     C78573  -2.224   9.713   5.417 -1.1262 -0.3577  0.6656
  596MOL0     C78574  -2.305   9.821   5.444 -0.4925 -0.1044  0.6625
  596MOL0     O78575  -2.437   9.822   5.479 -0.0692  0.2274  0.1686
  596MOL0     C78576  -2.491   9.704   5.529  0.5864  0.5394  1.3318
  596MOL0     C78577  -2.645   9.726   5.530  0.4194 -0.5378 -0.1199
  596MOL0     C78578  -2.681   9.827   5.639  0.1926  0.2337  0.2888
  596MOL0     C78579  -2.827   9.828   5.669  0.4059 -0.0532  0.2295
  596MOL0     C78580  -2.879   9.716   5.758 -0.0162  0.7490  0.7524
  596MOL0     C78581  -3.009   9.659   5.696  0.2651  0.1053  0.1931
  596MOL0     C78582  -3.024   9.520   5.764 -0.5568 -0.2561 -0.6524
  596MOL0     C78583  -3.161   9.456   5.737 -0.5876  0.1779 -0.0004
  596MOL0    Cl78584  -3.180   9.313   5.833 -0.0436  0.5523 -0.2783
  596MOL0     C78585  -2.240   9.950   5.437  0.1090 -0.3716 -0.0894
  596MOL0     C78586  -2.107   9.962   5.403  0.1855  0.5021  0.6430
  596MOL0     O78587  -1.837   9.715   5.513 -0.2558  0.1376 -0.0561
  596MOL0     C78588  -1.608   9.872   5.295  0.2045  0.7123 -0.4776
  596MOL0     C78589  -1.475   9.860   5.255 -0.8266  0.2910 -0.6722
  596MOL0     N78590  -0.623   9.492   5.314 -0.0934  0.1461  1.0735
  596MOL0     N78591  -0.545   9.389   5.337  0.0091  0.6741 -0.0681
  596MOL0     C78592   0.511   8.892   4.775  0.1898 -0.2993  0.0147
  596MOL0     C78593   0.622   8.878   4.699  0.3285 -0.5004 -0.7567
  596MOL0     C78594   1.037   8.753   4.573  0.4423 -0.7999  0.3898
  596MOL0     C78595   1.046   8.704   4.446  1.5704  0.7183  0.0783
  596MOL0     C78596   1.161   8.707   4.373 -0.5710  0.3004  0.2404
  596MOL0     C78597   1.274   8.774   4.424 -0.3494  0.1009 -0.1253
  596MOL0     O78598   1.392   8.798   4.353 -0.5994  0.4367  0.2959
  596MOL0     C78599   1.394   8.765   4.212 -1.1553  0.6850 -0.3924
  596MOL0     C78600   1.510   8.832   4.147  0.9526 -0.7541  0.0346
  596MOL0     C78601   1.540   8.778   4.004 -0.7302  0.5435  0.3613
  596MOL0     C78602   1.415   8.772   3.908  0.5659 -0.5774  0.2133
  596MOL0     C78603   1.369   8.912   3.876  1.3360 -0.3937 -0.3744
  596MOL0     C78604   1.331   9.027   3.866 -0.0274 -0.3497 -0.1643
  596MOL0     C78605   1.267   8.824   4.555 -0.6808 -0.0598 -0.0963
  596MOL0     C78606   1.152   8.806   4.628  0.3868 -0.5688  0.4601
  596MOL0     H78607   0.629   8.540   4.661  3.2382 -0.1092 -0.9679
  596MOL0     H78608   0.419   8.569   4.799  1.4765 -0.9779  1.9705
  596MOL0     H78609   0.161   8.818   4.798 -0.2985  2.0288 -0.2976
  596MOL0     H78610   0.255   8.968   4.842  1.3469  1.0331  2.7784
  596MOL0     H78611   0.191   8.913   5.086  1.8886  3.2699 -1.9275
  596MOL0     H78612   0.092   8.777   5.017 -0.4014 -0.9594 -3.0670
  596MOL0     H78613  -0.035   8.939   4.895  0.3766 -1.5201  0.8510
  596MOL0     H78614   0.050   9.082   4.960  0.7083  0.1303  1.9106
  596MOL0     H78615  -0.100   8.881   5.132  0.6567 -0.2204 -1.2654
  596MOL0     H78616  -0.038   9.027   5.188 -0.1827 -0.5576  0.2059
  596MOL0     H78617  -0.234   9.017   4.965  1.4591 -4.2946  1.2598
  596MOL0     H78618  -0.192   9.168   5.059  0.7614  0.0548  0.0830
  596MOL0     H78619  -0.295   9.025   5.250 -1.1360 -1.2577 -0.1053
  596MOL0     H78620  -0.374   8.930   5.124  0.4821 -0.1351 -1.7723
  596MOL0     H78621  -0.379   9.237   5.107  2.6184 -1.7998 -2.8234
  596MOL0     H78622  -0.492   9.132   5.033  2.3162 -3.9751 -1.4261
  596MOL0     H78623  -0.457   9.128   5.335 -0.1692  0.7361  0.3530
  596MOL0     H78624  -0.603   9.071   5.242  0.1578 -0.7830 -0.1457
  596MOL0     H78625  -0.763   9.249   5.139  0.3360 -1.4700  1.2531
  596MOL0     H78626  -0.840   9.493   5.069  5.7160 -0.3538 -0.4019
  596MOL0     H78627  -0.795   9.625   5.178  2.2360 -0.3633 -1.7545
  596MOL0     H78628  -0.967   9.512   5.356 -0.8104 -0.3475 -0.0713
  596MOL0     H78629  -1.007   9.402   5.229  1.1016 -0.9052 -0.8953
  596MOL0     H78630  -1.023   9.705   5.230 -2.1465  0.7953  2.0762
  596MOL0     H78631  -1.065   9.597   5.090 -0.3726 -1.1969  0.3253
  596MOL0     H78632  -1.194   9.582   5.361 -1.3606  0.5409  0.9087
  596MOL0     H78633  -1.262   9.522   5.218  0.7721 -1.1012  2.2414
  596MOL0     H78634  -1.409   9.556   5.396  1.7048 -0.2148 -0.1368
  596MOL0     H78635  -1.639   9.586   5.486 -0.1531  0.6397  1.8497
  596MOL0     H78636  -2.037   9.637   5.376 -1.2155 -0.3051  0.8533
  596MOL0     H78637  -2.264   9.612   5.417 -1.3486 -0.2686  0.3437
  596MOL0     H78638  -2.456   9.697   5.632  0.8221  2.4980  1.4142
  596MOL0     H78639  -2.465   9.616   5.469 -3.2765 -1.5296  2.3538
  596MOL0     H78640  -2.698   9.633   5.557  0.1851 -0.5007 -0.4466
  596MOL0     H78641  -2.687   9.747   5.431 -2.0466 -0.3354  0.8914
  596MOL0     H78642  -2.652   9.929   5.613 -0.6219  0.6121  0.8059
  596MOL0     H78643  -2.630   9.797   5.732 -0.7460 -0.8454  0.4849
  596MOL0     H78644  -2.836   9.916   5.733  4.8010  0.8786 -0.1008
  596MOL0     H78645  -2.881   9.842   5.575  2.2190  1.4827 -0.6356
  596MOL0     H78646  -2.879   9.748   5.863  0.6284  0.7848  0.7483
  596MOL0     H78647  -2.814   9.629   5.746 -1.6872 -0.1710 -2.7595
  596MOL0     H78648  -2.983   9.663   5.590 -1.5845 -0.1745 -0.2995
  596MOL0     H78649  -3.098   9.717   5.719 -1.2023 -0.3426 -3.6589
  596MOL0     H78650  -2.945   9.466   5.709  2.2994  2.9415 -0.0110
  596MOL0     H78651  -3.003   9.530   5.871 -0.6027  2.2050 -0.8266
  596MOL0     H78652  -3.162   9.435   5.629  1.0904 -1.6745  0.2851
  596MOL0     H78653  -3.239   9.531   5.753  1.3747  2.4627 -0.5688
  596MOL0     H78654  -2.289  10.044   5.459  0.1902 -0.7505  2.0097
  596MOL0     H78655  -2.058  10.059   5.392  4.1528 -1.4980 -1.6501
  596MOL0     H78656  -1.653   9.968   5.275  1.4288  1.3659 -0.2083
  596MOL0     H78657  -1.439   9.937   5.188  3.5018  0.1486  1.1682
  596MOL0     H78658   0.475   8.990   4.804  2.8318  0.5997  0.4568
  596MOL0     H78659   0.672   8.970   4.672  0.2662  0.6527  2.6748
  596MOL0     H78660   0.957   8.649   4.416  1.9323  0.1679  0.0042
  596MOL0     H78661   1.172   8.647   4.283  0.6251 -0.8621  1.1425
  596MOL0     H78662   1.306   8.806   4.163 -1.1487 -1.4989 -2.3700
  596MOL0     H78663   1.393   8.656   4.197 -2.0247  0.3008  1.9623
  596MOL0     H78664   1.480   8.937   4.143  1.9910 -0.4144  0.6633
  596MOL0     H78665   1.597   8.824   4.213  0.2592  0.1955  1.1090
  596MOL0     H78666   1.581   8.677   4.018 -2.7140 -0.2025  1.3533
  596MOL0     H78667   1.617   8.843   3.962  0.0605 -2.5792 -3.5881
  596MOL0     H78668   1.443   8.729   3.811 -3.6684  0.1041 -1.5381
  596MOL0     H78669   1.339   8.713   3.962 -1.4978  1.9927  0.3357
  596MOL0     H78670   1.302   9.129   3.853 -2.4240 -1.1445 -1.8009
  596MOL0     H78671   1.346   8.894   4.580 -1.6331  0.9306  0.2675
  596MOL0     H78672   1.159   8.851   4.726  1.9788  0.0218  0.1106
  597MOL0     O78673  10.803   4.439   9.851  0.0085 -0.1776 -0.1706
  597MOL0     C78674  10.822   4.555   9.899 -0.2945  0.5011  0.4739
  597MOL0     O78675  10.732   4.663   9.908  0.4781 -0.4890  0.0549
  597MOL0     C78676  10.607   4.652   9.849  0.9294 -0.6544 -0.5477
  597MOL0     C78677  10.519   4.545   9.881  0.0403  0.0646 -0.0345
  597MOL0     C78678  10.392   4.541   9.815  0.3845 -0.3705  0.4254
  597MOL0     C78679  10.354   4.650   9.731  0.5884  0.1621  0.3483
  597MOL0     O78680  10.224   4.667   9.672 -0.3238  0.1056 -0.0614
  597MOL0     C78681  10.116   4.593   9.727  0.0729 -0.0126 -0.3256
  597MOL0     C78682   9.977   4.627   9.668 -1.2145 -0.3307 -0.9304
  597MOL0     C78683   9.899   4.502   9.646  0.2389 -0.8812 -0.1915
  597MOL0     C78684   9.756   4.540   9.605 -0.3014 -0.4823 -0.3157
  597MOL0     C78685   9.737   4.622   9.484  0.5098 -1.1162 -0.6024
  597MOL0     C78686   9.588   4.627   9.446 -1.0543 -0.9310  0.5077
  597MOL0     C78687   9.540   4.747   9.359  0.7733  0.1037 -0.0410
  597MOL0     C78688   9.404   4.712   9.296  1.0732 -0.3288  0.5392
  597MOL0     N78689   9.287   4.707   9.388 -0.2731 -0.6988 -0.9666
  597MOL0     C78690   9.223   4.596   9.441  0.6032 -0.4538 -0.4266
  597MOL0     C78691   9.120   4.649   9.513  0.6447  1.0770  0.0546
  597MOL0     C78692   9.017   4.562   9.594  0.0049  0.1727  0.7887
  597MOL0     C78693   9.037   4.570   9.743 -0.4614  0.4646 -0.5862
  597MOL0     C78694   8.944   4.466   9.816  0.3875 -1.5262 -0.0469
  597MOL0     C78695   8.787   4.462   9.772 -0.9043 -0.3838  0.0063
  597MOL0     O78696   8.724   4.350   9.838 -0.4137  0.1356  0.4244
  597MOL0     C78697   8.615   4.356   9.921  0.0777 -0.3727 -0.5044
  597MOL0     C78698   8.544   4.476   9.951  0.0072 -0.3411 -0.0212
  597MOL0     C78699   8.439   4.470  10.036  0.1375 -0.0399  0.0488
  597MOL0     C78700   8.386   4.347  10.087 -0.8008 -0.2857  0.2376
  597MOL0     C78701   8.271   4.342  10.186  0.0404 -0.8185 -0.0453
  597MOL0     O78702   8.222   4.457  10.246  0.6524 -0.2724  0.0266
  597MOL0     C78703   8.096   4.467  10.297 -0.9532 -0.5554  0.2062
  597MOL0     C78704   7.980   4.387  10.263 -0.3983  0.2316  0.3141
  597MOL0     C78705   7.855   4.421  10.319  0.5881  0.2177 -0.5815
  597MOL0     C78706   7.841   4.532  10.401 -0.3484 -0.0545  0.9971
  597MOL0     O78707   7.711   4.550  10.441 -0.1392  0.9242 -0.0090
  597MOL0     C78708   7.680   4.627  10.559 -0.1786  0.5467  0.1898
  597MOL0     C78709   7.536   4.592  10.601 -0.0702  0.4748 -0.2421
  597MOL0     C78710   7.423   4.636  10.499 -0.0134  0.7789  0.1425
  597MOL0     C78711   7.282   4.620  10.558 -0.3684 -0.3082 -0.4375
  597MOL0     C78712   7.179   4.606  10.442 -0.3232 -0.3822 -1.0339
  597MOL0     C78713   7.166   4.737  10.358  0.1946 -0.3034  0.1944
  597MOL0     C78714   7.056   4.715  10.253 -0.5083 -0.6192 -0.8682
  597MOL0     C78715   7.007   4.847  10.196  0.0025 -0.3015  0.4042
  597MOL0    Cl78716   6.883   4.923  10.306  0.0898 -0.0175 -0.2655
  597MOL0     C78717   7.954   4.607  10.434  0.1256  1.1748  0.3160
  597MOL0     C78718   8.077   4.566  10.388 -0.5192  0.4934  0.3611
  597MOL0     O78719   8.229   4.234  10.217 -0.4434 -0.0186 -0.2236
  597MOL0     C78720   8.463   4.239  10.072  0.2005  0.2404  0.0375
  597MOL0     C78721   8.569   4.241   9.982  1.0309 -0.0102  0.8583
  597MOL0     N78722   9.139   4.785   9.526 -0.0450 -0.1155 -0.1178
  597MOL0     N78723   9.236   4.820   9.450 -0.1265  0.6606 -0.1793
  597MOL0     C78724  10.439   4.751   9.702  0.5589  0.6269  1.0759
  597MOL0     C78725  10.564   4.749   9.758  0.8357  0.1884  0.1905
  597MOL0     C78726  10.963   4.582   9.935  0.3994  0.9017  0.3309
  597MOL0     C78727  11.000   4.709   9.975  0.6992  1.2945 -0.5387
  597MOL0     C78728  11.131   4.740   9.994  0.4453  0.7306  0.5922
  597MOL0     C78729  11.233   4.636   9.971  0.2101 -0.2943  0.5988
  597MOL0     O78730  11.361   4.675   9.989 -0.6198 -0.2459 -0.1991
  597MOL0     C78731  11.470   4.574   9.987  0.1415  0.0311 -0.0333
  597MOL0     C78732  11.586   4.622  10.073  0.1077  0.1158  0.2564
  597MOL0     C78733  11.699   4.515  10.093 -0.0357 -0.5101  0.4544
  597MOL0     C78734  11.803   4.543  10.205  0.0220  0.0354 -0.3921
  597MOL0     C78735  11.876   4.667  10.182  0.1273 -0.7279 -0.9306
  597MOL0     C78736  11.937   4.766  10.176 -0.0865 -0.7225  0.1043
  597MOL0     C78737  11.191   4.512   9.933 -0.7205 -0.1346 -0.7607
  597MOL0     C78738  11.061   4.483   9.914 -0.5200 -0.2180  1.1368
  597MOL0     H78739  10.560   4.484   9.961  2.3360  1.6105  0.0602
  597MOL0     H78740  10.322   4.459   9.828  1.8820 -2.3255 -2.7041
  597MOL0     H78741  10.123   4.619   9.833 -0.1220  3.2014 -0.9789
  597MOL0     H78742  10.144   4.488   9.716 -2.2636 -0.9506  1.7704
  597MOL0     H78743   9.984   4.683   9.574 -3.0610 -0.9757 -1.4855
  597MOL0     H78744   9.922   4.691   9.737 -0.2290  0.1129 -0.5285
  597MOL0     H78745   9.896   4.435   9.733 -0.3089  0.1760  0.6316
  597MOL0     H78746   9.947   4.435   9.575  2.9192 -0.9145  1.5027
  597MOL0     H78747   9.700   4.448   9.583  3.2223 -2.2535 -2.9060
  597MOL0     H78748   9.711   4.585   9.694  1.0260 -0.8659  0.5637
  597MOL0     H78749   9.785   4.566   9.402 -0.6541  1.2838 -3.0741
  597MOL0     H78750   9.784   4.721   9.485 -0.9018 -0.3189 -3.3593
  597MOL0     H78751   9.544   4.642   9.545 -0.0005 -3.5828  1.4775
  597MOL0     H78752   9.560   4.529   9.407 -1.1683 -0.9781  0.7098
  597MOL0     H78753   9.534   4.833   9.426 -0.6624 -0.1466  0.2026
  597MOL0     H78754   9.612   4.767   9.280  0.7732 -2.3534 -0.7479
  597MOL0     H78755   9.410   4.618   9.240 -0.4369 -0.5045  0.6404
  597MOL0     H78756   9.380   4.787   9.221 -0.4526  1.0728  2.3258
  597MOL0     H78757   9.252   4.494   9.420  4.2448  0.8813 -2.8526
  597MOL0     H78758   9.029   4.462   9.552 -1.1362  0.9046 -1.4827
  597MOL0     H78759   8.916   4.597   9.572  0.6156  0.6887 -1.5152
  597MOL0     H78760   9.003   4.666   9.783  1.3004  0.4418  1.1469
  597MOL0     H78761   9.141   4.561   9.775 -0.5489  1.6810  0.1168
  597MOL0     H78762   8.985   4.364   9.814 -0.5482 -1.9657  1.5790
  597MOL0     H78763   8.933   4.498   9.919 -3.8845  0.0915 -0.8054
  597MOL0     H78764   8.781   4.463   9.663 -2.3398  2.7589  0.0160
  597MOL0     H78765   8.748   4.558   9.807 -0.5354 -1.3930  3.5597
  597MOL0     H78766   8.581   4.575   9.924 -0.4202 -0.6477 -1.8699
  597MOL0     H78767   8.396   4.569  10.050 -3.7309 -1.5108 -0.2926
  597MOL0     H78768   7.998   4.306  10.192  0.0284 -1.2630  2.0447
  597MOL0     H78769   7.765   4.363  10.302 -1.1695  0.6427  5.1698
  597MOL0     H78770   7.684   4.733  10.533  1.2310  0.7247  1.0216
  597MOL0     H78771   7.753   4.607  10.638 -0.0760 -1.8564 -0.4573
  597MOL0     H78772   7.526   4.633  10.702  0.1782 -1.2330  0.5156
  597MOL0     H78773   7.532   4.483  10.604  2.7230  0.2861 -0.6796
  597MOL0     H78774   7.425   4.572  10.411 -2.6370 -0.0898  0.6415
  597MOL0     H78775   7.433   4.741  10.469 -2.4484  1.2937  0.9180
  597MOL0     H78776   7.279   4.535  10.627  0.5834  0.2628  0.3441
  597MOL0     H78777   7.273   4.712  10.617  2.7877 -0.8987  1.2093
  597MOL0     H78778   7.084   4.578  10.489  0.2296 -1.5851 -0.5850
  597MOL0     H78779   7.210   4.522  10.379  1.2727 -0.8001  0.2408
  597MOL0     H78780   7.258   4.766  10.306 -1.1500  0.9339 -1.6362
  597MOL0     H78781   7.136   4.818  10.424 -2.6741 -2.6284  1.9993
  597MOL0     H78782   7.098   4.657  10.170  2.5563  0.1589  0.0246
  597MOL0     H78783   6.964   4.667  10.286  0.3754 -3.7875 -2.5274
  597MOL0     H78784   6.946   4.827  10.106 -0.4415  0.3816  0.5452
  597MOL0     H78785   7.088   4.917  10.175  2.8065 -2.7370  2.3630
  597MOL0     H78786   7.959   4.694  10.498 -1.3387  0.8945  0.8523
  597MOL0     H78787   8.164   4.624  10.417 -0.2559 -0.3171  1.2667
  597MOL0     H78788   8.422   4.144  10.107 -3.6293  1.9859  0.8472
  597MOL0     H78789   8.636   4.159   9.961  0.4726 -0.0678 -0.8289
  597MOL0     H78790  10.400   4.840   9.653 -0.0225  0.3879  1.0994
  597MOL0     H78791  10.636   4.828   9.740 -2.8302  3.8317  0.1972
  597MOL0     H78792  10.916   4.778   9.978 -0.5847 -0.0865 -2.4256
  597MOL0     H78793  11.172   4.840  10.005  0.4282  0.6367  1.5871
  597MOL0     H78794  11.507   4.563   9.884  0.4126 -0.5538  0.1238
  597MOL0     H78795  11.435   4.480  10.028 -2.7579  1.4991  1.1329
  597MOL0     H78796  11.626   4.711  10.024 -0.7185  0.2371 -0.2287
  597MOL0     H78797  11.542   4.653  10.168 -0.0891 -0.1799  0.2616
  597MOL0     H78798  11.746   4.514   9.994 -0.8633 -1.9286  0.0397
  597MOL0     H78799  11.667   4.411  10.105 -1.6567 -0.1043 -0.0795
  597MOL0     H78800  11.762   4.536  10.306 -3.6824 -0.9122 -1.7652
  597MOL0     H78801  11.875   4.461  10.209  0.5245  0.5212  2.2795
  597MOL0     H78802  11.990   4.859  10.184 -0.8599 -0.3436  0.9017
  597MOL0     H78803  11.269   4.437   9.926 -0.3895 -0.0113  1.0213
  597MOL0     H78804  11.047   4.380   9.882 -1.6624  0.7152 -1.6655
  598MOL0     O78805   5.001   6.975   9.418  0.6779 -0.2346 -0.2699
  598MOL0     C78806   4.918   7.057   9.440  0.2894  0.4120  0.1723
  598MOL0     O78807   4.934   7.193   9.434  0.0368 -0.2594 -0.4662
  598MOL0     C78808   5.060   7.227   9.391  0.3745  0.3548  1.6036
  598MOL0     C78809   5.076   7.269   9.253 -0.5650 -0.4115  0.0375
  598MOL0     C78810   5.206   7.309   9.215 -0.4267 -0.3829 -0.1730
  598MOL0     C78811   5.312   7.301   9.309  0.0989 -0.2771 -0.3231
  598MOL0     O78812   5.449   7.333   9.275  0.0715 -1.2596 -0.2287
  598MOL0     C78813   5.467   7.425   9.171  0.5024 -0.2202  0.0306
  598MOL0     C78814   5.615   7.470   9.159 -0.3582  0.0015 -0.3592
  598MOL0     C78815   5.731   7.371   9.166 -0.2124  0.0972 -0.2304
  598MOL0     C78816   5.731   7.264   9.057 -0.4502  0.2021 -0.5278
  598MOL0     C78817   5.846   7.160   9.039 -0.5949 -0.1995 -0.2128
  598MOL0     C78818   5.898   7.100   9.176  0.5212 -1.2646 -0.3996
  598MOL0     C78819   5.784   7.036   9.264 -0.1697  0.6425  0.0379
  598MOL0     C78820   5.722   6.921   9.190  0.7991 -1.2724  0.2904
  598MOL0     N78821   5.625   6.870   9.287  0.2540 -0.4639  0.4040
  598MOL0     C78822   5.499   6.914   9.306 -0.9563 -1.0310 -0.8349
  598MOL0     C78823   5.437   6.822   9.386  0.5630 -0.6913 -0.9913
  598MOL0     C78824   5.301   6.845   9.454 -0.6689 -1.0095 -0.2769
  598MOL0     C78825   5.321   6.838   9.611 -0.2055  0.0552 -0.5974
  598MOL0     C78826   5.185   6.883   9.676  0.2315  0.7965 -0.4152
  598MOL0     C78827   5.082   6.775   9.689  0.0851  0.4480  0.1836
  598MOL0     O78828   4.966   6.829   9.769 -0.5190 -0.2678  0.4198
  598MOL0     C78829   4.852   6.759   9.794 -0.0125  0.7610  0.2297
  598MOL0     C78830   4.832   6.619   9.777  0.3805 -0.4630  0.0815
  598MOL0     C78831   4.710   6.554   9.800  0.9038 -0.5151  0.2858
  598MOL0     C78832   4.594   6.634   9.837  0.1433 -0.5290 -0.6362
  598MOL0     C78833   4.450   6.579   9.862  0.8522  0.6922  0.1127
  598MOL0     O78834   4.369   6.664   9.930 -0.1295  0.5311  0.2411
  598MOL0     C78835   4.242   6.622   9.954 -0.5225 -1.5535  0.8532
  598MOL0     C78836   4.189   6.640  10.076  0.1647  0.3301 -0.5178
  598MOL0     C78837   4.054   6.597  10.098  0.6231  0.0987  0.1433
  598MOL0     C78838   3.981   6.549   9.991 -0.8608 -0.4343  0.5785
  598MOL0     O78839   3.863   6.496  10.022  0.1389 -0.2103 -0.3454
  598MOL0     C78840   3.764   6.500   9.918  0.4594 -0.0060 -0.6365
  598MOL0     C78841   3.641   6.419   9.952 -0.8252 -0.0163 -0.1177
  598MOL0     C78842   3.548   6.514  10.026 -0.0322  0.3757  0.5350
  598MOL0     C78843   3.424   6.436  10.068  0.8382  1.1652 -0.1285
  598MOL0     C78844   3.319   6.521  10.140 -0.0587 -0.2648 -0.4771
  598MOL0     C78845   3.204   6.425  10.175  0.0737 -0.7395  0.5259
  598MOL0     C78846   3.092   6.488  10.256 -0.3378 -0.0331 -0.0152
  598MOL0     C78847   2.990   6.376  10.296 -0.7440 -0.5725 -0.6851
  598MOL0    Cl78848   2.845   6.442  10.368  0.2569 -0.5870 -0.3125
  598MOL0     C78849   4.040   6.540   9.862 -0.2200  0.4707 -0.0041
  598MOL0     C78850   4.170   6.573   9.841 -0.1186 -0.0306  0.3125
  598MOL0     O78851   4.423   6.461   9.825 -1.2029 -0.2809  0.0445
  598MOL0     C78852   4.614   6.777   9.834 -0.1780  0.0782 -1.2042
  598MOL0     C78853   4.740   6.830   9.817  1.3013 -0.2945 -0.2272
  598MOL0     N78854   5.527   6.716   9.409 -0.0516  0.2272 -0.5503
  598MOL0     N78855   5.636   6.743   9.341 -0.3691 -0.3483  0.0058
  598MOL0     C78856   5.293   7.255   9.438  0.0696 -0.5446 -0.3924
  598MOL0     C78857   5.169   7.217   9.482  0.3279 -0.1911  0.2860
  598MOL0     C78858   4.772   7.010   9.448  0.6932 -0.2830 -0.1660
  598MOL0     C78859   4.660   7.093   9.428 -1.1893  0.4210 -0.4213
  598MOL0     C78860   4.529   7.051   9.456 -0.6267 -0.0548  0.0358
  598MOL0     C78861   4.507   6.916   9.476  0.7908  0.0919  0.5597
  598MOL0     O78862   4.382   6.851   9.496 -0.1330 -0.4686 -0.3884
  598MOL0     C78863   4.265   6.925   9.506 -0.5234 -1.1953  0.3393
  598MOL0     C78864   4.146   6.832   9.525  0.2811 -0.4672  0.6141
  598MOL0     C78865   4.135   6.746   9.392  0.7768  0.5739  0.4096
  598MOL0     C78866   4.055   6.619   9.412  0.0934  1.4823  0.5667
  598MOL0     C78867   3.991   6.558   9.287 -1.0517  0.0410  0.0168
  598MOL0     C78868   3.924   6.524   9.196  0.0602  0.2524  0.4086
  598MOL0     C78869   4.612   6.827   9.501  0.0134 -0.2595  0.3567
  598MOL0     C78870   4.743   6.877   9.487  0.4254 -0.1628  0.2873
  598MOL0     H78871   4.987   7.277   9.191 -0.1676  1.4049 -0.3523
  598MOL0     H78872   5.216   7.346   9.113  0.6348 -0.3020 -0.0517
  598MOL0     H78873   5.400   7.511   9.177  0.8690  0.1002 -0.4435
  598MOL0     H78874   5.441   7.375   9.077  3.7842  0.4974 -1.3897
  598MOL0     H78875   5.632   7.535   9.245 -2.3753  1.4484 -0.9676
  598MOL0     H78876   5.624   7.538   9.074 -2.5246 -0.1326 -0.7508
  598MOL0     H78877   5.723   7.324   9.264 -0.8763  0.0240 -0.3142
  598MOL0     H78878   5.825   7.426   9.167 -0.3250  0.3037 -0.5989
  598MOL0     H78879   5.635   7.212   9.065 -0.9574  1.3236  1.1930
  598MOL0     H78880   5.732   7.321   8.963 -1.4274  0.2814 -0.4947
  598MOL0     H78881   5.931   7.198   8.981 -0.5743 -2.0603 -1.5012
  598MOL0     H78882   5.806   7.089   8.966 -2.9116  1.0538 -0.2290
  598MOL0     H78883   5.943   7.180   9.234  1.4222 -0.7890 -1.7181
  598MOL0     H78884   5.976   7.024   9.162  1.5534 -0.9316  2.8153
  598MOL0     H78885   5.829   6.976   9.345  2.7039 -1.2050 -2.6924
  598MOL0     H78886   5.706   7.099   9.307  1.4191  0.7902  2.9919
  598MOL0     H78887   5.793   6.841   9.169  2.7404  0.5815 -0.5850
  598MOL0     H78888   5.663   6.963   9.108 -0.1271 -3.5165 -0.2747
  598MOL0     H78889   5.462   7.009   9.267 -1.7267  0.1583  2.4102
  598MOL0     H78890   5.229   6.767   9.427 -0.2703 -1.2787 -0.5671
  598MOL0     H78891   5.260   6.943   9.427  1.1305  0.3309  1.5670
  598MOL0     H78892   5.404   6.900   9.646  0.1134  0.0003 -1.2369
  598MOL0     H78893   5.352   6.740   9.649  0.3940  0.6914  0.6146
  598MOL0     H78894   5.191   6.924   9.777 -3.3227 -2.9616  1.5994
  598MOL0     H78895   5.142   6.971   9.626  1.4649  1.7391  0.1096
  598MOL0     H78896   5.109   6.677   9.730 -1.3893 -1.1640 -2.3799
  598MOL0     H78897   5.047   6.749   9.589 -0.4196 -2.2509  0.9790
  598MOL0     H78898   4.924   6.563   9.763  1.5154  0.2904  3.4513
  598MOL0     H78899   4.689   6.448   9.789 -3.7725 -0.0118  2.1528
  598MOL0     H78900   4.243   6.689  10.156 -4.1014  2.1108  1.5936
  598MOL0     H78901   4.010   6.625  10.193 -0.6592  0.8259 -0.6428
  598MOL0     H78902   3.809   6.455   9.830 -1.2006 -0.9655 -1.0497
  598MOL0     H78903   3.727   6.598   9.889 -1.1619 -0.7511 -1.2340
  598MOL0     H78904   3.667   6.330  10.011  0.7756  0.9691  0.7442
  598MOL0     H78905   3.599   6.394   9.855  2.8993  1.9079 -2.4658
  598MOL0     H78906   3.514   6.586   9.951  1.2991 -1.0258 -1.5252
  598MOL0     H78907   3.588   6.565  10.114 -0.3039  3.0959 -0.8174
  598MOL0     H78908   3.382   6.384   9.982 -1.5715  1.7352  0.6401
  598MOL0     H78909   3.453   6.361  10.143  0.9846  0.3472 -0.9824
  598MOL0     H78910   3.302   6.608  10.076  1.8832  1.5672  1.3507
  598MOL0     H78911   3.343   6.569  10.235 -2.9580  2.5534 -1.0062
  598MOL0     H78912   3.246   6.345  10.236  2.8061  0.2675  0.1262
  598MOL0     H78913   3.160   6.384  10.084  0.3110  1.5247 -0.6887
  598MOL0     H78914   3.132   6.526  10.350  0.4022  1.5113 -0.9140
  598MOL0     H78915   3.042   6.563  10.194 -0.0406 -0.5874 -0.9455
  598MOL0     H78916   3.035   6.303  10.365  1.4896 -0.7405 -2.2012
  598MOL0     H78917   2.964   6.325  10.203  1.6110  0.1255 -1.8173
  598MOL0     H78918   3.987   6.498   9.777 -0.2828  0.2125  0.1615
  598MOL0     H78919   4.213   6.580   9.742  0.6382  0.9982  0.7034
  598MOL0     H78920   4.532   6.844   9.857 -0.7551 -0.4017 -1.8122
  598MOL0     H78921   4.756   6.937   9.815 -1.1410  0.1099 -1.7190
  598MOL0     H78922   5.378   7.250   9.505  0.6596  0.2407 -1.0562
  598MOL0     H78923   5.167   7.182   9.585  3.9583  0.3702  0.6589
  598MOL0     H78924   4.678   7.197   9.402  2.6390  0.5501  2.0408
  598MOL0     H78925   4.441   7.114   9.451  0.8660  2.0773 -0.9793
  598MOL0     H78926   4.256   6.970   9.407  2.1710  0.7537  0.8732
  598MOL0     H78927   4.273   7.001   9.584  1.0238 -1.4695  0.4700
  598MOL0     H78928   4.162   6.775   9.617  0.3673  1.6245  1.9576
  598MOL0     H78929   4.067   6.905   9.540  1.9184  1.3842  0.5618
  598MOL0     H78930   4.232   6.721   9.348  0.2197  1.8126 -1.6773
  598MOL0     H78931   4.081   6.809   9.320 -3.9119 -1.1492  2.0260
  598MOL0     H78932   4.118   6.541   9.458 -0.4343  0.6890 -0.0340
  598MOL0     H78933   3.980   6.641   9.489  0.9972  1.7156  1.4128
  598MOL0     H78934   3.866   6.483   9.115  0.4889  3.4915 -1.7403
  598MOL0     H78935   4.586   6.725   9.529 -1.2407  0.9178  4.0677
  598MOL0     H78936   4.821   6.811   9.523 -1.4547 -1.2003  2.7237
  599MOL0     O78937   5.181   8.581   4.190 -0.5162  0.4420 -0.1380
  599MOL0     C78938   5.205   8.698   4.160  1.0134  0.6173 -0.1605
  599MOL0     O78939   5.111   8.791   4.141 -0.7305 -0.7052  0.6680
  599MOL0     C78940   4.985   8.769   4.192 -0.1078 -0.0852 -0.7331
  599MOL0     C78941   4.952   8.752   4.325 -0.6174 -0.3295 -0.7923
  599MOL0     C78942   4.817   8.735   4.353  0.8883  0.3258 -0.5664
  599MOL0     C78943   4.709   8.746   4.264  0.2968  0.0688  0.6866
  599MOL0     O78944   4.578   8.737   4.319 -0.1471  1.1401  0.8403
  599MOL0     C78945   4.476   8.757   4.215 -0.3523 -0.1651 -0.4711
  599MOL0     C78946   4.351   8.759   4.310 -0.2058 -0.7653  0.4429
  599MOL0     C78947   4.218   8.747   4.232  0.0732  0.3156  0.3110
  599MOL0     C78948   4.093   8.765   4.324  0.0984 -0.4090 -1.3072
  599MOL0     C78949   3.969   8.702   4.263 -0.0411 -0.2073  0.5710
  599MOL0     C78950   3.846   8.718   4.349 -0.0018 -0.5009 -0.3572
  599MOL0     C78951   3.722   8.730   4.264  0.2210  0.6802 -0.3202
  599MOL0     C78952   3.607   8.792   4.353 -0.2425 -0.6423  0.2494
  599MOL0     N78953   3.470   8.786   4.295 -0.4502 -1.0633  0.2155
  599MOL0     C78954   3.417   8.881   4.208 -0.2074 -0.2870 -0.6909
  599MOL0     C78955   3.282   8.857   4.213 -0.6551  0.1742  0.6952
  599MOL0     C78956   3.174   8.926   4.127 -0.7797 -0.0438 -0.3789
  599MOL0     C78957   3.174   8.886   3.974 -0.2855  0.8732 -0.0735
  599MOL0     C78958   3.086   8.976   3.886  0.0443  0.3393  0.6233
  599MOL0     C78959   2.937   8.968   3.918  0.8932  0.2962 -0.2865
  599MOL0     O78960   2.896   8.829   3.896 -0.3593  0.0471  0.2388
  599MOL0     C78961   2.769   8.790   3.895  0.8414  0.6892  0.8747
  599MOL0     C78962   2.661   8.878   3.878 -0.2650 -0.0459  0.4806
  599MOL0     C78963   2.530   8.836   3.868 -0.5825  0.1503 -0.3009
  599MOL0     C78964   2.502   8.700   3.875  0.7900 -0.1456  0.6447
  599MOL0     C78965   2.362   8.657   3.853  0.0352  0.5548  0.6118
  599MOL0     O78966   2.278   8.746   3.797  0.0823 -0.3592 -1.3207
  599MOL0     C78967   2.147   8.700   3.764 -0.1698 -0.3548  0.6330
  599MOL0     C78968   2.034   8.698   3.865 -0.4500 -0.6452  0.3150
  599MOL0     C78969   1.916   8.643   3.833  0.4514  0.3301 -0.3187
  599MOL0     C78970   1.886   8.590   3.705  0.4058  0.6723  0.0085
  599MOL0     O78971   1.769   8.521   3.673 -0.2394 -0.2575 -0.3628
  599MOL0     C78972   1.714   8.559   3.542 -0.1821  0.7205 -0.0581
  599MOL0     C78973   1.563   8.538   3.532  0.1724 -0.3491 -0.2790
  599MOL0     C78974   1.530   8.397   3.576  0.1515 -0.0939  0.7302
  599MOL0     C78975   1.383   8.371   3.608  1.5131 -0.4165  0.6649
  599MOL0     C78976   1.369   8.217   3.632  0.3578  0.6832 -0.6146
  599MOL0     C78977   1.236   8.199   3.710 -0.3757  0.7960  0.8790
  599MOL0     C78978   1.121   8.210   3.615 -0.5400 -0.0574  0.0015
  599MOL0     C78979   0.981   8.242   3.677 -0.6112  0.2917  0.5208
  599MOL0    Cl78980   0.932   8.124   3.807  0.5501  0.4800  0.2489
  599MOL0     C78981   1.985   8.589   3.608 -1.2071  0.4509  1.0829
  599MOL0     C78982   2.120   8.634   3.642 -0.2244  0.1395 -0.1338
  599MOL0     O78983   2.341   8.532   3.865 -0.5737 -0.1189  0.0518
  599MOL0     C78984   2.610   8.606   3.905 -0.5769 -0.4544 -0.1089
  599MOL0     C78985   2.741   8.649   3.911  0.3177 -0.3075 -0.7108
  599MOL0     N78986   3.257   8.750   4.298 -0.9444 -0.3077 -0.1849
  599MOL0     N78987   3.364   8.717   4.349 -0.5099  0.1992 -0.4566
  599MOL0     C78988   4.748   8.766   4.136  0.7540 -0.2423  1.0152
  599MOL0     C78989   4.880   8.775   4.099  0.1007  0.2959 -0.1490
  599MOL0     C78990   5.342   8.744   4.138 -1.0135  0.5662 -0.3354
  599MOL0     C78991   5.363   8.851   4.045  0.3013  0.2592 -0.6598
  599MOL0     C78992   5.493   8.911   4.039  0.0188  0.1602 -0.3832
  599MOL0     C78993   5.600   8.865   4.117  0.1680 -0.0006 -0.1777
  599MOL0     O78994   5.716   8.931   4.114  0.3795 -0.1231  0.4567
  599MOL0     C78995   5.815   8.906   4.214  0.3875 -0.4504  0.2432
  599MOL0     C78996   5.903   9.026   4.244  0.7850  0.6282 -0.9039
  599MOL0     C78997   5.999   9.051   4.127  0.8249 -0.1117  0.9310
  599MOL0     C78998   6.093   9.171   4.154 -0.3114  0.1868  0.3257
  599MOL0     C78999   6.191   9.150   4.259 -0.1416 -0.0899 -0.6356
  599MOL0     C79000   6.279   9.132   4.337  0.1934 -0.0910  0.4544
  599MOL0     C79001   5.584   8.744   4.185 -0.1400  0.8107 -0.6093
  599MOL0     C79002   5.455   8.680   4.198  0.0894 -0.1133  0.3305
  599MOL0     H79003   5.027   8.752   4.404 -0.7410  1.4459 -0.6423
  599MOL0     H79004   4.777   8.728   4.454 -0.1616 -0.6910 -1.0250
  599MOL0     H79005   4.465   8.672   4.148  2.3951 -1.9213  1.0995
  599MOL0     H79006   4.485   8.856   4.170  3.5701  0.4358  1.1930
  599MOL0     H79007   4.351   8.853   4.365  0.6246  0.9031 -2.2176
  599MOL0     H79008   4.356   8.674   4.379  1.8846  0.7859  2.3644
  599MOL0     H79009   4.207   8.650   4.183 -0.3677 -0.4970  1.9625
  599MOL0     H79010   4.221   8.828   4.159 -1.9823  1.1337  1.0529
  599MOL0     H79011   4.106   8.716   4.421 -1.2189  2.7366  0.6127
  599MOL0     H79012   4.082   8.872   4.345 -0.3798 -0.8024  0.6393
  599MOL0     H79013   3.986   8.595   4.249 -0.5361 -0.1473 -0.5785
  599MOL0     H79014   3.953   8.748   4.165  0.2333  0.0961  0.6674
  599MOL0     H79015   3.867   8.805   4.412  0.2606  0.4213 -1.6798
  599MOL0     H79016   3.849   8.640   4.426  0.9612 -0.1135  0.0272
  599MOL0     H79017   3.728   8.780   4.167 -1.8920  2.2992  0.3233
  599MOL0     H79018   3.685   8.630   4.240 -0.0808  0.3399  1.4147
  599MOL0     H79019   3.627   8.900   4.359  0.3128 -0.7025 -0.3466
  599MOL0     H79020   3.584   8.748   4.450 -2.4192 -6.6325 -2.5133
  599MOL0     H79021   3.475   8.947   4.143  4.0332 -2.4896  0.5005
  599MOL0     H79022   3.192   9.034   4.137 -0.5192 -0.0344 -0.9127
  599MOL0     H79023   3.075   8.924   4.174 -0.1937  2.0280  1.1230
  599MOL0     H79024   3.129   8.786   3.973 -1.6240  1.4304 -1.6420
  599MOL0     H79025   3.277   8.886   3.939 -0.0025 -0.0102  0.7053
  599MOL0     H79026   3.128   9.077   3.894  1.1621 -0.2206  2.2996
  599MOL0     H79027   3.094   8.940   3.783 -2.0826  0.6267  0.3225
  599MOL0     H79028   2.881   9.035   3.851 -0.2289  0.0905  0.4075
  599MOL0     H79029   2.916   9.003   4.020 -2.7268 -1.6829 -0.1840
  599MOL0     H79030   2.680   8.984   3.877 -1.0301  0.4533  6.2282
  599MOL0     H79031   2.450   8.908   3.850 -0.4952  1.4356  3.5291
  599MOL0     H79032   2.054   8.726   3.968  1.3444 -0.6637  0.0078
  599MOL0     H79033   1.837   8.629   3.906  0.9308 -2.4799 -0.2018
  599MOL0     H79034   1.755   8.487   3.469  2.4069 -0.6621  2.5526
  599MOL0     H79035   1.729   8.664   3.514 -3.7487  1.4902  0.4105
  599MOL0     H79036   1.514   8.553   3.436 -0.8534 -3.1047 -0.2895
  599MOL0     H79037   1.508   8.606   3.598  0.7108 -0.5654  0.4125
  599MOL0     H79038   1.574   8.362   3.670 -1.1505 -3.2173  0.3280
  599MOL0     H79039   1.566   8.327   3.499 -2.5975 -0.7077 -0.1128
  599MOL0     H79040   1.349   8.432   3.692 -1.1244  3.0793 -2.5294
  599MOL0     H79041   1.316   8.382   3.522 -1.0593  0.0821  2.6172
  599MOL0     H79042   1.442   8.181   3.705 -1.1116  0.4306  0.7803
  599MOL0     H79043   1.381   8.166   3.536  4.4867 -2.1868  1.1545
  599MOL0     H79044   1.233   8.274   3.789 -0.8374  0.8364  0.8244
  599MOL0     H79045   1.233   8.102   3.760  2.0206  0.2231  0.0461
  599MOL0     H79046   1.134   8.283   3.535 -2.0150 -0.9608 -1.1043
  599MOL0     H79047   1.111   8.113   3.565 -1.4635  0.7498 -1.4563
  599MOL0     H79048   0.916   8.231   3.589 -1.1889  0.4497  0.9216
  599MOL0     H79049   0.972   8.349   3.700  2.4434  0.2072  2.6063
  599MOL0     H79050   1.969   8.541   3.512  1.3810  0.5423  0.5399
  599MOL0     H79051   2.200   8.620   3.570 -1.3997 -3.4269 -0.9758
  599MOL0     H79052   2.599   8.499   3.917  2.0783 -0.7720 -0.0701
  599MOL0     H79053   2.821   8.576   3.907  1.7227  1.1554 -0.0650
  599MOL0     H79054   4.686   8.766   4.047  0.1462 -0.4936  1.4250
  599MOL0     H79055   4.896   8.786   3.993  2.0604 -2.5771 -0.2505
  599MOL0     H79056   5.279   8.896   3.993  0.7006 -1.9053 -3.3978
  599MOL0     H79057   5.509   8.983   3.959  1.9124 -1.0347 -1.1421
  599MOL0     H79058   5.873   8.815   4.203 -1.7598 -2.2041  2.2940
  599MOL0     H79059   5.758   8.899   4.307 -0.0012  1.9115  0.2461
  599MOL0     H79060   5.847   9.120   4.246 -0.0759  0.2270 -2.9515
  599MOL0     H79061   5.964   9.008   4.332 -1.0623 -2.5399 -0.1454
  599MOL0     H79062   5.927   9.061   4.046  1.3702 -0.6138  0.3816
  599MOL0     H79063   6.046   8.959   4.092  1.4253  0.7168 -0.5515
  599MOL0     H79064   6.136   9.207   4.060 -3.6986  3.8062 -0.0783
  599MOL0     H79065   6.027   9.254   4.178 -0.2872 -0.1795  1.7507
  599MOL0     H79066   6.348   9.113   4.416  2.1183 -0.8768 -1.3133
  599MOL0     H79067   5.675   8.705   4.229  1.4110  1.9863 -2.5855
  599MOL0     H79068   5.450   8.582   4.245  2.9167 -0.0397  0.9798
  600MOL0     O79069   8.135   2.090   7.316 -0.0576 -0.7627 -0.2258
  600MOL0     C79070   8.104   2.202   7.356 -0.2406 -0.6972  0.3213
  600MOL0     O79071   8.180   2.316   7.351 -0.9188 -0.1759  0.5528
  600MOL0     C79072   8.310   2.309   7.304 -0.3374  0.0722 -0.0562
  600MOL0     C79073   8.376   2.222   7.221  0.5848  0.5452  0.1278
  600MOL0     C79074   8.516   2.234   7.200  1.0318 -0.1825  0.5055
  600MOL0     C79075   8.576   2.353   7.244  0.2403 -0.7307 -0.0583
  600MOL0     O79076   8.703   2.387   7.221 -0.3512  0.6353  0.4562
  600MOL0     C79077   8.783   2.307   7.131  0.1932  0.1431  0.3357
  600MOL0     C79078   8.919   2.377   7.102 -0.1831 -0.2593  0.6266
  600MOL0     C79079   8.999   2.418   7.228  0.2210 -0.5833 -0.0687
  600MOL0     C79080   9.142   2.465   7.186  0.2044  0.6839  1.1076
  600MOL0     C79081   9.230   2.519   7.289  0.2244  0.0476  0.3591
  600MOL0     C79082   9.370   2.534   7.241 -0.0770  0.4450 -0.0359
  600MOL0     C79083   9.466   2.566   7.360  0.5306 -0.5715  0.4765
  600MOL0     C79084   9.588   2.647   7.317  0.2693  0.1780  0.1271
  600MOL0     N79085   9.560   2.775   7.263  0.1004 -0.1191 -0.6806
  600MOL0     C79086   9.471   2.875   7.313 -1.1320  0.4807 -0.0091
  600MOL0     C79087   9.505   2.995   7.254 -0.1029  0.3838  0.0766
  600MOL0     C79088   9.425   3.117   7.261 -0.1220 -0.6368 -0.2020
  600MOL0     C79089   9.499   3.216   7.354 -0.1534 -0.0791  0.3614
  600MOL0     C79090   9.489   3.175   7.503 -0.1172 -0.9970  0.2506
  600MOL0     C79091   9.590   3.246   7.593 -0.0488 -0.4992  1.4202
  600MOL0     O79092   9.590   3.203   7.730 -0.1706  0.0972  0.1320
  600MOL0     C79093   9.489   3.249   7.808  0.3238  0.4549  0.1409
  600MOL0     C79094   9.387   3.342   7.772 -1.1180  0.0146 -0.7014
  600MOL0     C79095   9.283   3.369   7.855  0.3267  0.7333 -0.3427
  600MOL0     C79096   9.277   3.315   7.978  0.5748 -0.4561 -0.0456
  600MOL0     C79097   9.152   3.349   8.065 -0.8674 -0.3881  0.5369
  600MOL0     O79098   9.106   3.275   8.164  0.1706  0.8195 -0.0044
  600MOL0     C79099   8.990   3.307   8.228 -0.2949 -0.7176 -0.8606
  600MOL0     C79100   8.985   3.311   8.374 -0.8451  0.9447  0.7172
  600MOL0     C79101   8.864   3.333   8.439  0.1156 -0.6620  0.3732
  600MOL0     C79102   8.749   3.358   8.365 -0.6357  0.1028 -1.0303
  600MOL0     O79103   8.620   3.380   8.414 -0.5180  0.0108  0.3223
  600MOL0     C79104   8.609   3.384   8.557  0.5955 -0.1358 -0.4992
  600MOL0     C79105   8.468   3.396   8.608 -1.0906 -0.0129 -0.1432
  600MOL0     C79106   8.401   3.267   8.650  0.3730  0.1667 -0.5699
  600MOL0     C79107   8.270   3.312   8.716 -0.0092  0.1112 -0.1209
  600MOL0     C79108   8.174   3.189   8.751 -0.6258  0.5006  0.2448
  600MOL0     C79109   8.032   3.244   8.780 -0.6390  0.2458  0.0848
  600MOL0     C79110   7.929   3.127   8.808 -0.2855 -1.0852 -0.1450
  600MOL0     C79111   7.792   3.188   8.823  0.1793  0.5340 -0.7061
  600MOL0    Cl79112   7.750   3.307   8.697 -0.5818 -0.0168  0.0813
  600MOL0     C79113   8.750   3.370   8.226 -0.3418 -0.3027  0.2553
  600MOL0     C79114   8.876   3.349   8.164  0.2196 -0.0588 -0.6095
  600MOL0     O79115   9.106   3.459   8.038  0.2401  0.1528  0.0778
  600MOL0     C79116   9.380   3.232   8.020  0.1295 -0.1587  0.3692
  600MOL0     C79117   9.488   3.203   7.938  0.0047  0.6910  0.2270
  600MOL0     N79118   9.616   2.959   7.167  0.6897 -0.4600 -0.1305
  600MOL0     N79119   9.640   2.836   7.174  0.3536 -0.7241  0.2915
  600MOL0     C79120   8.506   2.453   7.304  1.7637 -0.9532 -0.4538
  600MOL0     C79121   8.369   2.432   7.327  0.1946  0.4439  0.1042
  600MOL0     C79122   7.968   2.221   7.424 -0.8696  0.1674 -0.1923
  600MOL0     C79123   7.940   2.336   7.501 -0.1836 -0.0005  0.0654
  600MOL0     C79124   7.808   2.350   7.541 -0.0644 -0.9623  1.3095
  600MOL0     C79125   7.712   2.257   7.522 -0.3217 -0.0237 -0.7994
  600MOL0     O79126   7.597   2.281   7.597  0.6149 -0.0479 -0.6096
  600MOL0     C79127   7.490   2.187   7.598  0.0961  0.1660  0.5597
  600MOL0     C79128   7.381   2.260   7.676  0.3562 -0.3672 -0.8842
  600MOL0     C79129   7.414   2.255   7.830  0.2016  0.4233  0.2789
  600MOL0     C79130   7.418   2.124   7.903 -1.2366 -0.7528  0.4503
  600MOL0     C79131   7.449   2.151   8.044 -0.5923 -0.6315 -0.3901
  600MOL0     C79132   7.481   2.190   8.157 -0.0309 -0.8289  0.4168
  600MOL0     C79133   7.746   2.142   7.461  0.5772 -0.8798 -0.4077
  600MOL0     C79134   7.873   2.117   7.418  0.7799  0.4218 -0.1468
  600MOL0     H79135   8.334   2.133   7.175  0.1626 -0.0223  1.5448
  600MOL0     H79136   8.567   2.150   7.156  0.4831 -1.1989  1.7508
  600MOL0     H79137   8.735   2.295   7.033  2.5574  1.1821 -1.0646
  600MOL0     H79138   8.806   2.206   7.164  1.7005  0.0037 -0.9851
  600MOL0     H79139   8.911   2.458   7.029 -0.2711 -0.0627  0.8519
  600MOL0     H79140   8.975   2.303   7.044 -2.7860 -0.5206 -1.7346
  600MOL0     H79141   9.005   2.333   7.297  0.3391 -0.4300  0.1135
  600MOL0     H79142   8.950   2.497   7.286  2.3075 -0.1920  1.3052
  600MOL0     H79143   9.191   2.380   7.138 -0.7804 -0.3494  1.8523
  600MOL0     H79144   9.127   2.542   7.110  1.2054 -0.6849 -0.5413
  600MOL0     H79145   9.239   2.446   7.370  0.2241 -0.4188 -0.0513
  600MOL0     H79146   9.186   2.612   7.325 -0.9259 -0.5655  0.5557
  600MOL0     H79147   9.376   2.604   7.157  0.3440  0.6703  0.1816
  600MOL0     H79148   9.406   2.443   7.194 -0.6987  0.9989 -1.6419
  600MOL0     H79149   9.411   2.604   7.447 -0.4714 -1.5380  0.2853
  600MOL0     H79150   9.508   2.476   7.406  1.2310 -1.0855 -1.0996
  600MOL0     H79151   9.656   2.592   7.251  2.8644  2.0010  1.1528
  600MOL0     H79152   9.649   2.661   7.407 -2.6685  2.4599  1.9527
  600MOL0     H79153   9.398   2.863   7.393 -1.1771 -1.8913 -0.3271
  600MOL0     H79154   9.325   3.102   7.301 -1.9202 -1.4410 -4.4561
  600MOL0     H79155   9.403   3.161   7.163 -1.9839  0.1277  0.5160
  600MOL0     H79156   9.442   3.309   7.341 -0.1254 -0.3093 -1.6359
  600MOL0     H79157   9.598   3.250   7.321 -1.4711  0.9647 -2.9864
  600MOL0     H79158   9.387   3.191   7.541  0.5234  1.4404  1.1036
  600MOL0     H79159   9.492   3.065   7.507  0.0899 -0.9668  1.0432
  600MOL0     H79160   9.572   3.353   7.579 -0.8046 -0.8134 -0.2613
  600MOL0     H79161   9.689   3.229   7.550  0.0866 -0.7598  1.8321
  600MOL0     H79162   9.394   3.393   7.676 -2.6091  0.3205 -0.6711
  600MOL0     H79163   9.209   3.433   7.807  0.7601  1.8978  0.4819
  600MOL0     H79164   9.077   3.284   8.425  0.7445  0.0737 -2.4184
  600MOL0     H79165   8.866   3.357   8.545 -2.0489  2.6335 -0.1940
  600MOL0     H79166   8.668   3.468   8.594  1.5545 -1.9236  2.3804
  600MOL0     H79167   8.654   3.290   8.593  4.0495  1.6446  0.2382
  600MOL0     H79168   8.416   3.433   8.518  3.1049 -0.5672 -3.1150
  600MOL0     H79169   8.470   3.472   8.686  1.6604  1.8797 -1.8746
  600MOL0     H79170   8.462   3.240   8.737 -0.6793  4.7556  1.8942
  600MOL0     H79171   8.398   3.196   8.567 -1.3548 -0.3069 -0.1515
  600MOL0     H79172   8.288   3.369   8.808 -0.3901 -1.9097  1.2566
  600MOL0     H79173   8.213   3.377   8.648  2.0485 -0.3015 -2.3841
  600MOL0     H79174   8.216   3.134   8.835 -1.7416  2.2766  2.0636
  600MOL0     H79175   8.181   3.121   8.666  1.9300 -0.4707  1.1533
  600MOL0     H79176   8.002   3.295   8.687 -1.2595 -3.6979 -2.0955
  600MOL0     H79177   8.036   3.308   8.868  2.3235 -0.8687  0.8711
  600MOL0     H79178   7.927   3.048   8.731 -2.7114  0.7894 -2.1743
  600MOL0     H79179   7.958   3.071   8.897  1.1111  1.1976  0.9128
  600MOL0     H79180   7.795   3.225   8.926  1.7851 -1.8819  0.2128
  600MOL0     H79181   7.732   3.097   8.821 -2.0011  1.9128 -0.8809
  600MOL0     H79182   8.656   3.396   8.177  0.1745  1.2220  0.0161
  600MOL0     H79183   8.886   3.368   8.057  2.5932  2.9071 -0.0167
  600MOL0     H79184   9.382   3.189   8.120  2.2149 -0.1437  0.3762
  600MOL0     H79185   9.563   3.132   7.972 -1.6722 -1.3236 -0.0997
  600MOL0     H79186   8.568   2.536   7.337  1.0122 -0.5629  0.0378
  600MOL0     H79187   8.311   2.517   7.360  0.4129  0.6047  0.0755
  600MOL0     H79188   8.024   2.402   7.518  1.4421 -2.6370  3.8554
  600MOL0     H79189   7.783   2.436   7.601 -1.6713  0.1242 -0.7718
  600MOL0     H79190   7.516   2.092   7.646  0.7091 -1.5328 -2.8265
  600MOL0     H79191   7.450   2.173   7.497 -0.2269 -0.7199  0.8059
  600MOL0     H79192   7.379   2.366   7.648 -1.7191 -0.2566 -0.4159
  600MOL0     H79193   7.282   2.215   7.664 -0.5317  1.8558 -2.5600
  600MOL0     H79194   7.331   2.300   7.886  0.8833 -0.4731  2.0710
  600MOL0     H79195   7.505   2.311   7.853  0.8312 -0.3978 -0.1742
  600MOL0     H79196   7.323   2.072   7.889 -0.7539 -1.2226 -1.3340
  600MOL0     H79197   7.496   2.063   7.857 -0.3293 -1.1114  2.3452
  600MOL0     H79198   7.520   2.226   8.250 -0.7842  1.8234 -0.2216
  600MOL0     H79199   7.666   2.069   7.451  1.3591 -1.6922 -0.8616
  600MOL0     H79200   7.910   2.022   7.381  2.7685  1.2187 -0.3462
  601MOL0     O79201   7.735   0.892  10.817  0.0727  0.2934  0.4340
  601MOL0     C79202   7.730   1.013  10.790  0.6609  0.6006  0.0791
  601MOL0     O79203   7.619   1.092  10.822 -0.3395 -0.2621  0.1478
  601MOL0     C79204   7.506   1.029  10.848  0.5266 -0.6389 -1.0610
  601MOL0     C79205   7.442   0.931  10.763 -0.0258  0.6073  0.2607
  601MOL0     C79206   7.311   0.894  10.785 -0.0753 -0.1738 -0.0482
  601MOL0     C79207   7.225   0.956  10.880 -0.6818 -0.0593 -1.1245
  601MOL0     O79208   7.098   0.941  10.907  0.0569  0.0753  0.5070
  601MOL0     C79209   7.024   0.857  10.820  0.5198  0.0043  0.4846
  601MOL0     C79210   6.886   0.810  10.876 -0.5189  0.1667  0.0490
  601MOL0     C79211   6.778   0.910  10.858 -0.5805  0.3023  0.5725
  601MOL0     C79212   6.648   0.850  10.901  0.5132 -0.2460  0.0432
  601MOL0     C79213   6.529   0.944  10.854 -0.3006 -1.1013  0.0062
  601MOL0     C79214   6.396   0.891  10.895  0.1972 -0.4842  0.0251
  601MOL0     C79215   6.286   0.975  10.844  0.1177 -0.0758  0.0965
  601MOL0     C79216   6.265   1.105  10.922 -0.1917 -0.2120 -0.3223
  601MOL0     N79217   6.128   1.157  10.901 -0.3729 -0.7031 -0.0515
  601MOL0     C79218   6.050   1.163  11.011  0.2213  0.3232 -0.5041
  601MOL0     C79219   5.931   1.183  10.955 -0.1507 -0.4404 -0.7902
  601MOL0     C79220   5.796   1.190  11.029 -0.5052 -0.5965 -0.2476
  601MOL0     C79221   5.678   1.131  10.952  0.1639  0.2662 -0.5626
  601MOL0     C79222   5.544   1.172  11.010  0.7058  0.5795 -0.2984
  601MOL0     C79223   5.440   1.093  10.938 -0.0330  0.4908 -0.7297
  601MOL0     O79224   5.312   1.129  10.964  0.5359 -0.0911  0.1108
  601MOL0     C79225   5.202   1.076  10.900 -0.0436  0.3922  0.4332
  601MOL0     C79226   5.082   1.074  10.975  0.3366 -0.5773  0.3610
  601MOL0     C79227   4.959   1.032  10.920  0.7154  0.3004  1.0598
  601MOL0     C79228   4.948   0.988  10.789 -0.3795  0.6765 -0.0758
  601MOL0     C79229   4.815   0.955  10.725 -0.6232  0.2273  1.5962
  601MOL0     O79230   4.702   0.955  10.799  0.0287 -1.0296 -0.1823
  601MOL0     C79231   4.579   0.940  10.745 -0.8808 -0.3316 -0.4384
  601MOL0     C79232   4.487   1.054  10.737 -1.5384 -0.4450  0.3753
  601MOL0     C79233   4.366   1.039  10.679  0.5043 -0.2968  0.4133
  601MOL0     C79234   4.327   0.910  10.646 -0.5511  0.1541  0.7655
  601MOL0     O79235   4.214   0.877  10.580 -0.1839  0.2036 -0.4022
  601MOL0     C79236   4.094   0.955  10.616  0.2276  1.2241  1.0876
  601MOL0     C79237   3.973   0.863  10.618 -0.2201 -0.0481  0.8222
  601MOL0     C79238   3.843   0.936  10.600  0.5623 -0.1447 -0.2141
  601MOL0     C79239   3.717   0.857  10.620 -0.7100  0.1306 -0.1532
  601MOL0     C79240   3.595   0.947  10.596  0.0646  0.3269  0.1879
  601MOL0     C79241   3.545   1.024  10.721  0.1798 -0.7185 -0.1622
  601MOL0     C79242   3.478   0.952  10.837 -0.3867  0.0915 -0.1676
  601MOL0     C79243   3.479   1.054  10.957 -0.7026  0.4139  0.3640
  601MOL0    Cl79244   3.443   0.961  11.101  0.0379 -0.2597 -0.0233
  601MOL0     C79245   4.402   0.800  10.671  0.5298  0.4121 -0.3287
  601MOL0     C79246   4.528   0.816  10.716  0.0461  0.5349  0.1827
  601MOL0     O79247   4.820   0.913  10.612 -0.7173 -0.5328  0.6104
  601MOL0     C79248   5.072   0.978  10.727  0.0287  0.2443  0.2547
  601MOL0     C79249   5.197   1.030  10.771  0.6241  0.7925  0.7500
  601MOL0     N79250   5.945   1.187  10.817 -0.5489 -0.0452  0.0502
  601MOL0     N79251   6.060   1.179  10.790 -0.5219  0.6745 -0.6225
  601MOL0     C79252   7.289   1.056  10.951  0.1264  0.3177 -0.3223
  601MOL0     C79253   7.419   1.090  10.937 -0.3577  0.2901  0.4580
  601MOL0     C79254   7.837   1.077  10.720 -0.8722 -0.3878 -0.3555
  601MOL0     C79255   7.818   1.203  10.659  0.2440 -0.3054  1.6796
  601MOL0     C79256   7.918   1.266  10.582 -0.1490 -0.8123  0.9433
  601MOL0     C79257   8.038   1.204  10.564  0.5774  0.5953  0.3793
  601MOL0     O79258   8.136   1.262  10.479  0.5145  0.0864 -0.2905
  601MOL0     C79259   8.184   1.380  10.530 -0.0437 -0.2702 -0.4625
  601MOL0     C79260   8.277   1.437  10.431  1.4683 -0.0465 -0.5029
  601MOL0     C79261   8.374   1.541  10.495 -0.8950  0.5283  0.4201
  601MOL0     C79262   8.443   1.587  10.362 -0.9775  0.8616 -0.1011
  601MOL0     C79263   8.546   1.688  10.368  0.4168 -0.1786  0.0945
  601MOL0     C79264   8.643   1.763  10.373  0.2627 -0.3938 -0.5594
  601MOL0     C79265   8.055   1.075  10.622  0.5719 -0.7727 -0.3150
  601MOL0     C79266   7.964   1.022  10.712  0.1820  0.7714  0.4039
  601MOL0     H79267   7.485   0.884  10.676 -1.4186 -0.2951  0.0213
  601MOL0     H79268   7.271   0.816  10.720  0.2812  0.0997 -0.6012
  601MOL0     H79269   7.074   0.764  10.792 -2.6390 -1.2592 -1.5905
  601MOL0     H79270   6.997   0.907  10.727  2.1325  0.6221  0.3122
  601MOL0     H79271   6.906   0.781  10.980  0.3652 -1.3336 -0.5063
  601MOL0     H79272   6.861   0.717  10.824 -2.1420 -0.5976  2.0504
  601MOL0     H79273   6.760   0.925  10.751 -2.4066  1.3477  0.9864
  601MOL0     H79274   6.787   1.009  10.904 -0.3023  0.1787  0.7939
  601MOL0     H79275   6.631   0.756  10.847  0.5729  0.4784 -1.2997
  601MOL0     H79276   6.644   0.831  11.008  0.2298  3.4162  0.8053
  601MOL0     H79277   6.544   0.950  10.746  0.0016 -1.2735  0.0364
  601MOL0     H79278   6.552   1.044  10.890  1.7841 -1.0398 -1.2809
  601MOL0     H79279   6.384   0.873  11.002 -0.9280 -0.3396 -0.0640
  601MOL0     H79280   6.383   0.792  10.850 -0.1822 -0.9034  1.0313
  601MOL0     H79281   6.319   1.005  10.745 -1.0711 -1.9316 -0.9393
  601MOL0     H79282   6.193   0.916  10.837  1.3567 -1.9273 -2.1534
  601MOL0     H79283   6.339   1.178  10.889  0.5844  0.1009  1.9314
  601MOL0     H79284   6.279   1.085  11.029 -4.6202 -0.7949  0.3677
  601MOL0     H79285   6.079   1.145  11.114  0.6985  2.3232 -0.2372
  601MOL0     H79286   5.779   1.292  11.065  1.7276 -0.6435  1.1201
  601MOL0     H79287   5.804   1.124  11.115 -2.6652  0.3235  0.7440
  601MOL0     H79288   5.693   1.024  10.937 -0.9811  0.1487 -0.9968
  601MOL0     H79289   5.686   1.185  10.857 -0.1695  0.5812 -0.4154
  601MOL0     H79290   5.545   1.140  11.114 -2.1817 -0.2782 -0.4545
  601MOL0     H79291   5.523   1.279  11.008  2.0941  0.8667 -0.1512
  601MOL0     H79292   5.458   0.989  10.963  0.0575  0.7826  0.4633
  601MOL0     H79293   5.451   1.107  10.830  0.3674 -2.7542 -1.1819
  601MOL0     H79294   5.079   1.115  11.076 -3.0941  0.6976 -0.1341
  601MOL0     H79295   4.864   1.031  10.973  0.8336  0.8687  1.2961
  601MOL0     H79296   4.520   1.154  10.762  0.9064 -0.8493 -0.9091
  601MOL0     H79297   4.298   1.122  10.664  1.9176  0.5208 -2.2309
  601MOL0     H79298   4.080   1.029  10.537  0.2555  0.2295  0.1225
  601MOL0     H79299   4.105   0.998  10.716  0.7754 -0.1928  1.6587
  601MOL0     H79300   3.983   0.801  10.708  0.0730  0.2573  0.9985
  601MOL0     H79301   3.974   0.797  10.530 -0.2108 -0.6712  1.2800
  601MOL0     H79302   3.845   0.971  10.496 -0.9765  2.8921  0.6503
  601MOL0     H79303   3.842   1.031  10.655  1.3352  0.3057 -0.9531
  601MOL0     H79304   3.721   0.769  10.556  3.4668 -1.3240  1.7644
  601MOL0     H79305   3.723   0.825  10.725 -0.4803 -0.5747 -0.3749
  601MOL0     H79306   3.515   0.880  10.563  0.0186  0.7843 -0.6610
  601MOL0     H79307   3.616   1.020  10.517 -0.3137  3.0423  2.4024
  601MOL0     H79308   3.470   1.096  10.688  0.5836  2.1790  4.3947
  601MOL0     H79309   3.633   1.082  10.752  0.4506 -1.1262 -0.1586
  601MOL0     H79310   3.379   0.914  10.813 -0.2541 -1.0022  0.9229
  601MOL0     H79311   3.533   0.863  10.868  1.2302  0.8548 -0.7537
  601MOL0     H79312   3.406   1.134  10.939 -2.9753 -0.8567  3.0635
  601MOL0     H79313   3.580   1.095  10.967 -0.5679  0.0912  0.3199
  601MOL0     H79314   4.373   0.699  10.642  0.5683 -0.0567  1.1745
  601MOL0     H79315   4.588   0.727  10.732  0.3968  0.6393 -0.4900
  601MOL0     H79316   5.066   0.950  10.622 -1.2253 -0.3189  0.4708
  601MOL0     H79317   5.292   1.023  10.719  0.3451  1.1069  0.1831
  601MOL0     H79318   7.218   1.097  11.021  0.7618 -1.7586  1.6885
  601MOL0     H79319   7.449   1.171  11.003 -0.8717 -0.0841  1.1726
  601MOL0     H79320   7.718   1.245  10.655  0.0409 -0.7759  1.7215
  601MOL0     H79321   7.901   1.363  10.537  1.6891 -1.4864 -1.3979
  601MOL0     H79322   8.235   1.356  10.624  1.2890  1.7530 -0.6154
  601MOL0     H79323   8.105   1.451  10.557  1.2888  0.4347  1.8511
  601MOL0     H79324   8.347   1.363  10.391  3.3702 -0.0184  2.4109
  601MOL0     H79325   8.216   1.481  10.352 -1.7557 -0.2709  1.6656
  601MOL0     H79326   8.433   1.495  10.576 -0.3833  0.3803 -0.0312
  601MOL0     H79327   8.329   1.621  10.554 -1.1945  0.9000 -0.3104
  601MOL0     H79328   8.491   1.508  10.304 -0.7590  0.0594  1.1264
  601MOL0     H79329   8.370   1.647  10.307 -1.1309  1.7159  0.9937
  601MOL0     H79330   8.723   1.832  10.389  0.3930 -0.9425  1.4980
  601MOL0     H79331   8.149   1.029  10.595 -0.1897 -2.9334  0.5436
  601MOL0     H79332   7.986   0.930  10.765  0.5018  1.4423  1.4706
  602MOL0     O79333  10.658   2.138   9.113  0.2463  0.2188  0.1061
  602MOL0     C79334  10.703   2.251   9.088 -0.5693 -0.1386 -0.1492
  602MOL0     O79335  10.625   2.361   9.055 -0.6548  0.1286 -0.9111
  602MOL0     C79336  10.497   2.329   9.042 -0.0294 -0.0860 -0.0904
  602MOL0     C79337  10.438   2.357   8.919  0.2996 -0.6282  0.4838
  602MOL0     C79338  10.304   2.334   8.883 -0.6428 -0.3135 -0.4448
  602MOL0     C79339  10.224   2.281   8.983 -1.0156 -0.3112 -0.5637
  602MOL0     O79340  10.091   2.254   8.955  0.2988  0.8675  0.2457
  602MOL0     C79341   9.996   2.262   9.068 -0.9113 -0.1407  0.7673
  602MOL0     C79342   9.874   2.325   9.001  0.1840  0.1381  0.2639
  602MOL0     C79343   9.765   2.339   9.110  1.1403 -0.5402 -0.4221
  602MOL0     C79344   9.646   2.408   9.045 -0.2299  0.5058  0.3294
  602MOL0     C79345   9.526   2.429   9.135 -0.5573  0.7716 -0.4888
  602MOL0     C79346   9.401   2.486   9.063  0.8717  0.2505 -0.0848
  602MOL0     C79347   9.297   2.500   9.175 -0.4141 -0.5099  0.2155
  602MOL0     C79348   9.163   2.541   9.115 -0.4752  0.1262  0.2570
  602MOL0     N79349   9.067   2.578   9.225  0.0660 -0.4576 -0.2720
  602MOL0     C79350   9.050   2.704   9.282 -0.0442 -0.8147  0.8727
  602MOL0     C79351   8.956   2.690   9.381 -0.4207 -0.0981  0.7523
  602MOL0     C79352   8.885   2.815   9.442 -0.2994  0.5898  0.0947
  602MOL0     C79353   8.981   2.886   9.532 -0.4524  0.2890  0.2217
  602MOL0     C79354   9.003   3.033   9.481 -0.1504 -0.3592  0.2050
  602MOL0     C79355   9.082   3.115   9.568 -0.3535  0.3926 -0.1246
  602MOL0     O79356   9.148   3.222   9.500 -0.5706 -0.1894 -0.2243
  602MOL0     C79357   9.083   3.343   9.502  0.5813 -0.5196 -0.9790
  602MOL0     C79358   8.966   3.366   9.425 -0.2588 -0.3098 -0.1831
  602MOL0     C79359   8.913   3.498   9.421 -0.0242 -0.5663  0.2183
  602MOL0     C79360   8.952   3.599   9.508 -0.7611 -0.6119  0.6119
  602MOL0     C79361   8.877   3.728   9.512 -0.1747  0.8404  0.1264
  602MOL0     O79362   8.752   3.732   9.442 -0.8264 -0.0108 -0.3197
  602MOL0     C79363   8.644   3.809   9.485 -0.8217  0.1986  1.2906
  602MOL0     C79364   8.556   3.857   9.385 -0.2012  0.0317 -0.4817
  602MOL0     C79365   8.446   3.937   9.399  0.3925  0.1914  0.8093
  602MOL0     C79366   8.406   3.960   9.536  0.5504  0.0442  0.3870
  602MOL0     O79367   8.290   4.037   9.548 -0.1899  0.3545 -0.0241
  602MOL0     C79368   8.239   4.071   9.680 -0.0856  0.7580  0.6400
  602MOL0     C79369   8.143   3.967   9.741  0.8131  0.5346  0.7142
  602MOL0     C79370   8.048   4.011   9.852  0.6377 -0.3379 -0.3801
  602MOL0     C79371   7.974   4.142   9.820 -0.1536  0.0215  0.1951
  602MOL0     C79372   7.857   4.156   9.910  0.8423 -0.0845  0.4716
  602MOL0     C79373   7.740   4.245   9.854  0.9803 -0.4227  0.1730
  602MOL0     C79374   7.650   4.311   9.960 -0.1582  0.2199 -0.6077
  602MOL0     C79375   7.553   4.218  10.030  0.3678  0.0765 -0.6571
  602MOL0    Cl79376   7.442   4.313  10.135  0.2019 -0.0895 -0.0295
  602MOL0     C79377   8.477   3.902   9.648 -1.2320 -0.7868  0.1352
  602MOL0     C79378   8.598   3.837   9.612 -0.0399 -0.1010 -0.3255
  602MOL0     O79379   8.915   3.814   9.588  1.1059  0.4990 -0.0529
  602MOL0     C79380   9.069   3.571   9.588  0.1053  0.6199  0.2972
  602MOL0     C79381   9.138   3.449   9.583 -0.2440  0.0758 -0.2278
  602MOL0     N79382   8.922   2.565   9.386 -0.0195  0.8307  0.0931
  602MOL0     N79383   8.991   2.496   9.302 -0.2257  0.5128 -0.1088
  602MOL0     C79384  10.283   2.235   9.102  0.4540 -0.3611  0.4876
  602MOL0     C79385  10.418   2.261   9.135  0.2098 -0.0962 -0.2599
  602MOL0     C79386  10.851   2.251   9.098  0.0916  0.4129  0.1630
  602MOL0     C79387  10.924   2.134   9.141  0.4540 -0.2824 -0.5825
  602MOL0     C79388  11.065   2.129   9.129  0.6648  0.3588  0.2852
  602MOL0     C79389  11.134   2.251   9.108 -0.2847 -0.7363 -0.8264
  602MOL0     O79390  11.269   2.281   9.139  0.5510 -0.0790 -1.2908
  602MOL0     C79391  11.356   2.179   9.199 -0.3254 -0.2197  0.1918
  602MOL0     C79392  11.478   2.249   9.264  0.0581 -0.3307  0.1636
  602MOL0     C79393  11.593   2.153   9.307  0.2475 -0.5694 -0.2800
  602MOL0     C79394  11.717   2.231   9.358 -0.2054 -0.2443  0.6982
  602MOL0     C79395  11.827   2.145   9.378 -2.0250  1.7830  0.2856
  602MOL0     C79396  11.920   2.073   9.417  0.4049 -0.8830 -0.1730
  602MOL0     C79397  11.060   2.355   9.061 -0.4392  0.4509  0.6818
  602MOL0     C79398  10.925   2.356   9.047  0.3029  0.1449 -0.1856
  602MOL0     H79399  10.509   2.395   8.846  0.0778 -1.9947 -0.4820
  602MOL0     H79400  10.253   2.362   8.791 -0.6581 -0.2202 -0.4076
  602MOL0     H79401  10.033   2.327   9.147  0.5226 -2.8587  2.5171
  602MOL0     H79402   9.968   2.161   9.102 -1.3859  0.0201  0.8635
  602MOL0     H79403   9.834   2.262   8.921  1.3042  1.2224 -1.1867
  602MOL0     H79404   9.897   2.428   8.974  2.7637 -0.5200 -0.3327
  602MOL0     H79405   9.808   2.407   9.184 -1.2827  2.2556 -1.3504
  602MOL0     H79406   9.729   2.246   9.155  1.7151 -0.3078  0.5418
  602MOL0     H79407   9.675   2.503   9.000  1.6785  0.9931  2.4262
  602MOL0     H79408   9.608   2.340   8.968 -0.3639 -0.5287  1.2735
  602MOL0     H79409   9.550   2.497   9.218 -4.1025 -0.5556  1.8375
  602MOL0     H79410   9.492   2.339   9.186 -0.2584  1.3926  0.8688
  602MOL0     H79411   9.362   2.412   8.991 -3.6150 -0.3766  2.5705
  602MOL0     H79412   9.415   2.580   9.008  1.2738 -1.8825 -4.0330
  602MOL0     H79413   9.286   2.409   9.236  2.0010 -0.1369  1.3121
  602MOL0     H79414   9.334   2.579   9.240 -1.5144  0.0217  0.2137
  602MOL0     H79415   9.131   2.453   9.058  0.5073 -1.2429  1.7393
  602MOL0     H79416   9.172   2.629   9.050  3.2169 -0.3647 -0.1071
  602MOL0     H79417   9.100   2.797   9.255 -0.5094 -1.2426 -1.7171
  602MOL0     H79418   8.801   2.777   9.501 -0.8343 -0.5355 -1.3543
  602MOL0     H79419   8.853   2.881   9.360  2.9965  1.2861 -0.7496
  602MOL0     H79420   9.080   2.841   9.535  0.0695  1.3179 -0.9362
  602MOL0     H79421   8.944   2.884   9.635  2.9245 -1.8532  1.5290
  602MOL0     H79422   9.048   3.030   9.381  2.0837  4.1099  0.8303
  602MOL0     H79423   8.904   3.080   9.476 -1.6296 -2.7678  3.2676
  602MOL0     H79424   9.158   3.048   9.610 -0.4358 -0.3354 -1.0886
  602MOL0     H79425   9.024   3.160   9.650  2.5062  2.4007  0.9374
  602MOL0     H79426   8.946   3.288   9.352  1.1995 -0.5466 -0.3642
  602MOL0     H79427   8.824   3.516   9.362  1.8087  1.6446 -2.1212
  602MOL0     H79428   8.578   3.834   9.281  0.1341 -0.2046 -0.3579
  602MOL0     H79429   8.380   3.960   9.316  1.2811 -2.3976 -0.7128
  602MOL0     H79430   8.188   4.167   9.668 -3.8012 -0.9954  0.8670
  602MOL0     H79431   8.329   4.084   9.740  0.6772 -1.3293  0.0496
  602MOL0     H79432   8.198   3.880   9.778 -0.7965 -0.9234 -0.1528
  602MOL0     H79433   8.079   3.927   9.662  2.7696 -0.4394 -0.4483
  602MOL0     H79434   8.100   4.034   9.945  0.6951 -0.3285 -0.4153
  602MOL0     H79435   7.985   3.926   9.879  2.8028 -1.5113  1.2907
  602MOL0     H79436   8.035   4.232   9.837 -2.4413  2.0311 -1.4844
  602MOL0     H79437   7.938   4.140   9.717 -2.1354  0.6229  0.8385
  602MOL0     H79438   7.891   4.198  10.005  1.6166 -0.1555  0.2272
  602MOL0     H79439   7.811   4.058   9.926  1.8323 -0.6191  0.1129
  602MOL0     H79440   7.674   4.188   9.787 -1.1270  1.3370  0.6386
  602MOL0     H79441   7.782   4.330   9.799  1.9021 -0.4823  0.7764
  602MOL0     H79442   7.709   4.368  10.032 -2.2342  0.9032  0.6461
  602MOL0     H79443   7.593   4.384   9.902  1.3840  0.8535 -1.3642
  602MOL0     H79444   7.609   4.151  10.095  0.5155  0.5827 -0.2482
  602MOL0     H79445   7.510   4.151   9.955  1.1855 -0.4167 -0.6880
  602MOL0     H79446   8.452   3.919   9.752  0.4132  1.3658  0.2562
  602MOL0     H79447   8.660   3.795   9.690 -2.6119 -3.6730  0.0526
  602MOL0     H79448   9.101   3.646   9.659 -0.2911  2.2251 -1.1627
  602MOL0     H79449   9.221   3.424   9.647 -1.4708  0.0966  1.4194
  602MOL0     H79450  10.215   2.177   9.163 -0.5840  0.4070  0.0751
  602MOL0     H79451  10.463   2.225   9.228  1.4368  0.1606 -0.7413
  602MOL0     H79452  10.858   2.049   9.158  1.9822 -1.6364 -1.2044
  602MOL0     H79453  11.119   2.036   9.149 -0.2553 -0.8464 -2.3394
  602MOL0     H79454  11.388   2.110   9.120  2.3449  1.7662 -0.6009
  602MOL0     H79455  11.311   2.121   9.280 -0.7774 -0.3530 -0.1497
  602MOL0     H79456  11.513   2.331   9.200 -2.0895  1.8555  1.6204
  602MOL0     H79457  11.440   2.301   9.352  1.4817  1.2964 -0.1423
  602MOL0     H79458  11.619   2.090   9.222  2.1046 -2.3479  1.4868
  602MOL0     H79459  11.552   2.087   9.384 -1.6314  0.2924 -0.4748
  602MOL0     H79460  11.746   2.298   9.277  1.1880 -0.4753  0.9776
  602MOL0     H79461  11.700   2.292   9.446 -2.1939 -0.4250  0.4843
  602MOL0     H79462  12.002   2.013   9.451  0.1540 -1.0106  0.2028
  602MOL0     H79463  11.125   2.439   9.036  0.6678  0.0755  2.1769
  602MOL0     H79464  10.882   2.448   9.007  2.0198 -0.5784 -4.0786
  603MOL0     O79465   3.405   6.512   9.362 -0.2898  0.1203 -0.0622
  603MOL0     C79466   3.484   6.445   9.424 -0.6268  0.3689 -0.1131
  603MOL0     O79467   3.508   6.451   9.554  0.8414  0.2611 -0.9233
  603MOL0     C79468   3.421   6.528   9.624  0.7133 -0.1362  0.1624
  603MOL0     C79469   3.315   6.464   9.681 -0.1902  0.8207  0.2277
  603MOL0     C79470   3.227   6.532   9.769  0.6486 -0.3471  0.6885
  603MOL0     C79471   3.236   6.667   9.784  0.8417  0.4420 -0.4965
  603MOL0     O79472   3.152   6.745   9.854 -0.3996  0.3598  0.3400
  603MOL0     C79473   3.016   6.696   9.877  0.3000 -0.9149 -0.9244
  603MOL0     C79474   2.955   6.809   9.968 -0.7042 -0.5527  0.7479
  603MOL0     C79475   2.817   6.764  10.021 -0.2656  0.0605 -0.1981
  603MOL0     C79476   2.762   6.842  10.143 -0.8333  0.2135  1.0932
  603MOL0     C79477   2.630   6.769  10.180 -0.3343  0.1343 -0.7998
  603MOL0     C79478   2.567   6.849  10.290  0.5034  0.0142 -0.8153
  603MOL0     C79479   2.429   6.790  10.331  0.4668 -0.5449 -0.0047
  603MOL0     C79480   2.359   6.882  10.438 -0.2027 -0.7080  1.1661
  603MOL0     N79481   2.220   6.847  10.471  0.5177  0.6374 -0.0871
  603MOL0     C79482   2.116   6.937  10.466  0.1102  0.4725 -0.0332
  603MOL0     C79483   2.015   6.866  10.530  0.1390  0.4205 -0.7134
  603MOL0     C79484   1.892   6.928  10.589  0.2281  0.1665 -0.1328
  603MOL0     C79485   1.883   6.921  10.737  0.5544 -0.3216  0.0121
  603MOL0     C79486   1.798   7.022  10.806 -0.7586  0.1728 -0.6219
  603MOL0     C79487   1.646   7.001  10.790 -0.3787  0.1131 -0.0658
  603MOL0     O79488   1.603   6.874  10.827  0.3152 -1.2294  0.1334
  603MOL0     C79489   1.467   6.858  10.803 -0.2186  0.1926 -0.3344
  603MOL0     C79490   1.415   6.735  10.837 -0.2290  0.6576  0.1601
  603MOL0     C79491   1.285   6.713  10.816 -0.1465 -0.6825 -1.5738
  603MOL0     C79492   1.197   6.800  10.766  0.4496  0.0571  0.1281
  603MOL0     C79493   1.050   6.767  10.756  0.3640  0.4196 -0.1618
  603MOL0     O79494   0.966   6.849  10.691  0.1458 -0.8091  0.1971
  603MOL0     C79495   0.830   6.828  10.688  0.6580 -0.7183 -0.7734
  603MOL0     C79496   0.760   6.856  10.572 -0.3719 -0.6701  0.1827
  603MOL0     C79497   0.628   6.813  10.563  0.0433 -0.0057  0.1048
  603MOL0     C79498   0.549   6.754  10.669 -0.1491 -0.3761  0.2736
  603MOL0     O79499   0.413   6.740  10.652 -0.1524  0.5719  0.3353
  603MOL0     C79500   0.341   6.675  10.758 -0.2539  0.6975 -0.0664
  603MOL0     C79501   0.197   6.650  10.720  0.2240  0.3451 -0.3006
  603MOL0     C79502   0.107   6.773  10.750 -0.6689 -0.7065  0.5544
  603MOL0     C79503  -0.038   6.727  10.756  0.5881 -0.2148  0.5963
  603MOL0     C79504  -0.143   6.838  10.751  0.1390 -0.5980  0.4452
  603MOL0     C79505  -0.269   6.781  10.686  0.7510  0.6863  0.3081
  603MOL0     C79506  -0.347   6.679  10.766  0.4666 -0.9819 -0.1182
  603MOL0     C79507  -0.495   6.718  10.777  0.9954 -0.1118 -0.0913
  603MOL0    Cl79508  -0.589   6.749  10.617  0.4560  0.4724  0.3432
  603MOL0     C79509   0.622   6.734  10.786  0.8607  0.8551  0.1434
  603MOL0     C79510   0.752   6.773  10.797  0.7682 -0.0955 -0.0648
  603MOL0     O79511   1.011   6.663  10.813  0.0886 -0.0888  0.5307
  603MOL0     C79512   1.240   6.935  10.737 -1.0804  0.4828 -0.5248
  603MOL0     C79513   1.378   6.957  10.747 -1.0752 -0.0727 -0.4663
  603MOL0     N79514   2.053   6.744  10.557  1.2097 -0.4925 -0.2964
  603MOL0     N79515   2.175   6.727  10.526 -0.0333  0.6579 -0.6207
  603MOL0     C79516   3.359   6.733   9.753 -0.5324  0.2653  0.6309
  603MOL0     C79517   3.451   6.667   9.668 -0.0757 -0.4709 -0.0909
  603MOL0     C79518   3.557   6.346   9.346 -0.1733 -0.8733 -0.8327
  603MOL0     C79519   3.695   6.333   9.356  0.7084 -0.4012  0.1707
  603MOL0     C79520   3.764   6.237   9.280 -0.1357  0.5204  0.3137
  603MOL0     C79521   3.695   6.174   9.170 -0.1033  0.2235 -0.8208
  603MOL0     O79522   3.777   6.084   9.110  0.1302 -0.1710 -0.4793
  603MOL0     C79523   3.750   6.046   8.972 -0.1188 -0.0444  0.6751
  603MOL0     C79524   3.826   5.923   8.937 -0.0883 -0.0520  0.0111
  603MOL0     C79525   3.981   5.947   8.956  0.2002  0.6147  0.0241
  603MOL0     C79526   4.053   5.830   8.894 -0.3845  0.3816  0.9120
  603MOL0     C79527   4.116   5.875   8.765 -0.1477 -0.5160 -0.0703
  603MOL0     C79528   4.167   5.911   8.660 -0.6332  0.9390 -0.0134
  603MOL0     C79529   3.553   6.183   9.163  0.5056 -0.7115  1.0924
  603MOL0     C79530   3.487   6.262   9.260 -0.0315  0.8071 -0.4980
  603MOL0     H79531   3.280   6.363   9.663  0.3066  0.5654  0.6471
  603MOL0     H79532   3.157   6.473   9.827  0.7309 -3.1620 -1.8692
  603MOL0     H79533   3.023   6.598   9.925  0.1004  0.0002  1.0751
  603MOL0     H79534   2.945   6.678   9.796 -2.0544 -1.8361  1.1968
  603MOL0     H79535   2.960   6.907   9.918  2.1073 -0.6084  0.8089
  603MOL0     H79536   3.017   6.819  10.057  1.1842  0.7618 -0.6352
  603MOL0     H79537   2.826   6.657  10.040  3.1383  0.3757  0.5548
  603MOL0     H79538   2.741   6.766   9.942  1.0210 -0.4606 -1.4936
  603MOL0     H79539   2.832   6.838  10.227 -1.3669  1.5811  1.6458
  603MOL0     H79540   2.743   6.948  10.123  0.2403  0.5155  1.5804
  603MOL0     H79541   2.630   6.667  10.219 -0.9732  0.6663  0.6551
  603MOL0     H79542   2.560   6.772  10.096 -2.9462 -0.0701  1.2451
  603MOL0     H79543   2.546   6.950  10.256 -1.2299  0.2461  0.7518
  603MOL0     H79544   2.636   6.834  10.374  1.2136  0.6140 -1.2866
  603MOL0     H79545   2.375   6.771  10.238 -1.0650 -1.3084  1.0051
  603MOL0     H79546   2.451   6.690  10.369  0.8166 -1.1724 -1.7650
  603MOL0     H79547   2.356   6.984  10.400 -1.5304 -2.1386 -3.1843
  603MOL0     H79548   2.420   6.877  10.529  2.3148  1.4565 -0.2540
  603MOL0     H79549   2.113   7.039  10.431 -1.3593  0.7493  0.8179
  603MOL0     H79550   1.807   6.870  10.554 -0.7320  0.5787  1.4250
  603MOL0     H79551   1.883   7.034  10.561 -1.4091 -0.5306 -2.5596
  603MOL0     H79552   1.987   6.939  10.766  0.8663  1.3010 -1.8974
  603MOL0     H79553   1.847   6.825  10.774  2.2395 -0.4354  1.4872
  603MOL0     H79554   1.825   7.010  10.912  1.2044 -1.9325 -1.2989
  603MOL0     H79555   1.832   7.126  10.796 -2.2228  1.3749  4.0511
  603MOL0     H79556   1.624   7.020  10.685 -2.5752  0.7725  0.4584
  603MOL0     H79557   1.600   7.075  10.856  3.3122 -0.0933  3.1353
  603MOL0     H79558   1.492   6.665  10.866  3.1330  4.0646  0.1543
  603MOL0     H79559   1.261   6.610  10.839  1.6366 -0.6257  1.0792
  603MOL0     H79560   0.805   6.908  10.488  0.2907 -0.5951  0.5803
  603MOL0     H79561   0.584   6.857  10.474  1.6650  1.4520 -0.0486
  603MOL0     H79562   0.360   6.741  10.844 -0.1824  2.6135 -1.4952
  603MOL0     H79563   0.375   6.576  10.787 -2.3808  0.1740  0.8307
  603MOL0     H79564   0.157   6.573  10.787 -2.4767  0.3651 -1.7629
  603MOL0     H79565   0.189   6.609  10.619  3.8599 -1.6963  0.0701
  603MOL0     H79566   0.117   6.856  10.680  0.8306  0.5380  2.1536
  603MOL0     H79567   0.131   6.820  10.846 -2.4439 -0.4953  0.9334
  603MOL0     H79568  -0.052   6.660  10.670  2.3940  0.9257 -0.6446
  603MOL0     H79569  -0.049   6.670  10.849  1.9339 -1.0840  0.2430
  603MOL0     H79570  -0.114   6.926  10.693  0.2705  0.2272  1.7285
  603MOL0     H79571  -0.163   6.866  10.855  2.6132  0.9158  0.5937
  603MOL0     H79572  -0.257   6.744  10.584  1.3071  2.9669 -0.5140
  603MOL0     H79573  -0.342   6.861  10.670 -0.7747 -0.9991 -1.6956
  603MOL0     H79574  -0.338   6.585  10.711  1.1355 -0.6200 -0.6390
  603MOL0     H79575  -0.298   6.670  10.864  0.7290 -0.2222 -0.1688
  603MOL0     H79576  -0.509   6.804  10.842 -2.6612 -0.3395 -0.3957
  603MOL0     H79577  -0.552   6.646  10.835  3.3524 -0.7073  1.6566
  603MOL0     H79578   0.570   6.700  10.875  0.9629  1.2889  0.3662
  603MOL0     H79579   0.807   6.762  10.890  4.3409 -1.2887 -2.1088
  603MOL0     H79580   1.174   7.011  10.695 -0.7436 -0.4415 -2.8774
  603MOL0     H79581   1.403   7.056  10.710  2.0173 -0.8430 -0.7753
  603MOL0     H79582   3.378   6.834   9.789 -0.3433  0.3969  0.1664
  603MOL0     H79583   3.547   6.715   9.649 -0.0065  0.1555  1.6058
  603MOL0     H79584   3.763   6.393   9.416  1.3163 -0.1922 -0.7079
  603MOL0     H79585   3.871   6.224   9.294  0.3012  0.1857 -2.7328
  603MOL0     H79586   3.774   6.129   8.905  0.6492 -0.3166  0.6006
  603MOL0     H79587   3.645   6.015   8.964 -0.6009  1.7179 -0.2394
  603MOL0     H79588   3.795   5.849   9.012  0.4301 -0.4768 -0.1800
  603MOL0     H79589   3.803   5.895   8.834 -1.3507  1.7346 -0.2167
  603MOL0     H79590   4.004   5.955   9.062 -1.6143 -0.1765  0.5318
  603MOL0     H79591   4.007   6.044   8.912 -1.7695  1.0988 -0.1844
  603MOL0     H79592   4.133   5.796   8.960  1.6867 -1.2275 -2.1892
  603MOL0     H79593   3.998   5.738   8.877  1.0111 -0.5271  1.1478
  603MOL0     H79594   4.232   5.946   8.582 -0.4545  1.8559  0.5306
  603MOL0     H79595   3.512   6.114   9.090  0.9053 -0.4166  0.5800
  603MOL0     H79596   3.378   6.264   9.259 -0.0433  0.3900 -0.3456
  604MOL0     O79597   7.596   1.971  10.664 -0.0166 -0.4279  0.3123
  604MOL0     C79598   7.543   2.034  10.570 -0.2902 -0.1958 -0.4161
  604MOL0     O79599   7.423   1.998  10.512  0.7098 -0.9788 -0.0314
  604MOL0     C79600   7.330   1.923  10.568  0.5475 -0.3805 -0.1151
  604MOL0     C79601   7.250   1.846  10.481  0.5949  0.1892  0.1964
  604MOL0     C79602   7.164   1.753  10.535  0.2238 -0.5735  0.1648
  604MOL0     C79603   7.146   1.740  10.674  0.1642 -0.4170  0.1343
  604MOL0     O79604   7.064   1.639  10.727 -0.3079  0.1981 -0.1959
  604MOL0     C79605   6.932   1.626  10.665  0.1659 -0.0264  0.1153
  604MOL0     C79606   6.846   1.764  10.676  1.7325  0.4720  0.1142
  604MOL0     C79607   6.775   1.788  10.807 -0.6385 -0.4674  0.4558
  604MOL0     C79608   6.694   1.665  10.849 -0.7591  0.4950 -0.3133
  604MOL0     C79609   6.544   1.694  10.894 -0.4758 -0.7965 -0.3356
  604MOL0     C79610   6.447   1.590  10.938  0.5466  0.8436  0.5964
  604MOL0     C79611   6.294   1.623  10.942 -0.1569  0.1338  0.4250
  604MOL0     C79612   6.241   1.658  11.075 -0.2226  0.4514 -0.8527
  604MOL0     N79613   6.100   1.668  11.076  0.6358 -0.0457 -0.0280
  604MOL0     C79614   6.001   1.581  11.029 -0.4084 -0.2846  0.2233
  604MOL0     C79615   5.887   1.635  11.063 -0.1693  0.6481 -0.6636
  604MOL0     C79616   5.741   1.587  11.047 -0.9972  0.0704 -0.3887
  604MOL0     C79617   5.642   1.696  11.014  0.2201 -0.0442 -0.1194
  604MOL0     C79618   5.499   1.651  11.014  0.7807 -0.4872 -0.8223
  604MOL0     C79619   5.446   1.637  11.154 -0.2017 -0.3415 -0.4719
  604MOL0     O79620   5.304   1.674  11.164  1.1614  0.3761  0.0226
  604MOL0     C79621   5.195   1.581  11.175 -0.5187 -0.3541 -0.3005
  604MOL0     C79622   5.209   1.441  11.197 -0.3005  0.0284 -0.0063
  604MOL0     C79623   5.099   1.360  11.223 -0.3886 -0.4779  0.0989
  604MOL0     C79624   4.973   1.417  11.241  0.6969 -0.7763  0.1901
  604MOL0     C79625   4.850   1.334  11.277  0.1640  0.0497  0.2403
  604MOL0     O79626   4.737   1.391  11.327  0.4400 -0.0712 -0.6737
  604MOL0     C79627   4.636   1.307  11.356 -0.3636  0.4959 -0.4593
  604MOL0     C79628   4.524   1.299  11.281  0.1970  0.3147  0.1613
  604MOL0     C79629   4.418   1.221  11.322 -0.0049 -0.0716  0.0028
  604MOL0     C79630   4.412   1.155  11.444  0.3268  0.3534 -0.3268
  604MOL0     O79631   4.299   1.080  11.463  0.0165  0.7194 -0.3586
  604MOL0     C79632   4.270   1.021  11.592 -0.2071 -1.0419 -0.7419
  604MOL0     C79633   4.135   0.963  11.602  0.3373 -0.0437 -0.5011
  604MOL0     C79634   4.087   0.895  11.471 -0.2014 -0.6405 -0.2290
  604MOL0     C79635   3.972   0.791  11.506  0.0130 -0.1959 -0.3354
  604MOL0     C79636   3.900   0.746  11.377  0.3398 -0.3958  0.1472
  604MOL0     C79637   3.757   0.692  11.417  0.0417  0.2709  0.0932
  604MOL0     C79638   3.681   0.644  11.289  0.1420  0.8541  0.2269
  604MOL0     C79639   3.539   0.599  11.314 -0.3443 -0.7167  0.6432
  604MOL0    Cl79640   3.441   0.618  11.169 -0.1615 -0.0735  0.3484
  604MOL0     C79641   4.532   1.162  11.525  0.0452  0.8929 -0.3446
  604MOL0     C79642   4.640   1.244  11.482  0.2881  0.3179 -0.1911
  604MOL0     O79643   4.854   1.222  11.235  0.3513  0.2883 -0.1293
  604MOL0     C79644   4.957   1.556  11.225  0.4460  0.5684 -0.4204
  604MOL0     C79645   5.063   1.638  11.187  0.3349  0.3369 -0.1020
  604MOL0     N79646   5.920   1.756  11.117  0.6179 -0.6288 -0.2322
  604MOL0     N79647   6.044   1.778  11.122  0.7790 -0.1704  0.4357
  604MOL0     C79648   7.222   1.821  10.761  0.0570  0.3277  0.1559
  604MOL0     C79649   7.309   1.914  10.705  0.9146 -0.7326 -0.6180
  604MOL0     C79650   7.631   2.137  10.515 -0.7535  0.0163 -0.5322
  604MOL0     C79651   7.592   2.238  10.435  0.2786 -0.1543 -0.0763
  604MOL0     C79652   7.687   2.340  10.399  0.6474 -0.1743  0.5690
  604MOL0     C79653   7.820   2.336  10.438 -0.4549 -0.1113 -0.4800
  604MOL0     O79654   7.925   2.415  10.404  0.2993 -0.1642 -0.1756
  604MOL0     C79655   7.914   2.554  10.421  0.0800  0.5760  0.5998
  604MOL0     C79656   8.049   2.621  10.401  0.0755  0.2588  1.1731
  604MOL0     C79657   8.088   2.618  10.256  0.3355  0.2678 -0.2176
  604MOL0     C79658   8.213   2.703  10.216  1.3818  0.2210 -0.7448
  604MOL0     C79659   8.340   2.638  10.246  0.7400  0.6566 -0.1033
  604MOL0     C79660   8.442   2.578  10.278  0.5453 -0.5914 -1.6875
  604MOL0     C79661   7.863   2.235  10.523  0.2790 -0.7489  0.8437
  604MOL0     C79662   7.774   2.139  10.561  0.0642 -0.0626 -0.3324
  604MOL0     H79663   7.266   1.842  10.374  0.2098 -2.7254  0.1626
  604MOL0     H79664   7.135   1.672  10.469 -0.5713 -2.2336  2.4178
  604MOL0     H79665   6.876   1.536  10.693  0.5272 -0.3594 -0.2206
  604MOL0     H79666   6.954   1.620  10.558 -2.1695  2.9250 -0.6831
  604MOL0     H79667   6.770   1.772  10.599  1.5687  0.7357  0.3025
  604MOL0     H79668   6.909   1.849  10.650 -1.6267  4.2705  3.1139
  604MOL0     H79669   6.716   1.877  10.785  0.8170  0.4261 -0.0243
  604MOL0     H79670   6.837   1.812  10.894 -2.5504  0.7736  1.5495
  604MOL0     H79671   6.667   1.612  10.758 -3.0396  0.4400  0.3181
  604MOL0     H79672   6.737   1.602  10.927 -2.9492  2.8601  3.1487
  604MOL0     H79673   6.504   1.724  10.797  2.0334  1.5809 -0.7411
  604MOL0     H79674   6.539   1.774  10.969  0.8579 -1.8170  0.8964
  604MOL0     H79675   6.472   1.560  11.040  0.5278  1.6272  0.8441
  604MOL0     H79676   6.464   1.511  10.865 -1.0609 -0.3256  1.4129
  604MOL0     H79677   6.273   1.691  10.859  3.3596  0.9457  0.0348
  604MOL0     H79678   6.248   1.533  10.900 -0.8042  1.0144 -0.8062
  604MOL0     H79679   6.280   1.760  11.078  0.1571  0.3134 -1.0243
  604MOL0     H79680   6.282   1.587  11.147  0.5599  0.7634 -0.9842
  604MOL0     H79681   6.016   1.491  10.971  1.6809  1.6586 -2.5227
  604MOL0     H79682   5.709   1.539  11.140 -1.2766  1.1024  0.0678
  604MOL0     H79683   5.744   1.521  10.960 -3.1612 -1.9225  0.9300
  604MOL0     H79684   5.666   1.734  10.914 -4.5170 -1.3458 -1.9994
  604MOL0     H79685   5.651   1.780  11.083 -0.0663 -0.0897 -0.0249
  604MOL0     H79686   5.438   1.722  10.957  0.4908 -0.0668 -0.0012
  604MOL0     H79687   5.494   1.551  10.971 -1.6921 -2.5786  3.7030
  604MOL0     H79688   5.505   1.693  11.228  0.3307 -2.7272  1.0179
  604MOL0     H79689   5.463   1.533  11.183 -1.9678 -0.7773 -0.9433
  604MOL0     H79690   5.307   1.395  11.207 -0.4480  0.0319  1.6626
  604MOL0     H79691   5.118   1.255  11.239  0.9451 -0.0657  1.5368
  604MOL0     H79692   4.516   1.350  11.185  0.8370 -0.6497 -0.4240
  604MOL0     H79693   4.333   1.207  11.257  1.0841 -1.2765 -1.2229
  604MOL0     H79694   4.272   1.089  11.678  0.9482 -0.6525 -1.0548
  604MOL0     H79695   4.341   0.941  11.618  2.4833  1.6104  0.7432
  604MOL0     H79696   4.061   1.038  11.630  1.9950  0.8079  2.0303
  604MOL0     H79697   4.145   0.884  11.677 -2.3781  0.8928  0.9889
  604MOL0     H79698   4.170   0.853  11.414  0.6129 -0.3954  0.7443
  604MOL0     H79699   4.051   0.978  11.409  1.3110  0.4509  0.2890
  604MOL0     H79700   4.022   0.701  11.543  3.3306  1.1750 -1.0321
  604MOL0     H79701   3.905   0.841  11.576 -2.2602 -1.5235 -1.4770
  604MOL0     H79702   3.954   0.659  11.337  0.2500 -1.4284  2.1434
  604MOL0     H79703   3.887   0.831  11.310 -1.5134 -1.1168 -0.4679
  604MOL0     H79704   3.702   0.772  11.469 -0.3545 -0.0996  0.2521
  604MOL0     H79705   3.776   0.602  11.477  1.1354  0.4466  0.0280
  604MOL0     H79706   3.671   0.739  11.236 -0.5211 -0.1388 -1.5333
  604MOL0     H79707   3.725   0.572  11.218  0.1035 -0.8256  1.8477
  604MOL0     H79708   3.489   0.661  11.388  1.8894 -1.5036  2.9730
  604MOL0     H79709   3.545   0.494  11.347 -1.3781 -0.1835  2.6852
  604MOL0     H79710   4.538   1.101  11.615 -1.8624 -2.6868 -2.3975
  604MOL0     H79711   4.724   1.257  11.551  1.0873 -0.5777 -0.9662
  604MOL0     H79712   4.861   1.603  11.245 -0.3191 -1.5492  1.3585
  604MOL0     H79713   5.044   1.744  11.185 -0.6610  0.1698  0.2214
  604MOL0     H79714   7.204   1.811  10.868  1.0314 -1.3182  0.2021
  604MOL0     H79715   7.357   1.977  10.779  0.6046 -0.2800 -0.7979
  604MOL0     H79716   7.493   2.234  10.391 -0.1010  0.9188  0.6607
  604MOL0     H79717   7.667   2.425  10.334  0.8656 -2.7761 -3.1803
  604MOL0     H79718   7.876   2.567  10.523  1.4205 -2.5498  1.6358
  604MOL0     H79719   7.846   2.596  10.346  3.8170  1.6711 -2.4747
  604MOL0     H79720   8.025   2.722  10.435  0.1854  1.0681 -0.9960
  604MOL0     H79721   8.124   2.576  10.466  1.5636 -1.1465 -1.3086
  604MOL0     H79722   8.000   2.660  10.206  0.1457 -0.1904 -0.2694
  604MOL0     H79723   8.093   2.518  10.213 -0.1703  0.3138 -0.3935
  604MOL0     H79724   8.220   2.723  10.108  1.6659  2.0828 -0.4159
  604MOL0     H79725   8.200   2.802  10.260 -2.0423 -0.0195 -0.8812
  604MOL0     H79726   8.525   2.523  10.317 -0.1149  0.1972  1.1039
  604MOL0     H79727   7.967   2.238  10.554 -0.2439 -0.3734  2.6770
  604MOL0     H79728   7.812   2.061  10.626  1.4371  0.0850 -0.9264
  605MOL0     O79729   3.640   6.574   5.594 -0.4365 -0.4824  0.6783
  605MOL0     C79730   3.553   6.610   5.678 -1.5150  0.4271  0.1030
  605MOL0     O79731   3.572   6.705   5.771  0.3426 -0.0607 -0.3057
  605MOL0     C79732   3.676   6.796   5.770  0.0350 -0.2509  1.4367
  605MOL0     C79733   3.694   6.863   5.888  0.3480 -0.8549 -0.4069
  605MOL0     C79734   3.795   6.957   5.912  0.9401 -0.0437  0.6389
  605MOL0     C79735   3.888   6.981   5.813 -0.1457 -0.1341 -0.1620
  605MOL0     O79736   3.986   7.078   5.825 -0.0366 -0.2626  0.0206
  605MOL0     C79737   4.047   7.086   5.953  0.1049 -0.2044  1.4469
  605MOL0     C79738   4.048   7.227   6.010 -0.3540 -0.6582  0.4602
  605MOL0     C79739   3.910   7.281   6.046 -0.3385  0.0101 -0.5844
  605MOL0     C79740   3.832   7.334   5.932 -0.5747  0.4380  0.5034
  605MOL0     C79741   3.689   7.381   5.962  0.2800  0.0166  0.6334
  605MOL0     C79742   3.601   7.289   6.035  0.2595 -0.4525 -0.0338
  605MOL0     C79743   3.455   7.337   6.052 -0.0766  0.0996  0.1642
  605MOL0     C79744   3.431   7.463   6.129  0.6686 -0.5274 -0.0238
  605MOL0     N79745   3.283   7.509   6.120 -0.2743  0.1118 -0.1397
  605MOL0     C79746   3.211   7.522   6.004 -0.0829  0.1823 -0.4527
  605MOL0     C79747   3.091   7.563   6.048  0.3500  0.7609  0.3753
  605MOL0     C79748   2.974   7.594   5.946 -0.2253 -0.0544 -0.1999
  605MOL0     C79749   2.832   7.604   6.010  0.7667  1.1073  0.4964
  605MOL0     C79750   2.771   7.480   6.092  0.1855  0.1829  1.0019
  605MOL0     C79751   2.734   7.355   6.008  0.4167  0.6325 -0.0053
  605MOL0     O79752   2.852   7.301   5.936  0.1095 -0.4621 -0.5800
  605MOL0     C79753   2.937   7.235   6.022  0.4879 -0.3193 -0.5259
  605MOL0     C79754   3.064   7.186   5.977  0.3225  0.0395 -0.5011
  605MOL0     C79755   3.151   7.115   6.064 -0.5357 -0.0427  0.3842
  605MOL0     C79756   3.126   7.095   6.190 -0.4383  0.2544 -0.5350
  605MOL0     C79757   3.235   7.037   6.275  0.0967 -0.0478 -0.6450
  605MOL0     O79758   3.339   6.980   6.216  0.2274  0.7435  0.7543
  605MOL0     C79759   3.438   6.923   6.299  0.2270  0.0352 -0.5293
  605MOL0     C79760   3.419   6.858   6.423 -0.0893 -0.2149  0.1949
  605MOL0     C79761   3.529   6.807   6.498  0.3822  0.2669  1.1826
  605MOL0     C79762   3.657   6.826   6.455  0.4501  0.0675  1.3606
  605MOL0     O79763   3.759   6.780   6.533  0.3572  0.0298  0.2051
  605MOL0     C79764   3.881   6.852   6.535 -0.2111 -0.0716 -0.2078
  605MOL0     C79765   3.996   6.798   6.627  0.7443  0.1972  1.0728
  605MOL0     C79766   4.096   6.909   6.655  0.0607  0.1621  0.2985
  605MOL0     C79767   4.210   6.894   6.556 -0.3982 -0.5885 -0.6785
  605MOL0     C79768   4.322   6.996   6.587 -0.2366  0.1326 -0.0778
  605MOL0     C79769   4.399   6.967   6.722  0.0024 -0.7036 -0.0661
  605MOL0     C79770   4.520   7.064   6.737  0.6067  0.1958  0.3398
  605MOL0     C79771   4.606   7.045   6.857 -0.1295  0.0308  0.1424
  605MOL0    Cl79772   4.659   6.876   6.875 -0.3546  0.1262  0.1457
  605MOL0     C79773   3.683   6.890   6.330 -0.4195 -0.0059  0.0670
  605MOL0     C79774   3.572   6.938   6.259  0.1483  0.3288  0.2898
  605MOL0     O79775   3.206   7.037   6.394  0.2789 -0.1513  0.1031
  605MOL0     C79776   3.002   7.144   6.243  0.1716 -0.3852  0.2156
  605MOL0     C79777   2.914   7.206   6.157  0.4516  0.2343  1.1356
  605MOL0     N79778   3.094   7.580   6.180 -0.1578  0.1226 -0.2918
  605MOL0     N79779   3.214   7.542   6.231  0.4401  0.1866  0.0256
  605MOL0     C79780   3.874   6.917   5.696  0.3285  0.1319 -0.2578
  605MOL0     C79781   3.770   6.826   5.672 -0.4818  0.9131 -0.6488
  605MOL0     C79782   3.412   6.556   5.659 -0.0207  0.1937  0.4248
  605MOL0     C79783   3.309   6.590   5.753 -0.0090 -0.3263 -0.3867
  605MOL0     C79784   3.170   6.560   5.714  0.4919  0.6751 -0.2747
  605MOL0     C79785   3.138   6.478   5.605  0.5748  0.7582 -0.0702
  605MOL0     O79786   3.006   6.444   5.564  0.4211 -0.4284 -0.1601
  605MOL0     C79787   2.890   6.447   5.647 -0.2099  0.2000 -0.3373
  605MOL0     C79788   2.803   6.560   5.598 -0.8380 -0.1226  0.2099
  605MOL0     C79789   2.675   6.560   5.670  0.6555  0.0361  0.5577
  605MOL0     C79790   2.574   6.450   5.640  0.4565 -0.6873  0.5623
  605MOL0     C79791   2.452   6.460   5.713  1.1157  0.4348 -0.5728
  605MOL0     C79792   2.366   6.502   5.791  0.2596  0.4798 -0.2815
  605MOL0     C79793   3.246   6.428   5.531  0.8392 -0.2198  0.1735
  605MOL0     C79794   3.374   6.479   5.549 -1.0375  0.7978  0.4110
  605MOL0     H79795   3.613   6.851   5.959 -0.1109 -0.0827 -0.7856
  605MOL0     H79796   3.795   7.009   6.007  3.5832  3.9632 -1.2721
  605MOL0     H79797   4.143   7.036   5.937  0.3314  0.8848 -1.1297
  605MOL0     H79798   3.998   7.022   6.026  0.4898 -0.1000  1.8036
  605MOL0     H79799   4.096   7.295   5.938 -0.2203 -0.6052  0.5970
  605MOL0     H79800   4.107   7.212   6.101 -1.3320  0.6804  1.3587
  605MOL0     H79801   3.919   7.370   6.110 -1.2685  0.8765 -1.6153
  605MOL0     H79802   3.848   7.207   6.098 -3.1531  2.1321 -0.6882
  605MOL0     H79803   3.890   7.417   5.891 -0.2183  0.9678  1.9936
  605MOL0     H79804   3.830   7.258   5.854  2.6930 -0.6819  1.3625
  605MOL0     H79805   3.647   7.392   5.862 -2.1862 -2.9906  1.1913
  605MOL0     H79806   3.702   7.476   6.014  0.3277 -0.1752  0.9787
  605MOL0     H79807   3.631   7.282   6.140 -1.9465 -0.2720  0.6573
  605MOL0     H79808   3.600   7.191   5.987 -0.7998 -1.0180  1.0832
  605MOL0     H79809   3.410   7.340   5.952  0.4919 -1.2176 -0.1497
  605MOL0     H79810   3.414   7.255   6.111  1.3358 -2.8377 -2.6003
  605MOL0     H79811   3.492   7.545   6.091  0.9112 -1.6481 -2.2422
  605MOL0     H79812   3.452   7.452   6.235 -2.0809  1.6507  0.8809
  605MOL0     H79813   3.237   7.503   5.900 -1.4229 -1.6105 -0.5154
  605MOL0     H79814   2.967   7.508   5.878 -1.5843 -0.6328  0.6202
  605MOL0     H79815   3.000   7.682   5.887 -0.2367 -1.3079 -2.1992
  605MOL0     H79816   2.764   7.606   5.924  0.7573  1.0221  0.5021
  605MOL0     H79817   2.816   7.697   6.066 -0.1132  0.3626  1.5193
  605MOL0     H79818   2.835   7.454   6.177 -0.1472 -0.2353  1.1253
  605MOL0     H79819   2.677   7.520   6.131  1.6487  4.7954  0.4545
  605MOL0     H79820   2.661   7.387   5.932  0.4866 -0.8302 -0.7293
  605MOL0     H79821   2.675   7.286   6.069 -0.7756 -0.3135 -2.1178
  605MOL0     H79822   3.100   7.222   5.881  4.0169 -1.4152  0.2000
  605MOL0     H79823   3.242   7.083   6.015 -1.8896  0.8406 -2.9722
  605MOL0     H79824   3.314   6.843   6.447 -1.3104  1.5752 -3.2363
  605MOL0     H79825   3.500   6.744   6.581  0.5311  0.1278  1.1306
  605MOL0     H79826   3.852   6.953   6.566  1.0652  0.1053  0.4923
  605MOL0     H79827   3.928   6.855   6.436 -0.7706 -1.1941 -0.5176
  605MOL0     H79828   4.030   6.710   6.571 -2.3808  0.2215 -1.1672
  605MOL0     H79829   3.951   6.762   6.721 -1.0100  2.9702  1.4074
  605MOL0     H79830   4.138   6.864   6.746  0.4835 -0.0223  0.0133
  605MOL0     H79831   4.062   7.011   6.674 -0.3245  0.0248  0.3483
  605MOL0     H79832   4.245   6.791   6.561 -0.1381 -0.4562  0.3845
  605MOL0     H79833   4.179   6.929   6.457 -0.4056  0.7299 -0.2278
  605MOL0     H79834   4.286   7.099   6.577 -2.8369 -0.7815 -1.1093
  605MOL0     H79835   4.398   6.987   6.508 -0.5054  0.8337 -0.4348
  605MOL0     H79836   4.429   6.862   6.722  0.3391 -0.6831  2.4614
  605MOL0     H79837   4.339   6.983   6.812  2.0108  4.6741  0.7376
  605MOL0     H79838   4.583   7.039   6.651  1.0968 -0.0841  0.7716
  605MOL0     H79839   4.482   7.166   6.742 -0.7865 -0.3289  3.9286
  605MOL0     H79840   4.546   7.064   6.946  0.4583 -0.1246  0.5776
  605MOL0     H79841   4.692   7.112   6.860  1.5966 -2.1085  2.5279
  605MOL0     H79842   3.777   6.889   6.275 -1.9527  1.5284 -2.8298
  605MOL0     H79843   3.596   6.983   6.163  2.8920  1.3831  1.3881
  605MOL0     H79844   2.977   7.124   6.347 -0.5004  2.0887  0.5968
  605MOL0     H79845   2.819   7.229   6.205  0.2064 -1.3080  1.4464
  605MOL0     H79846   3.933   6.956   5.613  0.4147  2.6046  0.8898
  605MOL0     H79847   3.751   6.776   5.577  0.5769 -1.0927  0.1344
  605MOL0     H79848   3.330   6.660   5.833 -1.0037  1.3754 -1.5385
  605MOL0     H79849   3.086   6.602   5.770  1.9744 -0.1248  2.8076
  605MOL0     H79850   2.910   6.448   5.755  0.7747  1.6112 -0.5106
  605MOL0     H79851   2.843   6.350   5.630 -2.7263  1.6378 -2.2462
  605MOL0     H79852   2.861   6.648   5.628 -0.9332 -0.3828  1.1896
  605MOL0     H79853   2.797   6.554   5.489 -0.2945 -2.1582  0.2590
  605MOL0     H79854   2.636   6.660   5.652  1.0394  0.2764  1.0196
  605MOL0     H79855   2.697   6.562   5.778  0.0036  1.3096  0.6835
  605MOL0     H79856   2.559   6.461   5.533  2.4323  0.6984  0.3823
  605MOL0     H79857   2.617   6.350   5.657 -1.2571 -2.1037 -2.6177
  605MOL0     H79858   2.294   6.526   5.867  0.4496  0.9484 -0.2493
  605MOL0     H79859   3.228   6.364   5.445 -0.5087 -1.0812  1.0503
  605MOL0     H79860   3.445   6.452   5.471 -0.4895 -0.3319  1.2568
  606MOL0     O79861   4.604   2.549   0.431 -1.0093  0.3731 -0.1408
  606MOL0     C79862   4.632   2.549   0.548  0.0110  0.2202 -0.3379
  606MOL0     O79863   4.547   2.517   0.658 -0.2668 -0.3614 -0.5845
  606MOL0     C79864   4.416   2.488   0.627 -0.8369  0.4393  0.2231
  606MOL0     C79865   4.358   2.382   0.685  0.4162  1.1754  0.0169
  606MOL0     C79866   4.227   2.333   0.652 -0.5354 -0.1532 -0.0367
  606MOL0     C79867   4.150   2.419   0.568  0.3180 -0.0405  0.1208
  606MOL0     O79868   4.020   2.391   0.525 -0.6575 -0.0794  0.8979
  606MOL0     C79869   3.948   2.274   0.570  0.5714  0.3763 -0.1252
  606MOL0     C79870   3.886   2.294   0.704  0.1811  0.4825 -0.5414
  606MOL0     C79871   3.792   2.412   0.720 -0.0737  0.3637  0.2081
  606MOL0     C79872   3.655   2.363   0.664 -0.1319 -0.6305  0.6959
  606MOL0     C79873   3.547   2.474   0.639 -0.2095 -0.2511  0.3703
  606MOL0     C79874   3.506   2.526   0.775  0.6803  0.0694 -0.3206
  606MOL0     C79875   3.386   2.625   0.777  0.5355  0.3189 -0.4502
  606MOL0     C79876   3.417   2.745   0.698  0.0962 -0.0114  0.2970
  606MOL0     N79877   3.330   2.858   0.715 -0.3522  0.3912  0.7665
  606MOL0     C79878   3.291   2.922   0.834  0.1666 -0.1732  0.3098
  606MOL0     C79879   3.202   3.019   0.793  0.0241  0.0449 -0.2180
  606MOL0     C79880   3.124   3.116   0.867 -0.7055  0.4552  0.3753
  606MOL0     C79881   3.009   3.057   0.933 -0.1703  0.3547 -0.3068
  606MOL0     C79882   2.894   3.028   0.830 -0.6882 -0.2888  0.1700
  606MOL0     C79883   2.791   2.947   0.906  0.0634  0.3595  0.8664
  606MOL0     O79884   2.715   2.881   0.803 -0.6126  1.2334 -0.3509
  606MOL0     C79885   2.621   2.785   0.833 -0.0183  1.0681 -0.6405
  606MOL0     C79886   2.584   2.746   0.964 -0.3628 -0.6935  0.3125
  606MOL0     C79887   2.487   2.650   0.984 -0.7276  0.1259  0.2637
  606MOL0     C79888   2.419   2.591   0.880 -1.0480 -0.6382  0.8061
  606MOL0     C79889   2.306   2.506   0.907  0.3648  0.7131  1.0244
  606MOL0     O79890   2.294   2.470   1.036  0.0510  0.0953  0.3806
  606MOL0     C79891   2.225   2.358   1.075 -0.5605 -0.1301  0.9095
  606MOL0     C79892   2.284   2.291   1.182  0.5314 -0.4653 -0.7873
  606MOL0     C79893   2.218   2.187   1.243 -0.1294 -0.2180  0.8587
  606MOL0     C79894   2.104   2.131   1.187 -0.2753  1.0886  0.1912
  606MOL0     O79895   2.043   2.011   1.223  0.4019  0.5044 -0.0706
  606MOL0     C79896   1.899   2.018   1.241  0.4565 -0.4443 -0.4796
  606MOL0     C79897   1.856   1.912   1.345 -0.7184  1.4834  0.1285
  606MOL0     C79898   1.762   1.806   1.295  0.3600  0.7124 -0.3048
  606MOL0     C79899   1.710   1.715   1.408 -1.1821 -0.1881  0.2042
  606MOL0     C79900   1.572   1.668   1.391  0.3222  0.2384  0.0150
  606MOL0     C79901   1.522   1.580   1.500 -0.2639 -0.3391 -0.7509
  606MOL0     C79902   1.382   1.532   1.459 -0.2067  0.3613  0.7575
  606MOL0     C79903   1.270   1.603   1.528 -0.4686 -0.5197 -0.7149
  606MOL0    Cl79904   1.271   1.790   1.497  0.1906 -0.1060 -0.3691
  606MOL0     C79905   2.054   2.189   1.073 -0.4103 -0.0472 -0.9958
  606MOL0     C79906   2.122   2.300   1.014  0.7591  0.2071 -0.5247
  606MOL0     O79907   2.229   2.489   0.817  0.7083  0.3823  0.6525
  606MOL0     C79908   2.447   2.628   0.750 -0.8381 -0.4897  0.3743
  606MOL0     C79909   2.543   2.727   0.726 -1.1677  0.3482  0.2964
  606MOL0     N79910   3.195   3.014   0.651  0.7705 -0.6061  0.4623
  606MOL0     N79911   3.271   2.919   0.611  0.7185 -0.2985  0.3915
  606MOL0     C79912   4.211   2.538   0.520  0.2689  0.3279  0.1935
  606MOL0     C79913   4.344   2.571   0.546  0.4434 -0.1882 -0.6211
  606MOL0     C79914   4.770   2.595   0.569  0.3495 -0.4013  0.4392
  606MOL0     C79915   4.845   2.552   0.681  0.4609  0.0110 -0.7194
  606MOL0     C79916   4.983   2.587   0.696 -0.4460  0.5956 -0.1124
  606MOL0     C79917   5.047   2.665   0.607  0.0734 -0.3419 -0.3081
  606MOL0     O79918   5.178   2.703   0.613  0.2219 -0.2571 -0.4154
  606MOL0     C79919   5.260   2.672   0.727  0.9540 -0.4595 -0.3727
  606MOL0     C79920   5.405   2.692   0.682  0.1919 -0.7969 -0.3944
  606MOL0     C79921   5.495   2.751   0.796  0.0051  0.5798 -0.4235
  606MOL0     C79922   5.600   2.645   0.846  0.8577 -0.2880 -0.7753
  606MOL0     C79923   5.669   2.697   0.965 -0.9371 -0.6223 -0.8611
  606MOL0     C79924   5.727   2.763   1.054  0.4566  0.5425  0.0477
  606MOL0     C79925   4.977   2.709   0.492 -0.0033 -1.0855  0.3775
  606MOL0     C79926   4.843   2.675   0.468  0.2183  0.2198 -0.3400
  606MOL0     H79927   4.417   2.316   0.748  1.0169  1.8916  0.2147
  606MOL0     H79928   4.191   2.237   0.687  0.7457 -1.0166 -1.0252
  606MOL0     H79929   4.015   2.187   0.571  0.4561  0.1402 -2.9803
  606MOL0     H79930   3.872   2.253   0.494  0.6878 -1.4452  0.2037
  606MOL0     H79931   3.968   2.299   0.775 -0.8216  2.8722  0.5383
  606MOL0     H79932   3.834   2.200   0.726  1.2784 -0.0345 -0.1075
  606MOL0     H79933   3.837   2.498   0.671  0.4526 -0.7388 -1.3271
  606MOL0     H79934   3.788   2.434   0.827  1.9856  1.6596  0.0589
  606MOL0     H79935   3.679   2.323   0.564  0.5086 -3.3597  1.8447
  606MOL0     H79936   3.605   2.283   0.719 -3.5025 -0.9031 -2.3122
  606MOL0     H79937   3.452   2.451   0.589 -0.6329 -2.3044  1.9631
  606MOL0     H79938   3.593   2.557   0.585 -0.0683  0.8431  2.1042
  606MOL0     H79939   3.594   2.561   0.829  1.3180  1.7162 -2.2999
  606MOL0     H79940   3.459   2.441   0.825 -0.4828  0.7856 -0.1535
  606MOL0     H79941   3.305   2.566   0.735  0.8173 -0.1846 -0.2890
  606MOL0     H79942   3.384   2.650   0.884 -0.6891 -0.3875 -0.2945
  606MOL0     H79943   3.434   2.728   0.591 -2.2153  0.2183 -0.1674
  606MOL0     H79944   3.512   2.781   0.737  1.3533  2.2473 -4.1260
  606MOL0     H79945   3.304   2.905   0.941 -1.1709  1.3595  0.7527
  606MOL0     H79946   3.089   3.194   0.800 -0.1127 -0.8162 -1.4952
  606MOL0     H79947   3.187   3.169   0.940 -0.8053 -0.0975  0.8725
  606MOL0     H79948   2.974   3.119   1.016  1.8717  0.6417  0.4049
  606MOL0     H79949   3.034   2.966   0.990  1.3166 -0.9006 -2.7968
  606MOL0     H79950   2.860   3.129   0.805  0.5198 -0.1269 -0.9262
  606MOL0     H79951   2.934   2.983   0.739 -0.1509 -0.0682  0.2894
  606MOL0     H79952   2.719   3.010   0.959 -1.8836 -1.3584  0.3928
  606MOL0     H79953   2.825   2.871   0.976  0.4039 -0.0520  0.2699
  606MOL0     H79954   2.628   2.797   1.048  2.3061  1.1746 -2.0339
  606MOL0     H79955   2.484   2.608   1.084  2.2953  2.3492  1.4412
  606MOL0     H79956   2.360   2.330   1.248  0.4970 -0.5175 -0.7171
  606MOL0     H79957   2.254   2.142   1.335  0.5025 -2.4126 -0.3918
  606MOL0     H79958   1.839   1.997   1.152 -1.7376  1.3224  0.4609
  606MOL0     H79959   1.866   2.118   1.272 -0.4617 -0.4161 -1.4739
  606MOL0     H79960   1.810   1.965   1.429 -0.7190 -3.2932  3.6117
  606MOL0     H79961   1.951   1.871   1.380  1.8908  4.5536 -2.7397
  606MOL0     H79962   1.811   1.736   1.225 -0.4404 -2.7405  2.3036
  606MOL0     H79963   1.669   1.844   1.254 -1.4415 -3.5053 -0.7048
  606MOL0     H79964   1.771   1.624   1.405 -0.8590 -0.0601  1.9284
  606MOL0     H79965   1.704   1.773   1.500 -0.7022  0.2471 -0.0327
  606MOL0     H79966   1.566   1.600   1.305  1.3348 -3.0727  2.3466
  606MOL0     H79967   1.512   1.759   1.383  4.7707  3.6542  1.0971
  606MOL0     H79968   1.518   1.628   1.598 -0.8617 -0.1504 -0.8643
  606MOL0     H79969   1.592   1.497   1.514  1.1435  0.9480  0.1398
  606MOL0     H79970   1.374   1.528   1.350  2.9089 -0.5281  0.4890
  606MOL0     H79971   1.387   1.426   1.485  0.7246  0.5457  1.3674
  606MOL0     H79972   1.287   1.587   1.635  2.0825  1.0861 -0.8067
  606MOL0     H79973   1.173   1.553   1.512 -0.9920 -0.7330  2.4979
  606MOL0     H79974   1.973   2.134   1.026  1.1248 -3.1883 -0.2586
  606MOL0     H79975   2.070   2.327   0.923 -0.8501 -2.3856 -0.4943
  606MOL0     H79976   2.382   2.610   0.665  0.1527  1.1227 -0.8056
  606MOL0     H79977   2.564   2.748   0.621 -1.7409  1.1772  0.3359
  606MOL0     H79978   4.167   2.611   0.454  0.9084  0.1895 -0.4030
  606MOL0     H79979   4.379   2.656   0.488 -2.1731  1.5814  0.1892
  606MOL0     H79980   4.804   2.478   0.750  0.4209  0.4396 -0.2796
  606MOL0     H79981   5.026   2.553   0.790  1.8890  2.9728 -0.2231
  606MOL0     H79982   5.241   2.570   0.763  0.7934 -2.1742 -4.7379
  606MOL0     H79983   5.239   2.741   0.810 -0.8515 -3.1955  1.6353
  606MOL0     H79984   5.452   2.599   0.649  0.9934 -0.2058 -0.9458
  606MOL0     H79985   5.416   2.762   0.599  1.0232 -1.4587 -0.8691
  606MOL0     H79986   5.433   2.778   0.881  0.8840  0.0747  0.3932
  606MOL0     H79987   5.557   2.837   0.770  0.9883  0.9934  2.8531
  606MOL0     H79988   5.544   2.555   0.871 -2.5768  1.8107 -0.3087
  606MOL0     H79989   5.677   2.618   0.773  1.7007 -0.6048  0.1967
  606MOL0     H79990   5.770   2.822   1.132 -0.8197 -1.8089  2.7287
  606MOL0     H79991   5.019   2.776   0.418 -1.7842 -0.6329 -0.2874
  606MOL0     H79992   4.806   2.733   0.384 -2.6490 -0.7814  0.1395
  607MOL0     O79993   3.186  10.504   2.226 -0.1444  0.1205 -0.8079
  607MOL0     C79994   3.210  10.391   2.255  0.6395 -0.7940 -0.4817
  607MOL0     O79995   3.161  10.280   2.191  0.5929 -0.8309 -0.3119
  607MOL0     C79996   3.063  10.294   2.098 -0.2943 -0.0438  0.3982
  607MOL0     C79997   2.949  10.214   2.114 -0.2084 -0.9864 -0.0442
  607MOL0     C79998   2.839  10.216   2.027 -0.5532  0.6195  0.2538
  607MOL0     C79999   2.848  10.295   1.916 -0.4751 -1.1786  0.3452
  607MOL0     O80000   2.748  10.282   1.827  0.6058 -0.4858  0.3156
  607MOL0     C80001   2.742  10.384   1.719  0.3027  0.3513  0.4733
  607MOL0     C80002   2.609  10.369   1.643  0.0868 -0.0921  0.0680
  607MOL0     C80003   2.608  10.238   1.572 -1.1226 -0.1087 -0.1189
  607MOL0     C80004   2.493  10.236   1.464 -0.6457  0.2035 -0.4381
  607MOL0     C80005   2.438  10.086   1.437 -0.2223  0.0785  0.0780
  607MOL0     C80006   2.309  10.106   1.348  0.8332 -0.2805 -0.3886
  607MOL0     C80007   2.279   9.987   1.257  0.1596  1.1555 -1.1047
  607MOL0     C80008   2.252   9.860   1.351  0.3535 -0.2026  0.2575
  607MOL0     N80009   2.119   9.853   1.390  0.3145  0.6487  0.0710
  607MOL0     C80010   2.082   9.826   1.519 -0.9065 -0.8864 -0.0993
  607MOL0     C80011   1.948   9.824   1.515  0.2285 -0.2310 -0.3535
  607MOL0     C80012   1.866   9.792   1.647 -0.7536 -1.3519 -0.4286
  607MOL0     C80013   1.753   9.894   1.674 -0.6136 -0.4377  0.2414
  607MOL0     C80014   1.647   9.830   1.768 -0.3629 -0.8928  1.0059
  607MOL0     C80015   1.527   9.919   1.807 -0.2013 -0.5644  0.8884
  607MOL0     O80016   1.445   9.834   1.886 -0.3064 -0.0975 -0.0050
  607MOL0     C80017   1.316   9.872   1.910 -0.1295  1.0532 -0.5791
  607MOL0     C80018   1.271  10.002   1.869  0.0341 -0.0855  0.4910
  607MOL0     C80019   1.139  10.046   1.899 -0.2248  1.2224  0.3801
  607MOL0     C80020   1.046   9.961   1.960 -0.4046 -0.8710  0.4944
  607MOL0     C80021   0.906   9.999   1.990 -0.1679  1.0310  0.5471
  607MOL0     O80022   0.826   9.899   2.053 -0.0291 -0.4079  0.7993
  607MOL0     C80023   0.706   9.942   2.076  1.2370 -0.3288  0.5201
  607MOL0     C80024   0.656   9.916   2.199  0.0630 -0.0642  0.0098
  607MOL0     C80025   0.517   9.956   2.222 -0.3996  0.0559 -0.1251
  607MOL0     C80026   0.441  10.026   2.128  0.4274  0.5609 -0.3093
  607MOL0     O80027   0.312  10.058   2.137  0.3786 -0.3235  0.1773
  607MOL0     C80028   0.245  10.038   2.268 -0.5724  0.2500  0.6697
  607MOL0     C80029   0.114  10.104   2.274 -0.4785  0.1791  0.1128
  607MOL0     C80030   0.008  10.000   2.215  0.5787  0.1821 -0.7593
  607MOL0     C80031  -0.132  10.077   2.186 -0.0088  1.0059 -0.4771
  607MOL0     C80032  -0.222   9.979   2.098  0.2234 -0.1166  0.4668
  607MOL0     C80033  -0.319  10.046   2.001 -0.8243  0.4924  0.2344
  607MOL0     C80034  -0.396   9.952   1.910 -0.5290 -0.1248  0.2180
  607MOL0     C80035  -0.504   9.872   1.986 -0.4786 -0.0290  0.8335
  607MOL0    Cl80036  -0.630   9.990   2.051 -0.3178  0.3541  0.3765
  607MOL0     C80037   0.491  10.045   2.001 -0.5850  0.0648  0.5990
  607MOL0     C80038   0.623  10.004   1.972  0.4629  0.2210  0.2071
  607MOL0     O80039   0.873  10.114   1.962  0.2197  0.0066  0.8064
  607MOL0     C80040   1.094   9.834   1.997 -0.5765  0.5888 -0.2253
  607MOL0     C80041   1.222   9.788   1.981 -1.0651 -0.8893  0.7780
  607MOL0     N80042   1.910   9.855   1.386  0.0199  0.7142 -0.2550
  607MOL0     N80043   2.014   9.858   1.308  0.2563  0.2279  0.6418
  607MOL0     C80044   2.962  10.374   1.898  0.7483 -0.7787 -0.6072
  607MOL0     C80045   3.069  10.367   1.985  0.5220  0.5277  0.1639
  607MOL0     C80046   3.306  10.356   2.363  0.4919 -0.3570  0.0582
  607MOL0     C80047   3.325  10.222   2.408  0.3622 -0.6644 -0.3514
  607MOL0     C80048   3.424  10.202   2.511  0.8083 -0.5705 -0.8954
  607MOL0     C80049   3.497  10.301   2.573 -0.2844 -0.3007 -1.4642
  607MOL0     O80050   3.580  10.272   2.685  0.6256  0.2305 -0.4503
  607MOL0     C80051   3.676  10.365   2.719 -0.6747 -0.1359 -0.3065
  607MOL0     C80052   3.802  10.284   2.752  0.2628  0.1690 -0.3137
  607MOL0     C80053   3.925  10.376   2.804  0.3579 -0.5638  0.3265
  607MOL0     C80054   4.049  10.292   2.792 -0.3369  0.1202  0.0021
  607MOL0     C80055   4.156  10.389   2.798  0.4340 -0.4193 -0.8010
  607MOL0     C80056   4.244  10.475   2.799 -0.2125  0.0787  0.1959
  607MOL0     C80057   3.475  10.431   2.523 -1.0261  0.4935 -0.7769
  607MOL0     C80058   3.394  10.457   2.415  0.2716  1.1682  0.4218
  607MOL0     H80059   2.942  10.158   2.206  2.1491  1.9882  2.1309
  607MOL0     H80060   2.767  10.135   2.034 -0.5566  0.5096 -0.8139
  607MOL0     H80061   2.824  10.366   1.648  2.0126  0.0698  2.4285
  607MOL0     H80062   2.754  10.481   1.767  4.4275  0.1407  0.2639
  607MOL0     H80063   2.604  10.451   1.571  0.1159  1.3170  1.5907
  607MOL0     H80064   2.521  10.370   1.708 -2.1678 -0.9792 -2.8064
  607MOL0     H80065   2.594  10.161   1.648  0.3499 -1.4133 -1.1079
  607MOL0     H80066   2.702  10.219   1.519 -0.8925 -0.2245  0.3238
  607MOL0     H80067   2.421  10.312   1.496 -0.5930 -1.3443  4.0595
  607MOL0     H80068   2.538  10.270   1.370 -0.8734  1.3563 -0.1471
  607MOL0     H80069   2.418  10.029   1.528 -1.2002  2.6391  1.5557
  607MOL0     H80070   2.513  10.028   1.383  0.7974  1.0942  0.3902
  607MOL0     H80071   2.318  10.187   1.274 -0.9924 -0.4024 -0.7987
  607MOL0     H80072   2.224  10.141   1.408  0.1918  0.7336 -1.7982
  607MOL0     H80073   2.188   9.996   1.196  0.3454 -1.2570 -1.8241
  607MOL0     H80074   2.370   9.981   1.196  0.1000 -0.2168 -1.0879
  607MOL0     H80075   2.324   9.842   1.431 -0.2065 -2.3217  0.3471
  607MOL0     H80076   2.263   9.778   1.279 -1.0744  1.8618 -2.5158
  607MOL0     H80077   2.144   9.814   1.608 -0.5092 -1.0015 -0.3905
  607MOL0     H80078   1.932   9.786   1.733 -2.0302  4.1033  1.3374
  607MOL0     H80079   1.812   9.703   1.615 -1.0066 -1.1822 -0.4730
  607MOL0     H80080   1.701   9.915   1.581  2.4338 -0.7842 -1.6867
  607MOL0     H80081   1.791   9.987   1.717 -0.0046 -0.7617  0.4250
  607MOL0     H80082   1.599   9.744   1.720 -0.1210 -0.8394  0.6650
  607MOL0     H80083   1.706   9.797   1.854  1.9212  4.3736  1.8481
  607MOL0     H80084   1.488   9.964   1.716  2.9427  1.3543  0.3763
  607MOL0     H80085   1.548  10.005   1.871 -0.0350  0.9025 -1.0557
  607MOL0     H80086   1.336  10.074   1.820 -0.3528 -0.3511 -0.4323
  607MOL0     H80087   1.120  10.150   1.872  1.1753  1.4105  0.0543
  607MOL0     H80088   0.706   9.862   2.278  0.7681  2.8872  1.7403
  607MOL0     H80089   0.479   9.925   2.319 -2.1347  0.9998 -0.4773
  607MOL0     H80090   0.318  10.085   2.335  1.2000 -1.2855 -0.0909
  607MOL0     H80091   0.244   9.931   2.291  3.0007  0.3506  1.9112
  607MOL0     H80092   0.122  10.191   2.208 -0.0091  0.2393  0.2492
  607MOL0     H80093   0.076  10.141   2.370  0.0698  2.4028 -0.4765
  607MOL0     H80094   0.001   9.903   2.266  3.4169  0.2939 -0.0081
  607MOL0     H80095   0.045   9.977   2.115  1.4779  1.8113 -0.8319
  607MOL0     H80096  -0.188  10.097   2.278 -0.3625  0.6151 -0.6007
  607MOL0     H80097  -0.121  10.173   2.134 -1.4069  1.1153 -0.6146
  607MOL0     H80098  -0.282   9.922   2.169 -0.0643 -2.4231 -1.4899
  607MOL0     H80099  -0.171   9.903   2.038 -1.6380 -0.8747 -0.2140
  607MOL0     H80100  -0.265  10.118   1.938  0.4037  0.7508  1.5429
  607MOL0     H80101  -0.401  10.100   2.047 -3.0003 -1.6313 -0.9254
  607MOL0     H80102  -0.452  10.021   1.846  1.4311 -1.4969 -3.2601
  607MOL0     H80103  -0.323   9.887   1.861  0.1006 -1.8151  3.1971
  607MOL0     H80104  -0.460   9.806   2.062  0.8119  1.0772  1.0716
  607MOL0     H80105  -0.554   9.810   1.911  0.1006  0.3075  0.1622
  607MOL0     H80106   0.420  10.082   1.928 -0.9492 -0.7976  0.4990
  607MOL0     H80107   0.648  10.033   1.870 -2.3435 -1.5197 -1.0925
  607MOL0     H80108   1.043   9.761   2.059  1.2848 -0.8636 -0.3050
  607MOL0     H80109   1.251   9.689   2.016  0.3476  0.7472  4.7275
  607MOL0     H80110   2.959  10.446   1.816 -1.2409  0.5225  0.5245
  607MOL0     H80111   3.152  10.429   1.953  1.0204 -0.3249 -0.2331
  607MOL0     H80112   3.273  10.139   2.361 -1.1384 -0.7006  1.2742
  607MOL0     H80113   3.435  10.101   2.549  1.0711  0.2394  1.3405
  607MOL0     H80114   3.635  10.430   2.797  0.5163 -1.3482  1.3834
  607MOL0     H80115   3.702  10.435   2.638 -2.5876 -1.0437 -1.7945
  607MOL0     H80116   3.780  10.205   2.824  0.4116 -0.7773 -1.2821
  607MOL0     H80117   3.822  10.237   2.655 -1.2689  1.2329 -1.1868
  607MOL0     H80118   3.904  10.394   2.909 -0.0024  2.3589 -0.1577
  607MOL0     H80119   3.928  10.472   2.751  1.8716 -0.3153  0.8171
  607MOL0     H80120   4.061  10.216   2.871 -1.6021  0.1599  0.2536
  607MOL0     H80121   4.052  10.241   2.695 -1.2124  2.2702 -1.2208
  607MOL0     H80122   4.315  10.555   2.798  0.6988 -0.6909  0.9286
  607MOL0     H80123   3.524  10.510   2.579  1.8652  1.2720 -4.0606
  607MOL0     H80124   3.377  10.558   2.378 -1.9335  1.0787  1.0843
  608MOL0     O80125   9.135   0.853   4.192 -0.4482 -0.2617  0.3847
  608MOL0     C80126   9.187   0.962   4.194 -0.4299 -0.4353  0.5870
  608MOL0     O80127   9.119   1.084   4.198  0.5735 -0.1694  1.0123
  608MOL0     C80128   8.977   1.089   4.197  0.0972  0.3991  1.2431
  608MOL0     C80129   8.915   1.174   4.100 -0.5037  0.0353 -0.0150
  608MOL0     C80130   8.776   1.198   4.098 -0.2232  0.0012 -0.3323
  608MOL0     C80131   8.703   1.142   4.196 -0.3386 -0.1458 -0.6219
  608MOL0     O80132   8.572   1.147   4.192  0.7431  0.6880  0.7519
  608MOL0     C80133   8.500   1.025   4.171  1.1206 -0.7544 -0.2240
  608MOL0     C80134   8.364   1.030   4.250 -0.4863  0.2411 -0.8735
  608MOL0     C80135   8.266   1.124   4.181  0.4582  1.0617  0.3141
  608MOL0     C80136   8.131   1.124   4.239 -0.4093  0.0483 -0.2612
  608MOL0     C80137   8.133   1.202   4.370 -0.1894 -0.8623 -0.0172
  608MOL0     C80138   8.017   1.187   4.468  1.9134 -0.1911 -0.4624
  608MOL0     C80139   7.885   1.201   4.402  1.1204 -0.4569  0.2443
  608MOL0     C80140   7.766   1.189   4.499  0.8644  1.4570  0.2991
  608MOL0     N80141   7.717   1.043   4.501 -0.3468  0.4737 -0.0886
  608MOL0     C80142   7.585   1.006   4.521  0.3275  0.2685  0.0840
  608MOL0     C80143   7.592   0.874   4.513  0.2588  0.0625 -0.0949
  608MOL0     C80144   7.478   0.778   4.532  0.4014 -0.6610  0.3243
  608MOL0     C80145   7.373   0.833   4.632 -0.2453  0.3340 -0.4042
  608MOL0     C80146   7.248   0.746   4.615  0.5750  0.1177  0.9658
  608MOL0     C80147   7.130   0.810   4.671 -0.1393 -0.0183 -0.2610
  608MOL0     O80148   7.025   0.709   4.687  0.2018 -0.3188  0.4838
  608MOL0     C80149   6.901   0.740   4.741  0.0199  0.3209  0.6906
  608MOL0     C80150   6.809   0.649   4.696  0.3335  0.0127 -0.1980
  608MOL0     C80151   6.671   0.666   4.721  0.7089  0.5155 -0.3703
  608MOL0     C80152   6.622   0.776   4.795 -0.0914 -0.8384  0.2748
  608MOL0     C80153   6.477   0.800   4.812 -0.4522 -0.3267 -0.2608
  608MOL0     O80154   6.398   0.711   4.754  0.2845  0.1263  0.2091
  608MOL0     C80155   6.257   0.716   4.766  0.9590  0.5242  0.9450
  608MOL0     C80156   6.191   0.591   4.769  0.0371  0.3706 -0.2016
  608MOL0     C80157   6.052   0.579   4.791  0.7544  0.0527  0.4579
  608MOL0     C80158   5.977   0.694   4.797 -0.1269  0.5014 -0.2265
  608MOL0     O80159   5.838   0.696   4.797 -0.1582 -0.3437  1.2821
  608MOL0     C80160   5.778   0.578   4.849 -0.1229  0.3268 -0.2028
  608MOL0     C80161   5.624   0.584   4.853 -0.3179  0.8414  0.1661
  608MOL0     C80162   5.568   0.587   4.709 -0.5475  0.1001  0.0866
  608MOL0     C80163   5.420   0.603   4.719  0.7036  0.6389  0.3539
  608MOL0     C80164   5.352   0.632   4.587 -0.9057 -0.1271  0.4124
  608MOL0     C80165   5.217   0.560   4.567 -0.2226  0.0337 -0.1073
  608MOL0     C80166   5.156   0.619   4.445  0.6817  1.0671  0.6274
  608MOL0     C80167   5.022   0.553   4.408  0.3359 -0.1163 -0.0366
  608MOL0    Cl80168   5.045   0.375   4.363  0.0304 -0.1002 -0.2206
  608MOL0     C80169   6.043   0.815   4.788  0.6422 -0.0355 -0.4130
  608MOL0     C80170   6.181   0.828   4.778  0.3882  0.1823 -0.0625
  608MOL0     O80171   6.444   0.891   4.890  0.3926 -0.1206 -0.9208
  608MOL0     C80172   6.722   0.871   4.835  0.2402 -0.9409  0.6023
  608MOL0     C80173   6.862   0.856   4.806 -0.5620  0.3911 -0.3250
  608MOL0     N80174   7.718   0.834   4.483 -0.0976 -0.0692 -0.2146
  608MOL0     N80175   7.790   0.938   4.481  0.0114 -0.6306  0.4611
  608MOL0     C80176   8.765   1.058   4.289 -0.0205 -0.0504 -0.7463
  608MOL0     C80177   8.899   1.019   4.286  0.1230 -0.5091  0.0118
  608MOL0     C80178   9.334   0.965   4.198 -0.4398  0.0762  0.5509
  608MOL0     C80179   9.404   0.851   4.149  0.3923 -0.5898  0.6983
  608MOL0     C80180   9.540   0.855   4.140 -0.3700 -0.7593 -0.0548
  608MOL0     C80181   9.606   0.974   4.182 -0.4234  0.3688 -0.3525
  608MOL0     O80182   9.747   0.976   4.174  0.2933 -0.0506 -0.1628
  608MOL0     C80183   9.815   1.005   4.297  0.8048  0.0520  0.1710
  608MOL0     C80184   9.958   1.035   4.250 -0.4249 -0.4809  0.7347
  608MOL0     C80185  10.048   1.076   4.372 -0.6193 -0.8668 -0.3801
  608MOL0     C80186  10.193   1.086   4.332 -0.2942 -0.0285  0.1571
  608MOL0     C80187  10.274   1.101   4.449 -0.2689  1.0401 -0.2646
  608MOL0     C80188  10.340   1.135   4.548 -0.3677  0.1033  0.3063
  608MOL0     C80189   9.536   1.084   4.211  0.1299  0.4438  0.8365
  608MOL0     C80190   9.400   1.079   4.216 -0.4444 -0.3655  0.3210
  608MOL0     H80191   8.969   1.225   4.021  0.0479 -1.5567 -0.7149
  608MOL0     H80192   8.727   1.266   4.030  0.9384 -1.4590 -2.7620
  608MOL0     H80193   8.550   0.930   4.192  1.9744 -0.2803 -0.0819
  608MOL0     H80194   8.476   1.034   4.065  1.0413  1.2623 -0.0874
  608MOL0     H80195   8.392   1.073   4.346  0.3114  3.3306 -2.3502
  608MOL0     H80196   8.314   0.933   4.255 -0.2690  0.1759  0.3342
  608MOL0     H80197   8.261   1.083   4.080  2.5461 -0.4511  0.7523
  608MOL0     H80198   8.301   1.227   4.166  1.9495  0.4971 -0.2714
  608MOL0     H80199   8.067   1.180   4.170  2.7763  4.2543 -0.2376
  608MOL0     H80200   8.092   1.022   4.251 -1.2102 -0.0683 -3.0255
  608MOL0     H80201   8.139   1.309   4.348 -2.1225 -0.1114  2.6057
  608MOL0     H80202   8.221   1.171   4.427  0.4960 -0.5156 -0.8601
  608MOL0     H80203   8.034   1.258   4.549  0.8372  1.6677 -1.7827
  608MOL0     H80204   8.019   1.087   4.511  1.5332 -0.6691 -1.5010
  608MOL0     H80205   7.879   1.303   4.363  1.3449  0.0896  1.5854
  608MOL0     H80206   7.865   1.123   4.328  0.2815 -4.1101  3.9787
  608MOL0     H80207   7.684   1.253   4.466 -0.2309 -0.0798 -0.0197
  608MOL0     H80208   7.790   1.214   4.603 -0.2920  0.8211  0.7260
  608MOL0     H80209   7.499   1.069   4.543 -1.4532 -2.2810  0.9085
  608MOL0     H80210   7.505   0.678   4.566 -1.5748 -1.4220 -0.2137
  608MOL0     H80211   7.435   0.775   4.432  4.0225  0.8221 -1.4534
  608MOL0     H80212   7.336   0.934   4.616 -0.3632  0.5502  1.0769
  608MOL0     H80213   7.404   0.815   4.735 -1.2052 -1.4701 -0.3953
  608MOL0     H80214   7.222   0.724   4.511  0.6365  1.3058  0.6790
  608MOL0     H80215   7.266   0.649   4.661  1.9890 -2.1148 -3.6860
  608MOL0     H80216   7.095   0.898   4.615  1.0240 -1.1465 -2.9324
  608MOL0     H80217   7.162   0.850   4.768 -1.6732 -1.0708  0.7203
  608MOL0     H80218   6.831   0.557   4.643 -3.1148 -0.4972 -0.9874
  608MOL0     H80219   6.604   0.590   4.683  1.4021 -0.8718  1.0920
  608MOL0     H80220   6.252   0.501   4.759 -0.0399 -0.0283  2.2365
  608MOL0     H80221   6.007   0.486   4.823 -3.4355  3.0866  4.9246
  608MOL0     H80222   5.824   0.556   4.946 -1.1614 -0.2869  0.1631
  608MOL0     H80223   5.798   0.498   4.777  0.3444 -1.1736  1.5103
  608MOL0     H80224   5.591   0.672   4.910 -0.9162  0.8004 -0.1065
  608MOL0     H80225   5.575   0.500   4.904 -0.0307 -0.8566 -2.2101
  608MOL0     H80226   5.586   0.487   4.669  2.8139  0.7582 -0.3448
  608MOL0     H80227   5.624   0.660   4.650 -0.0884  0.7916  1.3207
  608MOL0     H80228   5.381   0.513   4.768 -2.5038  3.5769  3.9172
  608MOL0     H80229   5.390   0.686   4.785  1.0388  1.9636 -1.1114
  608MOL0     H80230   5.423   0.592   4.514  1.2812  1.7675  1.3763
  608MOL0     H80231   5.347   0.739   4.569 -2.1116  0.1424  2.0684
  608MOL0     H80232   5.148   0.595   4.644  0.7095  0.7679  0.4046
  608MOL0     H80233   5.216   0.451   4.574 -1.9555  0.1232  1.7775
  608MOL0     H80234   5.156   0.728   4.444  4.0574  1.1816 -0.5907
  608MOL0     H80235   5.213   0.594   4.355  0.0003  1.2424  0.1380
  608MOL0     H80236   4.989   0.610   4.321  1.4549  1.3708  0.4714
  608MOL0     H80237   4.942   0.554   4.483 -3.6445  1.2735 -3.9025
  608MOL0     H80238   5.979   0.903   4.781  0.2475 -0.3481 -0.7438
  608MOL0     H80239   6.227   0.927   4.781  1.3107 -0.0934 -2.4555
  608MOL0     H80240   6.693   0.968   4.875 -0.2370 -0.1200 -1.6121
  608MOL0     H80241   6.937   0.931   4.831 -0.9613  0.5833  0.3196
  608MOL0     H80242   8.690   1.008   4.349 -0.0961  2.8900  1.8438
  608MOL0     H80243   8.951   0.941   4.341  3.9725  1.0721 -1.0446
  608MOL0     H80244   9.344   0.761   4.139 -0.9694  0.0701  2.4271
  608MOL0     H80245   9.600   0.773   4.101  0.9182  0.7239 -1.3383
  608MOL0     H80246   9.805   0.919   4.364 -1.4269  0.7504  0.8059
  608MOL0     H80247   9.776   1.093   4.350 -0.3560 -0.1129 -0.3869
  608MOL0     H80248   9.990   0.943   4.199 -1.2459 -0.9468  1.0360
  608MOL0     H80249   9.969   1.117   4.178  0.3409  0.4597  1.9044
  608MOL0     H80250  10.041   1.007   4.455 -1.2908 -1.9168 -1.2818
  608MOL0     H80251  10.017   1.168   4.423 -0.4508 -1.0389  0.0360
  608MOL0     H80252  10.226   0.990   4.291  0.3627 -0.1261  0.8891
  608MOL0     H80253  10.210   1.168   4.261 -0.4590  2.0423  2.3804
  608MOL0     H80254  10.379   1.162   4.644 -1.7629 -1.0014  1.2095
  608MOL0     H80255   9.594   1.174   4.226 -0.0686  0.5219  1.1291
  608MOL0     H80256   9.347   1.172   4.235 -0.6913 -0.3804 -0.2608
  609MOL0     O80257  10.819   8.621   5.916  0.1992 -0.1096 -0.0744
  609MOL0     C80258  10.827   8.538   5.821 -0.2909  0.1474 -0.1489
  609MOL0     O80259  10.724   8.481   5.755  0.4628  0.0075  0.2791
  609MOL0     C80260  10.593   8.533   5.760  0.1088 -0.7772 -0.4010
  609MOL0     C80261  10.487   8.454   5.741  0.0194  1.1884  0.8784
  609MOL0     C80262  10.355   8.501   5.738 -0.8417  0.6942  0.8689
  609MOL0     C80263  10.329   8.635   5.766  0.1742 -0.2057 -0.2155
  609MOL0     O80264  10.205   8.692   5.751 -0.1517  0.3479 -0.5259
  609MOL0     C80265  10.100   8.608   5.707 -0.4563 -0.0074 -0.1229
  609MOL0     C80266   9.997   8.703   5.659 -0.0637 -0.1726 -0.2970
  609MOL0     C80267   9.881   8.642   5.588 -0.2222  0.2453  0.3081
  609MOL0     C80268   9.760   8.742   5.583 -0.9427 -0.5756 -0.1849
  609MOL0     C80269   9.633   8.661   5.559 -0.3529  0.9268 -1.6687
  609MOL0     C80270   9.518   8.756   5.524  0.7837 -0.5330  0.2962
  609MOL0     C80271   9.377   8.686   5.535  0.5255 -0.4301 -0.5540
  609MOL0     C80272   9.259   8.775   5.486 -0.7042 -0.3245  0.1605
  609MOL0     N80273   9.257   8.780   5.341  0.5350  0.7631 -0.1300
  609MOL0     C80274   9.303   8.880   5.256  0.6804 -0.3852 -0.0722
  609MOL0     C80275   9.249   8.847   5.136 -0.0029 -0.2088 -0.5324
  609MOL0     C80276   9.264   8.915   5.004 -0.0091  0.1136  0.9406
  609MOL0     C80277   9.411   8.958   4.985 -0.4233  0.5646 -1.1205
  609MOL0     C80278   9.507   8.843   4.951 -0.5580  0.0204 -0.3322
  609MOL0     C80279   9.542   8.740   5.068 -1.2159  0.0396 -0.1400
  609MOL0     O80280   9.599   8.823   5.172  0.6254  0.3036  0.3555
  609MOL0     C80281   9.735   8.824   5.171  0.2838 -0.4115 -0.3602
  609MOL0     C80282   9.805   8.931   5.126 -0.0373  0.3391  0.2375
  609MOL0     C80283   9.942   8.947   5.152 -0.6570 -0.7729  0.9356
  609MOL0     C80284  10.014   8.840   5.194 -0.0874 -0.8719  0.5558
  609MOL0     C80285  10.163   8.854   5.218  0.2851 -0.1814  0.4111
  609MOL0     O80286  10.227   8.749   5.275 -0.1958  0.2061  0.5000
  609MOL0     C80287  10.368   8.758   5.295  0.0773  0.1793  0.8424
  609MOL0     C80288  10.434   8.784   5.412  0.0954 -0.2638 -0.7277
  609MOL0     C80289  10.577   8.765   5.427  0.3953  0.1483  0.2196
  609MOL0     C80290  10.654   8.715   5.325  0.0685  0.5191  0.2099
  609MOL0     O80291  10.791   8.687   5.330  1.0199  0.1616  0.1043
  609MOL0     C80292  10.827   8.556   5.363 -0.1443 -0.2722  0.3081
  609MOL0     C80293  10.981   8.545   5.364 -0.1772  0.2825  0.2359
  609MOL0     C80294  11.036   8.577   5.217  0.2346 -0.4674  0.8937
  609MOL0     C80295  11.176   8.526   5.211 -0.0197  0.3082  0.2179
  609MOL0     C80296  11.220   8.546   5.065 -0.5678 -0.4653  0.8317
  609MOL0     C80297  11.365   8.494   5.043 -0.3017 -0.5276  0.5513
  609MOL0     C80298  11.376   8.347   5.063 -0.6251  0.0258 -0.4998
  609MOL0     C80299  11.513   8.297   5.018  0.2194 -0.1320 -0.1549
  609MOL0    Cl80300  11.519   8.111   5.014 -0.6370 -0.1216  0.0668
  609MOL0     C80301  10.585   8.694   5.205 -0.5295  0.3268 -0.1687
  609MOL0     C80302  10.448   8.710   5.184  0.3079  0.2339 -0.6716
  609MOL0     O80303  10.214   8.964   5.188 -0.0914 -0.3901  0.4803
  609MOL0     C80304   9.946   8.723   5.228  0.2436 -1.0610  0.5570
  609MOL0     C80305   9.811   8.717   5.230  0.1612 -0.3408 -1.1945
  609MOL0     N80306   9.176   8.732   5.144 -0.3907 -0.3687 -0.1023
  609MOL0     N80307   9.174   8.697   5.269  0.2860  0.3446  0.1754
  609MOL0     C80308  10.438   8.729   5.777  0.4259  0.1616  0.2226
  609MOL0     C80309  10.568   8.676   5.762 -0.0433  0.0848 -0.1607
  609MOL0     C80310  10.967   8.504   5.767  0.0853 -0.0507  0.1905
  609MOL0     C80311  10.985   8.390   5.673  0.2164  0.2780 -0.7025
  609MOL0     C80312  11.116   8.357   5.634  0.2800  0.1561 -0.0233
  609MOL0     C80313  11.229   8.422   5.674 -0.2635  0.3275 -0.1893
  609MOL0     O80314  11.350   8.391   5.613 -1.0274  0.3183 -0.6513
  609MOL0     C80315  11.471   8.450   5.669 -0.4021 -0.8338 -0.4556
  609MOL0     C80316  11.584   8.393   5.577  0.2516 -0.4692 -0.4389
  609MOL0     C80317  11.632   8.492   5.468  0.6558  0.0732  0.6655
  609MOL0     C80318  11.722   8.420   5.363 -0.3174 -0.4826  0.1948
  609MOL0     C80319  11.751   8.500   5.242  0.2001 -1.4564  0.1975
  609MOL0     C80320  11.785   8.568   5.145 -1.2899 -0.6306  0.7062
  609MOL0     C80321  11.213   8.531   5.755  0.2782  0.3110 -0.7497
  609MOL0     C80322  11.086   8.570   5.806 -0.0215  0.6448  0.2220
  609MOL0     H80323  10.504   8.354   5.704  2.0167  2.0466 -0.6878
  609MOL0     H80324  10.276   8.431   5.714  0.1221 -1.3952  3.3044
  609MOL0     H80325  10.059   8.554   5.792 -1.4383  0.8360 -0.0420
  609MOL0     H80326  10.126   8.538   5.627  1.2167  2.1691 -1.6179
  609MOL0     H80327  10.048   8.775   5.595  3.9482 -1.7155  0.8489
  609MOL0     H80328   9.962   8.754   5.750  0.9610  0.7431 -0.4016
  609MOL0     H80329   9.846   8.553   5.640 -1.3968  0.6816  0.2900
  609MOL0     H80330   9.910   8.622   5.484 -0.0841  2.7953 -0.2076
  609MOL0     H80331   9.752   8.790   5.681 -1.0149 -0.4734 -0.2403
  609MOL0     H80332   9.784   8.813   5.504  2.3481  0.2403  1.3759
  609MOL0     H80333   9.615   8.605   5.651  1.2871  1.6208 -0.8816
  609MOL0     H80334   9.645   8.576   5.492 -2.6508 -2.4375  1.8061
  609MOL0     H80335   9.533   8.769   5.416  3.3690  1.6888  0.8061
  609MOL0     H80336   9.518   8.856   5.568  1.4429 -0.9012  1.1754
  609MOL0     H80337   9.390   8.592   5.480  1.9283 -0.9389  0.5777
  609MOL0     H80338   9.360   8.662   5.640 -0.5426 -4.3283 -1.4586
  609MOL0     H80339   9.262   8.877   5.525 -2.1271 -0.9052  1.9904
  609MOL0     H80340   9.163   8.736   5.521 -1.2944  2.8886  2.7066
  609MOL0     H80341   9.360   8.970   5.276  1.8460 -0.7280 -1.5737
  609MOL0     H80342   9.201   9.005   5.002  1.2618  1.0326  1.3453
  609MOL0     H80343   9.239   8.856   4.915 -0.8175  0.2433  1.0693
  609MOL0     H80344   9.435   9.004   5.082 -3.5412  1.1350 -0.5064
  609MOL0     H80345   9.418   9.035   4.908  2.7242  0.5763 -0.9626
  609MOL0     H80346   9.460   8.786   4.870 -1.5427 -0.5432  0.6080
  609MOL0     H80347   9.605   8.884   4.927  0.0565  0.7700  2.9780
  609MOL0     H80348   9.607   8.659   5.033 -1.2826 -1.5828  3.1288
  609MOL0     H80349   9.457   8.688   5.111 -0.6848 -1.0773 -0.3953
  609MOL0     H80350   9.748   9.014   5.085  1.0192  0.5205 -0.9207
  609MOL0     H80351   9.998   9.038   5.136  1.6044 -2.4295 -1.3178
  609MOL0     H80352  10.362   8.805   5.490 -1.4541 -1.3823 -1.7909
  609MOL0     H80353  10.629   8.795   5.518 -0.1149  0.2594  0.4812
  609MOL0     H80354  10.795   8.483   5.289 -0.5801  0.1394  0.0788
  609MOL0     H80355  10.783   8.532   5.460 -0.9908  0.4515  0.1169
  609MOL0     H80356  11.016   8.446   5.396  0.3980  1.0391  2.0923
  609MOL0     H80357  11.022   8.620   5.432 -1.6003  0.6396  0.7328
  609MOL0     H80358  11.040   8.686   5.212  0.7237 -0.4252  1.8879
  609MOL0     H80359  10.967   8.545   5.139  2.2190  0.1604 -1.2465
  609MOL0     H80360  11.239   8.577   5.285 -2.0000  2.0979  0.7720
  609MOL0     H80361  11.170   8.419   5.235 -0.2620  0.8541  2.9094
  609MOL0     H80362  11.209   8.652   5.041  0.5813 -0.2499  1.1698
  609MOL0     H80363  11.147   8.493   5.004 -0.9320  1.7029 -0.6936
  609MOL0     H80364  11.435   8.534   5.117 -0.9364  0.9589  0.3845
  609MOL0     H80365  11.405   8.530   4.948  0.3864  1.3575  1.4923
  609MOL0     H80366  11.367   8.311   5.166  0.8266 -0.7310 -0.6185
  609MOL0     H80367  11.291   8.299   5.013 -1.0223  0.1612  0.0213
  609MOL0     H80368  11.597   8.334   5.078 -0.7312 -1.2894  1.9853
  609MOL0     H80369  11.529   8.337   4.917  0.0883 -0.3188 -0.2489
  609MOL0     H80370  10.638   8.664   5.115  1.0323  3.5375 -0.4446
  609MOL0     H80371  10.413   8.667   5.091 -1.3987  0.1154 -0.0222
  609MOL0     H80372  10.001   8.640   5.271 -0.9607 -2.2031 -0.0376
  609MOL0     H80373   9.767   8.624   5.264  2.3030 -2.2540 -3.2753
  609MOL0     H80374  10.413   8.834   5.791 -0.8267  0.0710 -1.0648
  609MOL0     H80375  10.662   8.726   5.743  1.1877 -1.6589  1.0156
  609MOL0     H80376  10.906   8.322   5.644  0.3155  0.0245 -0.3819
  609MOL0     H80377  11.124   8.278   5.561  2.2751 -0.8118  1.1251
  609MOL0     H80378  11.474   8.431   5.777 -1.2765  3.1943  0.4482
  609MOL0     H80379  11.458   8.559   5.666 -0.6887 -0.6907  2.5589
  609MOL0     H80380  11.666   8.361   5.642 -1.5278 -1.3599  1.5129
  609MOL0     H80381  11.552   8.300   5.530  1.0225  0.0971 -2.1653
  609MOL0     H80382  11.690   8.576   5.509  0.4755  1.0531 -0.9844
  609MOL0     H80383  11.545   8.534   5.417  1.6181  1.6403  0.2322
  609MOL0     H80384  11.819   8.391   5.407 -0.1663  0.6187  0.6061
  609MOL0     H80385  11.665   8.331   5.332  1.0358 -1.6511  0.9262
  609MOL0     H80386  11.809   8.614   5.051 -0.7149 -3.9979 -0.9270
  609MOL0     H80387  11.289   8.599   5.794 -1.5863  1.0470  1.9121
  609MOL0     H80388  11.080   8.653   5.876 -0.1713  0.6320  0.2239
  610MOL0     O80389   6.918   2.876   7.204 -0.2342  0.1624  0.0079
  610MOL0     C80390   6.973   2.770   7.226  0.8923  0.0633 -0.7568
  610MOL0     O80391   6.923   2.656   7.282  0.7552  0.5434  0.0947
  610MOL0     C80392   6.786   2.641   7.295 -0.1696 -0.0073 -0.6230
  610MOL0     C80393   6.700   2.739   7.334  0.4005  0.0049  1.0796
  610MOL0     C80394   6.568   2.712   7.352 -0.2176  0.6687 -0.5077
  610MOL0     C80395   6.514   2.585   7.344 -0.6092  0.7481 -0.8342
  610MOL0     O80396   6.387   2.571   7.359  0.5103  0.6072 -0.1269
  610MOL0     C80397   6.331   2.436   7.354  0.2484  0.3436  0.6883
  610MOL0     C80398   6.185   2.429   7.388  0.2010 -0.5820  0.4755
  610MOL0     C80399   6.134   2.297   7.336  0.3608 -0.2389 -0.3624
  610MOL0     C80400   5.988   2.280   7.362 -0.1973 -0.3052 -1.1574
  610MOL0     C80401   5.915   2.162   7.289  0.3522 -0.5555  1.0377
  610MOL0     C80402   5.888   2.181   7.135  0.6484 -0.6395  0.0224
  610MOL0     C80403   5.753   2.250   7.108  0.0414 -1.2346 -1.2764
  610MOL0     C80404   5.743   2.327   6.978  0.9344 -0.6164 -0.0711
  610MOL0     N80405   5.762   2.247   6.857 -0.0060  0.2026  0.4590
  610MOL0     C80406   5.661   2.227   6.764  0.0789 -0.0405  0.2984
  610MOL0     C80407   5.705   2.130   6.681  0.3622  0.6090 -0.4251
  610MOL0     C80408   5.631   2.064   6.570 -1.0659  0.6511 -0.1680
  610MOL0     C80409   5.481   2.031   6.605  0.6748 -0.4422 -0.0494
  610MOL0     C80410   5.403   1.934   6.511 -0.8777 -0.6646  0.5572
  610MOL0     C80411   5.259   1.927   6.549  0.5668  0.5438 -0.2414
  610MOL0     O80412   5.242   1.852   6.670 -0.1441 -0.1197  0.4627
  610MOL0     C80413   5.106   1.850   6.717  0.5155 -0.3116  0.7338
  610MOL0     C80414   5.103   1.828   6.853  0.0279  0.2412  0.4930
  610MOL0     C80415   4.980   1.829   6.916 -0.5916 -0.1101 -0.2579
  610MOL0     C80416   4.862   1.848   6.845 -0.2190 -0.0291 -1.3044
  610MOL0     C80417   4.737   1.856   6.918 -0.8707 -0.9499  0.4289
  610MOL0     O80418   4.732   1.780   7.032  0.4340 -0.3376  0.0900
  610MOL0     C80419   4.618   1.790   7.099  0.2873 -0.1409  0.0829
  610MOL0     C80420   4.626   1.852   7.224 -0.3805 -0.3736  0.6410
  610MOL0     C80421   4.517   1.848   7.309 -0.3458  0.8268 -0.2077
  610MOL0     C80422   4.403   1.776   7.271 -0.5543 -0.0475 -0.1134
  610MOL0     O80423   4.312   1.748   7.370  0.9231 -0.2771  0.9523
  610MOL0     C80424   4.223   1.863   7.404 -0.1904 -0.6631  0.2666
  610MOL0     C80425   4.098   1.865   7.316 -0.1197 -0.4460 -0.8476
  610MOL0     C80426   3.999   1.970   7.376  0.0549 -0.0655  0.9132
  610MOL0     C80427   3.856   1.946   7.331 -0.4576 -0.2541  0.9274
  610MOL0     C80428   3.766   2.060   7.388 -0.0231  0.3350 -0.0179
  610MOL0     C80429   3.749   2.074   7.542  0.7384 -0.0820 -0.9732
  610MOL0     C80430   3.681   1.951   7.615 -0.2375  0.3137 -0.6033
  610MOL0     C80431   3.535   1.906   7.579  0.0567 -0.7303  0.0620
  610MOL0    Cl80432   3.468   1.780   7.691 -0.0301 -0.0575 -0.5263
  610MOL0     C80433   4.397   1.715   7.143 -0.1979  0.3495  0.0972
  610MOL0     C80434   4.504   1.722   7.056  0.0384  0.7056  0.2099
  610MOL0     O80435   4.642   1.914   6.865  0.2839 -0.5094  0.3297
  610MOL0     C80436   4.863   1.855   6.705 -0.0176 -0.4441 -0.2890
  610MOL0     C80437   4.991   1.853   6.645  0.1778 -0.4622 -0.0788
  610MOL0     N80438   5.824   2.092   6.733 -0.7505  0.0128  0.1187
  610MOL0     N80439   5.863   2.166   6.822 -0.8708  0.0806 -0.2925
  610MOL0     C80440   6.608   2.479   7.305 -0.1094 -0.7116  0.7537
  610MOL0     C80441   6.743   2.515   7.285  0.7241 -0.1373  0.4073
  610MOL0     C80442   7.112   2.779   7.230  0.1922  0.4999  0.7942
  610MOL0     C80443   7.182   2.899   7.262 -1.0124 -0.0443  0.6667
  610MOL0     C80444   7.320   2.908   7.255 -0.7992 -0.1678 -1.0587
  610MOL0     C80445   7.401   2.804   7.210  0.3257  0.7983 -0.3653
  610MOL0     O80446   7.536   2.812   7.204 -0.7521  0.3061 -0.3397
  610MOL0     C80447   7.622   2.697   7.165  0.8014 -0.6211  0.6216
  610MOL0     C80448   7.657   2.611   7.295  0.1787 -0.0541  0.5905
  610MOL0     C80449   7.755   2.665   7.397  0.2590 -0.0057 -0.0717
  610MOL0     C80450   7.876   2.748   7.342  0.3565 -0.6214 -0.6747
  610MOL0     C80451   7.974   2.654   7.284  0.2542 -0.4360 -0.0445
  610MOL0     C80452   8.040   2.570   7.235 -0.1643 -0.1563  0.5157
  610MOL0     C80453   7.330   2.681   7.175 -0.2314 -0.3907 -0.2978
  610MOL0     C80454   7.192   2.673   7.186 -1.1926  0.2797 -0.6286
  610MOL0     H80455   6.729   2.842   7.350 -1.5821  1.1007 -1.6179
  610MOL0     H80456   6.500   2.792   7.376  1.4639  1.8454  0.5905
  610MOL0     H80457   6.393   2.362   7.406 -0.2537  0.0027  0.8106
  610MOL0     H80458   6.343   2.403   7.251 -0.4914 -0.3488  0.8122
  610MOL0     H80459   6.121   2.511   7.353 -1.9417 -2.0044  0.9136
  610MOL0     H80460   6.164   2.424   7.495 -3.0426 -1.5200 -0.1026
  610MOL0     H80461   6.189   2.212   7.377 -1.2682 -1.5417 -0.7708
  610MOL0     H80462   6.145   2.296   7.227  1.5476  0.9998 -0.2852
  610MOL0     H80463   5.971   2.275   7.470  1.0672  0.2974 -0.9177
  610MOL0     H80464   5.932   2.370   7.336  1.2004  0.3874 -1.8900
  610MOL0     H80465   5.824   2.127   7.337 -1.1965  3.2963  1.2788
  610MOL0     H80466   5.993   2.086   7.300  3.1879  2.2555  2.0070
  610MOL0     H80467   5.914   2.098   7.068 -0.5092 -1.3494  0.4306
  610MOL0     H80468   5.952   2.267   7.112  1.3948 -1.5829 -1.6399
  610MOL0     H80469   5.679   2.170   7.101  0.0403 -1.2919 -0.7166
  610MOL0     H80470   5.727   2.324   7.185 -0.3267 -1.0479 -1.5776
  610MOL0     H80471   5.824   2.400   6.985  1.2470 -1.0642  1.2408
  610MOL0     H80472   5.652   2.387   6.978  1.4989  0.2816  1.0914
  610MOL0     H80473   5.565   2.276   6.751 -0.1496  0.2596  2.5999
  610MOL0     H80474   5.692   1.977   6.545  2.4040  2.2374  2.0721
  610MOL0     H80475   5.640   2.136   6.487  1.7708  0.9301  0.2762
  610MOL0     H80476   5.426   2.125   6.598 -0.9550 -1.4530 -2.9162
  610MOL0     H80477   5.460   2.002   6.708  2.1947  0.5521  0.5721
  610MOL0     H80478   5.422   1.969   6.409 -1.2764  3.1414  1.6370
  610MOL0     H80479   5.455   1.838   6.517  1.1541  0.4154  1.4717
  610MOL0     H80480   5.213   1.860   6.476  1.8342 -1.8881  1.0265
  610MOL0     H80481   5.200   2.018   6.557 -3.3517 -1.8405  0.4426
  610MOL0     H80482   5.196   1.826   6.908  0.7325  1.9277 -0.5512
  610MOL0     H80483   4.981   1.829   7.024 -1.8721 -0.3509 -0.2268
  610MOL0     H80484   4.723   1.890   7.253 -0.1195  0.7567 -1.5965
  610MOL0     H80485   4.532   1.892   7.407 -0.7885 -0.3387  0.4033
  610MOL0     H80486   4.262   1.965   7.402 -2.5158  0.3039  1.3091
  610MOL0     H80487   4.196   1.848   7.508  2.7310 -1.4193  1.0229
  610MOL0     H80488   4.054   1.765   7.314  0.2944 -0.8050  2.3333
  610MOL0     H80489   4.124   1.906   7.218 -1.0082  0.4905 -0.7074
  610MOL0     H80490   4.041   2.067   7.351  1.9673 -1.0405  0.1209
  610MOL0     H80491   3.996   1.955   7.484 -3.7854  0.7755  1.0585
  610MOL0     H80492   3.866   1.951   7.222  0.2179  0.0828  1.0026
  610MOL0     H80493   3.814   1.850   7.364  1.7173 -2.0130 -1.0664
  610MOL0     H80494   3.668   2.052   7.340  0.7100  0.7998 -1.6549
  610MOL0     H80495   3.804   2.157   7.355 -1.1637  0.8209  0.0256
  610MOL0     H80496   3.694   2.165   7.569 -2.8406 -1.7773 -2.0408
  610MOL0     H80497   3.853   2.084   7.576  0.4440 -2.8659  1.0250
  610MOL0     H80498   3.754   1.870   7.605 -1.6964 -1.0482 -0.6253
  610MOL0     H80499   3.688   1.966   7.723 -0.3775 -0.6589 -0.4485
  610MOL0     H80500   3.544   1.859   7.480  0.9600 -0.4684  0.0144
  610MOL0     H80501   3.469   1.992   7.564 -0.3821 -0.5704  2.4734
  610MOL0     H80502   4.311   1.654   7.120  0.0051  1.0467 -2.9660
  610MOL0     H80503   4.517   1.676   6.958  1.5268  3.4796 -1.0110
  610MOL0     H80504   4.770   1.867   6.649 -0.1316  1.2114  0.2055
  610MOL0     H80505   4.993   1.864   6.537  0.0276 -2.6103 -0.3285
  610MOL0     H80506   6.572   2.380   7.281 -4.5193  1.1785 -1.9397
  610MOL0     H80507   6.804   2.438   7.239 -0.2214 -0.9597  0.4850
  610MOL0     H80508   7.124   2.981   7.303 -1.9579 -1.2404  1.8102
  610MOL0     H80509   7.368   2.999   7.289  0.1273 -1.4690  1.3276
  610MOL0     H80510   7.706   2.750   7.120 -0.8796  2.5743  0.9854
  610MOL0     H80511   7.582   2.630   7.088 -1.4495 -0.0673  1.2223
  610MOL0     H80512   7.557   2.587   7.332 -0.0687  1.6914  1.1442
  610MOL0     H80513   7.700   2.520   7.252 -1.3275  0.0279 -1.2345
  610MOL0     H80514   7.793   2.577   7.450  1.2863  0.6245  0.2796
  610MOL0     H80515   7.696   2.730   7.462  0.7274 -0.1076  0.4551
  610MOL0     H80516   7.829   2.822   7.276 -2.1895 -2.3696 -0.9635
  610MOL0     H80517   7.936   2.797   7.420  0.1888 -2.2489  0.5303
  610MOL0     H80518   8.113   2.495   7.209  1.0711  0.7458  1.2518
  610MOL0     H80519   7.377   2.590   7.140  2.9896  1.5264 -1.3878
  610MOL0     H80520   7.142   2.578   7.170 -0.6475 -0.1249  0.0025
  611MOL0     O80521   6.206   2.999   5.784 -0.0059 -0.9678 -0.4336
  611MOL0     C80522   6.201   2.992   5.905 -1.2650  0.2523  0.2258
  611MOL0     O80523   6.106   2.924   5.978  0.1862  0.0195 -0.6385
  611MOL0     C80524   5.996   2.852   5.927  0.4789 -0.2921 -0.3909
  611MOL0     C80525   5.914   2.787   6.023 -0.3466 -0.5338 -0.2390
  611MOL0     C80526   5.801   2.709   5.986 -0.9118  0.3933 -0.3293
  611MOL0     C80527   5.767   2.701   5.856  0.6823  0.0477  0.2811
  611MOL0     O80528   5.656   2.651   5.799 -0.2713  0.0922  0.2896
  611MOL0     C80529   5.555   2.604   5.889  0.5492 -0.6191  0.2588
  611MOL0     C80530   5.608   2.456   5.911 -0.2671  0.1246 -0.3700
  611MOL0     C80531   5.517   2.369   6.007 -0.7308 -1.0068  0.7012
  611MOL0     C80532   5.367   2.393   6.000 -0.3894 -0.0297 -0.4008
  611MOL0     C80533   5.289   2.290   6.077  0.0399  1.2275  0.0042
  611MOL0     C80534   5.152   2.344   6.122  0.3787 -0.0515 -0.0475
  611MOL0     C80535   5.093   2.257   6.235 -1.0660 -0.1553 -0.1293
  611MOL0     C80536   5.060   2.108   6.194  0.0426  1.0663 -0.0220
  611MOL0     N80537   4.964   2.103   6.081  0.2822  0.5277 -0.2667
  611MOL0     C80538   4.832   2.146   6.084 -0.2259  0.0291  0.7071
  611MOL0     C80539   4.791   2.153   5.955  0.9114 -0.2323  0.4518
  611MOL0     C80540   4.653   2.157   5.910  0.8967  0.5293  0.5224
  611MOL0     C80541   4.579   2.018   5.918 -0.8209 -0.5622 -0.6227
  611MOL0     C80542   4.521   1.980   6.064  0.1163 -0.7807  0.2300
  611MOL0     C80543   4.410   1.873   6.062 -0.7513 -0.7440  0.1183
  611MOL0     O80544   4.347   1.866   6.196 -0.0030 -0.6864  0.7327
  611MOL0     C80545   4.225   1.807   6.203 -0.2163 -0.3283  0.1423
  611MOL0     C80546   4.150   1.734   6.107  0.2533 -1.3644  0.4770
  611MOL0     C80547   4.024   1.690   6.128  1.5210 -0.3978  1.0909
  611MOL0     C80548   3.960   1.728   6.239 -0.7552 -0.0227  0.2753
  611MOL0     C80549   3.818   1.690   6.256 -0.3839 -1.1720  0.2163
  611MOL0     O80550   3.746   1.769   6.339 -0.5630 -0.0985  0.1415
  611MOL0     C80551   3.615   1.762   6.328  0.1681 -0.1742 -0.9151
  611MOL0     C80552   3.554   1.641   6.357  0.4147 -0.4468  0.0670
  611MOL0     C80553   3.419   1.622   6.347  0.0849 -0.3510  0.2916
  611MOL0     C80554   3.342   1.722   6.302  0.2360  0.3103 -1.2664
  611MOL0     O80555   3.202   1.728   6.295 -0.4962  0.0232 -0.0708
  611MOL0     C80556   3.127   1.634   6.375 -0.4153  0.4622  0.5416
  611MOL0     C80557   2.990   1.696   6.389 -1.1733  0.5078  0.8171
  611MOL0     C80558   2.897   1.596   6.453  0.0613  0.4821 -0.5549
  611MOL0     C80559   2.752   1.628   6.435 -0.2097 -0.0257  0.8304
  611MOL0     C80560   2.654   1.525   6.495  0.1095  0.3432  0.4983
  611MOL0     C80561   2.519   1.554   6.432  0.1852 -0.6834 -0.2565
  611MOL0     C80562   2.417   1.448   6.471 -0.3074 -0.1793 -0.2033
  611MOL0     C80563   2.274   1.490   6.430 -0.0912  0.2420  0.5622
  611MOL0    Cl80564   2.190   1.602   6.546 -0.2519 -0.4048  0.1540
  611MOL0     C80565   3.405   1.842   6.266  0.2906  0.9747  0.8252
  611MOL0     C80566   3.543   1.864   6.275  0.3755 -0.9856 -0.9676
  611MOL0     O80567   3.775   1.605   6.178 -0.4003 -0.2862 -0.1629
  611MOL0     C80568   4.026   1.798   6.335 -0.3118 -0.4513  0.1546
  611MOL0     C80569   4.155   1.846   6.318  0.1651  0.4111 -0.2410
  611MOL0     N80570   4.887   2.107   5.882 -0.2521 -0.0060  0.2827
  611MOL0     N80571   4.990   2.071   5.952  0.0814 -0.2889 -0.5002
  611MOL0     C80572   5.843   2.762   5.761  0.9760 -0.9087  0.0754
  611MOL0     C80573   5.963   2.841   5.787 -0.2305  0.0229 -0.6191
  611MOL0     C80574   6.298   3.067   5.992 -1.3588 -1.2591 -0.1512
  611MOL0     C80575   6.396   3.143   5.940 -0.6127 -0.1711  0.7493
  611MOL0     C80576   6.496   3.208   6.014 -0.7168  0.1721 -0.4621
  611MOL0     C80577   6.505   3.176   6.153  0.1696 -0.6070  0.7206
  611MOL0     O80578   6.603   3.224   6.229  0.1213  0.1003  0.7380
  611MOL0     C80579   6.735   3.164   6.227  0.6307 -0.0048 -0.0859
  611MOL0     C80580   6.840   3.272   6.216 -0.8437 -0.4498  0.0567
  611MOL0     C80581   6.858   3.348   6.353 -0.0307 -1.0699  0.3505
  611MOL0     C80582   6.878   3.498   6.326 -0.9552  0.2770  0.2455
  611MOL0     C80583   7.027   3.526   6.299  0.3261  0.4031  0.7854
  611MOL0     C80584   7.151   3.530   6.271 -0.6512 -1.2059  0.2695
  611MOL0     C80585   6.400   3.112   6.205 -0.2206 -0.2439  0.4191
  611MOL0     C80586   6.302   3.056   6.128  0.4313  0.0452  0.2756
  611MOL0     H80587   5.946   2.801   6.126 -2.0121  2.5859 -0.0394
  611MOL0     H80588   5.734   2.660   6.056 -3.4522  1.0583 -2.1163
  611MOL0     H80589   5.467   2.598   5.824 -1.9592  0.4679  3.2866
  611MOL0     H80590   5.539   2.670   5.975  3.7961  1.2495 -0.4168
  611MOL0     H80591   5.707   2.459   5.958  0.2046  3.9622 -1.2921
  611MOL0     H80592   5.633   2.391   5.826  1.0231  2.8235 -2.2177
  611MOL0     H80593   5.553   2.386   6.109 -3.7858  2.4544  1.4175
  611MOL0     H80594   5.538   2.263   5.987  1.9339 -0.6710  1.3123
  611MOL0     H80595   5.353   2.492   6.044 -0.3830  0.3167 -1.1715
  611MOL0     H80596   5.333   2.393   5.896 -0.4868 -1.5838 -0.3925
  611MOL0     H80597   5.345   2.262   6.166  1.3218  1.7983 -0.5789
  611MOL0     H80598   5.262   2.207   6.011 -2.2919  2.3087 -0.5060
  611MOL0     H80599   5.081   2.340   6.039  0.8690 -1.3826 -0.4323
  611MOL0     H80600   5.169   2.447   6.153 -0.2860  0.5566 -1.6376
  611MOL0     H80601   5.171   2.248   6.311 -1.5563 -0.1194  0.3870
  611MOL0     H80602   5.009   2.301   6.289 -0.0516  0.0957  1.3187
  611MOL0     H80603   5.027   2.056   6.284 -1.6268 -1.0696 -1.7500
  611MOL0     H80604   5.150   2.057   6.161 -0.3210  0.2511  0.2233
  611MOL0     H80605   4.776   2.169   6.175 -0.0090 -1.6281  1.3074
  611MOL0     H80606   4.653   2.189   5.806  0.4417  3.3171  1.2849
  611MOL0     H80607   4.596   2.229   5.970  1.4792 -0.1940  1.9913
  611MOL0     H80608   4.643   1.937   5.881 -0.2382 -0.3780 -0.0358
  611MOL0     H80609   4.496   2.030   5.847 -2.6444 -1.8324  1.1751
  611MOL0     H80610   4.599   1.953   6.136  0.3580  0.7545  0.5861
  611MOL0     H80611   4.469   2.069   6.101  1.0862 -0.4491  0.8660
  611MOL0     H80612   4.456   1.774   6.052  2.7979  0.5903  1.6050
  611MOL0     H80613   4.347   1.901   5.977 -0.7536 -0.8028  0.1004
  611MOL0     H80614   4.197   1.702   6.015 -4.7090 -0.4172 -2.7662
  611MOL0     H80615   3.976   1.618   6.061 -0.8602  2.0090 -0.0221
  611MOL0     H80616   3.613   1.559   6.398 -0.5562 -0.9509  0.5092
  611MOL0     H80617   3.384   1.524   6.375 -0.3475  0.3035  2.2328
  611MOL0     H80618   3.177   1.605   6.467  1.4908  2.1616  0.1166
  611MOL0     H80619   3.100   1.546   6.315 -2.8044  0.2174  1.8227
  611MOL0     H80620   2.948   1.724   6.292 -1.5926 -0.1966  0.7900
  611MOL0     H80621   2.985   1.784   6.453 -1.1536  2.2522 -1.4567
  611MOL0     H80622   2.925   1.608   6.558  0.0866 -2.7284 -0.0910
  611MOL0     H80623   2.919   1.500   6.406 -1.4999  1.1190 -2.7025
  611MOL0     H80624   2.735   1.729   6.475 -1.4242  0.8959 -1.7524
  611MOL0     H80625   2.729   1.632   6.328  0.1726  0.0848  0.7511
  611MOL0     H80626   2.653   1.535   6.604 -5.5641 -4.0820  1.2939
  611MOL0     H80627   2.692   1.425   6.472 -3.2562 -0.0014 -5.7077
  611MOL0     H80628   2.522   1.537   6.324 -0.7830 -2.8388  0.0080
  611MOL0     H80629   2.484   1.655   6.456  1.8747  0.1228 -1.0238
  611MOL0     H80630   2.457   1.357   6.424  2.2041 -0.2256  1.7867
  611MOL0     H80631   2.418   1.440   6.580  0.4890  3.8325  0.2331
  611MOL0     H80632   2.206   1.405   6.420  1.0036 -0.6972  0.8714
  611MOL0     H80633   2.293   1.533   6.331  1.0270 -0.7377  0.3319
  611MOL0     H80634   3.341   1.906   6.205 -0.6377  0.3187  1.0966
  611MOL0     H80635   3.588   1.951   6.228 -0.8342 -1.6926 -3.6518
  611MOL0     H80636   3.986   1.836   6.428  0.1651  1.6964 -0.4492
  611MOL0     H80637   4.205   1.926   6.371 -1.2922  0.4936  1.0605
  611MOL0     H80638   5.794   2.766   5.665 -2.7949 -0.7679  1.8469
  611MOL0     H80639   6.021   2.889   5.709  0.1983 -0.9062 -0.8828
  611MOL0     H80640   6.389   3.161   5.833 -4.0117 -0.6408  0.7685
  611MOL0     H80641   6.563   3.280   5.968  0.8128 -0.1059  1.1957
  611MOL0     H80642   6.746   3.089   6.148 -4.1438 -1.4886  0.3296
  611MOL0     H80643   6.737   3.109   6.321 -1.6944  1.3530  0.8530
  611MOL0     H80644   6.933   3.226   6.181 -0.3232  2.1357 -2.3880
  611MOL0     H80645   6.815   3.343   6.136  1.6586  1.0056  0.4383
  611MOL0     H80646   6.944   3.310   6.408  1.6140  0.9747 -0.6608
  611MOL0     H80647   6.769   3.334   6.414  0.9053 -2.1188  1.5308
  611MOL0     H80648   6.816   3.527   6.240 -1.4258 -2.0176 -0.2436
  611MOL0     H80649   6.855   3.555   6.417 -0.5806 -0.4739  0.8142
  611MOL0     H80650   7.254   3.539   6.243 -0.8120 -0.5678 -0.1522
  611MOL0     H80651   6.399   3.107   6.313  4.7947  2.8980  0.9326
  611MOL0     H80652   6.228   2.995   6.179 -0.8379 -1.1702 -2.7974
  612MOL0     O80653   3.240   4.994   6.026 -0.4967  0.1494 -0.0019
  612MOL0     C80654   3.282   5.105   6.058 -0.2491  0.4432 -0.6911
  612MOL0     O80655   3.205   5.210   6.114  0.3489 -0.1481  0.4383
  612MOL0     C80656   3.074   5.196   6.117  0.3470 -0.1611  0.3133
  612MOL0     C80657   3.009   5.116   6.207 -0.0577  0.5536 -0.5056
  612MOL0     C80658   2.870   5.109   6.204  0.2127 -0.2467 -0.5277
  612MOL0     C80659   2.786   5.200   6.127 -0.2318 -0.3086  0.5626
  612MOL0     O80660   2.651   5.204   6.126 -0.4269  0.7725 -0.1701
  612MOL0     C80661   2.586   5.208   6.252 -0.5939 -0.7519 -0.4426
  612MOL0     C80662   2.451   5.145   6.232  0.6809  0.2873  0.0774
  612MOL0     C80663   2.384   5.091   6.363  0.4382  0.5452 -0.2741
  612MOL0     C80664   2.252   5.023   6.329  0.7874  0.4830 -0.5185
  612MOL0     C80665   2.175   4.971   6.455 -0.4719 -0.0947 -0.7035
  612MOL0     C80666   2.049   4.898   6.403 -0.1273  0.0427 -0.2355
  612MOL0     C80667   1.963   4.860   6.525 -0.1559  0.4426 -0.5509
  612MOL0     C80668   1.858   4.752   6.477  0.2041  0.7706 -0.5350
  612MOL0     N80669   1.812   4.670   6.593  0.4777 -0.8686  0.0875
  612MOL0     C80670   1.742   4.726   6.705 -0.0075 -0.1460  0.5614
  612MOL0     C80671   1.731   4.623   6.793  0.6046  0.4102 -0.5020
  612MOL0     C80672   1.648   4.642   6.922  0.6137  0.3515 -0.6695
  612MOL0     C80673   1.492   4.642   6.900 -0.0355  1.6866  0.0327
  612MOL0     C80674   1.455   4.519   6.810  0.0294 -0.6051 -1.1640
  612MOL0     C80675   1.304   4.497   6.815  0.5669 -0.0779 -0.3731
  612MOL0     O80676   1.253   4.601   6.728 -0.2491  0.3582 -0.3101
  612MOL0     C80677   1.128   4.590   6.675  1.2336 -0.4052 -0.0501
  612MOL0     C80678   1.083   4.698   6.582 -0.1840  0.1003  0.6757
  612MOL0     C80679   0.954   4.717   6.544 -0.1309  0.3202 -0.3006
  612MOL0     C80680   0.855   4.628   6.591 -0.2268  0.5325 -0.5215
  612MOL0     C80681   0.716   4.616   6.542 -0.2077  0.1151 -1.0533
  612MOL0     O80682   0.638   4.499   6.553 -0.2966 -1.2678  0.3365
  612MOL0     C80683   0.508   4.521   6.531  0.3507  0.1109 -0.2892
  612MOL0     C80684   0.426   4.555   6.638  0.1604  0.0123  0.4058
  612MOL0     C80685   0.288   4.544   6.634  0.5245  0.5910 -0.5913
  612MOL0     C80686   0.228   4.508   6.507 -0.7291  0.3342 -0.2437
  612MOL0     O80687   0.092   4.522   6.507  0.1571  0.5863  0.2033
  612MOL0     C80688   0.027   4.464   6.398  0.1370  0.2518  0.5466
  612MOL0     C80689  -0.127   4.460   6.420 -0.1202 -0.0651 -0.3347
  612MOL0     C80690  -0.156   4.401   6.556  0.2968  0.3089 -0.4666
  612MOL0     C80691  -0.305   4.391   6.580  0.2316  0.1273  1.0824
  612MOL0     C80692  -0.386   4.296   6.479 -0.6365  0.0254  0.3945
  612MOL0     C80693  -0.497   4.239   6.563  0.1709 -0.3831 -0.2244
  612MOL0     C80694  -0.608   4.340   6.608 -0.7524  0.9795 -0.3922
  612MOL0     C80695  -0.673   4.429   6.514 -0.0893  0.1689  0.3468
  612MOL0    Cl80696  -0.735   4.339   6.378  0.0343  0.0396  0.4231
  612MOL0     C80697   0.301   4.494   6.388  0.5143 -0.8177 -0.4015
  612MOL0     C80698   0.445   4.501   6.408 -0.5940 -0.1676 -0.2794
  612MOL0     O80699   0.684   4.723   6.491  0.1920  0.3346 -0.1539
  612MOL0     C80700   0.899   4.519   6.679 -0.2050  0.2511  0.6364
  612MOL0     C80701   1.028   4.498   6.716 -0.9616 -0.1315  0.2337
  612MOL0     N80702   1.795   4.512   6.738 -0.3965 -0.9449  0.4522
  612MOL0     N80703   1.833   4.539   6.618  0.0417  0.0764  0.5503
  612MOL0     C80704   2.853   5.296   6.055  0.7358 -0.1857  0.0829
  612MOL0     C80705   2.996   5.293   6.055 -0.0805  0.3158 -0.0126
  612MOL0     C80706   3.422   5.127   6.035 -0.6635  0.3361 -0.3922
  612MOL0     C80707   3.511   5.017   5.998  0.1942 -0.4247 -0.7310
  612MOL0     C80708   3.656   5.032   5.977 -0.4721 -0.8699  0.2952
  612MOL0     C80709   3.696   5.171   5.984 -1.0711  0.6843 -0.2985
  612MOL0     O80710   3.823   5.224   5.954 -0.0225 -0.3607  0.6053
  612MOL0     C80711   3.912   5.126   5.898  0.3603  0.1940  0.0180
  612MOL0     C80712   4.038   5.198   5.874  0.2787  0.0249  0.8823
  612MOL0     C80713   4.151   5.100   5.837  0.7565 -0.4139  0.8747
  612MOL0     C80714   4.173   5.079   5.691 -0.0262 -0.2018  0.2502
  612MOL0     C80715   4.188   5.208   5.619  1.1297 -0.0008  0.1849
  612MOL0     C80716   4.191   5.314   5.561 -0.4201  0.6234 -1.3099
  612MOL0     C80717   3.611   5.274   6.020 -0.6471 -0.4449 -0.7070
  612MOL0     C80718   3.475   5.254   6.039  0.0415 -0.2153  0.0660
  612MOL0     H80719   3.064   5.035   6.254  0.7437  0.7721 -1.0613
  612MOL0     H80720   2.820   5.028   6.256  1.5345 -0.4023  0.5769
  612MOL0     H80721   2.574   5.311   6.285 -0.7754  0.5961 -4.2511
  612MOL0     H80722   2.638   5.140   6.320 -1.1748 -2.2144 -1.3998
  612MOL0     H80723   2.450   5.069   6.153 -2.8185  1.4363 -1.1947
  612MOL0     H80724   2.387   5.222   6.188  1.6119  1.0178 -0.0119
  612MOL0     H80725   2.357   5.169   6.436 -1.4453 -2.9326  3.1397
  612MOL0     H80726   2.448   5.022   6.418 -0.9215 -1.2300 -0.8483
  612MOL0     H80727   2.198   5.110   6.291  1.3805  0.4557 -1.4573
  612MOL0     H80728   2.263   4.945   6.253 -0.0175  0.0660 -0.2212
  612MOL0     H80729   2.152   5.056   6.520 -3.9113 -1.2650 -0.1891
  612MOL0     H80730   2.243   4.904   6.507  1.2287 -2.0446 -5.0251
  612MOL0     H80731   2.076   4.799   6.366  1.4051  0.2562  0.2145
  612MOL0     H80732   1.993   4.969   6.343 -2.4848 -1.7362 -0.2804
  612MOL0     H80733   2.013   4.802   6.603 -4.7243 -2.7993  0.4179
  612MOL0     H80734   1.923   4.945   6.581  2.0222 -0.6401  2.9878
  612MOL0     H80735   1.898   4.696   6.392 -0.9275 -0.1841 -0.4616
  612MOL0     H80736   1.765   4.800   6.445 -1.0828 -1.3903 -0.2412
  612MOL0     H80737   1.724   4.830   6.727 -1.2837 -0.0630 -0.7455
  612MOL0     H80738   1.668   4.742   6.963 -2.4103  1.5030 -1.7105
  612MOL0     H80739   1.667   4.560   6.993 -2.9278 -2.0949 -2.2506
  612MOL0     H80740   1.470   4.739   6.854  0.8114  2.5422  1.3394
  612MOL0     H80741   1.439   4.642   6.996  2.4123  0.8773  1.4663
  612MOL0     H80742   1.479   4.537   6.705 -1.4157 -2.3867 -1.8760
  612MOL0     H80743   1.494   4.424   6.848 -1.3263  0.0635  2.2062
  612MOL0     H80744   1.261   4.522   6.913 -1.3372 -0.8756 -0.9563
  612MOL0     H80745   1.286   4.399   6.770  2.2248  0.0094 -1.2991
  612MOL0     H80746   1.155   4.777   6.563 -1.6350  1.0449 -1.2190
  612MOL0     H80747   0.918   4.803   6.487 -1.6902 -1.6936 -2.5623
  612MOL0     H80748   0.463   4.578   6.738  0.2002  0.9566  0.1856
  612MOL0     H80749   0.236   4.567   6.727  1.0242 -0.4760 -0.0319
  612MOL0     H80750   0.062   4.362   6.377  0.0624  0.0977  1.1639
  612MOL0     H80751   0.051   4.500   6.298  2.4785 -3.2408 -0.3496
  612MOL0     H80752  -0.181   4.406   6.342  0.3734 -1.5601  0.3100
  612MOL0     H80753  -0.168   4.561   6.414 -2.0996 -0.9197 -3.0449
  612MOL0     H80754  -0.115   4.468   6.632 -1.6061  1.7908 -0.6537
  612MOL0     H80755  -0.121   4.298   6.554  0.8615  0.4646  0.7443
  612MOL0     H80756  -0.316   4.371   6.687  0.7917  0.4273  1.2008
  612MOL0     H80757  -0.344   4.493   6.576 -2.1910 -0.7646 -0.3566
  612MOL0     H80758  -0.323   4.215   6.441 -0.5676  0.6868 -0.9459
  612MOL0     H80759  -0.423   4.356   6.396  0.2497  0.9861  0.6634
  612MOL0     H80760  -0.452   4.177   6.641  1.5469  1.2207  0.3079
  612MOL0     H80761  -0.549   4.175   6.492  1.0754 -0.1754 -1.1008
  612MOL0     H80762  -0.690   4.281   6.651  0.1080  0.5236  0.6781
  612MOL0     H80763  -0.573   4.411   6.684  2.5740  1.0685 -1.8448
  612MOL0     H80764  -0.603   4.509   6.485 -0.2338 -0.5664 -2.2137
  612MOL0     H80765  -0.756   4.488   6.554  0.8892  0.4917  1.9933
  612MOL0     H80766   0.255   4.487   6.290 -1.2474  4.3281 -0.2579
  612MOL0     H80767   0.496   4.457   6.323  1.0453 -1.4569  1.2891
  612MOL0     H80768   0.831   4.446   6.722  0.2513 -0.2852  0.4542
  612MOL0     H80769   1.049   4.414   6.781 -0.4279 -0.9619 -0.9921
  612MOL0     H80770   2.788   5.374   6.015 -1.4547 -2.2401 -0.6063
  612MOL0     H80771   3.036   5.384   6.011  1.5195  0.3602  1.4171
  612MOL0     H80772   3.465   4.920   5.983 -1.6258 -0.0123  1.5729
  612MOL0     H80773   3.712   4.951   5.931 -4.1728 -2.9524 -1.0798
  612MOL0     H80774   3.875   5.089   5.802 -0.1338 -0.1717  0.3468
  612MOL0     H80775   3.929   5.040   5.964 -0.4650  0.5121  0.6562
  612MOL0     H80776   4.024   5.292   5.820 -0.4500  0.9473  2.5964
  612MOL0     H80777   4.069   5.236   5.972  1.1924  0.2621  0.5053
  612MOL0     H80778   4.138   5.005   5.890 -1.5601 -0.1166  0.9450
  612MOL0     H80779   4.243   5.138   5.882  0.5159 -0.5939  1.5335
  612MOL0     H80780   4.268   5.027   5.675 -0.5745 -1.4061  0.7943
  612MOL0     H80781   4.093   5.021   5.643  0.5485 -1.1460  0.4099
  612MOL0     H80782   4.203   5.412   5.520  3.1018  0.3791 -1.1410
  612MOL0     H80783   3.636   5.380   6.019 -4.2076  0.6140 -4.6782
  612MOL0     H80784   3.416   5.341   6.064 -0.7315 -0.8590  0.5304
  613MOL0     O80785   5.489   2.595  10.370  0.2136  0.4467  0.2636
  613MOL0     C80786   5.393   2.607  10.435  0.9658  0.3146 -1.0653
  613MOL0     O80787   5.348   2.720  10.490  0.2364 -0.2752 -0.2448
  613MOL0     C80788   5.424   2.836  10.482  0.1904  1.0056  0.4432
  613MOL0     C80789   5.382   2.931  10.389  0.8475 -0.0500  0.9600
  613MOL0     C80790   5.449   3.046  10.368 -0.7190 -0.2540 -0.0912
  613MOL0     C80791   5.579   3.063  10.422 -0.9023 -0.4307 -0.1516
  613MOL0     O80792   5.681   3.148  10.378 -0.5150  0.4717  0.2043
  613MOL0     C80793   5.648   3.236  10.276 -0.3956 -0.0567 -0.9411
  613MOL0     C80794   5.776   3.303  10.234 -0.5644  0.1559  0.4026
  613MOL0     C80795   5.762   3.343  10.087 -0.0080 -0.7486  0.3319
  613MOL0     C80796   5.899   3.415  10.050  0.2059 -1.1037 -0.0276
  613MOL0     C80797   5.888   3.561  10.092  0.9976  0.6782 -0.0323
  613MOL0     C80798   6.003   3.664  10.044  0.3096  0.7626  0.1238
  613MOL0     C80799   6.146   3.629  10.096  0.0428 -0.2060 -0.0174
  613MOL0     C80800   6.232   3.752  10.084 -0.2953  0.0220 -0.3148
  613MOL0     N80801   6.355   3.740  10.159  0.1324 -0.2003 -0.4811
  613MOL0     C80802   6.488   3.728  10.124 -0.0240  0.2470  0.4425
  613MOL0     C80803   6.554   3.725  10.244  0.5868 -0.6222  0.3387
  613MOL0     C80804   6.701   3.735  10.259 -0.7233 -0.5760  0.7826
  613MOL0     C80805   6.777   3.708  10.128 -0.3126 -0.6487 -0.8519
  613MOL0     C80806   6.925   3.696  10.155  1.0061 -0.1224  0.3766
  613MOL0     C80807   6.995   3.694  10.022 -0.6490 -0.3140  0.1449
  613MOL0     O80808   7.131   3.691  10.066  1.2004  0.8742 -0.5952
  613MOL0     C80809   7.225   3.736   9.984  0.0362 -0.0968  0.0975
  613MOL0     C80810   7.230   3.690   9.850 -0.9798 -1.1149  0.1194
  613MOL0     C80811   7.324   3.735   9.763 -0.4099 -0.6523  0.2319
  613MOL0     C80812   7.413   3.839   9.801 -0.4207  0.2629 -0.4502
  613MOL0     C80813   7.512   3.897   9.701 -0.3179 -0.1027 -0.2417
  613MOL0     O80814   7.526   3.823   9.581  0.2249  0.2840  0.1617
  613MOL0     C80815   7.604   3.883   9.491  0.2889 -0.1240 -0.6938
  613MOL0     C80816   7.734   3.908   9.515  0.1991  0.1913  1.0028
  613MOL0     C80817   7.823   3.971   9.416  0.3862  0.9405  0.3001
  613MOL0     C80818   7.776   4.006   9.288  0.5256  0.0098  0.6466
  613MOL0     O80819   7.860   4.096   9.211  0.5578 -0.0612 -0.2792
  613MOL0     C80820   7.929   4.043   9.088  0.3487  0.2423  0.1834
  613MOL0     C80821   8.063   4.107   9.052  0.2112  0.6045 -0.0159
  613MOL0     C80822   8.169   4.108   9.167 -0.7257 -0.5603 -0.0636
  613MOL0     C80823   8.297   4.187   9.125 -0.6273 -0.2986 -0.0475
  613MOL0     C80824   8.361   4.149   8.995 -0.7415  1.0053  0.8389
  613MOL0     C80825   8.452   4.023   9.026 -0.1213  0.7692  0.0387
  613MOL0     C80826   8.527   3.977   8.901  0.0089  1.2593  0.6540
  613MOL0     C80827   8.424   3.945   8.789  0.9908 -0.1556 -0.1770
  613MOL0    Cl80828   8.296   3.836   8.848 -0.3269 -0.0687  0.1607
  613MOL0     C80829   7.637   3.982   9.265 -0.1081  0.1270 -0.2964
  613MOL0     C80830   7.557   3.933   9.364 -0.7166 -0.1919 -0.2910
  613MOL0     O80831   7.572   3.994   9.736  0.8328 -0.5335  0.1628
  613MOL0     C80832   7.411   3.878   9.934  0.2864 -0.1157 -0.8926
  613MOL0     C80833   7.324   3.818  10.029 -0.5468 -0.0458 -0.4877
  613MOL0     N80834   6.461   3.732  10.343  0.0533 -0.2383 -0.3666
  613MOL0     N80835   6.344   3.750  10.296 -0.4801  0.6076 -0.7180
  613MOL0     C80836   5.610   2.967  10.522 -0.0275 -0.2534  0.4596
  613MOL0     C80837   5.537   2.860  10.562  0.6190 -0.3038  0.2469
  613MOL0     C80838   5.324   2.483  10.474 -0.3912 -0.2803 -0.3682
  613MOL0     C80839   5.199   2.492  10.531  0.3016 -0.7026 -0.5118
  613MOL0     C80840   5.129   2.372  10.564 -0.2928  0.2213  0.6800
  613MOL0     C80841   5.189   2.246  10.549  0.1512 -0.4494 -0.5264
  613MOL0     O80842   5.128   2.125  10.573 -0.2994  0.6650 -0.0133
  613MOL0     C80843   5.006   2.115  10.644 -0.5752  0.0266 -0.1629
  613MOL0     C80844   4.946   1.974  10.649  0.0382 -0.7140  1.3594
  613MOL0     C80845   5.022   1.877  10.746  0.2304 -0.3186 -0.6035
  613MOL0     C80846   4.994   1.916  10.896  0.2555  0.5503  0.0038
  613MOL0     C80847   4.871   1.853  10.962  0.0080  0.3781  0.1194
  613MOL0     C80848   4.767   1.804  10.994  0.6642 -0.3023  0.3576
  613MOL0     C80849   5.319   2.236  10.492  0.5273 -0.9983  0.8260
  613MOL0     C80850   5.386   2.357  10.456  1.0954  0.3708 -0.6371
  613MOL0     H80851   5.289   2.917  10.334  0.1106 -1.2554  2.4539
  613MOL0     H80852   5.408   3.111  10.292 -0.5062 -1.3071 -1.1354
  613MOL0     H80853   5.575   3.311  10.305 -0.8013 -0.0927 -1.8347
  613MOL0     H80854   5.607   3.175  10.195  1.4010 -1.3141 -0.9828
  613MOL0     H80855   5.864   3.240  10.244 -0.1483  0.8651  1.4114
  613MOL0     H80856   5.793   3.389  10.300 -1.4705 -0.1038  0.9911
  613MOL0     H80857   5.677   3.412  10.082  0.6455  0.3643  2.9323
  613MOL0     H80858   5.745   3.267  10.010 -0.1151 -0.7305  0.3379
  613MOL0     H80859   5.985   3.362  10.094  0.9018 -2.3301 -2.6232
  613MOL0     H80860   5.915   3.415   9.942 -0.1141  2.7175 -0.1809
  613MOL0     H80861   5.876   3.582  10.199 -1.5968  0.5966 -0.2272
  613MOL0     H80862   5.792   3.594  10.050 -1.9574 -4.7552  1.3952
  613MOL0     H80863   5.973   3.768  10.062  4.2089  1.6089  3.0514
  613MOL0     H80864   6.004   3.659   9.935  2.3099  0.7507  0.1140
  613MOL0     H80865   6.134   3.603  10.202 -1.1509 -0.0388 -0.1023
  613MOL0     H80866   6.183   3.551  10.030 -0.2699 -0.3160 -0.0647
  613MOL0     H80867   6.184   3.843  10.121  2.3109  1.5827 -0.5204
  613MOL0     H80868   6.244   3.766   9.976 -2.7384 -2.3326 -1.0179
  613MOL0     H80869   6.537   3.722  10.027 -1.2557 -0.2089 -0.1701
  613MOL0     H80870   6.731   3.662  10.334  0.1239 -1.7321 -0.6207
  613MOL0     H80871   6.724   3.834  10.298 -2.6824 -0.8617  2.8646
  613MOL0     H80872   6.757   3.789  10.057 -3.0021 -0.8379 -0.4259
  613MOL0     H80873   6.739   3.614  10.087 -1.6326 -1.0414  1.1560
  613MOL0     H80874   6.956   3.791  10.202  1.3225  0.6380 -1.3120
  613MOL0     H80875   6.948   3.599  10.198  0.4945 -0.3315  0.1797
  613MOL0     H80876   6.972   3.784   9.965  1.4313 -0.4956 -1.0613
  613MOL0     H80877   6.978   3.597   9.973  1.7849  0.2552 -2.0404
  613MOL0     H80878   7.168   3.608   9.815 -1.3611 -0.4952 -0.6781
  613MOL0     H80879   7.331   3.699   9.661 -2.6212 -0.3632 -0.0788
  613MOL0     H80880   7.781   3.888   9.611  1.5818  1.8139  0.7109
  613MOL0     H80881   7.929   3.981   9.435  0.6937  0.7274 -1.1444
  613MOL0     H80882   7.854   4.053   9.009 -0.0818 -0.1907  0.5301
  613MOL0     H80883   7.947   3.937   9.110  1.3675  0.8691  2.8348
  613MOL0     H80884   8.055   4.215   9.033  4.3279  0.9397 -0.6922
  613MOL0     H80885   8.089   4.067   8.954 -1.2447  1.0080 -0.6081
  613MOL0     H80886   8.198   4.008   9.198  2.7098  0.3197 -0.0350
  613MOL0     H80887   8.118   4.166   9.245 -2.2109 -0.7244 -0.8728
  613MOL0     H80888   8.278   4.294   9.109 -2.1717 -0.6263 -0.6228
  613MOL0     H80889   8.378   4.173   9.198 -0.1350 -2.1563 -0.9020
  613MOL0     H80890   8.432   4.225   8.963  2.8233 -0.8833  3.4953
  613MOL0     H80891   8.292   4.135   8.910 -1.5990  0.3573  1.6141
  613MOL0     H80892   8.398   3.935   9.064  1.2641 -0.0122  0.2504
  613MOL0     H80893   8.525   4.043   9.104  0.0779  1.8183 -0.4046
  613MOL0     H80894   8.594   4.058   8.870  1.0624  0.1386 -0.0889
  613MOL0     H80895   8.601   3.897   8.914 -0.5589  0.6962  0.4927
  613MOL0     H80896   8.472   3.895   8.704 -0.9542  1.5722 -2.4438
  613MOL0     H80897   8.383   4.037   8.747 -0.1718 -0.3724  0.4403
  613MOL0     H80898   7.586   4.002   9.171 -2.7867 -2.2789  0.4865
  613MOL0     H80899   7.448   3.932   9.359 -0.9012 -0.9563  2.2107
  613MOL0     H80900   7.499   3.937   9.958 -0.0099 -0.3575  0.9183
  613MOL0     H80901   7.325   3.843  10.134 -0.4888  1.5857 -0.8587
  613MOL0     H80902   5.701   2.984  10.579 -0.8837 -0.9665  2.1102
  613MOL0     H80903   5.567   2.798  10.646 -1.0183 -1.6395 -0.1046
  613MOL0     H80904   5.131   2.573  10.554 -0.2308 -0.9217 -1.2608
  613MOL0     H80905   5.038   2.375  10.623 -0.9534 -1.1951 -0.1876
  613MOL0     H80906   4.933   2.183  10.600 -0.1896  1.0601  0.7543
  613MOL0     H80907   5.020   2.151  10.747 -2.0153  1.8944 -0.5752
  613MOL0     H80908   4.838   1.973  10.660 -0.4438  0.0160 -2.1277
  613MOL0     H80909   4.937   1.929  10.550  0.4228 -1.2301  1.5554
  613MOL0     H80910   5.128   1.882  10.718  0.5603  0.1825  0.6711
  613MOL0     H80911   4.982   1.777  10.727  1.0286 -0.5850 -0.9303
  613MOL0     H80912   5.074   1.889  10.965 -2.0912 -1.2364  2.2390
  613MOL0     H80913   4.972   2.022  10.913  0.5481  0.5937  0.1100
  613MOL0     H80914   4.674   1.755  11.015  0.3375 -1.5429 -3.3311
  613MOL0     H80915   5.368   2.142  10.469  0.3846 -0.7007 -0.7379
  613MOL0     H80916   5.491   2.341  10.435  1.6195  1.6284  0.8403
  614MOL0     O80917   3.822   9.044   5.573  0.1470  0.4731  0.5766
  614MOL0     C80918   3.806   8.963   5.667  0.4752  0.2951  0.0573
  614MOL0     O80919   3.682   8.946   5.731 -0.7581 -0.1722 -0.6179
  614MOL0     C80920   3.567   8.990   5.671 -0.3715  0.4091  0.4801
  614MOL0     C80921   3.466   8.908   5.631 -0.6307 -0.2372  0.5100
  614MOL0     C80922   3.348   8.960   5.566  0.1406 -0.7658  0.2383
  614MOL0     C80923   3.325   9.095   5.554 -0.0207  0.0252 -0.1168
  614MOL0     O80924   3.202   9.147   5.531  0.3192  0.0067 -0.0649
  614MOL0     C80925   3.109   9.067   5.451 -0.2522 -0.4238 -0.4105
  614MOL0     C80926   2.996   9.156   5.388 -0.3494 -0.2475  0.0318
  614MOL0     C80927   2.913   9.083   5.283 -0.8198  0.0574  0.7544
  614MOL0     C80928   2.822   9.180   5.202  0.1586 -0.4611  0.2168
  614MOL0     C80929   2.726   9.106   5.112  0.2413  0.4653  0.2138
  614MOL0     C80930   2.647   9.189   5.014  0.1101 -0.3109  0.9487
  614MOL0     C80931   2.578   9.106   4.916 -0.0484  0.3117  0.6787
  614MOL0     C80932   2.529   9.188   4.796  0.5042 -0.1006  0.7680
  614MOL0     N80933   2.449   9.094   4.715  0.4857 -0.7097  0.1141
  614MOL0     C80934   2.368   8.988   4.764 -0.1573  0.0930 -0.0774
  614MOL0     C80935   2.316   8.929   4.654  0.0878 -0.2706  0.0148
  614MOL0     C80936   2.222   8.811   4.661  0.6673 -0.0736  0.6008
  614MOL0     C80937   2.089   8.866   4.668 -0.9552 -0.6533 -0.0704
  614MOL0     C80938   1.980   8.759   4.696 -0.5543  0.4294  0.8730
  614MOL0     C80939   1.845   8.832   4.708  0.1683  0.2882  0.4203
  614MOL0     O80940   1.841   8.912   4.828 -1.0175 -0.6373  0.4041
  614MOL0     C80941   1.706   8.929   4.872  0.0748  0.1151 -0.2947
  614MOL0     C80942   1.649   8.836   4.957  0.5249 -0.3805 -0.7311
  614MOL0     C80943   1.513   8.853   4.990  0.2944  0.2038  0.1605
  614MOL0     C80944   1.437   8.963   4.947  0.2548  0.0879 -0.4953
  614MOL0     C80945   1.297   8.987   4.991  0.3157 -0.2237  0.4711
  614MOL0     O80946   1.261   8.919   5.106 -1.0069 -0.7956 -0.1817
  614MOL0     C80947   1.134   8.913   5.143 -0.5157 -1.0496  0.1378
  614MOL0     C80948   1.039   8.841   5.072 -0.5706  0.8873 -0.0703
  614MOL0     C80949   0.905   8.848   5.101  0.4190  0.0094 -0.0560
  614MOL0     C80950   0.865   8.926   5.211  0.8194 -0.5661  0.4796
  614MOL0     O80951   0.732   8.950   5.244 -0.1049  0.5849 -0.1552
  614MOL0     C80952   0.638   8.873   5.167  0.1162 -0.4553  0.1379
  614MOL0     C80953   0.487   8.900   5.209 -0.0237 -0.7480  0.4545
  614MOL0     C80954   0.454   8.874   5.356  0.3749  0.2683  0.0897
  614MOL0     C80955   0.303   8.879   5.374 -0.8677 -0.8505 -0.1410
  614MOL0     C80956   0.278   8.876   5.521  0.3637  0.0961  0.5249
  614MOL0     C80957   0.136   8.938   5.556 -0.6683  0.8329 -0.0734
  614MOL0     C80958   0.045   8.826   5.576  1.1593  0.7267  0.6376
  614MOL0     C80959  -0.095   8.855   5.570  0.0929 -0.0843  0.0520
  614MOL0    Cl80960  -0.141   8.894   5.403 -0.3307  0.2174 -0.2141
  614MOL0     C80961   0.964   8.981   5.287 -1.1238 -0.2763 -0.5583
  614MOL0     C80962   1.097   8.986   5.250  0.0318  0.2988  0.9930
  614MOL0     O80963   1.227   9.060   4.920  0.3044  0.1028  0.4411
  614MOL0     C80964   1.491   9.044   4.851 -0.4074  0.2238  0.8262
  614MOL0     C80965   1.624   9.018   4.804 -0.1835  0.7943  1.1241
  614MOL0     N80966   2.355   9.001   4.548 -0.3181  0.6965  0.1672
  614MOL0     N80967   2.441   9.097   4.579  0.6095 -0.2957 -0.3878
  614MOL0     C80968   3.428   9.177   5.601 -0.2126  0.3101 -0.1741
  614MOL0     C80969   3.547   9.133   5.653  0.4038  0.3094 -0.3140
  614MOL0     C80970   3.923   8.901   5.726  0.8000 -0.2055 -0.1515
  614MOL0     C80971   4.032   8.889   5.639 -0.2386  1.1886  0.1554
  614MOL0     C80972   4.143   8.806   5.673  0.1699  0.2549 -0.2458
  614MOL0     C80973   4.161   8.761   5.803  0.3699  0.0741  0.1222
  614MOL0     O80974   4.269   8.680   5.841  0.2974  0.1746  0.1211
  614MOL0     C80975   4.391   8.732   5.794 -1.0915 -0.9738 -0.1289
  614MOL0     C80976   4.516   8.670   5.858  0.1052  0.0392  0.6800
  614MOL0     C80977   4.572   8.542   5.779  0.8792 -0.1842 -0.4142
  614MOL0     C80978   4.706   8.489   5.811 -0.4491  0.1849 -0.3081
  614MOL0     C80979   4.821   8.559   5.753 -0.1211 -0.3443  0.0932
  614MOL0     C80980   4.915   8.617   5.708  0.7051  0.3900 -0.1100
  614MOL0     C80981   4.057   8.788   5.898 -0.5115  0.2707  0.9840
  614MOL0     C80982   3.939   8.850   5.855 -0.0763  0.0013  1.0782
  614MOL0     H80983   3.473   8.800   5.646 -0.3039 -0.4557 -0.9876
  614MOL0     H80984   3.272   8.890   5.534 -0.6858  0.0578  0.3554
  614MOL0     H80985   3.055   8.989   5.505 -1.1626 -1.5530 -2.7811
  614MOL0     H80986   3.160   9.026   5.363  0.6235  0.6213 -0.4107
  614MOL0     H80987   3.043   9.250   5.356 -1.7692  0.5718  0.2652
  614MOL0     H80988   2.920   9.183   5.462 -5.1433 -1.1824 -4.0207
  614MOL0     H80989   2.848   9.006   5.326 -2.3546 -0.4015 -2.1138
  614MOL0     H80990   2.972   9.032   5.205 -3.4577  1.0014 -2.0628
  614MOL0     H80991   2.769   9.245   5.273  1.8356  0.0741  1.0168
  614MOL0     H80992   2.885   9.248   5.144  1.4459 -1.0876  0.8606
  614MOL0     H80993   2.659   9.052   5.180 -1.1102  1.8813  0.0556
  614MOL0     H80994   2.777   9.033   5.049 -2.0119 -0.3427 -0.7909
  614MOL0     H80995   2.714   9.252   4.957 -1.5601  1.3517  0.7330
  614MOL0     H80996   2.572   9.250   5.065  1.5149  2.7231 -0.4247
  614MOL0     H80997   2.649   9.028   4.885 -1.7456 -0.4581 -1.5650
  614MOL0     H80998   2.497   9.053   4.966  1.4205 -0.2602  2.5808
  614MOL0     H80999   2.614   9.220   4.734  1.3406  0.3907  2.1351
  614MOL0     H81000   2.469   9.276   4.820  0.4140  0.5055 -1.4105
  614MOL0     H81001   2.356   8.968   4.870 -0.9407 -2.0423 -0.5208
  614MOL0     H81002   2.234   8.742   4.745 -2.2907 -1.9919 -0.3927
  614MOL0     H81003   2.225   8.752   4.569 -0.4372  0.8190 -0.0290
  614MOL0     H81004   2.065   8.924   4.578  2.3574 -0.8050 -1.2086
  614MOL0     H81005   2.090   8.928   4.758  1.1872 -4.9116  3.2310
  614MOL0     H81006   1.976   8.697   4.606 -1.4365  1.0455  0.4658
  614MOL0     H81007   2.009   8.699   4.783  0.4242  0.3475  0.4965
  614MOL0     H81008   1.770   8.753   4.700 -0.4946  1.1217 -3.2889
  614MOL0     H81009   1.839   8.897   4.620  1.0207  2.2646  1.7493
  614MOL0     H81010   1.691   8.752   5.012 -1.0580  0.9194  2.7751
  614MOL0     H81011   1.468   8.790   5.065  1.5973 -2.2657 -1.0216
  614MOL0     H81012   1.072   8.779   4.990  2.3408  1.4786  0.5293
  614MOL0     H81013   0.833   8.799   5.036 -1.0724  1.6207  0.3161
  614MOL0     H81014   0.651   8.765   5.174  6.2685  0.0097  2.7837
  614MOL0     H81015   0.659   8.898   5.062  3.2805  0.7691  0.9364
  614MOL0     H81016   0.423   8.836   5.148  0.8743 -1.0973 -0.1559
  614MOL0     H81017   0.458   9.003   5.186  1.1822 -0.6312 -0.6771
  614MOL0     H81018   0.508   8.954   5.409 -2.4779  3.5053 -1.5083
  614MOL0     H81019   0.484   8.776   5.393 -4.7328 -1.8264 -0.5821
  614MOL0     H81020   0.253   8.969   5.336  1.1396  0.0872 -0.6747
  614MOL0     H81021   0.266   8.787   5.328  1.0888 -1.3628 -0.7522
  614MOL0     H81022   0.347   8.944   5.572  0.3571 -0.1057  0.8053
  614MOL0     H81023   0.289   8.777   5.565 -2.2771 -0.2981  0.4868
  614MOL0     H81024   0.092   9.003   5.479 -1.1192  0.8819  0.2194
  614MOL0     H81025   0.140   8.993   5.650  0.1102 -0.1141  0.4624
  614MOL0     H81026   0.055   8.739   5.510 -0.8289  1.0228 -0.1183
  614MOL0     H81027   0.057   8.794   5.680 -0.4272  0.4613  0.7590
  614MOL0     H81028  -0.121   8.933   5.642 -2.6072 -2.4809  1.8796
  614MOL0     H81029  -0.153   8.766   5.597  0.9715 -1.0353 -1.0813
  614MOL0     H81030   0.937   9.040   5.374  1.8195 -0.6522  0.7240
  614MOL0     H81031   1.176   9.035   5.305  0.9323 -0.4009  0.3572
  614MOL0     H81032   1.447   9.141   4.826 -0.6337 -0.0430  0.1625
  614MOL0     H81033   1.655   9.083   4.723 -1.0499  0.9095  0.8727
  614MOL0     H81034   3.406   9.282   5.591  1.1297  0.4922 -1.5087
  614MOL0     H81035   3.633   9.193   5.681  2.5195 -2.6676  0.0362
  614MOL0     H81036   4.026   8.928   5.538 -1.0928  0.2722 -0.1600
  614MOL0     H81037   4.216   8.785   5.595 -0.8345 -1.1120 -0.8762
  614MOL0     H81038   4.395   8.840   5.812 -0.7816 -1.1508  0.9688
  614MOL0     H81039   4.413   8.728   5.687  3.1736 -1.3479  0.5948
  614MOL0     H81040   4.592   8.747   5.871 -1.0194  1.3131 -0.0598
  614MOL0     H81041   4.486   8.636   5.957 -2.7012  0.4103  0.0531
  614MOL0     H81042   4.558   8.555   5.671  2.7032 -0.5892 -0.7208
  614MOL0     H81043   4.493   8.468   5.796  1.3383 -0.6257 -0.1954
  614MOL0     H81044   4.713   8.492   5.920  1.3345 -1.6821 -0.3088
  614MOL0     H81045   4.711   8.384   5.780  1.8578 -0.1469  0.9810
  614MOL0     H81046   4.988   8.663   5.644  0.0336 -1.4511 -2.3535
  614MOL0     H81047   4.074   8.742   5.995 -2.2474 -0.1197  1.1393
  614MOL0     H81048   3.852   8.865   5.918  0.1972  3.1645  0.8832
  615MOL0     O81049   5.786   3.401   1.976  0.7817 -0.0314 -0.2503
  615MOL0     C81050   5.770   3.439   1.866  0.5679 -0.1639  0.3357
  615MOL0     O81051   5.857   3.492   1.771 -0.0564 -0.3883 -0.4234
  615MOL0     C81052   5.984   3.543   1.802 -0.1984  0.3206 -0.0889
  615MOL0     C81053   6.060   3.515   1.911 -0.4067 -0.2599 -0.7644
  615MOL0     C81054   6.189   3.564   1.927 -0.0412 -0.6977 -0.5223
  615MOL0     C81055   6.242   3.654   1.836  0.3580  0.0168 -0.7554
  615MOL0     O81056   6.361   3.708   1.853 -0.4484 -0.1882 -0.1249
  615MOL0     C81057   6.376   3.852   1.844  0.5220 -0.0134 -0.5672
  615MOL0     C81058   6.376   3.920   1.988  0.3514 -0.2026  0.9798
  615MOL0     C81059   6.471   3.866   2.082  0.4590 -0.3850 -1.2429
  615MOL0     C81060   6.437   3.924   2.217  0.1068 -0.4597 -0.0353
  615MOL0     C81061   6.536   3.865   2.309 -0.9508 -0.4453  0.4702
  615MOL0     C81062   6.505   3.720   2.350 -0.4754 -0.0487  0.6833
  615MOL0     C81063   6.360   3.688   2.381  0.9882 -0.5259  0.3049
  615MOL0     C81064   6.356   3.533   2.422 -0.2963 -0.0529  1.1384
  615MOL0     N81065   6.223   3.482   2.400 -0.2353  0.3862 -0.7592
  615MOL0     C81066   6.110   3.541   2.443 -0.0180 -0.1903 -0.1310
  615MOL0     C81067   6.005   3.475   2.386 -0.0652 -0.0812 -0.7532
  615MOL0     C81068   5.863   3.514   2.418 -0.4270 -0.3319 -0.2517
  615MOL0     C81069   5.764   3.442   2.333  0.6537  0.4694 -0.1758
  615MOL0     C81070   5.612   3.467   2.371 -0.7376  0.6530 -0.7726
  615MOL0     C81071   5.511   3.389   2.284 -0.0328 -0.2455  0.1633
  615MOL0     O81072   5.381   3.432   2.327 -0.6003 -0.5869  0.5486
  615MOL0     C81073   5.268   3.387   2.261 -0.3063  0.0633 -0.3030
  615MOL0     C81074   5.274   3.301   2.153 -0.2053  0.6972  0.2963
  615MOL0     C81075   5.160   3.269   2.079  0.6022 -0.0979 -0.5957
  615MOL0     C81076   5.037   3.328   2.113  0.1207  0.0982 -1.1049
  615MOL0     C81077   4.915   3.292   2.031 -0.5029  0.3708  0.3492
  615MOL0     O81078   4.800   3.344   2.069  0.6562  0.2184  0.3610
  615MOL0     C81079   4.674   3.304   2.025 -0.7018  1.0919  0.0575
  615MOL0     C81080   4.587   3.270   2.131 -0.3036  0.1407 -0.4041
  615MOL0     C81081   4.465   3.209   2.101 -0.0367 -0.9285 -0.6150
  615MOL0     C81082   4.425   3.185   1.965 -0.3304 -0.4661  0.4316
  615MOL0     O81083   4.302   3.123   1.937 -0.1288 -0.1532 -0.5059
  615MOL0     C81084   4.237   3.042   2.045  0.8876  0.1618  0.4466
  615MOL0     C81085   4.118   2.969   1.972  0.6002 -0.0088 -0.4410
  615MOL0     C81086   4.019   2.896   2.072  0.3668  0.3727  0.3908
  615MOL0     C81087   4.096   2.765   2.104 -0.3263  0.0904 -0.4340
  615MOL0     C81088   4.025   2.681   2.210  0.2503  0.1591  0.3336
  615MOL0     C81089   4.043   2.742   2.352  0.5866 -0.7171  0.9156
  615MOL0     C81090   4.043   2.638   2.467  0.6248 -1.0684  0.1339
  615MOL0     C81091   4.043   2.703   2.610  0.1917  0.1572  1.1032
  615MOL0    Cl81092   3.887   2.789   2.636  0.2980  0.0282  0.2892
  615MOL0     C81093   4.514   3.224   1.865 -0.7432 -0.4619 -0.3439
  615MOL0     C81094   4.641   3.275   1.895 -0.5606 -0.9265 -0.3415
  615MOL0     O81095   4.928   3.207   1.942 -0.1242  0.2296  0.2425
  615MOL0     C81096   5.024   3.416   2.222  0.1549 -0.2270  0.0758
  615MOL0     C81097   5.147   3.444   2.297 -0.3457 -0.7719  0.4679
  615MOL0     N81098   6.058   3.376   2.304 -0.0362 -0.0620 -0.4479
  615MOL0     N81099   6.187   3.394   2.307 -0.8596  0.2589  0.6103
  615MOL0     C81100   6.172   3.678   1.718 -0.4446  0.5017  0.0315
  615MOL0     C81101   6.042   3.621   1.702 -0.5409 -0.0436  0.1131
  615MOL0     C81102   5.627   3.414   1.818  0.2432  0.7112  0.0585
  615MOL0     C81103   5.565   3.292   1.844 -0.4114  0.6110 -0.5203
  615MOL0     C81104   5.437   3.270   1.805  0.9668 -0.7863 -0.1834
  615MOL0     C81105   5.357   3.371   1.749  0.5978  1.2268  0.0693
  615MOL0     O81106   5.225   3.336   1.714 -0.5052 -0.1860  0.6011
  615MOL0     C81107   5.130   3.439   1.688 -0.0040 -0.2146  0.2229
  615MOL0     C81108   5.137   3.485   1.534  0.9815 -0.4800 -0.3650
  615MOL0     C81109   5.129   3.381   1.430  0.6910 -0.2868 -0.1198
  615MOL0     C81110   5.250   3.292   1.405 -0.7764 -0.7476 -0.9219
  615MOL0     C81111   5.241   3.235   1.269 -0.0918 -0.7593 -0.1097
  615MOL0     C81112   5.224   3.192   1.157 -0.7202  0.3468 -0.1580
  615MOL0     C81113   5.418   3.498   1.728  0.4260 -0.1585  0.1378
  615MOL0     C81114   5.552   3.516   1.751  0.4973  0.1180 -0.1070
  615MOL0     H81115   6.026   3.454   1.995  0.5177 -0.6975 -0.7006
  615MOL0     H81116   6.256   3.529   2.005  0.9114 -3.5550 -2.4485
  615MOL0     H81117   6.293   3.897   1.788  1.1054  0.4007 -1.1243
  615MOL0     H81118   6.471   3.861   1.790 -1.0570 -0.8244 -3.7285
  615MOL0     H81119   6.277   3.910   2.035  0.6189  1.0624  1.8293
  615MOL0     H81120   6.407   4.022   1.965  0.9392 -0.8714 -1.5040
  615MOL0     H81121   6.571   3.877   2.041  1.2219 -2.1973  0.0059
  615MOL0     H81122   6.455   3.760   2.100  0.4631  0.0174  1.5400
  615MOL0     H81123   6.456   4.032   2.219  2.1812 -0.7407 -1.2796
  615MOL0     H81124   6.336   3.899   2.250  1.1048 -2.1614  1.9980
  615MOL0     H81125   6.544   3.931   2.396 -1.2277  1.9342 -1.2231
  615MOL0     H81126   6.635   3.870   2.263 -0.1967  0.1201  2.0648
  615MOL0     H81127   6.563   3.699   2.440 -1.2432 -1.6915  0.8484
  615MOL0     H81128   6.530   3.655   2.266 -0.2298  1.4120 -0.4117
  615MOL0     H81129   6.329   3.744   2.470  3.5095 -3.2019  3.1274
  615MOL0     H81130   6.297   3.696   2.292  1.3687 -0.1966  0.0604
  615MOL0     H81131   6.380   3.511   2.527 -0.4651 -1.8368  0.8400
  615MOL0     H81132   6.432   3.472   2.373 -1.0064 -2.1702  2.5121
  615MOL0     H81133   6.111   3.618   2.520 -0.5824 -2.1302  1.9151
  615MOL0     H81134   5.843   3.618   2.394 -1.4927 -0.7645 -1.3402
  615MOL0     H81135   5.832   3.505   2.522  0.3769 -1.4054 -0.0839
  615MOL0     H81136   5.789   3.335   2.337 -1.0544 -0.0023 -1.3022
  615MOL0     H81137   5.781   3.490   2.237 -0.1804  3.7889  1.2030
  615MOL0     H81138   5.604   3.411   2.464  1.0575  0.4412 -0.7098
  615MOL0     H81139   5.595   3.574   2.390  1.8434  0.8287  1.1380
  615MOL0     H81140   5.521   3.281   2.294 -0.8763 -0.2859  0.6680
  615MOL0     H81141   5.533   3.395   2.177  0.6880 -0.5134  0.2944
  615MOL0     H81142   5.370   3.266   2.116  0.1278  0.2365  1.5501
  615MOL0     H81143   5.170   3.200   1.996  4.0508  0.1261 -0.5257
  615MOL0     H81144   4.605   3.282   2.238  1.1273 -1.1941 -0.4754
  615MOL0     H81145   4.403   3.177   2.184  1.1714 -0.1379  0.6460
  615MOL0     H81146   4.200   3.106   2.125 -0.3699 -0.3680  0.2998
  615MOL0     H81147   4.306   2.965   2.080 -0.0644 -1.6939 -1.5166
  615MOL0     H81148   4.164   2.900   1.900  2.8228 -0.0550  0.9336
  615MOL0     H81149   4.050   3.037   1.921 -0.9163  0.3575  1.9160
  615MOL0     H81150   3.919   2.875   2.032  1.6049 -1.0004 -2.2157
  615MOL0     H81151   4.004   2.949   2.167  0.8931  0.6003  0.3509
  615MOL0     H81152   4.096   2.693   2.022  1.9295 -0.6734  0.1620
  615MOL0     H81153   4.199   2.774   2.141 -0.9365  0.8661  1.1828
  615MOL0     H81154   4.073   2.583   2.209  1.2229  0.5301 -2.9587
  615MOL0     H81155   3.925   2.656   2.172  0.9374  1.4153 -2.6114
  615MOL0     H81156   3.967   2.820   2.360 -0.3819 -1.6206  0.8303
  615MOL0     H81157   4.142   2.787   2.361 -0.1528  1.1691  0.1555
  615MOL0     H81158   3.954   2.575   2.464 -0.5639  0.5901 -1.9842
  615MOL0     H81159   4.131   2.573   2.461  0.3237 -1.5988  1.1891
  615MOL0     H81160   4.126   2.774   2.611 -0.7360  1.6568 -3.5894
  615MOL0     H81161   4.045   2.627   2.688  0.4815  0.4035  1.3371
  615MOL0     H81162   4.486   3.202   1.763  2.8035 -0.8178 -1.3880
  615MOL0     H81163   4.716   3.294   1.818 -0.0712 -1.9905 -0.1370
  615MOL0     H81164   4.937   3.467   2.261  1.6082  2.5002  0.0064
  615MOL0     H81165   5.149   3.517   2.377 -0.5779  1.1595 -1.1975
  615MOL0     H81166   6.223   3.738   1.643 -2.5769 -1.4537 -3.2018
  615MOL0     H81167   5.990   3.646   1.610  0.8015  2.3685 -0.0729
  615MOL0     H81168   5.611   3.214   1.904 -2.3961 -2.2637 -2.5093
  615MOL0     H81169   5.399   3.170   1.825 -0.0291 -1.5345 -4.6918
  615MOL0     H81170   5.156   3.517   1.760  3.3580 -1.1724  0.2692
  615MOL0     H81171   5.032   3.393   1.700  0.5793 -2.3427 -2.2890
  615MOL0     H81172   5.057   3.552   1.504  3.1155  2.1819 -0.4184
  615MOL0     H81173   5.228   3.544   1.522  0.3715  0.7994  1.0166
  615MOL0     H81174   5.103   3.440   1.342  2.0137 -1.5564 -1.4061
  615MOL0     H81175   5.036   3.328   1.457 -0.6464  1.3792 -1.2576
  615MOL0     H81176   5.333   3.362   1.417 -1.5560 -0.0514  0.7355
  615MOL0     H81177   5.259   3.216   1.482 -1.1432  1.8731  1.9112
  615MOL0     H81178   5.207   3.147   1.061  0.9327  0.1292 -0.3823
  615MOL0     H81179   5.370   3.584   1.684 -3.6775 -2.3824 -0.2332
  615MOL0     H81180   5.599   3.611   1.730  0.9709 -0.1838 -0.4188
  616MOL0     O81181   2.041   9.827   2.524 -0.4529  0.1297 -0.4003
  616MOL0     C81182   2.098   9.884   2.433  0.5510  0.0935  1.0725
  616MOL0     O81183   2.040   9.959   2.333  0.5537  0.3881  0.6684
  616MOL0     C81184   1.902   9.968   2.343  0.0315  0.2032 -0.2833
  616MOL0     C81185   1.832  10.018   2.449 -0.2348  0.2293 -0.6096
  616MOL0     C81186   1.694  10.035   2.441  0.9384  0.4275  0.5195
  616MOL0     C81187   1.615  10.011   2.323 -0.4282 -0.4354  0.5226
  616MOL0     O81188   1.483  10.030   2.318  0.6653  0.1259  0.5932
  616MOL0     C81189   1.402   9.946   2.231 -1.3613 -0.6022 -0.1737
  616MOL0     C81190   1.278   9.900   2.310 -0.7044 -0.0131 -0.5616
  616MOL0     C81191   1.196  10.008   2.381  0.3129  0.5699 -0.2438
  616MOL0     C81192   1.126  10.095   2.272 -0.3883 -0.0041 -0.7515
  616MOL0     C81193   1.014  10.199   2.305  0.0038  0.0623  0.5314
  616MOL0     C81194   1.062  10.307   2.392  0.0348 -0.2294 -0.0359
  616MOL0     C81195   0.954  10.415   2.417 -0.3854  0.3572 -0.1772
  616MOL0     C81196   0.972  10.505   2.543 -0.5807 -0.0158 -0.4689
  616MOL0     N81197   1.100  10.573   2.557 -0.9078 -0.1969 -0.1716
  616MOL0     C81198   1.149  10.668   2.470 -0.3753 -0.2025  0.2527
  616MOL0     C81199   1.280  10.690   2.509  0.5252 -0.2613  0.5263
  616MOL0     C81200   1.374  10.779   2.427  0.0532 -0.3432 -0.0358
  616MOL0     C81201   1.410  10.711   2.300  0.1325  0.1158 -1.0933
  616MOL0     C81202   1.479  10.568   2.321 -0.3521 -0.6450 -1.7789
  616MOL0     C81203   1.609  10.554   2.405 -1.1504 -0.4090  0.6592
  616MOL0     O81204   1.656  10.426   2.393 -0.4307  0.4525  0.5142
  616MOL0     C81205   1.789  10.401   2.421 -0.0007 -0.3262  0.4209
  616MOL0     C81206   1.854  10.459   2.530  0.1299  0.8230 -0.0265
  616MOL0     C81207   1.989  10.449   2.550  0.1413 -0.2336 -0.7007
  616MOL0     C81208   2.063  10.364   2.466 -0.1016 -1.0700 -0.8831
  616MOL0     C81209   2.206  10.335   2.480 -0.1601 -1.1532  0.2053
  616MOL0     O81210   2.260  10.357   2.598  0.3934 -0.0398  0.4152
  616MOL0     C81211   2.379  10.301   2.632 -0.1513 -0.1776 -0.1433
  616MOL0     C81212   2.407  10.162   2.650  0.5654 -0.8316  0.2627
  616MOL0     C81213   2.538  10.119   2.681 -0.2043  0.7298 -1.0111
  616MOL0     C81214   2.641  10.216   2.704 -0.3288  0.2724  0.6647
  616MOL0     O81215   2.772  10.176   2.744 -0.1902 -0.1828  0.1688
  616MOL0     C81216   2.788  10.039   2.802  0.6248  0.5901 -0.3405
  616MOL0     C81217   2.936  10.031   2.859  0.8394  0.2928 -0.3319
  616MOL0     C81218   2.950  10.131   2.975  1.2692  0.4893 -1.0655
  616MOL0     C81219   3.097  10.164   3.007 -0.7306  0.2137  0.3730
  616MOL0     C81220   3.096  10.258   3.127  0.0446 -0.8716 -0.3711
  616MOL0     C81221   3.244  10.267   3.193 -0.8125  0.2524  0.9905
  616MOL0     C81222   3.356  10.312   3.101 -0.5022 -0.2328  0.5451
  616MOL0     C81223   3.494  10.311   3.153 -0.0295  0.4491 -0.2246
  616MOL0    Cl81224   3.532  10.147   3.169 -0.5551  0.1724  0.4509
  616MOL0     C81225   2.612  10.348   2.687  0.3173  0.1571 -0.4048
  616MOL0     C81226   2.490  10.390   2.651 -1.1561  0.6102 -0.7042
  616MOL0     O81227   2.253  10.273   2.381 -1.1300 -0.5064 -0.2979
  616MOL0     C81228   1.999  10.306   2.350 -0.2164 -1.2498 -0.7040
  616MOL0     C81229   1.866  10.319   2.337 -0.1005  0.3931  0.2089
  616MOL0     N81230   1.302  10.606   2.622 -0.3654  0.2165  0.1263
  616MOL0     N81231   1.207  10.533   2.637  0.8103  0.4050 -0.1741
  616MOL0     C81232   1.694   9.963   2.211 -0.5837  0.2704  0.6072
  616MOL0     C81233   1.829   9.934   2.223 -0.2523  1.0172 -0.0934
  616MOL0     C81234   2.241   9.859   2.407 -0.7484 -0.8118 -0.4175
  616MOL0     C81235   2.309   9.761   2.479  0.6250  0.7317 -0.9801
  616MOL0     C81236   2.444   9.732   2.448 -0.1139 -0.1376  0.4592
  616MOL0     C81237   2.515   9.810   2.362  0.3416  0.4926 -0.9690
  616MOL0     O81238   2.647   9.775   2.358  0.1238  0.5269  0.0851
  616MOL0     C81239   2.743   9.851   2.277  1.1662  0.3807 -0.0529
  616MOL0     C81240   2.875   9.892   2.340 -0.5800  0.2735 -0.4799
  616MOL0     C81241   2.861  10.016   2.422  0.6978 -0.3135 -0.6975
  616MOL0     C81242   3.004  10.050   2.473 -0.0804 -0.1865  0.2248
  616MOL0     C81243   3.018  10.191   2.510 -0.2054 -0.0387 -0.0702
  616MOL0     C81244   3.024  10.312   2.547  0.4112  0.5876 -0.1553
  616MOL0     C81245   2.444   9.915   2.301  0.1949  0.3640  0.4620
  616MOL0     C81246   2.313   9.940   2.321 -0.1742 -0.2802 -0.7545
  616MOL0     H81247   1.892  10.042   2.536  2.5423 -1.9492 -1.7430
  616MOL0     H81248   1.644  10.067   2.532 -1.4884  3.7782 -1.7759
  616MOL0     H81249   1.452   9.856   2.191  0.0283  1.0359 -2.3590
  616MOL0     H81250   1.382   9.999   2.137 -0.3465  0.2254  0.0593
  616MOL0     H81251   1.315   9.843   2.395  0.9050  0.8603 -0.6445
  616MOL0     H81252   1.225   9.834   2.241 -0.2456 -1.1180  0.1244
  616MOL0     H81253   1.260  10.075   2.439  1.9209  1.5431 -2.9559
  616MOL0     H81254   1.116   9.962   2.438  0.5295  0.2045 -0.2277
  616MOL0     H81255   1.207  10.152   2.226 -2.3689  1.1729 -2.9699
  616MOL0     H81256   1.081  10.029   2.197 -0.9108  1.2654 -1.5816
  616MOL0     H81257   0.930  10.141   2.347  0.2039  0.0862  0.9642
  616MOL0     H81258   0.991  10.250   2.211 -1.2623 -0.0227  0.7777
  616MOL0     H81259   1.153  10.352   2.353 -1.0407  1.1772 -1.0416
  616MOL0     H81260   1.096  10.263   2.486  1.0004 -0.5887 -0.5445
  616MOL0     H81261   0.944  10.478   2.328 -0.4914  1.9291  0.9035
  616MOL0     H81262   0.852  10.376   2.426  0.7351 -2.5237  1.3594
  616MOL0     H81263   0.962  10.439   2.630 -1.6767 -2.5064 -2.3796
  616MOL0     H81264   0.888  10.574   2.551 -1.3139 -0.8179 -1.0664
  616MOL0     H81265   1.099  10.701   2.380  1.3647 -0.5839 -0.9156
  616MOL0     H81266   1.468  10.797   2.480  0.7361 -2.8200 -0.2966
  616MOL0     H81267   1.320  10.870   2.399 -0.0790  0.0202  1.2881
  616MOL0     H81268   1.475  10.778   2.244  1.6611  0.9378  1.4856
  616MOL0     H81269   1.316  10.689   2.248 -3.0678 -2.6352  4.8533
  616MOL0     H81270   1.401  10.500   2.356 -1.2584  0.2794 -1.9560
  616MOL0     H81271   1.511  10.541   2.220 -0.1595  0.5983 -2.0669
  616MOL0     H81272   1.580  10.582   2.507 -1.5703 -0.2732  0.5009
  616MOL0     H81273   1.685  10.624   2.367 -1.9282 -0.5025 -1.1551
  616MOL0     H81274   1.795  10.521   2.596 -2.1943 -2.1019  0.8753
  616MOL0     H81275   2.028  10.500   2.637 -0.9316 -1.0205  0.2801
  616MOL0     H81276   2.330  10.090   2.629 -0.9002  1.8107 -5.3740
  616MOL0     H81277   2.549  10.011   2.678 -1.9914  0.5140 -1.0733
  616MOL0     H81278   2.749   9.957   2.740  0.8915 -0.0427  0.3155
  616MOL0     H81279   2.726  10.024   2.891 -1.5911  0.1660 -1.8503
  616MOL0     H81280   3.008  10.053   2.780 -0.7844 -0.0987 -1.9877
  616MOL0     H81281   2.948   9.932   2.905 -1.3363  0.1075 -0.0780
  616MOL0     H81282   2.895  10.108   3.067  1.1901  0.2578 -1.1676
  616MOL0     H81283   2.913  10.227   2.940 -2.3194  0.4254  1.9687
  616MOL0     H81284   3.150  10.071   3.029 -2.4107 -0.5703  1.2849
  616MOL0     H81285   3.143  10.217   2.923  2.0756 -2.3685  0.1264
  616MOL0     H81286   3.022  10.219   3.198 -0.3156  3.2978  1.8648
  616MOL0     H81287   3.062  10.359   3.100  3.0174  0.2642 -0.2740
  616MOL0     H81288   3.277  10.168   3.225 -1.0040  0.3214  1.4065
  616MOL0     H81289   3.242  10.330   3.283  2.0761  0.6329  0.8763
  616MOL0     H81290   3.367  10.251   3.010  1.3871 -1.4602  1.5323
  616MOL0     H81291   3.336  10.416   3.076  0.5699 -0.2996 -0.6955
  616MOL0     H81292   3.507  10.356   3.252 -2.2490  0.0359  0.2906
  616MOL0     H81293   3.565  10.354   3.082  1.3969 -1.5609 -0.0967
  616MOL0     H81294   2.692  10.421   2.700 -0.3232  0.5268  1.9980
  616MOL0     H81295   2.480  10.496   2.634  2.0867  1.4500  1.7185
  616MOL0     H81296   2.051  10.275   2.260 -1.6054 -0.2793 -1.8915
  616MOL0     H81297   1.805  10.274   2.260  0.8642 -0.1011 -0.2789
  616MOL0     H81298   1.642   9.968   2.116 -3.3272  0.9731  2.0628
  616MOL0     H81299   1.877   9.897   2.133  0.0106  3.1688 -0.9064
  616MOL0     H81300   2.256   9.702   2.553  0.9886  1.5499 -0.0356
  616MOL0     H81301   2.503   9.657   2.501 -1.2508  0.4116  2.6388
  616MOL0     H81302   2.703   9.942   2.232  3.4723  1.0967 -0.7545
  616MOL0     H81303   2.768   9.783   2.196 -1.0580  0.2986 -0.7529
  616MOL0     H81304   2.923   9.811   2.395 -0.2419  1.8247  1.6397
  616MOL0     H81305   2.931   9.923   2.252 -2.5323 -0.4735 -2.0693
  616MOL0     H81306   2.797  10.000   2.509  1.8279  0.8906  0.4055
  616MOL0     H81307   2.814  10.103   2.375 -2.7710 -1.5989  0.1036
  616MOL0     H81308   3.024   9.989   2.561  1.4615 -1.0901 -0.7004
  616MOL0     H81309   3.078  10.025   2.396 -0.4183  1.9549 -0.8635
  616MOL0     H81310   3.048  10.412   2.578 -2.6561  1.2560  0.4633
  616MOL0     H81311   2.492   9.989   2.237 -2.8819  1.5514 -0.6755
  616MOL0     H81312   2.261  10.021   2.270 -1.0384 -0.3654 -0.0411
  617MOL0     O81313   3.832   6.833   0.436 -0.2405 -0.6021  0.6526
  617MOL0     C81314   3.902   6.736   0.416  0.0569 -1.3176 -0.7609
  617MOL0     O81315   3.901   6.632   0.488  0.4705  0.6858 -0.3157
  617MOL0     C81316   3.801   6.593   0.573 -0.3447 -0.1720  0.4168
  617MOL0     C81317   3.832   6.507   0.670  0.1417 -0.7429 -0.8317
  617MOL0     C81318   3.734   6.464   0.764  0.6290 -0.2298  0.9306
  617MOL0     C81319   3.599   6.503   0.752 -0.4390 -0.4495  0.3042
  617MOL0     O81320   3.510   6.446   0.843 -0.7228  0.2610  0.3312
  617MOL0     C81321   3.375   6.473   0.847 -0.6543 -1.1236  0.5445
  617MOL0     C81322   3.341   6.603   0.908 -0.1315 -0.1944 -0.5764
  617MOL0     C81323   3.202   6.604   0.946  0.2033  0.2143  0.1328
  617MOL0     C81324   3.172   6.539   1.073  0.2926  0.4034 -0.7676
  617MOL0     C81325   3.023   6.503   1.091  0.6454  0.3720 -0.1553
  617MOL0     C81326   2.999   6.355   1.074  0.3281 -1.4591  0.3115
  617MOL0     C81327   2.851   6.318   1.075  0.1598  0.0827  0.4933
  617MOL0     C81328   2.825   6.170   1.101 -1.3537  0.1003  0.1078
  617MOL0     N81329   2.691   6.119   1.064  0.2784 -0.0067 -0.1454
  617MOL0     C81330   2.577   6.126   1.137  0.7784 -0.9406  0.1199
  617MOL0     C81331   2.474   6.072   1.067  0.8038 -0.2968  0.5722
  617MOL0     C81332   2.327   6.074   1.103 -0.0006  0.7439 -0.6505
  617MOL0     C81333   2.251   6.020   0.986  1.1114 -0.3569  0.3036
  617MOL0     C81334   2.104   6.005   1.020 -0.5300 -0.3969 -0.5581
  617MOL0     C81335   2.092   5.873   1.096  0.1149  0.7983 -0.0021
  617MOL0     O81336   1.957   5.850   1.142  0.4645  0.4707  0.3566
  617MOL0     C81337   1.926   5.718   1.163  0.3169  0.1102 -0.3562
  617MOL0     C81338   1.969   5.649   1.273 -0.5244  0.0974  0.0622
  617MOL0     C81339   1.927   5.523   1.307  0.9686 -0.0065  1.0528
  617MOL0     C81340   1.836   5.459   1.219  0.2029  0.4916  0.3237
  617MOL0     C81341   1.809   5.315   1.239  0.4111  0.3227  0.3592
  617MOL0     O81342   1.758   5.248   1.125  0.2613 -0.6733 -0.0038
  617MOL0     C81343   1.706   5.120   1.125  0.1547 -1.2847 -0.5812
  617MOL0     C81344   1.730   5.042   1.016 -0.0972 -0.4323  0.5503
  617MOL0     C81345   1.690   4.906   1.014 -0.0100  0.3040 -0.2250
  617MOL0     C81346   1.616   4.849   1.121 -0.2348  0.3544  0.5447
  617MOL0     O81347   1.588   4.716   1.130  0.0283 -0.6102  0.1489
  617MOL0     C81348   1.497   4.664   1.033 -0.4067 -0.0807  0.2432
  617MOL0     C81349   1.425   4.536   1.085  0.2524 -0.3703  0.4139
  617MOL0     C81350   1.279   4.556   1.110 -0.0007 -0.2775  0.1456
  617MOL0     C81351   1.209   4.435   1.168 -1.0099 -0.0092 -0.0496
  617MOL0     C81352   1.058   4.463   1.202  0.8998 -0.7199  0.2022
  617MOL0     C81353   0.963   4.503   1.086  0.7467 -0.8858  0.5946
  617MOL0     C81354   0.818   4.506   1.116 -0.2175 -0.7907 -0.4609
  617MOL0     C81355   0.775   4.648   1.166 -0.6785  0.7154 -0.2152
  617MOL0    Cl81356   0.602   4.643   1.192 -0.2007  0.2906 -0.1903
  617MOL0     C81357   1.601   4.924   1.231  0.3798  0.1092  0.4449
  617MOL0     C81358   1.643   5.060   1.225  0.9761  0.6648  0.0901
  617MOL0     O81359   1.824   5.263   1.348  0.2526 -0.2858  0.5299
  617MOL0     C81360   1.791   5.520   1.100 -0.2746  0.1558  0.1464
  617MOL0     C81361   1.830   5.655   1.087  0.2975  0.0270  0.3263
  617MOL0     N81362   2.528   6.036   0.942  0.4650 -0.4444 -0.5299
  617MOL0     N81363   2.651   6.062   0.945 -1.2659  0.3721  0.2518
  617MOL0     C81364   3.566   6.597   0.653 -1.1417 -0.0205 -0.8707
  617MOL0     C81365   3.667   6.637   0.569  0.1967  0.4961 -0.3761
  617MOL0     C81366   4.011   6.760   0.323  0.0449  0.7364  0.0131
  617MOL0     C81367   4.069   6.883   0.302 -0.0646 -0.4271  0.2340
  617MOL0     C81368   4.181   6.903   0.216  0.4791  0.3172 -0.3324
  617MOL0     C81369   4.212   6.786   0.136 -0.0251 -0.4387  0.6088
  617MOL0     O81370   4.296   6.815   0.028 -0.0170 -0.7649 -1.1224
  617MOL0     C81371   4.374   6.706  -0.018 -0.7875 -0.2085  0.7040
  617MOL0     C81372   4.497   6.757  -0.100 -1.2505 -0.0467 -0.5526
  617MOL0     C81373   4.585   6.635  -0.141  0.4799 -1.1397 -0.4579
  617MOL0     C81374   4.721   6.694  -0.174  0.2870 -0.3146  0.5980
  617MOL0     C81375   4.805   6.581  -0.197  0.8488  0.4061 -0.1752
  617MOL0     C81376   4.882   6.483  -0.195 -0.1683  0.2933 -0.2878
  617MOL0     C81377   4.142   6.667   0.146 -1.4484 -0.5394 -0.3814
  617MOL0     C81378   4.042   6.648   0.248  0.3394 -0.2705  0.1569
  617MOL0     H81379   3.931   6.469   0.693 -0.1105 -1.9489 -1.6396
  617MOL0     H81380   3.747   6.405   0.854 -1.5775 -1.1311  0.7204
  617MOL0     H81381   3.328   6.398   0.911 -1.3581 -0.1551  1.1922
  617MOL0     H81382   3.337   6.477   0.744 -2.0488 -1.9979  0.9940
  617MOL0     H81383   3.359   6.684   0.837 -1.6559  2.1689  1.6017
  617MOL0     H81384   3.409   6.611   0.992 -1.8443 -0.0556  0.8513
  617MOL0     H81385   3.140   6.556   0.869 -0.5005  3.9402 -1.8804
  617MOL0     H81386   3.180   6.710   0.956 -2.7434 -0.1224 -1.6198
  617MOL0     H81387   3.224   6.443   1.077 -2.3832 -1.1281 -0.3176
  617MOL0     H81388   3.210   6.599   1.156 -0.1203 -2.0579  1.3314
  617MOL0     H81389   2.952   6.539   1.015  1.7624 -0.9512 -1.8804
  617MOL0     H81390   2.991   6.529   1.193  1.9786 -1.8791  0.9036
  617MOL0     H81391   3.046   6.304   1.159  1.2848 -2.3527 -0.7180
  617MOL0     H81392   3.039   6.320   0.979  0.3879 -0.4199 -0.0638
  617MOL0     H81393   2.801   6.375   1.154  1.1611  1.0417  0.4563
  617MOL0     H81394   2.800   6.332   0.980 -1.5363 -2.2260  0.9589
  617MOL0     H81395   2.866   6.141   1.198 -0.1403  1.1332 -0.0834
  617MOL0     H81396   2.900   6.122   1.037 -0.6316  0.4489  0.6839
  617MOL0     H81397   2.567   6.189   1.224 -0.6656 -2.5965  1.2244
  617MOL0     H81398   2.309   6.178   1.129 -2.5079  0.0315  0.7132
  617MOL0     H81399   2.314   6.005   1.187  0.3496  0.6313 -0.6861
  617MOL0     H81400   2.290   5.924   0.951 -0.1987  0.4337 -3.9896
  617MOL0     H81401   2.256   6.082   0.896  2.1828 -2.4873 -1.2059
  617MOL0     H81402   2.065   6.092   1.075  3.0604  0.9451  0.1437
  617MOL0     H81403   2.049   5.992   0.926  0.9223  1.1395 -1.6839
  617MOL0     H81404   2.165   5.859   1.175 -1.5103  0.2686  1.4716
  617MOL0     H81405   2.110   5.798   1.019  0.3392 -0.1350  0.9385
  617MOL0     H81406   2.042   5.694   1.340  0.3035 -1.0872 -0.0122
  617MOL0     H81407   1.949   5.475   1.402  0.4030  1.2631  1.8466
  617MOL0     H81408   1.797   5.070   0.935 -0.3212 -2.1831 -0.3038
  617MOL0     H81409   1.712   4.831   0.938 -0.3594  0.2252 -0.2495
  617MOL0     H81410   1.551   4.631   0.944  0.1929  0.6342  0.3322
  617MOL0     H81411   1.421   4.737   1.003 -2.2311 -1.2745  1.7905
  617MOL0     H81412   1.473   4.490   1.172 -1.5732 -0.8166  1.2330
  617MOL0     H81413   1.431   4.460   1.007 -0.4527 -0.6302  0.5977
  617MOL0     H81414   1.230   4.582   1.016 -1.9931  1.3974  1.5689
  617MOL0     H81415   1.264   4.640   1.179 -1.4230  2.4637 -3.2432
  617MOL0     H81416   1.204   4.363   1.086  0.3425 -0.5367  0.3052
  617MOL0     H81417   1.258   4.389   1.254 -3.6098 -0.9078  1.0835
  617MOL0     H81418   1.048   4.530   1.288 -0.9469 -1.0603  0.2951
  617MOL0     H81419   1.028   4.364   1.238  0.6325 -1.4802 -1.9804
  617MOL0     H81420   0.998   4.443   1.002  2.6128  1.0277 -0.0910
  617MOL0     H81421   0.988   4.605   1.058 -3.4823  0.7365  1.9471
  617MOL0     H81422   0.770   4.476   1.022 -0.1773  0.6704 -0.9828
  617MOL0     H81423   0.799   4.428   1.190 -1.5684 -0.5675 -0.5454
  617MOL0     H81424   0.804   4.734   1.105 -0.7664 -0.6870 -2.3311
  617MOL0     H81425   0.829   4.663   1.260  0.7383  2.4542 -1.2349
  617MOL0     H81426   1.559   4.888   1.324  2.1445  2.2253  2.1827
  617MOL0     H81427   1.630   5.107   1.323 -2.4103 -0.2605  0.2367
  617MOL0     H81428   1.722   5.475   1.029 -0.8001 -0.0392  0.7664
  617MOL0     H81429   1.787   5.711   1.005 -0.2733 -0.0835  0.5472
  617MOL0     H81430   3.465   6.635   0.639 -0.2977  1.5323 -3.5856
  617MOL0     H81431   3.628   6.710   0.499  0.9584  0.5011 -0.8023
  617MOL0     H81432   4.030   6.971   0.352  2.1899  0.3866  0.7090
  617MOL0     H81433   4.226   7.001   0.201  2.5451 -0.1724  1.9569
  617MOL0     H81434   4.310   6.647  -0.084  0.4849 -2.0141  1.0072
  617MOL0     H81435   4.400   6.638   0.064  1.2229  0.7142  0.8979
  617MOL0     H81436   4.483   6.811  -0.194  0.4007 -0.5653 -1.1329
  617MOL0     H81437   4.552   6.818  -0.027  0.6979 -0.2740 -1.7616
  617MOL0     H81438   4.547   6.575  -0.224 -1.4006 -2.1702  1.0375
  617MOL0     H81439   4.585   6.568  -0.054 -1.4835  0.8293  1.1847
  617MOL0     H81440   4.727   6.756  -0.264 -2.2781 -0.0250  0.5414
  617MOL0     H81441   4.750   6.751  -0.085  0.9967 -1.4902  1.1450
  617MOL0     H81442   4.942   6.396  -0.184 -1.5758 -0.4662  2.0444
  617MOL0     H81443   4.155   6.584   0.078 -0.3626  0.6142 -1.6294
  617MOL0     H81444   3.973   6.565   0.262 -0.8018  0.2603 -1.8346
  618MOL0     O81445   6.682   0.263   7.089  0.6191  0.4075  0.1145
  618MOL0     C81446   6.759   0.168   7.086 -1.1631 -0.3150  0.3605
  618MOL0     O81447   6.736   0.045   7.041  0.4581  0.0026 -0.0023
  618MOL0     C81448   6.623   0.020   6.963  0.9044  0.3651 -0.5358
  618MOL0     C81449   6.618   0.074   6.834  0.0950 -0.3303  0.1259
  618MOL0     C81450   6.487   0.072   6.773 -0.1615 -0.1499 -0.1116
  618MOL0     C81451   6.374   0.014   6.826  0.7459  0.1028 -0.2045
  618MOL0     O81452   6.253  -0.002   6.767  0.2438  0.5232 -0.5118
  618MOL0     C81453   6.237   0.040   6.628  0.0629  0.3622 -0.4429
  618MOL0     C81454   6.091   0.045   6.600 -0.4111  0.4522  0.2358
  618MOL0     C81455   6.048   0.124   6.473 -0.3658 -0.6068 -1.0438
  618MOL0     C81456   6.008   0.269   6.517  0.2014  1.2810  0.4822
  618MOL0     C81457   6.000   0.359   6.398  0.1962  0.0541  0.9372
  618MOL0     C81458   5.899   0.305   6.290  0.4334 -0.1466  0.2564
  618MOL0     C81459   5.866   0.403   6.178 -0.2320  0.3443 -0.3397
  618MOL0     C81460   5.978   0.408   6.071  0.6620 -0.6780  0.2268
  618MOL0     N81461   6.003   0.283   6.001 -0.0200 -0.0714  0.4755
  618MOL0     C81462   5.901   0.214   5.938 -0.0894 -0.8051  0.3576
  618MOL0     C81463   5.962   0.125   5.857  0.1328  1.3271  0.4599
  618MOL0     C81464   5.894   0.015   5.776 -1.0486 -0.0037 -0.2837
  618MOL0     C81465   5.946  -0.124   5.816  0.3561 -0.3457 -0.5253
  618MOL0     C81466   5.927  -0.178   5.966 -0.2559  0.0410  0.0332
  618MOL0     C81467   5.781  -0.196   6.012  0.2181 -0.9198 -0.5216
  618MOL0     O81468   5.768  -0.259   6.138  0.3293 -0.5502  0.4354
  618MOL0     C81469   5.758  -0.197   6.263  0.6428  0.1381 -0.2844
  618MOL0     C81470   5.696  -0.072   6.281  0.3583  0.2211 -0.9852
  618MOL0     C81471   5.683  -0.010   6.400 -0.6022  0.4435 -0.3114
  618MOL0     C81472   5.719  -0.082   6.516  0.4913 -0.2092 -0.4182
  618MOL0     C81473   5.703  -0.026   6.653  0.3697  0.2056 -0.4305
  618MOL0     O81474   5.785  -0.068   6.756 -0.0547 -0.4758  0.0283
  618MOL0     C81475   5.758  -0.027   6.884  0.8281 -0.2487 -0.1313
  618MOL0     C81476   5.649  -0.080   6.947  0.1799 -0.7229  0.2785
  618MOL0     C81477   5.605  -0.014   7.061  0.2274  1.5154  0.4396
  618MOL0     C81478   5.672   0.094   7.122 -1.1076 -0.7057  0.5269
  618MOL0     O81479   5.624   0.145   7.241 -0.2425 -0.2567 -0.1754
  618MOL0     C81480   5.676   0.268   7.290  0.7262  0.2117  0.2842
  618MOL0     C81481   5.629   0.282   7.437  0.4718 -0.4150 -0.9201
  618MOL0     C81482   5.482   0.275   7.453  0.0209  0.0666 -0.3797
  618MOL0     C81483   5.441   0.327   7.595  0.8409  0.2226 -0.9177
  618MOL0     C81484   5.285   0.353   7.590 -0.0299  0.3750 -0.2149
  618MOL0     C81485   5.224   0.354   7.732 -1.0273 -0.0635 -0.0252
  618MOL0     C81486   5.069   0.370   7.731  0.4722 -0.5641  0.2209
  618MOL0     C81487   5.008   0.389   7.880  1.2997 -0.2917 -0.3758
  618MOL0    Cl81488   5.006   0.236   7.969 -0.2225 -0.1268 -0.6385
  618MOL0     C81489   5.792   0.130   7.062  0.8182 -0.4112 -0.6490
  618MOL0     C81490   5.834   0.072   6.940 -0.9144 -0.1259 -0.8170
  618MOL0     O81491   5.612   0.062   6.663 -0.8279  0.9235  0.5343
  618MOL0     C81492   5.788  -0.199   6.506  0.2609  0.5614 -0.1180
  618MOL0     C81493   5.804  -0.256   6.375  0.5114 -0.4650  0.8072
  618MOL0     N81494   6.104   0.134   5.865  0.0374 -0.0171 -0.6427
  618MOL0     N81495   6.123   0.226   5.964  0.1843 -0.4424  0.6850
  618MOL0     C81496   6.373  -0.032   6.955 -0.4117 -0.3865 -0.3608
  618MOL0     C81497   6.502  -0.036   7.020  0.1049 -0.4288 -0.0502
  618MOL0     C81498   6.896   0.192   7.148 -0.1260 -0.4226 -0.0783
  618MOL0     C81499   7.006   0.108   7.111  0.0638  0.0069  0.5421
  618MOL0     C81500   7.135   0.119   7.164  0.2192  0.5618  0.5807
  618MOL0     C81501   7.160   0.234   7.246  0.3817  0.5968  0.2778
  618MOL0     O81502   7.291   0.247   7.293 -0.0651  0.0575 -0.6389
  618MOL0     C81503   7.309   0.346   7.400  0.6952 -0.2230 -0.1645
  618MOL0     C81504   7.460   0.364   7.419  0.1536 -0.2558  0.1392
  618MOL0     C81505   7.493   0.511   7.481 -0.6376  0.7995  0.7886
  618MOL0     C81506   7.613   0.531   7.563  0.7733 -0.1034  0.0657
  618MOL0     C81507   7.732   0.520   7.480  0.5405  1.1541 -0.6250
  618MOL0     C81508   7.827   0.501   7.407  0.4693  0.3005  1.5604
  618MOL0     C81509   7.050   0.316   7.281 -0.1408 -0.2276 -0.2518
  618MOL0     C81510   6.919   0.292   7.243  0.2236  0.0867 -0.0279
  618MOL0     H81511   6.703   0.123   6.788  0.0574 -0.8697 -0.5324
  618MOL0     H81512   6.496   0.125   6.678 -1.6509 -0.2254 -0.3223
  618MOL0     H81513   6.294  -0.041   6.580 -2.0268 -3.2097  2.5157
  618MOL0     H81514   6.268   0.142   6.607 -0.2399  0.3578 -0.9393
  618MOL0     H81515   6.034   0.071   6.690  1.7662 -0.5398  2.0132
  618MOL0     H81516   6.063  -0.058   6.580 -2.0019  0.5754  1.6637
  618MOL0     H81517   5.963   0.070   6.430 -0.5860 -1.8146  0.8103
  618MOL0     H81518   6.130   0.130   6.401  1.0865  0.5859  0.6219
  618MOL0     H81519   5.920   0.271   6.582 -1.3785 -0.4832 -1.4433
  618MOL0     H81520   6.087   0.314   6.576 -0.6294  0.6969  2.0957
  618MOL0     H81521   6.102   0.370   6.360  0.9889 -1.7449  2.3574
  618MOL0     H81522   5.969   0.460   6.425  0.8886  0.6148 -0.3018
  618MOL0     H81523   5.805   0.285   6.342  0.3757 -0.9973 -0.1682
  618MOL0     H81524   5.934   0.211   6.248 -1.7615 -0.1827 -1.6942
  618MOL0     H81525   5.769   0.382   6.131 -0.9342  1.8291  0.3777
  618MOL0     H81526   5.855   0.507   6.211  1.1963  0.6926 -0.8696
  618MOL0     H81527   6.072   0.443   6.116  1.9048 -0.4436 -2.3606
  618MOL0     H81528   5.949   0.482   5.995  0.7595 -1.5036 -0.6341
  618MOL0     H81529   5.794   0.219   5.953  0.0864  0.9297  1.3359
  618MOL0     H81530   5.911   0.034   5.669 -1.4664  2.5769  0.0424
  618MOL0     H81531   5.786   0.018   5.787 -1.0177  3.2613  0.3501
  618MOL0     H81532   6.055  -0.110   5.824  0.4142 -0.1811 -1.5500
  618MOL0     H81533   5.924  -0.192   5.734  1.7417  0.8389 -1.9368
  618MOL0     H81534   5.989  -0.268   5.978 -0.7666 -0.2797  0.3063
  618MOL0     H81535   5.979  -0.103   6.026  0.6811  0.3579 -1.1338
  618MOL0     H81536   5.735  -0.269   5.944 -0.6210 -0.5658 -0.3354
  618MOL0     H81537   5.728  -0.101   6.004 -0.0131 -0.9912  0.1543
  618MOL0     H81538   5.663  -0.013   6.196 -1.5913  2.3815  1.1016
  618MOL0     H81539   5.628   0.083   6.414 -0.7777  0.2267  0.4522
  618MOL0     H81540   5.609  -0.174   6.909 -0.8210 -0.4820  0.7026
  618MOL0     H81541   5.527  -0.057   7.123  1.7396 -0.8042  0.8589
  618MOL0     H81542   5.631   0.340   7.221 -0.1883 -2.4515 -2.1028
  618MOL0     H81543   5.785   0.280   7.295  0.9879 -1.2564 -1.0618
  618MOL0     H81544   5.653   0.385   7.464 -2.5565  1.1058 -3.3482
  618MOL0     H81545   5.685   0.217   7.505  0.1201  1.0666  0.8428
  618MOL0     H81546   5.444   0.174   7.435 -3.1948  1.0570  0.2275
  618MOL0     H81547   5.431   0.329   7.372  2.5988  1.2961 -1.2819
  618MOL0     H81548   5.466   0.258   7.677 -1.0765 -0.8454 -1.1830
  618MOL0     H81549   5.487   0.424   7.616 -2.5706  1.4025  2.1532
  618MOL0     H81550   5.242   0.271   7.532 -0.9582 -0.5303  1.6671
  618MOL0     H81551   5.253   0.442   7.534 -1.6229 -0.7446 -1.1589
  618MOL0     H81552   5.272   0.433   7.790 -1.3391  2.2932 -2.7361
  618MOL0     H81553   5.249   0.264   7.789  2.0083 -0.1142 -1.2424
  618MOL0     H81554   5.047   0.459   7.672 -1.8452 -1.7373 -0.8012
  618MOL0     H81555   5.045   0.277   7.678  2.7664 -0.4687 -1.1515
  618MOL0     H81556   4.904   0.419   7.864  0.6486 -1.7297  0.8933
  618MOL0     H81557   5.059   0.469   7.934 -3.9055  1.7990  2.0998
  618MOL0     H81558   5.854   0.215   7.089 -0.1786  0.1654 -0.1058
  618MOL0     H81559   5.926   0.101   6.890 -0.6990 -1.5371 -1.2778
  618MOL0     H81560   5.817  -0.251   6.597  1.8675  0.7507 -0.4869
  618MOL0     H81561   5.850  -0.353   6.363  1.0933 -0.0337 -0.6530
  618MOL0     H81562   6.285  -0.076   6.999  0.2193 -0.4226  0.9190
  618MOL0     H81563   6.516  -0.083   7.116 -1.1480  0.6003  0.6677
  618MOL0     H81564   6.980   0.030   7.041 -1.5315 -1.2801  2.4506
  618MOL0     H81565   7.215   0.049   7.144  0.4284  1.3123 -1.4422
  618MOL0     H81566   7.258   0.328   7.495  1.6628  0.4076  0.4860
  618MOL0     H81567   7.272   0.441   7.359  2.5224  0.2030 -0.9029
  618MOL0     H81568   7.493   0.294   7.496  1.8018  1.8739  1.4690
  618MOL0     H81569   7.514   0.344   7.326  0.4722 -0.1082  0.2924
  618MOL0     H81570   7.405   0.538   7.541  0.5690  0.6329  2.7280
  618MOL0     H81571   7.501   0.584   7.399 -1.7390  0.1411  0.0742
  618MOL0     H81572   7.606   0.629   7.611 -2.5046 -1.0715  1.8599
  618MOL0     H81573   7.615   0.466   7.650 -0.1194 -0.6779 -0.3202
  618MOL0     H81574   7.919   0.495   7.352  1.2568  3.9478  2.2218
  618MOL0     H81575   7.053   0.399   7.351 -5.7001  1.0509 -1.0887
  618MOL0     H81576   6.839   0.358   7.272  1.3081  0.3005  2.7834
  619MOL0     O81577   4.686   4.893   0.973  0.0945 -0.5404  0.0612
  619MOL0     C81578   4.782   4.969   1.005  0.0714  0.5764  0.3622
  619MOL0     O81579   4.785   5.037   1.125  0.1319  0.0007 -0.2529
  619MOL0     C81580   4.675   5.023   1.205 -0.4920 -1.4088 -0.2122
  619MOL0     C81581   4.679   4.963   1.334  0.5176 -0.1377  0.0398
  619MOL0     C81582   4.556   4.955   1.414  0.1747 -0.6678 -0.0605
  619MOL0     C81583   4.442   5.021   1.378 -0.0596 -0.0830  0.0643
  619MOL0     O81584   4.338   5.008   1.460 -0.3432  0.1179  0.8175
  619MOL0     C81585   4.235   4.905   1.436  0.4676 -0.0496 -0.2621
  619MOL0     C81586   4.095   4.966   1.411  0.0335 -0.5108  0.3732
  619MOL0     C81587   4.067   5.075   1.523 -0.4281  1.2723 -0.1456
  619MOL0     C81588   3.932   5.133   1.506  0.6273 -0.4361 -0.0801
  619MOL0     C81589   3.842   5.178   1.626 -0.2143 -0.4878 -0.5448
  619MOL0     C81590   3.906   5.280   1.717 -0.8881 -0.2778  0.2098
  619MOL0     C81591   3.841   5.266   1.859 -0.0526  0.2809  0.0801
  619MOL0     C81592   3.687   5.272   1.854 -0.3534  0.2186 -0.4116
  619MOL0     N81593   3.612   5.377   1.784 -1.1944 -0.3237 -0.4539
  619MOL0     C81594   3.529   5.363   1.675  0.6880 -0.2376 -0.5351
  619MOL0     C81595   3.460   5.478   1.671 -0.4316  0.0065  0.0021
  619MOL0     C81596   3.335   5.494   1.583 -0.7234 -0.3360 -0.1832
  619MOL0     C81597   3.212   5.451   1.652  0.0303 -0.2680 -0.2128
  619MOL0     C81598   3.147   5.564   1.733  0.0709  0.7135  0.2947
  619MOL0     C81599   3.040   5.528   1.825  0.3044  0.1278 -0.1412
  619MOL0     O81600   3.072   5.416   1.900  0.5289 -0.5775 -0.2844
  619MOL0     C81601   2.978   5.358   1.982 -0.1337 -0.7424  0.7249
  619MOL0     C81602   3.013   5.237   2.041  0.4121 -0.0796 -0.3058
  619MOL0     C81603   2.918   5.164   2.121 -0.0034 -0.5264 -0.2209
  619MOL0     C81604   2.782   5.205   2.140  0.2765 -0.6332  0.4039
  619MOL0     C81605   2.681   5.123   2.212  0.2854  0.6742  0.6051
  619MOL0     O81606   2.558   5.182   2.232  0.6644  0.9441 -0.6917
  619MOL0     C81607   2.459   5.122   2.320  0.3450 -0.1389 -0.3344
  619MOL0     C81608   2.376   5.213   2.386  0.5255  0.0999  0.0526
  619MOL0     C81609   2.267   5.165   2.472 -0.1571 -0.0285  0.1610
  619MOL0     C81610   2.261   5.033   2.518 -0.4670  0.1835  0.2840
  619MOL0     O81611   2.168   5.001   2.613 -0.4268  0.0189 -0.0508
  619MOL0     C81612   2.180   4.881   2.677 -0.3316  0.4651 -0.0482
  619MOL0     C81613   2.055   4.846   2.762 -0.5112  0.0268 -0.3424
  619MOL0     C81614   2.100   4.727   2.848 -0.3954  0.7667 -0.7503
  619MOL0     C81615   1.974   4.666   2.905 -0.0032 -0.0620 -1.3962
  619MOL0     C81616   1.985   4.557   3.013 -0.0215 -0.2374 -0.1055
  619MOL0     C81617   1.854   4.471   3.028 -0.1136 -0.7285 -0.9903
  619MOL0     C81618   1.897   4.359   3.114  0.4010 -0.2613 -1.3341
  619MOL0     C81619   1.774   4.275   3.139 -0.1800  0.8645  0.5491
  619MOL0    Cl81620   1.819   4.130   3.228  0.0556 -0.5644 -0.9845
  619MOL0     C81621   2.349   4.948   2.452 -0.4288 -0.3897  1.2088
  619MOL0     C81622   2.446   4.989   2.352 -0.0227  0.1285 -0.5078
  619MOL0     O81623   2.710   5.010   2.243 -0.0156  0.5015  0.8344
  619MOL0     C81624   2.748   5.327   2.080 -1.1485  0.3631 -0.2671
  619MOL0     C81625   2.848   5.405   2.007 -0.3787  0.0163 -0.2465
  619MOL0     N81626   3.508   5.569   1.766  0.5927  0.0272 -0.4992
  619MOL0     N81627   3.607   5.503   1.830  0.0050 -0.2485  0.3032
  619MOL0     C81628   4.433   5.076   1.247 -0.3716  0.1561  0.0403
  619MOL0     C81629   4.553   5.086   1.170 -0.2719 -0.0717 -0.8556
  619MOL0     C81630   4.893   4.997   0.914  0.1974  0.7199 -0.6566
  619MOL0     C81631   4.997   5.092   0.931  0.6110  0.1501 -0.3403
  619MOL0     C81632   5.114   5.084   0.860  0.8094  0.2741 -0.1488
  619MOL0     C81633   5.124   5.002   0.753 -0.5288 -0.5741  1.5334
  619MOL0     O81634   5.242   4.999   0.681  0.0120 -0.8062  0.1179
  619MOL0     C81635   5.339   5.112   0.717  0.0520  0.1218  0.4621
  619MOL0     C81636   5.449   5.097   0.611  0.2084 -0.2338  0.3357
  619MOL0     C81637   5.398   5.155   0.473 -0.1460 -0.1330 -0.1560
  619MOL0     C81638   5.347   5.296   0.481 -0.0313 -0.4804 -0.9481
  619MOL0     C81639   5.362   5.351   0.344 -0.2431 -0.5222 -1.1018
  619MOL0     C81640   5.360   5.407   0.242 -0.0067 -0.1726  0.6694
  619MOL0     C81641   5.018   4.924   0.717  0.5917 -0.0585  0.4210
  619MOL0     C81642   4.903   4.921   0.793 -0.2476 -0.4278 -0.4714
  619MOL0     H81643   4.762   4.903   1.369  1.0507  0.2787 -0.4889
  619MOL0     H81644   4.543   4.912   1.513  2.6297  2.9130  2.0577
  619MOL0     H81645   4.229   4.843   1.525 -3.3067 -1.0694 -1.0700
  619MOL0     H81646   4.250   4.843   1.347  1.0252 -2.4179  1.4112
  619MOL0     H81647   4.013   4.895   1.399 -0.4224  0.0098  0.3477
  619MOL0     H81648   4.093   5.034   1.325  0.6570  4.1895  3.6721
  619MOL0     H81649   4.150   5.147   1.526  1.2661 -0.6104  0.8415
  619MOL0     H81650   4.077   5.021   1.618  4.5180 -1.7214 -1.9459
  619MOL0     H81651   3.942   5.210   1.429 -3.1576 -2.7113 -3.3041
  619MOL0     H81652   3.869   5.074   1.438 -1.1390  1.6223 -0.3421
  619MOL0     H81653   3.818   5.079   1.666 -2.6156  0.1249 -0.3339
  619MOL0     H81654   3.752   5.231   1.596  0.4019  1.6934  1.1257
  619MOL0     H81655   3.894   5.379   1.672 -1.4157 -1.8722 -3.5010
  619MOL0     H81656   4.011   5.264   1.743 -0.9533 -1.8186 -0.3746
  619MOL0     H81657   3.859   5.166   1.900  1.3401  0.1923 -0.6824
  619MOL0     H81658   3.882   5.335   1.933  2.5798 -4.2540  3.4020
  619MOL0     H81659   3.656   5.260   1.959  2.6135  0.5083  0.5951
  619MOL0     H81660   3.658   5.183   1.797 -1.9172  0.8005 -0.5538
  619MOL0     H81661   3.505   5.270   1.625 -2.6925 -0.7059  1.6814
  619MOL0     H81662   3.354   5.455   1.482 -0.0652  0.7113 -0.4856
  619MOL0     H81663   3.317   5.601   1.568 -0.2847 -0.5349 -2.4429
  619MOL0     H81664   3.219   5.361   1.714  2.7642  0.0862  0.0975
  619MOL0     H81665   3.144   5.422   1.572  1.2054 -2.2274 -0.5899
  619MOL0     H81666   3.224   5.600   1.802  0.7041  5.9672 -2.6298
  619MOL0     H81667   3.129   5.648   1.665  1.6861 -0.7737 -2.1567
  619MOL0     H81668   2.950   5.510   1.764  0.1802 -0.4808  0.2129
  619MOL0     H81669   3.019   5.609   1.894 -0.4819 -0.3774  0.2272
  619MOL0     H81670   3.117   5.210   2.061 -0.0291 -1.2779  0.4739
  619MOL0     H81671   2.957   5.077   2.173  0.6586  0.5555  1.1590
  619MOL0     H81672   2.382   5.315   2.350  0.0865 -0.3198 -1.2543
  619MOL0     H81673   2.193   5.237   2.508 -1.0487 -1.1366  0.5995
  619MOL0     H81674   2.267   4.879   2.744  1.3274 -2.6432 -2.0777
  619MOL0     H81675   2.187   4.804   2.600  0.7264  0.1455  0.3452
  619MOL0     H81676   1.960   4.814   2.717 -0.4218 -1.8323  0.7148
  619MOL0     H81677   2.037   4.928   2.832  3.6709  1.7330 -0.9639
  619MOL0     H81678   2.162   4.751   2.934  0.9545 -2.6402 -0.5932
  619MOL0     H81679   2.156   4.656   2.786 -0.9962  1.3581 -2.0183
  619MOL0     H81680   1.914   4.746   2.949  2.2563  0.0475  1.8469
  619MOL0     H81681   1.909   4.621   2.829 -0.6334  0.0577 -0.9389
  619MOL0     H81682   1.995   4.603   3.112  1.8582 -0.3924 -0.1854
  619MOL0     H81683   2.072   4.499   2.981 -2.0852 -2.7532 -1.6223
  619MOL0     H81684   1.815   4.430   2.935 -2.2419 -0.4437 -0.2677
  619MOL0     H81685   1.773   4.532   3.067  0.6676  0.2990 -0.9382
  619MOL0     H81686   1.981   4.311   3.064 -0.8270 -2.2910 -1.5839
  619MOL0     H81687   1.937   4.394   3.210  2.8344 -2.6907 -1.3419
  619MOL0     H81688   1.728   4.243   3.045  0.3288 -0.6072  0.7728
  619MOL0     H81689   1.712   4.329   3.212  1.0506  1.9722  0.8074
  619MOL0     H81690   2.349   4.842   2.476 -2.1759 -0.1497  2.4761
  619MOL0     H81691   2.494   4.909   2.297  1.8869  0.0419  1.1822
  619MOL0     H81692   2.644   5.358   2.082 -0.9988  0.9211 -0.7753
  619MOL0     H81693   2.819   5.503   1.970 -0.6913 -0.6256 -1.7913
  619MOL0     H81694   4.343   5.121   1.209 -0.1755 -0.2833 -0.9663
  619MOL0     H81695   4.546   5.139   1.075 -2.8740  1.1274 -0.0691
  619MOL0     H81696   4.996   5.163   1.013 -0.1395  1.5248 -1.4936
  619MOL0     H81697   5.190   5.154   0.892  0.9775  1.6441 -3.1905
  619MOL0     H81698   5.376   5.098   0.819 -1.9263 -1.3154  1.0364
  619MOL0     H81699   5.295   5.212   0.709 -1.3523 -0.5714 -5.9972
  619MOL0     H81700   5.543   5.149   0.632  0.7944 -1.3803  0.5921
  619MOL0     H81701   5.495   4.999   0.600  2.3310  0.7557 -0.2643
  619MOL0     H81702   5.321   5.086   0.437 -3.2630  0.5935  4.3382
  619MOL0     H81703   5.485   5.154   0.406 -0.6202 -2.5976 -0.8696
  619MOL0     H81704   5.243   5.294   0.515  0.1244 -1.2073 -0.5034
  619MOL0     H81705   5.406   5.356   0.550 -1.2894  1.5939 -1.5980
  619MOL0     H81706   5.369   5.460   0.149 -1.2548 -0.9025  0.1074
  619MOL0     H81707   5.031   4.854   0.635  1.3906  1.4903 -0.8253
  619MOL0     H81708   4.831   4.856   0.745  0.5736 -1.5105 -0.2905
  620MOL0     O81709   3.051   4.347   3.689 -0.0486  0.4160 -0.1824
  620MOL0     C81710   3.163   4.284   3.682  0.4808  0.1902  0.1943
  620MOL0     O81711   3.194   4.162   3.726  0.4659 -0.7758  0.9770
  620MOL0     C81712   3.105   4.074   3.772 -0.0984  0.7322 -1.0742
  620MOL0     C81713   2.979   4.059   3.725  0.3078 -0.2576  0.2700
  620MOL0     C81714   2.891   3.967   3.770  0.3857  1.0814  0.0033
  620MOL0     C81715   2.934   3.882   3.873  0.2809  0.3514  0.0320
  620MOL0     O81716   2.863   3.773   3.922  0.3924 -0.3801  0.7324
  620MOL0     C81717   2.724   3.757   3.903  0.5304 -0.2175 -0.4442
  620MOL0     C81718   2.647   3.868   3.992 -0.2500 -0.6014 -0.0057
  620MOL0     C81719   2.501   3.900   3.961 -0.3912 -0.7762 -0.2823
  620MOL0     C81720   2.406   3.810   4.034 -0.4209 -0.4619  0.8284
  620MOL0     C81721   2.268   3.834   3.960  0.0332  0.3641  0.0544
  620MOL0     C81722   2.166   3.759   4.046 -0.8487 -0.4258  0.1247
  620MOL0     C81723   2.099   3.645   3.964 -0.0001 -0.4358  0.5198
  620MOL0     C81724   1.985   3.586   4.057  0.5603  0.8478  0.7142
  620MOL0     N81725   1.885   3.507   3.971  0.3313 -1.1438 -0.5720
  620MOL0     C81726   1.808   3.568   3.878 -0.0101  0.7991 -0.1538
  620MOL0     C81727   1.746   3.467   3.818 -0.0852  0.7992  0.5908
  620MOL0     C81728   1.637   3.476   3.704  0.3429  0.4800  0.4939
  620MOL0     C81729   1.529   3.380   3.720  0.2772 -0.4301  1.0210
  620MOL0     C81730   1.439   3.401   3.840 -0.5823 -0.2384  0.5135
  620MOL0     C81731   1.361   3.268   3.859  0.0717 -0.4745 -0.7682
  620MOL0     O81732   1.257   3.305   3.945 -0.8809 -0.0963 -0.9376
  620MOL0     C81733   1.130   3.303   3.896  0.9188 -0.6430  0.0063
  620MOL0     C81734   1.089   3.366   3.776 -0.3362 -0.1063 -1.3509
  620MOL0     C81735   0.955   3.370   3.738 -0.1099 -0.9477  0.8102
  620MOL0     C81736   0.860   3.314   3.824 -0.6253 -0.2885 -0.1447
  620MOL0     C81737   0.718   3.320   3.791  0.4432  0.1487  0.5555
  620MOL0     O81738   0.681   3.361   3.670  0.3122 -0.4992 -0.0520
  620MOL0     C81739   0.553   3.395   3.623  0.1763  0.4295  0.8792
  620MOL0     C81740   0.431   3.334   3.652  0.4574  0.0728 -0.1464
  620MOL0     C81741   0.313   3.352   3.582  0.1928 -0.3751 -0.5066
  620MOL0     C81742   0.316   3.433   3.468  0.0068  0.0312  0.9378
  620MOL0     O81743   0.207   3.429   3.381  0.3128  0.3173  0.7927
  620MOL0     C81744   0.171   3.545   3.303 -0.2561  0.2886 -0.2269
  620MOL0     C81745   0.043   3.526   3.223 -0.5545 -0.8047  0.4691
  620MOL0     C81746  -0.086   3.515   3.306  0.0553 -1.1892 -0.0828
  620MOL0     C81747  -0.220   3.496   3.236  0.1220  0.6678  1.3555
  620MOL0     C81748  -0.326   3.460   3.340 -0.7654  0.1066 -0.5404
  620MOL0     C81749  -0.445   3.421   3.259  0.4045  0.0927  0.1865
  620MOL0     C81750  -0.549   3.374   3.346 -0.1014 -0.1014  0.3819
  620MOL0     C81751  -0.692   3.406   3.294 -0.1447  0.0375 -0.5260
  620MOL0    Cl81752  -0.726   3.323   3.145 -0.4141  0.2652  0.4425
  620MOL0     C81753   0.440   3.500   3.431 -0.6932 -0.5202 -0.4231
  620MOL0     C81754   0.555   3.483   3.510  0.3769 -0.6623 -0.5902
  620MOL0     O81755   0.644   3.299   3.887 -0.1627  0.0706 -0.0021
  620MOL0     C81756   0.899   3.247   3.947  0.3423  0.4839  1.0437
  620MOL0     C81757   1.035   3.235   3.974 -0.0221 -0.3807  0.0594
  620MOL0     N81758   1.793   3.346   3.865  0.2314  0.6322  0.8892
  620MOL0     N81759   1.875   3.369   3.956  0.5896 -0.3839  0.1596
  620MOL0     C81760   3.066   3.889   3.915  0.8208  0.3438 -0.2210
  620MOL0     C81761   3.154   3.988   3.869  0.5232 -0.2920  0.6882
  620MOL0     C81762   3.266   4.344   3.597  0.8547 -0.9388 -0.3556
  620MOL0     C81763   3.223   4.440   3.490 -0.5175  0.5235  0.4515
  620MOL0     C81764   3.321   4.509   3.409 -0.6120  0.2445 -0.7458
  620MOL0     C81765   3.462   4.475   3.422  0.1500  0.6728 -0.9274
  620MOL0     O81766   3.566   4.531   3.349 -0.0270  0.5181  0.0134
  620MOL0     C81767   3.547   4.655   3.277 -0.8641 -0.1374  0.6385
  620MOL0     C81768   3.675   4.694   3.196  0.4099  0.1909 -0.1133
  620MOL0     C81769   3.728   4.577   3.106  0.5126  0.0630 -0.6872
  620MOL0     C81770   3.825   4.628   2.999  0.5577 -0.9476  0.3567
  620MOL0     C81771   3.764   4.725   2.899  0.4952 -0.1718 -0.5521
  620MOL0     C81772   3.703   4.798   2.824 -0.5809 -0.8657  0.5203
  620MOL0     C81773   3.503   4.382   3.515 -0.0179 -0.5582  0.8505
  620MOL0     C81774   3.408   4.319   3.608 -0.0471 -0.3784  0.0296
  620MOL0     H81775   2.945   4.117   3.639 -1.8817 -0.9780  0.5970
  620MOL0     H81776   2.791   3.959   3.728 -1.5095  3.2019  3.6344
  620MOL0     H81777   2.686   3.664   3.946 -0.9529  0.7450  0.3830
  620MOL0     H81778   2.703   3.758   3.796  3.7872  1.6571 -1.2013
  620MOL0     H81779   2.702   3.960   3.971  1.2283 -1.6152 -0.7806
  620MOL0     H81780   2.666   3.853   4.098  0.7126 -0.5576 -0.1624
  620MOL0     H81781   2.491   3.887   3.853  0.7359 -0.8309 -0.3921
  620MOL0     H81782   2.491   4.004   3.994  0.0748 -0.5336 -0.8926
  620MOL0     H81783   2.444   3.709   4.018 -0.3496 -0.5494  1.5039
  620MOL0     H81784   2.407   3.833   4.141  1.3707  1.5542  0.4542
  620MOL0     H81785   2.260   3.820   3.852 -1.8366  3.4305 -0.3243
  620MOL0     H81786   2.235   3.938   3.955  0.7514  0.5685 -0.4927
  620MOL0     H81787   2.081   3.821   4.076 -1.9358 -1.7574 -0.0906
  620MOL0     H81788   2.220   3.719   4.132  1.8261 -0.8019 -1.6150
  620MOL0     H81789   2.051   3.689   3.876 -3.9579 -2.2799  1.5247
  620MOL0     H81790   2.170   3.569   3.929  1.9804  1.4728  0.1213
  620MOL0     H81791   1.922   3.666   4.099  2.4893  1.7343  2.0678
  620MOL0     H81792   2.028   3.534   4.142  0.6409  0.2772  0.3273
  620MOL0     H81793   1.800   3.672   3.847 -3.3975 -0.1590 -3.1611
  620MOL0     H81794   1.681   3.452   3.607 -4.2683 -1.6507 -1.3647
  620MOL0     H81795   1.588   3.574   3.697 -3.3794 -1.3055 -1.0317
  620MOL0     H81796   1.572   3.279   3.722 -0.4904 -0.7627  2.8311
  620MOL0     H81797   1.474   3.395   3.627  1.0456  3.1784  1.0209
  620MOL0     H81798   1.489   3.423   3.935 -1.5145  0.7948  0.7846
  620MOL0     H81799   1.370   3.485   3.824  0.5761  0.8656  1.1254
  620MOL0     H81800   1.436   3.202   3.903  2.6479  1.6441 -1.7036
  620MOL0     H81801   1.324   3.212   3.773 -2.4638  0.5548 -0.4651
  620MOL0     H81802   1.165   3.410   3.713  1.2904  0.0112  0.5999
  620MOL0     H81803   0.938   3.425   3.646  0.3574 -0.5024  0.9853
  620MOL0     H81804   0.424   3.262   3.733  0.1706 -0.6971 -0.8446
  620MOL0     H81805   0.219   3.300   3.601 -0.9135  1.1322 -1.5610
  620MOL0     H81806   0.251   3.561   3.230  0.6961 -0.6095  0.5954
  620MOL0     H81807   0.146   3.626   3.372  2.1832  0.9369  0.0149
  620MOL0     H81808   0.043   3.424   3.185 -4.7163 -1.6799  2.1835
  620MOL0     H81809   0.030   3.588   3.134 -1.9857 -0.1756  1.0734
  620MOL0     H81810  -0.091   3.614   3.353  3.2990 -0.0065 -1.9344
  620MOL0     H81811  -0.069   3.444   3.387  1.6302 -0.2284  0.4664
  620MOL0     H81812  -0.254   3.583   3.179  2.0917 -0.2806 -1.4995
  620MOL0     H81813  -0.219   3.412   3.165 -1.0630  0.0410  2.0462
  620MOL0     H81814  -0.341   3.542   3.411  0.3607 -0.9725  1.0189
  620MOL0     H81815  -0.295   3.369   3.391  0.4836 -0.5575 -2.3739
  620MOL0     H81816  -0.422   3.345   3.184  3.2015  4.4121 -3.8861
  620MOL0     H81817  -0.487   3.503   3.200  1.2172  0.4644  0.1085
  620MOL0     H81818  -0.531   3.266   3.355  4.4159  0.3847 -0.6959
  620MOL0     H81819  -0.537   3.416   3.446  0.3756 -1.0748  0.7484
  620MOL0     H81820  -0.719   3.510   3.276 -0.6915  0.1112  0.6426
  620MOL0     H81821  -0.758   3.373   3.374 -0.8021 -0.8040 -1.3906
  620MOL0     H81822   0.461   3.565   3.347 -0.7149 -2.7644 -2.2703
  620MOL0     H81823   0.646   3.531   3.477  0.2366 -0.1942 -0.3028
  620MOL0     H81824   0.841   3.187   4.016  3.0680 -0.7569  2.4034
  620MOL0     H81825   1.067   3.176   4.060 -1.3410 -0.2642  0.6501
  620MOL0     H81826   3.087   3.824   3.999 -1.9946 -1.3426 -0.6572
  620MOL0     H81827   3.255   4.000   3.905  1.2984  0.7291 -1.5966
  620MOL0     H81828   3.117   4.462   3.482 -0.9009 -1.6726 -3.4997
  620MOL0     H81829   3.277   4.574   3.334  2.8492  0.7532 -2.5802
  620MOL0     H81830   3.530   4.736   3.348  1.7331  2.5162 -1.5117
  620MOL0     H81831   3.463   4.666   3.207  2.8345 -0.1559 -4.3405
  620MOL0     H81832   3.654   4.777   3.128 -1.1210  0.0438  0.1320
  620MOL0     H81833   3.750   4.722   3.271 -0.6802  1.6006  0.5241
  620MOL0     H81834   3.644   4.521   3.064  0.0066 -1.7359  2.3413
  620MOL0     H81835   3.787   4.509   3.169  0.3114 -0.4118 -1.0055
  620MOL0     H81836   3.910   4.677   3.048 -0.1433  1.2543 -0.5551
  620MOL0     H81837   3.856   4.541   2.939  1.7898 -1.4996  1.7259
  620MOL0     H81838   3.645   4.865   2.765  0.1146 -2.0341 -1.5959
  620MOL0     H81839   3.608   4.354   3.518  0.2241 -0.1947 -1.9141
  620MOL0     H81840   3.439   4.249   3.685  1.1115 -2.0768 -1.8854
  621MOL0     O81841   9.004   0.471   9.582 -0.0065 -0.1757 -0.7423
  621MOL0     C81842   8.916   0.425   9.500 -0.2622 -0.0870  0.2125
  621MOL0     O81843   8.778   0.403   9.524 -0.5808 -0.3198  0.6370
  621MOL0     C81844   8.720   0.444   9.637 -0.0936  0.0253  0.4361
  621MOL0     C81845   8.587   0.389   9.655  0.1055 -0.2840 -0.1934
  621MOL0     C81846   8.512   0.425   9.764  0.2325 -0.6134  0.0999
  621MOL0     C81847   8.554   0.525   9.853  0.0287  0.2753  0.6672
  621MOL0     O81848   8.485   0.579   9.953 -0.6314 -0.1361  0.8623
  621MOL0     C81849   8.378   0.504  10.010  0.1937 -0.2681  0.3999
  621MOL0     C81850   8.301   0.578  10.123  0.7074  0.8994  0.4035
  621MOL0     C81851   8.197   0.493  10.199 -0.1455  0.5392 -0.0217
  621MOL0     C81852   8.104   0.583  10.285 -0.3435  0.4750 -0.2616
  621MOL0     C81853   8.033   0.507  10.398  0.8753  0.0337 -0.3128
  621MOL0     C81854   7.946   0.596  10.489  0.2449 -0.3973 -0.4019
  621MOL0     C81855   7.823   0.521  10.552  0.4905 -0.8435  0.5457
  621MOL0     C81856   7.732   0.623  10.633 -0.1685 -0.0034  0.2348
  621MOL0     N81857   7.612   0.555  10.685 -0.1591  0.1819 -0.4001
  621MOL0     C81858   7.551   0.600  10.796  0.2471  1.6106 -0.3964
  621MOL0     C81859   7.438   0.524  10.807 -0.5114  0.0926 -0.5241
  621MOL0     C81860   7.341   0.549  10.919 -0.1616  0.3035 -0.3895
  621MOL0     C81861   7.215   0.471  10.896  0.2309 -0.7663  0.1498
  621MOL0     C81862   7.109   0.496  11.007 -0.6185 -0.1903 -0.2257
  621MOL0     C81863   6.978   0.427  10.957 -0.2921 -0.2171 -0.3954
  621MOL0     O81864   6.876   0.512  11.024 -0.3262  0.1346  0.6989
  621MOL0     C81865   6.752   0.453  11.017  0.4937 -0.0650 -0.0987
  621MOL0     C81866   6.673   0.476  11.134 -0.1243 -0.1306 -0.8944
  621MOL0     C81867   6.544   0.411  11.149 -0.6358  0.4087 -0.1050
  621MOL0     C81868   6.498   0.336  11.048 -0.3817 -0.5739  0.5470
  621MOL0     C81869   6.377   0.262  11.067 -0.7539  0.8464 -0.7391
  621MOL0     O81870   6.293   0.242  10.957 -0.4856  0.1233  0.1160
  621MOL0     C81871   6.187   0.153  10.951 -0.5738  0.0481 -0.0578
  621MOL0     C81872   6.112   0.170  10.831 -0.1731 -0.7492 -0.7539
  621MOL0     C81873   5.985   0.110  10.807  0.1202  0.9214  0.2030
  621MOL0     C81874   5.936   0.010  10.902  0.7936  0.4461 -0.0115
  621MOL0     O81875   5.823  -0.066  10.871  0.2230 -0.5199  0.6699
  621MOL0     C81876   5.759  -0.145  10.972  0.2524 -0.3501 -0.0324
  621MOL0     C81877   5.641  -0.209  10.898 -0.6968  0.2818  0.4016
  621MOL0     C81878   5.536  -0.274  10.989  0.1389  0.2320 -0.6567
  621MOL0     C81879   5.442  -0.174  11.055 -0.0875 -0.2031 -0.3220
  621MOL0     C81880   5.355  -0.225  11.172 -0.5870 -1.0279 -0.5616
  621MOL0     C81881   5.245  -0.311  11.128  0.4942  0.9898  0.5444
  621MOL0     C81882   5.130  -0.235  11.079  0.6596 -0.8071  0.2719
  621MOL0     C81883   5.011  -0.323  11.030  0.9855 -1.8265  0.0133
  621MOL0    Cl81884   4.870  -0.222  10.974  0.1383  0.3954  0.3405
  621MOL0     C81885   6.010  -0.008  11.024 -0.0533  0.1420 -0.0063
  621MOL0     C81886   6.131   0.064  11.044 -0.4101 -0.6870  0.4854
  621MOL0     O81887   6.352   0.220  11.180 -0.4006 -0.0698  0.2131
  621MOL0     C81888   6.571   0.314  10.925 -1.1089  0.1633  0.2127
  621MOL0     C81889   6.699   0.375  10.914  0.7488  0.4443  0.5159
  621MOL0     N81890   7.432   0.442  10.702  0.7363 -0.0718  0.9522
  621MOL0     N81891   7.530   0.469  10.620 -0.2228 -0.5309  0.1185
  621MOL0     C81892   8.682   0.586   9.837  0.3029  0.6813 -0.1908
  621MOL0     C81893   8.767   0.532   9.737  1.0728 -0.5932 -0.4335
  621MOL0     C81894   8.970   0.364   9.381  0.0644 -0.5833  0.4120
  621MOL0     C81895   8.886   0.308   9.278 -0.7506  0.2828 -0.6719
  621MOL0     C81896   8.930   0.279   9.151 -0.3038 -0.5399  0.5898
  621MOL0     C81897   9.068   0.299   9.122 -0.0829  0.2358  0.2481
  621MOL0     O81898   9.116   0.258   8.994 -0.7203  0.0335 -0.5141
  621MOL0     C81899   9.079   0.132   8.945  0.2464 -0.6013  0.6567
  621MOL0     C81900   9.198   0.083   8.858 -0.4917  0.4162  0.2402
  621MOL0     C81901   9.177  -0.066   8.812 -0.7356 -0.5064  0.2348
  621MOL0     C81902   9.262  -0.084   8.690 -0.1314  0.4882 -0.0442
  621MOL0     C81903   9.404  -0.067   8.709 -1.2889  0.0949 -0.4959
  621MOL0     C81904   9.522  -0.055   8.732 -0.2541 -0.2605  0.2669
  621MOL0     C81905   9.153   0.353   9.216  0.0955  0.4961 -0.2242
  621MOL0     C81906   9.108   0.384   9.348  0.6874  0.1611 -0.2867
  621MOL0     H81907   8.547   0.327   9.576  0.1997  0.7781 -1.1079
  621MOL0     H81908   8.417   0.373   9.772  1.7530 -3.2956  2.7718
  621MOL0     H81909   8.413   0.403  10.034  2.5965 -0.1845 -2.2030
  621MOL0     H81910   8.313   0.489   9.923  1.0400  1.3144 -0.5435
  621MOL0     H81911   8.250   0.667  10.082 -2.8572 -0.8005  0.7667
  621MOL0     H81912   8.382   0.614  10.187  0.8265  1.0696  0.1582
  621MOL0     H81913   8.254   0.440  10.277 -0.0415  1.3633  0.4720
  621MOL0     H81914   8.139   0.419  10.143  0.8260  0.7369 -1.3220
  621MOL0     H81915   8.146   0.665  10.344  0.4760 -1.1923  1.5684
  621MOL0     H81916   8.035   0.626  10.211  0.2318  2.5253  0.3244
  621MOL0     H81917   8.106   0.462  10.465  0.2609 -1.7852 -0.7944
  621MOL0     H81918   7.969   0.424  10.365  0.5795 -0.1135  0.6086
  621MOL0     H81919   7.898   0.677  10.434 -2.3353  0.2864  2.5871
  621MOL0     H81920   7.996   0.655  10.566  2.2063 -1.9888 -0.3578
  621MOL0     H81921   7.766   0.465  10.477 -1.3875  0.4600  0.9305
  621MOL0     H81922   7.863   0.442  10.616  2.1186 -0.1028  0.4871
  621MOL0     H81923   7.694   0.707  10.574  1.9010 -0.0735 -1.3273
  621MOL0     H81924   7.801   0.661  10.709  0.9782  0.5699 -1.0449
  621MOL0     H81925   7.594   0.681  10.853  0.1734  0.9768  0.5759
  621MOL0     H81926   7.311   0.654  10.918 -0.8030  0.1288  0.2611
  621MOL0     H81927   7.378   0.519  11.017 -3.2157 -0.9320  0.4923
  621MOL0     H81928   7.237   0.364  10.889 -0.6718 -1.0662  1.4674
  621MOL0     H81929   7.175   0.497  10.798  1.9841 -0.8401 -0.6115
  621MOL0     H81930   7.136   0.439  11.096  1.4895 -0.8079 -1.1891
  621MOL0     H81931   7.098   0.603  11.026 -0.6203 -0.4603  1.4398
  621MOL0     H81932   6.977   0.318  10.967  0.7757 -0.4070 -2.0162
  621MOL0     H81933   6.963   0.444  10.850  3.4659  0.0803 -1.0109
  621MOL0     H81934   6.718   0.527  11.219 -0.5324  1.6746 -1.7212
  621MOL0     H81935   6.487   0.426  11.241  0.8152  1.5510  0.6493
  621MOL0     H81936   6.148   0.233  10.750 -1.7534 -0.8120 -1.5517
  621MOL0     H81937   5.934   0.124  10.712  4.9447 -2.3261 -3.3989
  621MOL0     H81938   5.744  -0.092  11.066  1.7025 -2.7262  1.6531
  621MOL0     H81939   5.823  -0.229  11.002 -0.4198 -0.9661 -0.3032
  621MOL0     H81940   5.689  -0.285  10.834  0.0837  1.8397 -0.9270
  621MOL0     H81941   5.591  -0.147  10.823  1.9814  0.0323 -1.7532
  621MOL0     H81942   5.593  -0.327  11.066 -2.3732 -2.2771 -0.3648
  621MOL0     H81943   5.475  -0.349  10.939 -0.0933 -0.2007  0.2634
  621MOL0     H81944   5.499  -0.089  11.092  0.7608  0.2549 -2.5177
  621MOL0     H81945   5.369  -0.135  10.984  2.8272  4.8715 -0.9829
  621MOL0     H81946   5.319  -0.141  11.233 -0.8731 -1.2581 -0.4082
  621MOL0     H81947   5.417  -0.291  11.233 -0.1377 -0.8822 -0.8549
  621MOL0     H81948   5.220  -0.367  11.218  1.1032  0.1820  0.2199
  621MOL0     H81949   5.276  -0.383  11.051  0.0195  0.0188  1.2390
  621MOL0     H81950   5.097  -0.169  11.160 -0.5058  0.0504 -0.8571
  621MOL0     H81951   5.155  -0.164  11.000 -0.4027 -1.4487 -0.6730
  621MOL0     H81952   4.981  -0.383  11.117  0.4018 -0.6732  0.6194
  621MOL0     H81953   5.034  -0.388  10.945  0.9709  0.1458 -1.5589
  621MOL0     H81954   5.969  -0.076  11.098  1.3603  1.6694  2.3412
  621MOL0     H81955   6.170   0.065  11.145  1.9796  3.8979 -0.1839
  621MOL0     H81956   6.526   0.246  10.854 -0.1518 -2.8683  2.3440
  621MOL0     H81957   6.757   0.358  10.824  0.9059  3.1744  0.0225
  621MOL0     H81958   8.716   0.671   9.896  2.0306 -0.6343  0.7922
  621MOL0     H81959   8.867   0.573   9.740  1.0650 -0.5998  1.7346
  621MOL0     H81960   8.781   0.287   9.295 -1.2332  1.1125 -2.4118
  621MOL0     H81961   8.866   0.248   9.069  1.7138 -2.2801 -0.4403
  621MOL0     H81962   8.997   0.150   8.875  2.5084  1.8819 -1.6433
  621MOL0     H81963   9.051   0.054   9.016  0.1128 -0.7174  0.4762
  621MOL0     H81964   9.197   0.150   8.772 -2.4945 -0.8985 -0.8263
  621MOL0     H81965   9.290   0.081   8.919 -0.6009  1.7923  0.4949
  621MOL0     H81966   9.070  -0.067   8.792 -1.5675 -2.1110  4.0629
  621MOL0     H81967   9.206  -0.130   8.895  5.8487  2.7417  1.1114
  621MOL0     H81968   9.246  -0.184   8.649  3.6422  0.1047 -0.9909
  621MOL0     H81969   9.234  -0.017   8.608 -0.8181  0.2532 -0.0077
  621MOL0     H81970   9.625  -0.059   8.762 -0.5024 -0.0189  1.1917
  621MOL0     H81971   9.255   0.384   9.193  0.5863  0.5828  1.8889
  621MOL0     H81972   9.165   0.448   9.414 -1.3036  1.0902  0.6304
  622MOL0     O81973   5.521   9.282   5.860 -0.8380  0.6097 -0.1196
  622MOL0     C81974   5.550   9.373   5.775 -0.0511 -0.4126 -0.9930
  622MOL0     O81975   5.454   9.435   5.689  0.7185 -0.6518 -0.1560
  622MOL0     C81976   5.327   9.390   5.702  1.0195 -0.5411 -0.5130
  622MOL0     C81977   5.227   9.463   5.760 -0.6900  0.2957  0.6056
  622MOL0     C81978   5.099   9.413   5.754  0.4022 -0.4594  0.1240
  622MOL0     C81979   5.071   9.298   5.699 -0.7561 -0.5750  0.5345
  622MOL0     O81980   4.944   9.248   5.687  0.2069  0.2072 -0.2899
  622MOL0     C81981   4.837   9.345   5.700 -0.7177  1.4971  0.0468
  622MOL0     C81982   4.709   9.269   5.663 -0.1642  0.1937 -0.1392
  622MOL0     C81983   4.596   9.371   5.670  0.2937 -1.1513 -0.1794
  622MOL0     C81984   4.459   9.322   5.645  0.3551  0.4327  0.1276
  622MOL0     C81985   4.425   9.202   5.736  0.1337 -0.5119 -0.6186
  622MOL0     C81986   4.317   9.230   5.850  0.2059  0.3208  0.8637
  622MOL0     C81987   4.180   9.189   5.803  0.3325  0.6981 -0.1038
  622MOL0     C81988   4.071   9.248   5.894 -0.6023 -0.8524  0.0040
  622MOL0     N81989   4.066   9.172   6.024 -1.3186  0.3903  0.1394
  622MOL0     C81990   4.141   9.201   6.126  0.5828  0.0989 -0.4345
  622MOL0     C81991   4.090   9.134   6.231  0.5399 -0.6696 -0.4153
  622MOL0     C81992   4.127   9.130   6.375  0.7330 -0.3607 -0.7246
  622MOL0     C81993   4.101   9.267   6.438 -0.5489 -0.6231  0.7064
  622MOL0     C81994   4.059   9.261   6.590 -0.5842  0.3945 -0.4430
  622MOL0     C81995   3.917   9.216   6.608 -0.8318 -0.3614  0.1806
  622MOL0     O81996   3.845   9.334   6.654  0.2776  0.1514  0.5692
  622MOL0     C81997   3.713   9.326   6.621  0.9907 -0.1141 -0.1626
  622MOL0     C81998   3.619   9.259   6.704 -0.5456  0.5132 -0.5426
  622MOL0     C81999   3.498   9.237   6.662 -0.0217  0.5522 -0.2050
  622MOL0     C82000   3.449   9.297   6.541 -0.7953 -0.4031 -0.1172
  622MOL0     C82001   3.310   9.278   6.490  0.2684  0.2384  0.1541
  622MOL0     O82002   3.270   9.324   6.365  0.2058  0.3949 -0.7276
  622MOL0     C82003   3.136   9.301   6.334 -1.2558 -0.8739  0.4644
  622MOL0     C82004   3.046   9.405   6.294 -0.3353  0.8413 -0.4573
  622MOL0     C82005   2.910   9.374   6.254  0.3655  0.6138  0.2675
  622MOL0     C82006   2.855   9.243   6.249 -0.5735  0.5191 -0.2551
  622MOL0     O82007   2.725   9.229   6.215  0.3314 -0.8432 -0.2288
  622MOL0     C82008   2.680   9.098   6.184 -0.1512  0.3120 -0.6934
  622MOL0     C82009   2.531   9.109   6.136  0.0375 -0.6865  1.2196
  622MOL0     C82010   2.502   9.234   6.044  0.5165  0.2949 -0.4807
  622MOL0     C82011   2.425   9.335   6.127  0.5964 -0.4380 -0.5633
  622MOL0     C82012   2.412   9.476   6.061  0.4519  0.1601 -0.1996
  622MOL0     C82013   2.534   9.564   6.081  0.6676 -0.0092  0.0970
  622MOL0     C82014   2.505   9.703   6.040  0.7281  0.4081  0.1962
  622MOL0     C82015   2.637   9.777   6.014 -0.1720  0.2172 -1.0236
  622MOL0    Cl82016   2.731   9.782   6.170 -0.0727  0.0228  0.1128
  622MOL0     C82017   2.951   9.140   6.286 -0.3944 -0.2943  0.2493
  622MOL0     C82018   3.089   9.168   6.330 -0.1622 -0.3755  0.6104
  622MOL0     O82019   3.241   9.211   6.563 -0.2810  0.0912  0.0699
  622MOL0     C82020   3.540   9.365   6.457  0.0650 -0.0479 -0.4558
  622MOL0     C82021   3.671   9.369   6.497 -0.8903 -0.3141  0.9565
  622MOL0     N82022   3.974   9.075   6.185  0.2755 -0.1473 -1.3124
  622MOL0     N82023   3.968   9.090   6.066  0.1810 -0.6684 -0.3570
  622MOL0     C82024   5.177   9.221   5.646 -0.0623 -0.0056  1.1216
  622MOL0     C82025   5.309   9.267   5.645  0.3491 -0.2687 -0.7117
  622MOL0     C82026   5.684   9.407   5.745 -1.5028  0.3704  0.3711
  622MOL0     C82027   5.736   9.522   5.671 -0.5978  0.3169  0.7924
  622MOL0     C82028   5.872   9.537   5.655 -0.3921 -0.4484  0.5788
  622MOL0     C82029   5.964   9.433   5.691 -0.1542  0.2283  0.6048
  622MOL0     O82030   6.099   9.464   5.671  1.1136 -0.0053 -0.7459
  622MOL0     C82031   6.197   9.366   5.709 -0.1694 -0.0682  0.3795
  622MOL0     C82032   6.343   9.419   5.684  0.5056  0.1666 -0.2272
  622MOL0     C82033   6.450   9.383   5.786  0.8292  0.5124  0.7273
  622MOL0     C82034   6.590   9.435   5.744  0.5191  0.1704 -0.2155
  622MOL0     C82035   6.646   9.351   5.636  0.2593  0.1754  0.1475
  622MOL0     C82036   6.684   9.275   5.551 -0.0808  0.9997 -0.8099
  622MOL0     C82037   5.916   9.316   5.747  0.9363  0.7012 -0.6364
  622MOL0     C82038   5.779   9.300   5.770  0.0171 -0.0872 -0.1192
  622MOL0     H82039   5.243   9.557   5.810 -0.1553  1.1123 -1.0477
  622MOL0     H82040   5.016   9.467   5.798 -1.2957 -0.8612 -2.3864
  622MOL0     H82041   4.853   9.425   5.627  3.1829  0.4945 -0.4127
  622MOL0     H82042   4.829   9.381   5.803  2.3815 -0.1195  0.9762
  622MOL0     H82043   4.686   9.175   5.713 -0.2235 -1.3378 -2.8382
  622MOL0     H82044   4.716   9.234   5.559  0.1135  0.2877 -0.1538
  622MOL0     H82045   4.622   9.446   5.595  5.1595  0.2058  2.3919
  622MOL0     H82046   4.593   9.417   5.769  0.4367  1.1269 -1.1649
  622MOL0     H82047   4.393   9.409   5.658  0.1507  1.2411 -4.4986
  622MOL0     H82048   4.445   9.303   5.538  2.7494 -1.1263  0.0182
  622MOL0     H82049   4.499   9.165   5.807 -1.5050 -0.3020  1.2713
  622MOL0     H82050   4.400   9.111   5.680 -0.2452 -1.4426  0.9858
  622MOL0     H82051   4.320   9.333   5.886  2.6908  0.7991 -0.5095
  622MOL0     H82052   4.343   9.171   5.938  2.0851 -1.0403 -0.5349
  622MOL0     H82053   4.172   9.223   5.699  1.4711  0.4122 -0.2939
  622MOL0     H82054   4.166   9.080   5.802  0.6408  0.6119  1.8937
  622MOL0     H82055   3.972   9.256   5.846 -1.0370  3.0559  1.1578
  622MOL0     H82056   4.088   9.354   5.916 -1.7828 -0.3850 -1.2016
  622MOL0     H82057   4.221   9.274   6.129  0.0757  0.6378  0.2768
  622MOL0     H82058   4.235   9.110   6.374  0.8254  0.0881 -0.0815
  622MOL0     H82059   4.076   9.050   6.429  0.4804 -0.2803 -0.8470
  622MOL0     H82060   4.018   9.303   6.377  0.8859  0.7494 -0.5178
  622MOL0     H82061   4.182   9.339   6.428 -2.0645  1.2993  1.7463
  622MOL0     H82062   4.120   9.194   6.651 -1.4389 -0.2991 -0.3346
  622MOL0     H82063   4.065   9.368   6.616 -1.3116 -0.0154  1.5824
  622MOL0     H82064   3.906   9.130   6.676 -0.3869 -2.1139 -1.8658
  622MOL0     H82065   3.884   9.182   6.510  0.3833 -1.3277  0.0848
  622MOL0     H82066   3.667   9.213   6.790 -0.2477 -3.7254 -2.6589
  622MOL0     H82067   3.434   9.174   6.723  2.9638 -0.9976  1.5483
  622MOL0     H82068   3.082   9.507   6.297 -1.7929  1.3653  0.2263
  622MOL0     H82069   2.849   9.459   6.226  1.1219  1.1293  0.1713
  622MOL0     H82070   2.690   9.025   6.264 -2.4030  2.1773  1.4620
  622MOL0     H82071   2.737   9.059   6.099 -1.7108 -1.3795 -1.0245
  622MOL0     H82072   2.480   9.128   6.230  1.4750  0.4585  1.8210
  622MOL0     H82073   2.494   9.016   6.092  2.9941 -1.9090  1.0763
  622MOL0     H82074   2.438   9.202   5.961 -2.7733 -0.4211  2.0802
  622MOL0     H82075   2.587   9.287   6.001  0.6985  0.4133  0.0181
  622MOL0     H82076   2.326   9.290   6.135  1.8665 -3.3606 -0.1878
  622MOL0     H82077   2.476   9.337   6.224 -2.0290 -2.7954  0.9955
  622MOL0     H82078   2.326   9.526   6.106 -0.9771 -0.4395 -2.1455
  622MOL0     H82079   2.403   9.460   5.953 -0.1525 -0.8361 -0.0168
  622MOL0     H82080   2.625   9.523   6.035 -0.3518 -3.7353  1.0374
  622MOL0     H82081   2.554   9.573   6.188 -2.8977  2.9198  0.7164
  622MOL0     H82082   2.445   9.698   5.949  0.7136 -0.9545  0.2617
  622MOL0     H82083   2.455   9.741   6.130  2.2634  1.0134  0.8312
  622MOL0     H82084   2.612   9.879   5.983  0.9480  0.5828 -0.7796
  622MOL0     H82085   2.685   9.731   5.927 -0.3889  1.8460 -2.0563
  622MOL0     H82086   2.925   9.037   6.262 -0.7096 -0.0545 -0.4483
  622MOL0     H82087   3.161   9.088   6.347 -1.2139 -1.0768  1.9308
  622MOL0     H82088   3.518   9.406   6.359  2.6909 -0.4638 -1.3068
  622MOL0     H82089   3.744   9.410   6.427  0.7494 -2.7250  1.1370
  622MOL0     H82090   5.131   9.129   5.611 -1.8509  2.0070 -2.3266
  622MOL0     H82091   5.380   9.199   5.600 -0.4119 -0.8734 -1.0299
  622MOL0     H82092   5.672   9.605   5.642  1.1151  1.6682  0.7236
  622MOL0     H82093   5.914   9.623   5.603 -2.8802  1.1766  1.0938
  622MOL0     H82094   6.192   9.282   5.640  0.2204  1.9136 -2.2172
  622MOL0     H82095   6.189   9.325   5.810 -0.8180 -0.2088  0.2733
  622MOL0     H82096   6.369   9.384   5.583 -2.1276 -0.2524 -0.8162
  622MOL0     H82097   6.347   9.529   5.683  3.1522  0.2799  3.0889
  622MOL0     H82098   6.447   9.276   5.807  1.3058  0.3271 -0.0963
  622MOL0     H82099   6.422   9.430   5.881  0.8916 -0.5908  1.3047
  622MOL0     H82100   6.572   9.540   5.723 -0.0048 -0.4682 -3.5450
  622MOL0     H82101   6.658   9.424   5.829  0.9447  2.9768 -0.1181
  622MOL0     H82102   6.724   9.207   5.478 -2.7674 -0.5037 -1.0231
  622MOL0     H82103   5.972   9.226   5.769 -0.9193 -0.2722  0.2352
  622MOL0     H82104   5.741   9.204   5.806 -3.9542  1.9780  1.8452
  623MOL0     O82105  10.784   4.083   1.311  0.3023  0.2820 -0.4590
  623MOL0     C82106  10.800   4.038   1.196 -1.0174  0.8798  1.1765
  623MOL0     O82107  10.718   3.940   1.142 -0.2100  0.1102  0.3885
  623MOL0     C82108  10.623   3.888   1.227 -0.5330  0.7967  0.2365
  623MOL0     C82109  10.488   3.912   1.205 -0.7478  0.3963 -0.1420
  623MOL0     C82110  10.386   3.851   1.280  0.7237 -0.0899  0.6016
  623MOL0     C82111  10.415   3.763   1.380 -0.1454  0.3576  0.3026
  623MOL0     O82112  10.313   3.704   1.444  0.0243  0.6604  0.3353
  623MOL0     C82113  10.236   3.612   1.362 -0.1885 -0.8413 -0.4928
  623MOL0     C82114  10.204   3.492   1.443 -0.4937  0.0930 -0.3668
  623MOL0     C82115  10.127   3.401   1.344  0.5399  0.8005 -0.1396
  623MOL0     C82116   9.998   3.461   1.277  0.5906 -0.5587 -0.9623
  623MOL0     C82117   9.876   3.484   1.369  0.1168  0.5129 -0.3094
  623MOL0     C82118   9.831   3.353   1.424  0.3294  1.0674  0.8371
  623MOL0     C82119   9.692   3.356   1.492 -0.4924 -0.6569  0.4504
  623MOL0     C82120   9.640   3.219   1.556  0.0678  0.1005  1.3389
  623MOL0     N82121   9.498   3.236   1.562 -0.0392  0.4423 -0.0726
  623MOL0     C82122   9.451   3.323   1.661  0.1505 -0.3613  0.2604
  623MOL0     C82123   9.321   3.290   1.670 -0.6250 -0.6402  0.4840
  623MOL0     C82124   9.230   3.338   1.760 -0.3595  0.3423 -0.9302
  623MOL0     C82125   9.216   3.226   1.864  0.4467  0.0164 -0.6405
  623MOL0     C82126   9.105   3.253   1.965  0.3792  0.3419  0.0301
  623MOL0     C82127   9.085   3.121   2.053  0.1607  0.4879  0.3438
  623MOL0     O82128   9.045   3.162   2.189 -1.0296  0.1230 -0.8164
  623MOL0     C82129   8.948   3.101   2.263  0.3624  0.0065  0.3451
  623MOL0     C82130   8.885   2.980   2.229 -0.6038  0.4941 -0.6610
  623MOL0     C82131   8.774   2.934   2.305 -0.3646 -1.1031  0.1986
  623MOL0     C82132   8.719   3.008   2.410 -0.1021 -0.4956 -0.3751
  623MOL0     C82133   8.606   2.967   2.499  0.6949 -0.2953  0.6733
  623MOL0     O82134   8.546   2.845   2.463 -0.0943 -0.2963 -0.3445
  623MOL0     C82135   8.424   2.825   2.531 -0.2699 -1.0933  0.9906
  623MOL0     C82136   8.398   2.777   2.663 -0.0986  0.5249 -0.6282
  623MOL0     C82137   8.271   2.768   2.719  0.3875  0.0227 -0.7754
  623MOL0     C82138   8.165   2.806   2.643  0.1556  0.0208 -0.5205
  623MOL0     O82139   8.028   2.800   2.684 -0.7569 -0.3781 -0.0742
  623MOL0     C82140   7.989   2.766   2.815 -0.3180 -0.0335 -0.0911
  623MOL0     C82141   7.838   2.725   2.820  0.6075 -0.0689  0.2601
  623MOL0     C82142   7.763   2.855   2.794 -0.1516  0.1776 -0.4040
  623MOL0     C82143   7.613   2.839   2.832  0.4251  0.0618  0.1310
  623MOL0     C82144   7.536   2.966   2.856  0.2009  0.6052 -0.3976
  623MOL0     C82145   7.499   3.023   2.717  0.0173 -0.7522  0.2768
  623MOL0     C82146   7.451   3.167   2.743  0.1256 -0.2202  0.2381
  623MOL0     C82147   7.314   3.181   2.809 -0.0697  0.0839 -0.4701
  623MOL0    Cl82148   7.203   3.056   2.765  0.1121  0.3298  0.0182
  623MOL0     C82149   8.190   2.844   2.512 -0.3881  0.3326 -0.1619
  623MOL0     C82150   8.315   2.857   2.462 -0.2884  0.1730 -0.7438
  623MOL0     O82151   8.570   3.046   2.593  0.0860  0.0863 -0.3601
  623MOL0     C82152   8.785   3.130   2.440  0.7508 -0.7144  1.5170
  623MOL0     C82153   8.895   3.174   2.369 -0.4330 -0.0139 -0.0938
  623MOL0     N82154   9.298   3.177   1.592  0.5160 -0.2130  0.7582
  623MOL0     N82155   9.401   3.151   1.522 -0.6636  0.0771 -0.0184
  623MOL0     C82156  10.551   3.744   1.411  0.1993  0.9719  0.0489
  623MOL0     C82157  10.659   3.806   1.336 -0.4556 -0.1225 -0.0761
  623MOL0     C82158  10.918   4.074   1.119 -0.0089 -0.5240  0.3086
  623MOL0     C82159  10.905   4.074   0.981 -0.4642  0.6051  0.5020
  623MOL0     C82160  11.021   4.093   0.910  0.3144 -0.4100  0.0084
  623MOL0     C82161  11.135   4.154   0.963  0.0213  0.3179  0.1245
  623MOL0     O82162  11.244   4.193   0.888 -0.1979 -0.5996 -0.1758
  623MOL0     C82163  11.237   4.180   0.748  0.0713 -0.4058  0.0048
  623MOL0     C82164  11.371   4.192   0.684  0.0849 -0.4339  0.2541
  623MOL0     C82165  11.420   4.338   0.676 -0.3706  0.2539  0.1496
  623MOL0     C82166  11.359   4.414   0.557  0.1681 -0.0146  0.1276
  623MOL0     C82167  11.244   4.504   0.606  0.3490  0.5911  0.3264
  623MOL0     C82168  11.147   4.575   0.634 -0.9886  0.6358 -0.1551
  623MOL0     C82169  11.144   4.151   1.099 -0.7278 -0.6190 -0.1942
  623MOL0     C82170  11.039   4.111   1.185  1.3316  0.5531  0.4243
  623MOL0     H82171  10.462   3.980   1.124 -1.1198  0.2116 -0.1828
  623MOL0     H82172  10.284   3.883   1.261  1.0061  1.3469  1.3612
  623MOL0     H82173  10.297   3.578   1.278  2.5017 -0.8578  1.3546
  623MOL0     H82174  10.145   3.658   1.323 -0.0401  0.4083  0.5863
  623MOL0     H82175  10.150   3.524   1.533  0.4239  3.0861 -0.7657
  623MOL0     H82176  10.290   3.434   1.477 -1.8181 -1.5751  0.3142
  623MOL0     H82177  10.106   3.315   1.407  1.6103  0.7241  0.1326
  623MOL0     H82178  10.188   3.363   1.262 -0.0507 -0.8396  0.1514
  623MOL0     H82179  10.018   3.550   1.217  1.6432 -0.4544 -0.4711
  623MOL0     H82180   9.969   3.386   1.204  0.7654 -1.1409 -0.4428
  623MOL0     H82181   9.800   3.522   1.300 -0.9802  1.2897  1.2683
  623MOL0     H82182   9.882   3.565   1.442 -3.2905  2.3893 -1.8739
  623MOL0     H82183   9.902   3.307   1.493 -1.6266 -2.7590  0.5493
  623MOL0     H82184   9.816   3.288   1.338 -0.3848  2.3058 -0.0026
  623MOL0     H82185   9.679   3.436   1.566 -2.3530 -0.7562  0.2760
  623MOL0     H82186   9.620   3.385   1.415  0.7181  0.5472 -0.2763
  623MOL0     H82187   9.676   3.205   1.658 -3.1981  4.2329  3.3244
  623MOL0     H82188   9.672   3.129   1.502  1.3677  0.6797  1.1301
  623MOL0     H82189   9.512   3.396   1.712  1.6413  0.5578 -2.6228
  623MOL0     H82190   9.125   3.354   1.732 -1.2288 -1.3662  1.0436
  623MOL0     H82191   9.277   3.423   1.811 -0.3227 -1.1727  1.7511
  623MOL0     H82192   9.310   3.207   1.916  0.5271  2.8647  0.4180
  623MOL0     H82193   9.190   3.131   1.816  0.4566 -1.5214  2.1722
  623MOL0     H82194   9.137   3.334   2.032  2.3592  0.1183 -0.5682
  623MOL0     H82195   9.005   3.273   1.925  1.0887  0.1933 -1.9012
  623MOL0     H82196   9.179   3.067   2.070  0.2047  0.4324 -0.0720
  623MOL0     H82197   9.023   3.045   2.005 -0.0101  0.5475  0.4651
  623MOL0     H82198   8.914   2.928   2.138 -1.1951  2.8230 -2.2660
  623MOL0     H82199   8.724   2.842   2.278  0.4750 -1.2863 -0.8184
  623MOL0     H82200   8.489   2.758   2.719  0.2683  2.9371 -0.3077
  623MOL0     H82201   8.263   2.745   2.825  2.9702  1.2903 -0.2129
  623MOL0     H82202   8.004   2.846   2.888 -1.3892 -2.1789  2.6235
  623MOL0     H82203   8.060   2.693   2.854  1.1517 -0.0422 -2.5821
  623MOL0     H82204   7.825   2.685   2.921  1.1291 -0.3468  0.2212
  623MOL0     H82205   7.815   2.643   2.751  0.6982 -1.8107  2.1917
  623MOL0     H82206   7.766   2.887   2.689  0.3574 -2.1339 -1.1504
  623MOL0     H82207   7.806   2.940   2.849 -0.9858  0.2265  0.1886
  623MOL0     H82208   7.558   2.788   2.751  1.0804  0.1019 -0.3500
  623MOL0     H82209   7.610   2.786   2.927  0.8056 -1.1882 -0.5305
  623MOL0     H82210   7.612   3.022   2.911 -0.2462 -1.6062  2.7493
  623MOL0     H82211   7.451   2.946   2.922  1.2717 -0.2436  0.7844
  623MOL0     H82212   7.415   2.980   2.662 -1.5144  2.2290  0.0615
  623MOL0     H82213   7.589   3.021   2.656 -0.2493 -3.5932 -0.1450
  623MOL0     H82214   7.524   3.241   2.777 -1.8488  1.7662  0.4022
  623MOL0     H82215   7.429   3.204   2.642  0.0501  1.2910  0.7811
  623MOL0     H82216   7.268   3.278   2.789  0.7469  0.0838 -2.5832
  623MOL0     H82217   7.331   3.168   2.917 -1.9061 -0.3544 -0.1904
  623MOL0     H82218   8.108   2.864   2.442  1.0453  2.5736 -1.3296
  623MOL0     H82219   8.319   2.893   2.359 -1.0905  2.3825 -0.0742
  623MOL0     H82220   8.756   3.193   2.524  2.7665  1.1715  0.9019
  623MOL0     H82221   8.939   3.270   2.393  1.4894 -0.8596 -0.0235
  623MOL0     H82222  10.573   3.679   1.495 -0.3635  3.6847  2.4406
  623MOL0     H82223  10.767   3.793   1.336 -0.4274 -0.6154 -2.7908
  623MOL0     H82224  10.823   4.021   0.934  1.7022 -1.8816 -0.6973
  623MOL0     H82225  11.003   4.081   0.803 -0.1155 -3.8716  0.3730
  623MOL0     H82226  11.163   4.238   0.692 -0.4633 -2.0519 -1.0744
  623MOL0     H82227  11.209   4.076   0.729 -1.5093  0.2853 -1.8126
  623MOL0     H82228  11.447   4.122   0.722  0.0171  0.8320  2.9329
  623MOL0     H82229  11.362   4.159   0.580 -3.2735  1.9419 -0.3545
  623MOL0     H82230  11.528   4.328   0.659 -0.7029  0.8077 -2.9195
  623MOL0     H82231  11.399   4.384   0.773  0.1689 -0.7627  0.7675
  623MOL0     H82232  11.428   4.484   0.508 -1.4026  1.3449 -0.2323
  623MOL0     H82233  11.316   4.350   0.480 -0.2056 -0.8755  1.0375
  623MOL0     H82234  11.060   4.636   0.650 -0.5666  1.2115 -0.0042
  623MOL0     H82235  11.235   4.195   1.139  0.8166 -3.4300 -0.3829
  623MOL0     H82236  11.042   4.117   1.293 -0.7264  2.2841  0.4707
  624MOL0     O82237   4.797   2.808  10.523  0.2814  0.2196  0.8107
  624MOL0     C82238   4.799   2.931  10.542 -0.2811  0.7037 -0.3433
  624MOL0     O82239   4.702   3.020  10.496  0.3413  0.0722  0.7195
  624MOL0     C82240   4.577   2.985  10.469  0.4451  0.3382 -0.6698
  624MOL0     C82241   4.549   2.946  10.340  0.5745  1.0923  0.6556
  624MOL0     C82242   4.429   2.883  10.323 -0.7704 -0.9440 -0.6165
  624MOL0     C82243   4.331   2.866  10.423 -0.9698  1.4752 -0.3354
  624MOL0     O82244   4.198   2.817  10.407 -0.1017  0.1426  0.6051
  624MOL0     C82245   4.175   2.776  10.266 -1.1278 -0.0337 -1.0151
  624MOL0     C82246   4.053   2.674  10.270 -0.3282  0.3265 -0.2066
  624MOL0     C82247   3.907   2.725  10.285  0.1926 -0.4664 -0.1865
  624MOL0     C82248   3.856   2.812  10.162  0.0622  0.1460  0.0976
  624MOL0     C82249   3.720   2.868  10.185 -0.0009  0.4694  0.3936
  624MOL0     C82250   3.612   2.770  10.195  0.4535 -0.1029  0.1955
  624MOL0     C82251   3.476   2.841  10.159 -0.2382 -0.4603 -0.0707
  624MOL0     C82252   3.358   2.745  10.160 -0.0020  0.3950 -1.0790
  624MOL0     N82253   3.238   2.812  10.123  0.4021  0.1360  0.3389
  624MOL0     C82254   3.117   2.753  10.091 -0.6214  0.0838  0.2348
  624MOL0     C82255   3.023   2.849  10.077  0.8942 -0.8327  0.0916
  624MOL0     C82256   2.877   2.836  10.054 -0.5651  0.2252  0.7316
  624MOL0     C82257   2.795   2.779  10.171 -1.1373  0.4528  0.1558
  624MOL0     C82258   2.649   2.791  10.162 -0.0635 -0.1804 -0.2417
  624MOL0     C82259   2.603   2.937  10.201 -0.0028 -0.0188  0.0731
  624MOL0     O82260   2.604   2.969  10.343  0.1118  0.2329 -0.1314
  624MOL0     C82261   2.480   2.958  10.404 -0.0469 -0.5310  0.1102
  624MOL0     C82262   2.443   2.842  10.481  0.6887 -0.3252  0.7132
  624MOL0     C82263   2.318   2.846  10.544  0.5129 -1.0231 -0.4048
  624MOL0     C82264   2.241   2.960  10.545 -0.1187  0.3764  0.1259
  624MOL0     C82265   2.121   2.959  10.628  0.7823  0.2004  0.3058
  624MOL0     O82266   2.106   2.844  10.699  0.4724  0.3645  0.2131
  624MOL0     C82267   2.015   2.855  10.800  0.0192  1.3210 -0.5140
  624MOL0     C82268   1.920   2.748  10.817 -0.6224  0.1046 -0.3679
  624MOL0     C82269   1.822   2.762  10.918  0.6251 -0.5298 -0.4821
  624MOL0     C82270   1.843   2.861  11.023  0.7317 -0.5572 -0.0435
  624MOL0     O82271   1.739   2.873  11.109 -0.2320 -0.3292 -0.0620
  624MOL0     C82272   1.608   2.907  11.053 -0.2023  0.8097  0.2981
  624MOL0     C82273   1.510   2.969  11.153 -0.7706 -0.2843  0.0693
  624MOL0     C82274   1.478   2.861  11.257 -0.3486 -0.0306 -1.0074
  624MOL0     C82275   1.347   2.895  11.337  0.0353  0.7672 -0.4497
  624MOL0     C82276   1.351   2.836  11.481  0.3455 -0.2031 -0.1499
  624MOL0     C82277   1.240   2.901  11.567  0.0134 -0.1993 -0.4522
  624MOL0     C82278   1.228   2.826  11.698  0.2890 -0.0108 -0.7508
  624MOL0     C82279   1.185   2.919  11.818 -0.0086 -0.1224 -0.0894
  624MOL0    Cl82280   1.042   3.021  11.801  0.0779 -0.4579  0.6756
  624MOL0     C82281   1.959   2.937  11.022  0.5739  0.0892 -0.1889
  624MOL0     C82282   2.035   2.937  10.904  0.1485  0.1872  0.0620
  624MOL0     O82283   2.045   3.062  10.633  0.2306  0.3586  0.3027
  624MOL0     C82284   2.277   3.071  10.476  0.0248 -0.7475  0.2574
  624MOL0     C82285   2.400   3.077  10.413  0.6458 -0.2893 -0.5973
  624MOL0     N82286   3.086   2.967  10.111  0.2166  0.0622 -0.8555
  624MOL0     N82287   3.216   2.944  10.139 -0.1041 -0.0673  0.5008
  624MOL0     C82288   4.358   2.914  10.550  0.5894 -0.5433  1.0604
  624MOL0     C82289   4.485   2.973  10.574  1.1615 -0.6772  0.8723
  624MOL0     C82290   4.925   2.994  10.595 -0.0795  0.0093 -0.0626
  624MOL0     C82291   5.046   2.923  10.598  0.2626 -0.0458 -0.2113
  624MOL0     C82292   5.158   2.977  10.662 -0.0821  0.6653  0.0348
  624MOL0     C82293   5.145   3.093  10.735  0.4266 -0.6844 -0.1926
  624MOL0     O82294   5.243   3.154  10.796 -0.7992  0.1145  0.0640
  624MOL0     C82295   5.376   3.107  10.781  0.9331  0.2054  0.3642
  624MOL0     C82296   5.493   3.198  10.842  0.1622 -0.4150  1.3438
  624MOL0     C82297   5.587   3.090  10.901  0.0444 -0.1465 -0.2631
  624MOL0     C82298   5.711   3.159  10.969  0.9713  0.2688  0.5560
  624MOL0     C82299   5.787   3.221  10.864  0.5023 -1.0832  0.5102
  624MOL0     C82300   5.839   3.281  10.776  0.2709  0.1596  0.5998
  624MOL0     C82301   5.025   3.165  10.726  0.2597 -0.2052 -0.2091
  624MOL0     C82302   4.910   3.115  10.666 -0.3865 -1.2950 -0.4632
  624MOL0     H82303   4.615   2.958  10.255  0.7744  0.6249  0.7403
  624MOL0     H82304   4.411   2.853  10.221  3.5927 -1.4498 -1.4034
  624MOL0     H82305   4.251   2.704  10.232 -3.1110 -2.8708  0.1158
  624MOL0     H82306   4.152   2.859  10.199  2.2937  1.6598 -0.3304
  624MOL0     H82307   4.061   2.594  10.344 -2.4544 -1.2260 -1.5424
  624MOL0     H82308   4.056   2.608  10.183 -1.5656 -0.3252  0.2153
  624MOL0     H82309   3.902   2.800  10.364  0.9807  1.5892 -1.9967
  624MOL0     H82310   3.842   2.641  10.313 -1.4990  1.7748  3.3245
  624MOL0     H82311   3.914   2.901  10.137  1.5432 -0.1378  2.2594
  624MOL0     H82312   3.837   2.751  10.074 -2.7158  1.2836 -0.2109
  624MOL0     H82313   3.702   2.928  10.095 -0.0266  0.8935  0.6774
  624MOL0     H82314   3.724   2.932  10.274  0.2994 -0.9962  1.4641
  624MOL0     H82315   3.604   2.727  10.295  2.0945  1.8466  1.2527
  624MOL0     H82316   3.632   2.693  10.120  1.9843  1.1463 -0.7531
  624MOL0     H82317   3.450   2.923  10.226 -0.8176  1.7728 -2.8123
  624MOL0     H82318   3.476   2.887  10.059 -2.4944 -2.7048 -1.2304
  624MOL0     H82319   3.343   2.698  10.257 -1.2973  2.1344 -0.3908
  624MOL0     H82320   3.387   2.680  10.076  2.8784  2.6584 -2.0092
  624MOL0     H82321   3.107   2.648  10.069 -1.5460 -0.3409  2.4043
  624MOL0     H82322   2.857   2.784   9.960  1.9885  1.7739 -0.8041
  624MOL0     H82323   2.840   2.938  10.036 -1.8974 -0.4471 -0.6080
  624MOL0     H82324   2.829   2.817  10.268 -1.0425  1.1746 -0.1525
  624MOL0     H82325   2.814   2.671  10.170 -2.5030  0.1603 -2.8735
  624MOL0     H82326   2.606   2.768  10.064 -0.3849 -1.9891  0.3013
  624MOL0     H82327   2.597   2.722  10.229  1.5969 -0.0256  1.2793
  624MOL0     H82328   2.503   2.949  10.157  0.4787 -0.6588 -1.2323
  624MOL0     H82329   2.654   3.010  10.138 -1.5472  0.0601 -1.1511
  624MOL0     H82330   2.495   2.747  10.483  0.8910 -0.2108  1.1107
  624MOL0     H82331   2.281   2.753  10.586 -1.2831 -2.1941 -4.1366
  624MOL0     H82332   1.920   2.675  10.736  2.0086 -1.1506  0.6376
  624MOL0     H82333   1.737   2.696  10.932  0.2393  0.3728  1.8927
  624MOL0     H82334   1.564   2.821  11.000 -1.0184 -0.3370  2.7166
  624MOL0     H82335   1.612   2.991  10.983 -2.4952  3.0760  2.7053
  624MOL0     H82336   1.419   3.006  11.105 -0.7755 -0.3711  0.0125
  624MOL0     H82337   1.575   3.047  11.195 -2.3378  1.4427 -0.5456
  624MOL0     H82338   1.559   2.851  11.330 -2.1068 -1.1138  0.8992
  624MOL0     H82339   1.473   2.764  11.205 -3.8724  0.1969 -1.3155
  624MOL0     H82340   1.337   3.004  11.345 -1.9738  0.5126  1.7726
  624MOL0     H82341   1.263   2.854  11.280 -1.9767  1.0298  2.1208
  624MOL0     H82342   1.447   2.855  11.531  0.2532 -1.3355  0.4755
  624MOL0     H82343   1.337   2.728  11.472  1.4652 -0.3736 -0.0892
  624MOL0     H82344   1.142   2.897  11.519  0.1217 -1.0958 -0.6233
  624MOL0     H82345   1.255   3.007  11.589  0.5771 -0.3739  0.0221
  624MOL0     H82346   1.149   2.752  11.690 -0.6592  1.0252 -1.2355
  624MOL0     H82347   1.321   2.776  11.728 -0.1504  0.1778  1.0593
  624MOL0     H82348   1.269   2.979  11.855  0.1547  1.0000 -2.1747
  624MOL0     H82349   1.158   2.848  11.897  0.0175  0.9233  0.8931
  624MOL0     H82350   1.988   2.997  11.108  2.3860 -1.4711  0.3511
  624MOL0     H82351   2.123   2.999  10.890  1.4391 -1.1316  1.9336
  624MOL0     H82352   2.212   3.158  10.481  0.1696 -0.7032  1.6431
  624MOL0     H82353   2.429   3.165  10.356 -1.1624  1.3552  0.9028
  624MOL0     H82354   4.277   2.905  10.623 -0.2049  3.0507  0.8215
  624MOL0     H82355   4.512   2.997  10.676 -0.3291 -2.0827  1.6349
  624MOL0     H82356   5.041   2.825  10.553 -5.7968 -0.9682  1.5198
  624MOL0     H82357   5.257   2.931  10.659 -0.7542 -0.8179 -0.1191
  624MOL0     H82358   5.399   3.085  10.676  0.8963 -0.3787  0.4764
  624MOL0     H82359   5.376   3.004  10.816  0.0980 -0.2032 -0.7582
  624MOL0     H82360   5.545   3.255  10.764  0.1800 -2.8864 -0.5630
  624MOL0     H82361   5.458   3.268  10.919 -0.2417  0.7161  0.1657
  624MOL0     H82362   5.620   3.014  10.829 -1.9897 -0.4133 -0.9864
  624MOL0     H82363   5.542   3.035  10.984  1.3173 -0.0974  0.4863
  624MOL0     H82364   5.665   3.228  11.041 -0.9187  2.1737 -2.2764
  624MOL0     H82365   5.763   3.076  11.017  1.0695  0.3269  0.5506
  624MOL0     H82366   5.884   3.336  10.696 -2.2565  3.8198  1.4121
  624MOL0     H82367   5.028   3.263  10.772 -0.0081  0.3784 -1.4024
  624MOL0     H82368   4.830   3.187  10.659  0.3237 -0.4825 -0.4615
  625MOL0     O82369   3.681   5.494   7.698 -0.2358  0.4917  0.7815
  625MOL0     C82370   3.562   5.467   7.681  0.6871  0.2732 -0.5202
  625MOL0     O82371   3.459   5.550   7.673 -0.0153 -0.0960  0.4989
  625MOL0     C82372   3.490   5.681   7.656  0.0485 -0.1068 -0.3212
  625MOL0     C82373   3.582   5.740   7.565 -0.2932  0.8768 -0.8062
  625MOL0     C82374   3.591   5.879   7.551  0.2854  0.0363 -0.2674
  625MOL0     C82375   3.521   5.960   7.635  0.1554  0.2206 -0.1975
  625MOL0     O82376   3.548   6.097   7.640 -0.2416 -0.2595  0.2782
  625MOL0     C82377   3.679   6.148   7.675 -0.6113  0.5911  0.4132
  625MOL0     C82378   3.729   6.111   7.819 -0.0473 -0.7662  1.0042
  625MOL0     C82379   3.654   6.198   7.923 -0.0694 -0.3167 -0.3006
  625MOL0     C82380   3.636   6.132   8.060  0.1342 -0.1114  0.6934
  625MOL0     C82381   3.560   6.230   8.150  0.4772 -0.4716 -0.6070
  625MOL0     C82382   3.464   6.139   8.230 -0.3642 -0.1272 -0.5093
  625MOL0     C82383   3.371   6.216   8.316 -0.4430  0.5620  0.2174
  625MOL0     C82384   3.308   6.126   8.420 -0.7984 -0.7365  0.3040
  625MOL0     N82385   3.193   6.190   8.482 -0.4345 -0.1150 -0.3395
  625MOL0     C82386   3.202   6.275   8.586 -0.0307 -0.9841 -0.0295
  625MOL0     C82387   3.080   6.339   8.581 -0.3368  0.6662  0.4179
  625MOL0     C82388   3.040   6.440   8.672 -0.1384 -0.4796  1.5823
  625MOL0     C82389   2.907   6.508   8.633  0.5036 -0.3155 -0.4029
  625MOL0     C82390   2.871   6.630   8.713  0.3558 -0.0087 -0.5135
  625MOL0     C82391   2.737   6.674   8.697  1.2548 -1.1079 -1.0847
  625MOL0     O82392   2.713   6.763   8.817  0.3077 -0.7269  0.1709
  625MOL0     C82393   2.589   6.830   8.824  0.9737  0.6828  0.2823
  625MOL0     C82394   2.522   6.828   8.945  0.1274 -0.3280  1.1058
  625MOL0     C82395   2.399   6.900   8.948 -0.4141  0.2080 -0.3823
  625MOL0     C82396   2.358   6.979   8.842  0.4375 -0.1840  0.4874
  625MOL0     C82397   2.217   7.045   8.848 -1.0845  0.0753  1.2880
  625MOL0     O82398   2.154   7.042   8.968  0.6084  0.0179 -0.5122
  625MOL0     C82399   2.026   7.103   8.973  0.1601 -0.4545  0.3800
  625MOL0     C82400   1.990   7.199   9.059 -1.1159  0.8073 -0.0601
  625MOL0     C82401   1.857   7.238   9.071 -0.0495  0.5167  0.2468
  625MOL0     C82402   1.761   7.190   8.984  0.0966 -0.8755  1.1413
  625MOL0     O82403   1.637   7.246   8.991  0.7560  0.2377 -0.5139
  625MOL0     C82404   1.520   7.197   8.919 -0.5358  0.2856 -0.6072
  625MOL0     C82405   1.398   7.288   8.931 -1.0730 -0.6895  0.7085
  625MOL0     C82406   1.403   7.394   8.818 -0.2723 -0.6575  0.0294
  625MOL0     C82407   1.259   7.461   8.806  0.0553  0.3816  0.0054
  625MOL0     C82408   1.261   7.606   8.777  0.0448 -0.0960  0.4942
  625MOL0     C82409   1.318   7.627   8.633  0.6395 -0.2221  1.1159
  625MOL0     C82410   1.208   7.597   8.529  0.3214 -0.1671  0.5596
  625MOL0     C82411   1.285   7.571   8.392  0.4210 -0.6507  0.1627
  625MOL0    Cl82412   1.158   7.570   8.259  0.0622 -0.2194  0.3250
  625MOL0     C82413   1.793   7.103   8.885  0.1998  0.4845 -0.3310
  625MOL0     C82414   1.927   7.053   8.888  0.0366  0.2204 -0.9553
  625MOL0     O82415   2.177   7.097   8.743  0.6538  0.8066 -0.3449
  625MOL0     C82416   2.423   6.975   8.717 -0.4519  0.2512 -0.0088
  625MOL0     C82417   2.539   6.901   8.707  0.4659  1.1968 -0.7391
  625MOL0     N82418   3.001   6.288   8.477  0.1232  0.6542 -1.0112
  625MOL0     N82419   3.073   6.194   8.422  0.1107 -0.2784 -0.8456
  625MOL0     C82420   3.430   5.911   7.723 -0.4925 -0.6504  0.2566
  625MOL0     C82421   3.409   5.776   7.724  0.1155 -0.2933  0.2408
  625MOL0     C82422   3.532   5.318   7.673  0.6537 -0.0796 -0.0856
  625MOL0     C82423   3.582   5.224   7.768  0.7551 -0.2643 -0.0433
  625MOL0     C82424   3.561   5.083   7.752  0.0613  0.0487 -0.0684
  625MOL0     C82425   3.465   5.037   7.654  1.0056 -0.9137 -0.1036
  625MOL0     O82426   3.428   4.908   7.661 -0.1221 -0.6637  0.1364
  625MOL0     C82427   3.323   4.901   7.751  0.5245  0.0953 -0.7981
  625MOL0     C82428   3.253   4.779   7.711 -0.7492 -0.2282  0.2027
  625MOL0     C82429   3.112   4.761   7.771  1.1481  0.4067  0.3032
  625MOL0     C82430   2.992   4.808   7.682  0.1111  0.4956 -0.3472
  625MOL0     C82431   2.863   4.757   7.721 -0.5464 -0.3851 -0.4507
  625MOL0     C82432   2.759   4.710   7.753 -0.1215 -0.1622 -1.4484
  625MOL0     C82433   3.411   5.134   7.566  0.1173  0.0917 -0.3866
  625MOL0     C82434   3.454   5.266   7.570 -0.1822 -0.1737  0.2844
  625MOL0     H82435   3.653   5.683   7.507  0.8755  0.5502  0.8699
  625MOL0     H82436   3.667   5.914   7.482 -2.1196  2.4106 -1.9706
  625MOL0     H82437   3.679   6.255   7.653  0.5680  0.3044 -1.1489
  625MOL0     H82438   3.757   6.120   7.604  1.8094  0.7939  2.8326
  625MOL0     H82439   3.837   6.129   7.823 -0.0711  0.6724 -1.9591
  625MOL0     H82440   3.712   6.005   7.838 -0.8139 -0.7019  0.7201
  625MOL0     H82441   3.558   6.224   7.879  0.3021 -1.6423 -2.0223
  625MOL0     H82442   3.710   6.291   7.934  1.4392 -1.1170 -0.9220
  625MOL0     H82443   3.594   6.034   8.036  0.8817  0.1213 -1.8931
  625MOL0     H82444   3.734   6.117   8.106  1.0615 -1.8318 -1.6268
  625MOL0     H82445   3.512   6.308   8.090  3.6259 -0.4899 -3.4439
  625MOL0     H82446   3.618   6.286   8.225 -3.8400  0.2574  2.5708
  625MOL0     H82447   3.527   6.084   8.300  0.5579  0.3570 -0.9389
  625MOL0     H82448   3.404   6.070   8.170 -1.3979  0.2310  0.0789
  625MOL0     H82449   3.427   6.297   8.362  1.2446  0.1724 -1.0698
  625MOL0     H82450   3.293   6.257   8.252  0.5768 -0.7709 -1.9995
  625MOL0     H82451   3.377   6.091   8.498 -2.2222  0.5918  2.2783
  625MOL0     H82452   3.281   6.031   8.375  2.6354 -2.0001  0.6298
  625MOL0     H82453   3.285   6.285   8.655 -0.2516  1.0909 -0.0027
  625MOL0     H82454   3.114   6.520   8.676 -0.1143 -0.3769 -0.1792
  625MOL0     H82455   3.049   6.397   8.772  1.2157 -3.4382  0.3210
  625MOL0     H82456   2.818   6.444   8.627 -1.3674  2.1879 -5.4586
  625MOL0     H82457   2.925   6.540   8.530 -1.6433  3.3099  0.1657
  625MOL0     H82458   2.870   6.595   8.817 -1.2772  2.6619  0.4721
  625MOL0     H82459   2.937   6.717   8.699  1.7926 -0.9224  0.3282
  625MOL0     H82460   2.657   6.599   8.698  3.1094 -3.2207 -1.6568
  625MOL0     H82461   2.733   6.723   8.599 -0.8726 -1.1025 -1.0409
  625MOL0     H82462   2.559   6.771   9.029  0.5580  1.5191  2.2372
  625MOL0     H82463   2.343   6.890   9.041  1.9931 -1.5308  0.9937
  625MOL0     H82464   2.059   7.228   9.137  0.7753  1.3036 -1.8449
  625MOL0     H82465   1.822   7.314   9.140  2.3310  0.9260  1.0898
  625MOL0     H82466   1.511   7.097   8.963 -0.3495  1.0493  1.2680
  625MOL0     H82467   1.542   7.191   8.812  0.7649  1.5230 -0.4357
  625MOL0     H82468   1.397   7.334   9.031 -0.1876  0.3783  0.2434
  625MOL0     H82469   1.312   7.225   8.906 -0.0957 -1.3273 -1.2529
  625MOL0     H82470   1.431   7.351   8.722 -3.3861  2.1802 -2.3776
  625MOL0     H82471   1.489   7.460   8.832  0.4116 -0.5520 -3.6591
  625MOL0     H82472   1.197   7.413   8.729  1.5100 -1.8414  0.1348
  625MOL0     H82473   1.205   7.438   8.898 -0.9774  0.6171 -0.5276
  625MOL0     H82474   1.320   7.663   8.850 -0.2794  1.3777 -0.3485
  625MOL0     H82475   1.157   7.640   8.775 -0.8061 -2.5070 -1.6893
  625MOL0     H82476   1.402   7.565   8.602 -0.0837  0.4911 -2.7756
  625MOL0     H82477   1.349   7.730   8.617 -1.3242  0.3306  0.6006
  625MOL0     H82478   1.143   7.510   8.545 -0.0269 -0.0223 -0.0178
  625MOL0     H82479   1.150   7.690   8.525  0.3789 -0.1736 -1.3912
  625MOL0     H82480   1.343   7.479   8.399 -0.6475 -1.3419  0.1745
  625MOL0     H82481   1.357   7.647   8.359  1.0063 -0.7801  1.0872
  625MOL0     H82482   1.722   7.086   8.804  1.5571  0.4818 -1.5587
  625MOL0     H82483   1.936   6.984   8.805  3.7554  0.7770 -1.1566
  625MOL0     H82484   2.369   7.010   8.629 -0.7513 -2.3399 -0.9484
  625MOL0     H82485   2.578   6.873   8.610  1.0156  1.8945 -0.7250
  625MOL0     H82486   3.376   5.971   7.795 -1.7045 -2.3086  0.7974
  625MOL0     H82487   3.336   5.739   7.796  0.7212 -1.6747  0.1852
  625MOL0     H82488   3.641   5.266   7.849 -0.5246  3.5333 -0.8449
  625MOL0     H82489   3.609   5.012   7.820  0.4851  0.5000  0.1076
  625MOL0     H82490   3.259   4.990   7.749  0.3388 -0.0077  0.2008
  625MOL0     H82491   3.364   4.888   7.851 -1.2050 -0.7498 -0.1593
  625MOL0     H82492   3.231   4.782   7.603 -1.5063 -0.3217  0.3482
  625MOL0     H82493   3.309   4.688   7.734  0.0135  0.7511  2.4286
  625MOL0     H82494   3.092   4.813   7.866  1.2796 -1.5332  1.4515
  625MOL0     H82495   3.114   4.653   7.788  1.7087  0.1166 -1.4697
  625MOL0     H82496   2.990   4.915   7.701 -2.4493 -0.0235  3.5202
  625MOL0     H82497   3.005   4.777   7.577  0.3200  0.8792 -0.4342
  625MOL0     H82498   2.662   4.667   7.769  0.3335 -0.0248  2.8889
  625MOL0     H82499   3.333   5.094   7.502  1.2075 -2.2403 -0.3494
  625MOL0     H82500   3.434   5.343   7.497  2.6331 -0.0012 -0.4291
  626MOL0     O82501  10.147   5.596   1.356 -0.7666  0.3320  0.2772
  626MOL0     C82502  10.222   5.506   1.384 -0.3239  0.3035 -0.1182
  626MOL0     O82503  10.201   5.370   1.363 -0.6866 -0.0528 -0.3192
  626MOL0     C82504  10.100   5.342   1.276  0.0157 -0.0204  0.4373
  626MOL0     C82505  10.113   5.378   1.136  0.0109 -0.7346  0.1855
  626MOL0     C82506  10.021   5.342   1.037  0.8337  0.0710  0.4783
  626MOL0     C82507   9.916   5.261   1.080 -0.3473  0.1045 -1.5376
  626MOL0     O82508   9.813   5.241   0.993 -0.2211 -0.6890 -0.6559
  626MOL0     C82509   9.697   5.326   0.988 -0.3391  0.8630  0.2912
  626MOL0     C82510   9.570   5.243   0.993 -0.0549  0.4198 -0.1109
  626MOL0     C82511   9.438   5.318   0.975 -0.2478  0.0927  1.0884
  626MOL0     C82512   9.323   5.222   0.931  0.6030  0.3995 -0.9111
  626MOL0     C82513   9.204   5.311   0.894  0.2442 -0.9177  0.2061
  626MOL0     C82514   9.076   5.229   0.853  0.6296 -1.2809  0.0418
  626MOL0     C82515   8.941   5.319   0.872 -1.1979  0.2448 -0.5681
  626MOL0     C82516   8.817   5.262   0.795 -0.3352  0.4432  0.1121
  626MOL0     N82517   8.702   5.340   0.814 -0.1504 -0.0755 -0.3322
  626MOL0     C82518   8.599   5.298   0.892 -0.1525  0.3913  1.8230
  626MOL0     C82519   8.518   5.406   0.895  0.6057 -0.9742 -0.1612
  626MOL0     C82520   8.374   5.412   0.952 -0.2435 -0.1039  0.1323
  626MOL0     C82521   8.356   5.534   1.034  0.2343  0.5889 -0.8929
  626MOL0     C82522   8.216   5.553   1.079  0.6418 -1.2530  0.6587
  626MOL0     C82523   8.110   5.526   0.967 -0.1902 -0.3399  0.0892
  626MOL0     O82524   8.133   5.619   0.866  0.4148 -0.4374  0.7249
  626MOL0     C82525   8.039   5.630   0.767  0.0889  0.5349  0.0345
  626MOL0     C82526   8.020   5.755   0.710 -0.0658 -0.4650  0.2555
  626MOL0     C82527   7.920   5.786   0.622 -0.3394  0.2625 -0.1063
  626MOL0     C82528   7.827   5.684   0.590  0.6063  0.2293 -0.3169
  626MOL0     C82529   7.704   5.704   0.504  0.0804  0.2512  0.1031
  626MOL0     O82530   7.685   5.809   0.424  0.7514 -0.2985 -0.3735
  626MOL0     C82531   7.558   5.835   0.377 -0.1201  0.1598  0.2151
  626MOL0     C82532   7.457   5.862   0.458 -0.3116 -0.7751  0.6915
  626MOL0     C82533   7.323   5.878   0.406 -0.1377  0.8431 -0.0128
  626MOL0     C82534   7.303   5.881   0.265  0.1129 -0.5994 -0.3980
  626MOL0     O82535   7.179   5.903   0.202  0.0807 -0.2886  0.0609
  626MOL0     C82536   7.165   6.039   0.163  0.4552 -0.0043 -0.2202
  626MOL0     C82537   7.133   6.043   0.018  0.0104  0.6576  0.4525
  626MOL0     C82538   7.101   6.182  -0.041 -0.3583  0.5384 -0.2376
  626MOL0     C82539   7.061   6.164  -0.191  0.4679 -0.1133  0.0618
  626MOL0     C82540   7.018   6.297  -0.249 -0.0440  0.5188 -0.3821
  626MOL0     C82541   6.968   6.283  -0.391  0.0264 -0.1685 -0.2942
  626MOL0     C82542   6.899   6.410  -0.428 -0.3800  1.0143 -0.6370
  626MOL0     C82543   6.835   6.403  -0.570 -0.0011  0.3127 -0.2396
  626MOL0    Cl82544   6.711   6.295  -0.595  0.0327 -0.2698  0.1862
  626MOL0     C82545   7.415   5.861   0.182  0.0545  0.1132  0.6950
  626MOL0     C82546   7.543   5.841   0.236 -0.3552  1.0289 -0.7518
  626MOL0     O82547   7.620   5.615   0.522 -0.1918 -0.4054 -0.6109
  626MOL0     C82548   7.853   5.554   0.632 -0.2762 -0.7257 -0.2148
  626MOL0     C82549   7.958   5.528   0.722  0.2235 -0.3590  0.6888
  626MOL0     N82550   8.567   5.509   0.816 -0.0382 -1.0060 -0.0486
  626MOL0     N82551   8.679   5.464   0.760  0.5260 -0.6047 -0.4564
  626MOL0     C82552   9.906   5.206   1.210  0.4789  0.1575  0.3562
  626MOL0     C82553   9.993   5.259   1.314  0.8789  0.3191  0.6705
  626MOL0     C82554  10.364   5.537   1.412 -1.0055 -0.6016  0.3827
  626MOL0     C82555  10.413   5.664   1.418  0.3630  0.4151  1.0126
  626MOL0     C82556  10.553   5.682   1.437  0.3017 -0.2242  0.6386
  626MOL0     C82557  10.638   5.579   1.474 -0.5408 -0.1824 -1.6938
  626MOL0     O82558  10.776   5.591   1.499  0.1038  0.0412  0.4406
  626MOL0     C82559  10.816   5.717   1.550  0.2816  0.5665 -0.1574
  626MOL0     C82560  10.970   5.708   1.593 -0.4402  0.0842  0.2357
  626MOL0     C82561  10.984   5.618   1.721 -0.5656 -1.3396  0.3908
  626MOL0     C82562  11.125   5.552   1.737 -0.0802 -0.1513 -0.3962
  626MOL0     C82563  11.225   5.644   1.791  0.4236  0.1731 -0.5630
  626MOL0     C82564  11.314   5.726   1.813 -0.1858  0.8284 -0.3359
  626MOL0     C82565  10.586   5.455   1.474  0.0879  0.1756 -0.0395
  626MOL0     C82566  10.449   5.432   1.446  1.5615  0.5246 -0.1802
  626MOL0     H82567  10.209   5.410   1.099  0.2184 -2.3758 -0.8114
  626MOL0     H82568  10.021   5.374   0.934 -1.6429  0.5470  0.5786
  626MOL0     H82569   9.685   5.378   0.893 -0.4085 -1.5206 -1.0704
  626MOL0     H82570   9.701   5.385   1.080 -1.0588  1.2130  0.1060
  626MOL0     H82571   9.564   5.180   1.082  1.7213  1.8148  1.0766
  626MOL0     H82572   9.568   5.172   0.911  1.4092 -1.0498  1.0694
  626MOL0     H82573   9.459   5.392   0.897  0.9465  0.2045  1.4998
  626MOL0     H82574   9.411   5.380   1.061 -2.3642  2.2172 -0.9460
  626MOL0     H82575   9.340   5.155   0.846  0.3664  1.9025 -2.1908
  626MOL0     H82576   9.298   5.156   1.015  1.0393  1.6848  0.2721
  626MOL0     H82577   9.226   5.377   0.810  0.8000 -1.9996 -0.5181
  626MOL0     H82578   9.166   5.365   0.982  0.4685 -2.0206  0.9905
  626MOL0     H82579   9.054   5.144   0.917 -0.8821  0.7388  2.3837
  626MOL0     H82580   9.083   5.186   0.753 -1.7664 -0.4818 -0.5409
  626MOL0     H82581   8.922   5.322   0.980  1.3179  1.0928 -0.0949
  626MOL0     H82582   8.959   5.414   0.821 -0.3582 -0.1940 -1.1094
  626MOL0     H82583   8.800   5.161   0.833  2.2297 -0.2435 -0.3874
  626MOL0     H82584   8.826   5.274   0.687 -2.3091  1.2541 -0.0134
  626MOL0     H82585   8.611   5.207   0.949  2.5956  0.9124  2.1851
  626MOL0     H82586   8.350   5.325   1.013  0.8574 -0.5056  0.0241
  626MOL0     H82587   8.313   5.417   0.861  0.8357  0.6214 -0.5921
  626MOL0     H82588   8.378   5.627   0.981 -2.0639  0.2593 -2.5609
  626MOL0     H82589   8.410   5.514   1.127  0.0145  1.9168 -0.4554
  626MOL0     H82590   8.187   5.482   1.157 -2.3464 -1.8422 -0.8596
  626MOL0     H82591   8.209   5.651   1.127  5.5181 -0.7083  0.7842
  626MOL0     H82592   8.013   5.540   1.017  1.3942  2.9725  2.6369
  626MOL0     H82593   8.114   5.422   0.935 -2.5787 -1.6274  3.4471
  626MOL0     H82594   8.088   5.831   0.749  1.3987 -0.4380 -2.1190
  626MOL0     H82595   7.899   5.882   0.575 -2.1347 -0.0515 -0.0183
  626MOL0     H82596   7.485   5.860   0.562  3.7642  0.8597 -0.1824
  626MOL0     H82597   7.244   5.895   0.478 -1.9829 -1.6662 -1.2588
  626MOL0     H82598   7.257   6.094   0.184 -1.0069  2.1314  1.0009
  626MOL0     H82599   7.087   6.081   0.226  1.9829  0.1922  1.6326
  626MOL0     H82600   7.048   5.974   0.007  1.5900 -1.6625  1.8487
  626MOL0     H82601   7.216   5.992  -0.032 -0.6041  1.3151 -1.3113
  626MOL0     H82602   7.186   6.249  -0.028  2.1941 -2.6178  0.8884
  626MOL0     H82603   7.023   6.230   0.018  0.1985  1.2559 -0.0767
  626MOL0     H82604   7.150   6.127  -0.243 -1.0556 -0.5523 -2.4188
  626MOL0     H82605   6.987   6.083  -0.198 -0.0652  0.4722 -1.5973
  626MOL0     H82606   7.103   6.366  -0.246 -1.3034  2.1903  3.0549
  626MOL0     H82607   6.945   6.335  -0.177  1.8054  0.6691  1.5350
  626MOL0     H82608   6.893   6.204  -0.397 -1.2881  0.8337  1.7612
  626MOL0     H82609   7.051   6.257  -0.457  0.8163 -0.0281  0.6147
  626MOL0     H82610   6.821   6.425  -0.353  1.2560 -2.1388  1.9236
  626MOL0     H82611   6.976   6.486  -0.410  1.2038 -0.9229  1.4155
  626MOL0     H82612   6.914   6.365  -0.636 -0.0732  0.0191 -0.1549
  626MOL0     H82613   6.807   6.507  -0.593 -0.4173  0.2636  0.0467
  626MOL0     H82614   7.413   5.849   0.074 -1.1757  0.4063  0.6682
  626MOL0     H82615   7.627   5.824   0.171 -1.2905 -0.2526 -1.6868
  626MOL0     H82616   7.788   5.476   0.593  1.2210 -1.6817 -0.8851
  626MOL0     H82617   7.981   5.431   0.765  4.4939  1.1416  2.3028
  626MOL0     H82618   9.832   5.129   1.232  1.8427 -0.5814  2.8527
  626MOL0     H82619   9.981   5.227   1.417  2.3915  0.0213  0.7822
  626MOL0     H82620  10.350   5.750   1.398  1.0868  0.6246 -0.5746
  626MOL0     H82621  10.584   5.785   1.420 -0.3831 -0.1307 -0.1189
  626MOL0     H82622  10.763   5.758   1.636  1.1451 -2.4329  2.0036
  626MOL0     H82623  10.812   5.785   1.464  1.0670  1.1586  0.2672
  626MOL0     H82624  11.015   5.658   1.506 -1.9881 -4.8938  1.9602
  626MOL0     H82625  10.999   5.812   1.604  2.4187 -0.3817 -1.8457
  626MOL0     H82626  10.905   5.544   1.704 -1.8255  0.4270 -2.0488
  626MOL0     H82627  10.965   5.671   1.815  0.3724  1.4183 -0.8606
  626MOL0     H82628  11.114   5.460   1.795  1.2749 -0.2161 -0.2215
  626MOL0     H82629  11.159   5.522   1.637  2.8969  2.2249 -0.2333
  626MOL0     H82630  11.390   5.800   1.826 -0.3807  0.6815  2.0786
  626MOL0     H82631  10.648   5.367   1.489  0.3345  0.1742 -1.0232
  626MOL0     H82632  10.413   5.330   1.445 -2.1077  1.6677 -2.0381
  627MOL0     O82633   8.806   8.059   5.368  0.6297 -0.7960 -0.2922
  627MOL0     C82634   8.889   7.995   5.312  0.4534  0.7285  1.2316
  627MOL0     O82635   8.877   7.935   5.177  0.5493  0.3412  0.2759
  627MOL0     C82636   8.763   7.952   5.097  0.6159  0.6711 -0.7354
  627MOL0     C82637   8.673   8.055   5.110 -0.7260  0.5667 -0.4548
  627MOL0     C82638   8.550   8.046   5.046  0.4713  0.1973  0.8770
  627MOL0     C82639   8.540   7.949   4.931  0.2481  0.6101 -1.0765
  627MOL0     O82640   8.423   7.943   4.855 -0.5463 -0.0341 -1.1870
  627MOL0     C82641   8.431   7.982   4.717 -0.3866  0.5132 -0.0091
  627MOL0     C82642   8.412   7.866   4.622  0.0132 -0.7942  0.0011
  627MOL0     C82643   8.280   7.802   4.631  0.2235  0.6107 -0.3755
  627MOL0     C82644   8.159   7.884   4.584 -0.7681 -0.0275  0.8534
  627MOL0     C82645   8.035   7.797   4.592 -0.8308  0.0778 -0.1184
  627MOL0     C82646   7.902   7.873   4.592 -0.4141  0.0945  0.7935
  627MOL0     C82647   7.785   7.776   4.587  0.2431  0.8025  0.7043
  627MOL0     C82648   7.662   7.861   4.596  0.1243  0.5095  0.2560
  627MOL0     N82649   7.552   7.772   4.567 -0.2355 -0.0557 -0.2025
  627MOL0     C82650   7.502   7.669   4.639 -0.8426  0.0369  0.6077
  627MOL0     C82651   7.401   7.624   4.550 -1.1705 -0.1113 -0.4765
  627MOL0     C82652   7.339   7.486   4.589 -0.1784  0.0541  1.9260
  627MOL0     C82653   7.251   7.518   4.711 -0.5804 -0.3475 -0.2685
  627MOL0     C82654   7.193   7.383   4.760 -0.1212  0.5889 -1.0614
  627MOL0     C82655   7.055   7.354   4.707  0.6261  0.4095 -0.4642
  627MOL0     O82656   7.002   7.243   4.777 -0.0877  0.1184  0.2069
  627MOL0     C82657   6.864   7.226   4.768 -0.5948 -0.3524 -0.4329
  627MOL0     C82658   6.788   7.256   4.651 -0.0604 -0.3711 -0.7043
  627MOL0     C82659   6.649   7.239   4.648  0.1082 -0.2533  0.8832
  627MOL0     C82660   6.581   7.179   4.752 -0.0084  0.6728  0.4526
  627MOL0     C82661   6.434   7.151   4.740  0.9174 -0.3755  0.2680
  627MOL0     O82662   6.364   7.098   4.856  0.5331 -0.2576  0.2003
  627MOL0     C82663   6.234   7.059   4.846  0.1613 -0.0797  0.2162
  627MOL0     C82664   6.138   7.100   4.939 -0.3772 -0.0754 -0.5483
  627MOL0     C82665   6.005   7.065   4.919  0.2299  0.8288 -0.5348
  627MOL0     C82666   5.959   6.989   4.803  0.0865  1.5878  0.3196
  627MOL0     O82667   5.826   6.953   4.775 -0.0508 -0.1214 -0.7228
  627MOL0     C82668   5.724   6.970   4.870  0.7677 -0.1909  0.2331
  627MOL0     C82669   5.598   6.905   4.819 -0.1610  1.4315 -0.1726
  627MOL0     C82670   5.462   6.935   4.898  0.3311  0.2792  0.2210
  627MOL0     C82671   5.405   7.073   4.860 -1.7201 -0.1326 -0.4609
  627MOL0     C82672   5.256   7.094   4.906 -0.1003  0.8598 -0.3162
  627MOL0     C82673   5.175   7.023   4.804  0.6726  0.9799  0.1070
  627MOL0     C82674   5.031   7.062   4.807  0.8248 -0.5086  0.4155
  627MOL0     C82675   4.968   6.973   4.704 -0.3636 -0.0410 -0.8707
  627MOL0    Cl82676   4.794   7.015   4.722 -0.1927 -0.3309  0.0802
  627MOL0     C82677   6.056   6.936   4.713 -0.8713 -1.0305 -0.0584
  627MOL0     C82678   6.189   6.980   4.733 -0.1989 -0.3917  0.4614
  627MOL0     O82679   6.379   7.176   4.635 -0.2022 -0.3793  0.2138
  627MOL0     C82680   6.654   7.141   4.867  0.1553 -0.7602  0.2148
  627MOL0     C82681   6.786   7.179   4.880 -1.0724 -0.4263  0.0104
  627MOL0     N82682   7.394   7.704   4.446 -0.2933  0.1123  0.5949
  627MOL0     N82683   7.484   7.797   4.455  0.5982  0.3544 -0.5879
  627MOL0     C82684   8.649   7.856   4.908 -0.3764 -0.3682  0.2858
  627MOL0     C82685   8.749   7.856   4.997  0.7822  0.8994 -0.2136
  627MOL0     C82686   9.012   7.954   5.386 -0.2646 -0.1302  0.2414
  627MOL0     C82687   9.049   8.022   5.507 -0.4386  0.1645  0.3118
  627MOL0     C82688   9.162   8.000   5.575 -0.3312 -0.0725 -0.5706
  627MOL0     C82689   9.251   7.902   5.527  0.2180  0.1158  0.9172
  627MOL0     O82690   9.367   7.886   5.598 -0.0316 -0.3479  0.4713
  627MOL0     C82691   9.466   7.802   5.540 -0.3584  0.0832 -0.6226
  627MOL0     C82692   9.598   7.809   5.618  0.5724 -0.0416  0.0528
  627MOL0     C82693   9.730   7.779   5.541  0.5360  0.6259 -0.4245
  627MOL0     C82694   9.859   7.821   5.609 -0.0186  0.2741  0.3245
  627MOL0     C82695   9.887   7.757   5.735 -0.4048 -0.1783  0.0568
  627MOL0     C82696   9.896   7.703   5.846  0.6549 -0.8845 -0.4816
  627MOL0     C82697   9.214   7.834   5.411  0.6238 -0.0634 -0.9416
  627MOL0     C82698   9.095   7.854   5.343 -0.5622  0.5034  0.8484
  627MOL0     H82699   8.690   8.135   5.182  0.8795 -0.3338  0.2186
  627MOL0     H82700   8.474   8.123   5.041 -1.2690 -1.4985 -0.2839
  627MOL0     H82701   8.527   8.030   4.696 -0.4256  1.7597  2.3215
  627MOL0     H82702   8.360   8.065   4.701  1.4132  2.0728 -0.2611
  627MOL0     H82703   8.489   7.790   4.640 -0.6906 -1.8779 -1.4282
  627MOL0     H82704   8.426   7.911   4.524 -0.1515  1.4977  0.9573
  627MOL0     H82705   8.274   7.761   4.732 -1.5768 -0.1398 -0.7402
  627MOL0     H82706   8.276   7.718   4.560 -2.0577  1.6561 -1.5931
  627MOL0     H82707   8.140   7.972   4.647 -0.3648  0.1399  0.7441
  627MOL0     H82708   8.164   7.924   4.482  0.9011 -1.8608  0.1680
  627MOL0     H82709   8.042   7.737   4.683  0.7979 -1.7007 -1.3250
  627MOL0     H82710   8.048   7.719   4.515 -1.6942 -1.4539  1.2277
  627MOL0     H82711   7.901   7.947   4.511  0.5048 -0.7263 -0.0006
  627MOL0     H82712   7.887   7.926   4.687 -0.2036  1.2839  0.1816
  627MOL0     H82713   7.790   7.715   4.496  0.1565  1.6613  0.1090
  627MOL0     H82714   7.789   7.717   4.679 -3.3466  1.0595  1.1507
  627MOL0     H82715   7.666   7.943   4.524 -4.0158 -0.1733 -1.0402
  627MOL0     H82716   7.655   7.899   4.699  1.0797  0.6428  0.2801
  627MOL0     H82717   7.523   7.622   4.735 -3.4737 -2.7594 -0.0099
  627MOL0     H82718   7.424   7.420   4.608 -0.1000 -1.1861 -1.8691
  627MOL0     H82719   7.279   7.447   4.506  1.6651  1.6344 -0.2878
  627MOL0     H82720   7.173   7.588   4.679 -0.2651 -0.5995 -1.6364
  627MOL0     H82721   7.304   7.565   4.795 -1.6445  3.1554 -1.3695
  627MOL0     H82722   7.270   7.307   4.751  2.1743  2.7359 -0.6830
  627MOL0     H82723   7.188   7.393   4.869  1.1042 -1.5607 -0.7675
  627MOL0     H82724   7.065   7.335   4.600 -2.2369  0.7138 -0.8637
  627MOL0     H82725   6.979   7.433   4.707 -1.1126 -0.9670  3.5515
  627MOL0     H82726   6.837   7.300   4.564  0.0286  0.8711 -0.0524
  627MOL0     H82727   6.592   7.283   4.566  3.4299  2.0884 -0.4144
  627MOL0     H82728   6.157   7.164   5.025 -1.2245 -0.8353  0.2290
  627MOL0     H82729   5.924   7.090   4.987  1.4705  0.6518  1.0712
  627MOL0     H82730   5.726   7.079   4.882  2.0921 -0.4361  2.9670
  627MOL0     H82731   5.757   6.928   4.965  0.3030 -0.4892  0.2679
  627MOL0     H82732   5.603   6.797   4.832 -0.1827  0.9513 -3.2976
  627MOL0     H82733   5.585   6.910   4.710  0.1620 -0.6928 -0.3424
  627MOL0     H82734   5.480   6.942   5.006 -0.9368  3.1574  0.3343
  627MOL0     H82735   5.386   6.857   4.889  0.7046 -0.3328  1.9272
  627MOL0     H82736   5.466   7.155   4.901 -0.4602 -0.9183 -0.7027
  627MOL0     H82737   5.422   7.084   4.752 -1.2564 -0.4846 -0.4266
  627MOL0     H82738   5.232   7.200   4.917  1.0805  0.9528  1.9803
  627MOL0     H82739   5.238   7.044   5.002  0.9074 -0.1532 -0.6287
  627MOL0     H82740   5.192   6.915   4.809 -3.1481  0.1877 -0.4978
  627MOL0     H82741   5.220   7.059   4.711  0.4527  1.0887  0.0430
  627MOL0     H82742   4.988   7.061   4.908  1.3381  2.4074  0.7372
  627MOL0     H82743   5.032   7.164   4.767  2.7331 -0.6334  0.0461
  627MOL0     H82744   4.978   6.868   4.734  1.6560  0.2220 -0.4738
  627MOL0     H82745   5.008   6.992   4.604  0.0144 -0.3342 -0.7822
  627MOL0     H82746   6.039   6.848   4.653 -1.9341  0.2931 -1.8026
  627MOL0     H82747   6.256   6.939   4.658  0.0138 -2.6121  1.8029
  627MOL0     H82748   6.611   7.089   4.952  0.5018 -0.6567  0.4543
  627MOL0     H82749   6.838   7.161   4.973  0.0483 -1.3885 -0.7639
  627MOL0     H82750   8.651   7.793   4.820  2.3035 -1.0747  0.7550
  627MOL0     H82751   8.818   7.773   5.009 -1.1745 -0.5832  1.4659
  627MOL0     H82752   8.979   8.096   5.543  2.5031  1.9996  2.7533
  627MOL0     H82753   9.176   8.046   5.672  3.5988  1.0055 -1.4754
  627MOL0     H82754   9.488   7.841   5.440  1.1716 -0.9071 -0.7083
  627MOL0     H82755   9.436   7.699   5.516 -0.3870 -0.2230  0.6544
  627MOL0     H82756   9.621   7.909   5.658 -1.3445 -0.1193  1.4672
  627MOL0     H82757   9.589   7.746   5.707  0.2252 -0.3644 -0.2098
  627MOL0     H82758   9.715   7.829   5.445  3.2885  1.9007 -0.2720
  627MOL0     H82759   9.734   7.674   5.513  1.5147  0.2989  0.8381
  627MOL0     H82760   9.938   7.785   5.543  0.2169  0.7127  0.3611
  627MOL0     H82761   9.869   7.930   5.617 -2.4328  0.5242  0.6482
  627MOL0     H82762   9.900   7.642   5.934  1.3917 -1.8198 -1.1415
  627MOL0     H82763   9.271   7.756   5.361  0.7236 -1.2918  1.0081
  627MOL0     H82764   9.054   7.794   5.262 -0.7114  1.9637 -0.1928
  628MOL0     O82765  10.124   8.104   4.028  0.6196  0.5484 -0.7185
  628MOL0     C82766  10.105   8.214   3.986  0.1154  0.4598  0.1650
  628MOL0     O82767  10.194   8.302   3.931 -0.5163 -0.0729 -0.3693
  628MOL0     C82768  10.332   8.284   3.928  0.1153 -0.9316  0.3618
  628MOL0     C82769  10.398   8.404   3.958 -0.4281 -0.8274  0.1935
  628MOL0     C82770  10.540   8.408   3.951 -0.1266 -0.2667 -0.0354
  628MOL0     C82771  10.610   8.295   3.910  0.9025 -0.3084  0.2735
  628MOL0     O82772  10.746   8.310   3.902  0.4377 -0.2127 -0.2377
  628MOL0     C82773  10.805   8.258   3.786  0.3027  0.2211  0.2585
  628MOL0     C82774  10.953   8.289   3.792 -0.0509  0.1656  1.2801
  628MOL0     C82775  11.027   8.227   3.915 -0.4747 -0.5912  0.1057
  628MOL0     C82776  11.172   8.277   3.901  0.4638 -0.2204 -1.3606
  628MOL0     C82777  11.267   8.194   4.002  0.5504 -0.0565  0.4599
  628MOL0     C82778  11.251   8.225   4.153  0.0504  0.6230 -0.2422
  628MOL0     C82779  11.265   8.379   4.187 -0.3651  0.0059  0.1176
  628MOL0     C82780  11.294   8.395   4.344 -0.9962 -1.4491  0.0456
  628MOL0     N82781  11.209   8.331   4.441  0.9392  0.5277  0.1874
  628MOL0     C82782  11.089   8.378   4.467  0.2871 -0.8318  1.1324
  628MOL0     C82783  11.029   8.281   4.543  1.1196 -0.7961 -1.1147
  628MOL0     C82784  10.894   8.293   4.615 -0.5383 -0.0587  0.0653
  628MOL0     C82785  10.931   8.287   4.764  1.4705 -0.1958  0.1659
  628MOL0     C82786  10.810   8.280   4.858 -0.1846  0.2481 -0.1346
  628MOL0     C82787  10.705   8.389   4.838  0.5623 -0.8131 -0.1765
  628MOL0     O82788  10.605   8.370   4.936  0.0113 -0.3205 -0.0654
  628MOL0     C82789  10.482   8.437   4.928 -0.8816 -0.4565  0.0046
  628MOL0     C82790  10.460   8.549   4.848  0.6392  0.2305  0.6876
  628MOL0     C82791  10.335   8.603   4.824  0.3135  0.8147 -0.1866
  628MOL0     C82792  10.229   8.548   4.893  0.4493  1.5214 -0.2850
  628MOL0     C82793  10.093   8.598   4.851 -0.1848  0.7906  0.5676
  628MOL0     O82794  10.091   8.689   4.749  1.0336  0.0762 -0.5004
  628MOL0     C82795   9.971   8.754   4.734 -0.2686 -0.7706 -1.0075
  628MOL0     C82796   9.950   8.873   4.799  0.1705  0.9931 -0.4015
  628MOL0     C82797   9.838   8.943   4.779 -0.3346 -0.5148  0.2321
  628MOL0     C82798   9.736   8.891   4.698  0.8360 -1.0325  0.4577
  628MOL0     O82799   9.622   8.954   4.664  0.4366  0.2281 -0.2861
  628MOL0     C82800   9.630   9.101   4.657  0.6724 -0.3699  0.3252
  628MOL0     C82801   9.501   9.157   4.603 -1.1147 -0.1269 -0.0810
  628MOL0     C82802   9.475   9.133   4.462  0.9490  0.4581  0.4414
  628MOL0     C82803   9.335   9.186   4.425 -0.4211 -0.5518 -0.2991
  628MOL0     C82804   9.225   9.080   4.455 -0.0112 -0.1762 -0.6376
  628MOL0     C82805   9.077   9.107   4.435 -0.0908 -0.1765  0.6972
  628MOL0     C82806   8.988   8.990   4.461 -0.5899 -0.5656  0.5954
  628MOL0     C82807   8.849   9.024   4.427 -0.2594 -0.7543  0.0744
  628MOL0    Cl82808   8.809   9.177   4.513  0.0969 -0.2914  0.3173
  628MOL0     C82809   9.750   8.772   4.634 -0.4399 -0.6073  0.7368
  628MOL0     C82810   9.870   8.695   4.651 -0.0764 -0.0765  0.4778
  628MOL0     O82811   9.994   8.557   4.915 -0.4670  0.4082 -0.5805
  628MOL0     C82812  10.246   8.433   4.970  0.7593 -0.0270 -0.6782
  628MOL0     C82813  10.370   8.382   4.988 -0.8248  0.7479 -0.2814
  628MOL0     N82814  11.115   8.172   4.555  0.2976 -0.2008 -0.2020
  628MOL0     N82815  11.219   8.196   4.484 -0.8174 -0.9205  0.1264
  628MOL0     C82816  10.542   8.176   3.883  0.6442  0.2251 -0.7934
  628MOL0     C82817  10.402   8.174   3.891 -0.7780  0.4146  0.0977
  628MOL0     C82818   9.958   8.265   3.979 -0.6263  0.9912  0.3106
  628MOL0     C82819   9.930   8.393   3.933 -0.6604 -0.6057 -0.6161
  628MOL0     C82820   9.798   8.431   3.907 -0.7616  0.1460 -0.4719
  628MOL0     C82821   9.687   8.356   3.941  0.2045 -0.1693 -0.0872
  628MOL0     O82822   9.566   8.411   3.928  0.0856 -0.2066  0.2827
  628MOL0     C82823   9.447   8.376   4.000 -0.3496 -0.0318 -0.5187
  628MOL0     C82824   9.433   8.473   4.126  0.2077 -0.3296  0.8045
  628MOL0     C82825   9.550   8.450   4.217 -0.4820 -0.4525  0.2313
  628MOL0     C82826   9.513   8.458   4.368  0.6171  0.4509  0.4134
  628MOL0     C82827   9.437   8.580   4.390 -0.1984  0.4332 -0.0910
  628MOL0     C82828   9.382   8.689   4.407 -0.2330 -0.2605  0.0657
  628MOL0     C82829   9.718   8.226   3.990  0.0251 -0.5566  0.1273
  628MOL0     C82830   9.851   8.174   4.006 -0.2020  0.0791 -0.9484
  628MOL0     H82831  10.346   8.495   3.987 -2.2931 -1.1047 -1.9605
  628MOL0     H82832  10.581   8.507   3.969 -2.6550  0.6957  0.9228
  628MOL0     H82833  10.773   8.299   3.690  0.7516  1.3425  0.5751
  628MOL0     H82834  10.809   8.150   3.767  2.6706  0.6182 -2.1117
  628MOL0     H82835  10.957   8.398   3.802  2.0240  0.1771  0.8476
  628MOL0     H82836  10.996   8.244   3.702  2.2627  0.3239  2.2424
  628MOL0     H82837  11.026   8.118   3.911  2.6556 -0.6962 -1.1502
  628MOL0     H82838  10.982   8.263   4.008  2.0710 -0.4911  1.3893
  628MOL0     H82839  11.205   8.253   3.800  0.2674 -3.4298 -0.7709
  628MOL0     H82840  11.183   8.383   3.925 -2.5138 -0.5400  2.5321
  628MOL0     H82841  11.366   8.232   3.978 -0.1365 -0.5953 -4.1848
  628MOL0     H82842  11.266   8.086   3.984  0.7175  0.2563 -1.7797
  628MOL0     H82843  11.318   8.157   4.207 -1.7459 -0.2292  1.0110
  628MOL0     H82844  11.148   8.202   4.183 -0.8019  3.8759 -0.2992
  628MOL0     H82845  11.351   8.420   4.134  0.3365  0.7285  1.7815
  628MOL0     H82846  11.168   8.425   4.166 -1.9309 -2.1779  1.9876
  628MOL0     H82847  11.288   8.501   4.370  2.2508 -1.4034  1.0132
  628MOL0     H82848  11.398   8.368   4.364 -0.7033 -0.3485  0.0466
  628MOL0     H82849  11.042   8.473   4.441 -0.6156 -1.1280  1.6374
  628MOL0     H82850  10.819   8.216   4.596 -2.0635  0.7225  2.5052
  628MOL0     H82851  10.846   8.387   4.586 -0.1952 -0.7703 -3.2065
  628MOL0     H82852  10.991   8.376   4.783 -0.7178  1.6609 -1.1287
  628MOL0     H82853  10.995   8.201   4.785  1.1784 -0.7289 -1.0408
  628MOL0     H82854  10.765   8.181   4.849  0.4633 -0.0818  0.1574
  628MOL0     H82855  10.847   8.290   4.961  0.0047  1.0966 -0.2754
  628MOL0     H82856  10.662   8.369   4.739 -0.4385  1.8403 -0.3550
  628MOL0     H82857  10.738   8.493   4.844 -3.5308  0.6750  0.1810
  628MOL0     H82858  10.537   8.593   4.786  1.1032 -2.7847 -1.0664
  628MOL0     H82859  10.332   8.688   4.757  2.2488 -1.0737 -2.8849
  628MOL0     H82860  10.016   8.913   4.875 -1.1386 -0.1120  1.4022
  628MOL0     H82861   9.823   9.041   4.823  0.8789  0.4006 -1.3010
  628MOL0     H82862   9.711   9.135   4.592 -0.5543 -0.8676 -1.5398
  628MOL0     H82863   9.647   9.140   4.758  0.1509 -1.2537  0.7625
  628MOL0     H82864   9.501   9.264   4.627 -1.3997  0.2311 -1.6079
  628MOL0     H82865   9.420   9.122   4.668 -0.4995  0.8364  1.2581
  628MOL0     H82866   9.484   9.025   4.444 -0.8075  0.1309  1.2767
  628MOL0     H82867   9.548   9.181   4.396  1.6020  0.4815  1.1642
  628MOL0     H82868   9.328   9.276   4.487  1.3571  2.5296 -4.1684
  628MOL0     H82869   9.329   9.218   4.321 -0.9202  2.4915  0.5591
  628MOL0     H82870   9.240   9.045   4.558  1.5362 -1.5043 -1.2689
  628MOL0     H82871   9.244   8.993   4.392  0.4099 -1.0791  0.6838
  628MOL0     H82872   9.054   9.132   4.331 -0.4601  0.6080  0.9562
  628MOL0     H82873   9.053   9.197   4.493  0.8163  1.5053 -1.4116
  628MOL0     H82874   9.034   8.918   4.393  0.6384  0.8312 -0.1158
  628MOL0     H82875   8.997   8.966   4.568  3.8671 -0.8203  0.3796
  628MOL0     H82876   8.777   8.947   4.454 -0.6736 -0.8179 -1.1426
  628MOL0     H82877   8.847   9.037   4.318  1.3051 -3.0252 -0.3083
  628MOL0     H82878   9.680   8.742   4.556 -0.6326  2.1432 -0.2763
  628MOL0     H82879   9.878   8.600   4.599  0.5085 -0.4846  1.2950
  628MOL0     H82880  10.160   8.392   5.022  0.1289  0.5173 -1.2729
  628MOL0     H82881  10.370   8.296   5.055 -2.2683 -0.1475 -1.3722
  628MOL0     H82882  10.607   8.094   3.855  1.5666  0.6656 -0.0146
  628MOL0     H82883  10.348   8.091   3.847 -1.7046  1.1328 -0.1315
  628MOL0     H82884  10.004   8.466   3.903 -0.1982 -0.7168  0.2215
  628MOL0     H82885   9.789   8.535   3.876 -2.7076  1.0494  2.6562
  628MOL0     H82886   9.447   8.272   4.032  2.0697 -0.1377 -0.6980
  628MOL0     H82887   9.358   8.393   3.938  0.0392 -0.0646 -1.0853
  628MOL0     H82888   9.418   8.575   4.091 -1.7265 -0.9867 -0.4683
  628MOL0     H82889   9.335   8.464   4.172 -0.1075 -1.7328 -0.0637
  628MOL0     H82890   9.629   8.525   4.203 -0.9003  0.7947  3.5221
  628MOL0     H82891   9.601   8.356   4.195 -0.3326 -0.4999  0.7457
  628MOL0     H82892   9.449   8.378   4.407  2.7697 -1.3571  0.4172
  628MOL0     H82893   9.598   8.453   4.436 -0.3061 -1.5178  1.5362
  628MOL0     H82894   9.321   8.777   4.403 -0.5149 -0.4981 -1.0319
  628MOL0     H82895   9.634   8.164   4.018 -0.2542 -0.4919 -0.5574
  628MOL0     H82896   9.871   8.072   4.039 -3.7163  0.1572  2.1632
  629MOL0     O82897   9.458   3.677   0.787  0.0160  0.1922  1.0308
  629MOL0     C82898   9.453   3.797   0.760  0.7024 -0.3406  0.4382
  629MOL0     O82899   9.343   3.871   0.782  0.3493  0.0750 -0.0903
  629MOL0     C82900   9.244   3.798   0.843 -0.3102  0.0112 -0.0492
  629MOL0     C82901   9.163   3.697   0.784  0.7064  0.1507  0.6200
  629MOL0     C82902   9.060   3.634   0.858 -0.2993 -0.5593 -0.4010
  629MOL0     C82903   9.027   3.678   0.988  0.8410  0.5406 -0.2568
  629MOL0     O82904   8.914   3.610   1.043 -0.2482 -0.3991 -0.1687
  629MOL0     C82905   8.846   3.687   1.145 -1.0491  0.3626  0.1034
  629MOL0     C82906   8.741   3.584   1.188 -0.5811  0.2623  0.9552
  629MOL0     C82907   8.650   3.629   1.302 -0.2239  0.1467  0.1113
  629MOL0     C82908   8.556   3.744   1.269 -0.0378 -0.6489 -0.1451
  629MOL0     C82909   8.444   3.773   1.372 -0.0838  0.3024 -0.6232
  629MOL0     C82910   8.349   3.657   1.388  0.3089  0.4625  0.5710
  629MOL0     C82911   8.212   3.700   1.431  0.7101  0.2089 -0.4711
  629MOL0     C82912   8.112   3.587   1.476  0.2026  0.2479  0.4843
  629MOL0     N82913   8.007   3.630   1.574 -0.0566 -0.9376 -0.3647
  629MOL0     C82914   7.987   3.752   1.640  0.0738 -0.0213  0.1015
  629MOL0     C82915   7.878   3.717   1.720  0.1499 -0.4140 -0.1286
  629MOL0     C82916   7.822   3.808   1.825  0.2153 -0.2404  0.6344
  629MOL0     C82917   7.733   3.913   1.758  0.1559  0.6402  0.4260
  629MOL0     C82918   7.623   3.867   1.667 -0.2952  0.2411  0.2106
  629MOL0     C82919   7.529   3.764   1.729 -0.3317 -0.1037 -0.6881
  629MOL0     O82920   7.410   3.765   1.644 -0.4446 -0.0905  0.1742
  629MOL0     C82921   7.289   3.695   1.671 -0.8100  0.0325 -0.0322
  629MOL0     C82922   7.251   3.654   1.801  0.5386  0.1132 -0.5912
  629MOL0     C82923   7.129   3.587   1.818 -0.3679 -0.2632 -0.5301
  629MOL0     C82924   7.041   3.566   1.711  0.3094  0.9398  0.3497
  629MOL0     C82925   6.906   3.508   1.728 -0.3726  0.7801 -0.5106
  629MOL0     O82926   6.824   3.485   1.621  0.0103 -0.4206  0.1374
  629MOL0     C82927   6.701   3.419   1.630  0.9086  0.3980 -0.3223
  629MOL0     C82928   6.614   3.400   1.739 -0.0117 -0.2962  1.0299
  629MOL0     C82929   6.488   3.337   1.721 -0.5784 -0.2421  0.6826
  629MOL0     C82930   6.441   3.299   1.589 -0.1422 -0.6609  0.1869
  629MOL0     O82931   6.324   3.231   1.562  0.3439 -0.2750 -0.1654
  629MOL0     C82932   6.215   3.235   1.660 -0.4718 -0.1722  0.3596
  629MOL0     C82933   6.084   3.189   1.598  0.9520  1.0790 -0.2374
  629MOL0     C82934   5.991   3.132   1.700 -0.1325 -0.1077  0.8293
  629MOL0     C82935   5.841   3.121   1.651 -0.4532 -0.1811 -0.4772
  629MOL0     C82936   5.817   3.015   1.546 -0.4443  0.5058  0.4622
  629MOL0     C82937   5.683   2.950   1.547  0.2094  0.8810 -0.2750
  629MOL0     C82938   5.568   3.051   1.514  0.9394  1.5346  0.2475
  629MOL0     C82939   5.476   2.963   1.430  0.1221 -0.4603  0.4453
  629MOL0    Cl82940   5.397   2.834   1.521  0.1609 -0.2445  0.1925
  629MOL0     C82941   6.527   3.315   1.485  0.5657 -0.1866 -0.4401
  629MOL0     C82942   6.649   3.376   1.504  0.1279  0.8040  0.0373
  629MOL0     O82943   6.874   3.482   1.849 -0.6119 -0.3609 -0.1210
  629MOL0     C82944   7.080   3.622   1.581 -0.3374 -0.8849  0.4248
  629MOL0     C82945   7.205   3.679   1.564 -0.4669  0.3007  0.1660
  629MOL0     N82946   7.840   3.582   1.699 -1.1824 -0.6510 -0.3921
  629MOL0     N82947   7.928   3.532   1.618 -0.1610  1.1193  0.3913
  629MOL0     C82948   9.105   3.783   1.041 -0.0209  0.2027 -0.1155
  629MOL0     C82949   9.216   3.834   0.972  0.5074 -0.7086 -0.1047
  629MOL0     C82950   9.572   3.866   0.707 -0.2903  0.2150 -0.4499
  629MOL0     C82951   9.686   3.791   0.672 -0.3387 -0.2587  0.1717
  629MOL0     C82952   9.793   3.852   0.618 -0.0600 -0.1783 -0.7809
  629MOL0     C82953   9.801   3.991   0.614  1.2690  0.2701  0.3502
  629MOL0     O82954   9.914   4.040   0.558 -0.4970 -0.6061 -0.8896
  629MOL0     C82955  10.039   4.000   0.624 -0.0946 -0.7605 -1.2211
  629MOL0     C82956  10.117   4.127   0.631  0.3430  0.8021 -0.1828
  629MOL0     C82957  10.217   4.142   0.746  0.5409 -0.8125 -0.6516
  629MOL0     C82958  10.294   4.278   0.743 -0.0597  0.1094 -0.6530
  629MOL0     C82959  10.188   4.372   0.755 -0.3293  0.1509 -0.5381
  629MOL0     C82960  10.103   4.455   0.767 -0.3500  0.1125 -0.4168
  629MOL0     C82961   9.692   4.073   0.654  0.1722  0.1401 -0.5503
  629MOL0     C82962   9.573   4.005   0.691 -0.0093 -0.0318 -1.4179
  629MOL0     H82963   9.187   3.659   0.685 -0.1630 -0.1580  0.5207
  629MOL0     H82964   8.998   3.557   0.815  0.2536 -1.5218  0.4702
  629MOL0     H82965   8.794   3.776   1.111 -3.0449 -1.7710 -2.9079
  629MOL0     H82966   8.913   3.709   1.229 -2.2162 -0.6234  1.3413
  629MOL0     H82967   8.786   3.489   1.219  0.8546  1.4682  2.8154
  629MOL0     H82968   8.666   3.579   1.109 -1.5981  0.5768  1.8773
  629MOL0     H82969   8.717   3.666   1.381 -1.1695  3.5803 -0.5184
  629MOL0     H82970   8.594   3.544   1.341  1.0085 -0.4663  0.6029
  629MOL0     H82971   8.619   3.832   1.259  1.1729 -1.3419  1.0393
  629MOL0     H82972   8.508   3.718   1.174  0.1125  1.0888 -0.7259
  629MOL0     H82973   8.400   3.867   1.336  2.3615  2.2207  1.0404
  629MOL0     H82974   8.494   3.794   1.468  1.1832 -2.0387 -0.7172
  629MOL0     H82975   8.404   3.596   1.460 -0.7636  0.7670  1.6843
  629MOL0     H82976   8.344   3.606   1.291 -0.1618 -0.0504  0.8557
  629MOL0     H82977   8.222   3.785   1.500  0.1348  1.5259 -1.9663
  629MOL0     H82978   8.169   3.739   1.339  0.5245 -3.4584 -2.1046
  629MOL0     H82979   8.174   3.514   1.528  3.6872  2.0778 -0.7818
  629MOL0     H82980   8.066   3.536   1.391  2.2806 -0.6362 -0.1597
  629MOL0     H82981   8.032   3.851   1.648  0.5239 -0.1688 -0.5339
  629MOL0     H82982   7.904   3.859   1.876 -0.9686 -1.3528  3.8442
  629MOL0     H82983   7.774   3.747   1.902  1.4198 -3.0716 -0.7125
  629MOL0     H82984   7.788   3.987   1.699  1.9477 -1.1136 -0.2032
  629MOL0     H82985   7.688   3.967   1.842  3.9782  2.6047  1.4717
  629MOL0     H82986   7.560   3.955   1.655 -0.8830 -0.1708  0.1921
  629MOL0     H82987   7.669   3.837   1.572  1.3404  2.1020  0.3673
  629MOL0     H82988   7.494   3.811   1.821 -0.5541  0.7683 -1.1978
  629MOL0     H82989   7.570   3.665   1.753  3.1507  1.1129 -1.0499
  629MOL0     H82990   7.313   3.684   1.885  1.7815  1.6407 -1.9740
  629MOL0     H82991   7.093   3.550   1.913  1.0400 -2.1039 -0.6668
  629MOL0     H82992   6.634   3.445   1.835  0.0312 -1.3894  1.5493
  629MOL0     H82993   6.425   3.320   1.807 -0.9039  2.4260  1.0597
  629MOL0     H82994   6.218   3.339   1.696 -0.2419 -0.0731  0.0593
  629MOL0     H82995   6.245   3.158   1.731 -1.6553 -0.7477  0.2677
  629MOL0     H82996   6.109   3.118   1.518 -1.1261 -0.2629  0.2251
  629MOL0     H82997   6.037   3.265   1.536 -1.7724  0.7194  1.2423
  629MOL0     H82998   5.994   3.202   1.784 -0.4025 -0.4755  1.1466
  629MOL0     H82999   6.038   3.040   1.736 -0.1115 -0.1496  0.6961
  629MOL0     H83000   5.791   3.107   1.747  3.0424  0.4052  1.6201
  629MOL0     H83001   5.813   3.220   1.612 -0.0485 -0.3449 -1.2120
  629MOL0     H83002   5.889   2.934   1.559 -0.4887 -0.0511 -2.1584
  629MOL0     H83003   5.847   3.047   1.445  0.6633 -1.0176  0.2601
  629MOL0     H83004   5.669   2.909   1.647  1.5947  0.3555 -0.2671
  629MOL0     H83005   5.686   2.863   1.479  1.9302  1.1024 -0.5465
  629MOL0     H83006   5.513   3.076   1.605 -0.2986 -1.0671  0.3206
  629MOL0     H83007   5.602   3.138   1.458  0.9627 -0.3254 -2.8979
  629MOL0     H83008   5.538   2.930   1.346  1.4568 -0.0015  1.2261
  629MOL0     H83009   5.395   3.019   1.382 -2.7005 -3.3199  1.4975
  629MOL0     H83010   6.496   3.286   1.385 -2.1694 -0.7921  0.5015
  629MOL0     H83011   6.722   3.390   1.425  0.1451  1.3912  0.1503
  629MOL0     H83012   7.005   3.620   1.503 -0.5589  1.5078  0.4971
  629MOL0     H83013   7.238   3.712   1.466 -4.0298  1.1124 -0.9070
  629MOL0     H83014   9.082   3.821   1.140 -0.6810 -1.8569  0.5700
  629MOL0     H83015   9.272   3.902   1.036  2.2283 -2.2521  0.0803
  629MOL0     H83016   9.686   3.683   0.675  0.6106 -0.4082 -2.7143
  629MOL0     H83017   9.881   3.793   0.596 -1.2390 -2.3073 -0.0476
  629MOL0     H83018  10.089   3.910   0.587  1.0448 -2.1165  2.9869
  629MOL0     H83019  10.011   3.968   0.725  0.5889 -0.0621 -0.8041
  629MOL0     H83020  10.168   4.125   0.534  1.9702 -0.2126  0.6554
  629MOL0     H83021  10.048   4.212   0.627 -0.6313 -0.0077 -0.8099
  629MOL0     H83022  10.297   4.068   0.752  0.8923 -0.4380 -0.7232
  629MOL0     H83023  10.157   4.127   0.836 -0.7326 -0.6814 -1.4488
  629MOL0     H83024  10.364   4.294   0.825  0.9846  2.1067 -1.8641
  629MOL0     H83025  10.352   4.289   0.650  0.7505  2.4622  0.0624
  629MOL0     H83026  10.018   4.520   0.776 -0.3835 -0.2538  3.0838
  629MOL0     H83027   9.692   4.181   0.659 -1.0432  0.3412 -3.2861
  629MOL0     H83028   9.483   4.062   0.714  0.7755  1.3764 -1.7122
  630MOL0     O83029   1.816   6.790   4.019  0.1050  0.2719  0.7366
  630MOL0     C83030   1.888   6.747   3.930 -0.1785 -0.4397  0.2703
  630MOL0     O83031   1.859   6.747   3.790 -0.4869  0.3599  0.2954
  630MOL0     C83032   1.739   6.782   3.742 -0.2767  0.0682  0.1239
  630MOL0     C83033   1.660   6.881   3.798  0.1407  0.5006 -0.9212
  630MOL0     C83034   1.524   6.899   3.762 -0.2515  0.5710  0.6801
  630MOL0     C83035   1.465   6.800   3.676 -0.2432  0.1806  0.1585
  630MOL0     O83036   1.327   6.796   3.642 -0.2320  0.5502 -0.3220
  630MOL0     C83037   1.259   6.697   3.717  0.4362  0.7574 -0.0879
  630MOL0     C83038   1.141   6.758   3.792  0.7755 -0.2992 -0.0796
  630MOL0     C83039   1.017   6.770   3.689  0.0689  0.1632 -0.2859
  630MOL0     C83040   0.886   6.814   3.761  1.4291  0.8107 -0.3588
  630MOL0     C83041   0.768   6.848   3.668 -0.5174 -0.5064  0.5604
  630MOL0     C83042   0.631   6.850   3.734 -0.3129  1.3435 -0.1957
  630MOL0     C83043   0.518   6.904   3.645 -0.2979  0.9197  0.3765
  630MOL0     C83044   0.379   6.950   3.716 -0.8009 -0.4689  0.0434
  630MOL0     N83045   0.271   6.951   3.613  0.1456 -0.6285  0.6767
  630MOL0     C83046   0.289   7.002   3.487 -0.0596  1.2181  0.7697
  630MOL0     C83047   0.166   7.019   3.434 -0.5595  0.0559 -0.4496
  630MOL0     C83048   0.139   7.081   3.293  0.2018  0.1022 -0.1125
  630MOL0     C83049  -0.023   7.099   3.272 -0.8301 -0.4022 -0.9732
  630MOL0     C83050  -0.069   7.088   3.132 -0.2770 -0.2483  0.8912
  630MOL0     C83051  -0.203   7.162   3.119 -0.2146 -0.5866 -0.3278
  630MOL0     O83052  -0.253   7.159   2.985  0.5166  0.4616  0.4900
  630MOL0     C83053  -0.390   7.202   2.983 -0.0415 -0.9493  0.9028
  630MOL0     C83054  -0.461   7.279   3.086  0.1439 -0.6869 -0.2746
  630MOL0     C83055  -0.591   7.314   3.058 -0.1677  0.3865 -0.0019
  630MOL0     C83056  -0.657   7.283   2.943 -0.6859  0.5706 -0.1205
  630MOL0     C83057  -0.789   7.349   2.907 -0.4363  0.3613 -0.5944
  630MOL0     O83058  -0.827   7.459   2.985 -0.4014  0.4288  0.0239
  630MOL0     C83059  -0.942   7.528   2.951 -0.1922 -0.1864 -0.3371
  630MOL0     C83060  -1.008   7.582   3.063 -1.0246  0.0905  0.3233
  630MOL0     C83061  -1.125   7.653   3.045 -0.4978 -0.3960  0.0607
  630MOL0     C83062  -1.172   7.679   2.920 -0.3337 -0.3977  0.3794
  630MOL0     O83063  -1.296   7.731   2.915 -0.0078 -0.0093  0.4613
  630MOL0     C83064  -1.329   7.804   2.792 -0.0183 -0.1140 -0.6100
  630MOL0     C83065  -1.426   7.913   2.815 -0.2057  0.2594  0.6147
  630MOL0     C83066  -1.477   7.979   2.686  0.1431  0.0299  0.1028
  630MOL0     C83067  -1.594   8.071   2.710 -0.3018  0.2685 -0.0058
  630MOL0     C83068  -1.682   8.083   2.577 -0.7212 -0.5288 -1.4511
  630MOL0     C83069  -1.821   8.152   2.608 -0.4858 -0.3633  0.4848
  630MOL0     C83070  -1.933   8.066   2.641  0.9778  0.1365  0.3053
  630MOL0     C83071  -1.965   7.973   2.529 -0.3264  0.8939  0.2538
  630MOL0    Cl83072  -2.032   8.068   2.390 -0.3747 -0.0942  0.0886
  630MOL0     C83073  -1.109   7.623   2.807 -0.6799 -0.3439 -0.1217
  630MOL0     C83074  -0.990   7.559   2.828 -0.5004 -0.3238 -0.0464
  630MOL0     O83075  -0.855   7.294   2.818 -0.3890 -0.4608 -0.0116
  630MOL0     C83076  -0.593   7.203   2.849 -0.9926 -0.1309  0.6059
  630MOL0     C83077  -0.463   7.173   2.868 -1.0318  0.1242 -0.0391
  630MOL0     N83078   0.077   6.993   3.535 -0.6189 -0.6165 -0.1805
  630MOL0     N83079   0.135   6.947   3.646 -0.2844 -0.3318  0.1293
  630MOL0     C83080   1.542   6.705   3.615 -0.4757 -0.1902  0.0479
  630MOL0     C83081   1.684   6.697   3.641  0.5786 -0.1715  0.4117
  630MOL0     C83082   2.015   6.695   3.972 -0.9379 -0.5223 -1.4395
  630MOL0     C83083   2.119   6.659   3.885 -1.0973 -0.2575 -0.1142
  630MOL0     C83084   2.243   6.606   3.926  0.2008 -0.0401 -0.6784
  630MOL0     C83085   2.275   6.612   4.064 -1.2074  0.2398  1.3468
  630MOL0     O83086   2.412   6.585   4.099  0.0602 -0.2439 -0.7224
  630MOL0     C83087   2.459   6.631   4.221 -0.0795 -0.5743 -0.1298
  630MOL0     C83088   2.499   6.775   4.192  0.7530  0.9960  0.1971
  630MOL0     C83089   2.588   6.833   4.297  0.6290 -0.8917  0.9807
  630MOL0     C83090   2.640   6.964   4.247  0.2022 -0.3014  0.7345
  630MOL0     C83091   2.677   7.036   4.363 -0.0448 -0.0929 -0.1956
  630MOL0     C83092   2.716   7.079   4.470 -0.8448 -0.3922 -0.4605
  630MOL0     C83093   2.172   6.645   4.156 -0.1047 -0.1822 -0.0042
  630MOL0     C83094   2.046   6.669   4.109  0.0530  0.9276 -0.6188
  630MOL0     H83095   1.699   6.936   3.883 -0.2238 -0.8563  0.1614
  630MOL0     H83096   1.473   6.992   3.787 -3.1388 -0.4868 -0.8462
  630MOL0     H83097   1.326   6.658   3.795  1.6574  1.3901 -0.7826
  630MOL0     H83098   1.231   6.621   3.643  0.3857  1.0059 -0.3254
  630MOL0     H83099   1.174   6.855   3.830  3.6535 -0.4656 -1.8579
  630MOL0     H83100   1.115   6.683   3.868  0.4530 -1.5143 -1.3377
  630MOL0     H83101   0.999   6.681   3.629 -0.2113  1.3403 -2.0296
  630MOL0     H83102   1.048   6.849   3.619  0.7235 -0.0788 -0.2754
  630MOL0     H83103   0.841   6.750   3.838  0.7042  1.4272 -0.2518
  630MOL0     H83104   0.902   6.912   3.807 -0.0567  2.1618 -2.5399
  630MOL0     H83105   0.768   6.779   3.584  1.1944  1.1234 -0.8679
  630MOL0     H83106   0.797   6.943   3.622  0.2489  0.3230  2.6234
  630MOL0     H83107   0.636   6.896   3.833 -0.6364 -0.9059  0.9315
  630MOL0     H83108   0.617   6.743   3.748  0.6737  1.4445  1.8273
  630MOL0     H83109   0.556   6.983   3.579  2.5456 -3.5791 -4.0058
  630MOL0     H83110   0.496   6.827   3.571  2.8408  0.3348 -0.0662
  630MOL0     H83111   0.395   7.048   3.762  4.9479 -0.3276 -1.5156
  630MOL0     H83112   0.363   6.886   3.803  0.3787  1.3800  1.7165
  630MOL0     H83113   0.384   7.014   3.436  0.4764  0.4905  1.5596
  630MOL0     H83114   0.180   7.017   3.215  1.1107  0.5994 -0.0618
  630MOL0     H83115   0.185   7.178   3.269  2.3157 -0.5428  1.0823
  630MOL0     H83116  -0.056   7.195   3.312  0.5893 -0.0775 -0.5356
  630MOL0     H83117  -0.068   7.014   3.324  3.0488 -2.4231 -0.5393
  630MOL0     H83118   0.010   7.120   3.063 -1.6908  2.4884  0.3950
  630MOL0     H83119  -0.093   6.983   3.111 -0.3968 -0.5131  2.2262
  630MOL0     H83120  -0.168   7.264   3.139 -0.7511 -0.1896 -1.3398
  630MOL0     H83121  -0.275   7.121   3.191  4.0435 -1.3139  4.0030
  630MOL0     H83122  -0.412   7.328   3.170  0.6509  0.7266 -1.3657
  630MOL0     H83123  -0.641   7.359   3.143 -0.7955 -0.5395  0.1393
  630MOL0     H83124  -0.961   7.565   3.159 -0.9229 -0.0180  0.2553
  630MOL0     H83125  -1.176   7.691   3.133 -2.6508 -0.7545 -0.9711
  630MOL0     H83126  -1.372   7.725   2.730 -1.2341 -0.3012  0.4236
  630MOL0     H83127  -1.241   7.846   2.742  1.7187 -2.4335  0.3258
  630MOL0     H83128  -1.373   7.982   2.882 -0.5490  0.1910  0.9633
  630MOL0     H83129  -1.506   7.869   2.876 -2.6431 -1.4283 -3.4352
  630MOL0     H83130  -1.517   7.900   2.622 -0.3078 -1.8749  2.6035
  630MOL0     H83131  -1.398   8.037   2.637 -2.7512  2.2298 -2.3304
  630MOL0     H83132  -1.654   8.024   2.789  0.3780 -0.5150  0.0599
  630MOL0     H83133  -1.563   8.167   2.753  2.3577 -2.2751  4.6578
  630MOL0     H83134  -1.687   7.985   2.528  1.3160 -1.5766  0.2573
  630MOL0     H83135  -1.623   8.153   2.517 -2.9972  0.3743 -2.7718
  630MOL0     H83136  -1.852   8.198   2.513  1.7375 -0.1375 -0.1875
  630MOL0     H83137  -1.816   8.232   2.682 -5.0597  1.8078 -1.1337
  630MOL0     H83138  -1.899   8.012   2.731  0.7378 -2.5346 -1.1081
  630MOL0     H83139  -2.023   8.123   2.662 -0.9797 -2.7375  0.2566
  630MOL0     H83140  -2.041   7.903   2.567 -0.5594  1.3549  0.6374
  630MOL0     H83141  -1.879   7.911   2.502 -0.5299  0.4351  0.6354
  630MOL0     H83142  -1.153   7.627   2.707  1.3839  1.2081 -1.0378
  630MOL0     H83143  -0.940   7.517   2.742 -2.0053 -0.2279 -1.0084
  630MOL0     H83144  -0.645   7.182   2.756 -1.1947  0.9756  0.4571
  630MOL0     H83145  -0.414   7.113   2.792 -0.5605  2.6501 -1.8613
  630MOL0     H83146   1.495   6.644   3.539 -1.6914  0.9825 -0.1711
  630MOL0     H83147   1.727   6.612   3.589 -0.7247 -1.2805  1.0554
  630MOL0     H83148   2.098   6.655   3.778  0.2074 -0.6043 -0.3710
  630MOL0     H83149   2.325   6.580   3.861  0.7921 -0.9539  0.4108
  630MOL0     H83150   2.551   6.581   4.254  1.9255  2.7012 -0.2837
  630MOL0     H83151   2.382   6.625   4.298 -2.5673  1.4763 -2.2774
  630MOL0     H83152   2.560   6.768   4.102 -0.2215  1.4345 -0.5225
  630MOL0     H83153   2.411   6.830   4.156  0.4697 -0.0640 -0.8158
  630MOL0     H83154   2.664   6.760   4.326  2.4319  1.2699  2.0299
  630MOL0     H83155   2.510   6.855   4.371  0.7209 -0.1590  0.8678
  630MOL0     H83156   2.729   6.951   4.185  1.0392 -0.7235  1.9882
  630MOL0     H83157   2.565   7.011   4.181  1.5178  1.7575  0.6040
  630MOL0     H83158   2.735   7.118   4.568 -0.5449 -0.5679 -0.4461
  630MOL0     H83159   2.191   6.652   4.263  2.3250  0.3227 -0.4246
  630MOL0     H83160   1.973   6.696   4.185  0.3304  2.5570 -0.8949
  631MOL0     O83161   4.269   1.336  10.894 -0.4394  0.0627 -0.1847
  631MOL0     C83162   4.323   1.444  10.870 -0.6520 -0.6119  0.5399
  631MOL0     O83163   4.258   1.563  10.831  0.0504  0.4090 -0.1510
  631MOL0     C83164   4.130   1.583  10.881 -0.5555  0.1936 -0.1415
  631MOL0     C83165   4.091   1.541  11.010  0.2219  0.3753 -0.2171
  631MOL0     C83166   3.955   1.567  11.054  0.3324  0.5472  0.5697
  631MOL0     C83167   3.865   1.632  10.979 -0.2861 -0.8629  0.7753
  631MOL0     O83168   3.738   1.680  11.013  0.0768 -0.4030  0.1223
  631MOL0     C83169   3.716   1.731  11.150 -0.8853  1.3182 -0.2005
  631MOL0     C83170   3.610   1.841  11.142 -0.2083 -0.3565 -0.5186
  631MOL0     C83171   3.468   1.777  11.141 -0.1898  0.4501 -0.0010
  631MOL0     C83172   3.359   1.893  11.150  1.4161 -0.9672 -0.0113
  631MOL0     C83173   3.298   1.911  11.286  0.3425 -0.2548  0.5640
  631MOL0     C83174   3.175   1.814  11.279  0.8247 -0.1713  0.3882
  631MOL0     C83175   3.097   1.816  11.409  1.0079  0.8909 -0.9578
  631MOL0     C83176   3.036   1.681  11.431 -0.7744 -0.1667 -0.4098
  631MOL0     N83177   2.921   1.654  11.347  0.2562  0.8090 -0.2091
  631MOL0     C83178   2.798   1.656  11.390  0.5360 -0.0856 -0.0512
  631MOL0     C83179   2.729   1.595  11.292  0.2959  0.2446 -0.2203
  631MOL0     C83180   2.583   1.562  11.314  0.2425 -0.0140 -0.0319
  631MOL0     C83181   2.551   1.422  11.267 -1.1137  0.1545  0.9675
  631MOL0     C83182   2.567   1.400  11.111  0.4220  0.1825 -0.8658
  631MOL0     C83183   2.485   1.279  11.077 -0.1145  0.9456  0.4028
  631MOL0     O83184   2.521   1.172  11.165 -0.6673  0.1280 -0.6416
  631MOL0     C83185   2.607   1.073  11.115  0.5964 -0.0324  0.1539
  631MOL0     C83186   2.636   1.036  10.983 -1.0762 -0.7410 -0.1861
  631MOL0     C83187   2.738   0.945  10.948  0.0373 -0.3157 -0.8130
  631MOL0     C83188   2.818   0.889  11.049 -0.6312 -0.6125  0.4830
  631MOL0     C83189   2.916   0.781  11.019 -1.4758  0.1646 -0.7742
  631MOL0     O83190   2.961   0.783  10.887 -0.0157  0.1384  0.1512
  631MOL0     C83191   3.063   0.698  10.860 -0.0141 -0.1669  0.1563
  631MOL0     C83192   3.192   0.704  10.911  1.3117 -0.6343 -1.1470
  631MOL0     C83193   3.292   0.627  10.861 -0.2001 -0.6395 -0.0890
  631MOL0     C83194   3.271   0.540  10.759 -0.0574 -0.2125 -0.2843
  631MOL0     O83195   3.368   0.457  10.703  0.2846 -0.4712 -0.4470
  631MOL0     C83196   3.510   0.492  10.706 -0.0378  0.2516 -0.1432
  631MOL0     C83197   3.588   0.414  10.603 -1.0143  0.7458 -0.2339
  631MOL0     C83198   3.565   0.477  10.467 -0.1924  0.3147 -0.5151
  631MOL0     C83199   3.571   0.363  10.367 -0.2652 -0.6999  0.2853
  631MOL0     C83200   3.634   0.400  10.235 -0.0517 -0.9284 -1.1903
  631MOL0     C83201   3.635   0.283  10.137 -0.2988 -0.1555 -0.0157
  631MOL0     C83202   3.718   0.302  10.012 -1.0115  0.7690  0.6079
  631MOL0     C83203   3.829   0.203   9.995  0.0629  0.1700 -0.4592
  631MOL0    Cl83204   3.945   0.199  10.133 -0.5730 -0.4403  0.2227
  631MOL0     C83205   3.140   0.517  10.714  0.6109  0.6497  0.0570
  631MOL0     C83206   3.039   0.601  10.767  0.1024 -0.1244  0.4214
  631MOL0     O83207   2.971   0.729  11.119 -0.1145  0.1817  0.4108
  631MOL0     C83208   2.780   0.927  11.181 -0.4163 -1.4751  0.7343
  631MOL0     C83209   2.681   1.018  11.217  0.3504 -0.8545  0.6865
  631MOL0     N83210   2.805   1.572  11.181  1.4422 -0.1336  0.8167
  631MOL0     N83211   2.922   1.601  11.217 -0.1032 -0.2313  0.2362
  631MOL0     C83212   3.906   1.671  10.850 -1.1728 -0.0836  0.6040
  631MOL0     C83213   4.035   1.649  10.798  0.7465 -1.1379 -0.0598
  631MOL0     C83214   4.464   1.432  10.872 -0.6188 -0.0541  0.2575
  631MOL0     C83215   4.541   1.528  10.808 -0.1552 -0.4108  0.3467
  631MOL0     C83216   4.680   1.529  10.797 -0.5428 -0.2631  0.1358
  631MOL0     C83217   4.755   1.422  10.854  0.6986  0.1580 -0.3168
  631MOL0     O83218   4.887   1.396  10.867 -0.2332  0.9286  0.5172
  631MOL0     C83219   4.978   1.477  10.800  0.3764 -0.4348  0.4207
  631MOL0     C83220   5.111   1.408  10.818  0.2633 -0.1274  0.8491
  631MOL0     C83221   5.242   1.491  10.785  0.6818 -0.1355  0.1622
  631MOL0     C83222   5.228   1.592  10.669 -0.0197  0.4182  0.7409
  631MOL0     C83223   5.338   1.698  10.667 -0.3728  0.5511  0.1127
  631MOL0     C83224   5.426   1.780  10.666  0.6899 -1.7905 -0.0791
  631MOL0     C83225   4.676   1.325  10.924 -0.3274  0.7878 -0.7575
  631MOL0     C83226   4.541   1.325  10.930  0.2049  0.0383  0.7204
  631MOL0     H83227   4.161   1.496  11.079 -0.5436  0.3601  0.5635
  631MOL0     H83228   3.917   1.555  11.155  0.4617  0.5579  0.6202
  631MOL0     H83229   3.812   1.773  11.182  0.0602 -1.4402  0.9099
  631MOL0     H83230   3.687   1.647  11.215 -1.9408  0.5032 -1.6637
  631MOL0     H83231   3.617   1.911  11.059  1.3655  2.2775  1.6749
  631MOL0     H83232   3.615   1.904  11.232 -0.7984  0.5970 -1.1360
  631MOL0     H83233   3.462   1.690  11.207  0.7405  0.8587  0.6500
  631MOL0     H83234   3.464   1.718  11.049  0.9790 -2.9045  1.8983
  631MOL0     H83235   3.391   1.992  11.115  2.5665 -0.7457  1.5616
  631MOL0     H83236   3.286   1.880  11.069  0.0868  2.2029  0.5299
  631MOL0     H83237   3.251   2.009  11.299 -0.3867 -0.5551  0.2504
  631MOL0     H83238   3.368   1.899  11.369  0.0258 -1.1571  0.7046
  631MOL0     H83239   3.205   1.711  11.257  2.1117  0.5140 -1.2580
  631MOL0     H83240   3.106   1.850  11.202 -1.2286  0.9173  2.6091
  631MOL0     H83241   3.167   1.829  11.491 -0.0866  0.4171  0.0859
  631MOL0     H83242   3.016   1.890  11.415 -0.0098 -0.0989 -1.8839
  631MOL0     H83243   3.001   1.668  11.534  0.1083 -0.3817 -0.1230
  631MOL0     H83244   3.102   1.594  11.427  1.9754  1.6356  1.8314
  631MOL0     H83245   2.766   1.691  11.488 -1.9624  0.3810 -0.9440
  631MOL0     H83246   2.528   1.635  11.253  1.6379  1.6464  0.6155
  631MOL0     H83247   2.559   1.570  11.421  1.3579 -1.3453  0.3490
  631MOL0     H83248   2.455   1.380  11.297 -0.1927 -1.5990  1.5679
  631MOL0     H83249   2.611   1.358  11.333 -1.2950  0.3732  1.3543
  631MOL0     H83250   2.530   1.478  11.044 -0.6673  1.1828  0.8426
  631MOL0     H83251   2.672   1.384  11.085  0.4189  0.0673 -0.8088
  631MOL0     H83252   2.509   1.253  10.973 -0.5107 -1.5579  0.8796
  631MOL0     H83253   2.381   1.307  11.094 -0.3231 -0.3867  1.4713
  631MOL0     H83254   2.554   1.060  10.915 -2.0192 -0.7403  0.9244
  631MOL0     H83255   2.757   0.908  10.847 -2.5057  2.5968 -2.5264
  631MOL0     H83256   3.215   0.768  10.995 -1.6979 -2.2571  1.0860
  631MOL0     H83257   3.391   0.641  10.903 -0.5032  0.0150  0.4251
  631MOL0     H83258   3.533   0.470  10.811 -0.1425  0.1326 -0.1446
  631MOL0     H83259   3.530   0.600  10.698 -1.1158  0.8158  3.0684
  631MOL0     H83260   3.549   0.313  10.595  0.4181  0.0667  0.9030
  631MOL0     H83261   3.692   0.407  10.635 -1.3989  0.6453  1.0468
  631MOL0     H83262   3.647   0.546  10.444  0.7464 -1.5899 -3.5898
  631MOL0     H83263   3.474   0.536  10.463 -1.5499 -1.7370 -2.2129
  631MOL0     H83264   3.623   0.275  10.406  0.8989  0.0868  0.5396
  631MOL0     H83265   3.473   0.327  10.336  0.0859 -0.3482 -1.3192
  631MOL0     H83266   3.737   0.430  10.259  0.1478 -2.3493 -0.1799
  631MOL0     H83267   3.586   0.486  10.186 -0.8466 -0.7916 -0.1829
  631MOL0     H83268   3.534   0.253  10.109 -0.4850 -0.9320  1.3828
  631MOL0     H83269   3.670   0.197  10.196 -0.8867  0.0819  0.6921
  631MOL0     H83270   3.651   0.275   9.930 -0.7336 -0.5491  0.7955
  631MOL0     H83271   3.764   0.401  10.009  3.1710 -0.9938  0.6539
  631MOL0     H83272   3.885   0.223   9.903  0.0947  0.6391 -0.3416
  631MOL0     H83273   3.792   0.101   9.988 -2.0661  0.8340  0.4368
  631MOL0     H83274   3.115   0.446  10.635  2.3286 -0.9880  0.9071
  631MOL0     H83275   2.941   0.587  10.723  0.1894  1.4458 -0.3559
  631MOL0     H83276   2.839   0.888  11.263  1.9590 -0.3089 -0.3509
  631MOL0     H83277   2.683   1.057  11.318  0.7589  1.9345 -0.3137
  631MOL0     H83278   3.842   1.725  10.781  2.3052  0.4372 -2.5105
  631MOL0     H83279   4.059   1.691  10.701 -0.9438  1.1402  0.4017
  631MOL0     H83280   4.499   1.615  10.761  5.8263  1.4522 -2.6104
  631MOL0     H83281   4.723   1.605  10.733 -0.4591  2.1463  2.8619
  631MOL0     H83282   4.981   1.582  10.831  0.5446  0.4955 -2.3821
  631MOL0     H83283   4.955   1.479  10.693 -1.4303 -2.8957  0.6800
  631MOL0     H83284   5.111   1.367  10.920  2.4229 -0.1179  0.8930
  631MOL0     H83285   5.114   1.330  10.742 -1.6069  0.6873 -0.1315
  631MOL0     H83286   5.333   1.431  10.775  1.9923  1.7677  0.2589
  631MOL0     H83287   5.261   1.565  10.863 -0.9248  3.0632 -2.2672
  631MOL0     H83288   5.249   1.531  10.581 -2.0184  2.0963 -1.0059
  631MOL0     H83289   5.127   1.633  10.655 -0.1102  0.0708  0.3837
  631MOL0     H83290   5.497   1.859  10.648  1.3067 -2.4734 -0.7530
  631MOL0     H83291   4.729   1.260  10.993  1.9216  0.3129 -2.8030
  631MOL0     H83292   4.488   1.240  10.972  1.8106 -2.0213 -1.1749
  632MOL0     O83293   6.568   8.847   0.588  0.0067  0.9991  0.6373
  632MOL0     C83294   6.580   8.967   0.605 -0.2303  1.1035 -0.5619
  632MOL0     O83295   6.477   9.047   0.638 -0.5258 -1.3236  0.1193
  632MOL0     C83296   6.371   9.002   0.705 -1.0679 -0.4188 -0.8743
  632MOL0     C83297   6.270   9.096   0.712 -0.5522  0.0006 -0.1007
  632MOL0     C83298   6.137   9.073   0.759  0.1646  1.0655 -0.4562
  632MOL0     C83299   6.110   8.945   0.810 -0.4532 -0.8913 -0.1410
  632MOL0     O83300   5.990   8.925   0.867 -0.4809  0.7284  0.8644
  632MOL0     C83301   5.929   8.794   0.856  0.2290 -0.1772 -0.2052
  632MOL0     C83302   5.811   8.778   0.939 -0.1898  0.6564  0.7524
  632MOL0     C83303   5.829   8.752   1.086  0.4861 -0.5906 -0.4902
  632MOL0     C83304   5.705   8.758   1.171 -0.3679  0.0957  0.0145
  632MOL0     C83305   5.731   8.781   1.319  0.5745 -0.2915  0.4155
  632MOL0     C83306   5.594   8.801   1.397 -0.0079  0.1599 -0.7130
  632MOL0     C83307   5.547   8.947   1.366  0.4890  0.7549 -0.0682
  632MOL0     C83308   5.531   9.040   1.491  0.3995  0.4464 -0.1529
  632MOL0     N83309   5.433   8.999   1.590  0.1843 -0.0936  0.8395
  632MOL0     C83310   5.321   8.927   1.563  0.2072 -0.4474 -1.1131
  632MOL0     C83311   5.240   8.963   1.667  0.3963 -0.0113 -0.5576
  632MOL0     C83312   5.104   8.893   1.689  0.3865  0.4032  0.3609
  632MOL0     C83313   5.107   8.799   1.819  0.3096 -0.4264  0.9290
  632MOL0     C83314   5.208   8.685   1.799 -0.9634  0.2475  0.2723
  632MOL0     C83315   5.145   8.554   1.762 -0.0675 -0.9269  0.6783
  632MOL0     O83316   5.056   8.565   1.647  0.6233  0.5397  0.9318
  632MOL0     C83317   4.978   8.457   1.613  0.2690  0.7419 -1.0655
  632MOL0     C83318   4.876   8.486   1.527 -0.7714  0.2694 -0.2606
  632MOL0     C83319   4.793   8.380   1.487 -0.5914  0.4846  0.8608
  632MOL0     C83320   4.801   8.254   1.551  0.3687  0.1447 -0.1757
  632MOL0     C83321   4.721   8.141   1.510 -1.0895 -0.2051 -0.0441
  632MOL0     O83322   4.686   8.056   1.614 -0.3896 -0.2027  0.9962
  632MOL0     C83323   4.581   7.964   1.609 -0.6277 -0.1763 -0.7656
  632MOL0     C83324   4.464   7.963   1.535 -0.0374 -0.9307 -0.3993
  632MOL0     C83325   4.376   7.856   1.542 -0.1046 -0.6791  0.6315
  632MOL0     C83326   4.392   7.756   1.641  0.7411 -0.2215 -0.1715
  632MOL0     O83327   4.294   7.655   1.650  0.7011 -0.7526 -0.2112
  632MOL0     C83328   4.307   7.560   1.751 -0.2412 -0.4506 -0.2053
  632MOL0     C83329   4.182   7.487   1.767  0.2779  0.4443 -0.3206
  632MOL0     C83330   4.183   7.352   1.702  0.1615  0.1837 -0.5821
  632MOL0     C83331   4.042   7.293   1.694 -0.1295 -0.0750 -0.7425
  632MOL0     C83332   4.060   7.178   1.615  0.4090 -0.3218  0.1026
  632MOL0     C83333   3.933   7.101   1.575 -0.8286  0.8914  0.5863
  632MOL0     C83334   3.816   7.186   1.520  1.0744 -1.5629 -0.1953
  632MOL0     C83335   3.728   7.108   1.433  0.9013  0.3179 -0.0358
  632MOL0    Cl83336   3.624   6.988   1.530 -0.0725 -0.0115 -0.0556
  632MOL0     C83337   4.511   7.764   1.710  0.1225  0.6129  0.4240
  632MOL0     C83338   4.601   7.860   1.695 -0.1300  0.1709  0.2128
  632MOL0     O83339   4.691   8.138   1.392  0.0879  0.0274 -0.7543
  632MOL0     C83340   4.914   8.224   1.627 -0.6020  0.3285 -0.1624
  632MOL0     C83341   4.998   8.330   1.669 -0.0634 -0.3826  0.0589
  632MOL0     N83342   5.303   9.054   1.748  0.9540  0.0237 -0.3217
  632MOL0     N83343   5.416   9.078   1.694 -0.4327  0.8813  0.2487
  632MOL0     C83344   6.220   8.858   0.817  0.5814 -0.3220  0.4661
  632MOL0     C83345   6.343   8.883   0.767  0.0075 -0.3176 -1.1369
  632MOL0     C83346   6.722   9.028   0.607  1.0578 -0.0129 -0.1653
  632MOL0     C83347   6.744   9.161   0.612  0.2472  0.5551 -1.1131
  632MOL0     C83348   6.877   9.205   0.593 -0.0954 -0.2328 -0.0575
  632MOL0     C83349   6.990   9.119   0.591  0.1061  0.3939 -0.0054
  632MOL0     O83350   7.121   9.157   0.606  0.3584  0.6413 -0.0986
  632MOL0     C83351   7.169   9.291   0.600  0.1680  0.3723  0.1412
  632MOL0     C83352   7.176   9.335   0.453  0.2853  1.0196 -1.0018
  632MOL0     C83353   7.176   9.489   0.449 -0.3561 -0.2813  0.0018
  632MOL0     C83354   7.270   9.573   0.537 -0.1051  0.5333 -0.3243
  632MOL0     C83355   7.406   9.520   0.578 -0.2598  0.4205  0.0051
  632MOL0     C83356   7.517   9.484   0.620  0.2306  0.0875  0.1716
  632MOL0     C83357   6.956   8.984   0.584 -0.5394  1.1025  0.3215
  632MOL0     C83358   6.827   8.935   0.586 -0.7829  0.1739  0.4879
  632MOL0     H83359   6.284   9.196   0.670  1.1991 -0.5471 -0.8922
  632MOL0     H83360   6.065   9.154   0.766  0.5255  1.7636 -3.5019
  632MOL0     H83361   6.000   8.719   0.893  0.8844  0.2602 -0.5560
  632MOL0     H83362   5.903   8.768   0.753 -2.3146  0.0319  0.3228
  632MOL0     H83363   5.763   8.686   0.905 -0.9375  2.3561 -3.3808
  632MOL0     H83364   5.753   8.868   0.915  0.8363  1.5653  1.5547
  632MOL0     H83365   5.900   8.827   1.124  1.8475 -0.7050 -2.6111
  632MOL0     H83366   5.886   8.659   1.096  0.3510 -0.7677 -1.3157
  632MOL0     H83367   5.645   8.840   1.131 -1.5368 -0.2115  1.0555
  632MOL0     H83368   5.655   8.663   1.153 -0.5131  0.1692  0.0200
  632MOL0     H83369   5.795   8.869   1.333  0.2228  0.4837 -2.3361
  632MOL0     H83370   5.791   8.697   1.356  1.6802  0.4505  0.3365
  632MOL0     H83371   5.607   8.787   1.505 -2.9221  0.5155 -0.2362
  632MOL0     H83372   5.515   8.732   1.367 -3.5481  3.4469  0.2807
  632MOL0     H83373   5.611   8.990   1.288  4.0709  0.1773  2.2997
  632MOL0     H83374   5.448   8.942   1.320  1.1556  1.5677 -1.6742
  632MOL0     H83375   5.494   9.137   1.455  0.5337  0.3937 -0.4343
  632MOL0     H83376   5.629   9.052   1.539  1.1435 -1.0676 -1.2369
  632MOL0     H83377   5.290   8.861   1.483 -1.2666 -1.2508  0.0588
  632MOL0     H83378   5.061   8.850   1.598 -3.4911 -1.2935  2.7164
  632MOL0     H83379   5.031   8.972   1.712 -0.7614 -0.3212 -0.6349
  632MOL0     H83380   5.006   8.757   1.830 -1.1408  2.2257 -0.8979
  632MOL0     H83381   5.131   8.859   1.907  1.0790  1.2194 -0.3268
  632MOL0     H83382   5.292   8.717   1.736 -0.7348 -0.7800  0.0317
  632MOL0     H83383   5.263   8.672   1.893 -0.7630 -0.5652  0.0449
  632MOL0     H83384   5.093   8.513   1.849  2.3028 -0.1187  2.5855
  632MOL0     H83385   5.224   8.481   1.742 -0.3898 -1.1487  0.1881
  632MOL0     H83386   4.862   8.580   1.474 -0.2004  0.5054 -0.0056
  632MOL0     H83387   4.728   8.391   1.401  0.3243  0.6307  0.1660
  632MOL0     H83388   4.440   8.037   1.459  0.4446 -1.6413 -1.2587
  632MOL0     H83389   4.297   7.854   1.468 -1.1496 -2.1309  1.7143
  632MOL0     H83390   4.327   7.603   1.850  0.2144 -2.9492  0.8712
  632MOL0     H83391   4.386   7.484   1.745 -0.1743 -0.6280  2.0508
  632MOL0     H83392   4.102   7.554   1.734  1.2035  1.5805 -0.3394
  632MOL0     H83393   4.172   7.463   1.873 -0.2413 -0.1650 -0.5026
  632MOL0     H83394   4.251   7.282   1.753 -0.9454 -0.0951  0.5613
  632MOL0     H83395   4.229   7.363   1.604  0.1641  1.4857 -0.4511
  632MOL0     H83396   4.009   7.273   1.796 -0.3634  0.5189 -0.7007
  632MOL0     H83397   3.972   7.358   1.642  1.3306  1.4759 -0.8413
  632MOL0     H83398   4.115   7.101   1.670 -0.7485 -2.8331 -2.0305
  632MOL0     H83399   4.115   7.205   1.524  0.9624  1.3566  0.8907
  632MOL0     H83400   3.898   7.046   1.663 -1.5748 -2.0874 -1.4202
  632MOL0     H83401   3.960   7.020   1.507  0.9974  3.7505 -2.3778
  632MOL0     H83402   3.760   7.235   1.601 -0.2090 -2.6517 -0.4001
  632MOL0     H83403   3.849   7.272   1.461 -2.4960  0.4983  0.4887
  632MOL0     H83404   3.779   7.057   1.350  0.5719 -1.9890  1.0995
  632MOL0     H83405   3.653   7.168   1.381  0.9510  0.0772 -0.3967
  632MOL0     H83406   4.543   7.681   1.773  1.3149  2.7155  2.7626
  632MOL0     H83407   4.683   7.857   1.766 -0.7045  2.4282  1.0479
  632MOL0     H83408   4.921   8.120   1.657 -0.4307  0.3124 -0.2555
  632MOL0     H83409   5.074   8.306   1.742 -1.0928  1.1575  1.7346
  632MOL0     H83410   6.219   8.759   0.861  0.4797 -1.8907 -2.8042
  632MOL0     H83411   6.412   8.801   0.784 -0.7584 -0.3818  2.5975
  632MOL0     H83412   6.663   9.230   0.627  0.1241  0.2748 -0.4827
  632MOL0     H83413   6.894   9.311   0.607 -1.3360 -0.3947  3.8942
  632MOL0     H83414   7.270   9.285   0.643  0.1070  2.5078  0.6827
  632MOL0     H83415   7.119   9.365   0.663 -0.5545 -0.1409  0.1765
  632MOL0     H83416   7.273   9.301   0.414  0.8610  3.3250 -1.7546
  632MOL0     H83417   7.105   9.293   0.382  1.7501 -1.2996 -1.1918
  632MOL0     H83418   7.076   9.529   0.469 -0.5217 -1.3932  1.5186
  632MOL0     H83419   7.216   9.515   0.350 -1.0084  1.0420  0.0547
  632MOL0     H83420   7.277   9.679   0.511 -0.2680  0.8839  0.9701
  632MOL0     H83421   7.231   9.585   0.639  0.6556 -1.1829  0.2120
  632MOL0     H83422   7.620   9.462   0.636 -0.4421 -5.4862 -1.0289
  632MOL0     H83423   7.036   8.911   0.577 -0.7962  0.7379  1.0255
  632MOL0     H83424   6.808   8.830   0.567  1.4240 -0.5816  2.0146
  633MOL0     O83425   8.096   8.243   5.979 -1.6509 -0.0139 -0.2375
  633MOL0     C83426   8.079   8.365   5.951 -0.1386  0.3433 -0.0079
  633MOL0     O83427   7.970   8.408   5.893 -0.2701  0.0981  0.2530
  633MOL0     C83428   7.865   8.317   5.877 -0.1323  0.3746 -0.5991
  633MOL0     C83429   7.744   8.345   5.931  0.2198  0.0470  0.6041
  633MOL0     C83430   7.636   8.246   5.915  0.2837  0.7334 -0.6232
  633MOL0     C83431   7.659   8.128   5.846  0.0425 -0.0469 -1.7185
  633MOL0     O83432   7.545   8.049   5.824 -0.1654 -0.6890 -0.6402
  633MOL0     C83433   7.545   7.925   5.750 -0.4344 -0.5913  0.9954
  633MOL0     C83434   7.403   7.893   5.691 -0.2433 -1.0392  0.4169
  633MOL0     C83435   7.301   7.848   5.802  0.4206  0.7430 -0.3222
  633MOL0     C83436   7.168   7.781   5.747 -0.0760  0.2925  0.2155
  633MOL0     C83437   7.053   7.766   5.845 -0.8745 -0.0037  0.0149
  633MOL0     C83438   7.058   7.632   5.917 -0.1712  0.2563  0.1787
  633MOL0     C83439   6.914   7.597   5.980  0.2165  0.2449 -0.1950
  633MOL0     C83440   6.872   7.701   6.082  0.1836 -0.5547 -0.7170
  633MOL0     N83441   6.739   7.656   6.126  0.3681 -0.7147  0.1214
  633MOL0     C83442   6.712   7.551   6.209  0.1508  0.3738 -1.1782
  633MOL0     C83443   6.575   7.534   6.205 -0.3065 -0.1216 -0.3814
  633MOL0     C83444   6.520   7.421   6.276 -0.6380 -0.1072 -0.1479
  633MOL0     C83445   6.389   7.461   6.355  0.2938  0.0111  0.3064
  633MOL0     C83446   6.332   7.335   6.435  0.2164  0.4659  0.1801
  633MOL0     C83447   6.188   7.359   6.483 -0.2844 -0.4400 -0.0116
  633MOL0     O83448   6.162   7.485   6.544 -0.7793 -0.0815 -0.3057
  633MOL0     C83449   6.030   7.519   6.566  0.6345 -1.2035 -1.6075
  633MOL0     C83450   5.914   7.465   6.501  0.4687 -0.8139 -0.2296
  633MOL0     C83451   5.784   7.504   6.532  0.1103  0.4258  0.3752
  633MOL0     C83452   5.764   7.605   6.624 -0.3543  0.0882 -0.0129
  633MOL0     C83453   5.622   7.651   6.642  0.4994 -0.6727  0.1111
  633MOL0     O83454   5.517   7.565   6.606 -0.0915  0.3612  0.1869
  633MOL0     C83455   5.390   7.607   6.629  0.4132 -0.7767 -0.1668
  633MOL0     C83456   5.332   7.706   6.548 -0.0774 -0.2122  0.2733
  633MOL0     C83457   5.196   7.742   6.574  0.3876 -0.5975 -0.1773
  633MOL0     C83458   5.124   7.687   6.684 -0.7516 -0.3646  0.4130
  633MOL0     O83459   5.002   7.729   6.709  0.5118 -0.2240 -0.7159
  633MOL0     C83460   4.946   7.838   6.631  0.6874  0.4382 -0.2492
  633MOL0     C83461   4.815   7.870   6.697  0.5507  0.3483  0.2701
  633MOL0     C83462   4.745   7.993   6.620 -0.1047  0.0216  0.0714
  633MOL0     C83463   4.614   8.036   6.683  0.3325  0.0322 -0.3282
  633MOL0     C83464   4.525   8.089   6.566 -0.1362 -0.1479 -0.2764
  633MOL0     C83465   4.374   8.109   6.607 -0.3585 -0.2717  0.1828
  633MOL0     C83466   4.282   8.127   6.480  0.3516  0.1983  0.0418
  633MOL0     C83467   4.136   8.179   6.510 -0.0840  0.5095 -0.6670
  633MOL0    Cl83468   4.037   8.053   6.579  0.1516  0.3949  0.3109
  633MOL0     C83469   5.183   7.584   6.750 -0.8701  0.1177  0.1600
  633MOL0     C83470   5.315   7.543   6.724  0.8042 -0.2424 -0.6265
  633MOL0     O83471   5.605   7.764   6.697 -0.1279  0.4759  0.3571
  633MOL0     C83472   5.873   7.668   6.685 -0.3690  0.2424  0.2716
  633MOL0     C83473   6.001   7.625   6.667 -0.3050  1.1648  0.4759
  633MOL0     N83474   6.518   7.624   6.125 -0.0282 -0.4298  0.3908
  633MOL0     N83475   6.615   7.701   6.082 -0.9986  0.0669 -0.1293
  633MOL0     C83476   7.784   8.102   5.791  0.4468  0.5981 -0.0060
  633MOL0     C83477   7.886   8.194   5.804  0.7958 -0.4057  0.0590
  633MOL0     C83478   8.191   8.462   5.951 -0.3057  0.1668  0.3827
  633MOL0     C83479   8.323   8.423   5.978  0.0281  0.7439 -0.4091
  633MOL0     C83480   8.420   8.522   5.986  0.6332 -0.0869 -0.1408
  633MOL0     C83481   8.395   8.659   5.980  0.3771  0.6733  0.2505
  633MOL0     O83482   8.498   8.742   5.959 -0.4352  0.1818 -0.5854
  633MOL0     C83483   8.487   8.881   6.001  1.1317 -0.1843  0.3422
  633MOL0     C83484   8.626   8.938   6.011 -0.7262 -0.4365  0.4234
  633MOL0     C83485   8.676   8.957   5.863 -1.7934 -0.0839  0.2699
  633MOL0     C83486   8.831   8.986   5.871 -0.2915 -0.1623  0.0119
  633MOL0     C83487   8.895   8.991   5.739 -0.5861 -1.0510  0.1044
  633MOL0     C83488   8.950   9.000   5.630 -0.6163  0.7812  0.9384
  633MOL0     C83489   8.263   8.693   5.984  0.3307  0.1487  0.0268
  633MOL0     C83490   8.162   8.601   5.958  0.2882 -0.8223  0.7476
  633MOL0     H83491   7.714   8.438   5.977 -0.4104 -1.1730  2.8135
  633MOL0     H83492   7.540   8.254   5.966  1.3397 -2.9420  2.3706
  633MOL0     H83493   7.564   7.835   5.809 -0.0353 -0.8246  0.5153
  633MOL0     H83494   7.611   7.926   5.663 -4.0408 -2.2032 -2.0513
  633MOL0     H83495   7.413   7.813   5.617  2.5461  0.5213 -1.0755
  633MOL0     H83496   7.364   7.983   5.642 -1.9122 -0.5208  2.5537
  633MOL0     H83497   7.272   7.934   5.862 -0.6861 -0.3927  0.8363
  633MOL0     H83498   7.339   7.765   5.863 -1.1671 -0.7572 -1.2467
  633MOL0     H83499   7.135   7.854   5.672 -1.3904 -3.0001 -2.6888
  633MOL0     H83500   7.191   7.690   5.690 -2.1007  0.5851 -1.1786
  633MOL0     H83501   6.957   7.779   5.794 -2.4203  1.1997  2.9529
  633MOL0     H83502   7.058   7.839   5.927 -2.7155 -2.6812  2.7377
  633MOL0     H83503   7.130   7.633   6.000  0.0186  2.6638  0.0310
  633MOL0     H83504   7.101   7.551   5.858 -0.7615  0.4382 -0.5197
  633MOL0     H83505   6.840   7.583   5.901 -0.9335  1.6758  0.5769
  633MOL0     H83506   6.920   7.502   6.032 -2.0913 -1.3290 -2.5489
  633MOL0     H83507   6.853   7.805   6.055 -1.2531  0.3182  3.0286
  633MOL0     H83508   6.929   7.685   6.174 -3.0238  0.1606  1.5902
  633MOL0     H83509   6.784   7.487   6.258 -0.1979  0.6377 -0.3137
  633MOL0     H83510   6.596   7.383   6.345 -0.7500 -1.2690 -0.6315
  633MOL0     H83511   6.478   7.347   6.206 -1.5469  1.3674 -1.2146
  633MOL0     H83512   6.306   7.498   6.294 -1.1213 -0.7843  1.6671
  633MOL0     H83513   6.422   7.536   6.427  0.0281 -0.5129  0.9825
  633MOL0     H83514   6.332   7.247   6.370  0.6492  0.1976  0.5346
  633MOL0     H83515   6.401   7.315   6.518 -0.5452 -1.0983  0.4752
  633MOL0     H83516   6.169   7.293   6.568 -1.8780  0.4423  0.3446
  633MOL0     H83517   6.130   7.330   6.394  0.7989  2.6594 -1.9004
  633MOL0     H83518   5.921   7.394   6.419 -4.8907  0.8181 -2.6294
  633MOL0     H83519   5.693   7.461   6.493  0.6221  0.5344 -1.0112
  633MOL0     H83520   5.388   7.770   6.480 -3.2357  2.8616  0.2707
  633MOL0     H83521   5.160   7.826   6.516 -0.7131 -0.2802  0.9416
  633MOL0     H83522   4.938   7.807   6.526  3.0261 -5.7511  0.9354
  633MOL0     H83523   5.012   7.922   6.649  1.7960 -0.4129 -0.2593
  633MOL0     H83524   4.825   7.878   6.806  1.8367 -3.8112  0.6417
  633MOL0     H83525   4.743   7.790   6.675  2.2120 -0.3023 -3.5856
  633MOL0     H83526   4.731   7.952   6.520  2.1994 -0.6624 -0.0183
  633MOL0     H83527   4.815   8.076   6.610 -0.8770  0.3919 -3.1932
  633MOL0     H83528   4.559   7.953   6.729 -1.1864  0.0959 -1.9152
  633MOL0     H83529   4.620   8.114   6.759  0.0418  0.8681 -1.1461
  633MOL0     H83530   4.521   8.014   6.487  1.1819 -1.5109  0.8789
  633MOL0     H83531   4.569   8.181   6.527  0.6620 -0.7583 -0.8747
  633MOL0     H83532   4.356   8.188   6.680 -0.8547 -1.9994  2.0323
  633MOL0     H83533   4.349   8.019   6.665  0.9958 -1.1195 -0.4960
  633MOL0     H83534   4.327   8.199   6.412  1.8053 -1.5505 -0.9530
  633MOL0     H83535   4.272   8.037   6.418 -0.0221 -0.1617  0.6093
  633MOL0     H83536   4.101   8.203   6.409  1.0558 -3.1458 -2.0701
  633MOL0     H83537   4.143   8.260   6.583 -1.8655 -1.0489  1.3701
  633MOL0     H83538   5.125   7.531   6.824  0.5448 -3.5043 -1.1351
  633MOL0     H83539   5.356   7.467   6.790 -0.2783 -1.1924 -1.0069
  633MOL0     H83540   5.863   7.756   6.747 -0.0491 -0.5651  1.5046
  633MOL0     H83541   6.086   7.644   6.731  0.0913  0.6565  0.1067
  633MOL0     H83542   7.806   8.008   5.743  3.6485  0.9460  0.5507
  633MOL0     H83543   7.979   8.164   5.757 -0.1610 -0.5255 -1.8996
  633MOL0     H83544   8.348   8.318   5.987 -3.7586 -0.1872  1.8526
  633MOL0     H83545   8.524   8.496   6.003  0.4734  0.3283  1.6573
  633MOL0     H83546   8.445   8.877   6.102  2.2559 -0.0793  0.8355
  633MOL0     H83547   8.423   8.938   5.934  1.2032  1.0639  1.2786
  633MOL0     H83548   8.635   9.023   6.079  2.6465 -1.0937  0.9998
  633MOL0     H83549   8.691   8.863   6.058 -0.6400 -0.2947  0.5305
  633MOL0     H83550   8.619   9.029   5.803  0.5463  3.2361  1.7566
  633MOL0     H83551   8.670   8.865   5.804 -0.6217  0.3321 -0.5427
  633MOL0     H83552   8.853   9.080   5.920 -1.4208  0.1347 -0.0116
  633MOL0     H83553   8.879   8.902   5.923 -1.2627 -0.7333  0.0189
  633MOL0     H83554   9.015   9.001   5.545 -0.4167 -2.3305  0.9372
  633MOL0     H83555   8.243   8.800   5.985 -1.1668 -0.1153  0.7124
  633MOL0     H83556   8.059   8.630   5.945 -0.4630 -3.0534  1.2595
  634MOL0     O83557   6.641  10.964   2.668  0.4421  0.4010  0.1202
  634MOL0     C83558   6.599  10.896   2.763  0.0206 -0.5399  0.1274
  634MOL0     O83559   6.469  10.894   2.819  0.3849 -0.2251  0.2876
  634MOL0     C83560   6.357  10.957   2.764  0.7904  1.1836  0.0659
  634MOL0     C83561   6.353  11.027   2.649  0.5535 -0.7138 -0.3077
  634MOL0     C83562   6.243  11.106   2.610  0.1304  0.0811 -0.2181
  634MOL0     C83563   6.127  11.084   2.681  0.6035 -1.2349 -0.2292
  634MOL0     O83564   6.014  11.158   2.648 -1.3100  1.2740 -0.7996
  634MOL0     C83565   5.933  11.090   2.555 -0.3124 -0.3523 -0.1578
  634MOL0     C83566   5.809  11.170   2.540 -0.5700 -0.0303 -0.0358
  634MOL0     C83567   5.710  11.148   2.654  0.4627 -0.3855  0.3433
  634MOL0     C83568   5.576  11.202   2.606  0.4784 -0.1973 -0.0654
  634MOL0     C83569   5.480  11.223   2.730  0.1603  0.4755  1.3437
  634MOL0     C83570   5.370  11.116   2.725  0.5242 -0.0779 -0.2178
  634MOL0     C83571   5.271  11.152   2.846 -0.5839 -0.7523 -0.1275
  634MOL0     C83572   5.179  11.034   2.869 -0.6999  0.1850  0.3309
  634MOL0     N83573   5.073  11.069   2.965  0.4288  0.3133  0.5160
  634MOL0     C83574   4.965  11.155   2.945  0.1275  0.5716  0.5874
  634MOL0     C83575   4.920  11.192   3.069 -0.1968  0.7730  0.7677
  634MOL0     C83576   4.800  11.285   3.097 -0.8433  0.0215 -0.1673
  634MOL0     C83577   4.710  11.232   3.214  0.2638  0.5806 -0.1776
  634MOL0     C83578   4.585  11.315   3.223  0.4422 -0.6628 -0.7708
  634MOL0     C83579   4.496  11.262   3.334 -1.1124  0.3446  0.2761
  634MOL0     O83580   4.396  11.181   3.273 -0.0610 -0.4506  0.1334
  634MOL0     C83581   4.300  11.122   3.348  1.1073  0.5648  0.3131
  634MOL0     C83582   4.184  11.195   3.394 -0.2553 -0.4295 -0.3659
  634MOL0     C83583   4.077  11.122   3.456 -0.3118  0.2512  0.8334
  634MOL0     C83584   4.088  10.992   3.486  0.0864  0.4178  0.5362
  634MOL0     C83585   3.979  10.920   3.548 -0.1572 -0.7886 -1.0033
  634MOL0     O83586   3.911  10.987   3.648 -0.1655  0.4859  0.2322
  634MOL0     C83587   3.789  10.945   3.684  0.5076 -0.2773  0.1382
  634MOL0     C83588   3.761  10.907   3.816  1.1422 -0.1580 -0.7594
  634MOL0     C83589   3.634  10.871   3.861 -0.6239 -0.1229  0.0684
  634MOL0     C83590   3.532  10.848   3.759  0.2285  0.1895  0.7243
  634MOL0     O83591   3.408  10.810   3.792 -0.4124  0.1203  0.5857
  634MOL0     C83592   3.350  10.856   3.918 -0.2399 -0.2821 -0.4025
  634MOL0     C83593   3.206  10.812   3.930 -0.0459  0.3911 -0.5604
  634MOL0     C83594   3.196  10.676   4.005  1.4023  0.3038  1.2770
  634MOL0     C83595   3.052  10.632   3.998  0.0050  0.4468  0.4381
  634MOL0     C83596   3.024  10.509   4.094 -0.1821 -0.4349  0.2158
  634MOL0     C83597   2.888  10.447   4.086  0.0545 -0.7294 -0.3932
  634MOL0     C83598   2.865  10.334   4.189 -0.0018 -0.9547 -0.9497
  634MOL0     C83599   2.714  10.307   4.218 -0.6917 -0.3041 -0.7181
  634MOL0    Cl83600   2.710  10.188   4.358 -0.3703 -0.1437 -0.1979
  634MOL0     C83601   3.564  10.874   3.629  0.6208 -0.3682 -0.4961
  634MOL0     C83602   3.679  10.939   3.596  0.0428 -0.5085  0.4457
  634MOL0     O83603   3.950  10.804   3.509 -0.0606 -0.6358 -0.0241
  634MOL0     C83604   4.202  10.925   3.449 -0.0387 -0.1379 -0.1477
  634MOL0     C83605   4.307  10.987   3.388 -0.4071  0.0091 -0.2802
  634MOL0     N83606   4.992  11.119   3.161  0.0734 -0.0539 -0.6321
  634MOL0     N83607   5.081  11.051   3.101 -0.3172  0.1563 -0.3561
  634MOL0     C83608   6.130  11.020   2.802 -0.7158  0.8416 -0.3729
  634MOL0     C83609   6.244  10.959   2.847 -0.3574 -0.0434  0.7779
  634MOL0     C83610   6.693  10.811   2.844 -0.0738  1.0176 -0.0385
  634MOL0     C83611   6.653  10.732   2.948  0.8824 -0.0739 -1.1139
  634MOL0     C83612   6.745  10.649   3.011 -0.1934 -0.6032 -0.5358
  634MOL0     C83613   6.883  10.645   2.987  0.0583  0.2071 -0.2823
  634MOL0     O83614   6.967  10.577   3.073 -0.4215  0.1861  0.5480
  634MOL0     C83615   7.084  10.649   3.114 -0.5718  0.7915 -0.4766
  634MOL0     C83616   7.174  10.584   3.211 -0.4936 -0.4031 -0.4454
  634MOL0     C83617   7.228  10.452   3.141  0.6291  0.0617 -0.5830
  634MOL0     C83618   7.347  10.395   3.212 -0.3867  0.6665  1.6065
  634MOL0     C83619   7.322  10.334   3.338 -1.4218 -0.8823 -0.2184
  634MOL0     C83620   7.306  10.295   3.451  0.3018  0.0977 -0.0770
  634MOL0     C83621   6.927  10.727   2.884  0.2463  0.1012 -0.8596
  634MOL0     C83622   6.832  10.812   2.813 -0.5641  1.1605  0.5903
  634MOL0     H83623   6.433  11.005   2.579 -0.3748  0.4900 -1.8181
  634MOL0     H83624   6.243  11.159   2.515  2.5763 -2.1031 -1.5778
  634MOL0     H83625   5.908  10.989   2.590  0.0051  0.0987  1.4293
  634MOL0     H83626   5.983  11.066   2.461 -2.5555 -0.7597 -1.3179
  634MOL0     H83627   5.765  11.138   2.445 -0.6521  0.9053 -0.3290
  634MOL0     H83628   5.842  11.274   2.532  3.3038 -1.0548  0.5842
  634MOL0     H83629   5.744  11.206   2.740 -0.2591  1.6070 -0.6501
  634MOL0     H83630   5.704  11.045   2.692  1.1254  0.0245  1.6412
  634MOL0     H83631   5.602  11.301   2.569  0.0779  1.2938  3.2972
  634MOL0     H83632   5.520  11.139   2.536 -0.2511  1.4964 -1.0565
  634MOL0     H83633   5.445  11.327   2.724  3.7532  1.8287  1.4989
  634MOL0     H83634   5.539  11.220   2.822  0.4691  4.1349  1.4375
  634MOL0     H83635   5.428  11.023   2.727  0.0657 -0.4376 -1.8444
  634MOL0     H83636   5.310  11.128   2.634  0.3087 -0.0305 -0.0717
  634MOL0     H83637   5.323  11.181   2.938 -4.0537  1.9989  1.2056
  634MOL0     H83638   5.207  11.238   2.826  0.1612 -0.5698 -1.8635
  634MOL0     H83639   5.243  10.950   2.897 -1.0144  0.0969  0.8034
  634MOL0     H83640   5.126  11.000   2.779 -0.6988 -0.0124  0.4030
  634MOL0     H83641   4.921  11.187   2.851  0.9465  1.7992  0.6005
  634MOL0     H83642   4.748  11.286   3.001  0.6828  0.9318 -1.0211
  634MOL0     H83643   4.832  11.387   3.122  1.9815  1.0374 -6.0769
  634MOL0     H83644   4.761  11.240   3.310  1.1032  1.1377 -0.6500
  634MOL0     H83645   4.693  11.129   3.181 -1.8910  0.7348  0.3544
  634MOL0     H83646   4.608  11.415   3.262 -0.7753 -0.7696  0.3098
  634MOL0     H83647   4.527  11.330   3.131 -2.9898  2.0700  1.5736
  634MOL0     H83648   4.444  11.351   3.371 -0.7171  1.5961 -1.9960
  634MOL0     H83649   4.555  11.226   3.419 -2.3751 -0.1385  0.9797
  634MOL0     H83650   4.173  11.301   3.373 -1.4143 -0.5255 -0.3122
  634MOL0     H83651   3.988  11.176   3.487 -0.2250  0.3208  0.9639
  634MOL0     H83652   3.839  10.904   3.892 -0.0919  2.9209  0.7942
  634MOL0     H83653   3.623  10.837   3.963 -1.0676 -0.7461 -0.1809
  634MOL0     H83654   3.369  10.963   3.926 -0.9934 -0.3026  4.2785
  634MOL0     H83655   3.403  10.803   3.997  0.1167 -0.8634 -1.0181
  634MOL0     H83656   3.163  10.811   3.830 -2.5922  1.9557  0.4205
  634MOL0     H83657   3.155  10.900   3.972  1.4648  1.0202  0.0515
  634MOL0     H83658   3.225  10.689   4.109  0.8097 -0.2747  1.5195
  634MOL0     H83659   3.250  10.591   3.962  0.5772 -1.4819  3.5600
  634MOL0     H83660   2.979  10.703   4.038  0.8358 -0.1713  3.2750
  634MOL0     H83661   3.026  10.607   3.895 -1.0779  1.3807  0.4579
  634MOL0     H83662   3.042  10.539   4.198  0.0377  0.6857 -0.1391
  634MOL0     H83663   3.091  10.427   4.065  0.2669  0.0554 -0.1494
  634MOL0     H83664   2.870  10.415   3.983 -1.7362 -1.0005 -0.0306
  634MOL0     H83665   2.810  10.522   4.105 -0.6777 -1.1489 -1.6161
  634MOL0     H83666   2.907  10.242   4.148  1.7303 -1.0378  0.8573
  634MOL0     H83667   2.923  10.370   4.274  2.6929  1.6630 -3.6069
  634MOL0     H83668   2.655  10.261   4.138 -1.2245 -1.0995  0.1037
  634MOL0     H83669   2.665  10.402   4.241 -1.6972 -0.6092 -1.5131
  634MOL0     H83670   3.492  10.845   3.554 -0.2393  1.8463 -0.6187
  634MOL0     H83671   3.676  10.980   3.496 -0.8521 -0.9366  0.2835
  634MOL0     H83672   4.216  10.823   3.482 -1.4144 -0.7878 -1.4414
  634MOL0     H83673   4.398  10.935   3.358  0.1571  0.3705  0.7713
  634MOL0     H83674   6.043  11.017   2.866 -0.7456 -2.3000 -0.4154
  634MOL0     H83675   6.252  10.918   2.948  1.4551  1.6512  1.3906
  634MOL0     H83676   6.557  10.742   2.997  0.8176  0.1374 -1.2829
  634MOL0     H83677   6.700  10.592   3.092 -1.6993 -1.6807 -2.0541
  634MOL0     H83678   7.044  10.742   3.157  0.4331  1.1555 -0.2967
  634MOL0     H83679   7.152  10.674   3.033  0.4702  3.1608  1.0018
  634MOL0     H83680   7.247  10.658   3.246 -0.3729  0.9264 -3.2297
  634MOL0     H83681   7.120  10.547   3.298 -0.0287 -0.7148 -0.2843
  634MOL0     H83682   7.256  10.472   3.037 -0.0311  1.0801 -0.5790
  634MOL0     H83683   7.150  10.375   3.144  0.2032  0.5048 -0.2469
  634MOL0     H83684   7.395  10.323   3.145 -3.2624 -0.3301  0.4820
  634MOL0     H83685   7.427  10.469   3.220 -0.1333  0.4259  1.2976
  634MOL0     H83686   7.282  10.242   3.540  0.6165 -1.0336 -0.6484
  634MOL0     H83687   7.033  10.732   2.864  0.4036 -2.3459 -0.8543
  634MOL0     H83688   6.858  10.880   2.732  0.9913 -1.0978 -0.9247
  635MOL0     O83689   6.676   4.135   3.454 -0.1151  0.4904 -0.4058
  635MOL0     C83690   6.645   4.174   3.565 -0.2258 -0.0239 -0.4144
  635MOL0     O83691   6.557   4.114   3.645 -0.1161  0.2450  0.8296
  635MOL0     C83692   6.506   3.997   3.600  0.1682  0.4308 -0.1711
  635MOL0     C83693   6.366   3.988   3.577 -0.5078 -0.9078 -0.1132
  635MOL0     C83694   6.296   3.866   3.543 -0.2466 -0.3017 -0.1567
  635MOL0     C83695   6.364   3.753   3.551  0.8855 -0.2775 -0.6514
  635MOL0     O83696   6.295   3.633   3.530 -1.0066 -0.6826 -0.8244
  635MOL0     C83697   6.316   3.588   3.391 -1.0688 -0.4833  0.0716
  635MOL0     C83698   6.246   3.459   3.360 -0.8313  0.1931  0.2229
  635MOL0     C83699   6.096   3.465   3.393 -0.4566 -0.3300  0.0065
  635MOL0     C83700   6.009   3.338   3.365 -0.9207  0.7572 -0.2923
  635MOL0     C83701   5.997   3.295   3.220 -0.1663  0.1395 -0.0289
  635MOL0     C83702   5.895   3.188   3.218 -0.1745  0.5793  0.3769
  635MOL0     C83703   5.872   3.147   3.077 -0.5621  0.3119  0.1676
  635MOL0     C83704   5.766   3.024   3.062  0.6721  0.7744  0.4108
  635MOL0     N83705   5.638   3.053   3.131 -0.3768  0.4825  1.2639
  635MOL0     C83706   5.596   2.972   3.226 -0.0234  0.1930  0.7294
  635MOL0     C83707   5.477   3.028   3.269 -0.3018  0.1515  1.8344
  635MOL0     C83708   5.404   2.973   3.377 -0.2108  0.5840 -0.2480
  635MOL0     C83709   5.358   2.825   3.356  0.0845  0.2318 -0.3446
  635MOL0     C83710   5.262   2.808   3.241  0.1731  0.2925  0.5306
  635MOL0     C83711   5.137   2.887   3.256  0.0706  0.0927 -0.2102
  635MOL0     O83712   5.033   2.845   3.169 -0.7699  0.6404 -0.8904
  635MOL0     C83713   4.910   2.904   3.184  0.4217 -0.3847 -0.0148
  635MOL0     C83714   4.817   2.845   3.091 -0.5449 -0.5987 -0.5932
  635MOL0     C83715   4.682   2.891   3.082 -0.7093 -0.8924  0.4400
  635MOL0     C83716   4.629   2.990   3.182 -0.6062  0.3284  0.3893
  635MOL0     C83717   4.489   3.027   3.168  0.6399 -0.7634 -0.4729
  635MOL0     O83718   4.416   2.942   3.091  0.9690 -0.3668 -0.2829
  635MOL0     C83719   4.278   2.945   3.089 -0.6112  0.4991  0.8435
  635MOL0     C83720   4.203   2.920   2.973 -0.2297  1.2561 -0.3533
  635MOL0     C83721   4.065   2.912   2.978 -0.0830  0.1545 -0.6461
  635MOL0     C83722   3.990   2.943   3.089 -0.3927 -0.1632 -0.2236
  635MOL0     O83723   3.852   2.957   3.090 -0.5798 -0.8858 -0.7330
  635MOL0     C83724   3.790   2.975   3.217  0.4807  0.7891  0.2658
  635MOL0     C83725   3.649   2.998   3.177  1.0626 -0.0382 -0.3814
  635MOL0     C83726   3.555   3.043   3.293 -0.6312 -0.2201 -0.9654
  635MOL0     C83727   3.435   3.103   3.249  0.5862 -0.4813 -0.0850
  635MOL0     C83728   3.337   3.138   3.363  0.2765 -0.6250  0.4479
  635MOL0     C83729   3.293   3.009   3.446 -0.2166 -0.1405 -0.1907
  635MOL0     C83730   3.171   3.037   3.526  0.0578  0.1690 -0.5119
  635MOL0     C83731   3.198   3.123   3.652 -0.1358 -0.7291 -0.1168
  635MOL0    Cl83732   3.217   3.304   3.612  0.8541 -0.0041  0.4205
  635MOL0     C83733   4.068   2.966   3.208 -0.0705 -0.2148  0.6221
  635MOL0     C83734   4.205   2.960   3.203  0.7509  0.4985  0.7089
  635MOL0     O83735   4.450   3.127   3.221  0.1769 -0.0581 -0.7318
  635MOL0     C83736   4.720   3.041   3.273 -0.4591  0.0384  0.1839
  635MOL0     C83737   4.860   2.999   3.269 -1.4073 -0.2061  0.2743
  635MOL0     N83738   5.456   3.135   3.186  0.4753 -0.8927  0.0902
  635MOL0     N83739   5.557   3.156   3.100 -0.0075  0.6931  0.1915
  635MOL0     C83740   6.502   3.761   3.570  0.1982 -0.8020 -0.9318
  635MOL0     C83741   6.576   3.881   3.592 -0.2845  1.2654 -0.3350
  635MOL0     C83742   6.720   4.280   3.633  0.3631  0.4849 -0.1182
  635MOL0     C83743   6.813   4.348   3.559  0.2766  0.2518 -0.6634
  635MOL0     C83744   6.893   4.444   3.618 -0.2749  0.5882  0.5707
  635MOL0     C83745   6.886   4.475   3.754  0.8511 -0.0035  0.5903
  635MOL0     O83746   6.963   4.565   3.819 -0.1963  0.2886 -0.2588
  635MOL0     C83747   7.094   4.586   3.776  0.4857 -0.1191  0.6482
  635MOL0     C83748   7.091   4.721   3.718  0.5996  0.0864  0.6840
  635MOL0     C83749   7.237   4.743   3.664  0.2158 -0.3984 -0.0829
  635MOL0     C83750   7.314   4.822   3.757 -0.1599 -0.4859  0.2360
  635MOL0     C83751   7.459   4.824   3.723  0.2893 -0.2604 -1.2893
  635MOL0     C83752   7.580   4.825   3.736 -0.1359  0.5129 -0.5462
  635MOL0     C83753   6.800   4.392   3.830  0.6504  0.4080 -0.2319
  635MOL0     C83754   6.712   4.303   3.771  0.1123  0.3252  1.2138
  635MOL0     H83755   6.308   4.080   3.578 -1.1790 -1.3369  0.2340
  635MOL0     H83756   6.188   3.871   3.538 -0.1508  0.6539 -2.3084
  635MOL0     H83757   6.420   3.563   3.368 -0.9326 -0.9667  1.1723
  635MOL0     H83758   6.265   3.656   3.322 -0.0711 -1.6004 -1.8438
  635MOL0     H83759   6.281   3.381   3.428 -2.5355  0.1109  1.0675
  635MOL0     H83760   6.256   3.417   3.259 -0.5392 -3.0690  1.4870
  635MOL0     H83761   6.065   3.537   3.316  3.6892 -0.6157 -2.1908
  635MOL0     H83762   6.075   3.500   3.494 -2.8574  2.0489 -1.1779
  635MOL0     H83763   6.036   3.248   3.421 -1.4722  1.6477  1.4568
  635MOL0     H83764   5.910   3.358   3.406 -1.9462 -1.4961 -1.5122
  635MOL0     H83765   6.099   3.260   3.202  0.8443  0.8089  3.5469
  635MOL0     H83766   5.969   3.374   3.149  0.0864 -1.5175 -2.0699
  635MOL0     H83767   5.804   3.236   3.254 -1.6646 -0.7661 -1.3958
  635MOL0     H83768   5.924   3.111   3.290 -2.8800  1.5252  2.6517
  635MOL0     H83769   5.842   3.239   3.025  0.5216  1.4814  1.5328
  635MOL0     H83770   5.968   3.114   3.037 -0.3292 -0.9254  1.6813
  635MOL0     H83771   5.808   2.929   3.095  1.3984  0.2732 -1.7675
  635MOL0     H83772   5.745   2.999   2.958 -0.5566 -0.8350  0.9998
  635MOL0     H83773   5.646   2.885   3.269 -3.2379 -0.3260  3.8822
  635MOL0     H83774   5.322   3.044   3.390 -0.4469  0.4039 -0.7415
  635MOL0     H83775   5.463   2.993   3.467 -1.4801  1.2915  0.4480
  635MOL0     H83776   5.316   2.793   3.452  3.8236 -6.1717 -0.2763
  635MOL0     H83777   5.451   2.768   3.344 -0.8826 -2.5339  3.3772
  635MOL0     H83778   5.298   2.840   3.143  1.5180 -1.7183  0.3247
  635MOL0     H83779   5.227   2.705   3.237 -1.9321  0.9560  0.2773
  635MOL0     H83780   5.164   2.989   3.227  0.4206 -0.2869 -1.2480
  635MOL0     H83781   5.107   2.871   3.360 -0.3332 -1.7001 -0.5721
  635MOL0     H83782   4.849   2.765   3.025 -0.1474  0.6564 -2.0048
  635MOL0     H83783   4.622   2.851   3.001 -0.8713  0.4155 -0.1082
  635MOL0     H83784   4.267   2.915   2.886 -2.0532  0.9942 -1.7325
  635MOL0     H83785   4.007   2.896   2.887 -1.3670 -1.5259  0.4150
  635MOL0     H83786   3.828   3.061   3.273 -0.0669  2.3145 -1.5982
  635MOL0     H83787   3.798   2.882   3.274  2.7405  0.7821  0.0358
  635MOL0     H83788   3.603   2.913   3.126 -1.4581  0.8515  0.2983
  635MOL0     H83789   3.651   3.077   3.101 -0.0349 -0.1145 -0.4979
  635MOL0     H83790   3.606   3.122   3.350  1.4989 -1.4868 -1.0205
  635MOL0     H83791   3.540   2.963   3.367 -2.4042  2.1047  1.3766
  635MOL0     H83792   3.456   3.193   3.190  1.0690 -0.6696 -0.2066
  635MOL0     H83793   3.376   3.039   3.183 -0.9050  1.1178 -0.3755
  635MOL0     H83794   3.247   3.186   3.322  3.5584  3.8411 -2.3801
  635MOL0     H83795   3.375   3.217   3.429 -2.0315  0.6802  0.3226
  635MOL0     H83796   3.378   2.976   3.507  1.1230 -0.7225 -2.2560
  635MOL0     H83797   3.253   2.932   3.379 -4.2982  0.8674  0.8220
  635MOL0     H83798   3.093   3.088   3.470 -3.2815 -0.9173  2.7382
  635MOL0     H83799   3.137   2.938   3.559 -2.3650  0.4955 -1.8297
  635MOL0     H83800   3.286   3.095   3.711  1.8626 -0.0366 -2.5608
  635MOL0     H83801   3.109   3.109   3.713  0.7883 -0.7831  1.2488
  635MOL0     H83802   4.029   2.973   3.309 -3.1744 -0.5655 -0.4507
  635MOL0     H83803   4.252   2.980   3.299  1.3614 -0.3374  0.5875
  635MOL0     H83804   4.683   3.126   3.330  0.2092  0.9314 -0.6628
  635MOL0     H83805   4.926   3.055   3.335 -2.0524  3.2963 -1.7763
  635MOL0     H83806   6.566   3.674   3.568  2.2318  0.6098 -0.6022
  635MOL0     H83807   6.684   3.882   3.584  0.0206 -0.5294  2.3334
  635MOL0     H83808   6.842   4.330   3.456  3.4513  2.7594 -0.4028
  635MOL0     H83809   6.958   4.495   3.548  2.6073 -0.5891  2.2436
  635MOL0     H83810   7.116   4.516   3.695 -3.4084 -1.9979  0.9686
  635MOL0     H83811   7.160   4.585   3.863  0.4220 -0.2848  0.6942
  635MOL0     H83812   7.035   4.718   3.624  2.1559 -1.1777 -0.2578
  635MOL0     H83813   7.053   4.809   3.771 -0.4696  1.0723 -1.5969
  635MOL0     H83814   7.211   4.799   3.574  0.6420  1.7714  1.0817
  635MOL0     H83815   7.282   4.647   3.638  1.2283 -0.2953  1.1833
  635MOL0     H83816   7.264   4.919   3.767 -0.9146 -0.9305  0.8356
  635MOL0     H83817   7.297   4.774   3.854  1.2797 -0.3573  0.5767
  635MOL0     H83818   7.683   4.799   3.749 -0.0865  1.0137  0.1493
  635MOL0     H83819   6.796   4.401   3.938  1.8931  1.1162 -0.2254
  635MOL0     H83820   6.651   4.243   3.837 -0.0461 -2.1947 -1.0646
  636MOL0     O83821   8.252  10.126  11.099 -0.1385  0.7396  0.0747
  636MOL0     C83822   8.339  10.184  11.026 -0.0492 -0.0370 -0.0331
  636MOL0     O83823   8.317  10.283  10.923 -0.2613 -0.8047 -0.2573
  636MOL0     C83824   8.187  10.328  10.911 -0.6650  1.0446 -0.9637
  636MOL0     C83825   8.080  10.244  10.888  0.3100  0.6644  0.1367
  636MOL0     C83826   7.955  10.292  10.884  0.4283 -0.4182 -0.3595
  636MOL0     C83827   7.931  10.429  10.896  0.2825 -0.1469  0.7673
  636MOL0     O83828   7.803  10.467  10.885  0.0573  0.1840  0.2122
  636MOL0     C83829   7.775  10.602  10.927 -0.1439  0.1635  0.7745
  636MOL0     C83830   7.633  10.637  10.878  1.1062 -0.5663 -0.9183
  636MOL0     C83831   7.536  10.529  10.934 -0.1950  0.6724 -0.4699
  636MOL0     C83832   7.388  10.572  10.925 -0.0625 -0.3161  0.4197
  636MOL0     C83833   7.298  10.449  10.950  0.0346  1.0547  0.1077
  636MOL0     C83834   7.309  10.382  11.093 -0.9924 -0.0186 -0.0613
  636MOL0     C83835   7.391  10.255  11.106  0.7586 -0.9804 -0.2601
  636MOL0     C83836   7.365  10.178  11.232  0.3444  1.0539 -0.0462
  636MOL0     N83837   7.249  10.092  11.213  0.1626  0.0864 -0.7609
  636MOL0     C83838   7.115  10.121  11.242 -1.1644  0.4255  1.2065
  636MOL0     C83839   7.051  10.010  11.194 -0.4342 -0.2483  0.8204
  636MOL0     C83840   6.907   9.987  11.197  0.3281  0.5290  0.4504
  636MOL0     C83841   6.847   9.996  11.341  0.2046  0.0161 -0.8045
  636MOL0     C83842   6.906   9.905  11.455 -0.9887  0.6477  0.5469
  636MOL0     C83843   6.922   9.757  11.400 -0.3275 -0.5924 -0.1668
  636MOL0     O83844   6.914   9.660  11.508 -0.8340 -0.0285 -0.0331
  636MOL0     C83845   6.789   9.615  11.539  0.4555 -0.2054  0.6195
  636MOL0     C83846   6.668   9.677  11.515  0.0306  0.3102 -0.8489
  636MOL0     C83847   6.550   9.627  11.575 -0.5513 -0.1495 -0.3430
  636MOL0     C83848   6.550   9.522  11.665  0.2135  0.5784  0.0016
  636MOL0     C83849   6.425   9.462  11.718 -0.7274 -0.1092 -0.1277
  636MOL0     O83850   6.306   9.514  11.687 -0.2223  0.0716  0.1144
  636MOL0     C83851   6.187   9.474  11.747  0.0438  0.1350 -0.4986
  636MOL0     C83852   6.140   9.348  11.724  0.4764 -0.2731 -0.6227
  636MOL0     C83853   6.006   9.307  11.766  0.0514  0.1502  0.4037
  636MOL0     C83854   5.922   9.378  11.847  0.7686 -0.3664  0.4642
  636MOL0     O83855   5.803   9.325  11.888  1.1594 -0.5594 -0.7946
  636MOL0     C83856   5.691   9.412  11.923 -0.1891 -0.1737  1.4208
  636MOL0     C83857   5.578   9.321  11.968  0.4653  0.1619 -0.6333
  636MOL0     C83858   5.431   9.375  11.957  0.1203  1.1165  0.2774
  636MOL0     C83859   5.334   9.291  12.029 -0.1995  0.7999 -0.5645
  636MOL0     C83860   5.200   9.349  12.004  0.3696 -0.7784  0.1913
  636MOL0     C83861   5.096   9.247  12.063 -0.4565  0.3514 -0.3002
  636MOL0     C83862   4.948   9.291  12.021 -0.5239  0.6863 -0.5625
  636MOL0     C83863   4.853   9.171  12.018  0.2248 -0.8131 -0.4515
  636MOL0    Cl83864   4.853   9.103  12.186 -0.1395  0.1299 -0.0309
  636MOL0     C83865   5.969   9.512  11.872 -0.4103 -0.6015  0.5918
  636MOL0     C83866   6.093   9.551  11.820  0.3657 -0.0428 -0.1957
  636MOL0     O83867   6.445   9.384  11.814  0.3903  0.0995  0.1805
  636MOL0     C83868   6.678   9.457  11.679 -0.0964 -0.2567 -0.0430
  636MOL0     C83869   6.797   9.505  11.620 -0.9278  0.0266 -0.0047
  636MOL0     N83870   7.143   9.916  11.152  0.3614  0.2764 -0.3185
  636MOL0     N83871   7.258   9.972  11.157 -1.1828 -0.2203 -0.4070
  636MOL0     C83872   8.038  10.517  10.923 -0.0728 -0.4388  0.1162
  636MOL0     C83873   8.166  10.462  10.925  0.8238  0.4490  0.1596
  636MOL0     C83874   8.486  10.159  11.049  0.2888  0.7824 -0.4949
  636MOL0     C83875   8.587  10.196  10.948  0.4027  0.8510 -0.8196
  636MOL0     C83876   8.728  10.164  10.967 -0.2995  0.3662 -0.0704
  636MOL0     C83877   8.770  10.108  11.092 -0.3123 -0.4197  0.4491
  636MOL0     O83878   8.894  10.064  11.132 -0.1440 -0.2450  0.0981
  636MOL0     C83879   9.018  10.114  11.067 -0.3622 -0.0104  0.6840
  636MOL0     C83880   9.079   9.998  10.998 -0.7809 -0.0121  0.8804
  636MOL0     C83881   9.137   9.886  11.071 -0.0574  0.9379  0.6200
  636MOL0     C83882   9.203   9.793  10.969  1.2062 -0.2412  0.1660
  636MOL0     C83883   9.266   9.669  11.018  0.4658 -0.3110  0.4858
  636MOL0     C83884   9.324   9.576  11.062  0.3740 -0.3315  0.4627
  636MOL0     C83885   8.672  10.086  11.184 -0.8949 -0.0688  0.7378
  636MOL0     C83886   8.533  10.106  11.167  0.2201  0.2345  0.7873
  636MOL0     H83887   8.098  10.137  10.880 -0.6175  0.4615  0.6607
  636MOL0     H83888   7.866  10.230  10.878 -1.2460  1.8313 -0.0981
  636MOL0     H83889   7.842  10.677  10.884  0.8086 -1.5661 -0.8970
  636MOL0     H83890   7.779  10.613  11.036 -1.9356  0.5216  0.8321
  636MOL0     H83891   7.617  10.628  10.770 -1.4213  2.1154 -0.8923
  636MOL0     H83892   7.600  10.737  10.909  0.2281 -1.2765  0.5245
  636MOL0     H83893   7.566  10.503  11.036 -0.5464 -0.0394 -0.5389
  636MOL0     H83894   7.549  10.438  10.875  0.4821  0.7533 -0.4478
  636MOL0     H83895   7.370  10.645  11.004  3.4779  2.4570 -1.0216
  636MOL0     H83896   7.375  10.597  10.820  2.3673 -0.3146  0.0594
  636MOL0     H83897   7.315  10.373  10.872  1.4775 -1.5496  2.7708
  636MOL0     H83898   7.191  10.469  10.946 -0.3662 -0.4147  2.0471
  636MOL0     H83899   7.210  10.341  11.117 -0.3783 -0.9033  1.0187
  636MOL0     H83900   7.339  10.455  11.169  0.7099 -1.3481  0.5810
  636MOL0     H83901   7.352  10.190  11.026 -1.8949  1.4166 -1.0806
  636MOL0     H83902   7.497  10.264  11.083  0.7751 -1.7069 -0.5196
  636MOL0     H83903   7.353  10.254  11.310  4.9606  1.5461  0.4482
  636MOL0     H83904   7.462  10.132  11.249  0.7466  2.0619  0.4846
  636MOL0     H83905   7.074  10.217  11.274  1.9269  1.8764  1.1422
  636MOL0     H83906   6.893   9.889  11.150 -1.3807  1.6756 -1.6371
  636MOL0     H83907   6.855  10.062  11.136 -1.0561  0.8073  1.8885
  636MOL0     H83908   6.741   9.970  11.337  0.8464 -2.8402 -1.1638
  636MOL0     H83909   6.854  10.098  11.382 -1.8474 -0.7544  1.7029
  636MOL0     H83910   7.009   9.925  11.485 -1.0070  0.3416  0.8218
  636MOL0     H83911   6.848   9.899  11.548 -2.1193 -1.0187 -0.2171
  636MOL0     H83912   7.021   9.761  11.353 -0.6249  0.9475 -0.6897
  636MOL0     H83913   6.846   9.726  11.328 -2.1653  0.5380  1.2071
  636MOL0     H83914   6.667   9.761  11.447 -0.3849  0.0154 -1.2108
  636MOL0     H83915   6.454   9.671  11.549 -2.5992 -3.4687  1.0208
  636MOL0     H83916   6.190   9.268  11.670 -0.1472  0.1666 -1.9016
  636MOL0     H83917   5.973   9.204  11.759  0.0259 -0.2077  3.8215
  636MOL0     H83918   5.666   9.470  11.834 -1.0182 -2.2274  0.2625
  636MOL0     H83919   5.705   9.487  12.002 -0.0896  1.4796 -0.1058
  636MOL0     H83920   5.593   9.315  12.076 -2.1530  2.0164 -0.0769
  636MOL0     H83921   5.578   9.228  11.911 -2.0762  0.1129 -0.6868
  636MOL0     H83922   5.409   9.387  11.850 -2.6809  1.7674  0.8384
  636MOL0     H83923   5.429   9.478  11.995 -1.5223  0.1687  3.0204
  636MOL0     H83924   5.345   9.185  12.005  1.0505  0.3466  1.7402
  636MOL0     H83925   5.351   9.287  12.137  1.3631  2.2448 -0.7126
  636MOL0     H83926   5.192   9.359  11.896 -0.1222 -2.2487  0.0775
  636MOL0     H83927   5.202   9.449  12.048  1.5374 -0.2799 -0.9138
  636MOL0     H83928   5.099   9.258  12.171 -0.2582  1.2629 -0.3897
  636MOL0     H83929   5.112   9.141  12.043  0.9200  0.5952 -0.5767
  636MOL0     H83930   4.900   9.362  12.089 -3.7347  1.8148 -3.6761
  636MOL0     H83931   4.959   9.357  11.934 -1.6770 -0.1248 -1.3458
  636MOL0     H83932   4.870   9.104  11.933 -3.6944 -0.2903 -1.8456
  636MOL0     H83933   4.754   9.215  12.003  1.1186  1.0002 -1.3525
  636MOL0     H83934   5.926   9.589  11.935  0.8993  0.6970 -0.0608
  636MOL0     H83935   6.127   9.647  11.857  3.2350  0.2798 -3.1954
  636MOL0     H83936   6.689   9.379  11.754  0.2149  0.5256  0.7271
  636MOL0     H83937   6.895   9.463  11.637  0.2894  2.5559 -0.2349
  636MOL0     H83938   8.032  10.621  10.952  1.8109 -0.2252 -0.1356
  636MOL0     H83939   8.250  10.528  10.948 -1.5595  3.9137 -0.3048
  636MOL0     H83940   8.557  10.246  10.857 -0.6438  0.9463 -0.4383
  636MOL0     H83941   8.800  10.177  10.888  1.3803 -1.0781  1.1350
  636MOL0     H83942   9.083  10.160  11.141 -0.9469  0.2001  1.0726
  636MOL0     H83943   8.992  10.189  10.991 -0.0593 -0.9654 -0.3902
  636MOL0     H83944   8.998   9.975  10.929 -1.1145  1.9979  0.5209
  636MOL0     H83945   9.166  10.036  10.943 -0.8246  1.3489  1.6990
  636MOL0     H83946   9.066   9.819  11.118  2.1165 -0.3710  2.2391
  636MOL0     H83947   9.208   9.928  11.143  0.8868  3.7580 -1.7176
  636MOL0     H83948   9.124   9.758  10.901  1.3581  0.4589 -0.3881
  636MOL0     H83949   9.262   9.853  10.900 -0.6491  1.9185  0.3393
  636MOL0     H83950   9.367   9.483  11.092 -1.8704 -1.6965 -0.2901
  636MOL0     H83951   8.711  10.027  11.266 -1.2059 -1.1052  0.1671
  636MOL0     H83952   8.471  10.075  11.250 -0.0193 -1.6388 -0.0341
  637MOL0     O83953   7.685   7.931   2.352  0.3228 -0.0761  0.7621
  637MOL0     C83954   7.771   7.903   2.431 -0.2508 -0.7573 -0.4384
  637MOL0     O83955   7.762   7.860   2.562  0.6963  0.5509 -0.6338
  637MOL0     C83956   7.640   7.808   2.593  0.5407  0.3019 -0.2362
  637MOL0     C83957   7.632   7.667   2.610 -1.3577  0.1827 -0.3285
  637MOL0     C83958   7.514   7.595   2.638 -0.0945 -0.4522  0.6753
  637MOL0     C83959   7.388   7.667   2.642 -0.0291  0.3376 -0.1257
  637MOL0     O83960   7.274   7.595   2.672 -0.5313  0.4313  0.2114
  637MOL0     C83961   7.147   7.662   2.677 -0.4757 -0.0840 -0.1521
  637MOL0     C83962   7.049   7.556   2.725 -0.1619 -0.0474 -1.0638
  637MOL0     C83963   6.907   7.621   2.714  0.5237 -0.4698 -0.3335
  637MOL0     C83964   6.796   7.524   2.766 -0.0012  0.0480  0.3810
  637MOL0     C83965   6.664   7.599   2.759 -0.1789  0.3803 -0.6083
  637MOL0     C83966   6.558   7.502   2.822 -0.4812 -0.1111 -0.1618
  637MOL0     C83967   6.420   7.571   2.834 -0.4397 -0.1204 -0.9575
  637MOL0     C83968   6.300   7.501   2.755 -0.6505 -0.5706  0.1475
  637MOL0     N83969   6.260   7.379   2.835 -0.3796 -0.0620  0.2313
  637MOL0     C83970   6.320   7.249   2.810  0.0034 -0.4110 -0.1101
  637MOL0     C83971   6.273   7.177   2.919  0.4863  0.2795  0.1804
  637MOL0     C83972   6.284   7.028   2.928 -0.2543 -0.0411 -0.7531
  637MOL0     C83973   6.211   6.944   2.829  0.5220  0.0073 -0.0650
  637MOL0     C83974   6.063   6.978   2.802  0.5950  0.3635  0.2844
  637MOL0     C83975   5.976   6.966   2.914  0.0078 -0.1098 -0.1343
  637MOL0     O83976   5.964   6.833   2.963  0.0753 -0.0921 -0.1845
  637MOL0     C83977   5.854   6.812   3.046 -1.6298 -0.3061  0.2139
  637MOL0     C83978   5.812   6.909   3.138  0.1072 -0.3903  0.1948
  637MOL0     C83979   5.686   6.898   3.195  1.4107 -0.1016  0.5112
  637MOL0     C83980   5.610   6.785   3.183  0.8020 -0.2176 -0.6269
  637MOL0     C83981   5.483   6.773   3.268 -0.3833  0.2911  0.9070
  637MOL0     O83982   5.402   6.663   3.241  0.1820 -0.1058  0.0939
  637MOL0     C83983   5.281   6.655   3.313 -0.1543  0.0909 -0.5664
  637MOL0     C83984   5.183   6.757   3.292 -0.6537 -0.0619 -0.3080
  637MOL0     C83985   5.051   6.742   3.349  0.2128 -0.7385  0.0690
  637MOL0     C83986   5.013   6.627   3.421 -0.3870  0.0061 -0.4613
  637MOL0     O83987   4.877   6.610   3.454  0.0322 -0.3126 -0.5022
  637MOL0     C83988   4.845   6.496   3.526  0.9271 -0.2172 -0.5127
  637MOL0     C83989   4.691   6.518   3.563  0.1417  0.7706 -0.4068
  637MOL0     C83990   4.637   6.394   3.619  0.9632 -0.2206 -0.0691
  637MOL0     C83991   4.496   6.431   3.683 -0.7982  0.8229 -0.1953
  637MOL0     C83992   4.428   6.309   3.738  0.6086  0.5138 -0.3810
  637MOL0     C83993   4.299   6.357   3.812 -0.5467  0.6374  0.4205
  637MOL0     C83994   4.220   6.250   3.874 -0.0646 -0.1269 -0.5034
  637MOL0     C83995   4.098   6.318   3.955 -0.3396  0.0152  0.4009
  637MOL0    Cl83996   4.010   6.201   4.054  0.1591 -0.1706 -0.1086
  637MOL0     C83997   5.112   6.526   3.442 -0.1814  0.1323  0.3975
  637MOL0     C83998   5.250   6.541   3.391 -0.0383 -0.2860  0.0274
  637MOL0     O83999   5.457   6.857   3.353  0.0511  0.4072  1.1967
  637MOL0     C84000   5.649   6.693   3.101 -0.0804 -0.1385  0.2111
  637MOL0     C84001   5.775   6.697   3.031 -0.5458  0.1867  0.5059
  637MOL0     N84002   6.180   7.260   2.989 -1.0278  0.8187  0.3692
  637MOL0     N84003   6.186   7.380   2.944  0.8099  0.1395 -0.2291
  637MOL0     C84004   7.393   7.804   2.613 -0.3013 -0.4378  0.5995
  637MOL0     C84005   7.508   7.874   2.589 -0.7084 -0.5042  0.0446
  637MOL0     C84006   7.913   7.944   2.393 -0.2671 -0.1099  0.2551
  637MOL0     C84007   7.955   7.977   2.261  0.3696  0.0847 -0.2060
  637MOL0     C84008   8.086   8.010   2.231 -0.5563 -0.3374  0.2102
  637MOL0     C84009   8.191   8.020   2.329 -0.1304  0.2296  0.9451
  637MOL0     O84010   8.323   8.056   2.307 -0.1375  0.8119  0.0242
  637MOL0     C84011   8.369   8.075   2.172  0.6593  0.2965 -0.5787
  637MOL0     C84012   8.515   8.103   2.176 -0.3992  0.3663  0.4001
  637MOL0     C84013   8.550   8.231   2.258 -0.2544  0.4930 -0.0043
  637MOL0     C84014   8.693   8.246   2.270  0.7098 -0.0284  0.0088
  637MOL0     C84015   8.710   8.366   2.353  0.2943 -0.6711  0.1523
  637MOL0     C84016   8.717   8.465   2.426  0.1309  0.4249  0.6719
  637MOL0     C84017   8.150   7.988   2.459 -0.2753 -0.8598  0.5582
  637MOL0     C84018   8.018   7.956   2.488 -0.4083  0.2103  0.2292
  637MOL0     H84019   7.721   7.607   2.595 -1.3652  0.1401 -0.2081
  637MOL0     H84020   7.521   7.487   2.643 -1.1594 -0.7515 -2.5413
  637MOL0     H84021   7.140   7.685   2.570 -0.0422 -1.0528 -0.3983
  637MOL0     H84022   7.148   7.753   2.738  3.0197  2.2726 -3.2290
  637MOL0     H84023   7.073   7.527   2.828 -0.2414  0.3215 -0.9399
  637MOL0     H84024   7.071   7.467   2.665  3.1731 -0.1755  0.1377
  637MOL0     H84025   6.893   7.654   2.610  0.2240  0.9746  0.1391
  637MOL0     H84026   6.888   7.708   2.778 -3.5334 -0.9405 -0.6981
  637MOL0     H84027   6.791   7.437   2.699  0.2148  0.7568 -0.5775
  637MOL0     H84028   6.823   7.493   2.868 -1.1274 -1.1416  0.3427
  637MOL0     H84029   6.635   7.621   2.656 -1.6575  2.9531  0.2673
  637MOL0     H84030   6.665   7.698   2.806  1.8295 -0.5512  1.4917
  637MOL0     H84031   6.593   7.483   2.924 -0.6143  1.9568  0.2977
  637MOL0     H84032   6.542   7.410   2.765 -1.2864  0.1512 -0.3674
  637MOL0     H84033   6.389   7.559   2.938 -1.4832 -1.9419 -1.4306
  637MOL0     H84034   6.431   7.676   2.807  3.9831  0.8634  3.1714
  637MOL0     H84035   6.322   7.478   2.650  0.1474  0.4118  0.0940
  637MOL0     H84036   6.215   7.570   2.759 -0.8571 -0.7794 -0.4625
  637MOL0     H84037   6.364   7.220   2.715 -2.0089 -1.0759 -0.9095
  637MOL0     H84038   6.244   7.013   3.029 -1.7512  0.4939 -1.2248
  637MOL0     H84039   6.389   6.999   2.922 -0.0616  0.6910 -1.1062
  637MOL0     H84040   6.206   6.839   2.860  2.3452 -1.0161 -2.8619
  637MOL0     H84041   6.270   6.944   2.737 -0.1977  1.9347 -0.5761
  637MOL0     H84042   6.065   7.076   2.753  1.0157 -0.0766 -0.5857
  637MOL0     H84043   6.012   6.915   2.729  1.2391 -0.3968  0.4793
  637MOL0     H84044   5.880   7.001   2.875 -1.0078 -1.9773  0.6128
  637MOL0     H84045   6.013   7.042   2.983  0.5688  0.3237 -0.8915
  637MOL0     H84046   5.879   6.993   3.155  2.3342 -1.5333 -2.2747
  637MOL0     H84047   5.644   6.961   3.273 -0.7706 -0.0533 -0.6131
  637MOL0     H84048   5.208   6.836   3.222  0.2458  0.0214  0.0945
  637MOL0     H84049   4.968   6.812   3.340  1.0801  0.7219  2.4056
  637MOL0     H84050   4.904   6.496   3.618  1.2963 -1.6280 -0.7242
  637MOL0     H84051   4.870   6.403   3.473  2.5531  1.6117 -3.2126
  637MOL0     H84052   4.628   6.549   3.478 -3.0199 -1.4398  0.9379
  637MOL0     H84053   4.689   6.592   3.644  0.5160 -1.0363  1.3217
  637MOL0     H84054   4.708   6.360   3.695  1.8898  0.1344 -0.7587
  637MOL0     H84055   4.627   6.318   3.541 -3.2429  0.1764 -0.1206
  637MOL0     H84056   4.511   6.514   3.753  2.6964 -0.6081  0.9847
  637MOL0     H84057   4.440   6.475   3.599  2.7724  2.7482 -1.7914
  637MOL0     H84058   4.503   6.279   3.812  1.9275  2.3073 -0.9092
  637MOL0     H84059   4.413   6.228   3.667 -0.3638  1.7989 -1.6777
  637MOL0     H84060   4.249   6.422   3.739  1.0578  1.7241  0.2266
  637MOL0     H84061   4.332   6.425   3.891  2.1116  0.6593 -0.6166
  637MOL0     H84062   4.187   6.181   3.796  0.2754 -1.8722  0.8455
  637MOL0     H84063   4.283   6.199   3.948  1.2594 -0.3223 -1.7208
  637MOL0     H84064   4.030   6.361   3.880  1.8803  1.4402 -0.8876
  637MOL0     H84065   4.124   6.397   4.027 -4.1172  0.0047  2.0072
  637MOL0     H84066   5.095   6.428   3.486 -3.4488  0.2450 -0.3382
  637MOL0     H84067   5.321   6.460   3.401  2.5284  1.6885 -0.9604
  637MOL0     H84068   5.593   6.604   3.074  1.1159 -0.7893 -0.2494
  637MOL0     H84069   5.807   6.627   2.955  1.9821  0.1957  1.4699
  637MOL0     H84070   7.297   7.855   2.617 -0.8592 -1.5060  1.4813
  637MOL0     H84071   7.496   7.978   2.559  0.0381 -0.2234  0.7052
  637MOL0     H84072   7.881   7.963   2.183  1.5758  0.7053 -1.5148
  637MOL0     H84073   8.104   8.034   2.126 -2.9701 -0.1614 -0.2026
  637MOL0     H84074   8.312   8.162   2.138  0.9770  0.2213 -1.3086
  637MOL0     H84075   8.354   7.985   2.112 -1.3103 -1.6033  2.4312
  637MOL0     H84076   8.569   8.030   2.237  4.4418 -0.1655 -3.7994
  637MOL0     H84077   8.554   8.107   2.074 -1.8932  1.4826 -0.1488
  637MOL0     H84078   8.508   8.223   2.359  0.3610 -0.3156  0.1955
  637MOL0     H84079   8.500   8.309   2.199 -1.4856  0.6775  1.2183
  637MOL0     H84080   8.732   8.160   2.324 -2.7712 -0.4677  2.1743
  637MOL0     H84081   8.748   8.259   2.177 -0.3999  1.4204 -0.4899
  637MOL0     H84082   8.751   8.556   2.471  1.6922  1.7994 -2.9586
  637MOL0     H84083   8.221   7.990   2.541  1.0584 -0.3616 -0.5684
  637MOL0     H84084   7.987   7.945   2.591 -0.9593 -1.3584 -0.0709
  638MOL0     O84085   5.080   1.711   2.340 -0.2205 -0.5465  0.3989
  638MOL0     C84086   5.102   1.630   2.250  0.0183  0.4659 -0.1689
  638MOL0     O84087   5.217   1.556   2.236  0.1563  0.5528 -0.2667
  638MOL0     C84088   5.316   1.571   2.329  0.2513  0.7940  0.8967
  638MOL0     C84089   5.364   1.698   2.379  0.2938 -0.2541  0.1667
  638MOL0     C84090   5.466   1.708   2.477  0.1525  0.4391  0.0353
  638MOL0     C84091   5.511   1.589   2.524 -1.2585  0.1140 -0.5542
  638MOL0     O84092   5.611   1.600   2.620 -0.1335 -0.3442  0.1808
  638MOL0     C84093   5.735   1.529   2.607  0.1927 -0.5921 -0.0695
  638MOL0     C84094   5.851   1.634   2.635  0.0928  0.1608 -0.4653
  638MOL0     C84095   5.983   1.563   2.667 -0.8769 -0.7677  0.3776
  638MOL0     C84096   6.098   1.663   2.642 -0.1207 -0.6106 -0.8449
  638MOL0     C84097   6.234   1.624   2.693  0.2075 -0.8392 -0.9187
  638MOL0     C84098   6.354   1.684   2.610  0.1366  0.3364 -0.1147
  638MOL0     C84099   6.495   1.658   2.656 -0.0817  0.4500 -0.1749
  638MOL0     C84100   6.540   1.505   2.653 -0.4831  0.6939  0.6652
  638MOL0     N84101   6.592   1.464   2.523  0.1128  0.2539  0.4674
  638MOL0     C84102   6.719   1.489   2.472  0.2834 -0.9958 -0.8907
  638MOL0     C84103   6.711   1.481   2.342  0.0256  0.8536  0.5881
  638MOL0     C84104   6.815   1.491   2.237 -0.1254 -0.4797 -0.0026
  638MOL0     C84105   6.916   1.381   2.239  0.3975 -0.2889 -0.5007
  638MOL0     C84106   7.002   1.379   2.110  0.4368 -0.2005  0.0944
  638MOL0     C84107   7.089   1.256   2.114 -0.8062  0.4765  0.6824
  638MOL0     O84108   7.189   1.284   2.009  0.5451 -0.8078 -0.0136
  638MOL0     C84109   7.315   1.231   2.044  0.4413  0.3486 -0.0136
  638MOL0     C84110   7.341   1.112   2.112  0.0505 -0.4286 -0.0290
  638MOL0     C84111   7.469   1.067   2.136  0.3299 -0.1751  0.2428
  638MOL0     C84112   7.585   1.143   2.086  0.5248  0.2317 -0.3186
  638MOL0     C84113   7.720   1.094   2.119  0.1567 -1.1452  0.9369
  638MOL0     O84114   7.828   1.175   2.087  0.1991  0.4114  0.5807
  638MOL0     C84115   7.947   1.170   2.155 -0.3727 -0.1690 -0.1394
  638MOL0     C84116   7.970   1.100   2.274  0.1862  0.1524 -0.4508
  638MOL0     C84117   8.103   1.098   2.334  0.7702  0.1119 -0.6346
  638MOL0     C84118   8.208   1.173   2.273 -0.0012  0.6196 -0.7818
  638MOL0     O84119   8.323   1.155   2.350  0.1078 -0.3243  0.2594
  638MOL0     C84120   8.447   1.203   2.296  0.6355  0.6968 -0.3633
  638MOL0     C84121   8.573   1.184   2.389 -0.2995 -0.3629  0.2315
  638MOL0     C84122   8.577   1.279   2.510 -0.1976  0.0651  0.5933
  638MOL0     C84123   8.715   1.279   2.571  0.7380 -0.7410  0.1291
  638MOL0     C84124   8.717   1.385   2.685  0.3971 -0.4584  0.1126
  638MOL0     C84125   8.634   1.364   2.807 -0.7711  0.4356 -0.5441
  638MOL0     C84126   8.657   1.472   2.908 -0.0506  0.1229 -0.3480
  638MOL0     C84127   8.595   1.449   3.054 -0.3393 -0.9057 -0.8846
  638MOL0    Cl84128   8.676   1.317   3.137 -0.4092 -0.2261 -0.0365
  638MOL0     C84129   8.186   1.231   2.152 -0.8624 -0.3514 -0.0493
  638MOL0     C84130   8.061   1.233   2.093 -0.5384 -0.3192 -0.7579
  638MOL0     O84131   7.719   0.985   2.166  0.0901  0.3038 -1.2377
  638MOL0     C84132   7.554   1.261   2.013 -0.1189 -0.2704  0.0629
  638MOL0     C84133   7.424   1.303   1.992  0.6216 -0.2582 -0.9720
  638MOL0     N84134   6.580   1.433   2.307 -1.1406 -0.2294  0.5520
  638MOL0     N84135   6.510   1.424   2.419 -0.2420 -0.5890 -0.0246
  638MOL0     C84136   5.472   1.466   2.476 -0.1027  0.0746 -1.3190
  638MOL0     C84137   5.378   1.463   2.377 -0.3059  0.0246  0.3712
  638MOL0     C84138   4.983   1.596   2.160  0.2982  0.0553  0.3048
  638MOL0     C84139   4.860   1.667   2.163  0.4105  0.2204  0.0775
  638MOL0     C84140   4.753   1.619   2.081  0.4121 -0.8464  0.3716
  638MOL0     C84141   4.764   1.506   1.998  0.6288  0.0910 -1.1203
  638MOL0     O84142   4.669   1.474   1.909  0.1387 -0.0559  0.3839
  638MOL0     C84143   4.535   1.450   1.942  0.0615  0.3642  0.1304
  638MOL0     C84144   4.436   1.440   1.825  0.3645  1.0085  0.5274
  638MOL0     C84145   4.299   1.497   1.859  0.5436  0.4706 -0.6493
  638MOL0     C84146   4.188   1.472   1.752 -0.0935  0.4343  0.2098
  638MOL0     C84147   4.049   1.447   1.795 -0.3941 -0.1889 -0.1540
  638MOL0     C84148   3.943   1.408   1.848 -0.4414  0.5941 -1.2569
  638MOL0     C84149   4.882   1.432   1.995  0.2900 -0.2025 -0.6330
  638MOL0     C84150   4.987   1.474   2.080 -0.7417 -0.2571  0.5480
  638MOL0     H84151   5.324   1.796   2.353  3.8430  1.7201  1.4143
  638MOL0     H84152   5.496   1.798   2.528 -0.2108  0.2838  0.5350
  638MOL0     H84153   5.738   1.486   2.506  1.7924 -0.6336 -0.0323
  638MOL0     H84154   5.756   1.443   2.671 -0.4384  0.2323  1.2746
  638MOL0     H84155   5.837   1.698   2.723  2.1513  0.3339 -0.1961
  638MOL0     H84156   5.858   1.709   2.556  2.8595 -0.9650 -1.4311
  638MOL0     H84157   5.999   1.480   2.598 -0.3476  0.3829 -0.9360
  638MOL0     H84158   5.983   1.542   2.774 -1.1820  4.3040  1.6171
  638MOL0     H84159   6.100   1.689   2.536 -2.4670  0.6935 -0.6297
  638MOL0     H84160   6.062   1.744   2.707 -3.9364 -1.8465 -1.1903
  638MOL0     H84161   6.239   1.515   2.703  1.5715 -0.7708 -0.6741
  638MOL0     H84162   6.234   1.655   2.798  1.6529  0.9869 -1.4102
  638MOL0     H84163   6.337   1.791   2.602 -0.9572  0.1641 -0.2727
  638MOL0     H84164   6.342   1.633   2.514  0.0820 -0.5400  0.3463
  638MOL0     H84165   6.565   1.711   2.592 -1.1147 -0.5248 -2.1921
  638MOL0     H84166   6.491   1.687   2.762 -0.4292 -2.5045  0.7102
  638MOL0     H84167   6.449   1.446   2.670  0.1027 -1.7967 -3.3960
  638MOL0     H84168   6.610   1.479   2.732 -0.4871 -2.1288 -0.1400
  638MOL0     H84169   6.809   1.511   2.529  1.2027  0.3739 -2.7789
  638MOL0     H84170   6.870   1.584   2.253 -2.4712  1.2150 -1.3209
  638MOL0     H84171   6.764   1.497   2.140 -3.2395  1.1569  1.5867
  638MOL0     H84172   6.860   1.288   2.243 -0.8127  0.3863 -1.1716
  638MOL0     H84173   6.982   1.390   2.326 -1.7697 -2.1072  1.4711
  638MOL0     H84174   6.939   1.389   2.021 -1.7098  0.3001  1.6054
  638MOL0     H84175   7.071   1.464   2.107  1.2596 -0.7862  1.3592
  638MOL0     H84176   7.034   1.165   2.091 -0.7079  0.9598 -1.7775
  638MOL0     H84177   7.133   1.251   2.214  1.6112  0.5669 -0.3025
  638MOL0     H84178   7.253   1.056   2.142 -0.8378  1.2850  0.6576
  638MOL0     H84179   7.486   0.982   2.201 -2.1646 -1.7463 -1.0148
  638MOL0     H84180   7.892   1.048   2.329 -1.2589  0.0938 -2.4650
  638MOL0     H84181   8.118   1.044   2.427  1.8795 -2.7002 -2.3205
  638MOL0     H84182   8.453   1.303   2.252  2.1424  0.6475 -0.3103
  638MOL0     H84183   8.471   1.136   2.213 -0.3193  1.8231 -1.5958
  638MOL0     H84184   8.655   1.205   2.320 -2.0107  1.5061 -1.3800
  638MOL0     H84185   8.576   1.075   2.405  2.5852 -0.1319  2.0562
  638MOL0     H84186   8.505   1.257   2.590 -0.3648 -2.9128 -0.2659
  638MOL0     H84187   8.545   1.373   2.464  0.6763 -0.2211 -0.6397
  638MOL0     H84188   8.748   1.187   2.621 -0.0935 -0.4428  1.2575
  638MOL0     H84189   8.788   1.311   2.496  0.2154 -0.5890 -0.3295
  638MOL0     H84190   8.686   1.478   2.635  1.2624  0.0189  0.4443
  638MOL0     H84191   8.819   1.393   2.723  0.0100  0.7109  0.9814
  638MOL0     H84192   8.681   1.278   2.856 -2.9690 -0.0531  0.8840
  638MOL0     H84193   8.528   1.346   2.784 -0.0963 -1.3352 -2.5791
  638MOL0     H84194   8.764   1.490   2.919 -0.5056  1.4188  3.2445
  638MOL0     H84195   8.611   1.561   2.863 -5.8866 -1.0732  2.2081
  638MOL0     H84196   8.487   1.437   3.051 -0.7590  2.0664 -0.3190
  638MOL0     H84197   8.601   1.539   3.115  2.4345 -1.5558 -0.0318
  638MOL0     H84198   8.250   1.298   2.094 -0.3396 -1.0343 -0.2811
  638MOL0     H84199   8.051   1.277   1.994 -1.1491 -1.8359 -1.3960
  638MOL0     H84200   7.638   1.320   1.977  0.8055 -1.4889  0.1702
  638MOL0     H84201   7.407   1.405   1.958  2.0976  0.5669  0.5812
  638MOL0     H84202   5.509   1.368   2.508  1.2122  1.0957  0.4943
  638MOL0     H84203   5.345   1.363   2.351  1.5013 -0.3061 -0.8209
  638MOL0     H84204   4.857   1.752   2.230 -0.5164 -0.8009  1.3796
  638MOL0     H84205   4.657   1.670   2.087  1.4415  1.4268 -0.9940
  638MOL0     H84206   4.501   1.538   1.999 -0.1489  1.9268 -2.2824
  638MOL0     H84207   4.537   1.361   2.006  0.2069  0.6009  0.4586
  638MOL0     H84208   4.483   1.492   1.741  2.4677 -2.0589 -0.3387
  638MOL0     H84209   4.425   1.334   1.801 -3.1403  0.7316  2.6712
  638MOL0     H84210   4.293   1.603   1.888 -0.2612  0.0951  0.6288
  638MOL0     H84211   4.274   1.453   1.956  1.5926  2.1748  0.4502
  638MOL0     H84212   4.199   1.544   1.671  1.1663 -0.6006 -0.5809
  638MOL0     H84213   4.210   1.374   1.708  1.1032 -1.1775  3.9421
  638MOL0     H84214   3.865   1.345   1.887  1.6712 -2.1297 -1.1763
  638MOL0     H84215   4.893   1.348   1.927 -2.0997 -1.6635  0.6551
  638MOL0     H84216   5.081   1.420   2.091 -0.3604  0.8274  3.4672
  639MOL0     O84217   8.274   6.390   4.615  0.3775  0.1263  0.0075
  639MOL0     C84218   8.312   6.326   4.706  0.0699  0.1562  1.2778
  639MOL0     O84219   8.276   6.200   4.739  0.1819 -0.3412 -0.2115
  639MOL0     C84220   8.191   6.129   4.654  0.1583  0.2129  0.2087
  639MOL0     C84221   8.228   6.006   4.600 -0.0733 -0.5168  0.3686
  639MOL0     C84222   8.132   5.924   4.545  0.0793 -0.5167  0.7353
  639MOL0     C84223   8.005   5.965   4.524  0.3562 -0.4155 -0.7645
  639MOL0     O84224   7.908   5.900   4.445  0.7107  1.2255 -0.3471
  639MOL0     C84225   7.940   5.786   4.360  1.1053  0.7287  0.3414
  639MOL0     C84226   7.827   5.769   4.251 -0.1252  0.1898 -0.3040
  639MOL0     C84227   7.703   5.696   4.304 -1.0462  0.6365 -1.1958
  639MOL0     C84228   7.577   5.703   4.214 -0.3405  0.2684  0.1460
  639MOL0     C84229   7.541   5.849   4.170 -0.0041  1.1024  0.5484
  639MOL0     C84230   7.400   5.863   4.109 -0.2816  0.8646 -0.3407
  639MOL0     C84231   7.405   5.811   3.966 -0.4597 -0.5256 -1.1577
  639MOL0     C84232   7.272   5.813   3.896 -0.3288  0.0684  0.1895
  639MOL0     N84233   7.179   5.703   3.924  0.9461 -0.0743  0.4182
  639MOL0     C84234   7.170   5.636   4.047 -0.4950 -0.6495  0.0987
  639MOL0     C84235   7.063   5.556   4.032  0.4344 -0.1231  0.0665
  639MOL0     C84236   7.007   5.470   4.145  0.0517 -0.7544 -0.2220
  639MOL0     C84237   6.901   5.542   4.229 -0.5752 -0.1719 -0.3961
  639MOL0     C84238   6.866   5.469   4.359 -1.1314 -0.8244 -0.4006
  639MOL0     C84239   6.985   5.431   4.442 -0.0328  0.4694  0.2899
  639MOL0     O84240   7.052   5.552   4.474 -0.1620 -0.1768 -0.6586
  639MOL0     C84241   7.175   5.554   4.527 -0.0915 -0.5283  0.1716
  639MOL0     C84242   7.225   5.681   4.554 -0.0499 -0.6233 -0.2726
  639MOL0     C84243   7.350   5.707   4.606 -1.2662 -0.8676 -0.4774
  639MOL0     C84244   7.425   5.601   4.650 -0.0293 -0.3995 -0.4882
  639MOL0     C84245   7.552   5.618   4.718  0.9289  0.6248  0.9213
  639MOL0     O84246   7.623   5.722   4.668 -0.2413 -0.4514  0.1410
  639MOL0     C84247   7.737   5.747   4.743 -0.2748 -0.4797  0.0705
  639MOL0     C84248   7.722   5.819   4.868 -0.0963  0.7601 -0.0994
  639MOL0     C84249   7.835   5.841   4.951 -0.2396 -0.4796 -0.2848
  639MOL0     C84250   7.959   5.815   4.899 -0.2863 -0.4448 -0.3768
  639MOL0     O84251   8.063   5.857   4.983 -0.1041 -0.1009 -0.3337
  639MOL0     C84252   8.196   5.811   4.960  0.0701 -0.1371 -0.1500
  639MOL0     C84253   8.268   5.880   5.075 -0.1024  0.1112 -1.3231
  639MOL0     C84254   8.245   6.033   5.078  0.8945  0.3936 -0.0184
  639MOL0     C84255   8.342   6.110   5.162  0.0590  0.4000 -0.4484
  639MOL0     C84256   8.311   6.259   5.149 -0.1163  0.3853  0.0181
  639MOL0     C84257   8.200   6.318   5.237 -0.0791  0.7882 -0.4036
  639MOL0     C84258   8.267   6.382   5.357 -0.6014 -0.4047 -0.1136
  639MOL0     C84259   8.160   6.433   5.456  0.0170 -0.2567 -0.6815
  639MOL0    Cl84260   8.032   6.545   5.395 -0.1548 -0.2136 -0.1283
  639MOL0     C84261   7.970   5.725   4.785  1.7926 -0.3913 -0.0623
  639MOL0     C84262   7.859   5.695   4.703  0.3362 -0.6056  0.5782
  639MOL0     O84263   7.585   5.544   4.805  0.0715  0.0999 -0.3545
  639MOL0     C84264   7.379   5.465   4.617  0.1926 -0.5573  0.2509
  639MOL0     C84265   7.250   5.445   4.559 -0.8415  1.3502 -0.1439
  639MOL0     N84266   7.011   5.567   3.904 -0.2878  1.2628  0.7400
  639MOL0     N84267   7.077   5.658   3.842 -0.1351 -0.5308  0.0695
  639MOL0     C84268   7.959   6.090   4.577 -0.1144  0.4950 -0.1332
  639MOL0     C84269   8.052   6.164   4.646  0.7048 -0.5383  0.5893
  639MOL0     C84270   8.429   6.370   4.785 -0.8679  0.7661  0.0615
  639MOL0     C84271   8.501   6.286   4.869 -0.8116  0.0543  1.2969
  639MOL0     C84272   8.601   6.343   4.946  0.0694 -0.5291 -0.5913
  639MOL0     C84273   8.630   6.475   4.946 -0.5427  0.6070  0.2544
  639MOL0     O84274   8.728   6.527   5.030  0.6148  0.3039  0.4428
  639MOL0     C84275   8.712   6.518   5.177  0.4960 -0.1946  0.6346
  639MOL0     C84276   8.597   6.613   5.244 -0.4385 -0.0104  0.1647
  639MOL0     C84277   8.584   6.598   5.399 -0.2414  0.4052 -0.5482
  639MOL0     C84278   8.547   6.734   5.462 -0.3921  0.0564  0.7057
  639MOL0     C84279   8.413   6.764   5.436  0.3835 -0.0986 -0.2939
  639MOL0     C84280   8.301   6.803   5.404  0.1627 -0.2820  1.3768
  639MOL0     C84281   8.564   6.554   4.851 -0.2177 -0.2955 -1.1382
  639MOL0     C84282   8.469   6.503   4.771 -0.3566 -0.5342 -0.6397
  639MOL0     H84283   8.332   5.976   4.602 -0.1976 -1.1981  4.0513
  639MOL0     H84284   8.156   5.830   4.496 -3.3571 -2.7694  2.9077
  639MOL0     H84285   7.957   5.693   4.415  1.0186 -0.0182 -0.8684
  639MOL0     H84286   8.031   5.808   4.303  1.1464 -0.0550  0.0862
  639MOL0     H84287   7.866   5.724   4.160 -1.7436 -1.2199 -0.3589
  639MOL0     H84288   7.807   5.875   4.237  0.8613  0.7276  1.9648
  639MOL0     H84289   7.680   5.718   4.409 -2.3343  0.0441 -1.3307
  639MOL0     H84290   7.726   5.591   4.323 -3.0983 -0.1206 -2.5606
  639MOL0     H84291   7.597   5.642   4.125 -0.9345 -1.0375  0.8835
  639MOL0     H84292   7.494   5.649   4.259 -0.5385 -1.8505 -2.5322
  639MOL0     H84293   7.617   5.888   4.101  0.1874 -0.1636  0.0174
  639MOL0     H84294   7.554   5.889   4.270  1.2216  0.0963  0.8198
  639MOL0     H84295   7.370   5.968   4.105 -2.9002  0.2872  1.5519
  639MOL0     H84296   7.327   5.814   4.173  2.1333  0.8520  2.6381
  639MOL0     H84297   7.478   5.870   3.910 -1.5436  0.4773 -1.5592
  639MOL0     H84298   7.441   5.708   3.965 -0.8483 -0.6665 -0.9236
  639MOL0     H84299   7.294   5.805   3.789  2.6998  0.9205  0.6588
  639MOL0     H84300   7.228   5.913   3.910 -0.0010  0.1142  0.9258
  639MOL0     H84301   7.226   5.652   4.139 -0.1491  2.9425 -0.5923
  639MOL0     H84302   7.095   5.437   4.201 -2.6389 -2.1031  3.6468
  639MOL0     H84303   6.962   5.378   4.108 -2.2792  1.3068 -2.9983
  639MOL0     H84304   6.814   5.570   4.170 -0.9512 -1.5053 -0.5037
  639MOL0     H84305   6.943   5.643   4.241  0.0859 -0.4814 -0.0312
  639MOL0     H84306   6.804   5.537   4.417 -0.7111  1.5157 -2.5252
  639MOL0     H84307   6.806   5.380   4.336  0.4123 -3.2474  3.9337
  639MOL0     H84308   7.052   5.359   4.396 -0.8386  0.6610 -1.2604
  639MOL0     H84309   6.944   5.382   4.531  2.5263 -1.1632  0.6731
  639MOL0     H84310   7.160   5.765   4.534 -1.8811 -1.8953  0.0914
  639MOL0     H84311   7.385   5.808   4.622  2.4414 -1.8149 -1.5234
  639MOL0     H84312   7.621   5.831   4.905 -0.8705 -4.8447  0.4522
  639MOL0     H84313   7.828   5.882   5.051  1.2077 -0.6565 -0.0996
  639MOL0     H84314   8.231   5.857   4.867 -1.2538  1.8367  0.2650
  639MOL0     H84315   8.198   5.702   4.954 -0.2486 -0.0699 -2.4447
  639MOL0     H84316   8.372   5.853   5.092 -0.0056  1.5132  0.7308
  639MOL0     H84317   8.226   5.856   5.173 -1.7763  2.9372 -1.2310
  639MOL0     H84318   8.148   6.052   5.125  0.6987  1.9478 -0.9903
  639MOL0     H84319   8.250   6.068   4.975  1.3588 -1.9783 -0.8798
  639MOL0     H84320   8.350   6.071   5.263  2.0544 -1.7449 -1.3553
  639MOL0     H84321   8.444   6.096   5.124  0.6930 -2.2866  1.9365
  639MOL0     H84322   8.285   6.276   5.044 -2.9856 -2.7844  0.0389
  639MOL0     H84323   8.398   6.323   5.169 -1.2140  3.3863 -3.5892
  639MOL0     H84324   8.121   6.258   5.283 -2.2894  3.8623  0.1223
  639MOL0     H84325   8.157   6.393   5.170 -1.1564  1.5316  1.0703
  639MOL0     H84326   8.330   6.307   5.406 -0.7749  0.1919  1.0481
  639MOL0     H84327   8.324   6.464   5.313  0.2654 -1.5668 -1.2417
  639MOL0     H84328   8.213   6.486   5.535 -0.3076  1.4331 -1.5338
  639MOL0     H84329   8.114   6.342   5.496  1.6157 -0.8111 -0.0516
  639MOL0     H84330   8.067   5.683   4.758 -0.9864 -6.6306 -2.3182
  639MOL0     H84331   7.867   5.631   4.616 -0.7440  0.5006 -0.3805
  639MOL0     H84332   7.445   5.384   4.646 -0.5303 -0.4221  2.4205
  639MOL0     H84333   7.226   5.342   4.536  0.4829  0.3686  2.4579
  639MOL0     H84334   7.853   6.109   4.561  0.1278  0.6249 -1.7807
  639MOL0     H84335   8.010   6.241   4.709 -0.7613 -0.8825  0.0907
  639MOL0     H84336   8.468   6.184   4.887  3.5102 -1.3383  2.6701
  639MOL0     H84337   8.648   6.280   5.021 -1.8308 -1.4688 -0.1112
  639MOL0     H84338   8.803   6.551   5.228 -1.0236 -1.8674  4.8849
  639MOL0     H84339   8.696   6.411   5.192 -2.1252 -0.0857 -0.7191
  639MOL0     H84340   8.626   6.715   5.218  3.1365 -1.0159 -0.2908
  639MOL0     H84341   8.498   6.580   5.211  0.1328 -0.8547 -0.7653
  639MOL0     H84342   8.685   6.580   5.437 -0.2338  4.6962  2.2228
  639MOL0     H84343   8.509   6.521   5.421 -1.1469  1.2139 -0.7225
  639MOL0     H84344   8.551   6.715   5.570 -0.9737 -1.8965  0.4192
  639MOL0     H84345   8.611   6.821   5.446 -1.8374  0.8053 -1.3232
  639MOL0     H84346   8.204   6.842   5.379  0.6840  0.9307  1.1367
  639MOL0     H84347   8.584   6.661   4.844  1.5451 -0.5411 -0.3759
  639MOL0     H84348   8.412   6.566   4.704 -0.4516 -0.5285 -0.5540
  640MOL0     O84349   4.375   3.459   2.979 -0.2023  0.5509 -0.2139
  640MOL0     C84350   4.432   3.352   2.953  0.4070  0.5098  0.5760
  640MOL0     O84351   4.365   3.249   2.895  0.3179  0.3212  0.5982
  640MOL0     C84352   4.229   3.265   2.869  0.3568  0.2530  0.2749
  640MOL0     C84353   4.177   3.275   2.747 -0.1074 -0.2840 -0.3273
  640MOL0     C84354   4.039   3.285   2.733 -0.0095  0.8060  0.3311
  640MOL0     C84355   3.946   3.289   2.842 -0.2471  0.3158 -0.2356
  640MOL0     O84356   3.814   3.293   2.825  0.6982  0.0124 -0.3540
  640MOL0     C84357   3.760   3.201   2.723  0.0981 -0.7517  0.1688
  640MOL0     C84358   3.625   3.164   2.764  0.8506 -0.7405  0.2623
  640MOL0     C84359   3.535   3.278   2.802  0.4926 -0.8629  0.3374
  640MOL0     C84360   3.395   3.216   2.824 -0.0607 -0.0293  0.0918
  640MOL0     C84361   3.291   3.321   2.855 -0.2701 -0.5777  0.3049
  640MOL0     C84362   3.150   3.252   2.879 -0.4164 -0.0131  0.0686
  640MOL0     C84363   3.094   3.170   2.762  0.5335 -0.5130  0.6354
  640MOL0     C84364   3.016   3.048   2.804  0.4365  0.2658 -0.7810
  640MOL0     N84365   2.918   3.005   2.706  0.1132 -0.2244 -0.1447
  640MOL0     C84366   2.931   2.988   2.572  0.7417  0.7220 -0.0531
  640MOL0     C84367   2.809   2.937   2.532  0.4942 -0.0778  0.2317
  640MOL0     C84368   2.777   2.884   2.395 -0.0487 -0.0388 -0.1367
  640MOL0     C84369   2.753   2.736   2.374 -0.0534 -0.1543 -0.1646
  640MOL0     C84370   2.637   2.699   2.453  0.4223 -0.1611  1.0893
  640MOL0     C84371   2.501   2.761   2.392  0.9443 -0.9758 -0.0811
  640MOL0     O84372   2.475   2.686   2.275  0.2744  0.0183  0.6679
  640MOL0     C84373   2.347   2.692   2.227  0.2966 -0.5770  0.4400
  640MOL0     C84374   2.250   2.782   2.264 -0.0751  1.2759  0.9295
  640MOL0     C84375   2.122   2.757   2.222 -0.7090 -0.4300 -0.8815
  640MOL0     C84376   2.091   2.651   2.126  0.7650  0.4755 -0.3025
  640MOL0     C84377   1.944   2.626   2.076 -1.3201 -0.2561  0.4083
  640MOL0     O84378   1.914   2.521   1.996 -0.0122  0.1956  0.6135
  640MOL0     C84379   1.787   2.482   1.956  0.4484 -0.1599  0.5330
  640MOL0     C84380   1.689   2.572   1.928 -0.2472 -0.0912  0.1541
  640MOL0     C84381   1.552   2.528   1.923  0.6598  0.5907 -0.1819
  640MOL0     C84382   1.520   2.393   1.936  0.2731 -0.4732 -0.4126
  640MOL0     O84383   1.385   2.351   1.954  0.1784  0.6082  0.7360
  640MOL0     C84384   1.345   2.212   1.979  0.4387  0.0609 -0.3987
  640MOL0     C84385   1.199   2.206   2.010 -0.2386  0.8577  0.0224
  640MOL0     C84386   1.156   2.230   2.154  0.0032  0.2717  0.3972
  640MOL0     C84387   1.022   2.296   2.170  0.4396  0.5139  0.0492
  640MOL0     C84388   0.967   2.298   2.318 -0.8598  0.1055 -0.7853
  640MOL0     C84389   1.049   2.385   2.411  0.0864  0.4577 -0.7450
  640MOL0     C84390   0.993   2.406   2.552 -0.7606  0.1085 -0.3118
  640MOL0     C84391   1.060   2.545   2.592  0.1434 -0.6063 -0.4982
  640MOL0    Cl84392   0.962   2.680   2.539  0.2555  0.2560  0.1690
  640MOL0     C84393   1.627   2.305   1.947 -0.1608  0.1164 -0.5166
  640MOL0     C84394   1.759   2.350   1.944 -0.8116  0.1629 -0.0041
  640MOL0     O84395   1.863   2.707   2.118  0.3745 -0.5590 -0.4234
  640MOL0     C84396   2.200   2.574   2.081 -0.3148  0.0889  0.4027
  640MOL0     C84397   2.331   2.602   2.124  0.9941  0.4981 -0.8848
  640MOL0     N84398   2.726   2.929   2.639 -0.1656  0.8711 -0.9216
  640MOL0     N84399   2.786   2.981   2.747 -0.0943  0.3330  0.3393
  640MOL0     C84400   4.006   3.282   2.967 -0.1190 -0.4618 -0.1200
  640MOL0     C84401   4.141   3.256   2.981 -0.4363  0.5828 -0.5230
  640MOL0     C84402   4.585   3.338   2.978  0.8108  0.1912 -0.7029
  640MOL0     C84403   4.653   3.449   3.028 -0.1893  0.4769  0.0778
  640MOL0     C84404   4.785   3.424   3.074  0.2953  0.2044  0.0830
  640MOL0     C84405   4.858   3.317   3.049  0.3261 -0.2182  0.2294
  640MOL0     O84406   4.990   3.324   3.079 -0.0313  0.0327 -0.4315
  640MOL0     C84407   5.066   3.236   2.999  0.0259  0.1011  0.3243
  640MOL0     C84408   5.216   3.293   2.981  0.3188 -0.1978 -0.1346
  640MOL0     C84409   5.205   3.435   2.939  0.0834 -0.3226  0.1436
  640MOL0     C84410   5.337   3.479   2.882 -0.5020 -0.2809  0.6158
  640MOL0     C84411   5.328   3.427   2.748  0.2896  1.4603 -0.6593
  640MOL0     C84412   5.312   3.372   2.639 -1.0351 -0.5923 -0.3035
  640MOL0     C84413   4.790   3.208   2.988  0.1203 -0.0707 -0.9422
  640MOL0     C84414   4.652   3.215   2.952 -0.7133 -0.9616  0.0638
  640MOL0     H84415   4.245   3.271   2.662  1.1992  2.5041  0.4522
  640MOL0     H84416   3.992   3.282   2.635 -0.3670 -3.1582  0.4325
  640MOL0     H84417   3.823   3.111   2.724 -0.7514 -1.3557 -0.0132
  640MOL0     H84418   3.773   3.250   2.626 -0.8291 -2.0798 -0.6662
  640MOL0     H84419   3.632   3.097   2.850 -2.8754 -0.8518  0.6361
  640MOL0     H84420   3.572   3.106   2.688  3.7485 -0.9191 -1.7935
  640MOL0     H84421   3.529   3.352   2.722  2.1516  0.5556  1.4235
  640MOL0     H84422   3.563   3.328   2.896  0.4254 -2.6201  1.3390
  640MOL0     H84423   3.372   3.175   2.725  1.1297  0.4047 -0.3888
  640MOL0     H84424   3.387   3.132   2.893  1.2879 -2.0273 -2.0318
  640MOL0     H84425   3.280   3.392   2.772 -0.3529 -0.4404  0.4320
  640MOL0     H84426   3.316   3.369   2.950 -3.6754  0.1542  0.9921
  640MOL0     H84427   3.072   3.323   2.910 -2.0665 -2.1849  1.1950
  640MOL0     H84428   3.166   3.185   2.963 -1.1135 -1.7625 -1.1304
  640MOL0     H84429   3.026   3.236   2.708 -1.4625 -1.8402  1.4318
  640MOL0     H84430   3.164   3.119   2.694 -2.1872 -2.7121 -0.7144
  640MOL0     H84431   2.971   3.067   2.902  1.7290 -0.4215 -0.0292
  640MOL0     H84432   3.077   2.960   2.822  0.9096  0.7725  0.1849
  640MOL0     H84433   3.020   2.992   2.510 -0.7502 -1.3739 -2.5451
  640MOL0     H84434   2.862   2.918   2.335 -1.6676  2.6760 -1.0668
  640MOL0     H84435   2.689   2.939   2.359 -1.3681 -1.5228  0.7020
  640MOL0     H84436   2.839   2.679   2.410  1.4459  1.9144 -0.2639
  640MOL0     H84437   2.741   2.711   2.268 -1.6707 -1.5496  0.3076
  640MOL0     H84438   2.624   2.591   2.445 -3.4456  0.2347 -0.5126
  640MOL0     H84439   2.651   2.721   2.560  2.3132  2.1826  0.4235
  640MOL0     H84440   2.507   2.865   2.360 -3.7637 -1.3383 -2.9976
  640MOL0     H84441   2.429   2.740   2.471  1.2617 -0.4905  0.3461
  640MOL0     H84442   2.269   2.853   2.345 -2.1583  3.7441 -0.6099
  640MOL0     H84443   2.041   2.825   2.248  0.1216  0.6127 -0.9901
  640MOL0     H84444   1.704   2.680   1.929 -0.2681 -0.0328 -1.8004
  640MOL0     H84445   1.474   2.604   1.922  2.6190  2.6955  0.1501
  640MOL0     H84446   1.405   2.169   2.060  0.9448  0.6204 -0.4707
  640MOL0     H84447   1.370   2.157   1.888  2.8455  1.3838 -0.6189
  640MOL0     H84448   1.150   2.117   1.969 -3.6397  3.6487 -2.6100
  640MOL0     H84449   1.155   2.284   1.948 -0.6599  3.1288  2.9726
  640MOL0     H84450   1.226   2.300   2.200  2.5137 -0.2212 -2.3110
  640MOL0     H84451   1.156   2.141   2.218 -0.4989  1.4783  2.1230
  640MOL0     H84452   1.023   2.397   2.128  1.9147  0.1327 -0.9005
  640MOL0     H84453   0.946   2.249   2.108  0.2363  0.0382  0.6437
  640MOL0     H84454   0.971   2.194   2.351 -0.3863 -0.2104 -1.8207
  640MOL0     H84455   0.863   2.331   2.324 -1.2382 -1.3181  2.5855
  640MOL0     H84456   1.064   2.481   2.360  0.4855  1.6050  1.4260
  640MOL0     H84457   1.149   2.340   2.411  0.7311  1.8121 -1.5492
  640MOL0     H84458   0.885   2.397   2.564 -0.4542  0.4480  4.5019
  640MOL0     H84459   1.034   2.327   2.616  2.1170  1.7558  0.0590
  640MOL0     H84460   1.163   2.559   2.557  0.2021 -1.9386 -0.8784
  640MOL0     H84461   1.062   2.562   2.700 -2.9094  3.7024 -0.8602
  640MOL0     H84462   1.610   2.198   1.955  3.0845 -0.4322  0.5401
  640MOL0     H84463   1.838   2.279   1.966 -1.3796 -1.2147 -2.0336
  640MOL0     H84464   2.177   2.495   2.011 -0.5299 -0.8026  1.4674
  640MOL0     H84465   2.412   2.545   2.081  1.3177 -1.2896  1.8230
  640MOL0     H84466   3.939   3.263   3.050 -0.8005  0.8063 -0.3563
  640MOL0     H84467   4.170   3.238   3.084 -0.0940 -0.0682 -0.7246
  640MOL0     H84468   4.588   3.535   3.040 -1.5243 -0.0365 -2.6451
  640MOL0     H84469   4.836   3.504   3.127 -3.5863  1.3809  2.5127
  640MOL0     H84470   5.025   3.234   2.898 -1.0848  2.2376  0.6903
  640MOL0     H84471   5.076   3.134   3.038  1.4187  0.9880  2.4793
  640MOL0     H84472   5.262   3.301   3.081 -2.1508 -2.0630  1.2671
  640MOL0     H84473   5.281   3.231   2.918  2.9497 -0.4076  2.5191
  640MOL0     H84474   5.184   3.488   3.032 -0.1307  3.6065 -1.9183
  640MOL0     H84475   5.116   3.445   2.877  0.4036 -1.0638 -0.4475
  640MOL0     H84476   5.348   3.587   2.869 -4.4533  0.0578 -1.3430
  640MOL0     H84477   5.422   3.438   2.938 -1.7936 -1.1869  1.9950
  640MOL0     H84478   5.283   3.315   2.553 -0.9468 -1.8705  0.5010
  640MOL0     H84479   4.840   3.112   2.985 -0.5711 -0.6759  2.5377
  640MOL0     H84480   4.605   3.125   2.913  0.6787 -1.8406  0.3598
  641MOL0     O84481   7.350  10.381   8.752 -0.2331  0.2535  0.4247
  641MOL0     C84482   7.426  10.364   8.846  0.7182 -0.0254  0.3233
  641MOL0     O84483   7.418  10.431   8.964 -0.2426  0.5526  0.2168
  641MOL0     C84484   7.311  10.523   8.978 -0.7126 -0.1138 -0.4027
  641MOL0     C84485   7.213  10.511   9.077  0.1277 -0.2638 -0.1924
  641MOL0     C84486   7.116  10.608   9.089 -0.4642  1.0297  0.1139
  641MOL0     C84487   7.111  10.732   9.024  0.2708 -0.4628  0.9622
  641MOL0     O84488   7.005  10.814   9.037  1.2219 -0.3502  0.3815
  641MOL0     C84489   6.997  10.936   8.955  0.6665  0.0313  0.4336
  641MOL0     C84490   6.853  10.988   8.950 -0.5146  0.3994 -0.3844
  641MOL0     C84491   6.762  10.898   8.859 -0.5874 -0.8368  0.3466
  641MOL0     C84492   6.626  10.943   8.878 -0.2715 -1.1084  1.1061
  641MOL0     C84493   6.535  10.840   8.810  0.1293 -0.9088  0.0800
  641MOL0     C84494   6.392  10.901   8.824 -0.0675  0.1237 -0.7275
  641MOL0     C84495   6.284  10.796   8.770 -0.3656 -0.7447  0.6137
  641MOL0     C84496   6.143  10.810   8.821  0.1979 -0.4647 -0.1603
  641MOL0     N84497   6.149  10.754   8.954  0.2535  0.4029  0.5236
  641MOL0     C84498   6.069  10.669   9.001  0.1114  0.6190 -0.1088
  641MOL0     C84499   6.084  10.673   9.137 -0.6760  0.2285 -0.0619
  641MOL0     C84500   5.997  10.596   9.235  0.4001 -0.7316 -0.1762
  641MOL0     C84501   5.877  10.682   9.278  0.6064 -1.4154 -0.0580
  641MOL0     C84502   5.913  10.796   9.373  0.7588 -0.2094  0.2569
  641MOL0     C84503   5.979  10.749   9.504 -0.0058 -0.6119 -0.4786
  641MOL0     O84504   5.996  10.867   9.593  0.9175 -0.2352 -0.3737
  641MOL0     C84505   5.885  10.936   9.637  0.4198 -0.4131  0.6219
  641MOL0     C84506   5.895  11.079   9.665 -0.1351  0.5510 -0.3837
  641MOL0     C84507   5.792  11.157   9.719  0.1871 -0.2915 -0.2408
  641MOL0     C84508   5.665  11.098   9.738 -0.2328  0.5117  0.0398
  641MOL0     C84509   5.554  11.173   9.778  0.1975 -0.2707 -0.4383
  641MOL0     O84510   5.432  11.114   9.749  0.1956  0.1333 -0.5836
  641MOL0     C84511   5.317  11.165   9.811  0.3667 -1.1353  1.3781
  641MOL0     C84512   5.278  11.118   9.938 -0.0742 -1.1465 -0.1683
  641MOL0     C84513   5.168  11.161   9.999  0.0611  0.8383 -0.8562
  641MOL0     C84514   5.095  11.268   9.937  0.2491 -0.0638  0.1506
  641MOL0     O84515   4.978  11.318   9.995  0.7592 -0.2000 -0.0731
  641MOL0     C84516   4.956  11.293  10.137  0.2711  0.5890  0.0786
  641MOL0     C84517   4.814  11.330  10.181  0.4111 -0.4010 -0.1789
  641MOL0     C84518   4.705  11.280  10.080 -0.6183  0.1870 -0.0359
  641MOL0     C84519   4.569  11.283  10.160 -0.5452 -0.9433  0.0330
  641MOL0     C84520   4.455  11.262  10.054  0.1416  0.7680 -0.8498
  641MOL0     C84521   4.314  11.230  10.105 -0.2062  0.8154  0.2115
  641MOL0     C84522   4.210  11.221   9.987 -0.3164 -0.1096 -0.1749
  641MOL0     C84523   4.072  11.165  10.040 -0.4992  1.3886  0.0079
  641MOL0    Cl84524   3.969  11.137   9.885 -0.2896 -0.1839  0.1772
  641MOL0     C84525   5.139  11.322   9.813 -0.5792 -0.0116  0.3954
  641MOL0     C84526   5.242  11.260   9.743  0.4156  0.3668 -0.0264
  641MOL0     O84527   5.566  11.283   9.824 -0.0345  0.3912 -0.1911
  641MOL0     C84528   5.658  10.963   9.710  0.0766  0.5322 -1.2114
  641MOL0     C84529   5.757  10.889   9.648 -0.1949  0.3356  0.3538
  641MOL0     N84530   6.189  10.760   9.169 -0.1516  0.0413  0.0198
  641MOL0     N84531   6.219  10.803   9.059 -0.5078  0.2356  0.3474
  641MOL0     C84532   7.204  10.747   8.917 -0.6905  0.1969  0.4893
  641MOL0     C84533   7.305  10.645   8.899 -0.0138 -0.1969  0.6718
  641MOL0     C84534   7.535  10.270   8.825 -0.1043 -1.1884  0.4171
  641MOL0     C84535   7.620  10.238   8.930  0.3757 -0.1539  0.4947
  641MOL0     C84536   7.726  10.158   8.903 -0.0471  0.0140 -0.4336
  641MOL0     C84537   7.761  10.100   8.780  0.3798 -0.0604 -0.6884
  641MOL0     O84538   7.868  10.029   8.737  0.4964  0.1756 -0.8024
  641MOL0     C84539   7.979  10.033   8.829  0.1535 -1.0085 -0.8416
  641MOL0     C84540   8.089   9.934   8.781  0.4212  0.2402 -0.2733
  641MOL0     C84541   8.039   9.794   8.814  0.0309 -0.9045 -0.4527
  641MOL0     C84542   8.100   9.683   8.743 -0.4320  0.9062  0.4079
  641MOL0     C84543   8.233   9.654   8.792  0.2877  0.0653  0.3471
  641MOL0     C84544   8.336   9.604   8.833 -0.2790  0.0018  0.9840
  641MOL0     C84545   7.679  10.136   8.678 -0.0410  0.5685 -1.0224
  641MOL0     C84546   7.568  10.215   8.702  0.1241  0.3263  0.8535
  641MOL0     H84547   7.219  10.429   9.148  1.8389  1.7808  2.2027
  641MOL0     H84548   7.053  10.580   9.174  2.4597 -2.9641  1.2572
  641MOL0     H84549   7.023  10.915   8.851 -1.0431  1.5853 -0.3732
  641MOL0     H84550   7.054  11.022   8.993  1.2137 -0.8189  1.6002
  641MOL0     H84551   6.854  11.083   8.894 -1.8083  2.4702  2.7860
  641MOL0     H84552   6.815  11.000   9.052  4.4271 -1.3389  1.9557
  641MOL0     H84553   6.783  10.795   8.890  0.8753 -0.0906  2.0251
  641MOL0     H84554   6.786  10.896   8.753 -2.4249 -0.2570 -0.1241
  641MOL0     H84555   6.607  10.965   8.983 -0.8094  1.2582  0.5714
  641MOL0     H84556   6.622  11.039   8.825  0.9943 -2.5025 -1.7692
  641MOL0     H84557   6.527  10.751   8.873  0.0050  1.8689  4.4160
  641MOL0     H84558   6.563  10.834   8.704  3.5038 -2.2992  0.8961
  641MOL0     H84559   6.375  10.996   8.773 -2.4931  0.3772  0.4090
  641MOL0     H84560   6.375  10.926   8.929  0.5691  0.4399 -0.6964
  641MOL0     H84561   6.287  10.808   8.661  0.7450 -4.6115  0.0463
  641MOL0     H84562   6.322  10.696   8.795 -2.4006 -2.0164 -1.0670
  641MOL0     H84563   6.055  10.767   8.772 -1.4357  2.0320  0.3749
  641MOL0     H84564   6.126  10.918   8.822  1.9213 -0.1403 -1.0988
  641MOL0     H84565   5.988  10.618   8.950 -1.6066  2.5422  0.5713
  641MOL0     H84566   6.060  10.569   9.320  3.2594  1.1890 -1.5230
  641MOL0     H84567   5.962  10.505   9.186 -0.8912 -0.9927  1.1520
  641MOL0     H84568   5.799  10.617   9.320  1.1351 -0.1499  3.1930
  641MOL0     H84569   5.833  10.733   9.192 -1.5372 -2.6628  0.2124
  641MOL0     H84570   5.982  10.856   9.313  0.0711  1.4594  1.0873
  641MOL0     H84571   5.820  10.852   9.381 -0.3232 -1.7642 -0.7661
  641MOL0     H84572   6.081  10.714   9.488  0.9630  0.0802  3.2436
  641MOL0     H84573   5.924  10.672   9.561 -1.3380  0.7589  0.1723
  641MOL0     H84574   5.985  11.135   9.644  0.2156 -1.1410 -4.1005
  641MOL0     H84575   5.803  11.265   9.731 -0.7067  0.0275 -2.0309
  641MOL0     H84576   5.350  11.056   9.991  3.0453  2.4580  0.2723
  641MOL0     H84577   5.134  11.112  10.089 -1.4342  0.7582 -1.4291
  641MOL0     H84578   5.031  11.356  10.186  0.1090  0.9978 -0.1894
  641MOL0     H84579   4.974  11.193  10.177  4.5368  1.1171 -0.0709
  641MOL0     H84580   4.808  11.439  10.192  0.5606 -0.3305 -0.8018
  641MOL0     H84581   4.784  11.283  10.275 -4.1041 -2.6397 -2.4075
  641MOL0     H84582   4.728  11.176  10.053  0.0907 -0.1611  1.7593
  641MOL0     H84583   4.709  11.340   9.989  1.9287 -1.9263 -1.4651
  641MOL0     H84584   4.583  11.199  10.229  3.2624 -0.5715 -0.0808
  641MOL0     H84585   4.564  11.380  10.210  2.2361 -1.1054  0.8413
  641MOL0     H84586   4.484  11.185   9.982  0.4044  0.1057 -0.0483
  641MOL0     H84587   4.461  11.358  10.002 -2.1885  1.5388  0.1806
  641MOL0     H84588   4.280  11.294  10.187 -2.4278  0.8667 -0.6693
  641MOL0     H84589   4.316  11.128  10.143 -0.0774  1.0773  0.9161
  641MOL0     H84590   4.194  11.319   9.941 -2.7458 -0.7967 -0.9401
  641MOL0     H84591   4.247  11.164   9.901  1.3714  0.8622 -0.1347
  641MOL0     H84592   4.020  11.225  10.115  0.5318 -0.5647  2.4241
  641MOL0     H84593   4.088  11.069  10.089  1.7428  2.5477  1.7143
  641MOL0     H84594   5.079  11.395   9.759 -1.5880  0.1490  1.6920
  641MOL0     H84595   5.278  11.310   9.654 -0.7452  2.4310  0.5787
  641MOL0     H84596   5.567  10.912   9.739  1.2204  0.3161  2.4586
  641MOL0     H84597   5.737  10.786   9.624  1.7941  0.1517 -0.7318
  641MOL0     H84598   7.204  10.838   8.858 -2.3865 -0.5018 -0.6842
  641MOL0     H84599   7.384  10.651   8.825 -0.3882  2.5820  0.3886
  641MOL0     H84600   7.606  10.271   9.033 -0.0030 -2.4082  1.2152
  641MOL0     H84601   7.788  10.129   8.987 -2.4389  1.4382  1.9841
  641MOL0     H84602   7.959  10.005   8.933  2.4778 -2.8642 -0.7984
  641MOL0     H84603   8.016  10.135   8.831  1.6067 -1.5212  1.3872
  641MOL0     H84604   8.103   9.952   8.674 -0.5439 -2.3249 -0.9062
  641MOL0     H84605   8.186   9.948   8.830 -1.4171  2.0451  3.2213
  641MOL0     H84606   7.931   9.788   8.795 -0.3142  3.1707 -0.6392
  641MOL0     H84607   8.054   9.764   8.918  1.4895 -3.1428 -1.2332
  641MOL0     H84608   8.053   9.585   8.735  3.2034 -0.8181 -4.6223
  641MOL0     H84609   8.109   9.712   8.638 -1.4359  0.4614  0.1917
  641MOL0     H84610   8.429   9.560   8.862  0.6947  1.7191  0.6478
  641MOL0     H84611   7.716  10.108   8.580 -0.6345 -1.3146 -0.7473
  641MOL0     H84612   7.512  10.245   8.615  2.2921  1.8516 -0.1274
  642MOL0     O84613   1.203   3.645   5.898  0.0655 -0.7818 -0.3356
  642MOL0     C84614   1.183   3.597   5.788 -0.3434 -0.2173  0.5336
  642MOL0     O84615   1.261   3.590   5.681  0.4001  0.0815 -0.4076
  642MOL0     C84616   1.389   3.637   5.663  0.2523  1.0369 -0.8580
  642MOL0     C84617   1.439   3.664   5.534 -0.4404  0.2870  0.3863
  642MOL0     C84618   1.563   3.716   5.518  0.5604 -0.3795  0.0341
  642MOL0     C84619   1.654   3.731   5.623 -0.0074  0.3819 -0.0073
  642MOL0     O84620   1.785   3.773   5.588 -0.6875  0.5173  0.1640
  642MOL0     C84621   1.888   3.783   5.685  0.4195 -0.1651 -0.5374
  642MOL0     C84622   2.034   3.814   5.632 -0.1574 -0.2715  0.0960
  642MOL0     C84623   2.069   3.694   5.538 -0.4588  0.0718  0.0972
  642MOL0     C84624   2.209   3.700   5.477 -0.4671 -0.0062 -0.2791
  642MOL0     C84625   2.229   3.811   5.369 -0.2433 -0.9102 -0.5736
  642MOL0     C84626   2.369   3.790   5.304  0.1774  0.1980  0.2030
  642MOL0     C84627   2.373   3.834   5.155 -0.3283  0.1397 -0.7776
  642MOL0     C84628   2.411   3.981   5.145  0.2951 -0.2549 -0.1497
  642MOL0     N84629   2.359   4.035   5.019  0.1690 -0.5082 -0.4055
  642MOL0     C84630   2.228   4.051   4.992 -0.2115 -0.4503  0.4946
  642MOL0     C84631   2.223   4.123   4.877 -1.4258  0.7742 -1.3600
  642MOL0     C84632   2.113   4.192   4.806  0.2023 -0.1524 -0.1499
  642MOL0     C84633   1.990   4.109   4.775 -0.2934 -0.0721 -0.1584
  642MOL0     C84634   1.878   4.127   4.886  1.1897 -1.4266  0.3850
  642MOL0     C84635   1.754   4.039   4.865 -1.3082  0.7355  1.3098
  642MOL0     O84636   1.657   4.074   4.967 -0.3826 -0.1686  0.2161
  642MOL0     C84637   1.563   3.986   5.006 -0.0569  1.0106 -0.4785
  642MOL0     C84638   1.596   3.867   5.073 -0.4891  0.2022  0.7633
  642MOL0     C84639   1.495   3.787   5.125 -0.8560  0.0834  1.1267
  642MOL0     C84640   1.357   3.829   5.112 -0.4726 -0.1019 -0.3428
  642MOL0     C84641   1.255   3.745   5.168  1.0559 -1.2217  0.0185
  642MOL0     O84642   1.125   3.804   5.173  0.2929 -0.7483  0.3362
  642MOL0     C84643   1.025   3.707   5.182 -0.8443  0.9314  0.2639
  642MOL0     C84644   0.953   3.686   5.297 -0.2170  0.4596 -0.1434
  642MOL0     C84645   0.858   3.583   5.305 -0.4641  0.0552 -0.0014
  642MOL0     C84646   0.827   3.504   5.197 -0.0482  0.5594 -0.0033
  642MOL0     O84647   0.726   3.418   5.217  0.3436 -0.5632 -0.0462
  642MOL0     C84648   0.646   3.380   5.104 -0.9476 -0.2261  0.2750
  642MOL0     C84649   0.548   3.293   5.181  0.0957  0.3566 -0.1027
  642MOL0     C84650   0.424   3.247   5.106 -1.3238 -0.2974 -0.2829
  642MOL0     C84651   0.323   3.183   5.197 -0.6163  0.3675 -1.1463
  642MOL0     C84652   0.176   3.200   5.146 -0.0656 -0.1352  0.6700
  642MOL0     C84653   0.075   3.127   5.238  0.0736  0.9786 -0.3080
  642MOL0     C84654  -0.053   3.104   5.176 -0.2707  0.3416 -0.5628
  642MOL0     C84655  -0.135   3.230   5.149 -0.2366 -0.5663 -0.2430
  642MOL0    Cl84656  -0.290   3.181   5.090 -0.2347 -0.4591 -0.1579
  642MOL0     C84657   0.898   3.527   5.085 -1.3976  0.7297  0.4206
  642MOL0     C84658   1.001   3.625   5.067 -0.2944 -0.1632 -1.0575
  642MOL0     O84659   1.290   3.633   5.203  1.0812  0.5827  0.1046
  642MOL0     C84660   1.331   3.954   5.062 -0.6424 -0.4838  0.6306
  642MOL0     C84661   1.438   4.038   5.021 -0.5975 -0.0680 -0.6909
  642MOL0     N84662   2.357   4.130   4.831  0.6307 -0.7875 -0.0992
  642MOL0     N84663   2.434   4.065   4.914 -0.0696 -0.4582  0.7031
  642MOL0     C84664   1.609   3.693   5.747  1.1319 -0.4244 -1.0505
  642MOL0     C84665   1.479   3.649   5.771 -0.3092 -0.7623  0.3790
  642MOL0     C84666   1.049   3.543   5.765  0.2636 -1.1387 -0.1090
  642MOL0     C84667   0.999   3.477   5.649 -0.5222  0.6900  0.2254
  642MOL0     C84668   0.869   3.443   5.625 -0.9944  0.7857 -0.3010
  642MOL0     C84669   0.781   3.435   5.732  0.0909  0.3243 -0.3467
  642MOL0     O84670   0.653   3.390   5.728 -0.2153 -0.7371  0.1522
  642MOL0     C84671   0.619   3.286   5.631  0.9251 -0.1424 -0.0758
  642MOL0     C84672   0.468   3.246   5.635 -0.8003 -0.4556  0.8334
  642MOL0     C84673   0.440   3.167   5.763 -0.6491 -0.3704 -0.0934
  642MOL0     C84674   0.321   3.221   5.831  0.0266 -0.1628  0.2330
  642MOL0     C84675   0.208   3.198   5.737  0.5421 -0.3643  0.0104
  642MOL0     C84676   0.124   3.181   5.657  0.2844 -0.1372  1.1917
  642MOL0     C84677   0.820   3.497   5.848  0.1959  0.6472 -0.5869
  642MOL0     C84678   0.943   3.557   5.865  0.4505  1.2020  0.1913
  642MOL0     H84679   1.371   3.662   5.449 -1.0568  1.9755  0.7983
  642MOL0     H84680   1.582   3.750   5.417 -0.1937  0.1573  0.0594
  642MOL0     H84681   1.885   3.683   5.728 -1.1754 -0.0472 -0.3126
  642MOL0     H84682   1.866   3.858   5.761  1.6597 -1.2420  0.9376
  642MOL0     H84683   2.099   3.811   5.720 -2.0169  1.4069  1.6394
  642MOL0     H84684   2.036   3.918   5.597 -2.8146 -0.2208 -0.1194
  642MOL0     H84685   1.993   3.684   5.460 -1.7506  1.2972  1.1572
  642MOL0     H84686   2.081   3.606   5.602  0.9290 -1.2973 -1.9237
  642MOL0     H84687   2.286   3.700   5.555 -2.3323 -0.2217  1.6624
  642MOL0     H84688   2.218   3.603   5.427 -0.5559  0.0890 -0.4768
  642MOL0     H84689   2.216   3.910   5.414  2.0723 -1.4849  1.5845
  642MOL0     H84690   2.154   3.796   5.290 -2.2490  0.7362  0.9152
  642MOL0     H84691   2.389   3.682   5.293 -0.5657  0.2158 -1.5825
  642MOL0     H84692   2.444   3.841   5.365 -0.2746  1.1985 -0.0736
  642MOL0     H84693   2.453   3.778   5.105 -0.6400  0.5385 -1.7425
  642MOL0     H84694   2.279   3.805   5.108  0.3593 -0.3772 -1.8751
  642MOL0     H84695   2.520   3.993   5.153  0.5730 -1.2399 -2.0168
  642MOL0     H84696   2.367   4.026   5.235 -0.1227 -2.2485  0.6913
  642MOL0     H84697   2.143   4.037   5.059 -2.8624 -0.4783 -2.6540
  642MOL0     H84698   2.157   4.228   4.712  1.1048 -2.2170 -0.5683
  642MOL0     H84699   2.103   4.285   4.863 -1.5278  0.5218 -1.4498
  642MOL0     H84700   2.014   4.003   4.763 -0.9996 -0.3511  0.7427
  642MOL0     H84701   1.955   4.159   4.684 -0.1344  0.2280 -0.0536
  642MOL0     H84702   1.907   4.111   4.990  0.3036  0.4125  0.9646
  642MOL0     H84703   1.834   4.227   4.878 -0.7987 -2.2156  0.6774
  642MOL0     H84704   1.790   3.936   4.874  2.8868  2.0245  1.5458
  642MOL0     H84705   1.718   4.068   4.766  0.8658 -2.3326 -0.5905
  642MOL0     H84706   1.699   3.834   5.071 -1.4762 -3.4102  1.6671
  642MOL0     H84707   1.526   3.698   5.179  0.9122  0.1630  0.3113
  642MOL0     H84708   0.982   3.742   5.385 -2.2297  0.8105  0.3434
  642MOL0     H84709   0.813   3.569   5.403  1.6468  0.1205  1.0292
  642MOL0     H84710   0.698   3.330   5.021  3.1843  1.8432  1.3237
  642MOL0     H84711   0.605   3.473   5.064  0.1670  0.2959  0.2986
  642MOL0     H84712   0.521   3.352   5.269  0.7201  1.0713 -0.3698
  642MOL0     H84713   0.604   3.205   5.211  2.2257  1.9461  0.7970
  642MOL0     H84714   0.451   3.169   5.035  1.7554 -1.4175  1.8974
  642MOL0     H84715   0.391   3.334   5.048  1.6919 -0.0317 -1.7724
  642MOL0     H84716   0.337   3.076   5.212  1.4901  0.6544 -0.7355
  642MOL0     H84717   0.327   3.240   5.290 -0.7622  1.0008 -1.5201
  642MOL0     H84718   0.172   3.152   5.047 -1.8244  1.7655 -0.2596
  642MOL0     H84719   0.154   3.307   5.138  0.6543 -0.1102 -1.9567
  642MOL0     H84720   0.058   3.178   5.334 -1.8493 -1.1138  0.5384
  642MOL0     H84721   0.110   3.025   5.253  0.1382  1.0734  0.2280
  642MOL0     H84722  -0.043   3.044   5.084 -4.2026  0.3819 -1.1953
  642MOL0     H84723  -0.118   3.048   5.244 -2.7038  2.0686 -1.3017
  642MOL0     H84724  -0.086   3.304   5.085 -0.0384  1.0763  1.6730
  642MOL0     H84725  -0.154   3.281   5.245 -1.9533  1.0706 -1.3756
  642MOL0     H84726   0.876   3.458   5.005 -0.2095 -0.2550  0.8947
  642MOL0     H84727   1.070   3.636   4.984  1.1100  0.4448  0.1258
  642MOL0     H84728   1.232   3.997   5.067 -0.2827  0.3973  0.5256
  642MOL0     H84729   1.401   4.138   4.999  1.5341  1.1203  0.7143
  642MOL0     H84730   1.667   3.705   5.838  1.2719 -0.4559 -1.1340
  642MOL0     H84731   1.443   3.630   5.872 -0.1252 -2.3245  0.1757
  642MOL0     H84732   1.080   3.448   5.583  0.2783 -4.5497  2.9833
  642MOL0     H84733   0.842   3.396   5.532  1.2260 -3.5321  0.9835
  642MOL0     H84734   0.678   3.201   5.667 -0.3098 -0.7949  0.4732
  642MOL0     H84735   0.656   3.322   5.534  0.4548 -0.7771 -0.4899
  642MOL0     H84736   0.420   3.344   5.629  1.3986  0.6083 -1.2601
  642MOL0     H84737   0.437   3.180   5.553 -3.5945 -0.6843  1.9768
  642MOL0     H84738   0.525   3.181   5.830 -1.1591 -2.7072  1.1302
  642MOL0     H84739   0.419   3.064   5.733  0.1874 -0.3348 -0.8446
  642MOL0     H84740   0.314   3.170   5.927  0.4201  3.5473  2.4376
  642MOL0     H84741   0.329   3.330   5.843 -0.0617  0.0002 -1.0189
  642MOL0     H84742   0.053   3.156   5.580  0.3086  1.4764  0.6068
  642MOL0     H84743   0.750   3.499   5.931 -0.2114  1.0761 -0.9371
  642MOL0     H84744   0.966   3.596   5.963  0.6284 -2.1587  1.6506
  643MOL0     O84745   6.473   8.000   2.008 -0.2973 -0.0956 -0.3412
  643MOL0     C84746   6.481   8.037   2.125  0.2734  1.2372  0.2502
  643MOL0     O84747   6.382   8.010   2.214 -0.6676  0.2385  0.2173
  643MOL0     C84748   6.277   7.919   2.189  0.3668 -0.4771  0.7703
  643MOL0     C84749   6.262   7.820   2.088 -0.3259 -0.2551 -0.0466
  643MOL0     C84750   6.153   7.736   2.095  0.0882 -0.4981 -0.2407
  643MOL0     C84751   6.056   7.750   2.192 -0.1887  0.3320 -0.1365
  643MOL0     O84752   5.944   7.671   2.213  0.0752 -0.0897  0.0103
  643MOL0     C84753   5.882   7.601   2.104 -0.6107 -0.1832  0.9328
  643MOL0     C84754   5.749   7.536   2.146  0.4519 -1.2142 -0.1863
  643MOL0     C84755   5.648   7.642   2.202  0.7249  0.4748 -0.2205
  643MOL0     C84756   5.528   7.584   2.279 -0.7344 -0.6248 -0.2304
  643MOL0     C84757   5.413   7.551   2.184  0.9293 -0.0724  0.5759
  643MOL0     C84758   5.291   7.466   2.226  0.3088 -0.1865  1.0723
  643MOL0     C84759   5.192   7.545   2.323 -0.3435  0.3593 -0.5294
  643MOL0     C84760   5.086   7.452   2.391  0.1228 -0.4039 -0.1069
  643MOL0     N84761   4.985   7.388   2.306  0.7424  1.0336 -0.0545
  643MOL0     C84762   4.972   7.249   2.295 -0.0606  0.6661 -0.2504
  643MOL0     C84763   4.849   7.220   2.263 -0.5183  0.0006  0.7693
  643MOL0     C84764   4.792   7.089   2.229 -0.7096 -0.0708  0.2786
  643MOL0     C84765   4.674   7.054   2.318  0.3992 -0.0336 -0.1437
  643MOL0     C84766   4.687   7.066   2.472 -1.4350 -0.1110 -0.3974
  643MOL0     C84767   4.565   7.085   2.557  0.9244 -0.9042 -0.2945
  643MOL0     O84768   4.480   6.970   2.536 -0.4872 -0.7044  1.0228
  643MOL0     C84769   4.364   6.962   2.602  1.0288  0.2254 -0.0501
  643MOL0     C84770   4.320   7.038   2.711 -0.2143  0.0332  0.9511
  643MOL0     C84771   4.197   7.010   2.765 -0.5323 -0.1311  0.0617
  643MOL0     C84772   4.116   6.907   2.715  0.9915 -0.7650  0.5102
  643MOL0     C84773   3.982   6.874   2.772 -0.3518 -0.7583  0.1198
  643MOL0     O84774   3.906   6.774   2.718 -0.6510 -0.2097  0.1362
  643MOL0     C84775   3.778   6.753   2.772  0.0386  0.1325  0.3742
  643MOL0     C84776   3.737   6.618   2.772 -0.8128 -0.1395 -0.4469
  643MOL0     C84777   3.610   6.590   2.798  0.4089 -0.5175  0.2522
  643MOL0     C84778   3.521   6.687   2.844  0.5926  0.0741 -0.4899
  643MOL0     O84779   3.385   6.641   2.866  0.1280  0.0823 -0.6121
  643MOL0     C84780   3.301   6.729   2.939  0.1810 -0.1299 -0.1165
  643MOL0     C84781   3.169   6.655   2.958 -0.2490 -1.0096  0.9926
  643MOL0     C84782   3.074   6.717   3.057 -0.2506  0.6123 -0.5116
  643MOL0     C84783   2.940   6.636   3.069 -0.7450  0.1415  0.2792
  643MOL0     C84784   2.857   6.626   2.936 -0.1725  0.0623 -0.7261
  643MOL0     C84785   2.709   6.628   2.961  0.0171  0.4652 -0.7577
  643MOL0     C84786   2.625   6.598   2.839  0.0361  0.8731 -0.0491
  643MOL0     C84787   2.631   6.450   2.809 -0.1641 -0.4180  0.1712
  643MOL0    Cl84788   2.554   6.353   2.942  0.1545 -0.6080  0.3896
  643MOL0     C84789   3.557   6.820   2.841  0.0668  0.0369 -0.3219
  643MOL0     C84790   3.685   6.854   2.807  0.5087 -0.2132 -0.7955
  643MOL0     O84791   3.944   6.954   2.862 -0.1099  0.7600  0.0608
  643MOL0     C84792   4.158   6.838   2.597  0.4122 -0.0577  0.0106
  643MOL0     C84793   4.285   6.868   2.538  0.3083  0.6889  1.0549
  643MOL0     N84794   4.793   7.345   2.221 -0.6332 -0.2169 -0.1646
  643MOL0     N84795   4.864   7.441   2.275  0.0540  0.3870  0.1687
  643MOL0     C84796   6.058   7.856   2.283  0.1382  0.2603  0.2778
  643MOL0     C84797   6.167   7.938   2.276 -0.5588 -0.0696  1.4838
  643MOL0     C84798   6.590   8.134   2.155  0.2861 -0.3488  0.7407
  643MOL0     C84799   6.571   8.202   2.270 -0.0714 -0.4857  0.6131
  643MOL0     C84800   6.662   8.290   2.325 -0.8554  0.9533 -0.5334
  643MOL0     C84801   6.781   8.322   2.253  0.2660  0.6661 -0.1946
  643MOL0     O84802   6.887   8.400   2.295 -0.0269 -0.4085  0.1130
  643MOL0     C84803   6.852   8.529   2.351  0.4635  0.0782  0.1630
  643MOL0     C84804   6.817   8.611   2.230  1.4267  0.3246  0.5959
  643MOL0     C84805   6.936   8.681   2.172  0.2069  0.0930  0.0765
  643MOL0     C84806   6.894   8.811   2.083 -0.4302  0.0138 -0.3959
  643MOL0     C84807   6.810   8.766   1.966 -0.5828 -0.3617 -0.0040
  643MOL0     C84808   6.742   8.741   1.869 -0.6533 -0.7996  0.2117
  643MOL0     C84809   6.801   8.247   2.134  0.7395 -0.3168  0.2764
  643MOL0     C84810   6.711   8.150   2.086 -0.6193  0.4919 -0.1758
  643MOL0     H84811   6.329   7.793   2.007 -1.7549 -0.0569 -1.3563
  643MOL0     H84812   6.159   7.645   2.037 -0.8871 -0.4097 -0.4929
  643MOL0     H84813   5.951   7.519   2.081  1.1885  1.1840  1.2799
  643MOL0     H84814   5.880   7.671   2.020  3.8166  0.7393  1.3431
  643MOL0     H84815   5.776   7.466   2.225  1.0085  1.0974  1.8150
  643MOL0     H84816   5.699   7.492   2.059  2.0178 -0.3112 -1.6054
  643MOL0     H84817   5.609   7.705   2.121 -0.7351  1.0176  0.8581
  643MOL0     H84818   5.693   7.713   2.273 -2.4308  0.8382  1.6158
  643MOL0     H84819   5.560   7.494   2.333  3.9040  1.2838  0.7218
  643MOL0     H84820   5.490   7.662   2.344  1.5548 -0.3111  0.8457
  643MOL0     H84821   5.464   7.502   2.100  1.3830  1.9049 -0.3660
  643MOL0     H84822   5.386   7.645   2.134  3.3920  0.5810  0.3076
  643MOL0     H84823   5.318   7.373   2.277 -3.1007 -1.5984  0.5489
  643MOL0     H84824   5.229   7.452   2.137  0.8207  0.0467  0.6685
  643MOL0     H84825   5.252   7.592   2.402  1.2304 -1.6846 -0.4060
  643MOL0     H84826   5.143   7.617   2.257 -2.7967  0.2641  1.0411
  643MOL0     H84827   5.030   7.518   2.457 -0.6151 -1.4178  0.3164
  643MOL0     H84828   5.138   7.379   2.454  1.2385 -0.5215 -1.1419
  643MOL0     H84829   5.043   7.174   2.327  1.2642  1.7120 -0.6431
  643MOL0     H84830   4.876   7.020   2.238  0.2642  0.8839 -1.0454
  643MOL0     H84831   4.765   7.109   2.125 -0.6892  6.2798  1.1034
  643MOL0     H84832   4.650   6.951   2.289  1.7215 -0.3627 -0.1660
  643MOL0     H84833   4.585   7.108   2.284 -1.3894 -1.9812  1.1865
  643MOL0     H84834   4.746   6.981   2.508  1.0603  2.1717  1.3084
  643MOL0     H84835   4.764   7.140   2.496  0.3011 -1.3329 -1.9462
  643MOL0     H84836   4.510   7.178   2.538  1.4538 -0.6998 -0.8893
  643MOL0     H84837   4.585   7.086   2.664 -3.7588  0.0128  0.8055
  643MOL0     H84838   4.382   7.113   2.759 -0.2719  0.3674  0.5041
  643MOL0     H84839   4.164   7.066   2.852  3.1129 -0.7322  2.0301
  643MOL0     H84840   3.794   6.535   2.731 -2.1810 -1.6005  0.4909
  643MOL0     H84841   3.587   6.486   2.782  0.7696 -0.2432 -2.7103
  643MOL0     H84842   3.288   6.820   2.880  0.5266  2.2234  3.1913
  643MOL0     H84843   3.343   6.754   3.037  0.8757 -0.8354 -0.2174
  643MOL0     H84844   3.182   6.552   2.991 -0.0937 -1.4338 -0.3470
  643MOL0     H84845   3.116   6.662   2.863  2.0690 -1.7626 -0.4343
  643MOL0     H84846   3.049   6.819   3.029  2.0082  0.5111 -3.3294
  643MOL0     H84847   3.115   6.720   3.158 -3.6028  1.7615  0.9564
  643MOL0     H84848   2.973   6.538   3.107 -1.4319 -0.5941 -0.9391
  643MOL0     H84849   2.875   6.693   3.135 -3.0348 -1.0733 -0.8133
  643MOL0     H84850   2.890   6.533   2.889  2.4068  0.2750  0.4633
  643MOL0     H84851   2.880   6.716   2.877  3.3118 -0.1919  0.0458
  643MOL0     H84852   2.686   6.731   2.989  2.6475  0.6660  1.1041
  643MOL0     H84853   2.683   6.561   3.044  1.9841  1.1200  0.4787
  643MOL0     H84854   2.523   6.629   2.864 -1.2915 -1.3435 -2.2819
  643MOL0     H84855   2.671   6.643   2.750  0.8197 -0.4148 -0.3143
  643MOL0     H84856   2.734   6.415   2.797 -0.2937  0.2125 -4.2134
  643MOL0     H84857   2.572   6.445   2.718 -3.3969  1.8804  1.9365
  643MOL0     H84858   3.497   6.907   2.866  2.7718  2.6346 -2.1912
  643MOL0     H84859   3.723   6.954   2.786  4.2957 -1.4063 -0.4348
  643MOL0     H84860   4.095   6.754   2.569  1.6345 -1.2062  0.6025
  643MOL0     H84861   4.329   6.824   2.450 -2.9541  1.0896 -0.9566
  643MOL0     H84862   5.969   7.878   2.341 -1.4471  2.1535 -2.6380
  643MOL0     H84863   6.162   8.026   2.339  0.5803 -0.6256  2.3889
  643MOL0     H84864   6.484   8.185   2.333  0.1390  1.2444  1.4339
  643MOL0     H84865   6.630   8.333   2.419 -0.9948  0.4915 -0.3641
  643MOL0     H84866   6.935   8.577   2.404  0.1291 -0.1664  0.9202
  643MOL0     H84867   6.767   8.515   2.419  1.1617 -1.0031  0.8322
  643MOL0     H84868   6.764   8.545   2.161  0.3799  0.4481  1.2594
  643MOL0     H84869   6.735   8.681   2.247 -0.9699 -2.0926 -0.2526
  643MOL0     H84870   6.989   8.610   2.108 -1.4050 -0.4126 -0.7596
  643MOL0     H84871   7.009   8.700   2.252  0.2909 -3.5726  1.0401
  643MOL0     H84872   6.823   8.879   2.132  0.2460  1.2877 -1.1303
  643MOL0     H84873   6.986   8.864   2.056 -0.9077 -0.1834 -2.6808
  643MOL0     H84874   6.692   8.701   1.783  0.6001 -2.4652  0.2194
  643MOL0     H84875   6.896   8.259   2.083  0.6045 -2.1830 -0.4836
  643MOL0     H84876   6.741   8.092   1.999 -0.7211 -1.3492  0.9427
  644MOL0     O84877   9.339   8.421   5.951 -0.2179 -0.0732  0.3339
  644MOL0     C84878   9.385   8.397   5.839  0.8731 -1.1652 -0.2456
  644MOL0     O84879   9.316   8.401   5.729  0.6338 -0.3651 -0.5332
  644MOL0     C84880   9.181   8.437   5.716  0.6787  0.6695  0.0791
  644MOL0     C84881   9.121   8.373   5.606  0.3146  0.6009  0.2740
  644MOL0     C84882   8.991   8.395   5.571  0.6049 -0.3054  0.7619
  644MOL0     C84883   8.917   8.485   5.648 -0.3576 -0.0165  0.0258
  644MOL0     O84884   8.796   8.516   5.608  0.6870 -0.3790  0.0193
  644MOL0     C84885   8.773   8.659   5.610  0.4391 -0.7579 -0.8006
  644MOL0     C84886   8.636   8.695   5.556 -0.8050  0.3719 -0.1031
  644MOL0     C84887   8.514   8.640   5.624  0.4042 -0.1995 -0.5738
  644MOL0     C84888   8.405   8.617   5.519  1.2964 -0.0157  0.1903
  644MOL0     C84889   8.291   8.555   5.590  0.6941 -0.0576  0.1189
  644MOL0     C84890   8.188   8.540   5.481 -1.4063  0.4339  0.0360
  644MOL0     C84891   8.047   8.515   5.539 -0.5975 -0.3264 -0.0831
  644MOL0     C84892   7.950   8.505   5.429  0.5769 -0.7141  0.0229
  644MOL0     N84893   7.815   8.520   5.486  0.1434  0.1546  0.2649
  644MOL0     C84894   7.720   8.422   5.526 -0.0773 -0.1240 -0.0198
  644MOL0     C84895   7.619   8.495   5.588  0.8087  0.1933 -0.6248
  644MOL0     C84896   7.503   8.450   5.672  0.4336  0.5774 -0.3517
  644MOL0     C84897   7.418   8.336   5.604 -0.4387  0.4170 -0.0118
  644MOL0     C84898   7.319   8.269   5.707 -0.3271 -0.9182  0.7423
  644MOL0     C84899   7.206   8.367   5.757 -0.5267  0.3533 -0.4860
  644MOL0     O84900   7.139   8.312   5.871  0.7166  0.1872 -0.0942
  644MOL0     C84901   7.018   8.252   5.852 -0.0936  0.6555 -0.3935
  644MOL0     C84902   6.926   8.270   5.953  0.2855  0.2847 -0.4159
  644MOL0     C84903   6.805   8.197   5.949 -1.0164  0.7970  0.0176
  644MOL0     C84904   6.771   8.099   5.845 -0.0362 -0.8947  0.4001
  644MOL0     C84905   6.655   8.007   5.860  0.2981  0.1035 -0.1076
  644MOL0     O84906   6.630   7.917   5.746  0.5767 -0.2106 -0.0691
  644MOL0     C84907   6.540   7.818   5.760  0.4174  0.4182  0.0767
  644MOL0     C84908   6.429   7.806   5.851 -0.3538 -0.7586 -0.9364
  644MOL0     C84909   6.327   7.720   5.840 -0.0650 -0.1427 -0.0808
  644MOL0     C84910   6.321   7.641   5.721 -1.4745  1.0598  0.1377
  644MOL0     O84911   6.225   7.545   5.699  0.2560 -0.5287 -0.0039
  644MOL0     C84912   6.089   7.604   5.702 -0.8061 -0.3803  0.3673
  644MOL0     C84913   5.987   7.496   5.718  0.5258  0.2899  0.2900
  644MOL0     C84914   5.985   7.387   5.604 -0.2801  0.2665  0.1019
  644MOL0     C84915   5.862   7.299   5.611 -0.8286 -0.5701  0.0093
  644MOL0     C84916   5.847   7.211   5.489  0.0576  0.6408  0.0759
  644MOL0     C84917   5.830   7.276   5.354  0.1740 -0.5229  0.1695
  644MOL0     C84918   5.765   7.178   5.244  0.8474 -0.1098 -1.0733
  644MOL0     C84919   5.621   7.132   5.261 -0.4829 -0.2661  0.5020
  644MOL0    Cl84920   5.499   7.263   5.256  0.3312  0.0561  0.1207
  644MOL0     C84921   6.424   7.646   5.624 -0.5743 -0.1260  0.1419
  644MOL0     C84922   6.537   7.730   5.652  0.5096 -0.2710  0.1735
  644MOL0     O84923   6.594   8.015   5.968  0.0463  0.0655 -0.5163
  644MOL0     C84924   6.859   8.093   5.731 -1.0502 -0.0873 -0.2912
  644MOL0     C84925   6.983   8.164   5.739  0.4166  0.5854 -0.2325
  644MOL0     N84926   7.634   8.627   5.561  0.3840 -0.9619 -0.6378
  644MOL0     N84927   7.748   8.641   5.513 -1.4038  0.5454 -0.6336
  644MOL0     C84928   8.974   8.532   5.768 -0.9741  0.2901  0.1314
  644MOL0     C84929   9.110   8.521   5.797 -0.3639  0.6555  0.5138
  644MOL0     C84930   9.524   8.342   5.833  0.2262  0.0820  0.0687
  644MOL0     C84931   9.598   8.329   5.949  0.3219  0.1425  0.0701
  644MOL0     C84932   9.718   8.277   5.957  0.0216  1.3442  1.0435
  644MOL0     C84933   9.773   8.213   5.838 -0.4588  0.2951  0.6474
  644MOL0     O84934   9.887   8.142   5.848 -0.1633 -0.4507 -0.5781
  644MOL0     C84935  10.002   8.227   5.886  0.6106 -0.0661  0.0382
  644MOL0     C84936  10.125   8.144   5.854  0.2342 -0.2617 -0.2002
  644MOL0     C84937  10.168   8.122   5.703 -0.5384  0.0203 -0.2201
  644MOL0     C84938  10.258   7.993   5.691 -0.6133  0.2356  0.3848
  644MOL0     C84939  10.392   8.009   5.752  0.8059 -0.0901  0.3989
  644MOL0     C84940  10.494   8.015   5.807 -0.0821 -0.6812 -0.0521
  644MOL0     C84941   9.693   8.221   5.723  0.1493 -0.7016 -0.1737
  644MOL0     C84942   9.574   8.293   5.714  0.2790  0.9484 -0.4223
  644MOL0     H84943   9.191   8.311   5.551  3.0342  3.0621  0.7362
  644MOL0     H84944   8.955   8.353   5.478  2.8775 -0.9811  0.1116
  644MOL0     H84945   8.857   8.712   5.565 -1.8466  3.1456 -0.8748
  644MOL0     H84946   8.774   8.692   5.715  0.6237  1.0810 -1.3596
  644MOL0     H84947   8.634   8.666   5.450  1.0881  2.0877 -0.6815
  644MOL0     H84948   8.631   8.804   5.551  0.3374  0.5443  1.7809
  644MOL0     H84949   8.482   8.704   5.707 -1.6974 -4.6948  2.4892
  644MOL0     H84950   8.536   8.538   5.657 -0.0689  0.0075  0.4147
  644MOL0     H84951   8.377   8.708   5.465 -1.3894 -1.5810 -1.2922
  644MOL0     H84952   8.445   8.540   5.452  1.3541 -1.5838  1.9522
  644MOL0     H84953   8.251   8.614   5.674  1.0508 -1.9969  1.7272
  644MOL0     H84954   8.314   8.454   5.625  0.5597 -0.6069 -1.2983
  644MOL0     H84955   8.220   8.458   5.416  1.9037  0.9528  0.8429
  644MOL0     H84956   8.180   8.628   5.416  1.0991  0.9663  0.3279
  644MOL0     H84957   8.050   8.423   5.600  1.1261 -0.1534  0.1233
  644MOL0     H84958   8.002   8.603   5.585  0.4281 -0.1169  0.5422
  644MOL0     H84959   7.958   8.416   5.366 -0.0476 -0.3880 -0.5275
  644MOL0     H84960   7.962   8.589   5.360 -3.8142 -0.5283 -0.7620
  644MOL0     H84961   7.732   8.315   5.514  1.3902 -0.1121  1.0725
  644MOL0     H84962   7.441   8.537   5.694  0.2763  0.4513 -0.2922
  644MOL0     H84963   7.546   8.419   5.768  0.4493  0.5763 -0.3591
  644MOL0     H84964   7.479   8.251   5.570 -0.8372 -0.9654  2.4576
  644MOL0     H84965   7.367   8.361   5.511 -1.0034 -0.0853  0.1557
  644MOL0     H84966   7.269   8.189   5.652 -1.9971  0.7645 -0.2772
  644MOL0     H84967   7.383   8.226   5.785  0.3513  1.5915  1.6887
  644MOL0     H84968   7.129   8.380   5.680  0.4803 -0.9670 -1.7628
  644MOL0     H84969   7.256   8.456   5.797 -1.0935  0.4981 -0.0795
  644MOL0     H84970   6.948   8.342   6.031  5.9593 -1.5363  0.1211
  644MOL0     H84971   6.732   8.212   6.027 -1.6103 -0.5078 -0.2594
  644MOL0     H84972   6.428   7.863   5.944 -3.0908 -3.1406  0.6449
  644MOL0     H84973   6.248   7.718   5.913  0.3570  2.0990  0.5360
  644MOL0     H84974   6.074   7.648   5.602 -0.1758 -1.1073 -0.0525
  644MOL0     H84975   6.067   7.686   5.771 -2.7535 -0.4636 -0.0886
  644MOL0     H84976   5.893   7.551   5.733  0.2047  0.0186 -0.7079
  644MOL0     H84977   6.010   7.436   5.807  3.4574 -1.3862 -1.4375
  644MOL0     H84978   6.079   7.331   5.605 -0.2290  0.3480 -0.0434
  644MOL0     H84979   5.983   7.435   5.506  0.9147 -2.1443 -1.1725
  644MOL0     H84980   5.864   7.247   5.708  0.0345 -0.2161  0.1919
  644MOL0     H84981   5.776   7.367   5.618  2.2091  3.5569  1.4392
  644MOL0     H84982   5.764   7.142   5.506  2.8040 -3.3974 -1.2031
  644MOL0     H84983   5.930   7.139   5.481  1.5131  2.3241 -0.7145
  644MOL0     H84984   5.923   7.325   5.323  0.5271 -0.9829  0.4962
  644MOL0     H84985   5.758   7.359   5.353  1.4801  0.6421 -0.9949
  644MOL0     H84986   5.768   7.230   5.148  4.2274  3.4125  0.6632
  644MOL0     H84987   5.820   7.084   5.241  1.3421 -0.0063  1.6601
  644MOL0     H84988   5.618   7.088   5.361 -1.5055 -0.9227  0.1944
  644MOL0     H84989   5.589   7.063   5.182 -3.7096  2.9667 -1.3688
  644MOL0     H84990   6.425   7.584   5.534 -0.1035 -0.4753  0.3890
  644MOL0     H84991   6.617   7.719   5.580 -1.0304  1.2510 -1.8936
  644MOL0     H84992   6.852   8.030   5.643 -1.8311  1.1179 -1.1258
  644MOL0     H84993   7.055   8.154   5.659  1.1447  0.6837  0.4042
  644MOL0     H84994   8.921   8.598   5.836  0.2812  1.2348  0.2327
  644MOL0     H84995   9.152   8.575   5.881 -2.0714  3.4507 -0.2935
  644MOL0     H84996   9.574   8.359   6.051  1.5691  2.7388 -0.3110
  644MOL0     H84997   9.780   8.259   6.044  2.8603  1.7966 -0.7612
  644MOL0     H84998  10.007   8.249   5.993  3.0404 -1.0496  0.1692
  644MOL0     H84999   9.998   8.321   5.829  0.8888 -0.9181 -1.4292
  644MOL0     H85000  10.208   8.183   5.914 -0.6163  0.1089  0.7561
  644MOL0     H85001  10.103   8.043   5.889 -2.0340  0.6147  1.1193
  644MOL0     H85002  10.223   8.213   5.677 -0.1778  0.0747  0.7134
  644MOL0     H85003  10.081   8.122   5.637  0.7635 -0.4994 -2.0086
  644MOL0     H85004  10.202   7.905   5.724  0.0922  0.1449  1.4017
  644MOL0     H85005  10.294   7.964   5.592  1.6971 -3.2887  2.0364
  644MOL0     H85006  10.593   8.023   5.846 -0.7554  0.5513  1.5384
  644MOL0     H85007   9.733   8.158   5.643  2.5429  2.0407 -1.3065
  644MOL0     H85008   9.516   8.294   5.622 -3.3728  0.3974  1.7217
  645MOL0     O85009   2.993   3.849  10.925 -0.1681 -0.4052  0.5322
  645MOL0     C85010   3.041   3.967  10.901 -0.5623 -0.6911 -0.1767
  645MOL0     O85011   2.973   4.087  10.930  0.2677 -0.2829  0.5927
  645MOL0     C85012   2.840   4.086  10.966 -0.4465  1.2253  0.2976
  645MOL0     C85013   2.802   4.180  11.052 -0.3217 -0.2057 -0.3805
  645MOL0     C85014   2.669   4.203  11.079 -0.3962 -1.4731 -0.2319
  645MOL0     C85015   2.576   4.110  11.046  0.5125 -0.4103  0.3575
  645MOL0     O85016   2.456   4.121  11.108 -0.7828  0.4535 -0.1480
  645MOL0     C85017   2.350   4.020  11.108 -0.5988 -0.0261  0.6647
  645MOL0     C85018   2.239   4.069  11.201 -0.2437 -0.2367 -0.6659
  645MOL0     C85019   2.183   4.189  11.131  0.8873 -0.2400 -0.2462
  645MOL0     C85020   2.058   4.251  11.209 -0.3591 -0.1575  0.5588
  645MOL0     C85021   1.921   4.181  11.173 -0.3478  1.4729  0.2370
  645MOL0     C85022   1.855   4.252  11.053  0.3644 -0.3354 -0.1763
  645MOL0     C85023   1.709   4.194  11.016 -0.1610 -0.1640 -0.0817
  645MOL0     C85024   1.606   4.241  11.120 -0.2828  0.2587 -0.7109
  645MOL0     N85025   1.591   4.382  11.114 -0.2112 -0.0647  1.0089
  645MOL0     C85026   1.512   4.439  11.020 -1.0721  0.4638 -0.3545
  645MOL0     C85027   1.545   4.573  11.044  1.2315  1.2324  0.1671
  645MOL0     C85028   1.486   4.684  10.957  0.2559  0.7268 -0.2214
  645MOL0     C85029   1.341   4.705  10.997  0.8255  0.0724 -0.2418
  645MOL0     C85030   1.264   4.814  10.912  0.5544 -0.1832 -0.2322
  645MOL0     C85031   1.124   4.836  10.957  0.3096  0.1009 -0.1399
  645MOL0     O85032   1.065   4.931  10.864 -0.0715  0.4454 -0.1807
  645MOL0     C85033   0.941   4.977  10.894 -0.1006 -0.0216 -1.0703
  645MOL0     C85034   0.862   4.946  11.004  0.0717 -0.0037  0.0754
  645MOL0     C85035   0.730   4.974  11.006 -0.0646  0.1400 -0.3194
  645MOL0     C85036   0.672   5.049  10.903 -0.2966  1.0451  0.2052
  645MOL0     C85037   0.527   5.073  10.903  0.2673  0.3777 -0.4590
  645MOL0     O85038   0.472   5.095  11.031 -0.3469 -0.0163  0.7195
  645MOL0     C85039   0.335   5.115  11.031  0.0175 -0.2340 -1.3665
  645MOL0     C85040   0.250   5.021  11.073  0.1357  0.2554 -0.6429
  645MOL0     C85041   0.115   5.041  11.077  0.3810 -0.8085 -0.2271
  645MOL0     C85042   0.058   5.163  11.041 -0.6930  0.0938 -0.1021
  645MOL0     O85043  -0.075   5.171  11.048  0.3134 -0.8650  0.1157
  645MOL0     C85044  -0.147   5.287  10.996  0.0533 -0.3022  0.4735
  645MOL0     C85045  -0.297   5.269  11.029 -0.2928 -0.0350  0.8490
  645MOL0     C85046  -0.364   5.402  11.050 -0.1627  0.2028  0.0961
  645MOL0     C85047  -0.526   5.388  11.040  0.4102 -0.1760 -0.3503
  645MOL0     C85048  -0.598   5.524  11.023 -0.1062 -0.7167  0.2731
  645MOL0     C85049  -0.747   5.515  11.061  0.3278 -0.6137 -0.2118
  645MOL0     C85050  -0.840   5.630  11.011  0.0284 -0.3389 -0.6002
  645MOL0     C85051  -0.985   5.591  11.019  0.1000 -0.8723  0.2549
  645MOL0    Cl85052  -1.049   5.612  11.193 -0.0644  0.0296 -0.0255
  645MOL0     C85053   0.151   5.268  11.000 -0.1184  0.8241 -0.6936
  645MOL0     C85054   0.287   5.244  11.000 -0.3944  0.4201 -0.7160
  645MOL0     O85055   0.471   5.074  10.793  0.3792 -0.5910 -0.5996
  645MOL0     C85056   0.751   5.097  10.803 -0.0928 -0.1319 -0.0283
  645MOL0     C85057   0.888   5.058  10.797 -0.3628 -0.1154 -0.0319
  645MOL0     N85058   1.618   4.587  11.157  1.2792 -0.5129 -0.0031
  645MOL0     N85059   1.650   4.471  11.198 -0.1360 -0.8294 -0.1088
  645MOL0     C85060   2.611   3.998  10.968  0.4058  0.2224 -0.4158
  645MOL0     C85061   2.745   3.983  10.921  0.3161 -0.3900 -0.2404
  645MOL0     C85062   3.185   3.982  10.864 -0.2225  0.3101  0.3920
  645MOL0     C85063   3.230   4.108  10.825  0.0218  0.4072  1.0114
  645MOL0     C85064   3.348   4.118  10.756  0.6451  0.1704 -0.4670
  645MOL0     C85065   3.432   4.005  10.734  0.1760  0.0889  0.2766
  645MOL0     O85066   3.555   4.038  10.693 -0.3399 -0.3055  0.5313
  645MOL0     C85067   3.623   3.940  10.614  0.4554 -0.0878  1.1104
  645MOL0     C85068   3.539   3.904  10.494  1.2000 -0.3510 -0.2369
  645MOL0     C85069   3.617   3.815  10.393  0.2384 -0.4957  0.6693
  645MOL0     C85070   3.533   3.741  10.285  0.3924 -0.6547  0.2085
  645MOL0     C85071   3.627   3.651  10.210 -0.2793 -0.8334 -0.1337
  645MOL0     C85072   3.694   3.565  10.159 -0.1542  0.3739  0.4579
  645MOL0     C85073   3.390   3.882  10.785  0.6865 -0.2114 -0.3852
  645MOL0     C85074   3.266   3.871  10.848 -0.1076  0.7355 -0.2859
  645MOL0     H85075   2.877   4.242  11.100 -2.1129  1.2663  0.6396
  645MOL0     H85076   2.635   4.284  11.142 -2.0827 -1.2229 -1.3917
  645MOL0     H85077   2.373   3.924  11.156 -0.4586 -0.8402 -0.9621
  645MOL0     H85078   2.305   4.003  11.010  0.6173  1.7826 -0.2506
  645MOL0     H85079   2.300   4.103  11.285  0.2679 -1.2888 -0.5973
  645MOL0     H85080   2.167   3.992  11.228  1.3785 -0.7249  2.8340
  645MOL0     H85081   2.146   4.191  11.028 -0.1041  4.1517  0.0228
  645MOL0     H85082   2.263   4.262  11.122  0.5331  0.3478  1.2344
  645MOL0     H85083   2.079   4.247  11.316  0.7170 -0.8772  0.3444
  645MOL0     H85084   2.039   4.355  11.182 -1.5059 -0.5277 -0.1330
  645MOL0     H85085   1.853   4.185  11.258 -0.1848  0.3347  0.4500
  645MOL0     H85086   1.927   4.075  11.146  2.6914  1.5655  0.2118
  645MOL0     H85087   1.922   4.219  10.974 -0.0496 -0.8094 -0.3366
  645MOL0     H85088   1.854   4.361  11.065 -1.0544 -0.3198 -0.2500
  645MOL0     H85089   1.675   4.218  10.915  0.5510  2.5395  0.2357
  645MOL0     H85090   1.722   4.086  11.017 -1.1605 -0.3188  1.8835
  645MOL0     H85091   1.633   4.221  11.224  0.5956  0.4499 -0.8897
  645MOL0     H85092   1.519   4.178  11.102 -0.2054 -0.1484  0.2983
  645MOL0     H85093   1.461   4.389  10.938  0.3010 -1.5927 -0.0360
  645MOL0     H85094   1.491   4.657  10.851 -2.1368  1.4923 -0.5763
  645MOL0     H85095   1.539   4.778  10.974  1.3810 -0.0910  0.9675
  645MOL0     H85096   1.330   4.737  11.102 -0.0968  2.2178 -0.9350
  645MOL0     H85097   1.295   4.606  10.985  2.7348 -0.9007  0.0603
  645MOL0     H85098   1.315   4.909  10.931  1.6633 -0.8435  0.1958
  645MOL0     H85099   1.254   4.798  10.804  0.5065 -0.4853 -0.1844
  645MOL0     H85100   1.125   4.860  11.064 -0.0410  0.7642 -0.2780
  645MOL0     H85101   1.076   4.738  10.952 -1.0685  0.7724 -0.5054
  645MOL0     H85102   0.896   4.883  11.086  0.5880  0.0487 -0.0937
  645MOL0     H85103   0.675   4.928  11.087 -0.5660 -1.9111 -1.7531
  645MOL0     H85104   0.289   4.921  11.086  0.4243  0.5758  1.1383
  645MOL0     H85105   0.057   4.952  11.101 -3.8788  2.0384  1.3177
  645MOL0     H85106  -0.132   5.292  10.888  2.8661 -1.1985  0.7373
  645MOL0     H85107  -0.106   5.374  11.048  0.2161  0.2807 -0.6087
  645MOL0     H85108  -0.305   5.208  11.119 -4.0402 -0.7500  0.2162
  645MOL0     H85109  -0.343   5.214  10.946  1.0491 -0.7102  0.5332
  645MOL0     H85110  -0.326   5.473  10.976  0.2549 -0.7072 -0.5827
  645MOL0     H85111  -0.347   5.454  11.145  3.2761  2.2608 -1.4935
  645MOL0     H85112  -0.549   5.321  10.956 -0.9999 -0.4919  0.2533
  645MOL0     H85113  -0.552   5.345  11.137 -1.4579  2.2885  0.3419
  645MOL0     H85114  -0.595   5.567  10.922 -2.8325  2.7277  1.4503
  645MOL0     H85115  -0.550   5.601  11.084 -0.0515  0.1428 -0.8263
  645MOL0     H85116  -0.759   5.520  11.169 -0.5826  2.3132 -0.3724
  645MOL0     H85117  -0.784   5.416  11.030  4.2768 -2.2737 -0.2201
  645MOL0     H85118  -0.830   5.727  11.060 -0.5766  0.0680 -1.2577
  645MOL0     H85119  -0.816   5.644  10.905 -0.5314 -0.2373 -0.7156
  645MOL0     H85120  -1.009   5.500  10.963  1.2203 -1.1492  0.1920
  645MOL0     H85121  -1.037   5.672  10.967  0.0844  0.7592  2.6700
  645MOL0     H85122   0.111   5.366  10.976  1.0407  1.1272 -1.4532
  645MOL0     H85123   0.359   5.322  10.979 -0.2398  0.4685 -0.0013
  645MOL0     H85124   0.713   5.181  10.746 -0.7426 -1.2413 -1.3113
  645MOL0     H85125   0.943   5.085  10.707 -1.0946 -0.6271 -0.6468
  645MOL0     H85126   2.546   3.915  10.945  0.9750 -0.5474  0.6647
  645MOL0     H85127   2.771   3.895  10.862  1.9664 -1.1578  1.5223
  645MOL0     H85128   3.161   4.191  10.825 -1.4441 -0.7265 -1.2922
  645MOL0     H85129   3.366   4.218  10.717 -0.1185  0.3238 -0.4500
  645MOL0     H85130   3.652   3.848  10.666  0.0473 -3.3410 -3.7840
  645MOL0     H85131   3.710   3.989  10.571  1.0872 -0.4462  1.9585
  645MOL0     H85132   3.453   3.841  10.520  2.0884 -1.7395 -0.5839
  645MOL0     H85133   3.497   3.994  10.450 -2.3028 -2.6674 -2.1053
  645MOL0     H85134   3.672   3.738  10.447  2.0808  0.2554 -0.0586
  645MOL0     H85135   3.691   3.873  10.337 -1.2930  2.0702  1.1360
  645MOL0     H85136   3.456   3.684  10.336 -2.7896 -0.1030 -3.5100
  645MOL0     H85137   3.479   3.810  10.219 -1.2597 -1.3430  0.8094
  645MOL0     H85138   3.741   3.487  10.102 -3.7706 -1.5808 -0.1446
  645MOL0     H85139   3.456   3.796  10.795  0.9141  0.2421  3.8040
  645MOL0     H85140   3.227   3.778  10.889 -0.4274  0.7487 -0.5524
  646MOL0     O85141   4.672   3.827   7.995  0.3525 -0.4351  0.1094
  646MOL0     C85142   4.717   3.802   8.107  0.0106 -0.4611  0.3513
  646MOL0     O85143   4.648   3.812   8.223  0.3186  0.0563  0.3405
  646MOL0     C85144   4.510   3.838   8.227 -0.9030  0.4932  0.5064
  646MOL0     C85145   4.432   3.733   8.270  0.3025 -0.5434  0.6830
  646MOL0     C85146   4.291   3.742   8.279  1.3343 -0.7651  1.2062
  646MOL0     C85147   4.226   3.863   8.224 -0.1066  0.4805 -0.3780
  646MOL0     O85148   4.089   3.863   8.208  0.1011  0.8224 -0.5491
  646MOL0     C85149   4.028   3.935   8.095  0.2631 -0.2134 -0.5744
  646MOL0     C85150   3.899   3.870   8.065  0.5036 -0.1390 -0.2056
  646MOL0     C85151   3.816   3.943   7.952  0.4381  0.3747 -0.4995
  646MOL0     C85152   3.699   3.866   7.895 -0.3383 -0.7432  0.3070
  646MOL0     C85153   3.617   3.945   7.791  0.9293 -0.4187  0.8217
  646MOL0     C85154   3.527   3.846   7.707 -0.3562 -0.0663  0.6535
  646MOL0     C85155   3.498   3.906   7.562 -1.2236  0.2542 -0.3892
  646MOL0     C85156   3.403   3.831   7.474  0.4956 -0.2301  0.5435
  646MOL0     N85157   3.265   3.854   7.511 -0.7603  0.3441 -0.3276
  646MOL0     C85158   3.179   3.746   7.533 -0.3132  0.3129  0.7794
  646MOL0     C85159   3.060   3.802   7.534  0.2651 -0.0800  0.7364
  646MOL0     C85160   2.921   3.736   7.526  0.0838  0.5992 -0.4814
  646MOL0     C85161   2.818   3.810   7.607  1.2314 -0.3644 -0.4221
  646MOL0     C85162   2.705   3.723   7.643  0.2856 -0.4277  0.4801
  646MOL0     C85163   2.579   3.803   7.667 -0.6812  0.4852  0.8267
  646MOL0     O85164   2.482   3.709   7.713  0.6030 -0.0855 -0.6451
  646MOL0     C85165   2.352   3.750   7.730  0.4611 -0.6372 -0.3867
  646MOL0     C85166   2.300   3.874   7.681 -0.5594  0.0638 -0.1372
  646MOL0     C85167   2.169   3.919   7.703 -0.5742  0.3843  0.5664
  646MOL0     C85168   2.078   3.825   7.759 -0.4990 -0.4972 -1.3722
  646MOL0     C85169   1.931   3.849   7.762 -0.8639  0.2992  0.0606
  646MOL0     O85170   1.904   3.968   7.703 -0.3161 -0.0734 -0.1557
  646MOL0     C85171   1.778   3.989   7.661 -0.1049  0.4827  0.0062
  646MOL0     C85172   1.750   3.997   7.517 -0.2253 -0.5387 -0.4108
  646MOL0     C85173   1.618   4.019   7.477  0.6234 -0.2542  0.3694
  646MOL0     C85174   1.518   4.044   7.577 -0.6879  0.2141 -0.0141
  646MOL0     O85175   1.385   4.078   7.551 -0.2384  0.0536 -0.5535
  646MOL0     C85176   1.341   4.029   7.426  0.6377  0.3305 -0.2211
  646MOL0     C85177   1.191   4.026   7.414  0.9048  0.8115 -0.2983
  646MOL0     C85178   1.145   3.959   7.290 -0.4109 -0.2847 -0.1454
  646MOL0     C85179   0.997   3.917   7.292 -0.2573  0.7464 -0.0633
  646MOL0     C85180   0.942   3.868   7.159 -0.6244  0.1232 -0.3614
  646MOL0     C85181   0.794   3.856   7.148  0.5149  0.6553  0.1513
  646MOL0     C85182   0.733   3.777   7.259  1.1455  0.6377 -0.0805
  646MOL0     C85183   0.586   3.745   7.221 -1.2888  0.1179 -0.4798
  646MOL0    Cl85184   0.497   3.882   7.147  0.4465  0.2602  0.2789
  646MOL0     C85185   1.547   4.032   7.712 -0.7739  0.6688 -0.2724
  646MOL0     C85186   1.678   4.014   7.756 -0.1612  0.2707  0.7475
  646MOL0     O85187   1.849   3.762   7.793  0.6981 -0.1211 -0.8194
  646MOL0     C85188   2.128   3.699   7.807  0.1859  1.1910  0.4369
  646MOL0     C85189   2.262   3.666   7.793  1.0835  0.3868 -0.6857
  646MOL0     N85190   3.073   3.941   7.536 -0.3707 -0.5729  0.7691
  646MOL0     N85191   3.195   3.973   7.521  1.1299  0.3734 -0.3772
  646MOL0     C85192   4.310   3.968   8.181  0.3601  0.5284  0.3734
  646MOL0     C85193   4.448   3.952   8.173 -0.0007 -0.1181 -0.7364
  646MOL0     C85194   4.858   3.774   8.110 -0.0377  0.9973  0.2494
  646MOL0     C85195   4.942   3.851   8.030 -0.8686  0.3362  0.2097
  646MOL0     C85196   5.086   3.829   8.033  0.1256 -0.5030  0.0489
  646MOL0     C85197   5.143   3.755   8.125 -0.1018 -0.5043  0.2330
  646MOL0     O85198   5.284   3.750   8.119 -0.0386  0.7188  0.4954
  646MOL0     C85199   5.360   3.707   8.223  0.1139  0.2093 -0.9649
  646MOL0     C85200   5.361   3.818   8.329 -0.0729 -0.8180 -0.2293
  646MOL0     C85201   5.419   3.948   8.270  0.5795  0.4276 -0.3059
  646MOL0     C85202   5.432   4.045   8.389  0.5939  0.4190  1.3965
  646MOL0     C85203   5.429   4.180   8.343 -0.2383 -0.0322  0.2826
  646MOL0     C85204   5.433   4.295   8.302  0.6501  0.0573 -1.0358
  646MOL0     C85205   5.062   3.706   8.227 -0.3124 -0.9691 -0.5533
  646MOL0     C85206   4.922   3.709   8.217  0.7840 -0.1344 -0.0943
  646MOL0     H85207   4.482   3.642   8.300  0.7125 -0.4395  0.3196
  646MOL0     H85208   4.238   3.664   8.334  1.8059 -1.7966  0.2395
  646MOL0     H85209   4.086   3.929   8.002  1.1086 -0.7227 -0.0272
  646MOL0     H85210   4.018   4.037   8.132  0.5506 -0.4795  0.2519
  646MOL0     H85211   3.834   3.847   8.150 -0.5000  0.5452 -0.7499
  646MOL0     H85212   3.912   3.766   8.035  1.2844 -0.8548  2.4130
  646MOL0     H85213   3.891   3.963   7.875  1.6718 -6.0954 -1.5927
  646MOL0     H85214   3.777   4.038   7.989 -2.2390  0.1154 -2.3559
  646MOL0     H85215   3.734   3.777   7.841 -5.1204 -3.2290  0.6979
  646MOL0     H85216   3.642   3.825   7.979  0.9606 -0.3012  1.4174
  646MOL0     H85217   3.689   4.005   7.735  1.0695 -1.8511 -0.6185
  646MOL0     H85218   3.548   4.015   7.837 -1.7096  0.6688 -4.1176
  646MOL0     H85219   3.428   3.826   7.747 -1.4763 -0.8346 -2.2665
  646MOL0     H85220   3.576   3.748   7.704  0.6501  0.3832  1.5766
  646MOL0     H85221   3.454   4.004   7.583 -0.6338  0.5786 -0.6271
  646MOL0     H85222   3.594   3.923   7.511  0.8321 -1.5718  2.5208
  646MOL0     H85223   3.440   3.728   7.460 -0.8033 -0.4079 -2.3606
  646MOL0     H85224   3.405   3.875   7.374 -2.8658  1.2087  1.0044
  646MOL0     H85225   3.209   3.643   7.515 -0.3333  0.4249  0.0744
  646MOL0     H85226   2.916   3.633   7.560  2.5385 -0.2537 -2.3694
  646MOL0     H85227   2.884   3.735   7.423  0.7125  1.4375 -0.7265
  646MOL0     H85228   2.784   3.900   7.555  1.2643 -0.2976 -0.3273
  646MOL0     H85229   2.869   3.850   7.695  2.2778  1.3826 -1.7614
  646MOL0     H85230   2.680   3.660   7.557  0.1750  1.5146 -0.9936
  646MOL0     H85231   2.742   3.661   7.725  2.3097 -0.5136 -0.4311
  646MOL0     H85232   2.554   3.846   7.569  3.1726  1.1328 -0.0433
  646MOL0     H85233   2.596   3.874   7.749 -0.4336  0.6850  0.6018
  646MOL0     H85234   2.366   3.941   7.626  2.0286 -1.4053  0.9850
  646MOL0     H85235   2.141   4.019   7.675 -1.2362 -0.1361 -0.7229
  646MOL0     H85236   1.843   3.993   7.462 -0.5565  3.6573 -1.6464
  646MOL0     H85237   1.594   4.027   7.372 -0.2051  0.9071  0.6254
  646MOL0     H85238   1.365   3.924   7.407 -0.3332  0.3218 -1.5456
  646MOL0     H85239   1.373   4.105   7.354 -1.1047 -0.5709 -2.0585
  646MOL0     H85240   1.161   4.131   7.422  3.6664  1.6177  0.7851
  646MOL0     H85241   1.151   3.978   7.504  1.6192  1.0654  0.1640
  646MOL0     H85242   1.209   3.873   7.266  0.1365  0.0263  0.1714
  646MOL0     H85243   1.170   4.030   7.210  2.5225 -0.4227  0.5020
  646MOL0     H85244   0.991   3.828   7.354  0.2593  0.9949  0.3600
  646MOL0     H85245   0.938   3.986   7.353  0.6967  0.1940  1.5722
  646MOL0     H85246   0.994   3.772   7.147 -1.5180 -0.4101 -0.0877
  646MOL0     H85247   0.979   3.940   7.086 -1.7435 -0.1766 -1.2513
  646MOL0     H85248   0.764   3.817   7.050  0.3701  4.3820 -1.4837
  646MOL0     H85249   0.744   3.954   7.147  1.1195  1.0061 -2.1193
  646MOL0     H85250   0.796   3.692   7.287  0.4380  1.5573  5.1947
  646MOL0     H85251   0.711   3.831   7.351 -2.9890 -1.3845  0.3569
  646MOL0     H85252   0.535   3.711   7.312 -5.1557  2.0215 -1.7523
  646MOL0     H85253   0.585   3.669   7.143  0.2287  1.3709 -1.7827
  646MOL0     H85254   1.463   4.047   7.779 -0.3434  5.1558 -0.4262
  646MOL0     H85255   1.701   4.004   7.861 -1.6904 -0.2019  1.0591
  646MOL0     H85256   2.056   3.626   7.842 -0.3765 -0.7828 -4.1158
  646MOL0     H85257   2.285   3.572   7.842  1.2951  1.2046  0.8714
  646MOL0     H85258   4.274   4.068   8.155  1.5699  1.7836  3.1488
  646MOL0     H85259   4.520   4.029   8.146  1.5021  0.3955  3.8602
  646MOL0     H85260   4.900   3.913   7.951  1.2056  1.9616  0.2635
  646MOL0     H85261   5.148   3.883   7.962  1.8675 -0.5993  1.4456
  646MOL0     H85262   5.462   3.690   8.188 -0.4695 -1.7710 -1.8830
  646MOL0     H85263   5.327   3.615   8.273 -0.3805  1.9817  2.2086
  646MOL0     H85264   5.261   3.840   8.367  1.3685 -0.2504  3.7128
  646MOL0     H85265   5.420   3.776   8.411 -2.8858 -1.8359  1.4370
  646MOL0     H85266   5.351   3.991   8.197 -0.8169  0.6907  1.0998
  646MOL0     H85267   5.518   3.935   8.225  0.4042 -0.8291 -0.3447
  646MOL0     H85268   5.358   4.035   8.469 -2.0524  4.6276 -0.2021
  646MOL0     H85269   5.529   4.026   8.436  0.4376 -2.1228  0.8341
  646MOL0     H85270   5.453   4.397   8.276  1.3467  0.0538 -0.5394
  646MOL0     H85271   5.108   3.660   8.313  0.8165  0.7876 -0.1650
  646MOL0     H85272   4.865   3.652   8.290  2.9911  0.1073  1.9552
  647MOL0     O85273   8.480   0.172   6.917  0.3520 -0.7701 -0.2134
  647MOL0     C85274   8.409   0.090   6.978  0.2682 -0.7209  0.8635
  647MOL0     O85275   8.272   0.073   6.962 -0.5358  0.5518 -0.1917
  647MOL0     C85276   8.202   0.134   6.854 -1.1992  0.1446  0.3106
  647MOL0     C85277   8.246   0.095   6.727 -0.0272  0.2805  0.0602
  647MOL0     C85278   8.179   0.145   6.616 -0.2633  0.5676  0.2688
  647MOL0     C85279   8.074   0.230   6.627 -0.3844 -0.1172  0.0162
  647MOL0     O85280   8.022   0.295   6.517 -0.3020  0.4773 -0.0043
  647MOL0     C85281   7.893   0.267   6.459 -0.1472  0.0147 -0.4774
  647MOL0     C85282   7.895   0.125   6.410  0.4425  0.8113 -0.7553
  647MOL0     C85283   7.783   0.095   6.305  0.3981 -0.7962  0.0928
  647MOL0     C85284   7.802  -0.050   6.247  0.3149  0.7710  0.6661
  647MOL0     C85285   7.669  -0.110   6.200 -0.3888  0.6698  0.7013
  647MOL0     C85286   7.615  -0.027   6.078  0.4262 -0.1945 -0.8677
  647MOL0     C85287   7.490  -0.090   6.029  1.0740  0.5140  0.2292
  647MOL0     C85288   7.440   0.001   5.921  0.4946 -0.5992 -0.3856
  647MOL0     N85289   7.540   0.035   5.819  0.4713  0.2372 -0.7611
  647MOL0     C85290   7.635  -0.042   5.756  0.3631 -0.1343  0.3283
  647MOL0     C85291   7.701   0.042   5.671  0.2777  0.7616  0.0748
  647MOL0     C85292   7.827   0.011   5.597 -0.3108 -0.6809  0.0473
  647MOL0     C85293   7.934   0.105   5.651 -0.1648  0.3730 -0.1334
  647MOL0     C85294   8.066   0.089   5.566 -0.0762  0.1905  0.8105
  647MOL0     C85295   8.180   0.179   5.625 -0.0412 -0.2033 -0.5702
  647MOL0     O85296   8.224   0.127   5.749  0.4736 -0.4625  0.1355
  647MOL0     C85297   8.340   0.181   5.800 -1.0842 -1.0207  0.0410
  647MOL0     C85298   8.382   0.143   5.925 -0.0920  0.0808  0.3722
  647MOL0     C85299   8.501   0.191   5.976  0.2458  0.7623 -0.2002
  647MOL0     C85300   8.585   0.281   5.909  0.5351  0.6133  0.2041
  647MOL0     C85301   8.707   0.333   5.964  0.7353 -0.0795  0.5980
  647MOL0     O85302   8.754   0.264   6.075  0.5498  0.4081  0.5744
  647MOL0     C85303   8.872   0.288   6.144  0.3914  0.1651 -0.0477
  647MOL0     C85304   8.890   0.197   6.252 -0.0860 -0.0967 -0.4217
  647MOL0     C85305   8.994   0.226   6.344  0.5667 -0.2920  0.3631
  647MOL0     C85306   9.077   0.330   6.327 -0.3348 -0.0672 -0.1265
  647MOL0     O85307   9.179   0.356   6.416 -0.4998 -0.2827 -0.8609
  647MOL0     C85308   9.225   0.245   6.494 -0.2859 -0.5796 -0.1191
  647MOL0     C85309   9.370   0.286   6.535  0.4584 -0.4885 -0.2117
  647MOL0     C85310   9.444   0.200   6.641 -0.1150  0.1622 -0.4974
  647MOL0     C85311   9.593   0.226   6.649 -0.1268 -0.3873  0.0589
  647MOL0     C85312   9.646   0.156   6.769  0.2296  0.6407  0.3296
  647MOL0     C85313   9.804   0.170   6.757  0.6587  0.8090  0.2950
  647MOL0     C85314   9.864   0.086   6.649  0.1646  1.1197  0.5555
  647MOL0     C85315  10.011   0.060   6.680  0.5586 -0.0169  0.3909
  647MOL0    Cl85316  10.090   0.003   6.526  0.2160 -0.2289  0.3330
  647MOL0     C85317   9.050   0.426   6.229  0.8981 -0.5088 -0.2649
  647MOL0     C85318   8.952   0.397   6.129  0.0509 -0.1802  0.7656
  647MOL0     O85319   8.765   0.425   5.899 -0.3967  0.4268  0.1854
  647MOL0     C85320   8.542   0.320   5.788 -0.0974  0.4151  0.2111
  647MOL0     C85321   8.426   0.268   5.733  0.1028  0.3956  0.1149
  647MOL0     N85322   7.648   0.169   5.685 -0.0656  0.7030 -0.0490
  647MOL0     N85323   7.545   0.162   5.775  0.6011 -0.0127  0.1316
  647MOL0     C85324   8.051   0.281   6.766 -0.2819  1.3241  0.2196
  647MOL0     C85325   8.107   0.228   6.880 -0.3089  0.3555 -0.0658
  647MOL0     C85326   8.477   0.017   7.088 -0.0085 -0.3628 -0.2902
  647MOL0     C85327   8.611   0.004   7.084 -0.2183 -0.8459  0.6991
  647MOL0     C85328   8.674  -0.057   7.192  0.2655  0.4105 -0.4540
  647MOL0     C85329   8.598  -0.121   7.297  0.7922  0.1485  0.0784
  647MOL0     O85330   8.648  -0.204   7.393  0.6463 -0.5114  0.2338
  647MOL0     C85331   8.794  -0.235   7.378 -0.8355  0.7448  0.1320
  647MOL0     C85332   8.868  -0.148   7.475 -1.4701  0.1938  0.1183
  647MOL0     C85333   8.883  -0.002   7.429  0.5700  0.4871 -0.7239
  647MOL0     C85334   9.003   0.023   7.336  0.4209 -0.0986  0.2206
  647MOL0     C85335   9.131  -0.021   7.380  0.0109  0.2738 -0.8780
  647MOL0     C85336   9.240  -0.069   7.409 -1.2456 -0.2695 -0.5548
  647MOL0     C85337   8.459  -0.103   7.295 -0.3195 -0.0700 -0.8672
  647MOL0     C85338   8.395  -0.043   7.187 -0.3898  0.5862  0.0381
  647MOL0     H85339   8.331   0.028   6.726  0.2471  0.5635  1.7932
  647MOL0     H85340   8.221   0.128   6.518  1.7177  2.6901  0.6473
  647MOL0     H85341   7.882   0.337   6.375 -2.4015  2.1070  1.4304
  647MOL0     H85342   7.802   0.289   6.516  0.1659  3.2738 -1.0507
  647MOL0     H85343   7.876   0.060   6.496 -1.6976 -1.7021 -2.9279
  647MOL0     H85344   7.993   0.093   6.373  1.2628 -0.1699  2.0395
  647MOL0     H85345   7.792   0.178   6.235 -0.1501 -1.4297 -0.7395
  647MOL0     H85346   7.684   0.105   6.349 -0.1166  0.3739 -1.2606
  647MOL0     H85347   7.880  -0.053   6.171  1.2084 -3.1159  1.5034
  647MOL0     H85348   7.843  -0.112   6.328 -0.1403  0.2256  0.4861
  647MOL0     H85349   7.582  -0.102   6.266 -1.9807  1.8741 -1.3807
  647MOL0     H85350   7.691  -0.214   6.175  1.3312  1.0036  0.7098
  647MOL0     H85351   7.693  -0.018   6.003  2.2490  2.1004  1.1334
  647MOL0     H85352   7.591   0.072   6.117  0.2699  0.3205 -2.2320
  647MOL0     H85353   7.504  -0.194   5.996 -2.3047 -1.1997  3.4248
  647MOL0     H85354   7.420  -0.086   6.114  0.3245 -3.7427  0.0670
  647MOL0     H85355   7.401   0.094   5.964 -1.2415 -1.0098 -1.0116
  647MOL0     H85356   7.355  -0.044   5.870 -1.2100  2.1516 -0.1760
  647MOL0     H85357   7.645  -0.150   5.761 -0.3130 -0.1855  0.6123
  647MOL0     H85358   7.813   0.010   5.488  0.1785  1.0536 -0.0582
  647MOL0     H85359   7.845  -0.095   5.618 -3.5947 -1.2254  0.6889
  647MOL0     H85360   7.951   0.084   5.757  1.9592  0.7329 -0.3603
  647MOL0     H85361   7.882   0.201   5.654  0.8623  0.9284  1.6113
  647MOL0     H85362   8.098  -0.014   5.550 -0.2157  0.4407 -1.3958
  647MOL0     H85363   8.049   0.126   5.464  2.8557 -1.2464 -0.3178
  647MOL0     H85364   8.152   0.283   5.644  1.2734 -0.4928  4.0312
  647MOL0     H85365   8.259   0.174   5.549 -1.0337 -1.1040 -1.5808
  647MOL0     H85366   8.318   0.070   5.973 -1.7189  0.4892 -1.0782
  647MOL0     H85367   8.521   0.167   6.080 -1.3110  2.1830  0.4682
  647MOL0     H85368   8.811   0.126   6.272 -0.3331  0.4997  0.8355
  647MOL0     H85369   9.007   0.159   6.428 -0.6821 -0.2680  0.5931
  647MOL0     H85370   9.224   0.156   6.431 -0.4417  0.5392 -1.7448
  647MOL0     H85371   9.161   0.229   6.582 -2.2998  0.6104 -1.3076
  647MOL0     H85372   9.389   0.391   6.559  0.8105 -0.7323  0.6524
  647MOL0     H85373   9.437   0.283   6.449 -1.9541  1.7063 -2.3442
  647MOL0     H85374   9.438   0.092   6.622  0.9988 -0.0232  0.1151
  647MOL0     H85375   9.391   0.209   6.736  1.2917 -1.8348  0.5548
  647MOL0     H85376   9.632   0.215   6.547 -0.2997  1.0457 -0.1881
  647MOL0     H85377   9.606   0.335   6.658  1.8608 -0.7957  4.8737
  647MOL0     H85378   9.609   0.054   6.754  0.5849  0.5597  0.0053
  647MOL0     H85379   9.597   0.201   6.856 -0.7285  0.6859 -0.2196
  647MOL0     H85380   9.827   0.136   6.858 -2.1370 -2.5754 -0.0181
  647MOL0     H85381   9.823   0.278   6.749  0.7659  0.9156  1.7532
  647MOL0     H85382   9.814  -0.007   6.621  0.2537  1.9191 -2.6276
  647MOL0     H85383   9.859   0.139   6.554  0.0171  1.1191  0.5627
  647MOL0     H85384  10.025  -0.012   6.762  1.8299 -0.2880 -0.0447
  647MOL0     H85385  10.058   0.156   6.700  0.3633  0.6256 -1.9588
  647MOL0     H85386   9.111   0.516   6.228  1.3615 -0.8214 -0.3630
  647MOL0     H85387   8.937   0.467   6.047  2.7284  0.6726  0.9023
  647MOL0     H85388   8.594   0.394   5.728  1.8260  1.1675  2.6282
  647MOL0     H85389   8.392   0.302   5.636 -2.6176 -2.4637 -0.0932
  647MOL0     H85390   7.988   0.369   6.775  0.8831  2.4523 -1.9082
  647MOL0     H85391   8.068   0.245   6.980  2.5571 -1.6890  1.5699
  647MOL0     H85392   8.678   0.044   7.009 -0.0702 -1.5742  0.4370
  647MOL0     H85393   8.782  -0.067   7.186  0.1803  0.0087 -1.8439
  647MOL0     H85394   8.840  -0.242   7.279 -0.1948 -4.1581  0.4813
  647MOL0     H85395   8.800  -0.339   7.413 -2.1953 -1.2028 -4.6619
  647MOL0     H85396   8.820  -0.154   7.574 -2.4984  0.6487 -0.3355
  647MOL0     H85397   8.968  -0.189   7.489 -2.3340 -2.5385 -1.1343
  647MOL0     H85398   8.912   0.059   7.515 -0.6722  0.0926  0.0073
  647MOL0     H85399   8.789   0.044   7.397  0.5326  2.0974  1.5016
  647MOL0     H85400   8.992  -0.038   7.246  1.4384 -0.6153  0.4308
  647MOL0     H85401   9.002   0.127   7.300  1.7646  0.1990  0.9523
  647MOL0     H85402   9.344  -0.078   7.434 -1.3076  2.1888  0.8766
  647MOL0     H85403   8.406  -0.155   7.373  0.5327  0.6016  0.1845
  647MOL0     H85404   8.287  -0.036   7.191 -0.2883  2.7264  3.7224
  648MOL0     O85405   9.358   1.351   4.867 -0.4025  0.1908 -0.2399
  648MOL0     C85406   9.378   1.369   4.988  0.4471  1.1432  0.1246
  648MOL0     O85407   9.282   1.392   5.084 -0.9486 -0.7023  0.3909
  648MOL0     C85408   9.149   1.405   5.053 -0.1916 -0.1402 -0.3939
  648MOL0     C85409   9.061   1.376   5.158 -0.4366 -0.1858 -0.7263
  648MOL0     C85410   8.926   1.392   5.133 -0.0547 -0.0740 -0.3578
  648MOL0     C85411   8.868   1.447   5.011 -0.4157 -0.0810  0.0798
  648MOL0     O85412   8.737   1.476   4.976  0.3968 -0.2236 -0.5878
  648MOL0     C85413   8.649   1.492   5.092 -0.2790  0.7416  0.6270
  648MOL0     C85414   8.504   1.526   5.046 -0.2354 -0.4703 -0.5067
  648MOL0     C85415   8.408   1.526   5.172 -0.0924 -0.4929  0.6022
  648MOL0     C85416   8.263   1.539   5.122  0.1405  0.4716 -1.0336
  648MOL0     C85417   8.231   1.686   5.092  0.5769  0.1073  0.2641
  648MOL0     C85418   8.090   1.691   5.044  0.4384  1.1031  1.2009
  648MOL0     C85419   8.041   1.829   4.998  0.1804  0.6414  0.3783
  648MOL0     C85420   8.067   1.942   5.111  0.1260  0.2199  0.2561
  648MOL0     N85421   7.987   1.935   5.236 -0.2077 -0.2197  0.0155
  648MOL0     C85422   8.009   1.873   5.352 -0.1930 -0.1388 -0.0953
  648MOL0     C85423   7.908   1.901   5.437 -0.5679  1.0871  0.5220
  648MOL0     C85424   7.876   1.870   5.583  0.0345 -0.3404  1.1005
  648MOL0     C85425   7.770   1.767   5.595  0.2157  0.3449  0.0395
  648MOL0     C85426   7.723   1.734   5.744 -0.1284  0.5505  0.3594
  648MOL0     C85427   7.602   1.640   5.749  0.3525 -0.1357 -0.1081
  648MOL0     O85428   7.556   1.635   5.881 -0.1511 -0.5955 -0.3560
  648MOL0     C85429   7.427   1.596   5.905 -1.8826 -0.1302 -0.0806
  648MOL0     C85430   7.388   1.595   6.042 -0.0048  0.2447  0.3286
  648MOL0     C85431   7.256   1.560   6.072  1.2063  0.7721 -0.2865
  648MOL0     C85432   7.162   1.521   5.974  0.2131  0.8033 -0.3346
  648MOL0     C85433   7.022   1.488   6.024 -0.1827 -0.9854  0.6135
  648MOL0     O85434   6.940   1.454   5.925  0.8024  0.7635 -0.1342
  648MOL0     C85435   6.805   1.462   5.933  0.3486  0.7568 -0.9455
  648MOL0     C85436   6.733   1.375   5.850  0.4337  0.8173 -0.0693
  648MOL0     C85437   6.595   1.398   5.833 -0.4059 -0.1116  0.2526
  648MOL0     C85438   6.532   1.500   5.904 -1.1350 -0.5582 -0.1547
  648MOL0     O85439   6.402   1.525   5.889  0.3322  0.1406  0.7461
  648MOL0     C85440   6.310   1.445   5.814  0.6540 -0.9149 -0.3990
  648MOL0     C85441   6.176   1.529   5.808 -0.8150  0.2424 -0.5752
  648MOL0     C85442   6.116   1.536   5.951 -0.4928  0.0733  0.3870
  648MOL0     C85443   5.985   1.609   5.951 -0.0968 -0.7056 -0.1296
  648MOL0     C85444   5.888   1.553   6.055  0.5838  0.9291 -0.1380
  648MOL0     C85445   5.751   1.616   6.025  0.0044  0.6080  0.2161
  648MOL0     C85446   5.627   1.567   6.109 -0.1335 -0.3658 -0.5815
  648MOL0     C85447   5.642   1.557   6.256 -0.4521 -0.8311 -0.6463
  648MOL0    Cl85448   5.644   1.724   6.332 -0.1049  0.3877 -0.2327
  648MOL0     C85449   6.604   1.583   5.982 -0.4839  0.2531  0.9161
  648MOL0     C85450   6.738   1.570   6.003 -0.2841  0.2825 -0.5688
  648MOL0     O85451   6.989   1.482   6.143  0.3589  0.5520  0.1448
  648MOL0     C85452   7.201   1.517   5.844 -0.2773 -0.1470  0.2053
  648MOL0     C85453   7.329   1.561   5.801  1.0340 -0.8816 -0.4758
  648MOL0     N85454   7.824   1.978   5.368  0.6166  0.7398  0.9506
  648MOL0     N85455   7.869   2.008   5.256 -1.0471 -0.6467  0.0540
  648MOL0     C85456   8.955   1.484   4.906  0.0141 -0.2518  0.1225
  648MOL0     C85457   9.099   1.463   4.934  0.0166 -0.0705  0.8179
  648MOL0     C85458   9.512   1.398   5.033 -0.0743 -0.5074  0.4360
  648MOL0     C85459   9.617   1.393   4.947  1.1169  0.3092  0.0767
  648MOL0     C85460   9.746   1.414   4.995 -0.3575 -0.7184  0.4311
  648MOL0     C85461   9.782   1.431   5.131  0.1747  0.7113 -1.4298
  648MOL0     O85462   9.900   1.466   5.199 -0.6968 -0.0124 -0.8379
  648MOL0     C85463  10.000   1.535   5.123  0.2050  0.1814  0.0150
  648MOL0     C85464   9.965   1.690   5.111  0.4737  0.4463 -0.9086
  648MOL0     C85465  10.081   1.760   5.039  0.5145 -0.6464 -0.3654
  648MOL0     C85466  10.018   1.895   5.002  0.0664 -0.0223  0.6240
  648MOL0     C85467  10.019   1.986   5.121 -0.4796 -0.0390 -0.0780
  648MOL0     C85468  10.011   2.055   5.219  0.0121 -0.4054 -0.1219
  648MOL0     C85469   9.673   1.421   5.222  0.1029 -0.3674  0.3772
  648MOL0     C85470   9.541   1.410   5.168 -0.1229  0.1118  0.1613
  648MOL0     H85471   9.106   1.338   5.249 -2.3941 -0.4628  0.1886
  648MOL0     H85472   8.865   1.346   5.210 -1.0414 -0.7363 -1.5072
  648MOL0     H85473   8.681   1.575   5.155  0.0613  1.1549 -0.0790
  648MOL0     H85474   8.640   1.401   5.151 -2.3615  1.2079  1.1075
  648MOL0     H85475   8.473   1.449   4.975 -0.0989 -0.7600 -0.2526
  648MOL0     H85476   8.513   1.620   4.990 -1.1737 -1.6267 -2.7628
  648MOL0     H85477   8.434   1.601   5.246  0.5106 -2.3321  2.3552
  648MOL0     H85478   8.412   1.430   5.225 -0.8021  0.2136  1.9686
  648MOL0     H85479   8.234   1.474   5.040 -0.7262 -2.3322  1.3327
  648MOL0     H85480   8.199   1.490   5.195  1.9511 -3.8759 -2.0428
  648MOL0     H85481   8.294   1.724   5.010 -0.9085  0.4101 -0.7706
  648MOL0     H85482   8.239   1.745   5.184  1.7276 -0.2803  0.4298
  648MOL0     H85483   8.027   1.642   5.119  0.3594 -2.1415 -0.7664
  648MOL0     H85484   8.085   1.629   4.953  0.6070  0.8652  1.3539
  648MOL0     H85485   8.086   1.859   4.903 -0.6255  2.1832  0.4472
  648MOL0     H85486   7.933   1.817   4.984  0.2125 -1.8091  1.7972
  648MOL0     H85487   8.058   2.037   5.057  0.7584  0.7400  1.0531
  648MOL0     H85488   8.170   1.934   5.146 -0.5083  1.4146  2.5904
  648MOL0     H85489   8.078   1.793   5.377 -0.5391 -0.7925 -1.1250
  648MOL0     H85490   7.852   1.968   5.625  1.0814 -0.1763  1.3566
  648MOL0     H85491   7.955   1.844   5.655 -0.8442  2.2359  3.1586
  648MOL0     H85492   7.791   1.674   5.540  0.2163  1.4347 -1.8843
  648MOL0     H85493   7.682   1.817   5.552  2.7047  1.6826 -4.0427
  648MOL0     H85494   7.800   1.688   5.808 -0.4872  0.1401  0.5023
  648MOL0     H85495   7.691   1.828   5.789 -3.6781 -1.1028  1.6314
  648MOL0     H85496   7.644   1.543   5.722  2.5177 -0.1331  2.7282
  648MOL0     H85497   7.525   1.676   5.681  0.3139  3.1157  1.4631
  648MOL0     H85498   7.463   1.624   6.115  0.8581  0.2167 -0.5206
  648MOL0     H85499   7.226   1.539   6.174  2.4443  0.9740  0.1403
  648MOL0     H85500   6.772   1.291   5.793 -2.2804 -0.1525 -0.6468
  648MOL0     H85501   6.542   1.332   5.764 -1.1951  0.3499  0.3999
  648MOL0     H85502   6.314   1.355   5.876  0.5577  1.5849  3.6133
  648MOL0     H85503   6.348   1.437   5.712 -0.6173 -0.8379 -0.8952
  648MOL0     H85504   6.110   1.477   5.737  2.3188 -2.7332 -1.5505
  648MOL0     H85505   6.206   1.633   5.791  1.6764 -0.0785  1.3764
  648MOL0     H85506   6.183   1.584   6.023 -0.1571 -4.1681  3.2441
  648MOL0     H85507   6.114   1.440   6.003  1.7435  0.7536  1.8850
  648MOL0     H85508   6.002   1.715   5.972  3.2895 -1.4630  1.5784
  648MOL0     H85509   5.940   1.613   5.851  2.4078  1.2173 -1.2666
  648MOL0     H85510   5.919   1.572   6.158 -0.6852 -0.0892  0.4542
  648MOL0     H85511   5.876   1.445   6.041 -1.0380  1.1418 -0.6777
  648MOL0     H85512   5.728   1.602   5.919  1.6331  1.2174 -0.2529
  648MOL0     H85513   5.752   1.726   6.023 -0.0937  0.6199  0.6539
  648MOL0     H85514   5.550   1.645   6.101 -0.2404 -0.3699  0.2695
  648MOL0     H85515   5.586   1.476   6.065 -1.3903 -0.5652  0.9007
  648MOL0     H85516   5.729   1.504   6.295  0.2838  0.2938 -0.7067
  648MOL0     H85517   5.565   1.489   6.291  2.5493 -3.6653  1.0094
  648MOL0     H85518   6.542   1.658   6.030 -3.9430 -0.8811 -1.4296
  648MOL0     H85519   6.802   1.642   6.052 -2.9598  2.2986  0.1868
  648MOL0     H85520   7.125   1.493   5.770 -0.3519  2.6246 -0.7542
  648MOL0     H85521   7.350   1.574   5.696  0.4727  1.1641 -0.3860
  648MOL0     H85522   8.920   1.521   4.810  1.9273  1.2824 -0.0583
  648MOL0     H85523   9.162   1.485   4.849  0.2102 -0.9161  0.7387
  648MOL0     H85524   9.597   1.370   4.843  0.7430  1.0502 -0.0221
  648MOL0     H85525   9.820   1.415   4.915 -2.8456  0.6825 -1.9983
  648MOL0     H85526   9.995   1.497   5.020  1.9773  1.6207 -0.6684
  648MOL0     H85527  10.099   1.508   5.161 -0.6660  0.5449  2.7618
  648MOL0     H85528   9.865   1.717   5.076 -0.9407 -1.4686  1.3995
  648MOL0     H85529   9.959   1.726   5.214 -1.3782 -0.6463 -0.5915
  648MOL0     H85530  10.098   1.702   4.948 -1.8123  0.9062 -1.9091
  648MOL0     H85531  10.173   1.764   5.098  1.3221 -1.7823 -1.5166
  648MOL0     H85532  10.084   1.942   4.928 -1.3211  2.2593  0.7340
  648MOL0     H85533   9.921   1.871   4.957  0.7125 -3.3755  0.8128
  648MOL0     H85534  10.003   2.122   5.302  1.6055  1.0549 -1.0905
  648MOL0     H85535   9.689   1.427   5.330  0.6280 -1.2421  0.3605
  648MOL0     H85536   9.457   1.393   5.235 -1.5230 -2.0075 -1.9734
  649MOL0     O85537   9.488   2.853   2.525  0.6869 -0.4160  0.2415
  649MOL0     C85538   9.411   2.919   2.459 -0.0589  0.0119 -0.8112
  649MOL0     O85539   9.277   2.923   2.475 -0.2751  0.0167  0.2553
  649MOL0     C85540   9.203   2.860   2.576  1.3096 -0.4148  0.5150
  649MOL0     C85541   9.242   2.759   2.660  0.2950 -0.3105 -0.2942
  649MOL0     C85542   9.153   2.724   2.759  0.2688 -0.0177  0.6386
  649MOL0     C85543   9.032   2.789   2.785  0.4143  0.0996  0.3614
  649MOL0     O85544   8.952   2.769   2.900  0.3394  0.1186 -0.9352
  649MOL0     C85545   9.014   2.685   3.004  0.2107 -0.1652 -0.1371
  649MOL0     C85546   8.932   2.715   3.133  1.1758 -0.0238 -0.1640
  649MOL0     C85547   8.781   2.672   3.132  0.2160 -0.0258  0.8693
  649MOL0     C85548   8.734   2.668   3.274  0.2694 -0.2956 -0.6782
  649MOL0     C85549   8.596   2.727   3.291 -0.1779 -0.4132  0.6623
  649MOL0     C85550   8.496   2.644   3.206  0.2603  0.0601 -0.2691
  649MOL0     C85551   8.364   2.719   3.206 -0.0017 -0.0640 -0.4366
  649MOL0     C85552   8.250   2.633   3.142  0.2343 -0.2473 -0.0684
  649MOL0     N85553   8.121   2.685   3.185  0.3662 -0.7124 -0.2456
  649MOL0     C85554   8.021   2.622   3.255  0.1929 -0.3771 -0.4814
  649MOL0     C85555   7.910   2.703   3.241  0.6077  0.2288  0.3777
  649MOL0     C85556   7.782   2.674   3.317 -0.4897  0.0454 -0.2502
  649MOL0     C85557   7.677   2.627   3.226  0.2713  0.0073 -0.0033
  649MOL0     C85558   7.537   2.608   3.303 -0.3605 -0.1629  0.1720
  649MOL0     C85559   7.449   2.514   3.218  0.1999 -0.8128 -0.7018
  649MOL0     O85560   7.320   2.534   3.272  0.7104  0.0938 -0.0197
  649MOL0     C85561   7.215   2.504   3.186  0.2190  0.0130 -0.4864
  649MOL0     C85562   7.088   2.558   3.222  0.4918  0.3297 -0.3765
  649MOL0     C85563   6.977   2.525   3.154  0.2180 -0.0781  0.5894
  649MOL0     C85564   6.976   2.449   3.034 -0.3813  0.0877  0.6064
  649MOL0     C85565   6.857   2.432   2.948 -0.5266 -0.7266 -0.0578
  649MOL0     O85566   6.747   2.507   2.989 -0.2442  0.5183 -0.0428
  649MOL0     C85567   6.629   2.494   2.915 -0.1679 -0.2218 -0.5542
  649MOL0     C85568   6.560   2.371   2.908  0.2072 -0.4554 -0.3424
  649MOL0     C85569   6.451   2.361   2.821  0.2038 -0.5002  0.1763
  649MOL0     C85570   6.392   2.476   2.766 -0.7054  0.4491 -0.5785
  649MOL0     O85571   6.274   2.496   2.712 -0.0176  0.2090  1.4313
  649MOL0     C85572   6.184   2.389   2.697  0.2402  0.7229  0.4072
  649MOL0     C85573   6.233   2.301   2.571 -0.4925 -1.2196 -0.0527
  649MOL0     C85574   6.163   2.178   2.559  0.4141  0.4513  0.4976
  649MOL0     C85575   6.209   2.096   2.437 -0.4214  0.2228 -0.0303
  649MOL0     C85576   6.116   1.970   2.409 -0.0663 -1.6833 -0.2994
  649MOL0     C85577   5.990   2.011   2.328 -0.9827  0.1488 -0.2556
  649MOL0     C85578   6.008   2.003   2.177  0.2330  0.8022  0.3717
  649MOL0     C85579   5.882   2.053   2.112  0.9442 -0.0756  0.2276
  649MOL0    Cl85580   5.748   1.943   2.152 -0.4040  0.0913 -0.2340
  649MOL0     C85581   6.463   2.592   2.784  0.4933 -0.8250 -0.4188
  649MOL0     C85582   6.576   2.606   2.852 -0.5631 -0.0464 -0.6937
  649MOL0     O85583   6.875   2.376   2.841  0.2515  0.5692 -0.0405
  649MOL0     C85584   7.102   2.396   2.991 -0.4423  0.1309  0.4080
  649MOL0     C85585   7.213   2.422   3.070 -0.4112  0.9060  0.5159
  649MOL0     N85586   7.947   2.818   3.183 -0.2534  0.5950 -0.4037
  649MOL0     N85587   8.072   2.810   3.143  0.3996  0.2907 -0.3754
  649MOL0     C85588   8.997   2.887   2.695 -0.3063 -0.8715 -0.1044
  649MOL0     C85589   9.072   2.919   2.592 -0.1378 -0.7547  0.2009
  649MOL0     C85590   9.459   3.011   2.351 -0.2097  1.7043 -0.5566
  649MOL0     C85591   9.591   3.009   2.319 -0.3542 -0.7803  0.0216
  649MOL0     C85592   9.644   3.102   2.233 -0.5026 -0.1044  0.6659
  649MOL0     C85593   9.560   3.196   2.171  1.1395 -0.0397 -0.8695
  649MOL0     O85594   9.602   3.283   2.068 -0.1765 -0.0735  0.0552
  649MOL0     C85595   9.735   3.281   2.018  0.0581  0.5843  0.0264
  649MOL0     C85596   9.776   3.418   1.956 -0.4362  0.0396  0.5929
  649MOL0     C85597   9.918   3.428   1.904  0.3761  0.0104  0.7506
  649MOL0     C85598   9.941   3.558   1.832  0.5667 -0.0656  0.4585
  649MOL0     C85599  10.071   3.610   1.855 -0.7014 -0.2758 -0.1206
  649MOL0     C85600  10.172   3.651   1.887  0.7322  0.1788 -0.4511
  649MOL0     C85601   9.427   3.202   2.206  0.2497  0.2885  0.0502
  649MOL0     C85602   9.376   3.101   2.292  1.0972 -0.2594 -0.2807
  649MOL0     H85603   9.339   2.711   2.668  0.6005  0.5687  2.3882
  649MOL0     H85604   9.198   2.646   2.819  1.5842  0.3547  0.1830
  649MOL0     H85605   9.119   2.709   3.021  0.5429 -1.7728  0.2508
  649MOL0     H85606   9.016   2.578   2.984 -1.6013  0.0150 -1.5425
  649MOL0     H85607   8.931   2.823   3.155 -3.4370 -0.4213  3.1205
  649MOL0     H85608   8.984   2.671   3.219  2.8320 -1.7609 -1.9815
  649MOL0     H85609   8.770   2.579   3.076  0.4177  1.4116 -1.6826
  649MOL0     H85610   8.722   2.742   3.073 -0.1602 -0.6392  0.5094
  649MOL0     H85611   8.722   2.565   3.308 -0.4180  0.3106  0.9740
  649MOL0     H85612   8.799   2.717   3.347 -2.5197  1.5535  0.7410
  649MOL0     H85613   8.585   2.834   3.269 -4.6994 -1.0527 -1.2843
  649MOL0     H85614   8.563   2.713   3.395 -1.5851 -1.6206  0.0806
  649MOL0     H85615   8.494   2.538   3.232  4.9100 -0.4101 -0.8721
  649MOL0     H85616   8.521   2.652   3.100  3.6909 -1.4255  0.2917
  649MOL0     H85617   8.336   2.742   3.309 -1.3354 -0.2269 -0.7465
  649MOL0     H85618   8.377   2.818   3.160 -1.4889  0.5278  0.3411
  649MOL0     H85619   8.252   2.527   3.166 -0.3269  0.1833  2.0848
  649MOL0     H85620   8.262   2.645   3.034  0.1653 -1.0080 -0.1619
  649MOL0     H85621   8.037   2.527   3.305  1.1498  1.1647  2.3925
  649MOL0     H85622   7.747   2.771   3.354  1.7946  0.7262  0.2755
  649MOL0     H85623   7.799   2.607   3.402 -2.7561  2.1547  2.0663
  649MOL0     H85624   7.709   2.535   3.177 -0.2073  0.8122 -1.8854
  649MOL0     H85625   7.663   2.696   3.142  0.3714  1.6848  1.2866
  649MOL0     H85626   7.561   2.555   3.396  0.3161 -1.8975 -0.9343
  649MOL0     H85627   7.492   2.707   3.315 -0.6150 -0.3808  1.0653
  649MOL0     H85628   7.474   2.408   3.213  2.4871 -0.3200 -1.0403
  649MOL0     H85629   7.441   2.557   3.118  2.6962 -2.8503 -1.8864
  649MOL0     H85630   7.074   2.619   3.310  0.6523  1.1655 -0.9138
  649MOL0     H85631   6.883   2.576   3.177 -0.0969 -1.0206  1.4572
  649MOL0     H85632   6.611   2.283   2.945  0.2162 -1.7102 -3.0787
  649MOL0     H85633   6.402   2.266   2.807 -1.3569  0.7348 -4.6981
  649MOL0     H85634   6.080   2.422   2.687 -0.9018 -2.4070  0.9034
  649MOL0     H85635   6.180   2.331   2.789  3.3693  1.7207  1.2945
  649MOL0     H85636   6.342   2.290   2.578 -0.2415 -1.2294 -2.9831
  649MOL0     H85637   6.204   2.367   2.489  0.4461  0.4084  0.8463
  649MOL0     H85638   6.059   2.202   2.539 -0.0625 -1.1675  0.8713
  649MOL0     H85639   6.176   2.113   2.646 -0.6558  2.4761  2.2410
  649MOL0     H85640   6.204   2.165   2.352 -0.6018 -1.4486 -1.4259
  649MOL0     H85641   6.313   2.069   2.452 -0.0798  0.8874 -1.0544
  649MOL0     H85642   6.086   1.931   2.507 -0.6955 -1.4921 -0.4135
  649MOL0     H85643   6.167   1.889   2.356 -1.1862 -1.0379 -2.4951
  649MOL0     H85644   5.951   2.107   2.362 -1.6192 -0.2007  0.0213
  649MOL0     H85645   5.916   1.936   2.355  2.0906 -3.2361 -0.3639
  649MOL0     H85646   6.087   2.076   2.155  1.4229 -0.6130 -0.1619
  649MOL0     H85647   6.044   1.904   2.148  0.2322  1.3716 -1.7232
  649MOL0     H85648   5.883   2.045   2.002  0.3633  1.3608  0.0968
  649MOL0     H85649   5.868   2.158   2.140 -0.1875 -0.1960  0.1415
  649MOL0     H85650   6.425   2.687   2.746 -0.9973 -1.3394 -0.2603
  649MOL0     H85651   6.625   2.702   2.840 -0.5333 -0.1913 -1.8032
  649MOL0     H85652   7.113   2.352   2.893  0.5343 -2.2555  1.5207
  649MOL0     H85653   7.300   2.366   3.037 -1.3562 -1.6925  2.0894
  649MOL0     H85654   8.898   2.931   2.707 -0.4983 -1.0465 -1.0054
  649MOL0     H85655   9.036   2.996   2.525  3.1935  2.0634  1.3247
  649MOL0     H85656   9.669   2.969   2.384  0.2900  0.1751 -0.1304
  649MOL0     H85657   9.750   3.097   2.209 -0.8472 -0.5178 -0.8789
  649MOL0     H85658   9.732   3.212   1.932  1.0187  0.3027  0.2126
  649MOL0     H85659   9.814   3.251   2.087  0.2250 -1.0587 -0.8257
  649MOL0     H85660   9.709   3.437   1.871 -2.5171 -0.2872  2.0612
  649MOL0     H85661   9.749   3.499   2.024 -4.2115  1.2278 -1.9836
  649MOL0     H85662   9.940   3.346   1.835 -1.5112  0.6993 -0.7674
  649MOL0     H85663   9.987   3.417   1.988 -0.6193 -0.5260  1.5263
  649MOL0     H85664   9.915   3.547   1.727  1.5440 -2.1755  0.3970
  649MOL0     H85665   9.870   3.637   1.862 -0.2968 -0.5714 -0.2144
  649MOL0     H85666  10.269   3.688   1.914  1.1864 -0.4272 -1.2356
  649MOL0     H85667   9.379   3.289   2.162 -0.1761 -0.1208 -0.3140
  649MOL0     H85668   9.269   3.118   2.305  1.3897 -0.2072  2.5779
  650MOL0     O85669  10.013   4.976   4.977 -0.4553  0.3556 -0.0274
  650MOL0     C85670  10.067   5.083   4.941  0.6781  1.0009  0.7215
  650MOL0     O85671  10.040   5.137   4.817 -0.2874 -0.4076  0.3248
  650MOL0     C85672   9.946   5.084   4.727  0.3426  1.0214  0.3975
  650MOL0     C85673   9.854   5.176   4.672  1.0326 -0.3774 -0.7715
  650MOL0     C85674   9.753   5.141   4.583  0.4073 -0.8981 -0.3284
  650MOL0     C85675   9.742   5.013   4.532  0.5817  0.4478 -0.6922
  650MOL0     O85676   9.652   4.966   4.440 -0.8908  0.9134 -0.2225
  650MOL0     C85677   9.544   5.046   4.407  0.4516  0.4047  0.2892
  650MOL0     C85678   9.442   4.937   4.371  0.0446 -0.3419 -0.0292
  650MOL0     C85679   9.303   4.987   4.336  0.2155  0.7463  0.1403
  650MOL0     C85680   9.202   4.880   4.278 -0.2610 -0.1704  0.0261
  650MOL0     C85681   9.051   4.929   4.267  0.2835 -0.0263  0.1890
  650MOL0     C85682   9.028   4.986   4.126  0.4161 -0.0298 -0.3143
  650MOL0     C85683   8.886   5.048   4.114 -0.1791  0.0990 -0.3012
  650MOL0     C85684   8.782   4.940   4.109 -0.0467 -0.2574  0.0352
  650MOL0     N85685   8.650   5.013   4.106 -0.1837 -1.0491 -0.0446
  650MOL0     C85686   8.536   4.979   4.044  0.6984 -0.7296  0.3080
  650MOL0     C85687   8.445   5.066   4.072 -0.1898 -0.2330  0.3597
  650MOL0     C85688   8.306   5.075   4.018  0.2240  0.0372 -0.3448
  650MOL0     C85689   8.214   5.016   4.131 -0.3333  0.1373  0.8772
  650MOL0     C85690   8.068   5.035   4.088  0.3116  0.2498  0.3771
  650MOL0     C85691   7.972   5.009   4.200  0.1375 -0.6227  0.4817
  650MOL0     O85692   7.842   4.997   4.134 -0.3537  0.1723  0.2975
  650MOL0     C85693   7.752   4.917   4.191  0.8015  0.6852 -0.2837
  650MOL0     C85694   7.755   4.891   4.329  0.2206  0.4561 -0.9065
  650MOL0     C85695   7.653   4.816   4.388 -0.2330  0.1881 -0.4389
  650MOL0     C85696   7.553   4.760   4.306  0.0560 -0.4588 -0.5541
  650MOL0     C85697   7.458   4.662   4.372 -0.2386 -0.5304 -0.4368
  650MOL0     O85698   7.339   4.644   4.299 -0.1927  0.0207 -0.1662
  650MOL0     C85699   7.237   4.570   4.367 -0.9474  0.0951  0.3013
  650MOL0     C85700   7.247   4.469   4.461 -0.2965 -0.6074 -0.0123
  650MOL0     C85701   7.136   4.403   4.518 -0.1838  0.6776 -0.0856
  650MOL0     C85702   7.014   4.417   4.466  0.9878 -0.3045  0.7062
  650MOL0     O85703   6.901   4.331   4.503 -0.1188 -0.2682  0.1281
  650MOL0     C85704   6.887   4.265   4.627  0.4293 -0.2342  0.1887
  650MOL0     C85705   6.741   4.240   4.655  0.3573  0.1222 -0.1242
  650MOL0     C85706   6.676   4.147   4.543 -0.0859  0.0121 -0.6547
  650MOL0     C85707   6.525   4.142   4.553 -0.4841 -0.0835  0.1724
  650MOL0     C85708   6.470   4.280   4.519 -0.6661 -0.6889 -0.8275
  650MOL0     C85709   6.321   4.252   4.493  0.4948  0.3029  0.1807
  650MOL0     C85710   6.215   4.362   4.500  0.4967 -0.6397  0.1364
  650MOL0     C85711   6.139   4.366   4.628 -0.5580  0.4519  0.4575
  650MOL0    Cl85712   6.040   4.223   4.625  0.4510  0.3674 -0.2969
  650MOL0     C85713   6.997   4.510   4.362 -0.6114  0.3894  0.1227
  650MOL0     C85714   7.107   4.590   4.320 -0.4395 -0.3581 -0.2032
  650MOL0     O85715   7.494   4.618   4.482  0.1896  0.0604 -0.0907
  650MOL0     C85716   7.549   4.786   4.171 -0.3880  0.2904  0.2285
  650MOL0     C85717   7.653   4.861   4.109 -0.6531  0.4196  0.2727
  650MOL0     N85718   8.495   5.158   4.166  0.1204  0.1982 -0.1108
  650MOL0     N85719   8.620   5.132   4.179  0.2783  0.5639  0.2774
  650MOL0     C85720   9.838   4.920   4.569  0.1160  0.0704  0.1891
  650MOL0     C85721   9.932   4.946   4.678  0.3161 -0.4921  1.3356
  650MOL0     C85722  10.156   5.157   5.032  0.2874  0.3561 -0.3213
  650MOL0     C85723  10.195   5.100   5.155  0.5881  0.3375  0.4565
  650MOL0     C85724  10.271   5.182   5.238 -0.4984 -0.5231  0.4272
  650MOL0     C85725  10.334   5.301   5.194  0.1976  0.4915 -0.4770
  650MOL0     O85726  10.427   5.361   5.274  0.4318 -0.8972  0.3873
  650MOL0     C85727  10.554   5.400   5.217 -0.2374  0.4324  0.2493
  650MOL0     C85728  10.673   5.409   5.315 -0.4143  0.1471 -0.3056
  650MOL0     C85729  10.666   5.302   5.419  0.2795  0.0556 -0.5268
  650MOL0     C85730  10.803   5.291   5.501 -0.3978  0.7722  0.0014
  650MOL0     C85731  10.831   5.414   5.577 -0.3105 -0.7787  0.7388
  650MOL0     C85732  10.873   5.509   5.632 -0.1809 -0.2257  0.3907
  650MOL0     C85733  10.296   5.358   5.068 -0.2220 -0.6774 -0.0500
  650MOL0     C85734  10.204   5.283   4.985 -0.1052  0.0847 -0.2673
  650MOL0     H85735   9.846   5.271   4.723 -0.0442 -1.8327  1.9604
  650MOL0     H85736   9.671   5.209   4.565  0.7455  0.7502  3.4578
  650MOL0     H85737   9.566   5.115   4.325 -0.9921 -0.4813 -0.9027
  650MOL0     H85738   9.499   5.098   4.492  0.9067  0.7968  0.2918
  650MOL0     H85739   9.441   4.863   4.451 -0.0674 -0.5064 -0.1804
  650MOL0     H85740   9.464   4.890   4.274 -2.6870 -0.9351 -0.4494
  650MOL0     H85741   9.299   5.077   4.274 -1.8854  0.5857 -0.0429
  650MOL0     H85742   9.261   5.036   4.424 -1.1799 -2.4070  1.3773
  650MOL0     H85743   9.242   4.860   4.178  1.6077 -0.3931  0.7901
  650MOL0     H85744   9.209   4.786   4.333  1.3336  0.5466  1.1319
  650MOL0     H85745   9.028   5.005   4.342 -3.6382 -1.7196  0.9164
  650MOL0     H85746   8.988   4.846   4.301  0.9297 -0.7705 -0.3900
  650MOL0     H85747   9.038   4.898   4.061 -0.4760 -0.1466 -0.3147
  650MOL0     H85748   9.110   5.055   4.106  0.2198 -0.4414 -2.9215
  650MOL0     H85749   8.871   5.108   4.204 -1.6515 -1.6580  0.6886
  650MOL0     H85750   8.885   5.111   4.024  0.0926  1.0634  0.3518
  650MOL0     H85751   8.786   4.866   4.189  1.0729  0.8449  1.0285
  650MOL0     H85752   8.790   4.899   4.007 -1.5335  1.3240 -0.7506
  650MOL0     H85753   8.527   4.893   3.978 -0.7806  1.0882 -2.0037
  650MOL0     H85754   8.304   5.012   3.928  0.8761  0.7133 -0.8430
  650MOL0     H85755   8.276   5.178   3.996  2.1742  1.2244  2.0418
  650MOL0     H85756   8.237   5.065   4.226 -0.3453  0.4633  0.7138
  650MOL0     H85757   8.242   4.911   4.138  1.5858  0.4301 -1.4620
  650MOL0     H85758   8.051   5.132   4.040 -2.5592  0.6067  1.9155
  650MOL0     H85759   8.045   4.961   4.010  0.6788 -3.3283  3.3871
  650MOL0     H85760   7.975   5.100   4.260  1.2089 -1.0211  1.0688
  650MOL0     H85761   7.999   4.916   4.251  1.1908 -0.7758 -0.3191
  650MOL0     H85762   7.833   4.926   4.397  1.5693 -1.1171 -1.5634
  650MOL0     H85763   7.652   4.784   4.492 -1.8507 -0.8664 -0.7394
  650MOL0     H85764   7.346   4.440   4.493  1.1993  0.0034 -3.6033
  650MOL0     H85765   7.159   4.330   4.595  1.2674  2.2708  1.0673
  650MOL0     H85766   6.914   4.347   4.694 -2.1830  1.4050 -0.5933
  650MOL0     H85767   6.940   4.170   4.629  1.9131  0.5555 -0.0406
  650MOL0     H85768   6.691   4.336   4.670 -0.1510  0.3804 -2.9539
  650MOL0     H85769   6.736   4.192   4.753  3.3370 -0.0634  0.0168
  650MOL0     H85770   6.722   4.048   4.546  0.3090  0.0051 -3.5983
  650MOL0     H85771   6.693   4.189   4.443 -1.0345 -4.8742 -3.1592
  650MOL0     H85772   6.491   4.070   4.478  0.1053 -0.0596 -0.1251
  650MOL0     H85773   6.490   4.103   4.649 -3.0287 -1.8667 -1.3581
  650MOL0     H85774   6.521   4.334   4.439 -0.8292 -0.6292 -0.8915
  650MOL0     H85775   6.483   4.350   4.602 -1.0129 -0.5429 -0.8935
  650MOL0     H85776   6.290   4.178   4.567  0.3566  0.7122  0.5381
  650MOL0     H85777   6.318   4.223   4.387  1.4028 -0.3483  0.3259
  650MOL0     H85778   6.248   4.466   4.498 -0.1216 -0.3998  1.5229
  650MOL0     H85779   6.149   4.349   4.414  0.4042  1.1492 -0.1035
  650MOL0     H85780   6.081   4.458   4.636  1.9986  2.3615 -1.1441
  650MOL0     H85781   6.218   4.365   4.705  1.1411  1.4667 -1.1778
  650MOL0     H85782   6.899   4.514   4.315 -0.6694 -0.2377  0.1801
  650MOL0     H85783   7.095   4.657   4.235  1.2533 -2.6253 -2.4017
  650MOL0     H85784   7.477   4.730   4.112  0.5944  1.1820 -1.8967
  650MOL0     H85785   7.671   4.888   4.005  2.4653 -1.5514  0.1467
  650MOL0     H85786   9.837   4.821   4.523  0.5061  1.1605 -2.3113
  650MOL0     H85787  10.006   4.868   4.694 -1.2359 -2.2750  0.3839
  650MOL0     H85788  10.165   5.001   5.187  1.1725 -1.2823 -3.3736
  650MOL0     H85789  10.313   5.136   5.326  0.0599  0.5021  0.7084
  650MOL0     H85790  10.538   5.492   5.161 -0.5075 -0.1969 -0.7442
  650MOL0     H85791  10.597   5.327   5.147  2.2076  0.9936  1.1007
  650MOL0     H85792  10.764   5.397   5.255 -1.1583 -2.4837 -1.0092
  650MOL0     H85793  10.677   5.504   5.369 -0.0110  0.9906 -1.7521
  650MOL0     H85794  10.642   5.208   5.369  0.6970 -0.8364  0.9127
  650MOL0     H85795  10.587   5.335   5.488  1.4518  3.1075 -0.4842
  650MOL0     H85796  10.794   5.202   5.564 -0.3961 -0.4031 -1.5825
  650MOL0     H85797  10.886   5.270   5.434  1.3166  4.0385  0.8902
  650MOL0     H85798  10.909   5.603   5.668  2.5492 -0.1712 -2.0875
  650MOL0     H85799  10.344   5.448   5.029 -1.5599 -0.1886 -0.6209
  650MOL0     H85800  10.188   5.329   4.888  2.3983 -1.1054 -1.3535
  651MOL0     O85801  11.160   9.789  10.959 -0.2203 -0.2779 -0.2919
  651MOL0     C85802  11.119   9.672  10.971  0.2972 -0.1309  0.0948
  651MOL0     O85803  11.001   9.636  11.026 -0.7486 -0.1247  0.0410
  651MOL0     C85804  10.918   9.738  11.065  1.0816 -0.9877 -0.0571
  651MOL0     C85805  10.841   9.797  10.968  0.2685 -0.0772  0.0555
  651MOL0     C85806  10.747   9.904  11.002 -0.8123  0.5050 -0.0977
  651MOL0     C85807  10.749   9.958  11.133  0.1923 -0.8044 -0.1617
  651MOL0     O85808  10.659  10.057  11.160  0.3060 -0.5625 -0.1653
  651MOL0     C85809  10.636  10.117  11.294 -0.4517  0.0109 -0.8928
  651MOL0     C85810  10.529  10.232  11.298 -0.4676 -0.0209 -0.3787
  651MOL0     C85811  10.392  10.194  11.243 -0.1459 -0.1522 -0.7619
  651MOL0     C85812  10.293  10.317  11.252 -0.1848 -0.3244  1.8524
  651MOL0     C85813  10.166  10.288  11.170  0.7453  0.6942  0.7474
  651MOL0     C85814  10.084  10.422  11.132 -0.3793 -0.0632  0.2416
  651MOL0     C85815   9.941  10.383  11.097  0.1880  0.6292  0.0140
  651MOL0     C85816   9.864  10.500  11.039  1.1396  0.0597  0.1798
  651MOL0     N85817   9.733  10.450  10.985  0.0914 -0.1647 -0.9838
  651MOL0     C85818   9.624  10.434  11.066 -0.1993 -0.4430 -0.5965
  651MOL0     C85819   9.535  10.388  10.977  0.0569  0.1805 -0.0939
  651MOL0     C85820   9.401  10.332  11.012 -0.4974 -0.2185 -0.2852
  651MOL0     C85821   9.291  10.434  10.991  0.1531  0.4891 -0.0800
  651MOL0     C85822   9.284  10.543  11.090 -0.4244 -0.0360 -0.0252
  651MOL0     C85823   9.173  10.651  11.064 -0.3188  0.0462 -0.0941
  651MOL0     O85824   9.054  10.580  11.080  0.1191 -0.2158  0.3108
  651MOL0     C85825   8.943  10.645  11.036  0.3236 -0.2123 -0.8022
  651MOL0     C85826   8.820  10.584  11.053 -0.7802 -0.5023 -0.2694
  651MOL0     C85827   8.694  10.645  11.006 -0.2229  0.1351  0.5457
  651MOL0     C85828   8.694  10.761  10.927 -0.3167  0.6567 -0.6655
  651MOL0     C85829   8.570  10.812  10.877  0.4918  0.3376  0.1712
  651MOL0     O85830   8.453  10.751  10.903 -0.4327 -0.0435  0.6840
  651MOL0     C85831   8.340  10.828  10.881 -0.1552  0.1341  0.5720
  651MOL0     C85832   8.252  10.869  10.982  0.4212 -0.0863 -0.1519
  651MOL0     C85833   8.125  10.910  10.953  0.9960  0.4783 -0.6921
  651MOL0     C85834   8.080  10.923  10.818 -0.6959 -0.0881 -0.3936
  651MOL0     O85835   7.955  10.972  10.786 -0.6466  0.4270  0.2970
  651MOL0     C85836   7.899  10.956  10.655  0.9428 -0.4556 -0.7520
  651MOL0     C85837   7.744  10.958  10.669  0.8104 -0.8036  0.3633
  651MOL0     C85838   7.682  10.994  10.540 -0.3289  0.0536  1.1641
  651MOL0     C85839   7.533  11.032  10.557 -0.3555 -0.4889 -0.0343
  651MOL0     C85840   7.457  10.921  10.629 -0.2400 -0.2114  0.2323
  651MOL0     C85841   7.303  10.924  10.614  1.5304  0.5099 -1.2482
  651MOL0     C85842   7.221  10.805  10.676 -0.3533  0.5379  0.1747
  651MOL0     C85843   7.070  10.825  10.669 -0.1827 -0.6462  0.3133
  651MOL0    Cl85844   7.016  10.963  10.771  0.1869  0.2409 -0.2430
  651MOL0     C85845   8.162  10.876  10.717  0.0308 -0.8471  0.0565
  651MOL0     C85846   8.290  10.828  10.754 -0.1022  0.0301  1.3973
  651MOL0     O85847   8.586  10.916  10.813  0.4492  0.5710  0.1646
  651MOL0     C85848   8.817  10.821  10.910 -0.4369 -0.0472  0.0796
  651MOL0     C85849   8.934  10.763  10.961 -0.3202  0.2191 -0.0848
  651MOL0     N85850   9.584  10.365  10.848 -0.6880 -1.3988  0.1083
  651MOL0     N85851   9.712  10.401  10.859  0.3978 -0.0207 -0.3121
  651MOL0     C85852  10.840   9.911  11.224 -0.1668  0.0910 -0.4049
  651MOL0     C85853  10.921   9.796  11.193 -0.2153 -0.0368 -0.3166
  651MOL0     C85854  11.204   9.559  10.921 -0.0065  0.8513 -0.2248
  651MOL0     C85855  11.311   9.581  10.844  0.6287 -0.2756 -0.7858
  651MOL0     C85856  11.401   9.483  10.808  0.8902  0.0920 -0.3749
  651MOL0     C85857  11.377   9.352  10.839  0.8477  0.1950 -0.7466
  651MOL0     O85858  11.450   9.241  10.812 -0.0220  0.0325  0.1407
  651MOL0     C85859  11.595   9.258  10.817  0.3246  0.6712 -0.1230
  651MOL0     C85860  11.647   9.244  10.954  0.4068  0.5022  0.3537
  651MOL0     C85861  11.789   9.200  10.978 -0.4461 -0.0159  0.0800
  651MOL0     C85862  11.893   9.281  10.906  0.0324  0.1175  0.2753
  651MOL0     C85863  11.876   9.273  10.754  0.4272  0.5006  1.1418
  651MOL0     C85864  11.881   9.243  10.640  0.0071  0.2906  0.1684
  651MOL0     C85865  11.249   9.317  10.897  0.3358 -0.8406 -0.9226
  651MOL0     C85866  11.172   9.422  10.948  0.3919  0.1367 -0.0305
  651MOL0     H85867  10.848   9.765  10.865  3.3638  1.3736 -0.3128
  651MOL0     H85868  10.679   9.949  10.930 -4.2068  0.5944  2.8769
  651MOL0     H85869  10.724  10.171  11.330 -2.7047  2.8949  0.7486
  651MOL0     H85870  10.617  10.044  11.373  3.4237  1.4811  1.7134
  651MOL0     H85871  10.569  10.320  11.248 -2.3261 -0.0981 -2.1335
  651MOL0     H85872  10.517  10.259  11.403  0.5707 -1.2323  0.0783
  651MOL0     H85873  10.349  10.115  11.305  1.7719  1.5135  3.0426
  651MOL0     H85874  10.405  10.167  11.137  0.3832  1.9780 -1.2829
  651MOL0     H85875  10.265  10.343  11.354  0.0050  1.5655  1.4594
  651MOL0     H85876  10.339  10.408  11.212  2.1094 -2.0705  0.3151
  651MOL0     H85877  10.113  10.207  11.221  1.4735 -0.9997 -1.0732
  651MOL0     H85878  10.196  10.246  11.074  1.9535  0.7016  1.1035
  651MOL0     H85879  10.126  10.475  11.046  0.7138  1.2747  1.5343
  651MOL0     H85880  10.076  10.488  11.219  0.1504 -0.0468  0.2825
  651MOL0     H85881   9.937  10.296  11.032 -1.5727 -0.5115  1.5499
  651MOL0     H85882   9.890  10.340  11.183 -2.2181  1.7850 -0.7461
  651MOL0     H85883   9.912  10.546  10.952 -0.7993  2.1054  0.0935
  651MOL0     H85884   9.837  10.582  11.107 -0.7964 -0.6485  0.3292
  651MOL0     H85885   9.620  10.451  11.173 -0.8802  1.8009 -0.9274
  651MOL0     H85886   9.404  10.293  11.115  1.6015  0.3050 -0.1088
  651MOL0     H85887   9.379  10.249  10.944 -4.2873  0.5754 -0.2576
  651MOL0     H85888   9.196  10.380  10.995  0.9948 -0.9748  2.4605
  651MOL0     H85889   9.303  10.477  10.891  2.0588  0.9002  0.2896
  651MOL0     H85890   9.255  10.497  11.185 -2.3540  1.7290  0.3212
  651MOL0     H85891   9.380  10.593  11.107  0.2356 -0.4158 -2.2700
  651MOL0     H85892   9.185  10.692  10.964 -0.6833 -0.0260 -0.1711
  651MOL0     H85893   9.187  10.732  11.135  0.7518  1.1362 -1.5033
  651MOL0     H85894   8.801  10.483  11.089 -3.0945  0.2744  0.8838
  651MOL0     H85895   8.599  10.606  11.041 -0.4039  1.3893  1.5389
  651MOL0     H85896   8.278  10.859  11.087 -1.7163  3.0263  0.8052
  651MOL0     H85897   8.060  10.930  11.037  2.0215 -1.2907  0.5933
  651MOL0     H85898   7.913  10.859  10.606  0.9224  0.3943 -2.5054
  651MOL0     H85899   7.930  11.036  10.587 -0.5047 -0.1025 -1.0406
  651MOL0     H85900   7.721  11.027  10.750 -2.0927 -2.4596  1.0865
  651MOL0     H85901   7.716  10.857  10.700 -1.5462 -0.0945  0.7614
  651MOL0     H85902   7.688  10.912  10.468 -0.4902  1.1165 -0.0809
  651MOL0     H85903   7.744  11.072  10.495 -1.8241  0.0936 -0.9151
  651MOL0     H85904   7.516  11.131  10.601  1.2026  0.3456 -1.2123
  651MOL0     H85905   7.487  11.030  10.458 -2.3551  1.1394  0.7765
  651MOL0     H85906   7.486  10.932  10.734  0.1036 -0.8772  0.2104
  651MOL0     H85907   7.484  10.827  10.580  0.3623  0.3787 -0.6019
  651MOL0     H85908   7.272  10.904  10.511 -0.8565 -1.5589 -0.2279
  651MOL0     H85909   7.264  11.014  10.663 -0.3463 -1.4536  1.0861
  651MOL0     H85910   7.256  10.715  10.625  2.6704  2.3699 -1.2381
  651MOL0     H85911   7.240  10.794  10.783 -0.8089 -2.3113  0.0382
  651MOL0     H85912   7.018  10.731  10.692  3.3258 -2.2132  2.7649
  651MOL0     H85913   7.052  10.858  10.567 -0.6078  1.5059  1.0247
  651MOL0     H85914   8.131  10.865  10.613  2.6350 -0.2266 -0.8618
  651MOL0     H85915   8.349  10.788  10.672 -1.2337 -0.3933  0.7759
  651MOL0     H85916   8.833  10.906  10.845  3.6138 -0.3220  0.4239
  651MOL0     H85917   9.022  10.827  10.953  0.1854 -0.3192  0.9557
  651MOL0     H85918  10.840   9.947  11.327  1.3776  5.1996 -1.8822
  651MOL0     H85919  10.984   9.746  11.266  2.0168  0.4097 -1.8529
  651MOL0     H85920  11.342   9.679  10.808  1.8787 -0.8890 -1.4400
  651MOL0     H85921  11.492   9.504  10.753  2.3285 -3.3944  0.4422
  651MOL0     H85922  11.629   9.354  10.777  2.2406  0.4559  0.8836
  651MOL0     H85923  11.641   9.184  10.750 -0.6994  0.1427 -0.2684
  651MOL0     H85924  11.621   9.338  11.003 -1.2418  0.6500 -0.7227
  651MOL0     H85925  11.590   9.168  11.010  1.8142  2.5179  5.0194
  651MOL0     H85926  11.810   9.095  10.952  2.9708  0.6692 -0.3256
  651MOL0     H85927  11.811   9.201  11.085  1.5220 -1.0019 -0.2796
  651MOL0     H85928  11.876   9.386  10.932 -0.1120 -0.2245  1.6506
  651MOL0     H85929  11.995   9.252  10.932  0.4938  1.8026  0.4855
  651MOL0     H85930  11.868   9.210  10.539 -3.4476  1.9169 -0.0584
  651MOL0     H85931  11.230   9.212  10.920 -0.0201 -1.5611 -3.9694
  651MOL0     H85932  11.088   9.393  11.010 -0.3440  1.7643 -0.2112
  652MOL0     O85933  10.160   9.285   8.043  0.0548  0.7333 -0.5147
  652MOL0     C85934  10.234   9.193   8.011 -0.3300  0.9923  0.6054
  652MOL0     O85935  10.195   9.058   7.993  0.0247 -0.5258  0.5793
  652MOL0     C85936  10.071   9.011   8.037 -0.2055  0.2517  0.4133
  652MOL0     C85937  10.023   8.913   7.956  0.4865 -0.0606  1.1441
  652MOL0     C85938   9.896   8.855   7.972  0.1230  0.0765  0.2306
  652MOL0     C85939   9.821   8.896   8.081 -0.6438 -0.0000 -1.1451
  652MOL0     O85940   9.684   8.860   8.106 -0.8662  0.0420 -0.0711
  652MOL0     C85941   9.625   8.793   8.001  0.0268  0.1709  0.4593
  652MOL0     C85942   9.484   8.769   8.028  0.8764 -1.1427 -0.1268
  652MOL0     C85943   9.403   8.742   7.900 -0.1623  0.1432  0.5146
  652MOL0     C85944   9.252   8.717   7.925  0.4213 -0.4357  0.6139
  652MOL0     C85945   9.187   8.670   7.787 -0.2866 -0.6822  0.0479
  652MOL0     C85946   9.036   8.709   7.801  0.6423 -0.2399  0.6015
  652MOL0     C85947   8.947   8.648   7.692 -0.2751 -0.2977  0.1370
  652MOL0     C85948   8.880   8.522   7.738 -0.2206 -0.3815 -0.9642
  652MOL0     N85949   8.785   8.545   7.854 -0.0272 -0.1614  0.3052
  652MOL0     C85950   8.650   8.591   7.856  0.5403  0.0090 -1.1646
  652MOL0     C85951   8.618   8.583   7.989 -0.7674 -0.5563  0.1541
  652MOL0     C85952   8.487   8.611   8.054  0.5569 -0.4682 -0.3536
  652MOL0     C85953   8.491   8.730   8.145 -0.3098 -0.5586  0.3789
  652MOL0     C85954   8.364   8.762   8.217  0.1359 -0.1034  0.3455
  652MOL0     C85955   8.378   8.891   8.304  0.2057 -0.0201 -0.1992
  652MOL0     O85956   8.254   8.920   8.381 -0.2611  0.3192 -0.9052
  652MOL0     C85957   8.143   8.975   8.319 -0.3393 -0.2855 -0.5222
  652MOL0     C85958   8.037   8.970   8.402  0.0335 -0.6911  0.4773
  652MOL0     C85959   7.906   9.011   8.350  0.0170 -0.0556 -0.0235
  652MOL0     C85960   7.901   9.060   8.218  1.3682 -0.6235  0.2526
  652MOL0     C85961   7.773   9.111   8.161  0.1960 -0.6613  0.0145
  652MOL0     O85962   7.649   9.076   8.214 -0.7449 -0.3222 -0.2346
  652MOL0     C85963   7.544   9.146   8.175  0.9494 -0.5355 -0.3904
  652MOL0     C85964   7.524   9.278   8.220 -0.5132  0.1099 -0.8846
  652MOL0     C85965   7.410   9.345   8.186  0.5876  0.7536  0.0541
  652MOL0     C85966   7.304   9.280   8.126  0.1658  0.7142 -1.1152
  652MOL0     O85967   7.191   9.345   8.101 -0.9687 -0.2895  0.6060
  652MOL0     C85968   7.123   9.328   7.967 -0.2316 -0.0906 -0.1364
  652MOL0     C85969   7.012   9.437   7.948  0.4152  0.0968 -0.4566
  652MOL0     C85970   7.075   9.575   7.941  0.0573 -0.2636 -0.6297
  652MOL0     C85971   6.964   9.679   7.950 -0.5997  0.5483 -0.1848
  652MOL0     C85972   7.006   9.825   7.940  0.2963  0.3783  0.1721
  652MOL0     C85973   6.891   9.926   7.948 -0.0680  0.3819 -0.1008
  652MOL0     C85974   6.944  10.067   7.905  0.9163 -0.2303 -0.2149
  652MOL0     C85975   7.037  10.135   8.006  0.2675  0.3655 -0.2198
  652MOL0    Cl85976   7.202  10.082   8.034  0.1468  0.2370  0.4393
  652MOL0     C85977   7.324   9.145   8.090  0.2135 -0.6564 -0.0329
  652MOL0     C85978   7.437   9.076   8.108  0.1393 -0.5995  0.3941
  652MOL0     O85979   7.790   9.190   8.068 -0.0964  0.7827 -0.2839
  652MOL0     C85980   8.012   9.048   8.139 -0.9037  0.8075 -0.1974
  652MOL0     C85981   8.136   9.017   8.191 -0.3563  0.3852 -0.7511
  652MOL0     N85982   8.729   8.540   8.059 -0.3726  0.6605  0.5558
  652MOL0     N85983   8.829   8.525   7.978  0.4983 -0.6351 -0.3485
  652MOL0     C85984   9.878   8.992   8.165 -0.2586 -0.5587 -1.0544
  652MOL0     C85985  10.003   9.053   8.147 -0.7725 -0.5181 -0.4722
  652MOL0     C85986  10.377   9.225   7.974  0.9500 -0.7028  0.3797
  652MOL0     C85987  10.473   9.127   7.944  0.4626 -0.2596 -0.8032
  652MOL0     C85988  10.598   9.170   7.903  0.5221 -0.7242 -0.6017
  652MOL0     C85989  10.633   9.301   7.899  0.5570  0.2891  1.1672
  652MOL0     O85990  10.758   9.328   7.854 -0.4564 -1.0607 -0.7698
  652MOL0     C85991  10.793   9.467   7.846  0.2672 -0.2280  0.2309
  652MOL0     C85992  10.939   9.486   7.794  0.2145  0.1790  0.4050
  652MOL0     C85993  10.984   9.381   7.691  0.6693 -0.4635 -0.3874
  652MOL0     C85994  11.104   9.423   7.612  0.4529 -0.5913  0.1925
  652MOL0     C85995  11.157   9.313   7.538 -0.0444 -0.5919  0.1462
  652MOL0     C85996  11.196   9.216   7.483 -0.3490  0.5014  0.0065
  652MOL0     C85997  10.541   9.396   7.936 -0.3717 -0.0687  0.5592
  652MOL0     C85998  10.412   9.359   7.954  0.3548  0.6204 -0.8316
  652MOL0     H85999  10.073   8.877   7.867 -0.9609  3.6232 -1.3927
  652MOL0     H86000   9.864   8.779   7.901 -1.0759  1.6180 -0.9493
  652MOL0     H86001   9.672   8.696   7.982 -0.7930 -0.4541  1.5236
  652MOL0     H86002   9.654   8.854   7.915 -0.0560 -0.1098  0.2319
  652MOL0     H86003   9.441   8.861   8.068  1.6741 -1.6596  2.0469
  652MOL0     H86004   9.458   8.699   8.108  0.8414 -2.2116 -1.0471
  652MOL0     H86005   9.446   8.653   7.853 -0.9140  1.5440 -3.1895
  652MOL0     H86006   9.423   8.825   7.832 -2.3172  0.2031 -0.1272
  652MOL0     H86007   9.225   8.639   7.998 -0.5599 -3.1490 -2.4034
  652MOL0     H86008   9.206   8.815   7.941  0.2933 -0.5187  0.7683
  652MOL0     H86009   9.208   8.566   7.761  0.8045 -0.2712 -0.8153
  652MOL0     H86010   9.232   8.716   7.698 -2.2710  0.0583 -0.6322
  652MOL0     H86011   9.026   8.818   7.798  1.2884 -0.0306  3.3581
  652MOL0     H86012   9.000   8.689   7.903 -0.4265  0.4913  0.3715
  652MOL0     H86013   8.876   8.723   7.657 -2.7586 -0.5425  4.0929
  652MOL0     H86014   9.011   8.621   7.608 -0.9182 -3.7492  0.6045
  652MOL0     H86015   8.957   8.448   7.760 -0.6330 -0.5156  0.1223
  652MOL0     H86016   8.831   8.486   7.647  0.5390  0.8575 -1.8879
  652MOL0     H86017   8.580   8.611   7.776  0.8674  1.2840 -1.1553
  652MOL0     H86018   8.472   8.522   8.116  0.1901  1.5831  2.7298
  652MOL0     H86019   8.414   8.623   7.974 -0.5396 -3.9867 -0.0524
  652MOL0     H86020   8.521   8.817   8.087  2.6747  1.0116  3.9030
  652MOL0     H86021   8.572   8.720   8.218  2.5126 -0.3949 -2.4888
  652MOL0     H86022   8.281   8.770   8.147 -0.0383 -2.3721  0.2216
  652MOL0     H86023   8.344   8.680   8.287  0.7863 -3.1426 -2.7541
  652MOL0     H86024   8.412   8.980   8.250 -0.6345 -0.8382 -2.2073
  652MOL0     H86025   8.454   8.876   8.381 -1.5331 -4.4678  0.9552
  652MOL0     H86026   8.041   8.927   8.502  0.7904 -1.7935 -0.0159
  652MOL0     H86027   7.823   9.016   8.419  1.6398  0.7268  1.9526
  652MOL0     H86028   7.599   9.331   8.278 -1.5374  1.3289 -0.6192
  652MOL0     H86029   7.397   9.452   8.204  2.2837  0.9481  0.2693
  652MOL0     H86030   7.090   9.226   7.945  3.3580 -1.5540  0.5396
  652MOL0     H86031   7.195   9.342   7.886 -3.9849 -0.3599 -3.8537
  652MOL0     H86032   6.931   9.436   8.022 -0.3912 -1.1933 -1.3192
  652MOL0     H86033   6.956   9.410   7.858 -1.3798  2.2085 -0.0749
  652MOL0     H86034   7.127   9.581   7.845 -0.0917 -6.4592 -1.5220
  652MOL0     H86035   7.148   9.576   8.023  0.1370 -0.9591 -0.6889
  652MOL0     H86036   6.886   9.658   7.876  0.1985  0.0795 -0.9038
  652MOL0     H86037   6.922   9.656   8.048  1.5884  1.2149  0.9708
  652MOL0     H86038   7.061   9.838   7.846  0.6189  0.5314  0.3806
  652MOL0     H86039   7.067   9.849   8.027 -0.7705  0.2023  0.9896
  652MOL0     H86040   6.862   9.922   8.053  0.4713 -1.1318  0.0152
  652MOL0     H86041   6.808   9.901   7.881  1.1985  1.7602 -2.3290
  652MOL0     H86042   7.000  10.052   7.812  2.7794 -0.6853  0.9159
  652MOL0     H86043   6.857  10.129   7.883  1.2664  0.5487  0.5081
  652MOL0     H86044   6.979  10.148   8.098 -1.8115  0.4860 -1.4957
  652MOL0     H86045   7.050  10.238   7.971  0.3999 -0.6492 -3.4078
  652MOL0     H86046   7.263   9.086   8.022  3.1923 -2.3256 -1.4650
  652MOL0     H86047   7.445   8.972   8.076  1.0293  0.2369 -2.3315
  652MOL0     H86048   8.006   9.072   8.033 -1.8162  1.3219 -0.0313
  652MOL0     H86049   8.222   9.018   8.124 -0.2764 -0.3819 -0.6695
  652MOL0     H86050   9.819   9.034   8.247 -0.4744 -0.2476 -1.3649
  652MOL0     H86051  10.049   9.130   8.209  1.8090 -0.4870 -2.2520
  652MOL0     H86052  10.438   9.025   7.932  1.8889 -0.9533  0.6259
  652MOL0     H86053  10.674   9.099   7.873  4.1051  1.9262  1.4300
  652MOL0     H86054  10.781   9.521   7.940  1.7570  1.2987 -0.4040
  652MOL0     H86055  10.722   9.512   7.775 -0.2400 -0.0131  0.8598
  652MOL0     H86056  10.943   9.589   7.757 -4.3341  0.2614 -0.4508
  652MOL0     H86057  11.013   9.464   7.871 -0.9002  0.8968  1.7129
  652MOL0     H86058  10.899   9.377   7.623  1.1443 -0.1753 -1.0150
  652MOL0     H86059  10.999   9.288   7.746 -1.2642  1.9952  5.0805
  652MOL0     H86060  11.081   9.512   7.552  0.1071 -0.9860 -0.2632
  652MOL0     H86061  11.176   9.459   7.686 -0.6342  2.8213 -0.2100
  652MOL0     H86062  11.229   9.131   7.427 -0.0165  1.7340 -1.7514
  652MOL0     H86063  10.549   9.504   7.934 -1.4833  0.0215  0.5550
  652MOL0     H86064  10.342   9.441   7.973  2.3618  1.9637  1.3774
  653MOL0     O86065   4.248   7.941  10.646  0.3369 -0.4496 -0.1953
  653MOL0     C86066   4.289   8.057  10.665 -0.7505 -0.3486 -0.9086
  653MOL0     O86067   4.211   8.157  10.706 -0.2835 -0.3388  0.4260
  653MOL0     C86068   4.082   8.150  10.665  0.3858 -0.1291  0.1899
  653MOL0     C86069   3.981   8.114  10.756  0.6514 -0.0722  0.0930
  653MOL0     C86070   3.843   8.126  10.714 -0.7907 -0.1245 -0.3383
  653MOL0     C86071   3.822   8.173  10.581  0.3947  0.1813 -0.3557
  653MOL0     O86072   3.687   8.188  10.539  0.2083  0.2193 -0.3068
  653MOL0     C86073   3.654   8.251  10.412  0.1936 -0.1895 -0.5295
  653MOL0     C86074   3.502   8.235  10.384 -0.1215 -0.2872 -0.4279
  653MOL0     C86075   3.463   8.093  10.357 -0.0662  1.1304 -0.3503
  653MOL0     C86076   3.340   8.075  10.273 -1.1185 -0.3056  0.3190
  653MOL0     C86077   3.214   8.101  10.345  0.3327 -0.4102  0.3623
  653MOL0     C86078   3.089   8.070  10.266  0.1394  0.4229  0.7237
  653MOL0     C86079   3.069   8.178  10.155  0.2561  0.2983 -0.0148
  653MOL0     C86080   2.998   8.314  10.189 -0.2426  0.3720 -1.0433
  653MOL0     N86081   2.876   8.313  10.272 -0.4551 -0.4934 -0.3337
  653MOL0     C86082   2.863   8.330  10.412 -0.0344  0.2843  0.9826
  653MOL0     C86083   2.726   8.346  10.441 -0.6509  0.3369 -0.7287
  653MOL0     C86084   2.666   8.377  10.571  0.3939 -0.3436 -0.5506
  653MOL0     C86085   2.650   8.259  10.668  0.1253  0.1400 -0.3863
  653MOL0     C86086   2.558   8.151  10.614  0.8308  0.8274 -0.4371
  653MOL0     C86087   2.569   8.020  10.707 -0.7503  0.7764 -0.6014
  653MOL0     O86088   2.516   8.037  10.840 -0.3549 -0.1711  1.2846
  653MOL0     C86089   2.382   8.061  10.846 -0.1695 -0.7111 -0.0609
  653MOL0     C86090   2.275   8.024  10.765 -0.0889  0.4539  0.3891
  653MOL0     C86091   2.143   8.033  10.795  0.7028  0.1490  0.2165
  653MOL0     C86092   2.106   8.103  10.907 -0.6646  1.0354 -0.6250
  653MOL0     C86093   1.960   8.126  10.933  0.2848 -0.1637 -0.7829
  653MOL0     O86094   1.878   8.093  10.826 -0.0605 -0.5467  0.4038
  653MOL0     C86095   1.742   8.109  10.837  1.0216  0.4581  0.4647
  653MOL0     C86096   1.679   8.195  10.745  0.5987  0.8791  0.1710
  653MOL0     C86097   1.540   8.210  10.756 -0.1613  0.4607 -0.2534
  653MOL0     C86098   1.465   8.143  10.852 -0.3670 -0.0887 -0.4241
  653MOL0     O86099   1.334   8.136  10.863  0.9064 -0.4607  0.7437
  653MOL0     C86100   1.255   8.244  10.795 -0.0362  1.1840  0.4888
  653MOL0     C86101   1.115   8.193  10.816 -0.2856 -0.1313  0.3615
  653MOL0     C86102   1.003   8.282  10.770  0.4506  0.1927 -0.2372
  653MOL0     C86103   0.870   8.215  10.805  0.0818  0.1255  0.4166
  653MOL0     C86104   0.760   8.323  10.793 -0.4686 -0.4349 -0.0400
  653MOL0     C86105   0.621   8.273  10.825 -0.8934  0.0640 -0.3724
  653MOL0     C86106   0.529   8.392  10.793  0.6869  0.1878 -0.4256
  653MOL0     C86107   0.390   8.353  10.844 -0.5074  0.7316  0.0641
  653MOL0    Cl86108   0.405   8.365  11.025  0.0540 -0.5542  0.4124
  653MOL0     C86109   1.536   8.070  10.950  0.9507 -0.5459  0.5963
  653MOL0     C86110   1.670   8.045  10.940 -0.6424 -0.1715 -0.4921
  653MOL0     O86111   1.930   8.158  11.046  0.0249  0.6073  0.1217
  653MOL0     C86112   2.212   8.161  10.985 -0.4668  0.1249 -0.2239
  653MOL0     C86113   2.344   8.126  10.963  0.1007 -0.2949 -0.3866
  653MOL0     N86114   2.663   8.337  10.315 -0.1391 -0.2611  0.7727
  653MOL0     N86115   2.751   8.334  10.227 -0.1043 -0.1891  0.2991
  653MOL0     C86116   3.924   8.212  10.490 -0.1342  0.3588  0.2933
  653MOL0     C86117   4.054   8.196  10.533 -0.4350 -0.8558  0.3179
  653MOL0     C86118   4.432   8.083  10.650 -0.1372 -0.1367 -0.5461
  653MOL0     C86119   4.484   8.209  10.678 -0.3149 -0.1812 -0.4886
  653MOL0     C86120   4.610   8.244  10.628 -0.2596 -0.7354 -0.6615
  653MOL0     C86121   4.696   8.148  10.576  0.0554  0.0041  0.8247
  653MOL0     O86122   4.834   8.165  10.555 -0.1908  0.4350  1.3521
  653MOL0     C86123   4.910   8.265  10.623  0.0377  0.1385 -0.9180
  653MOL0     C86124   5.051   8.213  10.625  0.0297  0.1078 -0.2303
  653MOL0     C86125   5.142   8.331  10.657 -0.5344  0.1279  0.1274
  653MOL0     C86126   5.222   8.326  10.791  0.6879  0.0596 -0.2084
  653MOL0     C86127   5.133   8.340  10.907 -0.1120  0.9037  0.1230
  653MOL0     C86128   5.069   8.357  11.006 -0.0893  0.1344  0.1572
  653MOL0     C86129   4.641   8.022  10.552  0.5179  0.5405  0.1973
  653MOL0     C86130   4.512   7.981  10.594 -0.0419  0.5236  0.7465
  653MOL0     H86131   4.003   8.070  10.853  0.4671 -0.3048  0.0311
  653MOL0     H86132   3.765   8.086  10.778 -1.1557  1.3348  0.1736
  653MOL0     H86133   3.694   8.198  10.325 -3.1752 -1.1110 -1.6481
  653MOL0     H86134   3.694   8.353  10.408 -0.6767  0.1439 -0.8897
  653MOL0     H86135   3.475   8.305  10.304 -0.2929  3.7622  2.8602
  653MOL0     H86136   3.458   8.268  10.479  2.8415 -0.3843  1.0893
  653MOL0     H86137   3.445   8.046  10.454  1.2509 -2.2381 -1.5912
  653MOL0     H86138   3.544   8.039  10.307 -2.0439 -1.1741 -1.2540
  653MOL0     H86139   3.357   8.140  10.186 -0.8640  2.1086  2.0571
  653MOL0     H86140   3.337   7.968  10.250 -2.3076  0.3580 -3.2163
  653MOL0     H86141   3.215   8.204  10.380  2.8182  0.6006 -2.3489
  653MOL0     H86142   3.206   8.042  10.438 -2.6717  0.6693  0.9248
  653MOL0     H86143   3.000   8.049  10.326  1.5210 -0.2077  2.6548
  653MOL0     H86144   3.107   7.978  10.209 -1.9598  1.2952 -1.5213
  653MOL0     H86145   3.161   8.209  10.104 -0.5151  2.4132 -0.2117
  653MOL0     H86146   3.005   8.131  10.080  3.1093 -2.0278 -1.2063
  653MOL0     H86147   2.974   8.356  10.091 -1.0847  5.1225  0.9191
  653MOL0     H86148   3.066   8.387  10.233 -2.1796  1.9361 -0.5210
  653MOL0     H86149   2.944   8.307  10.481 -0.7888 -0.3460  1.6758
  653MOL0     H86150   2.569   8.421  10.549  0.9297  1.5140  0.6319
  653MOL0     H86151   2.726   8.452  10.623 -0.3201  1.2022 -1.8673
  653MOL0     H86152   2.618   8.305  10.761  1.0137  3.9322 -1.7713
  653MOL0     H86153   2.745   8.209  10.690 -0.2921 -1.0114 -1.1105
  653MOL0     H86154   2.459   8.195  10.612 -0.5323 -1.8441  1.3413
  653MOL0     H86155   2.585   8.131  10.509 -0.7350 -0.9794 -0.5508
  653MOL0     H86156   2.676   7.997  10.716 -0.3910  2.8505  1.4669
  653MOL0     H86157   2.526   7.936  10.651  2.0575 -0.7029 -0.7240
  653MOL0     H86158   2.293   7.964  10.676 -1.8116  0.6323 -0.1123
  653MOL0     H86159   2.067   7.994  10.727  1.8207 -0.1925 -0.8721
  653MOL0     H86160   1.750   8.237  10.675  1.4966 -1.9672 -0.7626
  653MOL0     H86161   1.490   8.281  10.690 -1.8420  0.2853  0.7710
  653MOL0     H86162   1.266   8.241  10.686 -3.1606 -0.5521  0.1186
  653MOL0     H86163   1.270   8.340  10.845 -0.0090  1.9013 -0.8644
  653MOL0     H86164   1.095   8.162  10.919 -0.0641  2.8649  1.3882
  653MOL0     H86165   1.106   8.102  10.756  0.5792  0.0956 -0.1344
  653MOL0     H86166   0.995   8.280  10.661  3.1071  0.1298 -0.4999
  653MOL0     H86167   1.012   8.379  10.821 -0.9920  0.5224 -0.5642
  653MOL0     H86168   0.838   8.126  10.750  1.8542 -2.0978  2.7635
  653MOL0     H86169   0.875   8.167  10.902 -1.7741 -1.8575 -0.3938
  653MOL0     H86170   0.764   8.346  10.686  0.3794 -1.1419 -0.1751
  653MOL0     H86171   0.779   8.418  10.843 -1.3759 -0.6668  0.7648
  653MOL0     H86172   0.631   8.248  10.931 -1.7994 -1.4199 -0.6178
  653MOL0     H86173   0.592   8.190  10.761 -0.8977  0.6867 -1.1995
  653MOL0     H86174   0.561   8.488  10.833 -0.2522 -0.4146  1.9286
  653MOL0     H86175   0.525   8.396  10.683 -0.9319 -1.5184 -0.4808
  653MOL0     H86176   0.356   8.253  10.818 -0.7068  0.8150  0.0054
  653MOL0     H86177   0.327   8.432  10.803  0.9189 -0.1486 -4.3706
  653MOL0     H86178   1.472   8.027  11.026 -0.3790 -0.0764 -0.2152
  653MOL0     H86179   1.720   7.984  11.015  0.3559 -0.7058 -1.5491
  653MOL0     H86180   2.177   8.227  11.064 -1.9991 -0.3449 -0.4789
  653MOL0     H86181   2.417   8.168  11.031 -1.5650  0.6145  0.9035
  653MOL0     H86182   3.902   8.251  10.391 -1.0919 -2.0042 -0.5078
  653MOL0     H86183   4.134   8.222  10.466 -1.1243 -0.0109 -0.2034
  653MOL0     H86184   4.425   8.292  10.713  3.0318  1.5001  1.7530
  653MOL0     H86185   4.623   8.352  10.635 -1.7583 -0.6402  2.2109
  653MOL0     H86186   4.867   8.298  10.718  1.1597  0.9979 -0.6834
  653MOL0     H86187   4.909   8.350  10.553  0.4400  0.7039 -0.2492
  653MOL0     H86188   5.078   8.146  10.707  3.7331  2.6137  0.8728
  653MOL0     H86189   5.070   8.160  10.532 -4.1303 -2.6891  0.2578
  653MOL0     H86190   5.088   8.426  10.650 -0.8353 -0.1152 -1.0857
  653MOL0     H86191   5.217   8.327  10.577 -0.4956  1.2582  0.0871
  653MOL0     H86192   5.291   8.242  10.804  2.8773  1.6341 -0.9745
  653MOL0     H86193   5.291   8.410  10.779 -0.5852  0.8496 -2.7003
  653MOL0     H86194   5.007   8.381  11.090 -0.3283  2.9633 -0.7213
  653MOL0     H86195   4.715   7.958  10.505 -0.8268  1.0626 -2.8624
  653MOL0     H86196   4.470   7.886  10.563  2.3482 -0.0439 -1.1454
  654MOL0     O86197   5.650   2.757  10.968  0.1503 -0.1085  0.7282
  654MOL0     C86198   5.683   2.655  11.035  0.2634 -0.2652 -0.2116
  654MOL0     O86199   5.600   2.544  11.057 -0.1170  0.0234 -0.5093
  654MOL0     C86200   5.471   2.529  10.999 -1.1479 -0.3173  0.3338
  654MOL0     C86201   5.370   2.614  11.046  0.4961  0.2301  0.1756
  654MOL0     C86202   5.241   2.599  10.987 -0.4533 -0.2469 -0.0105
  654MOL0     C86203   5.213   2.503  10.890  0.2609 -0.1441  0.4590
  654MOL0     O86204   5.085   2.472  10.840  0.4940 -0.4699  0.2181
  654MOL0     C86205   4.987   2.576  10.842 -1.1250  0.0706  0.1375
  654MOL0     C86206   4.852   2.517  10.824  0.2206 -0.7547 -0.0258
  654MOL0     C86207   4.816   2.438  10.955  0.5404  0.5306  0.0263
  654MOL0     C86208   4.865   2.286  10.972 -0.0920 -0.6038 -0.7375
  654MOL0     C86209   4.779   2.206  11.067 -0.0004  0.3862  0.8291
  654MOL0     C86210   4.753   2.256  11.208  0.2395 -0.6418  0.5763
  654MOL0     C86211   4.691   2.145  11.302  0.1417 -0.1494 -0.7258
  654MOL0     C86212   4.544   2.097  11.275 -0.6304 -0.3283 -0.6585
  654MOL0     N86213   4.448   2.202  11.296  0.1096 -0.1212  0.3191
  654MOL0     C86214   4.445   2.290  11.402  0.2944 -0.0472  0.5694
  654MOL0     C86215   4.338   2.373  11.372  0.4004  0.0813  0.0149
  654MOL0     C86216   4.298   2.491  11.452  0.3202  0.5515  0.4416
  654MOL0     C86217   4.178   2.566  11.399  0.3681  0.5373 -0.2757
  654MOL0     C86218   4.048   2.489  11.451  0.4009  0.1045 -0.6444
  654MOL0     C86219   3.928   2.553  11.389  0.3411  0.1086  0.2970
  654MOL0     O86220   3.839   2.453  11.420  1.0426  0.5529 -1.2008
  654MOL0     C86221   3.713   2.503  11.444  0.3006  0.0548 -0.2660
  654MOL0     C86222   3.639   2.468  11.557 -0.3262  0.3894  0.5977
  654MOL0     C86223   3.507   2.521  11.573  0.3269  0.3562 -0.0240
  654MOL0     C86224   3.437   2.602  11.488  0.2247 -0.8040 -0.1729
  654MOL0     C86225   3.302   2.640  11.525  0.6404 -0.3428 -0.1579
  654MOL0     O86226   3.258   2.599  11.650  0.1621  0.0066  1.1204
  654MOL0     C86227   3.120   2.591  11.682  0.4769  0.2098  0.2027
  654MOL0     C86228   3.027   2.549  11.592 -1.2635 -0.0082  0.4981
  654MOL0     C86229   2.895   2.537  11.637  0.7505  0.4005  0.0468
  654MOL0     C86230   2.850   2.578  11.764  0.7645  1.1727  0.1219
  654MOL0     O86231   2.725   2.545  11.806 -0.2375 -0.2757 -0.0000
  654MOL0     C86232   2.710   2.415  11.875  0.3150  0.6401 -0.1809
  654MOL0     C86233   2.569   2.337  11.856 -0.2232  0.7608 -0.3557
  654MOL0     C86234   2.550   2.199  11.908 -0.2341 -0.1446  0.2951
  654MOL0     C86235   2.579   2.187  12.062  0.5393 -0.4300  0.1466
  654MOL0     C86236   2.470   2.123  12.157 -0.2269  0.5294 -0.1859
  654MOL0     C86237   2.442   1.975  12.118  0.5299 -0.6201  0.1853
  654MOL0     C86238   2.331   1.945  12.219  0.1967 -0.3431 -0.4840
  654MOL0     C86239   2.373   1.860  12.341  0.5279 -0.0171  1.3676
  654MOL0    Cl86240   2.499   1.938  12.439 -0.2342  0.4180  0.3636
  654MOL0     C86241   2.946   2.625  11.849  0.0298  0.4672 -0.3172
  654MOL0     C86242   3.081   2.630  11.807  0.4669  0.6423  0.0127
  654MOL0     O86243   3.238   2.717  11.456  0.9443 -0.1783  0.4583
  654MOL0     C86244   3.511   2.639  11.376  1.0137 -0.5693 -0.6045
  654MOL0     C86245   3.642   2.594  11.355 -0.7566  0.5222  0.0165
  654MOL0     N86246   4.275   2.327  11.261 -0.1493 -0.3700 -0.3305
  654MOL0     N86247   4.334   2.221  11.218 -1.0228  0.1241 -0.1284
  654MOL0     C86248   5.324   2.432  10.845  0.4353 -0.1705  0.6010
  654MOL0     C86249   5.454   2.444  10.898  0.3655  0.4235 -0.1143
  654MOL0     C86250   5.818   2.644  11.096  0.5119 -0.0541 -0.5045
  654MOL0     C86251   5.890   2.764  11.110  0.2757  0.0988 -0.3837
  654MOL0     C86252   6.008   2.751  11.182 -0.0604  0.0801  0.6668
  654MOL0     C86253   6.065   2.627  11.234 -0.7349 -0.4950 -0.2131
  654MOL0     O86254   6.189   2.643  11.300 -0.2165  1.0280 -0.3219
  654MOL0     C86255   6.266   2.525  11.332 -0.4788  0.0944  0.0123
  654MOL0     C86256   6.408   2.569  11.380  0.6267  0.0054 -1.3667
  654MOL0     C86257   6.402   2.666  11.513  0.8330  0.1566 -0.5351
  654MOL0     C86258   6.525   2.696  11.599 -0.9065 -0.5484 -0.7941
  654MOL0     C86259   6.631   2.749  11.512  1.1412  0.0354  0.3926
  654MOL0     C86260   6.707   2.787  11.424  0.0834  0.6078 -0.1327
  654MOL0     C86261   5.987   2.508  11.212 -0.7899  0.1817 -0.9106
  654MOL0     C86262   5.864   2.525  11.148 -0.1350  0.6137 -0.3319
  654MOL0     H86263   5.394   2.689  11.121 -1.6802  1.1913  0.0015
  654MOL0     H86264   5.165   2.670  11.020 -0.1931 -0.1965  0.4905
  654MOL0     H86265   5.011   2.631  10.750  1.6141 -0.2031  0.6047
  654MOL0     H86266   4.987   2.640  10.931  0.2074  0.3472 -0.0447
  654MOL0     H86267   4.857   2.461  10.731  2.2898  0.0156 -0.4284
  654MOL0     H86268   4.786   2.603  10.812  1.5621  0.0099 -2.4440
  654MOL0     H86269   4.708   2.438  10.973  0.9471  0.1570  2.8326
  654MOL0     H86270   4.849   2.494  11.042 -0.7209  0.1709  0.7638
  654MOL0     H86271   4.865   2.241  10.873  3.0838 -0.3162 -0.9740
  654MOL0     H86272   4.965   2.295  11.016 -0.9337 -3.4847  2.1207
  654MOL0     H86273   4.842   2.117  11.076  1.6778  1.2785 -1.0015
  654MOL0     H86274   4.682   2.180  11.025 -0.7986  0.0909  2.7792
  654MOL0     H86275   4.683   2.338  11.188 -0.5051 -1.8669 -2.5002
  654MOL0     H86276   4.845   2.303  11.244  0.9048 -1.5254  0.0716
  654MOL0     H86277   4.766   2.065  11.305  0.5125  0.1945  1.8700
  654MOL0     H86278   4.703   2.191  11.401  0.3070 -0.2708 -0.6883
  654MOL0     H86279   4.518   2.006  11.331  1.5079 -1.0739 -0.7720
  654MOL0     H86280   4.536   2.062  11.171  0.9796 -0.9992 -0.6012
  654MOL0     H86281   4.514   2.290  11.486 -3.7205 -2.9107  4.4153
  654MOL0     H86282   4.383   2.559  11.462 -0.9917  2.3942 -0.2881
  654MOL0     H86283   4.278   2.459  11.555  1.0515  1.2325  0.8075
  654MOL0     H86284   4.167   2.574  11.290 -4.9197  0.2576 -0.0373
  654MOL0     H86285   4.180   2.669  11.436  1.0591 -0.1944  1.8304
  654MOL0     H86286   4.061   2.390  11.406  5.3257  0.8269 -1.3122
  654MOL0     H86287   4.038   2.489  11.560  1.3423 -2.7358 -0.4724
  654MOL0     H86288   3.939   2.569  11.282 -1.0058  1.0465  0.2840
  654MOL0     H86289   3.908   2.645  11.444  4.1559  0.3027  1.6685
  654MOL0     H86290   3.673   2.400  11.634  1.5219  1.1788  0.5309
  654MOL0     H86291   3.465   2.483  11.665  0.2470 -1.9971 -0.9562
  654MOL0     H86292   3.060   2.520  11.493 -0.4259  4.2857 -0.6934
  654MOL0     H86293   2.828   2.493  11.563 -0.7383  1.4270  0.7136
  654MOL0     H86294   2.718   2.434  11.983 -0.1793  0.1488 -0.0545
  654MOL0     H86295   2.794   2.350  11.848 -1.4633 -0.7696 -2.7071
  654MOL0     H86296   2.536   2.338  11.751  0.4814  1.8652 -0.5812
  654MOL0     H86297   2.490   2.392  11.908 -1.7350 -2.1064  0.5835
  654MOL0     H86298   2.614   2.126  11.858  1.9209  1.7427  0.1799
  654MOL0     H86299   2.447   2.161  11.902  0.2652 -1.9129  1.7404
  654MOL0     H86300   2.675   2.134  12.063  1.4140  1.0026 -1.6159
  654MOL0     H86301   2.601   2.285  12.105 -2.0432 -0.3937  1.5985
  654MOL0     H86302   2.383   2.189  12.153 -0.3785  0.2713 -1.6824
  654MOL0     H86303   2.513   2.128  12.257  1.2207  0.4555 -0.7869
  654MOL0     H86304   2.527   1.907  12.123  1.1017  0.0558 -0.2639
  654MOL0     H86305   2.402   1.969  12.017  1.1476  1.7596 -0.2748
  654MOL0     H86306   2.272   2.031  12.253 -0.2076 -0.7330 -0.1827
  654MOL0     H86307   2.253   1.890  12.165  0.0090 -1.3514  0.7524
  654MOL0     H86308   2.403   1.760  12.307  0.9547 -0.3080  2.5434
  654MOL0     H86309   2.281   1.844  12.399 -0.1467 -2.3969 -0.2347
  654MOL0     H86310   2.916   2.659  11.948 -2.7035 -1.2847 -0.4269
  654MOL0     H86311   3.160   2.652  11.878  1.0346 -1.7186  0.1861
  654MOL0     H86312   3.475   2.703  11.296  1.9541 -0.1657 -0.7111
  654MOL0     H86313   3.705   2.628  11.273 -0.6107  0.0543 -0.0742
  654MOL0     H86314   5.308   2.364  10.762 -1.6698  2.1074 -0.9940
  654MOL0     H86315   5.540   2.388  10.863 -1.5283 -2.9602  0.1579
  654MOL0     H86316   5.852   2.861  11.079  0.3233  0.7568  1.4651
  654MOL0     H86317   6.045   2.853  11.187  1.5202 -0.3001 -1.7953
  654MOL0     H86318   6.270   2.463  11.243 -1.7335 -0.3867  0.2733
  654MOL0     H86319   6.224   2.473  11.419  2.0039  1.5611  2.2602
  654MOL0     H86320   6.474   2.484  11.396 -0.7702 -1.1399 -1.4744
  654MOL0     H86321   6.455   2.623  11.297 -0.0073 -0.4201 -2.0100
  654MOL0     H86322   6.324   2.624  11.576 -2.0004 -0.0846 -3.9122
  654MOL0     H86323   6.358   2.761  11.481 -0.9848 -0.4595  0.0565
  654MOL0     H86324   6.500   2.783  11.660 -0.0094  1.6913 -3.4291
  654MOL0     H86325   6.545   2.610  11.664  1.7383 -0.1715 -1.0072
  654MOL0     H86326   6.769   2.811  11.341  0.8987 -3.1370 -0.7913
  654MOL0     H86327   6.013   2.413  11.257 -2.0762  1.0733  1.8980
  654MOL0     H86328   5.806   2.436  11.130 -1.5792  1.3720  0.4393
  655MOL0     O86329   8.603  10.598  10.460  0.2219 -0.8393  0.7376
  655MOL0     C86330   8.529  10.522  10.521 -0.3025 -0.3190  0.4762
  655MOL0     O86331   8.574  10.414  10.589 -0.0101 -0.2123 -0.0774
  655MOL0     C86332   8.709  10.398  10.612  0.5523 -1.8560 -0.4906
  655MOL0     C86333   8.791  10.345  10.513 -0.0488  0.3162 -0.6041
  655MOL0     C86334   8.927  10.335  10.536 -0.0884  0.1967  0.0966
  655MOL0     C86335   8.978  10.361  10.661  0.3599 -0.2846  0.0395
  655MOL0     O86336   9.113  10.369  10.687  0.3879  0.0905  0.3929
  655MOL0     C86337   9.205  10.286  10.606 -0.4352  0.1953  0.5782
  655MOL0     C86338   9.353  10.318  10.630  0.0074 -0.2045 -0.1667
  655MOL0     C86339   9.418  10.348  10.493 -0.7884 -0.3017 -0.2394
  655MOL0     C86340   9.570  10.365  10.507  0.1893 -0.5248 -0.7289
  655MOL0     C86341   9.646  10.428  10.379  1.1255  0.0809  0.5075
  655MOL0     C86342   9.597  10.379  10.235 -0.3194 -0.2775 -0.4401
  655MOL0     C86343   9.635  10.234  10.196 -0.1530  0.1016  0.5970
  655MOL0     C86344   9.557  10.178  10.081  0.1239 -0.1613 -0.4701
  655MOL0     N86345   9.421  10.133  10.116  0.0118  0.1209 -0.2207
  655MOL0     C86346   9.389  10.030  10.198  0.3400  0.1404 -0.4702
  655MOL0     C86347   9.254  10.032  10.213 -0.4883  0.2186 -0.1026
  655MOL0     C86348   9.180   9.938  10.297 -0.6370  0.8211 -0.6042
  655MOL0     C86349   9.201   9.987  10.438 -0.8538 -0.4762 -0.4534
  655MOL0     C86350   9.179   9.878  10.537  0.4024  0.4699 -0.9609
  655MOL0     C86351   9.035   9.851  10.565 -0.1326  0.0936 -0.1349
  655MOL0     O86352   8.964   9.967  10.627 -0.1884  0.3706  0.2512
  655MOL0     C86353   8.824   9.943  10.641  0.0054 -0.2454 -0.5361
  655MOL0     C86354   8.726   9.976  10.540  0.0645  0.0906 -0.0291
  655MOL0     C86355   8.587   9.952  10.554  0.0888  0.7538  0.0962
  655MOL0     C86356   8.540   9.903  10.679  0.0486  0.5658  1.7430
  655MOL0     C86357   8.393   9.895  10.709 -0.8372  0.7664 -0.6902
  655MOL0     O86358   8.303   9.898  10.606 -0.0673  0.4922 -0.4294
  655MOL0     C86359   8.182   9.833  10.612  0.0735  0.7342  0.8864
  655MOL0     C86360   8.104   9.817  10.490 -0.2760 -1.3513 -0.5575
  655MOL0     C86361   7.983   9.738  10.490  0.0743  0.3493  0.7047
  655MOL0     C86362   7.937   9.674  10.599 -0.0168  0.5560 -0.4792
  655MOL0     O86363   7.812   9.604  10.606  0.4333 -0.0762 -0.0192
  655MOL0     C86364   7.697   9.664  10.543 -0.4920  0.1895  0.0868
  655MOL0     C86365   7.579   9.560  10.545 -0.6539 -0.5815  0.6540
  655MOL0     C86366   7.623   9.433  10.477 -0.9258  0.2094  0.0232
  655MOL0     C86367   7.494   9.348  10.467  0.2922  0.7345  0.3273
  655MOL0     C86368   7.523   9.213  10.395 -0.8905 -0.0470 -0.7716
  655MOL0     C86369   7.446   9.203  10.266 -0.7925 -0.6281  0.3926
  655MOL0     C86370   7.466   9.328  10.174  0.4413  0.7536 -0.1310
  655MOL0     C86371   7.339   9.345  10.097  0.0191 -0.1582 -0.5470
  655MOL0    Cl86372   7.381   9.475   9.973 -0.4050 -0.0894  0.0352
  655MOL0     C86373   8.004   9.707  10.717 -0.2105  1.1168  0.1213
  655MOL0     C86374   8.123   9.777  10.724 -0.6404  0.4057  0.3096
  655MOL0     O86375   8.371   9.873  10.825 -0.0786 -0.1949 -0.1681
  655MOL0     C86376   8.640   9.874  10.777  0.4950 -0.7727  0.3071
  655MOL0     C86377   8.779   9.876  10.762  0.0705  0.5774 -0.2343
  655MOL0     N86378   9.199  10.133  10.136 -0.6894  0.4864 -0.4053
  655MOL0     N86379   9.301  10.197  10.090 -0.6727  0.6396  0.6232
  655MOL0     C86380   8.898  10.411  10.766  0.8514  0.6994  0.1559
  655MOL0     C86381   8.760  10.436  10.735  0.0213 -0.1334  0.7159
  655MOL0     C86382   8.383  10.554  10.514 -0.5910 -0.0537  0.4956
  655MOL0     C86383   8.292  10.482  10.597  0.0315  0.1311 -0.2230
  655MOL0     C86384   8.160  10.491  10.574  0.0316  1.1836 -0.1054
  655MOL0     C86385   8.105  10.575  10.484 -0.2644 -1.2604  1.0087
  655MOL0     O86386   7.975  10.600  10.458 -0.2132 -0.6596 -0.1713
  655MOL0     C86387   7.879  10.566  10.557 -0.0968  0.9202 -0.3124
  655MOL0     C86388   7.741  10.605  10.513 -0.1272  0.3911 -0.4483
  655MOL0     C86389   7.720  10.584  10.366 -0.0984 -0.3199  0.2526
  655MOL0     C86390   7.569  10.614  10.321 -0.4455  0.4424 -0.0941
  655MOL0     C86391   7.470  10.525  10.373 -0.1738 -0.5426 -0.6664
  655MOL0     C86392   7.380  10.471  10.435 -0.9305  0.0676  0.5987
  655MOL0     C86393   8.193  10.650  10.405 -0.1682  0.0578 -0.1325
  655MOL0     C86394   8.330  10.633  10.411 -0.1974 -0.6322 -0.6210
  655MOL0     H86395   8.743  10.323  10.418 -0.8502  1.9275 -0.6104
  655MOL0     H86396   8.985  10.284  10.459  2.7736  1.2922  1.3676
  655MOL0     H86397   9.179  10.305  10.502 -0.6541  0.1556  0.6249
  655MOL0     H86398   9.176  10.183  10.627  0.8476 -0.2177  0.4131
  655MOL0     H86399   9.407  10.230  10.669 -0.4575  0.8147  3.1170
  655MOL0     H86400   9.361  10.410  10.690  1.7414  0.1633 -0.8943
  655MOL0     H86401   9.373  10.435  10.445  2.5595  0.7770 -1.7523
  655MOL0     H86402   9.406  10.259  10.430 -3.0893 -0.3784  0.2132
  655MOL0     H86403   9.580  10.438  10.588 -3.3372  0.4521 -1.0356
  655MOL0     H86404   9.617  10.269  10.529 -3.9338 -2.1655  2.2272
  655MOL0     H86405   9.752  10.401  10.387  1.1857 -0.0899 -0.7563
  655MOL0     H86406   9.637  10.536  10.374 -0.1398 -0.0439 -0.2432
  655MOL0     H86407   9.655  10.435  10.161  1.8822 -3.1624 -1.0384
  655MOL0     H86408   9.489  10.396  10.233 -0.4778 -0.8305  1.5892
  655MOL0     H86409   9.744  10.234  10.181 -0.2659 -0.3844 -0.2838
  655MOL0     H86410   9.617  10.172  10.284 -1.0101 -1.6108 -0.7238
  655MOL0     H86411   9.608  10.087  10.049  1.1965  1.1563 -2.7764
  655MOL0     H86412   9.563  10.238   9.990 -2.4470  0.7887 -0.0891
  655MOL0     H86413   9.458   9.955  10.236  0.5401 -0.7290 -2.4437
  655MOL0     H86414   9.223   9.838  10.284  2.0074  1.5418  1.6728
  655MOL0     H86415   9.078   9.936  10.257 -0.4319 -0.2148 -1.0964
  655MOL0     H86416   9.143  10.080  10.446  2.8973  2.0709 -0.6459
  655MOL0     H86417   9.307  10.013  10.441 -0.2594 -2.6027 -0.8683
  655MOL0     H86418   9.227   9.781  10.518 -0.5888 -0.5096  1.0866
  655MOL0     H86419   9.232   9.915  10.625 -3.3237  0.4467  1.5209
  655MOL0     H86420   9.030   9.765  10.633 -1.2815  2.2581  2.7592
  655MOL0     H86421   8.978   9.824  10.475 -2.3941 -0.1514  1.2854
  655MOL0     H86422   8.772   9.999  10.444 -0.2161  1.5304  0.1543
  655MOL0     H86423   8.530   9.972  10.464  1.2500 -1.5348 -1.2548
  655MOL0     H86424   8.153   9.864  10.406  1.5826 -0.5598  0.8788
  655MOL0     H86425   7.932   9.708  10.399  1.7183  1.3627 -0.6166
  655MOL0     H86426   7.717   9.685  10.437  1.4640  2.0833  0.7593
  655MOL0     H86427   7.673   9.757  10.595 -0.4585  0.3738 -0.2284
  655MOL0     H86428   7.489   9.604  10.500 -0.7084 -0.1238  1.1945
  655MOL0     H86429   7.559   9.535  10.649 -0.1604  1.1746  1.2019
  655MOL0     H86430   7.698   9.379  10.535 -0.2164  1.0652 -0.0586
  655MOL0     H86431   7.668   9.460  10.380 -1.3881  3.3866  0.5726
  655MOL0     H86432   7.460   9.333  10.570 -2.0520  0.1101 -0.4730
  655MOL0     H86433   7.412   9.405  10.422 -0.5687 -0.5546  0.2312
  655MOL0     H86434   7.500   9.129  10.461  1.3088  0.2694  0.5078
  655MOL0     H86435   7.631   9.205  10.380 -0.5504  0.4575  1.1228
  655MOL0     H86436   7.338   9.194  10.285 -1.0704  1.2020 -0.1003
  655MOL0     H86437   7.467   9.114  10.207 -0.4576 -1.5735  1.8941
  655MOL0     H86438   7.496   9.417  10.230 -0.1540  0.6701  0.3248
  655MOL0     H86439   7.531   9.303  10.090 -1.9138  3.4119 -2.9874
  655MOL0     H86440   7.256   9.373  10.162 -2.3919  2.0603 -4.1776
  655MOL0     H86441   7.310   9.251  10.050 -1.9978 -0.4320  1.1095
  655MOL0     H86442   7.951   9.670  10.805 -0.7370 -2.0719 -1.3956
  655MOL0     H86443   8.165   9.800  10.822  1.0338 -1.9050  0.2120
  655MOL0     H86444   8.615   9.844  10.878  2.1447  2.2355  1.7667
  655MOL0     H86445   8.842   9.838  10.842 -0.0785  1.0748  0.1245
  655MOL0     H86446   8.937  10.447  10.860  1.3541 -0.1457  0.2854
  655MOL0     H86447   8.686  10.480  10.802 -0.3383 -1.3531  1.1415
  655MOL0     H86448   8.338  10.415  10.668  2.6035  2.1802  0.1919
  655MOL0     H86449   8.089  10.434  10.632 -2.6550  3.1291 -1.2823
  655MOL0     H86450   7.905  10.602  10.657 -1.2863 -1.6929  1.0443
  655MOL0     H86451   7.901  10.460  10.573  3.2826  1.2185 -2.0407
  655MOL0     H86452   7.670  10.547  10.574  1.7910 -0.5152  1.0437
  655MOL0     H86453   7.726  10.712  10.531  1.0228  0.7849 -1.6948
  655MOL0     H86454   7.740  10.480  10.337 -1.5989 -1.1318  1.9781
  655MOL0     H86455   7.789  10.647  10.309  0.6482 -1.3246  0.0176
  655MOL0     H86456   7.531  10.716  10.337 -2.1934 -0.1382 -0.3300
  655MOL0     H86457   7.568  10.604  10.212 -2.5301  0.2440 -0.1051
  655MOL0     H86458   7.304  10.429  10.498  0.7649  0.7100  3.2125
  655MOL0     H86459   8.159  10.722  10.331  0.2925 -1.4451 -1.8513
  655MOL0     H86460   8.388  10.703  10.351  0.6347 -0.0658  0.7875
  656MOL0     O86461   7.333  11.118   8.173 -0.5868  0.0190  0.1101
  656MOL0     C86462   7.288  11.141   8.060 -0.5125 -0.3974 -0.2476
  656MOL0     O86463   7.364  11.152   7.954 -0.8831  0.0676  0.4360
  656MOL0     C86464   7.502  11.155   7.965  0.6966  1.3670  0.6831
  656MOL0     C86465   7.577  11.205   8.075  0.4310  0.1104  1.4735
  656MOL0     C86466   7.716  11.199   8.074 -0.7456  0.1192 -0.5071
  656MOL0     C86467   7.783  11.158   7.953  0.2364 -0.3452 -0.3598
  656MOL0     O86468   7.920  11.151   7.962  0.1667  0.6893 -0.1737
  656MOL0     C86469   7.992  11.099   7.849 -0.2765 -0.2725 -0.0059
  656MOL0     C86470   8.142  11.101   7.878  0.4815 -0.0315  0.4538
  656MOL0     C86471   8.232  11.159   7.766 -0.6901  0.3975  0.1484
  656MOL0     C86472   8.379  11.141   7.799  0.0368  0.7061 -0.6492
  656MOL0     C86473   8.477  11.188   7.696 -0.2215  0.5382 -0.0656
  656MOL0     C86474   8.464  11.324   7.633 -0.0320 -0.4352 -0.1674
  656MOL0     C86475   8.533  11.443   7.704 -0.4677  0.5128 -1.0092
  656MOL0     C86476   8.486  11.471   7.853  1.0179 -0.2154  0.2324
  656MOL0     N86477   8.336  11.492   7.848 -0.1567 -0.4103  0.0035
  656MOL0     C86478   8.253  11.472   7.956  0.3745  0.5218  0.2663
  656MOL0     C86479   8.132  11.511   7.906  0.5225 -0.3976 -0.3329
  656MOL0     C86480   8.005  11.506   7.979 -0.4849 -1.5299 -0.1514
  656MOL0     C86481   8.002  11.577   8.121 -1.1531  0.4870  0.2596
  656MOL0     C86482   7.874  11.547   8.203  0.6698  0.2635 -0.3608
  656MOL0     C86483   7.897  11.608   8.342  0.5723  0.5655 -0.3963
  656MOL0     O86484   7.803  11.546   8.431 -0.2256 -0.6465 -0.6834
  656MOL0     C86485   7.661  11.557   8.405 -0.5093  0.4692 -0.1532
  656MOL0     C86486   7.580  11.447   8.442  0.5266  0.2866  0.0447
  656MOL0     C86487   7.445  11.440   8.421  0.1345 -0.9729  0.7048
  656MOL0     C86488   7.395  11.541   8.345  0.4010 -1.1121  0.6867
  656MOL0     C86489   7.245  11.548   8.327 -0.3540 -0.1700 -0.2852
  656MOL0     O86490   7.165  11.475   8.414 -0.2033  0.1251  0.8363
  656MOL0     C86491   7.029  11.495   8.397 -0.6052  0.1019  0.3038
  656MOL0     C86492   6.953  11.565   8.485 -0.7125  0.3882  0.4778
  656MOL0     C86493   6.812  11.585   8.462  0.1471 -0.0902  0.3563
  656MOL0     C86494   6.746  11.545   8.345  0.1437 -0.2064 -0.0483
  656MOL0     O86495   6.608  11.585   8.312 -0.2254 -0.2080 -0.0356
  656MOL0     C86496   6.524  11.617   8.427  0.2895 -0.2179 -0.0532
  656MOL0     C86497   6.483  11.770   8.433 -0.1516 -0.9542 -1.2171
  656MOL0     C86498   6.592  11.869   8.411  0.1885 -0.2167  1.0164
  656MOL0     C86499   6.547  12.023   8.410  0.2035 -0.5572 -0.4489
  656MOL0     C86500   6.495  12.070   8.553  0.3014  0.3184  0.0792
  656MOL0     C86501   6.400  12.206   8.547 -0.9906 -0.5389 -0.2445
  656MOL0     C86502   6.330  12.226   8.684  0.0728  0.0214  0.3302
  656MOL0     C86503   6.260  12.362   8.686 -0.1387 -0.0222 -0.2293
  656MOL0    Cl86504   6.142  12.389   8.559  0.1844 -0.0433 -0.2481
  656MOL0     C86505   6.826  11.464   8.264 -0.2043 -0.4622 -0.3350
  656MOL0     C86506   6.959  11.434   8.288 -0.2426 -0.7799 -0.5161
  656MOL0     O86507   7.208  11.619   8.232  1.1106 -0.6802  0.4575
  656MOL0     C86508   7.462  11.656   8.310  0.0539 -0.5663 -0.5530
  656MOL0     C86509   7.601  11.664   8.333  0.8332 -0.5692 -0.2953
  656MOL0     N86510   8.147  11.579   7.794 -0.1232  0.0862 -0.1999
  656MOL0     N86511   8.272  11.570   7.758 -0.3125  0.9272  0.3180
  656MOL0     C86512   7.706  11.116   7.841  0.7921 -0.0624 -0.2216
  656MOL0     C86513   7.566  11.105   7.854  0.0505 -0.2159  0.2643
  656MOL0     C86514   7.143  11.142   8.040  0.0144 -0.5514  0.6962
  656MOL0     C86515   7.049  11.108   8.148 -0.3965  0.2853 -0.6162
  656MOL0     C86516   6.909  11.103   8.137 -0.1097 -0.2047  0.5923
  656MOL0     C86517   6.856  11.163   8.019 -0.6236 -0.3041 -0.3313
  656MOL0     O86518   6.718  11.170   8.021 -0.1613 -0.0274  0.2796
  656MOL0     C86519   6.662  11.256   7.923 -0.4534  0.2885 -0.2902
  656MOL0     C86520   6.529  11.308   7.983 -0.6074 -0.1996 -0.4501
  656MOL0     C86521   6.421  11.197   8.006  0.4000  0.1381 -0.3894
  656MOL0     C86522   6.282  11.247   8.066  0.1514  0.0752 -0.2681
  656MOL0     C86523   6.278  11.315   8.201  0.1090  0.0732  0.4398
  656MOL0     C86524   6.257  11.369   8.307  0.4189  0.5727 -0.0024
  656MOL0     C86525   6.942  11.205   7.916 -0.0856  0.9888 -0.9773
  656MOL0     C86526   7.081  11.189   7.926 -0.6604  0.1654 -0.0465
  656MOL0     H86527   7.514  11.256   8.147 -0.6488  0.4785  0.3165
  656MOL0     H86528   7.780  11.225   8.158 -2.0823 -2.0446  1.3055
  656MOL0     H86529   7.959  11.152   7.760 -0.8896 -2.4756 -1.1491
  656MOL0     H86530   7.958  10.995   7.849  1.1075 -0.7626  1.4277
  656MOL0     H86531   8.180  11.003   7.906 -1.6878 -0.2166  3.0156
  656MOL0     H86532   8.158  11.160   7.969  1.1466 -0.7479  0.8079
  656MOL0     H86533   8.196  11.261   7.752 -0.0287  0.5763 -0.2698
  656MOL0     H86534   8.218  11.109   7.670 -0.3065  1.6909 -0.6034
  656MOL0     H86535   8.397  11.196   7.892  0.6228 -2.4935  1.2701
  656MOL0     H86536   8.398  11.035   7.812  0.3980  0.3499 -3.4418
  656MOL0     H86537   8.471  11.110   7.621  1.3598 -1.4009  1.6964
  656MOL0     H86538   8.579  11.171   7.730 -0.4242  0.8912  0.7598
  656MOL0     H86539   8.359  11.351   7.617 -0.0885 -0.6215 -0.1168
  656MOL0     H86540   8.514  11.321   7.536 -0.4240  2.3299 -0.5320
  656MOL0     H86541   8.642  11.434   7.711 -0.7459 -4.5438  1.2560
  656MOL0     H86542   8.517  11.537   7.651 -0.7572  2.2995  2.0332
  656MOL0     H86543   8.537  11.559   7.893 -1.4586  1.8990 -0.9774
  656MOL0     H86544   8.504  11.378   7.908  0.0290 -0.5132  0.0640
  656MOL0     H86545   8.275  11.422   8.050  1.5703  2.4051  1.0454
  656MOL0     H86546   7.987  11.399   7.991 -1.0895 -1.3810  0.2825
  656MOL0     H86547   7.930  11.554   7.916 -0.8310 -2.2808 -0.3256
  656MOL0     H86548   8.011  11.686   8.118  1.5564  0.3590  1.2737
  656MOL0     H86549   8.091  11.555   8.181 -1.5590  1.4813  1.2568
  656MOL0     H86550   7.781  11.586   8.161 -1.6312 -0.2025  3.7247
  656MOL0     H86551   7.863  11.438   8.200  2.3609  0.0726 -0.9328
  656MOL0     H86552   7.889  11.717   8.334  1.4198  0.4905 -3.4450
  656MOL0     H86553   7.996  11.572   8.371  0.7969 -0.6035 -2.4339
  656MOL0     H86554   7.619  11.368   8.505 -0.3375 -1.1877 -1.2042
  656MOL0     H86555   7.382  11.356   8.448 -1.5568 -0.3062 -0.9311
  656MOL0     H86556   6.985  11.606   8.580 -4.1417 -1.0969  2.4426
  656MOL0     H86557   6.765  11.648   8.537 -1.0089 -1.1866  0.5717
  656MOL0     H86558   6.569  11.594   8.524  0.1914  3.0409  0.8760
  656MOL0     H86559   6.425  11.570   8.420 -1.7702  3.2680  2.3007
  656MOL0     H86560   6.440  11.779   8.533 -0.8132 -2.5629 -1.3122
  656MOL0     H86561   6.401  11.788   8.363 -1.6514 -1.2910  0.3764
  656MOL0     H86562   6.644  11.847   8.318  2.0005  1.6230  1.5211
  656MOL0     H86563   6.662  11.865   8.495  3.0846  1.5933 -1.1122
  656MOL0     H86564   6.623  12.087   8.366 -0.6455 -0.8314 -2.4246
  656MOL0     H86565   6.459  12.030   8.345 -1.2187 -3.0674  1.0404
  656MOL0     H86566   6.584  12.065   8.616  1.4179  0.3468 -1.4252
  656MOL0     H86567   6.425  11.995   8.591  0.7927  0.1352  0.6216
  656MOL0     H86568   6.318  12.199   8.476 -1.6992  2.9838  0.0429
  656MOL0     H86569   6.465  12.293   8.531 -2.0563  0.1061 -1.1762
  656MOL0     H86570   6.264  12.147   8.722  1.0781 -0.4380  1.1762
  656MOL0     H86571   6.400  12.240   8.768 -0.5300 -1.7401  1.1588
  656MOL0     H86572   6.337  12.439   8.674  0.2939 -0.6879 -2.0094
  656MOL0     H86573   6.206  12.387   8.778 -1.6713 -1.0798 -0.8013
  656MOL0     H86574   6.777  11.431   8.172 -0.5533 -1.3528  0.1567
  656MOL0     H86575   7.014  11.375   8.216  0.3656  0.5646 -1.1945
  656MOL0     H86576   7.419  11.743   8.263 -0.5511  0.7991  2.2822
  656MOL0     H86577   7.645  11.760   8.311  1.4266  0.3069  3.9164
  656MOL0     H86578   7.751  11.083   7.747 -1.9610 -1.0124 -1.2894
  656MOL0     H86579   7.506  11.066   7.772 -0.3780 -0.6022  0.7587
  656MOL0     H86580   7.081  11.044   8.230 -5.5522 -2.3499 -0.2655
  656MOL0     H86581   6.852  11.056   8.216  2.9996 -1.9765  1.9367
  656MOL0     H86582   6.647  11.199   7.831  2.9665 -0.8621 -0.2746
  656MOL0     H86583   6.718  11.347   7.900 -1.4400  0.6159 -1.5123
  656MOL0     H86584   6.550  11.368   8.072  0.9712 -0.5675 -0.5527
  656MOL0     H86585   6.497  11.372   7.900  0.8172  1.2767  0.0664
  656MOL0     H86586   6.467  11.131   8.080  3.1779  1.7333 -0.5893
  656MOL0     H86587   6.401  11.135   7.917  0.5293  2.2667 -1.9742
  656MOL0     H86588   6.250  11.326   7.997  0.0988 -0.9793 -1.4951
  656MOL0     H86589   6.200  11.174   8.068 -0.0771  0.3266 -0.4289
  656MOL0     H86590   6.245  11.437   8.390  1.4598  2.9826 -1.6857
  656MOL0     H86591   6.900  11.246   7.825 -1.1525 -1.3854 -1.6576
  656MOL0     H86592   7.136  11.217   7.837  0.3823  1.0062  0.8351
  657MOL0     O86593   8.965   9.787   2.574  0.1669 -0.7550 -0.6222
  657MOL0     C86594   8.953   9.669   2.593  0.8149 -0.5935 -0.3844
  657MOL0     O86595   8.839   9.608   2.633  0.9209 -0.2093 -0.4152
  657MOL0     C86596   8.716   9.668   2.623 -0.1284 -0.0002 -0.0396
  657MOL0     C86597   8.656   9.742   2.512 -0.2646 -0.1648 -0.9180
  657MOL0     C86598   8.539   9.812   2.531  0.4728 -0.0928  0.1947
  657MOL0     C86599   8.476   9.811   2.653  0.3976  1.1720  0.9384
  657MOL0     O86600   8.354   9.884   2.664  0.9976 -0.3039 -0.0610
  657MOL0     C86601   8.318   9.925   2.793  0.5872 -0.3600 -0.4229
  657MOL0     C86602   8.225  10.042   2.780  0.4426  0.5636  0.0571
  657MOL0     C86603   8.161  10.076   2.914 -0.5267  0.0852 -0.3484
  657MOL0     C86604   8.264  10.169   2.978  0.0562  1.0435  0.3016
  657MOL0     C86605   8.234  10.187   3.126  0.0003  0.0041  0.0884
  657MOL0     C86606   8.314  10.299   3.197  0.7748  0.1785  0.8302
  657MOL0     C86607   8.288  10.306   3.344  0.9181 -0.8945 -0.1753
  657MOL0     C86608   8.380  10.223   3.438 -0.6947  0.1245 -0.0327
  657MOL0     N86609   8.378  10.078   3.428  0.0633  0.7394 -0.4113
  657MOL0     C86610   8.480   9.999   3.374  0.8309 -0.0041  0.1828
  657MOL0     C86611   8.424   9.871   3.373 -0.1631 -0.3493 -0.5478
  657MOL0     C86612   8.478   9.753   3.293  0.2929  0.3687 -0.2755
  657MOL0     C86613   8.443   9.756   3.142  0.0637 -0.0089 -0.4960
  657MOL0     C86614   8.316   9.691   3.092  0.7163 -0.5585  0.2535
  657MOL0     C86615   8.195   9.741   3.159  0.1251 -0.4127  0.0176
  657MOL0     O86616   8.065   9.692   3.112  0.1159  0.9045 -0.1143
  657MOL0     C86617   7.947   9.727   3.162 -0.1273 -1.0563 -0.3824
  657MOL0     C86618   7.842   9.677   3.091 -0.3078 -0.3175 -0.1587
  657MOL0     C86619   7.713   9.693   3.129  0.3670  0.5800 -0.0941
  657MOL0     C86620   7.681   9.786   3.234  0.1346  0.3845 -0.3571
  657MOL0     C86621   7.551   9.799   3.282  0.6062  1.0292 -0.9997
  657MOL0     O86622   7.539   9.848   3.410 -0.2669 -0.0032 -0.4466
  657MOL0     C86623   7.416   9.885   3.453 -0.1255  0.5892  0.4212
  657MOL0     C86624   7.340   9.971   3.379  0.2646 -0.5572 -0.2569
  657MOL0     C86625   7.203  10.001   3.428  0.0019 -0.4527 -0.0313
  657MOL0     C86626   7.142   9.941   3.542 -0.0996  0.6231  0.5729
  657MOL0     O86627   7.005   9.962   3.551  0.2539 -0.3777  0.3817
  657MOL0     C86628   6.940   9.899   3.656  0.5037  0.8808 -0.4610
  657MOL0     C86629   6.889   9.763   3.612 -0.0728  0.6230 -0.0829
  657MOL0     C86630   6.829   9.677   3.728 -1.4132  0.0549  0.4082
  657MOL0     C86631   6.752   9.559   3.668  0.4967  0.3703 -0.7209
  657MOL0     C86632   6.702   9.462   3.779 -0.2432 -0.5300  0.6432
  657MOL0     C86633   6.602   9.536   3.879  0.3753 -0.0888 -0.4693
  657MOL0     C86634   6.551   9.444   3.993  0.3609  0.9157  0.1041
  657MOL0     C86635   6.476   9.521   4.091 -0.4399  0.2696  0.7322
  657MOL0    Cl86636   6.335   9.609   4.029  0.1647 -0.1466  0.1569
  657MOL0     C86637   7.225   9.848   3.609 -0.2837 -0.7713  0.0500
  657MOL0     C86638   7.363   9.831   3.573 -0.0991  0.4026  0.6244
  657MOL0     O86639   7.456   9.761   3.213  0.3137  0.3166  0.4966
  657MOL0     C86640   7.785   9.845   3.306 -0.0336  0.0645 -0.3564
  657MOL0     C86641   7.921   9.818   3.266 -0.2396 -0.1957 -0.1726
  657MOL0     N86642   8.304   9.882   3.435  0.1834  0.4368  0.3391
  657MOL0     N86643   8.273  10.001   3.468  0.1935  0.2105  0.1030
  657MOL0     C86644   8.527   9.727   2.751  0.5049 -1.4273  0.6758
  657MOL0     C86645   8.646   9.657   2.743 -0.6670  0.0731 -0.2275
  657MOL0     C86646   9.084   9.594   2.607 -0.5241 -1.3866  0.2352
  657MOL0     C86647   9.095   9.465   2.652  0.0700 -0.0155  0.3359
  657MOL0     C86648   9.214   9.410   2.685 -0.6455 -0.3810 -0.2273
  657MOL0     C86649   9.334   9.479   2.673 -1.0690 -0.7152  0.5755
  657MOL0     O86650   9.447   9.409   2.717  0.0144 -0.7629  0.5202
  657MOL0     C86651   9.581   9.470   2.695  1.0339  0.0823 -0.2297
  657MOL0     C86652   9.694   9.393   2.772  0.0282 -0.7172  0.4839
  657MOL0     C86653   9.706   9.255   2.700  0.0492  0.3580 -0.2702
  657MOL0     C86654   9.623   9.131   2.746 -0.0149  0.1584 -0.5019
  657MOL0     C86655   9.667   9.005   2.702  0.1859  0.3004 -0.5334
  657MOL0     C86656   9.716   8.904   2.662  0.2114  0.0990 -0.1951
  657MOL0     C86657   9.332   9.610   2.606  0.3582 -0.6448  1.0051
  657MOL0     C86658   9.202   9.668   2.576 -0.0553 -0.1645 -0.3260
  657MOL0     H86659   8.714   9.757   2.421  0.5293  0.8239 -0.2775
  657MOL0     H86660   8.524   9.871   2.441  3.4904 -1.2380 -1.1864
  657MOL0     H86661   8.405   9.941   2.856  0.6601 -0.8452 -0.3902
  657MOL0     H86662   8.256   9.847   2.837  0.7499 -0.8239 -0.9900
  657MOL0     H86663   8.145  10.022   2.708 -1.1439  3.5195  0.8279
  657MOL0     H86664   8.269  10.134   2.742 -0.5442  1.1733  0.3619
  657MOL0     H86665   8.132   9.988   2.972  0.6999 -0.6739 -0.8562
  657MOL0     H86666   8.073  10.136   2.892 -0.3628 -0.5796 -3.1490
  657MOL0     H86667   8.364  10.123   2.974  0.3191  1.3772  2.1791
  657MOL0     H86668   8.269  10.264   2.925 -3.9142 -0.8618 -4.2076
  657MOL0     H86669   8.262  10.093   3.176  1.3342 -0.0134 -0.6373
  657MOL0     H86670   8.127  10.207   3.133  0.0963  0.6359 -0.1775
  657MOL0     H86671   8.293  10.399   3.159 -1.8075 -0.1339  1.2214
  657MOL0     H86672   8.420  10.278   3.182  1.0398 -1.5841  4.1664
  657MOL0     H86673   8.303  10.412   3.365 -2.1679  0.2754 -3.0265
  657MOL0     H86674   8.185  10.290   3.376  1.4521 -0.8882  1.6287
  657MOL0     H86675   8.341  10.249   3.537  2.8744  0.2915  1.4831
  657MOL0     H86676   8.483  10.257   3.446 -0.9873  1.3221 -1.0416
  657MOL0     H86677   8.562  10.041   3.319 -1.1720  2.4532 -1.1476
  657MOL0     H86678   8.444   9.656   3.329  0.8640  0.9267  1.8630
  657MOL0     H86679   8.584   9.767   3.314 -0.2739  0.3398  3.2007
  657MOL0     H86680   8.522   9.696   3.096 -1.6142 -2.7135 -0.0296
  657MOL0     H86681   8.460   9.855   3.098  2.5987 -0.2341 -0.1628
  657MOL0     H86682   8.300   9.706   2.985 -0.5081  0.4842  0.5557
  657MOL0     H86683   8.326   9.582   3.102  1.1159 -0.7868 -2.1188
  657MOL0     H86684   8.191   9.848   3.141  0.7838 -0.1406  1.3695
  657MOL0     H86685   8.208   9.719   3.265  4.2591 -4.1234 -0.9419
  657MOL0     H86686   7.849   9.622   2.998  2.8415 -0.6591  0.1797
  657MOL0     H86687   7.629   9.650   3.075 -0.5179  2.7879 -0.5553
  657MOL0     H86688   7.366  10.013   3.282 -0.6460 -0.1079 -0.3228
  657MOL0     H86689   7.130  10.037   3.356 -0.1579 -2.2523 -0.8282
  657MOL0     H86690   6.848   9.953   3.680 -1.7296 -2.7777 -0.0548
  657MOL0     H86691   7.009   9.896   3.740  1.1760  1.6455 -0.9708
  657MOL0     H86692   6.968   9.704   3.564 -1.0846  0.2581 -1.3711
  657MOL0     H86693   6.813   9.777   3.534 -0.0630 -0.9746 -0.4076
  657MOL0     H86694   6.755   9.731   3.788 -2.2584 -0.4786 -0.1340
  657MOL0     H86695   6.915   9.653   3.792 -2.3791  1.3068  2.2695
  657MOL0     H86696   6.659   9.592   3.622 -1.3147  0.7834  2.8569
  657MOL0     H86697   6.808   9.510   3.588  1.9491  0.3209  0.2739
  657MOL0     H86698   6.787   9.408   3.822 -0.7680 -2.6407 -0.8303
  657MOL0     H86699   6.656   9.380   3.724  0.6477 -0.7933  0.2784
  657MOL0     H86700   6.517   9.560   3.814  0.6715  0.6262 -0.5962
  657MOL0     H86701   6.654   9.625   3.915  1.6718 -0.0173 -2.3836
  657MOL0     H86702   6.501   9.357   3.952  0.4903  0.7806  0.2305
  657MOL0     H86703   6.640   9.399   4.039 -0.3784 -1.5305 -0.7416
  657MOL0     H86704   6.535   9.589   4.153  3.3174 -1.5454 -0.5553
  657MOL0     H86705   6.447   9.446   4.165  0.8564 -0.2880  0.7047
  657MOL0     H86706   7.198   9.777   3.687 -2.4039 -2.5099 -2.0883
  657MOL0     H86707   7.415   9.761   3.638 -2.3339 -1.7982  0.2044
  657MOL0     H86708   7.752   9.898   3.394 -2.9773 -2.4391  0.2079
  657MOL0     H86709   8.014   9.846   3.315 -0.6656 -0.6018  0.9055
  657MOL0     H86710   8.467   9.728   2.841 -2.8799 -0.5594 -1.4041
  657MOL0     H86711   8.703   9.597   2.813  1.9585  0.2572 -2.0499
  657MOL0     H86712   9.005   9.406   2.668  1.0602 -2.7126 -2.8634
  657MOL0     H86713   9.219   9.311   2.727  0.0314 -0.9684 -1.6206
  657MOL0     H86714   9.579   9.563   2.752 -3.9003 -0.2961  0.6728
  657MOL0     H86715   9.594   9.493   2.589 -2.8830  2.0070 -0.4779
  657MOL0     H86716   9.783   9.454   2.759 -0.8537  0.7756  1.1543
  657MOL0     H86717   9.667   9.384   2.877 -3.1339 -0.0382 -0.1609
  657MOL0     H86718   9.810   9.223   2.711 -0.6167 -1.4363  1.3604
  657MOL0     H86719   9.696   9.268   2.592  0.3805 -1.0028 -0.4755
  657MOL0     H86720   9.615   9.120   2.855  0.5166  3.8184  0.0333
  657MOL0     H86721   9.519   9.147   2.714 -1.0114 -0.2921  2.2259
  657MOL0     H86722   9.753   8.812   2.622 -1.0437  0.0263 -1.2668
  657MOL0     H86723   9.423   9.668   2.596  0.2000 -0.4169  0.8490
  657MOL0     H86724   9.192   9.759   2.517  1.8103  0.5244  0.3375
  658MOL0     O86725   3.640   8.213   9.511  0.0689 -0.0360  0.2832
  658MOL0     C86726   3.698   8.259   9.410  0.0434 -1.1778 -0.0296
  658MOL0     O86727   3.646   8.364   9.337 -0.4266  0.5914  0.3208
  658MOL0     C86728   3.510   8.404   9.340 -1.0660  0.3848  0.4529
  658MOL0     C86729   3.397   8.316   9.337 -0.0684 -0.9856  0.2149
  658MOL0     C86730   3.265   8.363   9.340 -0.8401  0.0405  0.1942
  658MOL0     C86731   3.244   8.504   9.348  1.2880 -0.1239  0.9467
  658MOL0     O86732   3.113   8.565   9.362 -0.3652  0.1095 -0.2011
  658MOL0     C86733   3.015   8.477   9.298  1.4795 -0.5404  0.9542
  658MOL0     C86734   2.894   8.565   9.260 -0.7100 -0.0041  1.4192
  658MOL0     C86735   2.759   8.495   9.237 -0.2869 -0.2808  0.0405
  658MOL0     C86736   2.638   8.587   9.229  0.1342  0.1436 -0.4466
  658MOL0     C86737   2.626   8.683   9.107  0.6010 -0.0879 -0.2040
  658MOL0     C86738   2.492   8.764   9.123 -0.0988 -0.8826 -0.3702
  658MOL0     C86739   2.468   8.887   9.034 -0.6467  0.9228  0.4124
  658MOL0     C86740   2.552   9.014   9.070  0.3414  1.0156  0.2408
  658MOL0     N86741   2.566   9.089   8.946 -0.1295 -0.1088 -0.7093
  658MOL0     C86742   2.463   9.161   8.889 -0.1795 -0.1822 -0.2272
  658MOL0     C86743   2.524   9.211   8.783  0.0536  0.3136 -0.6178
  658MOL0     C86744   2.459   9.329   8.713  0.0016  0.2257  0.6086
  658MOL0     C86745   2.353   9.271   8.617 -0.5190  0.1465  1.1211
  658MOL0     C86746   2.283   9.380   8.529 -1.0557 -0.9122  0.2980
  658MOL0     C86747   2.144   9.330   8.484  0.7473  0.0756  0.9392
  658MOL0     O86748   2.081   9.287   8.610 -0.1083 -0.0140  0.1300
  658MOL0     C86749   1.963   9.216   8.597  1.3144  0.0909 -0.2764
  658MOL0     C86750   1.901   9.155   8.711 -0.1203  0.1049  0.2042
  658MOL0     C86751   1.770   9.097   8.711 -0.2289  0.0055 -0.6118
  658MOL0     C86752   1.715   9.073   8.586  0.4655 -0.5325 -0.6304
  658MOL0     C86753   1.588   8.998   8.569 -0.4199  0.5205  0.0931
  658MOL0     O86754   1.526   9.024   8.450 -0.1666  0.5898 -0.2114
  658MOL0     C86755   1.393   8.970   8.453  0.2096 -0.2781  0.5652
  658MOL0     C86756   1.359   8.877   8.360  1.3458  0.2343  0.5540
  658MOL0     C86757   1.222   8.850   8.335  0.1827 -0.2605 -0.0166
  658MOL0     C86758   1.126   8.895   8.416 -0.5519 -0.2580  0.1355
  658MOL0     O86759   0.995   8.862   8.399  0.3666  0.5393  0.0436
  658MOL0     C86760   0.900   8.898   8.504  0.0796 -0.4030 -0.3568
  658MOL0     C86761   0.764   8.842   8.470 -0.7254 -0.3155 -0.0666
  658MOL0     C86762   0.659   8.940   8.538 -0.9478 -0.8018  0.5323
  658MOL0     C86763   0.516   8.917   8.494 -0.0337 -0.3906  0.0215
  658MOL0     C86764   0.410   9.013   8.540 -0.1358 -0.5531  0.0456
  658MOL0     C86765   0.268   9.002   8.489  0.1077 -0.1507  0.1132
  658MOL0     C86766   0.200   8.887   8.559  0.0322 -0.1885  1.4667
  658MOL0     C86767   0.060   8.856   8.510 -0.0509 -0.6165  0.7576
  658MOL0    Cl86768  -0.047   8.994   8.551 -0.2167 -0.2633 -0.0211
  658MOL0     C86769   1.166   8.987   8.520 -0.4394  0.1447 -0.5931
  658MOL0     C86770   1.298   9.016   8.538 -0.6987 -0.2073 -0.2222
  658MOL0     O86771   1.552   8.919   8.663  0.6781  0.0066 -0.9791
  658MOL0     C86772   1.771   9.128   8.471  0.5093  0.0557 -0.0630
  658MOL0     C86773   1.888   9.210   8.482 -0.0099  0.1385 -0.1018
  658MOL0     N86774   2.660   9.171   8.778  0.4702 -0.4685 -0.2144
  658MOL0     N86775   2.683   9.103   8.880  0.3826 -0.0597  0.5152
  658MOL0     C86776   3.355   8.588   9.356  0.2260 -0.6534 -0.5423
  658MOL0     C86777   3.488   8.539   9.348  0.7525 -0.7819 -0.6483
  658MOL0     C86778   3.839   8.214   9.388 -0.4152  0.8057  0.0893
  658MOL0     C86779   3.893   8.107   9.469  0.0031 -0.0354 -0.2415
  658MOL0     C86780   4.027   8.070   9.462  0.0189 -0.0665 -1.0995
  658MOL0     C86781   4.120   8.130   9.369  0.2399 -0.3596 -0.5040
  658MOL0     O86782   4.253   8.099   9.377  0.6687 -0.0352  0.0593
  658MOL0     C86783   4.348   8.159   9.286 -0.7789  1.0489  0.2813
  658MOL0     C86784   4.481   8.086   9.313  0.4036 -0.0952  0.4555
  658MOL0     C86785   4.504   7.969   9.214  0.4816  0.0365 -0.0003
  658MOL0     C86786   4.641   7.902   9.238  0.5546  0.1028  1.5124
  658MOL0     C86787   4.658   7.785   9.150  0.0304  0.4771 -1.1694
  658MOL0     C86788   4.673   7.694   9.073 -0.0135  0.0850 -1.2375
  658MOL0     C86789   4.060   8.237   9.293  0.3839 -0.1269  0.5059
  658MOL0     C86790   3.922   8.277   9.298 -0.3886 -0.0750 -1.0339
  658MOL0     H86791   3.419   8.210   9.333 -0.8358 -1.1537  0.1278
  658MOL0     H86792   3.196   8.280   9.352  0.9412 -1.4413  0.7432
  658MOL0     H86793   2.976   8.399   9.365 -2.6678  0.0392 -0.5438
  658MOL0     H86794   3.056   8.435   9.206  1.1152  1.2525 -0.0621
  658MOL0     H86795   2.914   8.598   9.158 -1.3181  1.4012  1.7180
  658MOL0     H86796   2.881   8.641   9.338 -2.3455 -1.0334  2.2167
  658MOL0     H86797   2.736   8.420   9.313  1.1150 -0.7886 -0.0027
  658MOL0     H86798   2.774   8.446   9.140  2.3430 -0.7776  0.6169
  658MOL0     H86799   2.543   8.533   9.236  0.5620 -0.4923  0.7462
  658MOL0     H86800   2.638   8.637   9.326  1.4405 -0.1867 -0.2570
  658MOL0     H86801   2.630   8.626   9.014  2.0296  0.9270 -0.7976
  658MOL0     H86802   2.699   8.764   9.105  2.5997 -1.8173 -1.0890
  658MOL0     H86803   2.485   8.811   9.222 -0.6296 -0.9898 -0.3547
  658MOL0     H86804   2.401   8.705   9.113 -1.2024  0.8699 -1.1385
  658MOL0     H86805   2.491   8.853   8.933  1.8240  1.4305  0.7209
  658MOL0     H86806   2.363   8.916   9.042 -1.1533  0.7594 -3.6031
  658MOL0     H86807   2.653   8.978   9.092 -0.3661 -2.5104 -1.3841
  658MOL0     H86808   2.506   9.058   9.159  0.5520 -1.9464  1.9773
  658MOL0     H86809   2.358   9.170   8.915  0.0360 -3.0053  2.1215
  658MOL0     H86810   2.534   9.395   8.667 -0.3038 -0.1644 -0.4694
  658MOL0     H86811   2.406   9.389   8.787 -4.0495 -2.1615 -0.0577
  658MOL0     H86812   2.282   9.201   8.661 -0.4452 -1.7808 -1.6107
  658MOL0     H86813   2.403   9.211   8.540 -1.3585  1.9526 -0.9622
  658MOL0     H86814   2.283   9.473   8.586  2.6247  0.9732 -2.3044
  658MOL0     H86815   2.346   9.393   8.440 -0.5174 -2.0377  0.4941
  658MOL0     H86816   2.163   9.250   8.412  0.9985  1.2133 -0.2982
  658MOL0     H86817   2.084   9.408   8.435  0.8515  0.5205  1.5132
  658MOL0     H86818   1.956   9.166   8.805  0.4197  1.4483 -0.2476
  658MOL0     H86819   1.740   9.054   8.806 -1.0561 -1.4929 -1.5193
  658MOL0     H86820   1.425   8.818   8.296 -0.6225 -2.1282  0.5822
  658MOL0     H86821   1.194   8.789   8.249 -1.7284  0.6002 -0.0562
  658MOL0     H86822   0.890   9.007   8.511 -0.1309 -0.4177 -0.4116
  658MOL0     H86823   0.925   8.854   8.601 -1.5378 -0.8825 -0.1126
  658MOL0     H86824   0.776   8.741   8.510  1.2829 -0.6011 -1.2793
  658MOL0     H86825   0.762   8.836   8.361 -3.0215  1.4361 -0.2083
  658MOL0     H86826   0.685   9.043   8.515 -0.3277 -0.2584  3.2679
  658MOL0     H86827   0.680   8.926   8.645  1.8693 -1.1974 -0.0095
  658MOL0     H86828   0.513   8.931   8.386  0.9060 -2.5070 -0.3208
  658MOL0     H86829   0.481   8.815   8.517  1.9310 -1.2638 -0.6652
  658MOL0     H86830   0.446   9.113   8.513 -0.9051  0.0345  1.0638
  658MOL0     H86831   0.413   9.009   8.649  0.1488  0.5179  0.0863
  658MOL0     H86832   0.275   8.982   8.382 -0.5249  2.6629 -0.5385
  658MOL0     H86833   0.213   9.096   8.504 -2.1207 -1.5432  1.1503
  658MOL0     H86834   0.257   8.794   8.548  2.0658  1.0850  0.7161
  658MOL0     H86835   0.191   8.908   8.667 -1.8030  0.1936  1.2747
  658MOL0     H86836   0.023   8.767   8.561 -3.6767 -0.4223 -1.1518
  658MOL0     H86837   0.067   8.832   8.403  2.2668  2.4066  0.0829
  658MOL0     H86838   1.103   9.035   8.595 -1.3381  0.1907 -1.3647
  658MOL0     H86839   1.326   9.079   8.621  1.4732 -1.5931  0.1936
  658MOL0     H86840   1.731   9.122   8.370 -0.6233  0.7556  0.3291
  658MOL0     H86841   1.924   9.261   8.393 -0.9686  1.3724  0.1886
  658MOL0     H86842   3.332   8.694   9.362 -0.0262 -0.5324 -2.7617
  658MOL0     H86843   3.581   8.594   9.350  0.0723  0.3804  1.5173
  658MOL0     H86844   3.838   8.058   9.549  1.4462 -4.0429 -1.4490
  658MOL0     H86845   4.060   7.989   9.526 -3.4117 -0.7008  0.0941
  658MOL0     H86846   4.365   8.259   9.324  1.5484  0.5904  0.5441
  658MOL0     H86847   4.321   8.167   9.180  0.9632  2.4394 -0.0950
  658MOL0     H86848   4.566   8.153   9.297  0.5137 -1.0882 -4.8746
  658MOL0     H86849   4.481   8.040   9.412  1.2524 -0.0973  0.4591
  658MOL0     H86850   4.494   8.004   9.111  2.8581 -2.0125 -1.0052
  658MOL0     H86851   4.430   7.891   9.234  1.4144 -0.0592  3.7802
  658MOL0     H86852   4.718   7.978   9.226 -0.8147  1.4085  0.5576
  658MOL0     H86853   4.650   7.859   9.338  1.8330 -1.9083  0.5715
  658MOL0     H86854   4.712   7.613   9.016 -0.7373 -0.7882 -0.5391
  658MOL0     H86855   4.127   8.296   9.231 -0.8864  1.5750  0.6892
  658MOL0     H86856   3.899   8.358   9.229  2.4288  1.6689 -0.0946
  659MOL0     O86857   5.250   2.071   8.848 -0.0510 -0.3754  0.4697
  659MOL0     C86858   5.281   1.953   8.883 -0.1895 -0.2628 -0.1745
  659MOL0     O86859   5.202   1.857   8.945 -0.0520 -0.3945 -0.2120
  659MOL0     C86860   5.105   1.915   9.027  0.4662  1.1140  0.9075
  659MOL0     C86861   4.982   1.952   8.975 -0.7925  0.4998 -0.2944
  659MOL0     C86862   4.883   2.016   9.050 -1.4799  0.4476 -1.3397
  659MOL0     C86863   4.919   2.037   9.193  0.3466 -0.9056  0.6734
  659MOL0     O86864   4.826   2.102   9.268 -0.3252  0.0955 -0.0208
  659MOL0     C86865   4.706   2.027   9.302 -0.4772 -0.4740 -0.3600
  659MOL0     C86866   4.604   2.132   9.335 -0.7879 -0.1730 -0.2604
  659MOL0     C86867   4.467   2.056   9.360 -0.9320 -0.2783 -0.0518
  659MOL0     C86868   4.353   2.160   9.388 -0.2359 -0.1522  0.2851
  659MOL0     C86869   4.227   2.087   9.426  0.0245 -1.2192  0.8508
  659MOL0     C86870   4.099   2.197   9.428 -0.8508  0.0375  0.3826
  659MOL0     C86871   4.037   2.218   9.293 -0.0828 -0.2856  0.5130
  659MOL0     C86872   3.944   2.103   9.262  0.5877 -0.2044 -0.2652
  659MOL0     N86873   3.847   2.138   9.152 -0.1452  0.4694  0.4098
  659MOL0     C86874   3.728   2.183   9.179  0.8516 -0.0311 -0.6055
  659MOL0     C86875   3.686   2.254   9.065 -0.2107  0.6797 -0.0743
  659MOL0     C86876   3.564   2.322   9.035  0.6168 -0.3454  0.5367
  659MOL0     C86877   3.462   2.318   9.147  0.0539 -0.0326  0.3099
  659MOL0     C86878   3.351   2.423   9.127 -0.6138  0.7728  0.6514
  659MOL0     C86879   3.275   2.401   8.992  0.3658  0.3448 -0.1389
  659MOL0     O86880   3.173   2.501   8.979  0.1979 -0.3131  0.0997
  659MOL0     C86881   3.071   2.518   9.067 -1.4015 -0.7619  1.3497
  659MOL0     C86882   2.983   2.419   9.095 -0.1936  0.9406 -0.5228
  659MOL0     C86883   2.851   2.447   9.137 -0.1932 -0.8790  0.2677
  659MOL0     C86884   2.801   2.578   9.151 -1.3030 -0.0283  0.3447
  659MOL0     C86885   2.653   2.604   9.185  0.0982  0.3965 -1.0094
  659MOL0     O86886   2.598   2.718   9.166  0.5426 -0.5413  0.2714
  659MOL0     C86887   2.462   2.730   9.197  0.0868  0.1203  0.4060
  659MOL0     C86888   2.359   2.654   9.128 -0.0007 -0.4715 -0.6068
  659MOL0     C86889   2.217   2.671   9.170 -0.1447 -0.3642 -0.3511
  659MOL0     C86890   2.191   2.744   9.287 -0.1483  0.4270  0.0932
  659MOL0     O86891   2.061   2.723   9.324  0.1448  1.0308 -0.1341
  659MOL0     C86892   2.021   2.792   9.452  0.5946  0.2529 -0.9109
  659MOL0     C86893   1.882   2.742   9.509 -0.2057  0.7354 -0.3383
  659MOL0     C86894   1.764   2.780   9.419 -0.3670 -0.8758 -0.6890
  659MOL0     C86895   1.635   2.728   9.473 -0.0458  0.8450 -0.7092
  659MOL0     C86896   1.517   2.713   9.377 -0.1130 -0.3110 -1.2289
  659MOL0     C86897   1.400   2.635   9.452  0.7214  0.3147  0.8681
  659MOL0     C86898   1.263   2.646   9.386 -0.6670 -0.6750 -0.8527
  659MOL0     C86899   1.213   2.790   9.401 -0.2885  0.3956  0.0598
  659MOL0    Cl86900   1.043   2.778   9.354 -0.2362  0.3378  0.1369
  659MOL0     C86901   2.291   2.806   9.350 -0.1113  0.1077  0.0388
  659MOL0     C86902   2.418   2.809   9.309  0.0615  0.2619  0.7688
  659MOL0     O86903   2.596   2.505   9.232  0.5467 -0.1574 -0.3188
  659MOL0     C86904   2.889   2.679   9.106 -0.0651  0.3988 -0.1655
  659MOL0     C86905   3.024   2.651   9.069  0.6019 -0.3398 -0.6886
  659MOL0     N86906   3.800   2.260   8.981 -0.3716 -0.2334 -0.2358
  659MOL0     N86907   3.889   2.193   9.030 -0.1807  0.5540 -0.0146
  659MOL0     C86908   5.040   2.006   9.240  0.0324  0.5880  0.5180
  659MOL0     C86909   5.132   1.941   9.159 -0.2041  0.8427  0.7817
  659MOL0     C86910   5.412   1.906   8.834 -0.1421 -0.7480 -0.2823
  659MOL0     C86911   5.464   1.789   8.884  0.5481  0.3316 -0.2905
  659MOL0     C86912   5.589   1.742   8.836 -0.9263  0.3162  0.5541
  659MOL0     C86913   5.668   1.821   8.752  0.1167 -0.3886  0.2897
  659MOL0     O86914   5.798   1.802   8.725  0.0391 -0.1346 -0.5574
  659MOL0     C86915   5.879   1.689   8.773  0.5100 -0.6273 -0.1387
  659MOL0     C86916   5.942   1.737   8.902 -0.1926 -0.5852 -0.0608
  659MOL0     C86917   6.000   1.876   8.897  0.5294  0.1618 -0.7741
  659MOL0     C86918   6.060   1.920   9.034 -0.3666  0.5000  1.2581
  659MOL0     C86919   6.192   1.862   9.032 -0.2016 -0.4503  0.0193
  659MOL0     C86920   6.291   1.796   9.028  1.3810 -0.0260 -0.5693
  659MOL0     C86921   5.616   1.939   8.706  0.3905  0.7898 -0.4542
  659MOL0     C86922   5.490   1.979   8.748 -0.0222 -0.8791 -0.1473
  659MOL0     H86923   4.959   1.933   8.871 -0.0700  2.4865 -0.8587
  659MOL0     H86924   4.787   2.045   9.011 -2.3594 -1.0336 -0.3985
  659MOL0     H86925   4.722   1.966   9.392 -2.8643  1.1865  1.2875
  659MOL0     H86926   4.683   1.962   9.218 -2.0977  0.1722 -0.4450
  659MOL0     H86927   4.596   2.207   9.255 -0.7246 -1.3059 -1.3687
  659MOL0     H86928   4.619   2.179   9.432  0.8661 -0.5434 -0.3125
  659MOL0     H86929   4.478   1.998   9.452 -0.7757 -0.6759 -0.3195
  659MOL0     H86930   4.447   1.993   9.273 -0.9689 -0.2014 -0.0986
  659MOL0     H86931   4.381   2.232   9.465  0.0285 -1.8766  1.8657
  659MOL0     H86932   4.343   2.210   9.291  4.1739 -1.2817 -1.0090
  659MOL0     H86933   4.233   2.030   9.519  0.8755 -1.2167  0.7967
  659MOL0     H86934   4.218   2.014   9.345  1.8706  1.7570 -2.2688
  659MOL0     H86935   4.136   2.295   9.461  2.3649  0.1542 -2.9609
  659MOL0     H86936   4.027   2.150   9.496 -0.4529 -2.3308 -0.7405
  659MOL0     H86937   3.976   2.306   9.311  0.1935 -0.5634  3.2543
  659MOL0     H86938   4.108   2.226   9.210 -1.1880  0.7222 -0.3627
  659MOL0     H86939   3.889   2.068   9.350 -0.1475  3.0017  0.6736
  659MOL0     H86940   4.004   2.019   9.225 -0.0086  0.8988 -4.2506
  659MOL0     H86941   3.660   2.172   9.262  0.1142  1.2940 -1.0076
  659MOL0     H86942   3.528   2.282   8.939  4.3290 -0.3557 -1.0147
  659MOL0     H86943   3.596   2.423   9.010  3.8455 -1.4541 -0.3485
  659MOL0     H86944   3.512   2.339   9.242 -0.8693 -3.1915  1.5972
  659MOL0     H86945   3.420   2.217   9.148  1.2091 -0.5422 -0.5516
  659MOL0     H86946   3.269   2.420   9.199 -0.2506 -2.6151  1.0779
  659MOL0     H86947   3.399   2.521   9.130  0.3480  0.3345 -0.0951
  659MOL0     H86948   3.225   2.304   8.996  1.8846 -0.4433  0.9322
  659MOL0     H86949   3.338   2.399   8.902  0.6934  0.0084  0.0940
  659MOL0     H86950   3.013   2.316   9.077 -2.9137  0.1646 -1.1411
  659MOL0     H86951   2.794   2.357   9.157 -1.9536 -0.1275 -1.0767
  659MOL0     H86952   2.381   2.584   9.048  3.9446  0.5285 -0.5703
  659MOL0     H86953   2.142   2.634   9.102  0.0248 -2.2061  0.4270
  659MOL0     H86954   1.997   2.897   9.434 -1.9256 -0.2176 -0.6621
  659MOL0     H86955   2.098   2.781   9.529 -0.6295 -1.3831  0.1619
  659MOL0     H86956   1.875   2.791   9.607 -1.5258  0.1740 -0.1346
  659MOL0     H86957   1.893   2.635   9.527  1.5369  0.8291 -0.6432
  659MOL0     H86958   1.777   2.733   9.321 -0.6489 -1.7343 -0.3202
  659MOL0     H86959   1.748   2.887   9.411 -1.4175 -0.9183  0.5556
  659MOL0     H86960   1.661   2.631   9.517 -0.1157  0.6958 -0.9920
  659MOL0     H86961   1.596   2.792   9.553 -1.2730  1.4269 -1.7349
  659MOL0     H86962   1.550   2.670   9.283  0.4415  0.4926 -1.4084
  659MOL0     H86963   1.481   2.811   9.343 -1.1068  0.7600  2.4014
  659MOL0     H86964   1.389   2.680   9.552 -0.7737 -0.3042  1.0100
  659MOL0     H86965   1.413   2.527   9.463  0.6879  0.1987 -0.2144
  659MOL0     H86966   1.280   2.623   9.281  1.4973 -0.2701 -0.6323
  659MOL0     H86967   1.192   2.576   9.431  0.6622 -1.9862 -0.7553
  659MOL0     H86968   1.263   2.861   9.334 -1.5114  0.9316 -0.3151
  659MOL0     H86969   1.217   2.827   9.504 -1.0989 -1.2335  0.7111
  659MOL0     H86970   2.267   2.873   9.432  0.3288  1.1252 -0.6358
  659MOL0     H86971   2.494   2.863   9.365 -2.0713  0.7553  3.4066
  659MOL0     H86972   2.863   2.784   9.120  0.5164  0.2057  3.1521
  659MOL0     H86973   3.081   2.740   9.043  0.2524  0.0235 -0.2191
  659MOL0     H86974   5.066   2.021   9.344 -0.7230  0.7227  0.6952
  659MOL0     H86975   5.235   1.920   9.185  0.0123 -1.1297 -1.3470
  659MOL0     H86976   5.418   1.709   8.941 -1.6288  0.4867 -1.6880
  659MOL0     H86977   5.632   1.647   8.868  1.5362 -0.5457 -4.3177
  659MOL0     H86978   5.946   1.663   8.691 -0.2827 -3.1993 -0.0730
  659MOL0     H86979   5.829   1.594   8.795 -1.1264 -0.3766 -2.3921
  659MOL0     H86980   5.855   1.742   8.968 -0.2340  0.5603 -0.1737
  659MOL0     H86981   6.013   1.660   8.933 -0.3331  0.1745  2.3797
  659MOL0     H86982   5.927   1.954   8.878  0.6293  0.7954  1.1722
  659MOL0     H86983   6.072   1.880   8.814  2.1111 -2.6044  0.2873
  659MOL0     H86984   6.056   2.028   9.022 -1.3814  0.3390 -0.2693
  659MOL0     H86985   6.005   1.890   9.123 -1.6932  0.1383  0.3608
  659MOL0     H86986   6.382   1.740   9.032  2.5178  1.5876 -2.2255
  659MOL0     H86987   5.674   2.004   8.640 -0.5194  3.4925  1.2708
  659MOL0     H86988   5.464   2.081   8.721  2.0061 -0.6647 -1.4730
  660MOL0     O86989   3.258   4.775   5.327  0.3703  0.1551  0.6397
  660MOL0     C86990   3.242   4.734   5.209 -0.0486 -0.1129  0.5858
  660MOL0     O86991   3.308   4.778   5.100  0.0777  0.2598  0.1294
  660MOL0     C86992   3.361   4.900   5.095 -0.3532  0.1792  0.1390
  660MOL0     C86993   3.285   5.010   5.085 -1.0516 -0.3699 -0.1246
  660MOL0     C86994   3.343   5.133   5.060  0.1588  0.9486 -0.3223
  660MOL0     C86995   3.482   5.151   5.050  0.9177 -0.3719  0.2544
  660MOL0     O86996   3.531   5.277   5.037  0.9569  0.0321  0.0071
  660MOL0     C86997   3.466   5.386   5.106 -0.1494 -0.8879  0.0014
  660MOL0     C86998   3.566   5.502   5.112 -0.4151 -0.3280 -0.0502
  660MOL0     C86999   3.698   5.475   5.187  0.3845  1.4242  0.1298
  660MOL0     C87000   3.793   5.583   5.184 -0.1214  0.2144 -0.4189
  660MOL0     C87001   3.910   5.548   5.284  0.6481  0.4891  0.4155
  660MOL0     C87002   4.012   5.661   5.275 -0.0384 -0.5425  0.2222
  660MOL0     C87003   4.139   5.633   5.374  0.2749 -0.3271 -0.3956
  660MOL0     C87004   4.227   5.759   5.358 -0.1445  0.6086 -0.3188
  660MOL0     N87005   4.346   5.745   5.440  1.1495  0.1809 -0.3677
  660MOL0     C87006   4.470   5.788   5.408 -0.1954  0.3894  0.3421
  660MOL0     C87007   4.533   5.748   5.517 -0.0238 -0.6988  0.2943
  660MOL0     C87008   4.677   5.768   5.532  0.0600 -0.2768  0.4448
  660MOL0     C87009   4.688   5.905   5.608  1.1734 -0.4366 -0.0122
  660MOL0     C87010   4.817   5.904   5.688  0.4420 -0.2882  0.6594
  660MOL0     C87011   4.941   5.887   5.598  0.4011 -0.7399  0.1928
  660MOL0     O87012   4.960   6.008   5.521 -0.9113 -0.3352  0.2078
  660MOL0     C87013   5.083   6.042   5.484 -0.2457 -0.1227  0.5736
  660MOL0     C87014   5.103   6.166   5.429 -0.2650 -0.5277 -0.9542
  660MOL0     C87015   5.225   6.207   5.387  0.6821 -0.4699 -0.3557
  660MOL0     C87016   5.340   6.133   5.408 -0.0153  0.3086 -0.6972
  660MOL0     C87017   5.468   6.176   5.367 -0.4619  0.4248 -0.0985
  660MOL0     O87018   5.573   6.099   5.390 -0.4059 -0.0746 -0.8185
  660MOL0     C87019   5.706   6.125   5.369 -0.6696  0.1721  0.5102
  660MOL0     C87020   5.780   6.024   5.421 -1.6172 -0.0659  0.4156
  660MOL0     C87021   5.920   6.028   5.405 -0.0613 -0.4946  0.8201
  660MOL0     C87022   5.986   6.135   5.354  0.0793  0.8581 -0.3681
  660MOL0     O87023   6.122   6.143   5.343  0.0967 -0.4665  0.3801
  660MOL0     C87024   6.205   6.022   5.359  0.8651 -0.0361 -0.1999
  660MOL0     C87025   6.351   6.063   5.358 -0.8280 -0.3263  0.3424
  660MOL0     C87026   6.446   5.949   5.414  0.6764  0.0823  0.4794
  660MOL0     C87027   6.593   5.996   5.410  0.4340  0.7264  0.7959
  660MOL0     C87028   6.675   5.866   5.438 -0.9764  0.3236 -0.2961
  660MOL0     C87029   6.824   5.891   5.407 -0.9620 -0.1748 -0.0787
  660MOL0     C87030   6.923   5.778   5.446 -0.2313 -0.5896 -0.1833
  660MOL0     C87031   6.887   5.728   5.582  0.2631  0.2183  0.2788
  660MOL0    Cl87032   6.913   5.852   5.699 -0.1050  0.3092 -0.7008
  660MOL0     C87033   5.913   6.241   5.306 -0.3121 -0.1198  0.4835
  660MOL0     C87034   5.770   6.238   5.307 -0.1637  0.5712  0.0319
  660MOL0     O87035   5.471   6.290   5.311 -0.1729  0.5378 -0.0537
  660MOL0     C87036   5.332   6.014   5.474  0.0702  0.2591 -0.4838
  660MOL0     C87037   5.203   5.968   5.504 -0.6420 -0.2970 -0.5491
  660MOL0     N87038   4.454   5.689   5.610 -0.2066  0.2943  0.1430
  660MOL0     N87039   4.333   5.696   5.562 -0.3430  0.8230 -0.4748
  660MOL0     C87040   3.571   5.037   5.045  0.3241 -0.9054  0.3081
  660MOL0     C87041   3.507   4.913   5.069  0.3517  0.2528  0.0725
  660MOL0     C87042   3.157   4.617   5.188  0.3660  0.2757  0.4006
  660MOL0     C87043   3.144   4.556   5.060 -0.0321 -0.1795 -0.2991
  660MOL0     C87044   3.063   4.453   5.033  0.3998  0.4250  0.7828
  660MOL0     C87045   2.984   4.400   5.134  0.4861 -0.2246  0.1244
  660MOL0     O87046   2.885   4.305   5.108 -0.6551 -0.1265  0.4261
  660MOL0     C87047   2.778   4.381   5.059  0.5255  0.8268  0.0121
  660MOL0     C87048   2.652   4.303   5.046  0.3208  0.0817 -0.8513
  660MOL0     C87049   2.571   4.309   5.171  0.8779 -0.6780 -0.0700
  660MOL0     C87050   2.648   4.250   5.283 -0.4077 -0.3660  0.4137
  660MOL0     C87051   2.550   4.227   5.392  0.3236  0.1003  0.0664
  660MOL0     C87052   2.469   4.219   5.486 -0.6667 -0.0602 -0.5341
  660MOL0     C87053   2.998   4.455   5.265  0.5926  0.5750  0.8381
  660MOL0     C87054   3.073   4.566   5.284 -1.1980 -0.1933 -0.0663
  660MOL0     H87055   3.177   4.993   5.089 -1.4098  1.6347 -0.0119
  660MOL0     H87056   3.273   5.209   5.026  0.9996  2.4674  1.2269
  660MOL0     H87057   3.443   5.365   5.210 -0.2884 -0.1662  0.1208
  660MOL0     H87058   3.377   5.422   5.053 -0.2094 -1.9097 -0.6244
  660MOL0     H87059   3.514   5.589   5.153 -0.1321 -0.8234  1.4329
  660MOL0     H87060   3.577   5.535   5.009  1.8756  1.6932  0.7439
  660MOL0     H87061   3.739   5.389   5.132  0.5266  1.6465 -0.1085
  660MOL0     H87062   3.674   5.452   5.292 -0.5340 -2.3011 -0.7194
  660MOL0     H87063   3.840   5.610   5.089  0.0601 -0.0965 -0.4201
  660MOL0     H87064   3.755   5.675   5.228 -0.1169  0.0670 -0.1031
  660MOL0     H87065   3.958   5.450   5.270  1.0344  0.4190  1.9683
  660MOL0     H87066   3.879   5.541   5.389 -0.0838 -1.8623  0.1027
  660MOL0     H87067   3.973   5.760   5.301 -2.2238 -1.0578 -0.9313
  660MOL0     H87068   4.059   5.669   5.177  0.3531  1.7958  0.5479
  660MOL0     H87069   4.104   5.617   5.476  2.2455 -1.8993  0.1042
  660MOL0     H87070   4.186   5.538   5.348  1.2488  0.2302 -0.7115
  660MOL0     H87071   4.180   5.846   5.404  3.0045  1.5553  1.4321
  660MOL0     H87072   4.253   5.787   5.255 -1.3884  0.0208 -0.8101
  660MOL0     H87073   4.506   5.841   5.320  2.9196 -0.3289  1.0692
  660MOL0     H87074   4.724   5.776   5.433  0.2504  0.5588  0.5949
  660MOL0     H87075   4.725   5.683   5.580 -1.0279 -1.6700 -0.8332
  660MOL0     H87076   4.600   5.917   5.672 -0.7520 -2.2448 -2.1208
  660MOL0     H87077   4.678   5.979   5.528 -2.6383 -0.9906 -0.2270
  660MOL0     H87078   4.818   5.998   5.743 -0.5444  1.0583 -1.4809
  660MOL0     H87079   4.808   5.822   5.760 -0.1510 -0.6460  0.1857
  660MOL0     H87080   4.934   5.810   5.521  1.8331  1.0853 -1.8880
  660MOL0     H87081   5.023   5.857   5.665  0.4399 -1.8441 -0.3276
  660MOL0     H87082   5.016   6.231   5.420 -0.7291 -1.1984 -1.3507
  660MOL0     H87083   5.229   6.300   5.331 -1.1349  0.4249  0.8840
  660MOL0     H87084   5.736   5.938   5.471 -0.7458 -0.9706 -0.3385
  660MOL0     H87085   5.973   5.938   5.434  3.0092  1.1971  0.8026
  660MOL0     H87086   6.188   5.934   5.297  2.4672 -0.3114 -0.3098
  660MOL0     H87087   6.175   5.992   5.460 -0.9395  1.1461 -0.3493
  660MOL0     H87088   6.362   6.151   5.422 -2.2230 -0.2140  0.4531
  660MOL0     H87089   6.385   6.090   5.257  1.2970 -0.7399  0.9002
  660MOL0     H87090   6.422   5.855   5.363  1.8808  0.7645 -1.4895
  660MOL0     H87091   6.426   5.929   5.519 -0.1693 -1.9869 -0.0334
  660MOL0     H87092   6.603   6.034   5.307  0.1282 -0.8307  0.1573
  660MOL0     H87093   6.604   6.074   5.486 -0.5387  2.1850 -0.5029
  660MOL0     H87094   6.632   5.788   5.374 -0.4931  0.4993 -0.8340
  660MOL0     H87095   6.652   5.838   5.541  1.2017 -2.7742 -0.5290
  660MOL0     H87096   6.859   5.973   5.471  0.4647 -0.6645 -0.2037
  660MOL0     H87097   6.846   5.921   5.305  2.9826 -2.5744 -0.1677
  660MOL0     H87098   6.921   5.694   5.376  1.0525 -2.5975  2.0437
  660MOL0     H87099   7.028   5.803   5.432  0.5897 -4.7125 -3.3640
  660MOL0     H87100   6.950   5.641   5.604  0.5439 -0.1167 -1.6617
  660MOL0     H87101   6.780   5.711   5.596  0.4907  0.1277  2.0193
  660MOL0     H87102   5.965   6.327   5.263  1.0385 -0.5584  1.1720
  660MOL0     H87103   5.710   6.326   5.283  0.8614  1.3773  0.3478
  660MOL0     H87104   5.417   5.949   5.490 -0.7296 -0.1692  2.7352
  660MOL0     H87105   5.208   5.871   5.552  0.8439 -0.2559 -0.5642
  660MOL0     H87106   3.678   5.046   5.034  0.1670 -1.4964 -2.1677
  660MOL0     H87107   3.577   4.829   5.064  1.2682  0.9961  0.1795
  660MOL0     H87108   3.214   4.589   4.985 -1.3037 -0.0008 -1.4450
  660MOL0     H87109   3.055   4.397   4.940  4.9405 -2.6149  1.8970
  660MOL0     H87110   2.809   4.399   4.955 -2.1469 -1.3247 -1.3188
  660MOL0     H87111   2.753   4.473   5.111  1.3807  2.7149 -2.6928
  660MOL0     H87112   2.595   4.349   4.965  1.6505  1.1354 -1.2230
  660MOL0     H87113   2.667   4.197   5.024  0.7376  0.2555 -1.4353
  660MOL0     H87114   2.481   4.248   5.157  0.6345 -0.8180  1.8983
  660MOL0     H87115   2.540   4.412   5.191 -1.2771 -1.1682 -0.7234
  660MOL0     H87116   2.690   4.153   5.259  0.8171  1.2049 -5.3548
  660MOL0     H87117   2.731   4.315   5.310 -0.7967  0.6157 -0.6488
  660MOL0     H87118   2.413   4.219   5.577 -0.8873  0.8074 -0.6602
  660MOL0     H87119   2.927   4.417   5.337  0.6868 -1.5016 -0.0957
  660MOL0     H87120   3.074   4.602   5.386 -0.8618 -0.1915 -0.0684
  661MOL0     O87121   8.741   6.608   2.940  0.1364  0.1648 -0.0845
  661MOL0     C87122   8.816   6.695   2.954  0.0743 -0.0580  0.5242
  661MOL0     O87123   8.774   6.813   3.012 -0.1499  0.2409 -0.2761
  661MOL0     C87124   8.651   6.826   3.074  0.8028  1.5808 -0.8444
  661MOL0     C87125   8.650   6.909   3.198  0.0879  0.4055 -0.0233
  661MOL0     C87126   8.531   6.921   3.274  0.6298  1.3815  0.0115
  661MOL0     C87127   8.411   6.862   3.230 -0.6587 -0.6229 -1.4250
  661MOL0     O87128   8.305   6.886   3.314  0.2075  0.1655 -0.8868
  661MOL0     C87129   8.185   6.803   3.310  0.2727  0.6147 -0.1419
  661MOL0     C87130   8.063   6.869   3.376 -0.4107  0.8591 -0.4120
  661MOL0     C87131   7.941   6.775   3.376 -0.2259 -0.1097 -0.1095
  661MOL0     C87132   7.877   6.760   3.235 -0.2359 -0.2854 -0.0596
  661MOL0     C87133   7.766   6.661   3.243 -0.3892 -0.0263  0.0376
  661MOL0     C87134   7.673   6.654   3.123  0.3367 -0.3396  0.1209
  661MOL0     C87135   7.583   6.534   3.128 -0.5764 -0.0416  1.1654
  661MOL0     C87136   7.481   6.521   3.021  0.1003  0.3700  0.3947
  661MOL0     N87137   7.381   6.413   3.027  0.1524  0.1331 -0.1987
  661MOL0     C87138   7.291   6.400   2.926 -0.3634  0.0240  0.8527
  661MOL0     C87139   7.205   6.306   2.955 -0.5368  0.0306  0.1045
  661MOL0     C87140   7.099   6.261   2.860  0.4644 -0.2738 -0.6232
  661MOL0     C87141   6.981   6.365   2.839 -0.3021 -0.5018 -0.7505
  661MOL0     C87142   6.848   6.295   2.822  0.0683 -0.1086 -0.2673
  661MOL0     C87143   6.782   6.286   2.962 -1.2193 -0.1760 -0.1902
  661MOL0     O87144   6.669   6.202   2.936 -1.1382 -0.6852 -0.5051
  661MOL0     C87145   6.551   6.226   2.999  0.2009 -0.8242  0.7668
  661MOL0     C87146   6.550   6.265   3.138  0.2960  0.2861  0.2474
  661MOL0     C87147   6.429   6.268   3.198  0.0755 -0.8265  1.2150
  661MOL0     C87148   6.303   6.252   3.129  0.0322 -0.1826 -0.1260
  661MOL0     C87149   6.172   6.258   3.205 -0.4867 -0.2920 -0.1188
  661MOL0     O87150   6.064   6.227   3.136  0.3486  0.4216  0.8827
  661MOL0     C87151   5.943   6.238   3.185  0.8795  0.0540 -0.4486
  661MOL0     C87152   5.883   6.348   3.263 -0.0904  0.2966  1.0572
  661MOL0     C87153   5.746   6.347   3.289  0.4830  0.2721 -0.2284
  661MOL0     C87154   5.668   6.240   3.260  0.4606 -0.2116 -0.2298
  661MOL0     O87155   5.538   6.219   3.292  1.1554  0.7710  0.6661
  661MOL0     C87156   5.451   6.300   3.208 -0.0325 -0.1217  0.6624
  661MOL0     C87157   5.312   6.253   3.216  0.0306  0.9160  0.1319
  661MOL0     C87158   5.279   6.109   3.165  0.0517  0.0655  0.4331
  661MOL0     C87159   5.327   6.075   3.021  1.4755  0.0519  0.6293
  661MOL0     C87160   5.286   5.937   2.967  0.1361  0.4264  0.9995
  661MOL0     C87161   5.315   5.912   2.825 -0.4893 -0.1157  1.1363
  661MOL0     C87162   5.468   5.919   2.785 -0.2573 -1.0726  0.3945
  661MOL0     C87163   5.496   5.838   2.669  0.2515 -0.0683  0.3294
  661MOL0    Cl87164   5.455   5.665   2.694  0.2956  0.1001  0.0121
  661MOL0     C87165   5.724   6.142   3.192 -0.3646  0.4368  0.7002
  661MOL0     C87166   5.852   6.142   3.148  0.8394  0.1818  0.3466
  661MOL0     O87167   6.171   6.307   3.317  0.0649  0.4175 -0.4856
  661MOL0     C87168   6.310   6.214   2.993  1.3224 -0.1017 -1.0618
  661MOL0     C87169   6.431   6.191   2.932 -0.6392 -1.2311  0.5323
  661MOL0     N87170   7.222   6.271   3.088  0.6860 -0.0782  0.1917
  661MOL0     N87171   7.332   6.327   3.126 -0.0628  0.1448 -0.4354
  661MOL0     C87172   8.405   6.787   3.115 -0.7008 -0.0886 -0.1444
  661MOL0     C87173   8.527   6.766   3.036  0.3884 -0.0577 -0.4226
  661MOL0     C87174   8.954   6.663   2.897  0.0965 -0.6797 -0.3054
  661MOL0     C87175   9.041   6.765   2.891 -1.0472  0.9896  1.1440
  661MOL0     C87176   9.158   6.751   2.825  0.0025 -0.0348 -0.3562
  661MOL0     C87177   9.186   6.632   2.752  0.3820 -1.0832  1.1659
  661MOL0     O87178   9.301   6.635   2.688  0.2076  0.6084  0.2108
  661MOL0     C87179   9.366   6.513   2.650 -0.1755 -0.2515 -0.2746
  661MOL0     C87180   9.371   6.406   2.759  0.0158  0.6557 -0.4877
  661MOL0     C87181   9.471   6.299   2.714  0.5934 -0.6461  0.3060
  661MOL0     C87182   9.469   6.177   2.799 -0.0025  0.3354  0.2918
  661MOL0     C87183   9.488   6.204   2.943  0.4894  0.1802  0.1578
  661MOL0     C87184   9.489   6.226   3.058 -0.2698 -0.2034 -0.9286
  661MOL0     C87185   9.093   6.530   2.760 -0.0497  0.0375  0.7846
  661MOL0     C87186   8.968   6.546   2.824 -0.1534 -0.1551 -0.1007
  661MOL0     H87187   8.746   6.952   3.226  1.0499 -0.2561 -2.0881
  661MOL0     H87188   8.542   6.972   3.369  0.3769  0.9679  0.2641
  661MOL0     H87189   8.207   6.713   3.367 -2.2544 -0.9601 -1.4439
  661MOL0     H87190   8.167   6.757   3.212  3.8242  0.8462 -1.0568
  661MOL0     H87191   8.028   6.960   3.326 -2.8381  1.4536  2.1052
  661MOL0     H87192   8.091   6.893   3.479  3.2877 -1.4912 -0.7069
  661MOL0     H87193   7.871   6.813   3.450 -0.0567  2.1113 -1.0185
  661MOL0     H87194   7.971   6.672   3.396 -1.0677 -0.2441  0.5105
  661MOL0     H87195   7.839   6.858   3.203 -2.5796 -0.4513  1.8678
  661MOL0     H87196   7.956   6.732   3.166 -0.9037  1.5926 -1.6916
  661MOL0     H87197   7.708   6.676   3.334  2.9808 -0.3265  2.3924
  661MOL0     H87198   7.821   6.567   3.252 -0.4971 -0.1365 -0.3955
  661MOL0     H87199   7.727   6.648   3.028 -2.2232  1.3803 -1.5776
  661MOL0     H87200   7.613   6.745   3.124 -2.0578 -1.8488 -0.0152
  661MOL0     H87201   7.638   6.440   3.118  1.6154  1.2382  0.7883
  661MOL0     H87202   7.516   6.542   3.214  0.3157  3.3546  1.6914
  661MOL0     H87203   7.529   6.512   2.923  0.1578 -0.3621  0.4849
  661MOL0     H87204   7.432   6.619   3.021 -2.3182 -0.7131 -1.7336
  661MOL0     H87205   7.297   6.452   2.831 -0.9315 -0.1195  0.7361
  661MOL0     H87206   7.059   6.167   2.896  4.1888 -2.3757 -1.4708
  661MOL0     H87207   7.146   6.240   2.763 -2.0520 -3.2139 -1.3301
  661MOL0     H87208   6.989   6.423   2.747 -4.9233  0.8385 -0.5714
  661MOL0     H87209   6.971   6.443   2.916 -0.2871  0.8562 -2.0722
  661MOL0     H87210   6.791   6.361   2.756 -0.7162 -1.2495 -0.7685
  661MOL0     H87211   6.848   6.195   2.779  3.0406  0.4160 -1.7552
  661MOL0     H87212   6.749   6.384   2.998  0.3034  0.4487 -0.3839
  661MOL0     H87213   6.849   6.245   3.039  1.0032  4.0870  0.4617
  661MOL0     H87214   6.641   6.288   3.192 -0.3451  3.3596  0.1839
  661MOL0     H87215   6.416   6.295   3.302 -0.5268  0.7071  0.7668
  661MOL0     H87216   5.950   6.429   3.292  0.4631  0.7350 -1.2480
  661MOL0     H87217   5.711   6.436   3.340  0.1638  1.1117 -1.8205
  661MOL0     H87218   5.484   6.294   3.104  2.0842  1.5052  1.1745
  661MOL0     H87219   5.464   6.405   3.236  0.1644 -0.1916  0.8399
  661MOL0     H87220   5.248   6.324   3.164 -0.8431  0.6815  0.8655
  661MOL0     H87221   5.276   6.255   3.319 -0.9298 -0.8129 -0.1264
  661MOL0     H87222   5.171   6.107   3.178  0.0068 -1.7138 -0.0285
  661MOL0     H87223   5.314   6.028   3.230 -0.2426 -1.6420 -1.4270
  661MOL0     H87224   5.276   6.144   2.953 -0.7685 -2.5752 -0.5051
  661MOL0     H87225   5.436   6.080   3.009  1.4507 -1.1131 -0.2247
  661MOL0     H87226   5.179   5.934   2.991  0.4444 -1.0346  2.3449
  661MOL0     H87227   5.326   5.857   3.030 -3.0847 -2.7264 -0.6334
  661MOL0     H87228   5.262   5.994   2.777 -0.3920 -0.6786  0.0478
  661MOL0     H87229   5.275   5.812   2.805  0.1808 -0.7043  2.5938
  661MOL0     H87230   5.498   6.024   2.777  0.2776 -1.1765  0.9151
  661MOL0     H87231   5.524   5.884   2.872 -0.0825  0.2696  0.8336
  661MOL0     H87232   5.601   5.846   2.640  0.0048  4.5623  0.0261
  661MOL0     H87233   5.438   5.877   2.585  0.0276  2.6749  1.6750
  661MOL0     H87234   5.663   6.058   3.161 -0.8901  0.6731  1.0911
  661MOL0     H87235   5.890   6.060   3.088  0.4551  0.7934 -0.7593
  661MOL0     H87236   6.215   6.188   2.946  1.4830 -0.3887 -1.2276
  661MOL0     H87237   6.449   6.150   2.833  2.8306  0.6523  0.2272
  661MOL0     H87238   8.317   6.740   3.074 -1.0403  0.5728 -0.1833
  661MOL0     H87239   8.515   6.707   2.946  0.7935  1.8984 -1.8281
  661MOL0     H87240   9.031   6.858   2.946  0.9549  0.3222  2.7545
  661MOL0     H87241   9.227   6.834   2.812  0.0243  0.0512  0.2613
  661MOL0     H87242   9.463   6.543   2.610 -0.8878  3.5321  0.4773
  661MOL0     H87243   9.301   6.469   2.574 -2.0597  1.3603  0.3185
  661MOL0     H87244   9.399   6.455   2.852 -2.4756  0.8761  0.2316
  661MOL0     H87245   9.274   6.356   2.764 -0.5973  1.8579 -0.0614
  661MOL0     H87246   9.573   6.338   2.720  1.5062 -2.8859  0.5492
  661MOL0     H87247   9.468   6.274   2.607  2.6631  2.5946 -0.6618
  661MOL0     H87248   9.376   6.120   2.789  0.0063  0.1312  1.2701
  661MOL0     H87249   9.548   6.110   2.763 -0.6570 -0.9303  1.1547
  661MOL0     H87250   9.501   6.259   3.159 -1.0709 -1.2016 -0.4834
  661MOL0     H87251   9.103   6.429   2.721  3.2607  0.4001  0.4635
  661MOL0     H87252   8.900   6.462   2.818  0.1675 -0.4207 -0.0904
  662MOL0     O87253   8.204   5.214   6.850  0.3473  0.5453 -0.5130
  662MOL0     C87254   8.232   5.133   6.761 -0.7568  0.8575 -0.5552
  662MOL0     O87255   8.180   5.003   6.742 -0.4901 -0.1414  0.0239
  662MOL0     C87256   8.094   4.962   6.844  0.0557 -0.2681  0.2704
  662MOL0     C87257   7.976   4.905   6.790  0.4397 -0.0032  0.7846
  662MOL0     C87258   7.888   4.847   6.882  0.4718 -0.2515  0.0776
  662MOL0     C87259   7.902   4.877   7.018 -0.1015  0.3415  0.4556
  662MOL0     O87260   7.808   4.837   7.107 -0.3436  0.7701  0.1700
  662MOL0     C87261   7.681   4.898   7.103  1.0140 -0.4738  0.7304
  662MOL0     C87262   7.605   4.809   7.199  0.2896 -0.4385  1.3778
  662MOL0     C87263   7.456   4.821   7.187 -0.3428 -0.8604 -0.4965
  662MOL0     C87264   7.397   4.962   7.196  0.1696 -0.5775  0.8516
  662MOL0     C87265   7.270   4.962   7.278 -0.6956  0.4647 -0.1349
  662MOL0     C87266   7.205   5.100   7.308 -0.1537 -0.4801  0.5029
  662MOL0     C87267   7.066   5.079   7.337  0.0496  0.7616 -0.3575
  662MOL0     C87268   7.037   5.023   7.473  0.4116 -0.2267 -0.0027
  662MOL0     N87269   7.086   5.112   7.575 -0.2348 -0.1742 -0.3163
  662MOL0     C87270   7.030   5.232   7.601 -0.9065  0.1526  1.1735
  662MOL0     C87271   7.083   5.274   7.716 -0.9400 -1.4998  0.0823
  662MOL0     C87272   7.046   5.403   7.782  0.3112 -0.2517 -0.9392
  662MOL0     C87273   6.895   5.385   7.821 -0.4740 -0.2247 -0.3922
  662MOL0     C87274   6.855   5.525   7.871 -0.4699 -0.0826 -0.2616
  662MOL0     C87275   6.706   5.543   7.912  0.1908  0.3022 -0.3073
  662MOL0     O87276   6.621   5.532   7.802  0.1013 -0.9318 -0.2154
  662MOL0     C87277   6.487   5.516   7.827  0.4492  0.5868 -0.3513
  662MOL0     C87278   6.409   5.445   7.731  0.0031 -0.1957 -0.1996
  662MOL0     C87279   6.271   5.421   7.753  0.1282 -0.4295  1.1709
  662MOL0     C87280   6.210   5.474   7.861  0.3608 -0.4486  0.0295
  662MOL0     C87281   6.065   5.447   7.881 -0.0280  0.1080 -0.5464
  662MOL0     O87282   6.005   5.550   7.944 -0.3921  0.1734  0.6556
  662MOL0     C87283   5.867   5.549   7.946 -0.2483 -0.0866  0.1090
  662MOL0     C87284   5.804   5.545   8.068  0.3314 -0.0904  0.6854
  662MOL0     C87285   5.657   5.556   8.078  0.1921  0.6234 -0.0006
  662MOL0     C87286   5.580   5.568   7.966 -0.6393 -0.5400  0.2125
  662MOL0     O87287   5.444   5.567   7.988 -1.1309 -0.0350  0.2593
  662MOL0     C87288   5.348   5.601   7.877 -0.4537 -0.0085  0.3308
  662MOL0     C87289   5.198   5.582   7.913  0.4347 -0.6999 -0.1617
  662MOL0     C87290   5.094   5.624   7.810  0.0137  0.2836 -1.0905
  662MOL0     C87291   4.961   5.616   7.866  0.0122  0.2267 -0.5659
  662MOL0     C87292   4.895   5.471   7.876 -0.3938  0.5462  0.7034
  662MOL0     C87293   4.747   5.503   7.922 -0.0424 -0.1023  0.7405
  662MOL0     C87294   4.669   5.372   7.922  0.2315 -0.6117  0.5206
  662MOL0     C87295   4.541   5.374   8.008 -0.1099  0.5849  0.0980
  662MOL0    Cl87296   4.408   5.467   7.928 -0.2039  0.1506  0.1721
  662MOL0     C87297   5.648   5.577   7.845  0.2385  0.2215 -0.1180
  662MOL0     C87298   5.790   5.573   7.832  0.5479 -0.1459  0.2352
  662MOL0     O87299   6.005   5.358   7.818 -0.2746 -0.0166 -0.4102
  662MOL0     C87300   6.284   5.546   7.962  0.5345  0.1654 -0.1359
  662MOL0     C87301   6.422   5.568   7.939  0.1485 -0.3395  0.4390
  662MOL0     N87302   7.171   5.176   7.762  0.4383 -0.2115  0.2578
  662MOL0     N87303   7.175   5.078   7.672 -0.2026 -1.2663  0.3619
  662MOL0     C87304   8.016   4.938   7.070 -0.2059  0.6530  0.4102
  662MOL0     C87305   8.119   4.973   6.982 -0.2021 -0.4539  0.5663
  662MOL0     C87306   8.333   5.189   6.670  0.4656  0.3593  0.2132
  662MOL0     C87307   8.394   5.317   6.688  0.0751  0.0397  0.6400
  662MOL0     C87308   8.482   5.362   6.596 -0.7506 -0.0004  0.2539
  662MOL0     C87309   8.527   5.291   6.480  0.4253  0.5698 -0.2594
  662MOL0     O87310   8.612   5.344   6.386  0.0095  0.0768 -0.5913
  662MOL0     C87311   8.684   5.259   6.293 -0.0078  0.2943 -0.1682
  662MOL0     C87312   8.773   5.339   6.201  0.5379 -0.3879 -0.6877
  662MOL0     C87313   8.704   5.382   6.072 -0.1281 -0.7740  0.0710
  662MOL0     C87314   8.615   5.511   6.093  0.1934  0.1143  0.3367
  662MOL0     C87315   8.521   5.546   5.987 -0.6721 -0.0160  0.1084
  662MOL0     C87316   8.445   5.549   5.890 -0.4419 -0.5179  0.3615
  662MOL0     C87317   8.469   5.158   6.468  0.2805  0.2687  1.5178
  662MOL0     C87318   8.363   5.110   6.553 -0.1928  0.5111 -0.3595
  662MOL0     H87319   7.953   4.879   6.687 -0.2213  1.2548  0.5948
  662MOL0     H87320   7.795   4.805   6.845 -1.9662  4.1267  0.4595
  662MOL0     H87321   7.637   4.905   7.003  3.7226 -1.5189 -0.6330
  662MOL0     H87322   7.688   4.997   7.150  0.6344 -0.1519  0.1349
  662MOL0     H87323   7.640   4.848   7.295  1.0112 -0.0682  0.9707
  662MOL0     H87324   7.636   4.705   7.182  1.7502 -0.0498  1.5078
  662MOL0     H87325   7.413   4.759   7.266  1.9039 -0.9014  0.7834
  662MOL0     H87326   7.426   4.772   7.094  1.8788 -2.3002 -0.5265
  662MOL0     H87327   7.484   5.014   7.235  1.0684 -0.8543 -0.7123
  662MOL0     H87328   7.371   4.997   7.096 -1.6435  0.6024  1.6722
  662MOL0     H87329   7.288   4.914   7.374 -1.3415  1.0496  0.2906
  662MOL0     H87330   7.196   4.901   7.226 -0.6834 -0.1077  0.5134
  662MOL0     H87331   7.210   5.170   7.224 -0.5074 -1.5994 -0.4701
  662MOL0     H87332   7.262   5.144   7.390 -0.0075  0.2821  0.0067
  662MOL0     H87333   7.024   5.180   7.326  2.3480  1.5407 -3.3463
  662MOL0     H87334   7.015   5.020   7.261 -0.0699 -0.4806  0.6496
  662MOL0     H87335   7.090   4.929   7.492 -2.5600 -1.7863  1.3085
  662MOL0     H87336   6.931   4.999   7.490  0.8065 -0.2502  2.9838
  662MOL0     H87337   6.960   5.289   7.540  0.5303  1.4281  0.6532
  662MOL0     H87338   7.056   5.474   7.700 -1.6842 -0.1768 -1.1482
  662MOL0     H87339   7.118   5.419   7.863 -1.1153 -1.0567  0.5555
  662MOL0     H87340   6.886   5.322   7.910 -0.4378  0.7842  0.3420
  662MOL0     H87341   6.833   5.355   7.735 -2.8437  2.3822  0.2624
  662MOL0     H87342   6.916   5.548   7.958  0.1902  0.1297 -0.7713
  662MOL0     H87343   6.881   5.592   7.788  0.5569 -0.2213 -0.0671
  662MOL0     H87344   6.698   5.646   7.947 -0.9806  0.9163 -2.2390
  662MOL0     H87345   6.683   5.474   7.994 -1.1137 -1.9872 -2.4680
  662MOL0     H87346   6.463   5.407   7.644 -1.6487  1.8486 -2.2191
  662MOL0     H87347   6.214   5.382   7.669 -1.9502  1.6811  1.5223
  662MOL0     H87348   5.864   5.521   8.155  2.2147 -0.3891 -0.6374
  662MOL0     H87349   5.607   5.553   8.175 -2.0808  2.1290 -1.0263
  662MOL0     H87350   5.375   5.545   7.787 -1.6418  1.3361 -0.9091
  662MOL0     H87351   5.353   5.709   7.861  1.2833  0.0024  0.6792
  662MOL0     H87352   5.174   5.630   8.009  0.2405  0.4091 -0.7510
  662MOL0     H87353   5.187   5.475   7.929  1.6973 -0.6483  1.3120
  662MOL0     H87354   5.117   5.561   7.723  6.2576 -0.0895  0.3292
  662MOL0     H87355   5.112   5.728   7.780  0.3738  1.2428  2.1112
  662MOL0     H87356   4.964   5.671   7.960  1.8566 -1.6970  0.5696
  662MOL0     H87357   4.890   5.667   7.800 -0.6740  1.2156  0.8859
  662MOL0     H87358   4.949   5.407   7.947  1.5264  1.0239 -0.2520
  662MOL0     H87359   4.893   5.415   7.783 -0.6183 -0.8234  1.4985
  662MOL0     H87360   4.706   5.569   7.845  0.1964 -1.3286 -0.4811
  662MOL0     H87361   4.729   5.549   8.019 -0.1678 -0.5977  0.9563
  662MOL0     H87362   4.644   5.338   7.821  0.3718 -4.1563  1.5734
  662MOL0     H87363   4.733   5.300   7.973 -0.1276 -1.7586 -0.6135
  662MOL0     H87364   4.545   5.423   8.106 -4.1169  1.1980  0.1061
  662MOL0     H87365   4.507   5.273   8.035 -2.2245  0.2585 -3.2359
  662MOL0     H87366   5.594   5.576   7.751 -0.7393 -2.3319  0.3943
  662MOL0     H87367   5.840   5.586   7.737  0.9230  0.7682  0.5443
  662MOL0     H87368   6.229   5.588   8.046  0.0870  1.2505 -0.9507
  662MOL0     H87369   6.488   5.633   7.995 -1.2106  1.8580 -0.3381
  662MOL0     H87370   8.016   4.951   7.178 -1.0586  1.1559  0.3610
  662MOL0     H87371   8.203   5.033   7.013 -1.9849  1.8012  1.3666
  662MOL0     H87372   8.374   5.384   6.771 -3.1800  1.4823 -1.1315
  662MOL0     H87373   8.527   5.460   6.603  1.6298 -1.0321  0.2164
  662MOL0     H87374   8.613   5.203   6.232  3.2982 -3.0820 -1.2340
  662MOL0     H87375   8.741   5.183   6.346 -0.7815 -0.6261 -0.6150
  662MOL0     H87376   8.810   5.428   6.253 -0.3227 -0.2768 -0.2491
  662MOL0     H87377   8.857   5.275   6.170  2.3609  2.6893 -2.5405
  662MOL0     H87378   8.650   5.294   6.036 -2.3814  0.6858 -0.3397
  662MOL0     H87379   8.777   5.406   5.995 -1.2338 -0.4727 -0.9142
  662MOL0     H87380   8.553   5.499   6.182  2.1237  3.6004  2.3642
  662MOL0     H87381   8.678   5.599   6.114 -1.4520  1.9148 -1.7691
  662MOL0     H87382   8.371   5.544   5.812 -0.0511 -2.6476  0.0769
  662MOL0     H87383   8.505   5.089   6.393  2.2917 -1.4850  3.9551
  662MOL0     H87384   8.306   5.021   6.528  1.3860 -0.3752 -1.0028
  663MOL0     O87385   0.129   6.802   2.467  0.0746  0.6434 -0.0357
  663MOL0     C87386   0.225   6.739   2.412 -0.6141  0.0864 -0.1570
  663MOL0     O87387   0.209   6.669   2.296 -0.2719 -0.1673 -0.4966
  663MOL0     C87388   0.084   6.644   2.252  0.2265  0.0166  0.2492
  663MOL0     C87389   0.002   6.737   2.198  0.4248 -0.7039 -0.2457
  663MOL0     C87390  -0.122   6.705   2.147 -0.2508  0.0899 -0.2753
  663MOL0     C87391  -0.175   6.581   2.170 -0.0193 -0.0591  0.2005
  663MOL0     O87392  -0.308   6.555   2.136  0.6574  0.1515 -0.8190
  663MOL0     C87393  -0.373   6.441   2.194 -0.5468  0.0521 -0.8306
  663MOL0     C87394  -0.526   6.438   2.161 -0.8306 -0.0338  0.2910
  663MOL0     C87395  -0.602   6.326   2.228  0.4016  0.9419  0.1715
  663MOL0     C87396  -0.712   6.281   2.129  0.4231  0.3435 -0.2300
  663MOL0     C87397  -0.810   6.199   2.210  0.0619 -0.0378  0.1287
  663MOL0     C87398  -0.937   6.164   2.131 -0.7177 -0.3976 -0.6593
  663MOL0     C87399  -1.049   6.080   2.202 -0.9830  0.2831  0.1071
  663MOL0     C87400  -1.140   6.037   2.086  0.2093 -0.1993 -0.4524
  663MOL0     N87401  -1.238   5.942   2.140 -0.0928  0.2234 -0.0804
  663MOL0     C87402  -1.208   5.819   2.188  0.0522  0.0591  0.2852
  663MOL0     C87403  -1.326   5.780   2.249  0.0612  0.1175  0.0781
  663MOL0     C87404  -1.350   5.637   2.296 -0.4784 -0.6061 -0.3746
  663MOL0     C87405  -1.387   5.538   2.184 -0.3031 -0.1930 -0.2731
  663MOL0     C87406  -1.428   5.404   2.249  0.4684  0.4025 -0.1878
  663MOL0     C87407  -1.531   5.339   2.161 -0.0565 -0.6025 -0.2715
  663MOL0     O87408  -1.534   5.200   2.205 -0.2245  0.1391 -0.1424
  663MOL0     C87409  -1.587   5.120   2.112 -0.0422 -0.1367  0.1749
  663MOL0     C87410  -1.537   4.987   2.107  0.4241 -1.1058  0.3016
  663MOL0     C87411  -1.605   4.895   2.030 -0.0848 -0.4697 -0.8187
  663MOL0     C87412  -1.714   4.929   1.950  0.1610  0.8039  1.5370
  663MOL0     C87413  -1.785   4.823   1.872  0.4659 -0.3520 -0.0195
  663MOL0     O87414  -1.890   4.862   1.789 -0.9017 -0.1871  0.6122
  663MOL0     C87415  -1.941   4.778   1.694 -0.2143 -0.2634  0.2789
  663MOL0     C87416  -2.083   4.772   1.686 -1.3034 -0.8048  0.2054
  663MOL0     C87417  -2.141   4.709   1.575 -0.1177 -0.5143  0.0914
  663MOL0     C87418  -2.054   4.647   1.481  0.3908  0.8189  0.4131
  663MOL0     O87419  -2.103   4.587   1.375 -1.4480 -0.2698  0.6627
  663MOL0     C87420  -2.222   4.642   1.310 -0.3289  0.2477 -0.9301
  663MOL0     C87421  -2.259   4.555   1.199 -0.3126 -0.6871 -0.3893
  663MOL0     C87422  -2.369   4.607   1.109  0.7157 -0.1663 -0.2026
  663MOL0     C87423  -2.327   4.720   1.015 -0.0817 -0.2793  0.0834
  663MOL0     C87424  -2.431   4.741   0.909  0.0371  0.2660  0.2743
  663MOL0     C87425  -2.375   4.844   0.815 -0.3498  0.4734 -0.2662
  663MOL0     C87426  -2.472   4.886   0.701  0.1964  0.1444  0.3345
  663MOL0     C87427  -2.390   4.963   0.598 -0.4743 -0.5409  0.1238
  663MOL0    Cl87428  -2.510   5.033   0.495 -0.3445 -0.0238  0.3476
  663MOL0     C87429  -1.922   4.626   1.505  0.4209 -0.0447 -0.5913
  663MOL0     C87430  -1.862   4.706   1.599  0.8013  0.4200  0.2499
  663MOL0     O87431  -1.776   4.712   1.924 -0.0805  0.0476 -0.3413
  663MOL0     C87432  -1.764   5.059   1.958 -0.8784  0.6368  0.0316
  663MOL0     C87433  -1.705   5.155   2.042 -1.0329  0.2235  0.6129
  663MOL0     N87434  -1.415   5.893   2.240 -0.3089  0.2500  0.3022
  663MOL0     N87435  -1.365   5.982   2.162 -0.4235 -0.3258 -0.6666
  663MOL0     C87436  -0.098   6.486   2.238  0.0327 -0.7429 -0.3182
  663MOL0     C87437   0.033   6.516   2.279 -0.3473  0.8116 -0.4670
  663MOL0     C87438   0.354   6.740   2.485 -0.6988  0.3182 -0.2533
  663MOL0     C87439   0.468   6.669   2.451  0.0942 -0.5406  0.1249
  663MOL0     C87440   0.587   6.673   2.516 -0.8296 -0.2984 -0.3546
  663MOL0     C87441   0.610   6.769   2.618  0.7246 -1.1202  0.1796
  663MOL0     O87442   0.730   6.792   2.679 -0.6784 -0.6994 -0.6568
  663MOL0     C87443   0.843   6.720   2.644 -0.0937 -0.3025  1.4423
  663MOL0     C87444   0.924   6.790   2.526  0.1988  0.5901 -0.2937
  663MOL0     C87445   0.941   6.940   2.544  0.2637 -0.0417  0.8462
  663MOL0     C87446   1.049   6.969   2.647 -0.3172  0.0238  0.3365
  663MOL0     C87447   1.191   6.968   2.611 -1.0019  0.2681 -0.4780
  663MOL0     C87448   1.310   6.982   2.585  0.5743 -0.5662  0.5470
  663MOL0     C87449   0.496   6.845   2.658 -0.3340  0.5185  0.0161
  663MOL0     C87450   0.374   6.819   2.595 -0.2952  0.4420 -0.1579
  663MOL0     H87451   0.051   6.830   2.172  2.2918 -0.5054  3.3008
  663MOL0     H87452  -0.182   6.776   2.090  1.9501  1.6204 -0.8249
  663MOL0     H87453  -0.358   6.455   2.302  3.9639  0.5317 -1.3160
  663MOL0     H87454  -0.320   6.350   2.162  0.5799  1.1420 -2.1720
  663MOL0     H87455  -0.532   6.431   2.052  1.4285  0.6920  0.0636
  663MOL0     H87456  -0.572   6.535   2.184  1.6813  0.6853  2.9579
  663MOL0     H87457  -0.640   6.359   2.325  1.1920 -0.7562  1.1207
  663MOL0     H87458  -0.533   6.243   2.248 -1.2134 -0.4405  0.2116
  663MOL0     H87459  -0.761   6.368   2.084 -1.0670 -0.5680 -0.4575
  663MOL0     H87460  -0.676   6.221   2.045 -0.2725  0.9342 -0.9625
  663MOL0     H87461  -0.836   6.260   2.297  1.0823 -0.4785  0.7599
  663MOL0     H87462  -0.759   6.110   2.249  1.2820 -0.7433 -2.7655
  663MOL0     H87463  -0.907   6.123   2.035 -1.5465  0.0253 -1.1076
  663MOL0     H87464  -0.975   6.263   2.101  0.4498  1.0122  2.1595
  663MOL0     H87465  -1.004   5.990   2.245  0.5030  0.9181 -0.0746
  663MOL0     H87466  -1.106   6.130   2.282 -1.5978 -3.1647  2.0449
  663MOL0     H87467  -1.088   5.987   2.003 -0.9115  1.8109 -2.4642
  663MOL0     H87468  -1.185   6.131   2.056 -3.9008 -0.8877  2.7238
  663MOL0     H87469  -1.116   5.763   2.173 -0.9742 -2.2596  1.9948
  663MOL0     H87470  -1.431   5.636   2.370 -3.1299 -1.2555 -3.0905
  663MOL0     H87471  -1.261   5.597   2.345  1.2383 -1.4650 -3.8988
  663MOL0     H87472  -1.312   5.523   2.106 -0.6254  0.7646 -0.7785
  663MOL0     H87473  -1.472   5.587   2.135 -1.8444 -0.6933  1.7564
  663MOL0     H87474  -1.345   5.333   2.252 -0.7052 -1.1085 -1.8878
  663MOL0     H87475  -1.463   5.422   2.351 -1.7993 -1.3091 -0.6016
  663MOL0     H87476  -1.496   5.348   2.058  3.4500 -3.2772  0.5023
  663MOL0     H87477  -1.630   5.383   2.174  0.3017 -0.1516  1.1505
  663MOL0     H87478  -1.442   4.977   2.158  1.4130  2.6151 -0.5567
  663MOL0     H87479  -1.573   4.791   2.031  1.1448 -0.1121  1.0467
  663MOL0     H87480  -2.136   4.829   1.762  1.7808 -2.9035  4.3845
  663MOL0     H87481  -2.249   4.710   1.575 -0.1357 -1.2255  1.2306
  663MOL0     H87482  -2.209   4.739   1.262 -1.4380 -0.4462 -2.7470
  663MOL0     H87483  -2.305   4.643   1.380  0.2651 -0.2477 -0.1946
  663MOL0     H87484  -2.282   4.457   1.243  1.3960  0.0124  2.3422
  663MOL0     H87485  -2.177   4.538   1.130 -1.5442 -1.5593 -1.7004
  663MOL0     H87486  -2.452   4.642   1.171 -1.5219 -3.3915 -1.1053
  663MOL0     H87487  -2.401   4.525   1.044 -2.0697  0.7275 -0.0809
  663MOL0     H87488  -2.332   4.808   1.079 -2.9052 -0.7033  0.6088
  663MOL0     H87489  -2.225   4.706   0.978 -0.7074 -1.0716 -1.4263
  663MOL0     H87490  -2.524   4.779   0.953 -1.9237 -3.9812  0.2460
  663MOL0     H87491  -2.449   4.647   0.857  1.2004 -0.2638  0.8033
  663MOL0     H87492  -2.286   4.807   0.763 -1.9513 -2.5578 -1.0705
  663MOL0     H87493  -2.351   4.936   0.869  1.0298  0.2179 -0.4226
  663MOL0     H87494  -2.515   4.790   0.672 -0.0515  0.8063 -1.6383
  663MOL0     H87495  -2.558   4.945   0.734  1.6059  1.8138  1.1816
  663MOL0     H87496  -2.310   4.903   0.555  2.2587  2.9526 -0.1005
  663MOL0     H87497  -2.341   5.054   0.635 -0.6884 -0.8306  1.1551
  663MOL0     H87498  -1.866   4.566   1.434  1.5741  4.9765 -4.5245
  663MOL0     H87499  -1.755   4.712   1.619  0.8179  1.3731 -0.0773
  663MOL0     H87500  -1.863   5.082   1.920 -1.8876 -0.8447  1.6555
  663MOL0     H87501  -1.755   5.251   2.054  1.2728  1.4238  1.2322
  663MOL0     H87502  -0.134   6.385   2.257  0.6966 -0.8140  0.6300
  663MOL0     H87503   0.106   6.447   2.320  0.2438  2.2703  1.0241
  663MOL0     H87504   0.462   6.606   2.363 -1.9411  1.6669 -1.4320
  663MOL0     H87505   0.678   6.621   2.486  0.1679  1.8430 -1.2488
  663MOL0     H87506   0.824   6.612   2.639  1.4058 -0.7036  3.2760
  663MOL0     H87507   0.905   6.722   2.734  1.5522 -2.2320  0.4542
  663MOL0     H87508   1.026   6.751   2.520  0.3419  1.1605 -1.9253
  663MOL0     H87509   0.873   6.795   2.430  0.4749  3.2954 -0.3731
  663MOL0     H87510   0.849   6.977   2.590 -0.9367 -1.1098 -0.5616
  663MOL0     H87511   0.957   6.990   2.448 -0.3357  0.0153  0.7724
  663MOL0     H87512   1.022   7.071   2.673 -0.2381  0.4723 -1.2252
  663MOL0     H87513   1.042   6.913   2.741  1.0004 -2.0196 -0.6991
  663MOL0     H87514   1.411   6.988   2.550 -0.5408  2.1324 -2.7477
  663MOL0     H87515   0.492   6.909   2.745 -2.0429 -0.4793  0.7076
  663MOL0     H87516   0.281   6.865   2.629 -3.1303 -3.7277 -1.3940
  664MOL0     O87517   3.225   9.708  11.222 -0.3891 -0.4157  0.3769
  664MOL0     C87518   3.261   9.699  11.109 -0.7553  0.7660 -0.5301
  664MOL0     O87519   3.182   9.660  11.001  0.0217  0.6405  0.2464
  664MOL0     C87520   3.049   9.644  11.015 -0.6560 -1.4228  0.9357
  664MOL0     C87521   2.967   9.669  10.905  0.1672  0.3748 -0.0301
  664MOL0     C87522   2.826   9.660  10.897 -0.9145  0.5018 -1.1235
  664MOL0     C87523   2.763   9.599  11.014  0.3571 -0.5987  0.3474
  664MOL0     O87524   2.630   9.572  11.021  0.1360  0.6844 -0.4293
  664MOL0     C87525   2.545   9.587  10.902 -0.5940  0.3020  0.2894
  664MOL0     C87526   2.415   9.528  10.947 -0.2997 -0.4959 -0.1193
  664MOL0     C87527   2.425   9.371  10.956 -0.6426 -0.3970  0.2575
  664MOL0     C87528   2.306   9.318  11.024 -0.8560 -0.0530 -0.3007
  664MOL0     C87529   2.326   9.165  11.057  0.0099  0.5175  0.0378
  664MOL0     C87530   2.201   9.104  11.138 -0.2481 -1.0275  0.3962
  664MOL0     C87531   2.061   9.118  11.074 -0.0026 -0.1707 -0.9724
  664MOL0     C87532   1.941   9.090  11.172 -0.2860  0.0348  0.1293
  664MOL0     N87533   1.810   9.110  11.115 -0.3333  0.6938  0.0957
  664MOL0     C87534   1.772   9.049  10.996  0.1960 -0.3354 -0.0570
  664MOL0     C87535   1.640   9.076  11.000  0.1205  0.4015  0.2006
  664MOL0     C87536   1.545   9.037  10.888  0.4889 -0.1745  0.1803
  664MOL0     C87537   1.422   8.954  10.928  0.3883 -0.9435  0.1844
  664MOL0     C87538   1.433   8.803  10.943  0.3050  0.0302 -0.3900
  664MOL0     C87539   1.505   8.763  11.070  0.6636 -0.1649 -0.0968
  664MOL0     O87540   1.463   8.833  11.186  0.1848 -0.9042 -0.4430
  664MOL0     C87541   1.334   8.820  11.234 -0.3849  0.0432 -0.7045
  664MOL0     C87542   1.251   8.712  11.204 -0.2910  0.3360 -0.9243
  664MOL0     C87543   1.126   8.708  11.265 -0.7259 -1.5940 -0.4343
  664MOL0     C87544   1.093   8.801  11.369  0.1139  0.4140  0.3698
  664MOL0     C87545   0.960   8.793  11.429 -0.8064  0.1190 -0.1246
  664MOL0     O87546   0.932   8.876  11.538  0.0044 -0.0326  0.4650
  664MOL0     C87547   0.831   8.850  11.632 -0.0006  0.4324  0.1255
  664MOL0     C87548   0.735   8.742  11.628  0.8889 -0.4980  0.2737
  664MOL0     C87549   0.637   8.728  11.723  0.9011 -0.3581  0.3876
  664MOL0     C87550   0.623   8.822  11.829 -0.0680 -0.5421 -0.6147
  664MOL0     O87551   0.523   8.830  11.925 -0.5535  0.0819 -0.0396
  664MOL0     C87552   0.388   8.830  11.878 -0.0216  0.4650  0.1635
  664MOL0     C87553   0.327   8.972  11.871 -0.6984  1.1778  0.9224
  664MOL0     C87554   0.312   9.036  12.011  0.0349  0.2722  0.2603
  664MOL0     C87555   0.220   9.162  12.013  0.3044 -0.3442  0.1703
  664MOL0     C87556   0.064   9.135  12.003 -0.5562  0.2996  0.6180
  664MOL0     C87557   0.006   9.057  12.113 -0.4599  0.3439  0.3030
  664MOL0     C87558  -0.149   9.056  12.102 -0.2853 -0.0602 -0.1716
  664MOL0     C87559  -0.210   8.926  12.172 -0.2261 -0.0136  0.6879
  664MOL0    Cl87560  -0.170   8.784  12.062  0.1529  0.2665  0.0794
  664MOL0     C87561   0.712   8.929  11.827  0.3038  0.2838  0.8919
  664MOL0     C87562   0.818   8.943  11.733 -0.3581  0.0734  1.2906
  664MOL0     O87563   0.883   8.709  11.378 -0.3365  0.2611  0.0346
  664MOL0     C87564   1.179   8.905  11.396  0.1214 -0.2619 -1.2205
  664MOL0     C87565   1.289   8.917  11.321 -0.1510  0.7197  0.2032
  664MOL0     N87566   1.602   9.134  11.122 -0.1892 -0.0626 -0.2999
  664MOL0     N87567   1.705   9.152  11.194  0.2656  0.2346  0.3246
  664MOL0     C87568   2.844   9.574  11.124  0.1696 -1.1106 -0.3127
  664MOL0     C87569   2.983   9.589  11.124  0.0734 -0.3989 -0.3829
  664MOL0     C87570   3.410   9.698  11.092  0.2416 -0.5352 -0.2811
  664MOL0     C87571   3.472   9.668  10.969  1.0518  0.2322 -0.1415
  664MOL0     C87572   3.612   9.687  10.973 -0.5109  0.0841  0.0492
  664MOL0     C87573   3.690   9.725  11.087 -0.4651 -0.0204 -0.0217
  664MOL0     O87574   3.822   9.762  11.079  0.1394 -0.4367  0.3367
  664MOL0     C87575   3.881   9.819  11.197 -0.0431  0.2570  0.7031
  664MOL0     C87576   4.031   9.856  11.185  0.0383 -0.2085 -0.5424
  664MOL0     C87577   4.113   9.780  11.078  0.9135 -0.3587 -0.1863
  664MOL0     C87578   4.265   9.813  11.065  0.0633  0.3309 -0.1254
  664MOL0     C87579   4.280   9.957  11.045 -0.1797 -0.4602  0.3593
  664MOL0     C87580   4.273  10.073  11.012  0.3302  0.7649  0.5532
  664MOL0     C87581   3.619   9.739  11.201  0.3246 -0.3674 -0.3588
  664MOL0     C87582   3.481   9.736  11.205  0.5601 -1.1474 -0.1791
  664MOL0     H87583   3.012   9.709  10.815  0.5797  3.0653  1.2735
  664MOL0     H87584   2.774   9.671  10.803 -0.7494  1.2040 -1.1370
  664MOL0     H87585   2.586   9.536  10.814  1.5913  1.8602  0.3173
  664MOL0     H87586   2.526   9.691  10.874  3.1688  1.0396 -0.0788
  664MOL0     H87587   2.336   9.557  10.878  0.9403  1.1445 -0.9010
  664MOL0     H87588   2.391   9.567  11.046  1.4524  1.7147 -0.4878
  664MOL0     H87589   2.513   9.350  11.019 -0.7016  0.6286  0.7016
  664MOL0     H87590   2.445   9.322  10.861  1.7677 -3.7482  2.2645
  664MOL0     H87591   2.294   9.382  11.112 -0.3915  0.9223 -0.9267
  664MOL0     H87592   2.220   9.339  10.959 -1.0966 -0.3008 -0.0667
  664MOL0     H87593   2.404   9.162  11.134 -2.0363 -0.3005  2.1989
  664MOL0     H87594   2.361   9.097  10.979 -0.8797  0.3016 -0.1784
  664MOL0     H87595   2.204   9.173  11.223  0.8171  0.7236 -0.9870
  664MOL0     H87596   2.210   9.000  11.170 -1.4933 -1.2800  0.0047
  664MOL0     H87597   2.057   9.219  11.032 -2.9386 -0.4975 -1.7115
  664MOL0     H87598   2.060   9.046  10.991  3.0683 -2.2961  0.6404
  664MOL0     H87599   1.961   9.148  11.263 -2.2772  0.8477  0.0869
  664MOL0     H87600   1.956   8.986  11.205  0.6836  0.3808  0.8386
  664MOL0     H87601   1.824   9.003  10.913  0.7915  3.5472 -2.0793
  664MOL0     H87602   1.599   8.997  10.802  2.4703  2.7822 -0.0948
  664MOL0     H87603   1.506   9.134  10.857 -0.4549 -0.4688  0.4120
  664MOL0     H87604   1.347   8.966  10.849 -1.2315  0.9552  1.8885
  664MOL0     H87605   1.360   8.991  11.010 -3.7929  1.1116 -3.4414
  664MOL0     H87606   1.341   8.745  10.938  1.8536 -2.9845  2.1796
  664MOL0     H87607   1.490   8.760  10.859  0.6182 -0.1384 -0.0972
  664MOL0     H87608   1.611   8.779  11.053  0.9808 -2.0623 -0.1015
  664MOL0     H87609   1.498   8.656  11.091 -0.2125 -0.3851 -1.3736
  664MOL0     H87610   1.261   8.639  11.125  0.1937 -1.6895  0.9387
  664MOL0     H87611   1.046   8.644  11.230 -3.3379  2.0273 -1.6975
  664MOL0     H87612   0.737   8.675  11.542 -0.0524 -1.4112  0.9386
  664MOL0     H87613   0.572   8.641  11.713  1.4039 -0.4745 -2.4591
  664MOL0     H87614   0.324   8.785  11.954 -2.4587  1.4540 -1.1749
  664MOL0     H87615   0.370   8.769  11.789  1.9557 -1.6191  1.0951
  664MOL0     H87616   0.227   8.960  11.830 -1.0203  0.8457  1.7918
  664MOL0     H87617   0.375   9.041  11.800 -1.8438  0.2148 -0.8668
  664MOL0     H87618   0.411   9.076  12.036 -0.3905  2.0353 -0.6906
  664MOL0     H87619   0.274   8.972  12.092 -1.3516  1.8435  0.9113
  664MOL0     H87620   0.244   9.227  12.098  1.7642  0.7450 -1.0401
  664MOL0     H87621   0.254   9.218  11.926  0.7459 -3.0506 -1.4997
  664MOL0     H87622   0.046   9.078  11.911  0.7800  0.8467 -0.0113
  664MOL0     H87623   0.014   9.232  12.004 -0.8907  0.3056 -2.9181
  664MOL0     H87624   0.031   9.114  12.202 -0.0652  0.5300  0.0746
  664MOL0     H87625   0.054   8.959  12.125 -0.0758  0.6518  1.4446
  664MOL0     H87626  -0.189   9.150  12.142  1.4910  0.8949 -0.5342
  664MOL0     H87627  -0.180   9.051  11.997 -2.5714 -1.1849  0.4982
  664MOL0     H87628  -0.319   8.929  12.177 -0.3094 -0.0895 -0.7376
  664MOL0     H87629  -0.170   8.912  12.273  1.7345 -2.8800 -0.3533
  664MOL0     H87630   0.703   8.996  11.912 -3.3945  1.3242 -0.1260
  664MOL0     H87631   0.888   9.026  11.735 -1.1404  0.7466  1.9841
  664MOL0     H87632   1.166   8.977  11.477  2.4812 -0.2200 -0.8019
  664MOL0     H87633   1.352   9.002  11.346 -0.0007  1.0923 -1.3507
  664MOL0     H87634   2.784   9.543  11.209 -0.2430 -1.0166 -0.5678
  664MOL0     H87635   3.036   9.552  11.211 -1.4190  0.3392  0.8875
  664MOL0     H87636   3.412   9.628  10.888 -0.8619 -2.1695  2.2477
  664MOL0     H87637   3.661   9.671  10.877  1.1989 -1.2602  1.0786
  664MOL0     H87638   3.877   9.740  11.273  4.1281  0.7566  1.6760
  664MOL0     H87639   3.824   9.906  11.230  1.5396  0.8569  1.9729
  664MOL0     H87640   4.047   9.964  11.177  3.0088 -0.2576  2.3775
  664MOL0     H87641   4.079   9.839  11.282  1.8824 -0.3453 -1.4343
  664MOL0     H87642   4.079   9.805  10.977  0.7675  0.3154  0.0260
  664MOL0     H87643   4.095   9.672  11.086 -1.0553 -0.2365 -1.9517
  664MOL0     H87644   4.319   9.786  11.156  1.4738 -0.0925 -1.0536
  664MOL0     H87645   4.302   9.764  10.974  2.4195  1.9005 -0.1075
  664MOL0     H87646   4.262  10.170  10.969  3.3834  1.6669  1.5876
  664MOL0     H87647   3.658   9.759  11.301  0.4007  1.5090 -0.7296
  664MOL0     H87648   3.435   9.763  11.299 -0.3335  1.9015 -1.3636
  665MOL0     O87649   5.690   2.637   9.692  0.6421  0.5308 -0.7607
  665MOL0     C87650   5.579   2.642   9.633 -0.4650 -0.1732 -0.1813
  665MOL0     O87651   5.565   2.648   9.496 -0.5539  0.4544 -0.5896
  665MOL0     C87652   5.674   2.633   9.419  0.5313  0.1261  0.3666
  665MOL0     C87653   5.783   2.721   9.441  0.9556  0.7191 -0.5296
  665MOL0     C87654   5.885   2.718   9.338  0.1215  0.4811 -0.7116
  665MOL0     C87655   5.877   2.624   9.232 -0.6296 -1.0503  0.0118
  665MOL0     O87656   5.979   2.612   9.143  0.2335  0.1597 -0.2834
  665MOL0     C87657   6.029   2.734   9.086 -0.1287 -0.5414  0.8297
  665MOL0     C87658   6.139   2.710   8.983 -0.3846  0.0381  0.5846
  665MOL0     C87659   6.091   2.641   8.861  0.0749 -0.4926 -0.2086
  665MOL0     C87660   6.195   2.663   8.754  0.2981 -0.1423  0.4570
  665MOL0     C87661   6.194   2.544   8.649 -0.3097 -0.1003  0.0849
  665MOL0     C87662   6.067   2.539   8.561 -0.2854  1.3892  0.7380
  665MOL0     C87663   6.035   2.657   8.479  0.0521  1.1750  0.3936
  665MOL0     C87664   6.134   2.666   8.358  0.5363 -0.2572 -0.4318
  665MOL0     N87665   6.103   2.790   8.283  0.1687  0.4620 -0.3372
  665MOL0     C87666   5.976   2.821   8.231 -0.7722 -0.7524 -0.2904
  665MOL0     C87667   5.988   2.950   8.183 -0.4205 -0.2444  0.1070
  665MOL0     C87668   5.876   3.032   8.127  0.7956 -0.6785  0.3735
  665MOL0     C87669   5.932   3.142   8.036  0.2325 -0.2471  0.3359
  665MOL0     C87670   5.826   3.236   7.964  0.4802  0.3380  0.5937
  665MOL0     C87671   5.719   3.152   7.896  0.5604 -0.0806 -0.3906
  665MOL0     O87672   5.607   3.142   7.988 -0.0386 -0.6715 -0.1188
  665MOL0     C87673   5.491   3.074   7.955  0.7195 -0.2739 -0.3284
  665MOL0     C87674   5.400   3.062   8.061 -0.3559 -0.3547  0.0688
  665MOL0     C87675   5.279   2.993   8.044  0.3233 -0.4402 -0.3587
  665MOL0     C87676   5.247   2.935   7.915  0.0470  0.3379  0.2168
  665MOL0     C87677   5.128   2.855   7.889  0.0641  0.2115  0.6841
  665MOL0     O87678   5.102   2.807   7.759 -0.3342  0.4653 -0.2017
  665MOL0     C87679   4.985   2.745   7.723  0.3538  0.1324 -0.2278
  665MOL0     C87680   4.934   2.772   7.597  0.1301  0.2774 -0.3643
  665MOL0     C87681   4.806   2.721   7.559 -0.1547  0.3316  0.0601
  665MOL0     C87682   4.753   2.623   7.639  1.2778  0.6790 -0.4064
  665MOL0     O87683   4.636   2.558   7.595  0.5558 -0.1570 -0.4363
  665MOL0     C87684   4.530   2.632   7.533  0.0602 -1.1587 -0.1056
  665MOL0     C87685   4.406   2.538   7.519  0.1209  0.0286 -0.1178
  665MOL0     C87686   4.277   2.609   7.469  0.0795  1.0868  0.1389
  665MOL0     C87687   4.150   2.518   7.480  0.7455  0.0077  0.7970
  665MOL0     C87688   4.030   2.607   7.433  0.7181  0.4368 -0.2965
  665MOL0     C87689   3.910   2.514   7.421  1.0813  0.0798  0.0597
  665MOL0     C87690   3.805   2.584   7.325 -0.6544  0.3991 -0.0231
  665MOL0     C87691   3.829   2.559   7.170  0.6091  0.1642  0.1415
  665MOL0    Cl87692   3.797   2.385   7.123 -0.0124 -0.3311  0.0010
  665MOL0     C87693   4.804   2.592   7.765 -0.0469 -0.5756 -0.0185
  665MOL0     C87694   4.920   2.655   7.807  0.0185 -0.0900  0.2488
  665MOL0     O87695   5.048   2.852   7.981 -0.5470  0.0982  0.3055
  665MOL0     C87696   5.341   2.951   7.806 -0.3248  0.1167 -0.5260
  665MOL0     C87697   5.462   3.018   7.829  0.0117 -1.3199  1.5067
  665MOL0     N87698   6.121   2.987   8.198  0.4362  0.8646  0.5395
  665MOL0     N87699   6.193   2.890   8.249  0.2258  0.0828  0.0928
  665MOL0     C87700   5.774   2.535   9.225  0.4888  0.4287 -0.1001
  665MOL0     C87701   5.677   2.533   9.325  0.1250  0.0398 -0.6359
  665MOL0     C87702   5.461   2.636   9.714  0.7835  0.1257 -0.4616
  665MOL0     C87703   5.467   2.617   9.849 -0.3914 -0.2017 -0.3249
  665MOL0     C87704   5.352   2.601   9.928 -0.7659  0.2315 -0.1773
  665MOL0     C87705   5.228   2.594   9.878 -0.4842 -1.0200  0.0954
  665MOL0     O87706   5.105   2.576   9.951 -1.0902 -1.2223 -0.3636
  665MOL0     C87707   5.125   2.545  10.094  0.1041 -1.4983  0.2166
  665MOL0     C87708   5.142   2.685  10.160 -0.3351  0.1258  0.4732
  665MOL0     C87709   5.022   2.778  10.119 -1.0296 -0.4307 -0.3240
  665MOL0     C87710   4.981   2.885  10.228 -0.8189  0.0200  0.0062
  665MOL0     C87711   5.075   3.006  10.208  0.0690  0.1397  0.1195
  665MOL0     C87712   5.131   3.109  10.207 -0.2754  0.2571  0.8060
  665MOL0     C87713   5.214   2.623   9.739 -0.0398 -0.1264 -1.0645
  665MOL0     C87714   5.325   2.644   9.657  0.0372  0.4314  0.4991
  665MOL0     H87715   5.786   2.799   9.516 -2.1241  0.0640  0.4103
  665MOL0     H87716   5.966   2.789   9.333 -0.9982  1.7975 -0.9093
  665MOL0     H87717   6.069   2.808   9.156 -0.8221  0.3951  0.2514
  665MOL0     H87718   5.952   2.798   9.041  0.0477 -2.2426 -2.1346
  665MOL0     H87719   6.213   2.642   9.027  1.9983  0.8612 -1.8883
  665MOL0     H87720   6.187   2.805   8.958 -0.8091 -0.5350 -2.9998
  665MOL0     H87721   5.999   2.691   8.832 -0.9425 -1.4558  1.2477
  665MOL0     H87722   6.076   2.534   8.882  0.8395 -0.5572  0.0370
  665MOL0     H87723   6.181   2.761   8.707  2.3265  0.2708  0.5811
  665MOL0     H87724   6.296   2.670   8.796  0.7498  0.4694 -0.7016
  665MOL0     H87725   6.216   2.452   8.705  0.5677  1.1759  1.9448
  665MOL0     H87726   6.281   2.570   8.589  1.6711  1.3067  3.2891
  665MOL0     H87727   5.980   2.510   8.621 -1.9843  3.0847 -0.7634
  665MOL0     H87728   6.087   2.458   8.491 -2.0196  1.1240  0.4967
  665MOL0     H87729   5.933   2.639   8.445 -0.0823 -1.5983  1.9654
  665MOL0     H87730   6.033   2.744   8.545  0.4738  1.9290 -0.5560
  665MOL0     H87731   6.121   2.582   8.290 -0.8453  0.1324 -0.6865
  665MOL0     H87732   6.236   2.669   8.398 -0.4117  2.8677  2.1999
  665MOL0     H87733   5.883   2.765   8.236  0.4743 -2.8244  1.2336
  665MOL0     H87734   5.824   3.089   8.204 -0.1709  1.8367 -1.9637
  665MOL0     H87735   5.827   2.952   8.071  3.6709 -1.7193 -0.8732
  665MOL0     H87736   6.000   3.096   7.965  0.8323  0.3522  0.5099
  665MOL0     H87737   5.987   3.202   8.109 -2.8310 -0.2677  2.9271
  665MOL0     H87738   5.781   3.297   8.042 -2.5469 -0.3144 -0.4856
  665MOL0     H87739   5.875   3.305   7.894  3.3640  0.7743  2.8582
  665MOL0     H87740   5.747   3.050   7.866 -1.4058  0.0362 -2.9936
  665MOL0     H87741   5.687   3.210   7.809  0.2534 -0.7874 -0.7556
  665MOL0     H87742   5.423   3.112   8.155 -4.2101  1.9760  0.0257
  665MOL0     H87743   5.217   2.971   8.131  1.2993 -2.0219 -0.0236
  665MOL0     H87744   4.975   2.843   7.526 -0.8081  0.0777 -1.1362
  665MOL0     H87745   4.765   2.748   7.462  1.0651 -0.8639 -0.8169
  665MOL0     H87746   4.549   2.663   7.430  0.5725  0.9629  0.5759
  665MOL0     H87747   4.507   2.716   7.599 -0.9445 -2.6542  1.5727
  665MOL0     H87748   4.379   2.493   7.615  0.4113 -1.9636 -0.9286
  665MOL0     H87749   4.431   2.450   7.460  0.6902  0.3861 -0.4219
  665MOL0     H87750   4.295   2.629   7.363 -3.0112  2.1795 -0.2744
  665MOL0     H87751   4.254   2.698   7.527 -0.6903  0.7889  0.2982
  665MOL0     H87752   4.146   2.440   7.403 -1.9337  0.3567  0.4802
  665MOL0     H87753   4.138   2.480   7.582  0.3183  1.3758  1.2739
  665MOL0     H87754   4.057   2.652   7.337  1.8612  0.1818 -0.1131
  665MOL0     H87755   4.003   2.691   7.498 -1.8836 -0.2547 -0.3851
  665MOL0     H87756   3.856   2.489   7.513  1.4524  1.2377  0.6180
  665MOL0     H87757   3.936   2.420   7.371 -3.7693 -1.3407 -0.2681
  665MOL0     H87758   3.706   2.543   7.347 -0.8115  1.3653  1.1238
  665MOL0     H87759   3.803   2.690   7.351  0.0660  0.5194 -0.4274
  665MOL0     H87760   3.937   2.569   7.158  1.1966 -3.3974  1.2886
  665MOL0     H87761   3.774   2.628   7.106  3.4875  2.4361 -0.1324
  665MOL0     H87762   4.768   2.510   7.826 -1.2136  1.5104  2.2285
  665MOL0     H87763   4.958   2.622   7.903 -0.5899  2.5477  1.4822
  665MOL0     H87764   5.322   2.906   7.709  0.6815 -1.0278 -0.2107
  665MOL0     H87765   5.533   3.013   7.747 -3.1689 -0.5784 -1.5359
  665MOL0     H87766   5.773   2.470   9.138 -1.4205  0.4461 -0.1281
  665MOL0     H87767   5.585   2.476   9.326 -1.1555  2.0151 -1.2135
  665MOL0     H87768   5.568   2.604   9.887 -1.6310 -2.3980  2.6172
  665MOL0     H87769   5.380   2.601  10.032  2.4046  3.4800 -0.8605
  665MOL0     H87770   5.210   2.481  10.118 -0.3361 -3.2488 -2.4846
  665MOL0     H87771   5.037   2.490  10.127 -0.7208  0.7317  2.0293
  665MOL0     H87772   5.142   2.676  10.269 -2.1602 -1.0850  0.4181
  665MOL0     H87773   5.236   2.736  10.138 -0.8635  0.0313 -2.4235
  665MOL0     H87774   4.935   2.715  10.100 -1.8313  0.9218 -1.3708
  665MOL0     H87775   5.054   2.833  10.029  5.1943  1.1492  2.3418
  665MOL0     H87776   4.879   2.922  10.218 -2.3901 -4.0327 -0.7213
  665MOL0     H87777   4.988   2.825  10.319  1.5808 -1.3267 -0.9834
  665MOL0     H87778   5.187   3.201  10.214  1.6359 -0.9397  2.6850
  665MOL0     H87779   5.118   2.635   9.691 -1.1278  0.0526  1.0077
  665MOL0     H87780   5.299   2.651   9.552  2.2249 -3.2185 -0.4459
  666MOL0     O87781   7.579   8.054   3.649  0.0342  0.0611  0.4389
  666MOL0     C87782   7.572   8.015   3.532  0.0135  0.1021  0.0067
  666MOL0     O87783   7.467   7.925   3.484  0.0402 -0.7523 -0.1410
  666MOL0     C87784   7.369   7.862   3.554  0.4875 -0.1321 -0.7730
  666MOL0     C87785   7.243   7.860   3.490  0.5454  0.2989  0.4783
  666MOL0     C87786   7.141   7.780   3.546 -0.8685  0.1334  0.0002
  666MOL0     C87787   7.163   7.725   3.677  0.0171  0.4566  0.6496
  666MOL0     O87788   7.072   7.659   3.754  0.3768  0.5707  0.5904
  666MOL0     C87789   6.932   7.672   3.732 -0.1946 -0.2944  0.3636
  666MOL0     C87790   6.859   7.590   3.846 -0.2908  0.0201  0.5409
  666MOL0     C87791   6.713   7.549   3.795 -0.0340  0.0245 -0.7661
  666MOL0     C87792   6.622   7.670   3.774  0.6655 -0.3836  0.5043
  666MOL0     C87793   6.470   7.640   3.742  0.1222  0.8327 -0.8364
  666MOL0     C87794   6.397   7.597   3.868 -0.3490  0.1709  0.0595
  666MOL0     C87795   6.270   7.526   3.832  0.9743 -1.0595 -0.2513
  666MOL0     C87796   6.175   7.509   3.952 -0.6411  0.2280  0.4147
  666MOL0     N87797   6.046   7.441   3.925  0.9087  0.5649 -0.5995
  666MOL0     C87798   6.018   7.315   3.980  0.8071 -0.0977  0.0820
  666MOL0     C87799   5.881   7.297   3.964  0.3870 -0.0029 -0.7301
  666MOL0     C87800   5.804   7.169   3.997  1.2979  0.5184 -0.8085
  666MOL0     C87801   5.690   7.198   4.102 -0.5093 -0.2730  0.3104
  666MOL0     C87802   5.588   7.311   4.092  0.3489 -0.0530 -0.2659
  666MOL0     C87803   5.501   7.286   3.976 -0.6866 -0.3044  0.2243
  666MOL0     O87804   5.467   7.144   3.956 -0.3365  0.7307  0.3925
  666MOL0     C87805   5.361   7.091   4.026 -0.0529 -0.0856  0.8939
  666MOL0     C87806   5.327   6.960   4.007  0.2264 -0.2714 -0.1311
  666MOL0     C87807   5.227   6.897   4.087  0.0845 -0.8932  0.5872
  666MOL0     C87808   5.149   6.972   4.182  0.3611  0.1533  0.9708
  666MOL0     C87809   5.064   6.904   4.274  0.1882  0.5991  0.6811
  666MOL0     O87810   5.040   6.772   4.262  0.4930  0.4014  1.0759
  666MOL0     C87811   4.948   6.704   4.342  0.5209  0.6034 -0.2175
  666MOL0     C87812   4.964   6.565   4.331 -0.3965  0.5153 -1.0511
  666MOL0     C87813   4.887   6.475   4.401  0.7803  0.6002 -0.3415
  666MOL0     C87814   4.779   6.527   4.483 -0.0208 -0.3408 -1.3912
  666MOL0     O87815   4.708   6.454   4.577  0.0954  0.2380  0.4832
  666MOL0     C87816   4.634   6.344   4.517 -0.0368 -0.6910 -0.4072
  666MOL0     C87817   4.602   6.245   4.619  0.1003 -0.6577 -1.1019
  666MOL0     C87818   4.477   6.182   4.588  0.1639  0.4124 -0.2771
  666MOL0     C87819   4.449   6.077   4.701 -0.3174  0.1572  0.9995
  666MOL0     C87820   4.304   6.024   4.720 -0.4137  0.5917  0.2026
  666MOL0     C87821   4.207   6.123   4.787 -0.7803 -0.1189 -0.2262
  666MOL0     C87822   4.220   6.121   4.935 -0.7442 -0.0302 -0.5617
  666MOL0     C87823   4.104   6.193   4.996 -0.4851 -0.1756 -1.0179
  666MOL0    Cl87824   4.056   6.101   5.141 -0.2083  0.2192  0.5539
  666MOL0     C87825   4.763   6.664   4.511  0.1155 -0.4053  0.3969
  666MOL0     C87826   4.843   6.747   4.432 -0.0981 -0.8383  1.2350
  666MOL0     O87827   5.013   6.975   4.357 -0.8357 -0.1567  0.0711
  666MOL0     C87828   5.168   7.109   4.185 -0.0419 -0.2039  0.1394
  666MOL0     C87829   5.269   7.168   4.107  0.5765 -0.0313 -0.6336
  666MOL0     N87830   5.837   7.409   3.891  0.6419  0.4863 -0.4574
  666MOL0     N87831   5.926   7.502   3.885 -0.4409  0.9795 -0.0983
  666MOL0     C87832   7.286   7.746   3.749  0.1635  0.2656  1.0684
  666MOL0     C87833   7.392   7.811   3.681  0.3503  0.2373  0.1455
  666MOL0     C87834   7.661   8.091   3.437  0.2766 -0.4830  0.5707
  666MOL0     C87835   7.749   8.188   3.480  0.2112  0.2910 -0.2964
  666MOL0     C87836   7.816   8.275   3.391 -0.1381 -0.0612 -0.4104
  666MOL0     C87837   7.786   8.265   3.256 -0.0769  1.2153  0.3074
  666MOL0     O87838   7.834   8.363   3.170  0.4794 -0.0315  0.0901
  666MOL0     C87839   7.858   8.345   3.030 -0.3127  0.0371  1.2406
  666MOL0     C87840   7.903   8.482   2.968  0.2933 -0.6992 -0.5287
  666MOL0     C87841   8.050   8.505   3.026 -0.0811  0.0727 -0.1190
  666MOL0     C87842   8.127   8.620   2.958 -0.6542  0.4780  0.1292
  666MOL0     C87843   8.094   8.742   3.032 -0.4087  1.4660  0.5778
  666MOL0     C87844   8.067   8.845   3.098  0.9818  0.8655  0.4740
  666MOL0     C87845   7.708   8.153   3.209  0.5575 -0.3608  0.0472
  666MOL0     C87846   7.632   8.076   3.299 -0.4099  0.4994  0.1134
  666MOL0     H87847   7.239   7.918   3.398 -3.6745 -0.6786 -0.2051
  666MOL0     H87848   7.049   7.766   3.491 -1.6963 -0.3865  1.4512
  666MOL0     H87849   6.901   7.647   3.630 -0.1939 -1.4202  0.6259
  666MOL0     H87850   6.899   7.776   3.745 -1.4075 -0.7310  0.9583
  666MOL0     H87851   6.869   7.633   3.946 -2.4670 -1.3222  1.4123
  666MOL0     H87852   6.909   7.495   3.864  1.3135  0.7649  0.1879
  666MOL0     H87853   6.687   7.471   3.867  0.3876  1.4100  0.9730
  666MOL0     H87854   6.722   7.502   3.697  0.2812  1.3194 -1.3711
  666MOL0     H87855   6.633   7.734   3.862 -0.3008 -0.1074  0.4403
  666MOL0     H87856   6.667   7.726   3.691 -1.8624 -0.5536 -1.1017
  666MOL0     H87857   6.474   7.543   3.691 -2.2419 -0.1193  0.6144
  666MOL0     H87858   6.432   7.721   3.679  0.2270  2.0489  0.5993
  666MOL0     H87859   6.370   7.684   3.928 -3.8076  3.5831 -5.5893
  666MOL0     H87860   6.460   7.529   3.927  0.6921 -1.3772 -2.6831
  666MOL0     H87861   6.212   7.580   3.756  1.2032 -3.4011 -2.2563
  666MOL0     H87862   6.295   7.436   3.775  2.3980 -0.3732 -0.7598
  666MOL0     H87863   6.159   7.610   3.990  2.3531  2.0315 -2.5269
  666MOL0     H87864   6.231   7.453   4.028  1.6176  0.8283 -0.7097
  666MOL0     H87865   6.087   7.249   4.031  1.5130  0.7745  0.2785
  666MOL0     H87866   5.871   7.094   4.040 -2.6460 -1.3677  2.7178
  666MOL0     H87867   5.756   7.129   3.907 -0.5277 -0.0657  0.3793
  666MOL0     H87868   5.741   7.224   4.195  0.3251 -0.5858 -0.0478
  666MOL0     H87869   5.640   7.103   4.120 -0.6980 -0.1880  0.2368
  666MOL0     H87870   5.535   7.299   4.187  0.1537  1.1285 -0.2064
  666MOL0     H87871   5.621   7.415   4.103  0.8148 -0.1534 -0.7148
  666MOL0     H87872   5.555   7.327   3.891 -2.8903  0.2668 -0.9598
  666MOL0     H87873   5.419   7.356   3.987  2.3789  3.4281  1.3859
  666MOL0     H87874   5.396   6.911   3.939 -2.0008 -1.3154 -1.7470
  666MOL0     H87875   5.215   6.789   4.083 -0.2235 -0.8949  1.4111
  666MOL0     H87876   5.039   6.512   4.273 -1.3382 -0.7732 -1.1447
  666MOL0     H87877   4.895   6.367   4.394 -0.6144  0.4457  0.1562
  666MOL0     H87878   4.680   6.292   4.433 -0.2653 -1.4399 -0.0815
  666MOL0     H87879   4.537   6.387   4.490  0.8641  0.9488 -1.1858
  666MOL0     H87880   4.596   6.292   4.718  1.2489  0.3707 -1.5063
  666MOL0     H87881   4.693   6.185   4.610  1.2588  1.1973 -2.2433
  666MOL0     H87882   4.476   6.123   4.496 -4.2336 -0.3081 -0.0159
  666MOL0     H87883   4.400   6.260   4.586  0.0890  0.3619  0.3917
  666MOL0     H87884   4.511   5.994   4.664 -1.8421 -0.8435  0.6002
  666MOL0     H87885   4.495   6.114   4.793 -1.5037  3.0252  0.5331
  666MOL0     H87886   4.300   5.933   4.780 -1.7117  2.8955  3.9521
  666MOL0     H87887   4.266   6.002   4.620 -1.6588  1.0009  0.5676
  666MOL0     H87888   4.107   6.103   4.748 -1.3129  3.3407 -1.0243
  666MOL0     H87889   4.210   6.228   4.756 -3.8860 -0.4514 -2.1827
  666MOL0     H87890   4.218   6.022   4.981 -0.4601 -0.4099 -1.3441
  666MOL0     H87891   4.317   6.161   4.964  0.2151 -0.4224 -3.0069
  666MOL0     H87892   4.020   6.211   4.929  0.6933  3.3087 -1.7992
  666MOL0     H87893   4.147   6.290   5.024 -0.8370  0.7228 -3.3188
  666MOL0     H87894   4.685   6.708   4.572  0.8912 -0.1535  1.2258
  666MOL0     H87895   4.837   6.855   4.447 -0.5454 -0.3845 -1.5491
  666MOL0     H87896   5.109   7.176   4.247 -0.0504 -0.7830  0.7613
  666MOL0     H87897   5.289   7.272   4.130  0.9086 -0.5478  1.7087
  666MOL0     H87898   7.314   7.695   3.840 -0.1595  2.3548  2.4269
  666MOL0     H87899   7.488   7.816   3.731  0.9407  2.7145 -1.0879
  666MOL0     H87900   7.771   8.203   3.586  1.5181 -3.6752  0.1683
  666MOL0     H87901   7.882   8.357   3.416 -0.4523  0.3327 -0.8649
  666MOL0     H87902   7.765   8.314   2.981  0.4867 -2.4464  1.1786
  666MOL0     H87903   7.928   8.263   3.014  1.4311  2.0173 -2.9502
  666MOL0     H87904   7.905   8.471   2.859  1.4725  0.2444 -0.6323
  666MOL0     H87905   7.829   8.560   2.985 -0.6295 -1.6059 -0.3056
  666MOL0     H87906   8.102   8.416   2.989 -1.4835  0.2898 -2.8237
  666MOL0     H87907   8.047   8.508   3.136  0.3272 -0.6717 -0.0784
  666MOL0     H87908   8.236   8.608   2.957 -0.6622  0.4358 -0.6641
  666MOL0     H87909   8.095   8.638   2.855 -0.3532 -0.0630 -0.0595
  666MOL0     H87910   8.043   8.936   3.148  1.0324  0.5171  1.1472
  666MOL0     H87911   7.694   8.141   3.102 -1.7995 -1.0485  0.3866
  666MOL0     H87912   7.566   7.997   3.263  0.5928  0.6362 -2.2214
  667MOL0     O87913   7.894   3.513   7.707  0.4774  0.3284 -0.4364
  667MOL0     C87914   7.822   3.616   7.705 -0.3019  0.2140  0.3665
  667MOL0     O87915   7.744   3.666   7.604 -0.1372 -0.1545 -0.1275
  667MOL0     C87916   7.714   3.575   7.504  0.3960  0.3533  0.5153
  667MOL0     C87917   7.700   3.624   7.377 -0.0198 -0.2449  0.3881
  667MOL0     C87918   7.662   3.546   7.270  0.0645 -0.5267 -0.1077
  667MOL0     C87919   7.644   3.410   7.287 -0.6847  0.4676 -1.0166
  667MOL0     O87920   7.613   3.342   7.175  0.3853 -0.2388 -0.6174
  667MOL0     C87921   7.584   3.208   7.188 -0.1566 -0.1020  0.1982
  667MOL0     C87922   7.507   3.167   7.061 -0.7708 -0.8658 -0.8433
  667MOL0     C87923   7.367   3.220   7.048  0.5278 -0.2546  0.5060
  667MOL0     C87924   7.303   3.274   7.184 -1.3715  0.0674 -0.3193
  667MOL0     C87925   7.161   3.317   7.161 -0.7871 -0.5257  0.8750
  667MOL0     C87926   7.146   3.453   7.068  0.5397  1.3178  0.1603
  667MOL0     C87927   7.236   3.576   7.107  0.7324 -0.4462  0.2787
  667MOL0     C87928   7.173   3.663   7.209 -0.1305 -0.5353 -0.0623
  667MOL0     N87929   7.158   3.608   7.340  0.0526 -0.4203  0.3007
  667MOL0     C87930   7.265   3.578   7.420  0.2074  0.2189  0.5218
  667MOL0     C87931   7.207   3.533   7.544 -0.2291 -0.5106  0.3759
  667MOL0     C87932   7.277   3.478   7.658  0.5863  0.2916  0.0709
  667MOL0     C87933   7.403   3.576   7.696  1.9038 -0.0667 -0.3736
  667MOL0     C87934   7.354   3.688   7.777  0.5392  1.3360 -0.2290
  667MOL0     C87935   7.468   3.788   7.796 -0.6888  0.2593 -0.4334
  667MOL0     O87936   7.418   3.907   7.840  0.2071 -0.4623 -0.5554
  667MOL0     C87937   7.380   3.910   7.974  0.0259  1.1031 -0.6071
  667MOL0     C87938   7.417   3.825   8.082 -0.2173 -0.2916 -0.2146
  667MOL0     C87939   7.353   3.837   8.199  0.3273 -0.2682  0.0595
  667MOL0     C87940   7.264   3.943   8.229 -0.8996  0.5069  0.8046
  667MOL0     C87941   7.211   3.953   8.365  0.0333 -0.0740  0.5481
  667MOL0     O87942   7.122   4.043   8.390  0.2605 -0.3401  0.8021
  667MOL0     C87943   7.067   4.052   8.519  0.5243  0.4251  0.2672
  667MOL0     C87944   6.955   3.978   8.555 -0.1790  0.9619 -0.8024
  667MOL0     C87945   6.899   3.983   8.681  1.1816 -0.2995  0.8086
  667MOL0     C87946   6.940   4.088   8.769  0.2027  0.2364  0.8146
  667MOL0     O87947   6.877   4.100   8.885 -0.1931 -0.3121 -0.5258
  667MOL0     C87948   6.870   4.227   8.951  0.0566 -0.2658  0.3173
  667MOL0     C87949   6.786   4.200   9.077  0.4887 -0.4420 -0.1502
  667MOL0     C87950   6.814   4.309   9.184 -0.3191 -0.0552 -0.6301
  667MOL0     C87951   6.800   4.260   9.330 -0.4408 -0.3337 -0.7759
  667MOL0     C87952   6.789   4.374   9.439  0.3177  1.3286  0.2572
  667MOL0     C87953   6.759   4.304   9.574  0.4019 -0.0844  0.1590
  667MOL0     C87954   6.753   4.407   9.692 -0.5267 -1.9520 -0.1059
  667MOL0     C87955   6.890   4.459   9.739 -0.0765  0.0734 -0.8129
  667MOL0    Cl87956   6.885   4.537   9.895 -0.0295 -0.0840  0.2102
  667MOL0     C87957   7.046   4.170   8.728 -0.2362 -0.7752 -0.3239
  667MOL0     C87958   7.113   4.145   8.608 -0.1362 -0.0313  0.2805
  667MOL0     O87959   7.262   3.886   8.453 -0.3826 -0.5721 -0.4204
  667MOL0     C87960   7.231   4.029   8.124  0.6650 -0.6631 -0.1581
  667MOL0     C87961   7.281   4.005   7.994 -0.3997 -0.8006  0.1779
  667MOL0     N87962   7.069   3.544   7.532  0.0736  0.0752 -0.2435
  667MOL0     N87963   7.046   3.593   7.416  0.2801  0.1387 -0.4311
  667MOL0     C87964   7.643   3.360   7.420  0.6813  0.2619 -0.4437
  667MOL0     C87965   7.678   3.447   7.531 -0.2723  1.1347  0.7218
  667MOL0     C87966   7.828   3.686   7.833 -0.2745 -0.3388 -0.1394
  667MOL0     C87967   7.857   3.629   7.958  0.7169  0.5629  0.1475
  667MOL0     C87968   7.859   3.692   8.076 -0.7728  0.9473 -0.1099
  667MOL0     C87969   7.833   3.828   8.074  0.4418  1.1817 -0.7619
  667MOL0     O87970   7.813   3.912   8.184  0.4564  0.3160  0.3619
  667MOL0     C87971   7.814   3.858   8.316  0.3130  0.3827  0.5476
  667MOL0     C87972   7.681   3.773   8.348 -0.1335 -0.2059 -0.5311
  667MOL0     C87973   7.722   3.649   8.431  0.3631 -0.4178 -0.4008
  667MOL0     C87974   7.592   3.567   8.454 -0.2906 -0.7086 -0.7280
  667MOL0     C87975   7.475   3.636   8.526  0.1594  0.1375 -0.7403
  667MOL0     C87976   7.380   3.666   8.603  0.3574  0.3034  0.7831
  667MOL0     C87977   7.798   3.890   7.957 -0.2544  0.4710 -0.1313
  667MOL0     C87978   7.796   3.821   7.835  1.4221 -0.5478 -0.7229
  667MOL0     H87979   7.717   3.728   7.352 -0.5973  0.1115  1.4153
  667MOL0     H87980   7.649   3.591   7.172 -2.3491 -2.0830 -0.5767
  667MOL0     H87981   7.514   3.184   7.269  0.7592 -1.7288  0.5491
  667MOL0     H87982   7.675   3.149   7.203  1.9535  2.5556 -1.2220
  667MOL0     H87983   7.491   3.060   7.073 -0.8915 -0.8491 -0.8525
  667MOL0     H87984   7.567   3.168   6.970  1.6399  0.7037  0.6609
  667MOL0     H87985   7.313   3.129   7.022  0.5592 -0.4028  0.9630
  667MOL0     H87986   7.356   3.295   6.969 -4.1228  1.0568  2.1369
  667MOL0     H87987   7.294   3.192   7.255  1.4515  0.0071  0.0509
  667MOL0     H87988   7.358   3.352   7.236  1.1544 -0.3087 -2.2475
  667MOL0     H87989   7.107   3.330   7.255 -1.6266 -1.2509  0.5057
  667MOL0     H87990   7.106   3.249   7.095 -0.7631  3.7670 -4.1806
  667MOL0     H87991   7.040   3.474   7.056  0.5082  0.4706 -1.2760
  667MOL0     H87992   7.179   3.418   6.970  5.1818  2.5810  0.9970
  667MOL0     H87993   7.337   3.560   7.145  0.4361  0.0691  1.2922
  667MOL0     H87994   7.239   3.635   7.014  0.1154  1.7257  1.5770
  667MOL0     H87995   7.069   3.682   7.179 -0.3261 -2.1182 -0.4464
  667MOL0     H87996   7.228   3.758   7.220 -0.3394 -0.1279 -2.2261
  667MOL0     H87997   7.373   3.581   7.407  0.6670  1.6514  3.6180
  667MOL0     H87998   7.314   3.379   7.630 -2.5072 -1.7880  2.6146
  667MOL0     H87999   7.207   3.467   7.741 -3.0812 -1.0734 -2.9065
  667MOL0     H88000   7.456   3.608   7.606 -0.7366  1.1049 -1.6179
  667MOL0     H88001   7.470   3.519   7.762  1.1922  0.8440  1.1883
  667MOL0     H88002   7.262   3.733   7.740  0.0985 -1.5274 -3.0173
  667MOL0     H88003   7.331   3.654   7.879  0.0957  1.0084 -0.4342
  667MOL0     H88004   7.491   3.816   7.693  1.2952 -3.2600 -1.1034
  667MOL0     H88005   7.555   3.748   7.848 -2.6640  0.0257  3.0316
  667MOL0     H88006   7.486   3.746   8.055  1.0241  1.3109 -2.0669
  667MOL0     H88007   7.386   3.763   8.272  4.5645 -0.5397 -1.7947
  667MOL0     H88008   6.931   3.896   8.487 -2.6552  1.3232 -0.4699
  667MOL0     H88009   6.817   3.921   8.715  0.5926  0.2188  0.3424
  667MOL0     H88010   6.813   4.306   8.901 -0.5916 -0.1710  1.1724
  667MOL0     H88011   6.969   4.259   8.984 -1.4386  2.3207  2.7251
  667MOL0     H88012   6.815   4.102   9.116  1.5229  0.1074  0.4913
  667MOL0     H88013   6.680   4.199   9.049  0.6727 -1.5883 -0.8727
  667MOL0     H88014   6.741   4.389   9.168  1.6455  2.8032  2.8996
  667MOL0     H88015   6.913   4.354   9.172 -0.4709  2.5185  4.5923
  667MOL0     H88016   6.702   4.213   9.325 -0.4556 -0.4475  0.2600
  667MOL0     H88017   6.874   4.185   9.360  2.0109  2.1645 -0.0906
  667MOL0     H88018   6.709   4.440   9.405 -2.1526 -0.9242  1.2682
  667MOL0     H88019   6.877   4.437   9.455  1.8805 -0.2680 -1.5516
  667MOL0     H88020   6.829   4.222   9.591  0.6529 -1.0438 -4.2852
  667MOL0     H88021   6.662   4.256   9.565  0.6059 -0.6099  0.7254
  667MOL0     H88022   6.695   4.492   9.655  3.4122  0.0670 -2.2313
  667MOL0     H88023   6.697   4.369   9.779 -1.7202 -1.5876 -0.6880
  667MOL0     H88024   6.930   4.535   9.670 -0.0026  0.2771 -0.5477
  667MOL0     H88025   6.966   4.380   9.740 -0.6810 -0.5175 -1.2797
  667MOL0     H88026   7.094   4.237   8.798  1.7166 -0.8146 -1.5260
  667MOL0     H88027   7.199   4.201   8.572 -0.7267  0.7291  0.0322
  667MOL0     H88028   7.147   4.097   8.138 -1.6635 -3.3245 -0.2233
  667MOL0     H88029   7.265   4.072   7.910  0.9657  0.5233  0.9189
  667MOL0     H88030   7.609   3.258   7.437 -1.4443  1.0514  0.3493
  667MOL0     H88031   7.681   3.403   7.630 -3.1185 -0.1416  0.3387
  667MOL0     H88032   7.880   3.524   7.975  1.6496  0.6063 -0.7477
  667MOL0     H88033   7.882   3.641   8.169  0.4980 -4.1501 -2.8933
  667MOL0     H88034   7.806   3.944   8.383 -0.5785 -0.0506  1.0189
  667MOL0     H88035   7.908   3.811   8.346  0.0343 -0.3936  0.2502
  667MOL0     H88036   7.621   3.834   8.416  1.6617 -0.8247  1.7545
  667MOL0     H88037   7.640   3.756   8.248 -2.5939  0.5108  0.3047
  667MOL0     H88038   7.771   3.673   8.525  0.6258 -2.4369  0.0303
  667MOL0     H88039   7.784   3.584   8.368  0.2912  1.3885 -2.4620
  667MOL0     H88040   7.559   3.549   8.351 -0.6123  0.0799 -0.7637
  667MOL0     H88041   7.608   3.468   8.499  3.1652  1.0950  2.5774
  667MOL0     H88042   7.298   3.710   8.655  0.3301  0.9981  0.1771
  667MOL0     H88043   7.767   3.994   7.968  0.5954  0.6009  1.2413
  667MOL0     H88044   7.769   3.866   7.740 -0.8843 -0.6550 -0.1552
  668MOL0     O88045   7.497   1.963   6.003  0.0223 -0.4904  0.8145
  668MOL0     C88046   7.434   2.064   6.011 -0.2082 -0.1866 -0.3626
  668MOL0     O88047   7.484   2.179   6.061  1.5872 -0.7567 -0.2264
  668MOL0     C88048   7.619   2.195   6.073  0.6055  0.4560 -0.3365
  668MOL0     C88049   7.693   2.145   6.179  0.0254  0.0256  0.7246
  668MOL0     C88050   7.831   2.165   6.204 -0.3091  0.5507  0.2032
  668MOL0     C88051   7.906   2.236   6.113 -0.1266 -0.4068  0.2953
  668MOL0     O88052   8.046   2.255   6.138 -0.2550 -0.3344  0.0017
  668MOL0     C88053   8.133   2.315   6.042 -0.1519 -0.3576 -0.3595
  668MOL0     C88054   8.274   2.328   6.104 -0.0575  0.0178 -0.0683
  668MOL0     C88055   8.365   2.413   6.014  0.3244 -0.5830 -0.2213
  668MOL0     C88056   8.512   2.421   6.054  0.9097  0.2427  0.1010
  668MOL0     C88057   8.597   2.520   5.969  0.4755 -0.3007 -0.3603
  668MOL0     C88058   8.738   2.511   6.024 -0.1129 -0.3507  0.1436
  668MOL0     C88059   8.759   2.575   6.163  0.8476 -0.5986 -0.5517
  668MOL0     C88060   8.758   2.727   6.163 -0.5073 -0.1391 -0.1903
  668MOL0     N88061   8.888   2.782   6.134 -0.6719 -0.1911  0.7712
  668MOL0     C88062   8.914   2.894   6.060 -0.5164 -0.0328 -0.6573
  668MOL0     C88063   9.044   2.906   6.036 -0.4120  0.5432  0.2522
  668MOL0     C88064   9.117   3.002   5.944  0.5187  0.7967 -0.5380
  668MOL0     C88065   9.146   3.136   6.014 -0.3644 -0.1519 -0.1138
  668MOL0     C88066   9.257   3.124   6.127  0.6237 -0.2639  0.2976
  668MOL0     C88067   9.389   3.059   6.068  0.1467 -1.1578  0.1863
  668MOL0     O88068   9.462   3.146   5.972 -0.0952 -0.2861 -0.2854
  668MOL0     C88069   9.581   3.092   5.933  0.9038 -0.0027  0.3296
  668MOL0     C88070   9.701   3.154   5.960  0.6177 -0.7190 -0.1757
  668MOL0     C88071   9.813   3.115   5.896 -0.8949 -0.6623 -0.4688
  668MOL0     C88072   9.809   2.990   5.822 -0.2539  0.1265 -0.1891
  668MOL0     C88073   9.940   2.943   5.766  0.5381 -1.0403 -0.3281
  668MOL0     O88074   9.942   2.826   5.693 -0.4150  0.3944  0.0312
  668MOL0     C88075  10.058   2.787   5.629  0.8790  0.2151  0.5420
  668MOL0     C88076  10.130   2.685   5.682  0.1737  0.9892  0.3839
  668MOL0     C88077  10.244   2.650   5.620 -0.7790  0.4099  0.1403
  668MOL0     C88078  10.290   2.706   5.507 -0.5837  0.2599 -0.6209
  668MOL0     O88079  10.403   2.647   5.451  0.0297 -0.3632 -0.4665
  668MOL0     C88080  10.433   2.671   5.315 -0.0442  0.6349 -0.4367
  668MOL0     C88081  10.510   2.552   5.258 -0.1877  0.6369  1.2819
  668MOL0     C88082  10.636   2.517   5.330 -0.5095  0.1903 -0.7743
  668MOL0     C88083  10.694   2.394   5.262  0.0022 -0.0971  0.3442
  668MOL0     C88084  10.816   2.342   5.345  0.0988  0.4385  0.4182
  668MOL0     C88085  10.881   2.217   5.288 -0.4351  0.2863  0.1960
  668MOL0     C88086  10.995   2.247   5.187 -0.1578  0.8468  0.2044
  668MOL0     C88087  11.072   2.126   5.125  0.3826 -0.4681 -0.2855
  668MOL0    Cl88088  10.992   2.087   4.962  0.2629 -0.1293  0.1964
  668MOL0     C88089  10.223   2.824   5.454  0.3648 -0.0439  0.5071
  668MOL0     C88090  10.105   2.859   5.518 -0.5718 -0.4959  0.2940
  668MOL0     O88091  10.037   3.020   5.778  0.6758  0.0159 -0.0914
  668MOL0     C88092   9.693   2.910   5.821  0.4288  0.0126  0.1503
  668MOL0     C88093   9.582   2.966   5.870  0.2503 -0.2153  0.4591
  668MOL0     N88094   9.102   2.808   6.121 -0.3555  1.0433 -0.0930
  668MOL0     N88095   9.009   2.731   6.167  0.1765 -0.4306  0.5317
  668MOL0     C88096   7.836   2.296   6.006  0.7167 -0.4680 -0.7666
  668MOL0     C88097   7.698   2.281   5.993 -0.2804  0.1508  0.2373
  668MOL0     C88098   7.286   2.057   6.010  0.1008  0.6452  0.4467
  668MOL0     C88099   7.216   1.933   6.025  0.8765 -0.3542  0.1340
  668MOL0     C88100   7.079   1.916   6.015  0.0566  0.0913 -0.6898
  668MOL0     C88101   7.009   2.033   5.988 -0.2533 -0.8322 -0.6873
  668MOL0     O88102   6.872   2.023   5.983  0.4424  0.1657  0.4830
  668MOL0     C88103   6.794   2.078   6.101  0.6167  0.6216  0.9065
  668MOL0     C88104   6.679   2.169   6.054 -0.2530  0.1181 -0.6772
  668MOL0     C88105   6.547   2.105   6.024  0.2369 -0.2992  0.5890
  668MOL0     C88106   6.494   2.005   6.131  0.0476 -0.0025  0.3712
  668MOL0     C88107   6.359   1.976   6.079  0.1102  0.0916  0.0231
  668MOL0     C88108   6.245   1.962   6.032 -0.5749 -0.3684  0.3731
  668MOL0     C88109   7.071   2.152   5.968 -0.0246  0.0846 -0.5658
  668MOL0     C88110   7.207   2.169   5.985 -0.3853 -0.7486  0.1953
  668MOL0     H88111   7.642   2.090   6.258  1.5948 -3.0366 -0.2608
  668MOL0     H88112   7.875   2.115   6.290  1.6620  1.9089  0.0388
  668MOL0     H88113   8.093   2.417   6.031  0.4866 -0.2975 -2.7320
  668MOL0     H88114   8.138   2.281   5.938 -0.1615  0.7713 -0.7441
  668MOL0     H88115   8.322   2.232   6.124 -2.6541 -1.4220 -0.2454
  668MOL0     H88116   8.257   2.384   6.197  2.4205 -1.3737  1.3170
  668MOL0     H88117   8.335   2.517   6.026  2.4093 -0.0812  1.2722
  668MOL0     H88118   8.353   2.371   5.914 -0.1327  0.2420 -0.5220
  668MOL0     H88119   8.502   2.438   6.161 -0.9966  0.3788 -0.0480
  668MOL0     H88120   8.562   2.324   6.050  0.8401  0.2299 -3.0810
  668MOL0     H88121   8.559   2.620   5.993 -0.8184 -0.7491 -0.4446
  668MOL0     H88122   8.603   2.506   5.861  1.0258 -1.7153 -0.1673
  668MOL0     H88123   8.811   2.554   5.954  1.4481 -0.2720  1.7453
  668MOL0     H88124   8.773   2.407   6.022  1.6534  0.2169 -0.7782
  668MOL0     H88125   8.679   2.547   6.232  2.4297  0.3806  1.8137
  668MOL0     H88126   8.853   2.544   6.209  1.7508 -0.1302 -2.0277
  668MOL0     H88127   8.724   2.761   6.261 -2.6583 -1.3704 -0.4236
  668MOL0     H88128   8.693   2.774   6.089  2.0584  2.3277 -1.0131
  668MOL0     H88129   8.832   2.959   6.030 -0.7051 -1.6946 -4.1665
  668MOL0     H88130   9.049   3.026   5.861 -0.4998  3.0777  0.8636
  668MOL0     H88131   9.201   2.948   5.899  0.6674  0.8934 -0.3779
  668MOL0     H88132   9.048   3.173   6.044 -1.9378 -2.3578 -2.1585
  668MOL0     H88133   9.191   3.187   5.928  0.5240 -2.0696 -0.8513
  668MOL0     H88134   9.271   3.220   6.176  1.2057 -0.5367  0.6694
  668MOL0     H88135   9.223   3.056   6.205 -0.9607  0.3445  0.1790
  668MOL0     H88136   9.366   2.957   6.036  1.1352 -1.8483  1.5666
  668MOL0     H88137   9.459   3.061   6.152 -1.0762  1.3016  1.2423
  668MOL0     H88138   9.699   3.239   6.027  2.1739 -2.5275  2.3914
  668MOL0     H88139   9.882   3.198   5.887 -0.3128 -0.9172  1.2840
  668MOL0     H88140  10.101   2.632   5.772  0.8842 -0.0664  0.0085
  668MOL0     H88141  10.307   2.565   5.648  0.9457  1.2077 -1.1042
  668MOL0     H88142  10.477   2.767   5.285 -2.0202  1.5881 -0.4583
  668MOL0     H88143  10.344   2.657   5.252  2.0251 -1.3048 -3.1689
  668MOL0     H88144  10.529   2.568   5.152 -1.1522 -0.2772  0.9606
  668MOL0     H88145  10.445   2.466   5.243  0.8640  0.4588 -4.1458
  668MOL0     H88146  10.618   2.505   5.437 -2.3523 -0.1880 -1.1031
  668MOL0     H88147  10.705   2.602   5.334 -0.3412  0.0452 -0.5836
  668MOL0     H88148  10.628   2.312   5.232  0.1950  0.7129 -2.6356
  668MOL0     H88149  10.715   2.433   5.162 -0.6540  2.9554  1.2888
  668MOL0     H88150  10.781   2.311   5.443 -0.0171  1.0506  0.5735
  668MOL0     H88151  10.887   2.423   5.357  1.5056 -0.7552  0.4067
  668MOL0     H88152  10.804   2.155   5.242 -0.6116  1.0049 -0.4894
  668MOL0     H88153  10.915   2.163   5.377  0.3991  0.1543 -0.1936
  668MOL0     H88154  10.946   2.309   5.110  1.7153  2.3802  0.1740
  668MOL0     H88155  11.071   2.307   5.237  0.0898  0.8062 -0.1154
  668MOL0     H88156  11.058   2.046   5.199 -0.2027 -0.1082  0.0074
  668MOL0     H88157  11.176   2.157   5.134 -0.5470  2.7230  1.1522
  668MOL0     H88158  10.263   2.885   5.374 -1.5948  1.3652  0.5246
  668MOL0     H88159  10.050   2.945   5.481  0.8208 -0.5139 -1.9522
  668MOL0     H88160   9.686   2.814   5.769  0.9276  0.2504 -0.3785
  668MOL0     H88161   9.482   2.929   5.851 -0.7660  2.6445 -0.1013
  668MOL0     H88162   7.880   2.353   5.926  0.3775  2.5134  1.0139
  668MOL0     H88163   7.648   2.314   5.903 -0.9383 -3.4710 -0.8751
  668MOL0     H88164   7.279   1.846   6.042  2.5310  1.2292  2.9401
  668MOL0     H88165   7.039   1.816   6.028  4.3998 -1.7721  0.1902
  668MOL0     H88166   6.854   2.155   6.150 -0.6237  2.4893 -0.4010
  668MOL0     H88167   6.750   1.997   6.160 -2.2200  0.6020 -1.0231
  668MOL0     H88168   6.663   2.250   6.126  2.0971  1.0394 -1.1154
  668MOL0     H88169   6.711   2.218   5.962  1.4106  1.6997  0.6569
  668MOL0     H88170   6.569   2.039   5.939  2.5616  1.0254  0.0562
  668MOL0     H88171   6.473   2.183   6.006  1.6349  0.5391 -2.0912
  668MOL0     H88172   6.550   1.912   6.136 -0.1083 -0.2623 -1.8230
  668MOL0     H88173   6.487   2.046   6.232  2.1179 -0.7643  0.8648
  668MOL0     H88174   6.144   1.966   5.997 -0.4893  2.4437  0.1970
  668MOL0     H88175   7.005   2.238   5.954 -0.1067 -0.0717 -1.1449
  668MOL0     H88176   7.266   2.257   5.963  1.3687 -2.3025 -1.7030
  669MOL0     O88177  10.624   7.175   4.785  0.1176  0.2207 -0.1785
  669MOL0     C88178  10.702   7.079   4.802 -0.2556 -0.9459 -0.1710
  669MOL0     O88179  10.824   7.071   4.745 -0.4209 -0.4043 -0.5062
  669MOL0     C88180  10.876   7.176   4.683  0.3397 -0.0769 -0.3141
  669MOL0     C88181  10.904   7.300   4.750 -0.0431 -0.5998  0.1320
  669MOL0     C88182  10.957   7.404   4.673 -1.4919 -1.0289 -0.5890
  669MOL0     C88183  10.993   7.392   4.538 -0.0784 -0.1363  0.5352
  669MOL0     O88184  11.031   7.513   4.478  0.5281  0.3528 -0.2649
  669MOL0     C88185  11.079   7.505   4.343  0.0401 -0.6187  0.5625
  669MOL0     C88186  11.094   7.634   4.282  0.0901 -0.0087 -1.2648
  669MOL0     C88187  10.975   7.719   4.257 -0.3383 -0.1634 -0.5573
  669MOL0     C88188  11.015   7.860   4.210 -0.6373  0.1650 -0.4885
  669MOL0     C88189  10.892   7.934   4.141 -0.4719  0.2926  0.5402
  669MOL0     C88190  10.803   8.000   4.235  0.7227  0.7238 -0.9748
  669MOL0     C88191  10.718   8.103   4.171 -0.3977 -0.1923 -0.0941
  669MOL0     C88192  10.609   8.167   4.251  0.3777 -0.0474 -0.6503
  669MOL0     N88193  10.538   8.080   4.346  1.0293  0.6995  0.1623
  669MOL0     C88194  10.443   7.988   4.312  0.5351 -0.1561 -0.2198
  669MOL0     C88195  10.375   7.955   4.428 -0.0180 -0.6700  0.2275
  669MOL0     C88196  10.264   7.857   4.437  0.1789 -0.8022 -0.2748
  669MOL0     C88197  10.135   7.945   4.424 -0.5125 -0.5868 -0.3003
  669MOL0     C88198  10.020   7.851   4.469 -1.1130 -0.1174 -0.0108
  669MOL0     C88199   9.976   7.739   4.382 -0.1417  0.5442  0.6536
  669MOL0     O88200   9.854   7.668   4.408 -0.0458  0.2266  0.9052
  669MOL0     C88201   9.736   7.729   4.398 -0.0039 -0.0438 -0.7829
  669MOL0     C88202   9.697   7.769   4.274  0.6434 -0.0312  0.6231
  669MOL0     C88203   9.585   7.846   4.257  0.0380 -0.1146  0.3026
  669MOL0     C88204   9.499   7.873   4.363  0.5863  0.4792  0.3205
  669MOL0     C88205   9.369   7.954   4.355 -0.0788  0.1227  0.0913
  669MOL0     O88206   9.346   8.023   4.240 -0.1218 -0.3125 -0.2761
  669MOL0     C88207   9.224   8.079   4.214 -0.1046  0.4173  0.1247
  669MOL0     C88208   9.147   8.029   4.101 -1.3213  0.1756  0.3193
  669MOL0     C88209   9.014   8.070   4.088 -0.0911 -1.2480 -0.3912
  669MOL0     C88210   8.962   8.175   4.163  0.9567  0.4087 -0.3465
  669MOL0     O88211   8.843   8.229   4.134  0.1842 -0.7231 -0.4379
  669MOL0     C88212   8.776   8.206   4.004  0.1151  0.4572 -0.6010
  669MOL0     C88213   8.669   8.313   4.009  0.1111 -0.2547 -0.6129
  669MOL0     C88214   8.564   8.320   3.893  0.1030  0.1230  0.1178
  669MOL0     C88215   8.450   8.426   3.922 -0.1475  0.2499 -0.1136
  669MOL0     C88216   8.348   8.432   3.808 -0.3665 -0.2667  0.6712
  669MOL0     C88217   8.244   8.529   3.852  0.4313  0.5383  0.5574
  669MOL0     C88218   8.156   8.560   3.732  0.6141  0.6095 -0.1315
  669MOL0     C88219   8.044   8.658   3.770  0.4628  0.2864 -0.4140
  669MOL0    Cl88220   8.122   8.820   3.755 -0.3549  0.1052  0.7070
  669MOL0     C88221   9.047   8.239   4.254 -0.7723 -0.1706 -0.4924
  669MOL0     C88222   9.172   8.180   4.285  0.3588  0.0576 -0.4764
  669MOL0     O88223   9.284   7.944   4.445  0.6436  0.0188 -0.5545
  669MOL0     C88224   9.535   7.823   4.486 -0.2024 -0.1253 -0.3565
  669MOL0     C88225   9.655   7.760   4.504  0.7835  0.5350  0.0221
  669MOL0     N88226  10.429   8.031   4.527 -0.1440 -0.2078  0.6180
  669MOL0     N88227  10.526   8.103   4.480 -0.3231 -0.5589  0.7160
  669MOL0     C88228  10.973   7.266   4.473  0.0665 -0.8980 -0.1678
  669MOL0     C88229  10.916   7.160   4.546  0.4737  0.0034 -0.3926
  669MOL0     C88230  10.669   6.967   4.887 -0.5315 -0.2224 -0.7879
  669MOL0     C88231  10.770   6.877   4.940 -0.0629 -1.3798  0.1113
  669MOL0     C88232  10.735   6.774   5.020 -0.4694 -0.3555 -0.5298
  669MOL0     C88233  10.601   6.750   5.057 -0.7904 -0.0760 -0.3917
  669MOL0     O88234  10.561   6.660   5.151 -0.6044 -0.7896 -0.3242
  669MOL0     C88235  10.649   6.549   5.188 -0.0912  0.5979 -0.5145
  669MOL0     C88236  10.691   6.550   5.336  0.6414  0.2468 -0.1396
  669MOL0     C88237  10.751   6.692   5.377  0.2781  1.0190  0.2234
  669MOL0     C88238  10.770   6.720   5.527  0.5671  0.5529  0.2004
  669MOL0     C88239  10.849   6.626   5.600  1.3479  0.2126  0.4740
  669MOL0     C88240  10.905   6.547   5.667  0.1541 -0.0655 -0.5596
  669MOL0     C88241  10.507   6.842   5.009 -0.5162  0.7024 -0.7693
  669MOL0     C88242  10.536   6.944   4.920  0.5051 -0.0620  0.0951
  669MOL0     H88243  10.875   7.319   4.853 -1.5501  0.5192 -0.4651
  669MOL0     H88244  10.974   7.500   4.722 -2.1794 -2.1757  2.0888
  669MOL0     H88245  11.001   7.458   4.284 -1.3371  2.2516 -0.0711
  669MOL0     H88246  11.172   7.447   4.343 -0.6669 -1.8386 -1.1621
  669MOL0     H88247  11.127   7.614   4.179 -0.2418  0.0492 -1.3826
  669MOL0     H88248  11.178   7.688   4.327  1.1069 -3.0626  0.8374
  669MOL0     H88249  10.917   7.726   4.349 -1.1986  2.2221 -1.2079
  669MOL0     H88250  10.912   7.674   4.179 -1.3501 -0.9213  0.6457
  669MOL0     H88251  11.057   7.928   4.285 -0.4034 -1.3331  0.7842
  669MOL0     H88252  11.090   7.854   4.130  0.8928 -0.9715  0.9870
  669MOL0     H88253  10.843   7.875   4.063  0.5084 -0.1446  0.2343
  669MOL0     H88254  10.942   8.008   4.079  2.4521 -1.6351  0.3627
  669MOL0     H88255  10.865   8.039   4.317  0.0960 -1.6110  0.6996
  669MOL0     H88256  10.741   7.918   4.270  2.0435 -1.7916 -4.0554
  669MOL0     H88257  10.781   8.186   4.139 -1.4725 -0.0839 -2.1436
  669MOL0     H88258  10.674   8.052   4.084  1.8276 -0.8417 -0.9219
  669MOL0     H88259  10.536   8.210   4.182  0.2765  0.6848 -0.1088
  669MOL0     H88260  10.657   8.241   4.315  1.8130  0.3825 -2.1699
  669MOL0     H88261  10.421   7.955   4.211  0.1622 -0.1133 -0.1560
  669MOL0     H88262  10.269   7.825   4.541  0.1876 -0.9748 -0.3291
  669MOL0     H88263  10.277   7.777   4.364  0.8404  0.1359 -1.2119
  669MOL0     H88264  10.134   7.981   4.321 -2.3919 -0.8245 -0.4008
  669MOL0     H88265  10.155   8.030   4.490  0.4355 -1.1197  0.1215
  669MOL0     H88266  10.042   7.799   4.563  0.2131 -0.2111 -0.3540
  669MOL0     H88267   9.938   7.919   4.494 -0.6647 -0.6859  3.6129
  669MOL0     H88268  10.054   7.664   4.396  1.9439  3.0993  4.3131
  669MOL0     H88269   9.979   7.781   4.281 -0.7025 -1.1741 -0.1181
  669MOL0     H88270   9.764   7.749   4.191  1.3362  1.0896  0.8938
  669MOL0     H88271   9.562   7.882   4.157  0.6197 -1.5955 -0.3943
  669MOL0     H88272   9.190   7.948   4.044 -0.9128  1.6449 -1.5568
  669MOL0     H88273   8.948   8.013   4.024 -1.3333  1.4425 -1.6678
  669MOL0     H88274   8.733   8.106   4.014  2.3936 -0.5132  0.1092
  669MOL0     H88275   8.836   8.206   3.912 -0.0535  1.3651 -0.7227
  669MOL0     H88276   8.712   8.414   4.011  1.3844 -0.7817  0.2678
  669MOL0     H88277   8.615   8.294   4.102  1.7358 -3.0511 -0.1060
  669MOL0     H88278   8.511   8.224   3.890 -1.4787  0.6178  4.2690
  669MOL0     H88279   8.623   8.331   3.803 -1.4304 -0.3205 -0.9895
  669MOL0     H88280   8.396   8.387   4.008 -0.8966 -1.4361 -1.2911
  669MOL0     H88281   8.503   8.521   3.932 -1.0263  1.3808 -4.2746
  669MOL0     H88282   8.310   8.331   3.792 -0.5007 -0.0488 -0.4756
  669MOL0     H88283   8.395   8.471   3.717  1.9539 -1.4988  1.2770
  669MOL0     H88284   8.284   8.624   3.890 -0.3519  0.3801  1.8245
  669MOL0     H88285   8.188   8.486   3.935 -2.5212  2.1946 -0.4134
  669MOL0     H88286   8.207   8.589   3.639  0.0019  0.4849 -0.5131
  669MOL0     H88287   8.102   8.467   3.711  1.3996 -0.1280  1.0085
  669MOL0     H88288   8.009   8.645   3.872  2.2497  1.6604  0.4396
  669MOL0     H88289   7.954   8.642   3.709  0.9914 -4.2124 -0.3517
  669MOL0     H88290   9.017   8.327   4.310  1.0356  0.7276 -0.8708
  669MOL0     H88291   9.235   8.221   4.363 -1.6541  0.7334  0.8709
  669MOL0     H88292   9.495   7.848   4.583 -2.1820 -0.8899 -0.9183
  669MOL0     H88293   9.688   7.713   4.597 -0.0764 -2.9226 -1.2646
  669MOL0     H88294  10.986   7.267   4.365 -2.4386 -1.0878 -0.5354
  669MOL0     H88295  10.902   7.067   4.491 -0.1559 -0.5356  0.6559
  669MOL0     H88296  10.875   6.900   4.929 -0.0487 -0.0234  2.4298
  669MOL0     H88297  10.816   6.719   5.066 -0.2795 -0.6956 -1.2618
  669MOL0     H88298  10.735   6.547   5.121  1.1536  0.9996  1.0169
  669MOL0     H88299  10.596   6.459   5.154  1.0967 -0.6834  0.9044
  669MOL0     H88300  10.605   6.526   5.399 -0.9091  0.5458 -2.0104
  669MOL0     H88301  10.770   6.478   5.358  1.9513  1.6925  0.0806
  669MOL0     H88302  10.686   6.773   5.342 -1.2813 -0.0814  0.4795
  669MOL0     H88303  10.846   6.715   5.329  2.1119  0.2222  3.1827
  669MOL0     H88304  10.809   6.821   5.540 -0.9390  0.9420  2.1440
  669MOL0     H88305  10.677   6.720   5.585 -1.9446 -3.4684 -3.2155
  669MOL0     H88306  10.954   6.486   5.740 -1.9702 -0.1150  0.9125
  669MOL0     H88307  10.412   6.816   5.053  0.4129 -1.5075  0.0563
  669MOL0     H88308  10.452   7.001   4.883 -0.0736  0.1306  1.6330
  670MOL0     O88309   4.217   4.587   6.322 -0.0229  0.5621  0.7113
  670MOL0     C88310   4.228   4.475   6.265  0.2137  0.0677  0.3786
  670MOL0     O88311   4.128   4.402   6.236  0.4059  1.0524 -0.1491
  670MOL0     C88312   4.002   4.433   6.268 -0.0344 -0.0214  0.5811
  670MOL0     C88313   3.912   4.363   6.355  0.7611  0.1352 -1.2099
  670MOL0     C88314   3.778   4.398   6.365  0.0372 -0.3363 -0.6003
  670MOL0     C88315   3.735   4.519   6.307  0.0054  0.3773 -0.4078
  670MOL0     O88316   3.601   4.541   6.327  0.8048  0.0868  0.2389
  670MOL0     C88317   3.531   4.602   6.217 -0.0148 -0.2833 -0.2739
  670MOL0     C88318   3.388   4.643   6.269 -0.0301  0.4464  1.0360
  670MOL0     C88319   3.370   4.797   6.295 -0.5553  0.1350 -0.6664
  670MOL0     C88320   3.234   4.837   6.357  0.4328 -0.1127  1.3637
  670MOL0     C88321   3.188   4.759   6.478  0.4107 -0.8985 -0.9414
  670MOL0     C88322   3.027   4.779   6.513 -0.4928 -0.4110  0.1157
  670MOL0     C88323   2.974   4.680   6.612  0.4672  0.2962 -1.8441
  670MOL0     C88324   2.832   4.637   6.588  0.1187 -0.0532 -0.8721
  670MOL0     N88325   2.747   4.748   6.622  0.4894 -0.0545  0.1685
  670MOL0     C88326   2.702   4.784   6.749 -0.1367  0.0196 -0.1717
  670MOL0     C88327   2.623   4.894   6.727  0.1104  0.2503 -0.2456
  670MOL0     C88328   2.532   4.962   6.830  0.9677 -0.1464 -0.3079
  670MOL0     C88329   2.594   5.085   6.896  0.3741 -0.0901 -0.1131
  670MOL0     C88330   2.520   5.141   7.018 -0.3236  0.6365 -1.0812
  670MOL0     C88331   2.602   5.250   7.083 -0.3115  0.6963 -0.3848
  670MOL0     O88332   2.551   5.306   7.204  0.2065  0.4566 -0.1960
  670MOL0     C88333   2.440   5.388   7.201  0.4132 -0.2698 -0.0008
  670MOL0     C88334   2.374   5.438   7.083 -0.0106  0.0835  0.0416
  670MOL0     C88335   2.258   5.513   7.091  0.3349 -1.3731  0.1967
  670MOL0     C88336   2.202   5.547   7.221 -0.7083  0.5535  0.1190
  670MOL0     C88337   2.070   5.594   7.237  0.4205 -0.4978 -0.4302
  670MOL0     O88338   1.993   5.609   7.119 -0.3481 -0.2741 -0.2308
  670MOL0     C88339   1.870   5.670   7.119 -0.1726 -0.2123 -0.3233
  670MOL0     C88340   1.743   5.618   7.090  0.6987  0.3087 -0.5318
  670MOL0     C88341   1.625   5.697   7.084 -0.7124  0.1275 -1.0753
  670MOL0     C88342   1.627   5.826   7.116  0.5157 -0.4906  0.2327
  670MOL0     O88343   1.496   5.882   7.125 -0.1947  0.1088 -0.0359
  670MOL0     C88344   1.476   6.015   7.167 -0.0477  0.0658 -0.5210
  670MOL0     C88345   1.333   6.064   7.142  0.2828 -0.6843  0.5582
  670MOL0     C88346   1.229   5.976   7.215 -0.4624  0.0218  0.0987
  670MOL0     C88347   1.090   6.038   7.213  0.7050 -0.5638  0.0651
  670MOL0     C88348   0.973   5.943   7.234 -0.3423  0.1858  0.0929
  670MOL0     C88349   0.837   6.005   7.216 -0.9168 -0.2208  0.2529
  670MOL0     C88350   0.734   5.894   7.236 -0.2451 -0.0111  0.1739
  670MOL0     C88351   0.588   5.952   7.219 -0.2940 -0.8037  0.4684
  670MOL0    Cl88352   0.552   6.052   7.355 -0.3281 -0.0825  0.2944
  670MOL0     C88353   1.753   5.881   7.150 -0.7177 -0.6298  0.0956
  670MOL0     C88354   1.872   5.806   7.159 -0.0732  0.4472  1.0265
  670MOL0     O88355   2.048   5.646   7.348 -0.3839 -0.6969 -0.0986
  670MOL0     C88356   2.282   5.512   7.333  0.5892 -0.3606 -0.3047
  670MOL0     C88357   2.393   5.430   7.320  0.1996  0.0233 -0.4100
  670MOL0     N88358   2.636   4.929   6.597  0.0511 -0.2986  1.1723
  670MOL0     N88359   2.697   4.840   6.537 -0.0131  0.4810  0.9091
  670MOL0     C88360   3.827   4.590   6.236 -0.6331 -1.1602 -0.3113
  670MOL0     C88361   3.955   4.543   6.201  0.4464  0.2427 -0.4658
  670MOL0     C88362   4.356   4.424   6.217  0.5046  0.1021 -0.6893
  670MOL0     C88363   4.361   4.318   6.122 -1.2743 -0.3482 -1.2050
  670MOL0     C88364   4.478   4.291   6.056  0.6039  0.5941  0.6942
  670MOL0     C88365   4.595   4.357   6.087  0.3882 -1.0981 -1.1740
  670MOL0     O88366   4.719   4.331   6.021  1.4011  0.2514  0.1481
  670MOL0     C88367   4.720   4.259   5.898  0.3357 -0.4668  0.5277
  670MOL0     C88368   4.641   4.329   5.788 -0.2301  0.3026 -0.7755
  670MOL0     C88369   4.623   4.246   5.671  0.5325  0.1110 -0.2184
  670MOL0     C88370   4.542   4.111   5.675  0.8755  0.2935  0.3588
  670MOL0     C88371   4.400   4.128   5.708 -0.5862 -0.6228  0.4120
  670MOL0     C88372   4.285   4.139   5.733  0.2541  0.9038  0.3905
  670MOL0     C88373   4.588   4.457   6.182  0.3311  0.2951 -0.4283
  670MOL0     C88374   4.473   4.495   6.237  1.0170 -0.5291  0.5038
  670MOL0     H88375   3.933   4.264   6.395 -1.7441 -0.0693 -0.2231
  670MOL0     H88376   3.705   4.348   6.428  0.8223  2.1261  2.5258
  670MOL0     H88377   3.522   4.523   6.141 -0.2371 -0.5136 -0.0129
  670MOL0     H88378   3.580   4.689   6.174 -5.1126  2.8311 -0.6057
  670MOL0     H88379   3.368   4.571   6.349  2.3933 -1.1608  0.2996
  670MOL0     H88380   3.311   4.624   6.194 -0.2138  4.5490 -0.0586
  670MOL0     H88381   3.372   4.851   6.200  1.5801 -0.7141 -1.1566
  670MOL0     H88382   3.447   4.836   6.362 -0.6248 -2.9202  1.4182
  670MOL0     H88383   3.227   4.940   6.393 -2.0171 -0.1346  1.1458
  670MOL0     H88384   3.155   4.838   6.282  1.9896  0.9378 -0.3341
  670MOL0     H88385   3.244   4.786   6.568 -0.0068  0.8735 -1.1906
  670MOL0     H88386   3.206   4.651   6.471 -0.8653 -1.1282 -0.8061
  670MOL0     H88387   2.981   4.775   6.414  0.7678  2.6314 -0.7148
  670MOL0     H88388   3.012   4.880   6.552  0.9173 -0.7360  1.6199
  670MOL0     H88389   3.032   4.588   6.618 -1.3178 -0.7767  2.5146
  670MOL0     H88390   2.990   4.720   6.712  0.7092 -1.0534 -1.3244
  670MOL0     H88391   2.803   4.548   6.644 -0.6771  0.7408  0.0175
  670MOL0     H88392   2.813   4.601   6.487 -2.5802  1.6236 -1.0488
  670MOL0     H88393   2.724   4.726   6.838 -1.0549  1.5656  1.1144
  670MOL0     H88394   2.513   4.889   6.909  1.1417  0.5124  0.3522
  670MOL0     H88395   2.435   4.996   6.792  0.7009  0.6476  1.0181
  670MOL0     H88396   2.589   5.159   6.817  1.1775 -1.6177 -1.6517
  670MOL0     H88397   2.696   5.049   6.910  0.5281 -0.9552 -2.8428
  670MOL0     H88398   2.422   5.171   6.981 -0.4194 -1.2103 -2.5179
  670MOL0     H88399   2.494   5.060   7.087  0.6048  1.8057  0.7138
  670MOL0     H88400   2.616   5.338   7.019 -0.8276  2.1561  1.4181
  670MOL0     H88401   2.696   5.209   7.122  0.4794  2.5113 -0.2810
  670MOL0     H88402   2.410   5.426   6.982  0.0332 -0.3677  0.1092
  670MOL0     H88403   2.224   5.561   7.000 -0.3695  1.7429  1.9498
  670MOL0     H88404   1.744   5.512   7.065  0.4705  0.3680 -0.7990
  670MOL0     H88405   1.532   5.645   7.065 -1.4026  0.9092  0.0085
  670MOL0     H88406   1.539   6.084   7.109 -1.0521 -0.3993 -2.2345
  670MOL0     H88407   1.511   6.023   7.270 -2.7456  1.8358  0.3633
  670MOL0     H88408   1.329   6.061   7.033 -0.2668 -0.0210  0.5494
  670MOL0     H88409   1.311   6.169   7.164 -1.6428 -0.5417 -1.7152
  670MOL0     H88410   1.265   5.970   7.318 -0.3852 -2.9423 -0.0189
  670MOL0     H88411   1.230   5.875   7.174  0.7752 -0.3656  1.0288
  670MOL0     H88412   1.086   6.119   7.287 -2.5104  0.1344 -0.7116
  670MOL0     H88413   1.080   6.078   7.112 -2.9579 -2.8200 -0.6644
  670MOL0     H88414   0.981   5.893   7.331 -0.7952 -1.7417 -0.8202
  670MOL0     H88415   0.984   5.870   7.153 -0.4418  1.3227 -0.9904
  670MOL0     H88416   0.828   6.052   7.117  0.8406 -0.2848  0.0159
  670MOL0     H88417   0.820   6.084   7.289 -0.6245 -1.1188  1.3185
  670MOL0     H88418   0.763   5.826   7.155 -1.8893  3.2680 -3.4659
  670MOL0     H88419   0.749   5.850   7.335 -0.8592  1.0416  0.7456
  670MOL0     H88420   0.518   5.869   7.206 -2.5448  1.2658 -1.8993
  670MOL0     H88421   0.588   6.013   7.128 -1.4327 -3.7578 -1.6732
  670MOL0     H88422   1.757   5.987   7.173  2.0100 -0.4754 -0.7650
  670MOL0     H88423   1.965   5.859   7.175  2.0166 -2.4764 -0.3538
  670MOL0     H88424   2.267   5.540   7.437 -1.3928  1.1015 -0.9371
  670MOL0     H88425   2.432   5.393   7.414 -3.0945 -0.7055  0.8293
  670MOL0     H88426   3.808   4.683   6.184  1.8449 -0.9361 -0.9877
  670MOL0     H88427   4.005   4.602   6.125  0.2266 -1.4795 -2.0190
  670MOL0     H88428   4.274   4.255   6.105 -2.1798  0.5697 -0.1692
  670MOL0     H88429   4.483   4.213   5.980  2.4829  1.8627 -0.5771
  670MOL0     H88430   4.664   4.165   5.908 -2.7743  0.5543 -4.1083
  670MOL0     H88431   4.824   4.237   5.872  0.3958 -0.0151  0.3822
  670MOL0     H88432   4.549   4.370   5.830  0.3146  0.3198  0.4271
  670MOL0     H88433   4.695   4.417   5.751 -0.1271 -0.3549 -2.2853
  670MOL0     H88434   4.726   4.224   5.640  0.8175 -1.6272  1.7782
  670MOL0     H88435   4.576   4.307   5.593 -0.8179 -0.2061  0.3206
  670MOL0     H88436   4.549   4.048   5.586 -0.2343 -0.4799  0.8028
  670MOL0     H88437   4.587   4.045   5.750 -0.6370 -1.8457 -0.5111
  670MOL0     H88438   4.181   4.162   5.738  0.0450  0.6796 -2.0496
  670MOL0     H88439   4.682   4.508   6.198  1.9249 -1.5058 -3.3156
  670MOL0     H88440   4.464   4.589   6.290 -2.2714  0.7160 -1.9199
  671MOL0     O88441  10.805   1.384   7.872 -0.9396  0.1422  0.1385
  671MOL0     C88442  10.736   1.437   7.784 -0.1884  0.6072  0.7926
  671MOL0     O88443  10.759   1.554   7.727 -0.4311  1.0679 -0.2254
  671MOL0     C88444  10.881   1.608   7.748 -0.3236 -0.1141  0.2001
  671MOL0     C88445  10.973   1.611   7.649 -0.1017  0.5567 -0.3457
  671MOL0     C88446  11.093   1.687   7.669 -0.0452  0.6523  0.6757
  671MOL0     C88447  11.112   1.772   7.781 -0.1615 -0.3530  0.2733
  671MOL0     O88448  11.223   1.849   7.796  0.7041  0.0904 -0.7725
  671MOL0     C88449  11.305   1.862   7.683 -0.2671 -0.8563  0.2765
  671MOL0     C88450  11.397   1.985   7.712  0.7957  0.2455 -0.9581
  671MOL0     C88451  11.485   2.026   7.594  1.0563 -0.3581 -0.6134
  671MOL0     C88452  11.626   2.077   7.643  0.8935  0.9356 -0.2026
  671MOL0     C88453  11.694   2.155   7.537 -0.0947  0.3569  0.5884
  671MOL0     C88454  11.850   2.147   7.552  0.1430 -0.2016  0.1381
  671MOL0     C88455  11.934   2.173   7.424  0.7531 -0.2105 -0.0145
  671MOL0     C88456  11.950   2.061   7.320 -0.7411 -0.9365 -0.4248
  671MOL0     N88457  12.069   2.091   7.239  0.8974 -0.2353 -0.0890
  671MOL0     C88458  12.080   2.203   7.159 -0.7158  0.0945  0.7220
  671MOL0     C88459  12.201   2.183   7.094 -0.5354 -0.1927  0.7416
  671MOL0     C88460  12.275   2.260   6.985 -0.0293  0.4064 -0.9330
  671MOL0     C88461  12.370   2.361   7.043 -0.6949  0.3175  0.4278
  671MOL0     C88462  12.487   2.298   7.122  0.0072  0.0137 -0.0397
  671MOL0     C88463  12.569   2.408   7.193 -0.4596  0.3925 -0.6553
  671MOL0     O88464  12.684   2.346   7.256  0.5745  0.4592 -0.1945
  671MOL0     C88465  12.816   2.355   7.213  0.2888 -0.1924 -0.1849
  671MOL0     C88466  12.863   2.469   7.160 -0.0811 -0.0582 -0.0168
  671MOL0     C88467  12.993   2.473   7.112  0.5218  0.5248 -0.0803
  671MOL0     C88468  13.085   2.359   7.122  0.0925 -0.6362 -0.1206
  671MOL0     C88469  13.231   2.375   7.078 -0.3282 -0.9104 -0.2452
  671MOL0     O88470  13.309   2.262   7.087  0.4883  0.0172 -0.1975
  671MOL0     C88471  13.437   2.263   7.046 -0.2720  0.1778  0.3364
  671MOL0     C88472  13.524   2.353   7.103  0.2011 -0.2547  0.8685
  671MOL0     C88473  13.664   2.356   7.070  0.1721  0.4181 -0.2771
  671MOL0     C88474  13.711   2.264   6.980  0.3775 -0.2503  0.0796
  671MOL0     O88475  13.840   2.246   6.939  0.0994 -0.5345  0.3199
  671MOL0     C88476  13.936   2.336   6.985  0.0426 -0.5846 -0.1087
  671MOL0     C88477  14.075   2.304   6.950 -0.1336  0.7611  0.7039
  671MOL0     C88478  14.173   2.416   6.986 -0.0888  0.1464 -0.5292
  671MOL0     C88479  14.187   2.442   7.135  0.4201  0.4291 -0.3444
  671MOL0     C88480  14.297   2.350   7.188  0.3997  0.7566  0.6628
  671MOL0     C88481  14.315   2.363   7.343 -0.3474  0.9987 -0.0124
  671MOL0     C88482  14.360   2.505   7.401  0.4925  0.7091 -0.2584
  671MOL0     C88483  14.493   2.564   7.335  0.6981  0.2747 -0.0867
  671MOL0    Cl88484  14.620   2.474   7.418 -0.0205 -0.5808 -0.1695
  671MOL0     C88485  13.618   2.170   6.924 -0.7068 -0.3479  0.4609
  671MOL0     C88486  13.485   2.162   6.960 -0.6013 -0.4141 -0.6096
  671MOL0     O88487  13.269   2.482   7.029 -0.1589  0.0589  0.5949
  671MOL0     C88488  13.038   2.247   7.192 -0.2434  0.5458  0.8379
  671MOL0     C88489  12.905   2.257   7.241 -0.1394 -0.6571  0.6712
  671MOL0     N88490  12.250   2.062   7.139  0.0185 -0.3871 -0.4378
  671MOL0     N88491  12.170   2.000   7.229 -0.1471  0.0686  0.7668
  671MOL0     C88492  11.016   1.763   7.889 -0.1519  0.0304  0.1934
  671MOL0     C88493  10.901   1.679   7.864 -1.2675 -0.0968 -0.7817
  671MOL0     C88494  10.602   1.378   7.757 -0.0834 -0.1756 -0.6311
  671MOL0     C88495  10.565   1.249   7.802 -0.9188 -0.0040  0.1932
  671MOL0     C88496  10.441   1.192   7.781 -0.1842  0.0987  0.1724
  671MOL0     C88497  10.352   1.261   7.705  0.2076  0.4451  0.0047
  671MOL0     O88498  10.235   1.193   7.676  0.2403  0.6120 -0.5001
  671MOL0     C88499  10.126   1.265   7.630  0.6070  0.2077  0.4627
  671MOL0     C88500  10.001   1.171   7.653  0.0285  0.8390  0.4905
  671MOL0     C88501  10.020   1.028   7.591 -0.4805  0.0074 -0.5115
  671MOL0     C88502   9.892   0.955   7.591 -0.6117 -0.5676  0.1382
  671MOL0     C88503   9.853   0.921   7.725  0.4629  0.2032 -0.5670
  671MOL0     C88504   9.788   0.893   7.830 -0.1346  0.4055  0.2869
  671MOL0     C88505  10.384   1.391   7.656  0.3433  0.1871  0.6681
  671MOL0     C88506  10.510   1.458   7.687  1.2407  0.1009  0.9927
  671MOL0     H88507  10.960   1.535   7.572  1.9138 -0.5166  0.3002
  671MOL0     H88508  11.163   1.671   7.587  1.3877 -1.0671  2.1642
  671MOL0     H88509  11.246   1.884   7.594 -0.3434 -2.0819  0.0183
  671MOL0     H88510  11.361   1.770   7.663 -0.3972 -0.5366 -1.7609
  671MOL0     H88511  11.463   1.969   7.798 -1.8938 -1.5819  0.8958
  671MOL0     H88512  11.344   2.076   7.740  1.7966  0.8293 -0.8997
  671MOL0     H88513  11.439   2.105   7.534 -0.8270 -1.9049 -1.3102
  671MOL0     H88514  11.482   1.946   7.520 -2.6922  0.3623 -1.4344
  671MOL0     H88515  11.616   2.148   7.726 -0.1191  0.6919 -0.1010
  671MOL0     H88516  11.672   1.982   7.671 -2.1016 -1.0767 -1.6247
  671MOL0     H88517  11.648   2.252   7.515  0.7402  0.6044 -0.1220
  671MOL0     H88518  11.682   2.096   7.446  0.5112 -0.4862  1.0415
  671MOL0     H88519  11.873   2.048   7.592  0.6307  0.1653  0.7873
  671MOL0     H88520  11.877   2.224   7.625 -1.5991  2.5214 -1.9167
  671MOL0     H88521  11.893   2.258   7.369  0.6365  0.9757  1.8305
  671MOL0     H88522  12.030   2.206   7.466 -0.1861  2.5300  0.1634
  671MOL0     H88523  11.855   2.047   7.267 -0.0701  0.5786 -2.1756
  671MOL0     H88524  11.960   1.960   7.359  1.1927 -0.6206 -0.0294
  671MOL0     H88525  12.012   2.285   7.140  0.3276  0.7883 -0.1444
  671MOL0     H88526  12.208   2.319   6.923  1.3838  5.3168  1.6869
  671MOL0     H88527  12.328   2.181   6.931 -2.5203 -1.7280 -0.4106
  671MOL0     H88528  12.311   2.425   7.109 -2.2657 -0.6277 -0.0046
  671MOL0     H88529  12.406   2.414   6.954 -1.7083  0.2963 -0.0136
  671MOL0     H88530  12.448   2.224   7.193  0.0332  2.7374  3.0655
  671MOL0     H88531  12.551   2.244   7.051  0.3791 -2.0646  1.7691
  671MOL0     H88532  12.522   2.460   7.277  0.0510  1.3646 -0.9603
  671MOL0     H88533  12.584   2.497   7.132 -4.0758  1.0648 -0.7748
  671MOL0     H88534  12.800   2.556   7.175 -0.0194  0.0590 -0.4177
  671MOL0     H88535  13.022   2.572   7.078  0.4505  1.3875  2.1906
  671MOL0     H88536  13.486   2.416   7.183 -2.8830 -1.0478  0.1598
  671MOL0     H88537  13.735   2.418   7.124 -0.5835  0.5756  0.5561
  671MOL0     H88538  13.924   2.341   7.094  0.2745 -0.7816 -0.0728
  671MOL0     H88539  13.912   2.433   6.943  1.2815 -0.7329 -1.2218
  671MOL0     H88540  14.084   2.276   6.845 -2.6188  0.1892  0.5968
  671MOL0     H88541  14.103   2.212   7.002 -0.0398 -1.6698 -3.2723
  671MOL0     H88542  14.123   2.505   6.947  0.2991  0.8930  0.6449
  671MOL0     H88543  14.271   2.394   6.943  0.4608 -0.3110  0.9069
  671MOL0     H88544  14.218   2.546   7.148 -0.9261  1.1562 -2.3972
  671MOL0     H88545  14.096   2.430   7.195  0.7542  0.9102  0.2674
  671MOL0     H88546  14.398   2.367   7.148  0.1956  0.6394  0.0794
  671MOL0     H88547  14.261   2.248   7.171 -1.2796  1.4932 -0.5247
  671MOL0     H88548  14.377   2.282   7.381 -2.0705  0.6263  2.2237
  671MOL0     H88549  14.218   2.347   7.391 -0.9607  2.3144 -0.7486
  671MOL0     H88550  14.275   2.574   7.395  0.0273  0.6797  3.6376
  671MOL0     H88551  14.379   2.496   7.508  1.1840  0.9273 -0.3594
  671MOL0     H88552  14.521   2.668   7.353  0.3150  0.0868  1.8232
  671MOL0     H88553  14.493   2.548   7.227 -0.7007  5.1886 -1.0610
  671MOL0     H88554  13.646   2.089   6.858 -3.6019 -1.5077  0.5421
  671MOL0     H88555  13.416   2.083   6.931 -2.2242  0.4767  0.6898
  671MOL0     H88556  13.104   2.162   7.213 -2.0891 -1.0709  0.3869
  671MOL0     H88557  12.882   2.172   7.304 -0.3628 -2.7442 -2.0082
  671MOL0     H88558  11.022   1.827   7.976 -2.2484  2.6463 -1.4420
  671MOL0     H88559  10.823   1.666   7.938 -0.4890  2.4219  0.6268
  671MOL0     H88560  10.631   1.183   7.858 -2.4963 -1.0242  0.8962
  671MOL0     H88561  10.416   1.097   7.827 -2.1354  1.2645  1.6313
  671MOL0     H88562  10.143   1.296   7.526 -1.0777  3.1837  0.9795
  671MOL0     H88563  10.113   1.356   7.689  0.2511 -0.4263  1.3862
  671MOL0     H88564   9.974   1.167   7.759 -0.2817  2.7072  0.5144
  671MOL0     H88565   9.921   1.215   7.593 -0.9579 -1.1621  0.2558
  671MOL0     H88566  10.098   0.970   7.640  4.0241  3.5824 -2.6635
  671MOL0     H88567  10.050   1.041   7.487 -0.5848  0.7962 -0.4499
  671MOL0     H88568   9.812   1.004   7.537  0.7872 -0.9752 -2.4597
  671MOL0     H88569   9.911   0.870   7.525  0.0700 -0.3046 -0.0240
  671MOL0     H88570   9.736   0.883   7.923  0.2207  0.5429  0.5004
  671MOL0     H88571  10.313   1.445   7.594 -0.7835 -1.3092  0.6327
  671MOL0     H88572  10.537   1.555   7.646 -0.6235  0.6696  0.9960
  672MOL0     O88573  11.270   8.905   9.358  0.4219  0.3703  1.0637
  672MOL0     C88574  11.340   8.858   9.450 -0.2145  1.0124  0.6797
  672MOL0     O88575  11.285   8.822   9.572 -0.4637 -0.2878  0.1932
  672MOL0     C88576  11.154   8.816   9.612 -0.3675  0.6478 -1.1568
  672MOL0     C88577  11.120   8.725   9.712  0.4308  0.0171  0.0764
  672MOL0     C88578  10.987   8.696   9.739  0.5999  0.8001 -0.1964
  672MOL0     C88579  10.882   8.761   9.671 -0.0567 -1.3453 -0.2784
  672MOL0     O88580  10.753   8.726   9.664  1.0897  0.6352  0.1739
  672MOL0     C88581  10.701   8.592   9.708  0.4359 -0.2102  0.1703
  672MOL0     C88582  10.672   8.597   9.855  0.7297 -0.7905  0.2544
  672MOL0     C88583  10.537   8.654   9.869 -0.0100 -0.1804 -0.0339
  672MOL0     C88584  10.481   8.676  10.013 -0.1913  1.1055 -0.6244
  672MOL0     C88585  10.327   8.668  10.021 -0.1670 -0.1038  0.3501
  672MOL0     C88586  10.262   8.769   9.929 -0.5125 -0.9863  1.3189
  672MOL0     C88587  10.106   8.725   9.909 -0.6139 -0.4359 -0.0734
  672MOL0     C88588  10.019   8.841   9.970 -0.2509  0.7994  0.1717
  672MOL0     N88589   9.881   8.803   9.937  0.3214 -0.2780  0.0325
  672MOL0     C88590   9.821   8.818   9.811  0.2268 -0.2588  0.2776
  672MOL0     C88591   9.704   8.755   9.825  0.0067 -0.2018  1.3667
  672MOL0     C88592   9.596   8.759   9.711  0.0410  0.0934  0.3986
  672MOL0     C88593   9.466   8.685   9.742 -0.6310  0.1628  0.5532
  672MOL0     C88594   9.359   8.709   9.634 -0.2952  0.2422 -0.1053
  672MOL0     C88595   9.226   8.641   9.659 -0.2126 -0.8967 -0.7762
  672MOL0     O88596   9.145   8.736   9.733 -0.3306 -0.9630  0.3157
  672MOL0     C88597   9.008   8.727   9.733  0.0163  0.3748  0.4909
  672MOL0     C88598   8.945   8.823   9.807  0.6698  0.5978 -0.4268
  672MOL0     C88599   8.804   8.817   9.833 -1.5597 -0.0159  0.3164
  672MOL0     C88600   8.733   8.711   9.782  0.2595 -0.4264  0.4640
  672MOL0     C88601   8.585   8.700   9.808  0.6787  0.4855 -0.3442
  672MOL0     O88602   8.527   8.766   9.899  1.0473 -0.1470 -0.7249
  672MOL0     C88603   8.389   8.749   9.924 -0.1198 -0.1462  0.3429
  672MOL0     C88604   8.307   8.838   9.858 -0.0246  0.6298  0.3097
  672MOL0     C88605   8.166   8.825   9.859  0.3546  0.0813  0.2602
  672MOL0     C88606   8.104   8.711   9.919 -0.8877  0.1518 -0.1063
  672MOL0     O88607   7.966   8.690   9.904 -1.3849 -0.4583 -0.1587
  672MOL0     C88608   7.896   8.608   9.994 -0.6845  0.5915  0.6555
  672MOL0     C88609   7.750   8.575   9.947  0.2287 -0.4632 -0.4561
  672MOL0     C88610   7.664   8.697   9.895 -0.5357  0.0417  0.0831
  672MOL0     C88611   7.519   8.653   9.898 -0.1170  0.0769 -0.5790
  672MOL0     C88612   7.429   8.771   9.861 -0.7362 -0.0846 -0.2505
  672MOL0     C88613   7.279   8.727   9.867 -0.3071 -0.4150 -0.0566
  672MOL0     C88614   7.234   8.624   9.777  0.0930  0.1674  0.1556
  672MOL0     C88615   7.082   8.617   9.751  0.0850 -0.1351 -0.0136
  672MOL0    Cl88616   7.049   8.505   9.615  0.2157  0.1535 -0.2481
  672MOL0     C88617   8.195   8.625   9.982 -0.8825  0.5954 -0.7587
  672MOL0     C88618   8.332   8.647   9.997  0.1456 -0.3812 -0.1648
  672MOL0     O88619   8.526   8.625   9.726  0.4120 -0.3985 -0.0820
  672MOL0     C88620   8.797   8.615   9.710  0.6716  0.3610  0.4929
  672MOL0     C88621   8.935   8.616   9.685  1.1479  0.2416 -0.4275
  672MOL0     N88622   9.701   8.699   9.952  0.4803  0.4152  0.2544
  672MOL0     N88623   9.818   8.720  10.016  0.4597 -0.2353  0.0678
  672MOL0     C88624  10.924   8.867   9.586  0.0692  0.7919 -0.1909
  672MOL0     C88625  11.058   8.898   9.561  0.3177 -0.1579 -1.3076
  672MOL0     C88626  11.492   8.840   9.429  0.0702  0.8880 -0.4314
  672MOL0     C88627  11.561   8.765   9.528  0.6919 -0.5124 -0.3422
  672MOL0     C88628  11.697   8.742   9.518 -0.3661  0.1170 -0.0798
  672MOL0     C88629  11.780   8.796   9.421  0.5439 -0.0386 -1.0288
  672MOL0     O88630  11.907   8.767   9.432 -0.5734  0.1237  0.3712
  672MOL0     C88631  11.966   8.713   9.315  0.3361  0.7248  0.0328
  672MOL0     C88632  12.084   8.630   9.356 -0.1303  0.8044 -0.4232
  672MOL0     C88633  12.180   8.712   9.437 -1.4439  0.2295 -0.0864
  672MOL0     C88634  12.323   8.655   9.416 -1.0667  0.8474  0.2122
  672MOL0     C88635  12.326   8.505   9.440 -0.1742  0.0382  0.1738
  672MOL0     C88636  12.328   8.384   9.448 -0.2992  0.3591 -0.4708
  672MOL0     C88637  11.706   8.875   9.324 -0.6834 -0.2812 -0.2440
  672MOL0     C88638  11.564   8.894   9.328 -0.0285 -0.2647  0.0738
  672MOL0     H88639  11.194   8.665   9.763  0.5088  2.1823  2.6812
  672MOL0     H88640  10.966   8.623   9.817 -2.0929  1.5214 -0.1691
  672MOL0     H88641  10.789   8.529   9.688  3.1725  3.2885  0.2337
  672MOL0     H88642  10.613   8.555   9.654  1.4493  1.3666 -2.7619
  672MOL0     H88643  10.751   8.653   9.906  1.0073 -2.5582  1.8746
  672MOL0     H88644  10.679   8.503   9.910  1.2807  2.0201  5.7630
  672MOL0     H88645  10.464   8.591   9.816  0.9646 -1.4301  0.0605
  672MOL0     H88646  10.539   8.749   9.815 -2.0934  0.5569  1.0520
  672MOL0     H88647  10.514   8.593  10.076  0.2801  1.2931 -0.6190
  672MOL0     H88648  10.514   8.766  10.067 -0.8201 -0.0702  1.8649
  672MOL0     H88649  10.292   8.690  10.122 -0.3936 -2.8114  0.9450
  672MOL0     H88650  10.304   8.565   9.993  2.3802 -0.4430 -0.8012
  672MOL0     H88651  10.290   8.768   9.823 -3.9116  2.6961  0.1366
  672MOL0     H88652  10.271   8.872   9.966 -3.4128 -1.2390  3.0714
  672MOL0     H88653  10.091   8.737   9.802  0.6553  3.4325  0.0181
  672MOL0     H88654  10.082   8.626   9.951  2.4902 -0.0303  3.1750
  672MOL0     H88655  10.037   8.942   9.931  0.5628  1.0545  1.1425
  672MOL0     H88656  10.039   8.838  10.077  0.0489 -2.2475  0.1239
  672MOL0     H88657   9.856   8.862   9.718  0.6482 -2.3030 -0.5883
  672MOL0     H88658   9.639   8.715   9.621 -1.8068  1.8472 -1.4741
  672MOL0     H88659   9.575   8.866   9.700 -1.3248  0.2897  3.7616
  672MOL0     H88660   9.423   8.713   9.838  0.6289  0.6305  1.0050
  672MOL0     H88661   9.486   8.578   9.753  1.1268  0.6216  2.4431
  672MOL0     H88662   9.339   8.813   9.610 -1.5458  0.1581  0.4987
  672MOL0     H88663   9.403   8.655   9.549  0.9723 -1.8481  1.7544
  672MOL0     H88664   9.243   8.557   9.727 -1.5698 -0.6897 -0.1392
  672MOL0     H88665   9.179   8.609   9.565 -0.1759  2.0407 -1.8787
  672MOL0     H88666   8.997   8.899   9.865  2.3167 -0.7062 -0.1284
  672MOL0     H88667   8.760   8.885   9.905  1.1487 -1.3269  3.4539
  672MOL0     H88668   8.359   8.915   9.801  1.6188 -0.8624 -0.3214
  672MOL0     H88669   8.105   8.887   9.793 -0.3140 -1.4529 -0.6010
  672MOL0     H88670   7.896   8.656  10.092 -0.1062  0.5845  0.6622
  672MOL0     H88671   7.941   8.508   9.989 -2.2543 -0.1330  0.3896
  672MOL0     H88672   7.703   8.531  10.035  1.0615  0.5407  0.5244
  672MOL0     H88673   7.759   8.498   9.869  0.0701  0.1668 -1.1085
  672MOL0     H88674   7.703   8.729   9.797 -1.2605 -2.1871 -1.0064
  672MOL0     H88675   7.673   8.780   9.965 -0.1850 -1.5390  1.9841
  672MOL0     H88676   7.502   8.573   9.825  1.2066 -1.2894  0.5483
  672MOL0     H88677   7.495   8.612   9.996  1.1926 -2.2709 -1.1653
  672MOL0     H88678   7.456   8.804   9.760  0.9577  0.9147  0.4719
  672MOL0     H88679   7.442   8.856   9.929 -0.5285 -1.1261  1.0550
  672MOL0     H88680   7.227   8.820   9.840 -0.5266 -0.4393  0.2756
  672MOL0     H88681   7.249   8.706   9.970 -1.3928 -0.3991 -0.3579
  672MOL0     H88682   7.278   8.639   9.678 -1.2651 -1.5207 -0.7476
  672MOL0     H88683   7.253   8.525   9.818 -0.2201  1.0943  2.7703
  672MOL0     H88684   7.056   8.717   9.715 -0.8959 -0.6467 -0.8170
  672MOL0     H88685   7.034   8.591   9.845 -0.2185 -2.7717 -0.8019
  672MOL0     H88686   8.173   8.526  10.021 -0.3034  1.1681  1.1641
  672MOL0     H88687   8.410   8.584  10.038 -0.0707  0.4464  1.6217
  672MOL0     H88688   8.744   8.536   9.659 -0.8276  1.3847  0.4127
  672MOL0     H88689   8.969   8.538   9.617 -2.7407 -0.6060 -1.6812
  672MOL0     H88690  10.851   8.932   9.539  1.4033  0.2248 -3.3180
  672MOL0     H88691  11.077   8.975   9.488 -0.5665  0.9294 -0.4246
  672MOL0     H88692  11.505   8.720   9.609 -2.7134  0.8162 -1.7677
  672MOL0     H88693  11.726   8.668   9.591 -0.7810 -3.1568 -2.9782
  672MOL0     H88694  11.997   8.793   9.247 -0.0322 -1.5898 -3.0544
  672MOL0     H88695  11.905   8.641   9.262  1.5578  1.0776 -1.9543
  672MOL0     H88696  12.060   8.544   9.419  2.1151  0.6825  0.3537
  672MOL0     H88697  12.126   8.591   9.263  2.4180 -0.7093  1.2403
  672MOL0     H88698  12.163   8.714   9.545  0.2847 -1.7934  0.2944
  672MOL0     H88699  12.193   8.811   9.393  0.4063 -0.6323 -1.6289
  672MOL0     H88700  12.362   8.677   9.316 -1.5432 -0.5011 -0.2870
  672MOL0     H88701  12.390   8.708   9.485 -1.1890  0.2384  0.8168
  672MOL0     H88702  12.328   8.277   9.439 -0.0389  0.3403 -0.2596
  672MOL0     H88703  11.761   8.907   9.235 -3.2547  0.6852 -1.6099
  672MOL0     H88704  11.508   8.937   9.245 -0.1849 -0.9814 -0.1993
  673MOL0     O88705   5.111   1.485   5.445 -0.4473  0.0286  0.0634
  673MOL0     C88706   5.194   1.497   5.352  0.2826 -0.2645  0.9369
  673MOL0     O88707   5.163   1.544   5.228  0.0653  0.4664 -0.5700
  673MOL0     C88708   5.032   1.582   5.200 -0.3434  0.1128  0.2482
  673MOL0     C88709   4.952   1.481   5.158  0.1640 -0.0172 -0.3756
  673MOL0     C88710   4.823   1.511   5.112 -1.4817 -0.0780  0.7137
  673MOL0     C88711   4.771   1.643   5.117 -0.0502  0.1696 -0.4558
  673MOL0     O88712   4.640   1.679   5.087 -0.4095 -0.7238 -0.0646
  673MOL0     C88713   4.579   1.594   4.977  0.1575  0.6855  0.4541
  673MOL0     C88714   4.445   1.665   4.918 -0.1781  0.0303  0.2433
  673MOL0     C88715   4.379   1.587   4.807  1.0741  0.2317  0.6063
  673MOL0     C88716   4.453   1.567   4.675 -0.0276 -0.0244 -0.0760
  673MOL0     C88717   4.366   1.525   4.552  0.8444 -0.0368  0.2358
  673MOL0     C88718   4.358   1.629   4.447 -0.1612  0.0721 -0.0146
  673MOL0     C88719   4.261   1.742   4.492 -0.0595  0.0076 -0.5774
  673MOL0     C88720   4.244   1.863   4.395 -0.7244  0.6283 -0.1299
  673MOL0     N88721   4.147   1.834   4.295 -0.6035 -1.1413  0.2900
  673MOL0     C88722   4.021   1.903   4.279  0.1093  0.5041  0.3097
  673MOL0     C88723   3.986   1.886   4.146 -0.4906 -0.6213 -0.1707
  673MOL0     C88724   3.868   1.942   4.079 -0.0430  1.0047 -0.2139
  673MOL0     C88725   3.767   1.844   3.997  0.8668 -0.6570  0.1373
  673MOL0     C88726   3.685   1.760   4.093  0.3571  0.6114  0.2019
  673MOL0     C88727   3.599   1.845   4.178 -0.4548  0.8871  0.8608
  673MOL0     O88728   3.520   1.941   4.096 -0.1592 -0.1758  0.5872
  673MOL0     C88729   3.394   1.895   4.087 -0.2812 -1.1362 -0.3742
  673MOL0     C88730   3.352   1.801   3.984 -0.4061 -0.1200 -0.0592
  673MOL0     C88731   3.225   1.756   3.991  0.8159  1.0185  0.2024
  673MOL0     C88732   3.128   1.809   4.079 -0.0758  0.3591 -0.1680
  673MOL0     C88733   2.988   1.762   4.075 -0.3935  0.0603  0.4718
  673MOL0     O88734   2.961   1.643   4.007  0.4217 -0.7548  0.0267
  673MOL0     C88735   2.834   1.621   3.971  0.4366  1.1175 -1.3139
  673MOL0     C88736   2.760   1.533   4.054 -0.2254  0.0122 -0.1361
  673MOL0     C88737   2.625   1.500   4.039  0.1948  0.2297 -0.1095
  673MOL0     C88738   2.558   1.556   3.924  0.0578  0.3924 -0.9774
  673MOL0     O88739   2.425   1.534   3.921  0.2178 -0.0145  0.6745
  673MOL0     C88740   2.338   1.615   3.843  0.2365  0.0131  0.1471
  673MOL0     C88741   2.184   1.580   3.837 -1.4132 -0.3617 -0.4647
  673MOL0     C88742   2.114   1.673   3.744  0.9079 -0.3408 -0.5097
  673MOL0     C88743   1.979   1.616   3.709  0.3546  0.3093  0.1530
  673MOL0     C88744   1.927   1.677   3.581 -0.2368  1.2874  0.2259
  673MOL0     C88745   1.785   1.620   3.543 -1.1564  0.7050  0.3676
  673MOL0     C88746   1.732   1.651   3.402 -0.5453 -1.2330  0.2786
  673MOL0     C88747   1.766   1.793   3.346  0.1303  1.5521  0.7277
  673MOL0    Cl88748   1.719   1.933   3.450  0.1979 -0.4880 -0.5998
  673MOL0     C88749   2.635   1.634   3.838  0.1597 -0.0642 -0.1529
  673MOL0     C88750   2.773   1.672   3.859 -0.0554 -0.0282  0.1978
  673MOL0     O88751   2.905   1.835   4.123  0.4605 -0.1585  0.7454
  673MOL0     C88752   3.163   1.914   4.167  0.1511  0.7021  0.0099
  673MOL0     C88753   3.298   1.954   4.176  0.1444 -0.2754  0.8371
  673MOL0     N88754   4.093   1.822   4.084  0.8519 -0.6728 -0.1367
  673MOL0     N88755   4.183   1.789   4.172  0.0044  0.0443  0.0452
  673MOL0     C88756   4.854   1.750   5.170  0.9256  0.0999 -0.1093
  673MOL0     C88757   4.976   1.711   5.212  0.0804 -0.4630  0.4072
  673MOL0     C88758   5.320   1.438   5.358  0.1680 -0.9332  1.0286
  673MOL0     C88759   5.327   1.309   5.412  0.1282 -0.2262 -0.4389
  673MOL0     C88760   5.451   1.246   5.406  0.7319  0.1774  0.1276
  673MOL0     C88761   5.561   1.300   5.351 -0.5982 -0.1442 -0.8054
  673MOL0     O88762   5.671   1.224   5.383 -0.2236  0.0194 -0.8204
  673MOL0     C88763   5.807   1.251   5.334 -0.0197  0.3006 -0.3072
  673MOL0     C88764   5.817   1.200   5.191  0.1325  0.2876 -0.3628
  673MOL0     C88765   5.790   1.055   5.175  1.0689  0.8373 -0.1955
  673MOL0     C88766   5.838   0.997   5.037 -0.5321 -0.3721  0.6209
  673MOL0     C88767   5.726   1.005   4.932  0.4838  0.8796  0.2061
  673MOL0     C88768   5.636   1.015   4.842  0.3098  0.3815 -0.7981
  673MOL0     C88769   5.562   1.426   5.287  0.4234  0.6566 -0.6535
  673MOL0     C88770   5.435   1.491   5.289  0.4476  1.0000  0.0653
  673MOL0     H88771   5.001   1.385   5.165 -1.9531 -1.2043 -1.0908
  673MOL0     H88772   4.764   1.424   5.084 -2.3713  1.6917 -3.8555
  673MOL0     H88773   4.548   1.501   5.026 -3.2420  0.8369 -1.1489
  673MOL0     H88774   4.657   1.574   4.904 -1.2570 -1.3356 -0.5827
  673MOL0     H88775   4.475   1.762   4.878 -0.8608 -0.5246 -1.7169
  673MOL0     H88776   4.383   1.670   5.009  2.9964 -2.0565  2.7503
  673MOL0     H88777   4.277   1.621   4.786  0.0831 -0.9453  3.0923
  673MOL0     H88778   4.359   1.487   4.848  4.2343  0.7927  4.0302
  673MOL0     H88779   4.512   1.656   4.653 -0.6155  0.2324 -0.6345
  673MOL0     H88780   4.528   1.493   4.703  1.0560  1.6652  1.8529
  673MOL0     H88781   4.263   1.508   4.584  0.8921  0.2919  0.5627
  673MOL0     H88782   4.408   1.431   4.513 -4.4665 -2.9621  0.6023
  673MOL0     H88783   4.314   1.583   4.358  1.1107 -0.3036 -0.4710
  673MOL0     H88784   4.451   1.682   4.422 -2.3371  3.7935 -0.9374
  673MOL0     H88785   4.165   1.695   4.516  0.9640 -1.3969  0.9466
  673MOL0     H88786   4.288   1.787   4.587 -0.2833  0.0952 -0.5532
  673MOL0     H88787   4.344   1.877   4.352  0.1185 -3.4123  0.0617
  673MOL0     H88788   4.218   1.949   4.456 -3.6985  0.5724 -1.1961
  673MOL0     H88789   3.970   1.957   4.357 -2.0746 -1.9461  0.7225
  673MOL0     H88790   3.911   2.009   4.004  0.0285 -0.6459 -1.7366
  673MOL0     H88791   3.810   2.007   4.145 -4.5709 -1.3808 -1.3851
  673MOL0     H88792   3.834   1.785   3.934  0.5532  0.2648 -1.1075
  673MOL0     H88793   3.706   1.901   3.926  0.9283 -0.8176 -0.0446
  673MOL0     H88794   3.632   1.684   4.034  1.5130 -0.3282  0.3462
  673MOL0     H88795   3.752   1.697   4.152  0.4735 -0.2341 -0.7902
  673MOL0     H88796   3.664   1.905   4.243  1.7742 -1.1380  0.6735
  673MOL0     H88797   3.542   1.789   4.252 -1.5925  2.6384  1.3747
  673MOL0     H88798   3.417   1.770   3.902 -0.6613  2.1656 -1.1974
  673MOL0     H88799   3.190   1.680   3.922 -0.2088  0.1378  1.6288
  673MOL0     H88800   2.809   1.485   4.138  0.1334 -1.1060 -0.9534
  673MOL0     H88801   2.562   1.443   4.107  0.1219  1.9311  1.3245
  673MOL0     H88802   2.367   1.608   3.738 -2.1684  0.9661 -0.6535
  673MOL0     H88803   2.341   1.718   3.881 -0.5068  0.4031 -0.8125
  673MOL0     H88804   2.143   1.580   3.938  0.5393 -1.4930  0.3869
  673MOL0     H88805   2.175   1.481   3.791 -0.6672 -0.4469 -0.4449
  673MOL0     H88806   2.168   1.681   3.649 -0.5330 -3.2868 -1.6889
  673MOL0     H88807   2.101   1.775   3.781 -1.2469 -0.6366 -0.3315
  673MOL0     H88808   1.970   1.507   3.704 -1.3047  0.4272 -0.0332
  673MOL0     H88809   1.924   1.655   3.795  2.1838 -0.0099  1.5349
  673MOL0     H88810   1.991   1.641   3.500 -1.2424  1.0085 -0.4590
  673MOL0     H88811   1.941   1.785   3.570 -2.7215  1.4631 -2.6134
  673MOL0     H88812   1.711   1.658   3.614 -0.3308  0.4419  1.4041
  673MOL0     H88813   1.788   1.510   3.541 -0.4661  0.6983  1.0493
  673MOL0     H88814   1.769   1.570   3.338 -1.7900 -1.2706 -0.4474
  673MOL0     H88815   1.622   1.643   3.405 -0.7625  1.1762  0.5211
  673MOL0     H88816   1.719   1.800   3.247  2.7284  1.4461 -0.5867
  673MOL0     H88817   1.872   1.792   3.321  0.0963  2.8238  0.4888
  673MOL0     H88818   2.577   1.668   3.753  0.0427 -1.6129 -0.7313
  673MOL0     H88819   2.818   1.744   3.791 -2.0824  0.4269 -0.7593
  673MOL0     H88820   3.104   1.969   4.240 -0.0759  1.8212 -0.9938
  673MOL0     H88821   3.333   2.026   4.249  0.5326  0.1505  0.2404
  673MOL0     H88822   4.810   1.850   5.173 -1.9376 -1.0543 -0.4276
  673MOL0     H88823   5.038   1.788   5.256  0.0784 -0.2609  0.0590
  673MOL0     H88824   5.240   1.259   5.452  0.6015 -0.0801  0.7995
  673MOL0     H88825   5.446   1.141   5.432  1.2738  0.0136 -0.4022
  673MOL0     H88826   5.883   1.193   5.386 -0.9453 -2.8165 -2.1556
  673MOL0     H88827   5.840   1.354   5.351  0.9387 -0.0895  0.2370
  673MOL0     H88828   5.763   1.268   5.125  1.4155  0.6998 -1.0008
  673MOL0     H88829   5.919   1.220   5.158  0.0639 -0.4767 -1.0701
  673MOL0     H88830   5.681   1.044   5.188  0.8005 -0.9419 -2.9206
  673MOL0     H88831   5.833   0.995   5.256  0.5487 -1.4007 -1.4651
  673MOL0     H88832   5.929   1.044   5.000 -1.1152  2.8558  2.8729
  673MOL0     H88833   5.851   0.889   5.034 -3.7976 -0.8725 -1.2531
  673MOL0     H88834   5.556   1.023   4.771 -0.3031 -0.6288 -0.2443
  673MOL0     H88835   5.650   1.465   5.238  0.8288  1.0604  0.3568
  673MOL0     H88836   5.426   1.582   5.230 -1.8622  1.9654  1.7258
  674MOL0     O88837   2.239   6.355   9.331  0.0170  0.5808 -0.7227
  674MOL0     C88838   2.152   6.300   9.400 -0.0179  0.5489 -1.9415
  674MOL0     O88839   2.180   6.198   9.497  0.3243  0.6451 -0.0544
  674MOL0     C88840   2.295   6.134   9.481 -0.3343 -0.5729 -0.0985
  674MOL0     C88841   2.381   6.121   9.589  0.7944  0.6922 -0.2943
  674MOL0     C88842   2.504   6.051   9.578 -0.4766 -0.6411  0.2866
  674MOL0     C88843   2.555   6.008   9.458 -0.5955  0.3943 -0.0515
  674MOL0     O88844   2.670   5.937   9.462 -0.2735 -0.4986 -0.1951
  674MOL0     C88845   2.726   5.879   9.346  0.6001  0.3068 -0.0321
  674MOL0     C88846   2.865   5.822   9.382 -0.5432  0.9209  0.0400
  674MOL0     C88847   2.935   5.740   9.264 -0.1823  0.5204 -1.1412
  674MOL0     C88848   2.920   5.814   9.126  0.3729 -0.6598 -0.4076
  674MOL0     C88849   2.958   5.702   9.018  0.8040 -0.9552 -0.0644
  674MOL0     C88850   2.921   5.748   8.871  0.9635 -0.3682  0.1912
  674MOL0     C88851   2.990   5.868   8.823 -0.3049 -0.0233  0.7775
  674MOL0     C88852   2.953   5.897   8.680  0.1173 -0.2961  0.1389
  674MOL0     N88853   2.813   5.934   8.661  0.0384 -0.7795  0.0515
  674MOL0     C88854   2.777   6.058   8.604 -0.6859 -0.0255 -0.5853
  674MOL0     C88855   2.642   6.065   8.597  0.2288 -0.8613 -0.4960
  674MOL0     C88856   2.571   6.193   8.546 -0.1720  0.3939 -0.3158
  674MOL0     C88857   2.460   6.235   8.637 -0.6116  0.1630  1.0398
  674MOL0     C88858   2.387   6.354   8.578  0.2868  0.2487  0.5969
  674MOL0     C88859   2.274   6.390   8.671  0.2022 -0.8256 -0.0506
  674MOL0     O88860   2.323   6.474   8.776 -0.7151 -0.2293 -0.5595
  674MOL0     C88861   2.240   6.536   8.866 -1.0974 -0.2750  0.0656
  674MOL0     C88862   2.293   6.568   8.993  0.0104  0.7896  0.0084
  674MOL0     C88863   2.231   6.636   9.091 -0.7116 -0.4626 -0.0841
  674MOL0     C88864   2.110   6.691   9.062 -0.0208 -0.6167 -0.1074
  674MOL0     C88865   2.024   6.748   9.156 -0.4118  0.7586 -0.1657
  674MOL0     O88866   1.891   6.758   9.130 -1.0267 -0.4196  0.1337
  674MOL0     C88867   1.804   6.838   9.206 -0.1726  0.1289 -0.1617
  674MOL0     C88868   1.831   6.911   9.327  0.2934 -0.8916 -0.3576
  674MOL0     C88869   1.743   7.001   9.393 -0.0150  0.4041  0.9590
  674MOL0     C88870   1.607   7.002   9.352  1.0240  0.5589 -0.5859
  674MOL0     O88871   1.495   7.068   9.403 -0.6969  0.2065  0.6911
  674MOL0     C88872   1.521   7.194   9.474 -0.8228  0.4022  0.6016
  674MOL0     C88873   1.426   7.306   9.423 -0.4125 -0.1492 -0.4755
  674MOL0     C88874   1.287   7.265   9.475 -0.4589 -0.1279 -0.2772
  674MOL0     C88875   1.188   7.366   9.421 -0.0026 -0.3428 -0.0728
  674MOL0     C88876   1.178   7.497   9.486  0.0228 -0.1603 -0.5365
  674MOL0     C88877   1.142   7.492   9.639 -0.4852 -0.3399 -0.6993
  674MOL0     C88878   1.004   7.421   9.664 -0.4506  0.5823 -0.5290
  674MOL0     C88879   0.946   7.452   9.802  0.4303 -0.3183  0.7268
  674MOL0    Cl88880   1.068   7.419   9.924 -0.5514  0.2295  0.0640
  674MOL0     C88881   1.576   6.923   9.241  0.3073 -0.4881 -0.1183
  674MOL0     C88882   1.672   6.842   9.170  0.6359  0.3614 -0.0217
  674MOL0     O88883   2.082   6.800   9.256 -0.0278 -0.2908  0.1764
  674MOL0     C88884   2.046   6.670   8.939 -0.0727 -0.6636 -0.1897
  674MOL0     C88885   2.112   6.596   8.838 -0.4298 -0.2933 -1.1159
  674MOL0     N88886   2.587   5.947   8.638 -0.0964  0.1170 -0.1762
  674MOL0     N88887   2.689   5.871   8.671 -0.4498 -0.3572  0.0524
  674MOL0     C88888   2.471   6.016   9.342  0.3506 -0.5376 -0.9480
  674MOL0     C88889   2.347   6.082   9.359 -0.2901 -0.0915  0.2848
  674MOL0     C88890   2.013   6.352   9.398 -0.8556  0.3472  0.2345
  674MOL0     C88891   1.995   6.487   9.373 -0.0259  0.0161  0.2551
  674MOL0     C88892   1.869   6.541   9.375  0.3695 -0.0609 -1.3932
  674MOL0     C88893   1.759   6.467   9.403  1.1573  0.8467  0.1186
  674MOL0     O88894   1.633   6.528   9.418 -0.0622 -0.2094  0.0823
  674MOL0     C88895   1.575   6.521   9.288 -0.8105  0.2301 -0.3068
  674MOL0     C88896   1.460   6.618   9.279 -0.5519  0.8930  0.3965
  674MOL0     C88897   1.330   6.551   9.325 -0.1885  0.5268  0.0535
  674MOL0     C88898   1.224   6.667   9.339  0.2916 -0.0813 -0.7192
  674MOL0     C88899   1.112   6.603   9.410  0.2562 -0.0281 -0.2565
  674MOL0     C88900   1.013   6.567   9.474  0.4780 -0.2436 -0.7291
  674MOL0     C88901   1.779   6.332   9.447 -0.2217 -0.1295 -0.4373
  674MOL0     C88902   1.906   6.272   9.434  0.6681 -0.0995  0.1499
  674MOL0     H88903   2.346   6.157   9.685 -3.4099  0.2023 -1.4816
  674MOL0     H88904   2.564   6.030   9.666  0.7247  1.2315 -0.0270
  674MOL0     H88905   2.731   5.948   9.262 -5.5219 -0.7234 -1.7206
  674MOL0     H88906   2.653   5.802   9.319  0.8685  0.9919 -3.0555
  674MOL0     H88907   2.868   5.754   9.468 -0.6940 -1.6282 -1.8737
  674MOL0     H88908   2.930   5.908   9.400  2.0715 -1.1128  1.0314
  674MOL0     H88909   2.897   5.637   9.266 -0.0207  0.4650 -0.8081
  674MOL0     H88910   3.041   5.725   9.289 -0.6570 -0.2453  0.6563
  674MOL0     H88911   2.816   5.839   9.102 -0.4235 -2.5510  0.8496
  674MOL0     H88912   2.987   5.900   9.130  0.6228 -0.8605  3.1775
  674MOL0     H88913   2.903   5.609   9.036  3.7927 -2.4415  2.3334
  674MOL0     H88914   3.065   5.683   9.018  1.4902  2.4265  0.1656
  674MOL0     H88915   2.812   5.756   8.870  0.9731  0.8456  2.2688
  674MOL0     H88916   2.949   5.665   8.805  2.9307  0.5665 -0.2347
  674MOL0     H88917   2.953   5.959   8.871 -1.5720 -0.9675  1.6334
  674MOL0     H88918   3.097   5.862   8.846 -0.0156  0.9999 -0.2172
  674MOL0     H88919   2.981   5.808   8.622 -0.8607  0.1099 -1.0043
  674MOL0     H88920   3.018   5.978   8.646  1.6524 -1.6919 -0.3758
  674MOL0     H88921   2.840   6.145   8.586 -0.1802 -0.5013 -1.1518
  674MOL0     H88922   2.532   6.181   8.444  1.2883 -0.1063 -0.8381
  674MOL0     H88923   2.649   6.269   8.544 -0.6016  0.8539 -0.0462
  674MOL0     H88924   2.497   6.267   8.735 -2.7735 -0.8602  2.2625
  674MOL0     H88925   2.393   6.150   8.650 -0.3712  0.3943  4.5892
  674MOL0     H88926   2.456   6.438   8.569 -0.6443  0.9752 -0.0028
  674MOL0     H88927   2.347   6.330   8.479 -0.0117 -2.8682  1.3841
  674MOL0     H88928   2.214   6.304   8.699  0.9718 -1.0983  0.8041
  674MOL0     H88929   2.216   6.466   8.618  2.3481  0.8904 -0.1174
  674MOL0     H88930   2.395   6.536   9.013 -0.9557 -1.4974  1.7892
  674MOL0     H88931   2.271   6.639   9.191 -1.1162  0.7025  0.0542
  674MOL0     H88932   1.929   6.905   9.374  0.7774  3.2006 -0.4980
  674MOL0     H88933   1.779   7.061   9.476  4.1760 -1.8691  1.0658
  674MOL0     H88934   1.626   7.217   9.451  0.3862 -2.9431  2.1261
  674MOL0     H88935   1.517   7.177   9.582  2.4823  1.4649  1.0032
  674MOL0     H88936   1.420   7.305   9.314 -1.0878  1.7125 -0.5004
  674MOL0     H88937   1.469   7.401   9.456 -1.0070 -0.7959  2.4711
  674MOL0     H88938   1.285   7.249   9.583  4.7505 -1.6138 -0.1535
  674MOL0     H88939   1.260   7.169   9.430 -1.5829  0.4172 -0.7937
  674MOL0     H88940   1.211   7.386   9.316 -2.1365  0.1809 -0.4817
  674MOL0     H88941   1.088   7.322   9.418 -0.3712  0.2904  1.6656
  674MOL0     H88942   1.102   7.558   9.437 -0.8004 -0.1307  0.7399
  674MOL0     H88943   1.274   7.547   9.466  1.2492 -1.1816  2.2707
  674MOL0     H88944   1.136   7.598   9.667  0.7227 -0.4334 -0.0532
  674MOL0     H88945   1.220   7.443   9.697  0.9549  0.6930 -1.7041
  674MOL0     H88946   0.933   7.450   9.586 -1.2004 -2.4657 -1.0727
  674MOL0     H88947   1.026   7.314   9.660  2.1054  0.9909  0.4643
  674MOL0     H88948   0.847   7.408   9.820 -0.1497 -0.1731 -1.8080
  674MOL0     H88949   0.924   7.559   9.800 -0.4534 -0.4660  1.5672
  674MOL0     H88950   1.479   6.942   9.196  1.6769  1.5247 -2.4406
  674MOL0     H88951   1.643   6.776   9.088  0.0388  2.3167 -1.4723
  674MOL0     H88952   1.941   6.686   8.919 -0.2377 -0.0909  1.0541
  674MOL0     H88953   2.062   6.579   8.744  1.2035 -0.0490 -2.0678
  674MOL0     H88954   2.496   5.962   9.251  3.9121 -0.4969 -0.1646
  674MOL0     H88955   2.311   6.101   9.259  2.2429  1.6807 -0.3864
  674MOL0     H88956   2.075   6.557   9.353  0.7978 -1.1958 -0.8352
  674MOL0     H88957   1.867   6.649   9.372  0.1699 -0.0368 -4.5743
  674MOL0     H88958   1.546   6.419   9.262 -0.0275 -0.0488 -0.1176
  674MOL0     H88959   1.648   6.553   9.213 -0.7992  1.2166  0.0945
  674MOL0     H88960   1.478   6.707   9.340  1.2005  1.5180 -0.9662
  674MOL0     H88961   1.455   6.645   9.174 -2.4718  1.6334  0.6358
  674MOL0     H88962   1.337   6.512   9.427  2.3354  1.3719  0.2759
  674MOL0     H88963   1.304   6.476   9.250  0.4459 -0.1054  0.4498
  674MOL0     H88964   1.272   6.741   9.405 -0.7425 -0.4372  0.4722
  674MOL0     H88965   1.204   6.715   9.243 -1.1344  0.2466 -0.2926
  674MOL0     H88966   0.917   6.541   9.515  1.8227 -0.4335  2.5646
  674MOL0     H88967   1.702   6.269   9.489  1.7454 -1.4847  1.3788
  674MOL0     H88968   1.917   6.165   9.449 -0.1934 -0.4743 -1.6480
  675MOL0     O88969   6.453   4.217   6.563 -0.0878 -0.5059 -0.0649
  675MOL0     C88970   6.350   4.189   6.623  0.0695  0.1450 -0.8251
  675MOL0     O88971   6.251   4.107   6.581 -0.5776 -0.0489 -0.1433
  675MOL0     C88972   6.257   4.053   6.456 -0.0660 -0.6671 -0.5742
  675MOL0     C88973   6.150   3.959   6.429 -1.3370  0.2263  0.1011
  675MOL0     C88974   6.146   3.881   6.313 -0.6779  0.9004 -0.7077
  675MOL0     C88975   6.244   3.886   6.219 -0.6924  0.4665  0.1933
  675MOL0     O88976   6.242   3.810   6.101  0.7274 -0.5121  0.3364
  675MOL0     C88977   6.355   3.725   6.064 -0.1726 -0.0101  0.2831
  675MOL0     C88978   6.362   3.591   6.121 -0.8341 -0.7245  0.1286
  675MOL0     C88979   6.228   3.522   6.121  0.1778 -0.0335 -0.1920
  675MOL0     C88980   6.185   3.491   5.982 -0.2752 -0.2961  0.4513
  675MOL0     C88981   6.038   3.419   5.987  0.0290  0.1012 -0.4422
  675MOL0     C88982   6.011   3.348   5.855  0.5597  0.1653 -0.3404
  675MOL0     C88983   5.882   3.259   5.865  0.1911  0.3363  0.4991
  675MOL0     C88984   5.848   3.191   5.733  0.5835  0.0544  0.1674
  675MOL0     N88985   5.706   3.139   5.734 -0.2856 -0.1265 -0.3510
  675MOL0     C88986   5.657   3.044   5.828 -0.0294 -0.6282  0.1542
  675MOL0     C88987   5.527   3.020   5.801 -0.6271  0.0094  0.3164
  675MOL0     C88988   5.452   2.926   5.896 -0.6830 -1.0990  0.4294
  675MOL0     C88989   5.329   3.003   5.956 -0.6064 -0.1179  0.7720
  675MOL0     C88990   5.239   2.910   6.044 -0.2397 -1.0383  0.2554
  675MOL0     C88991   5.159   2.991   6.146  0.6059 -0.1941  0.2839
  675MOL0     O88992   5.019   2.946   6.136  0.0795 -0.4843 -0.0024
  675MOL0     C88993   4.974   2.843   6.212  0.4047 -0.3768 -0.5745
  675MOL0     C88994   4.848   2.857   6.267  0.1325  0.8532  0.2568
  675MOL0     C88995   4.791   2.753   6.342  0.5261 -0.4016  0.7587
  675MOL0     C88996   4.872   2.650   6.394 -0.2394 -0.6544  0.7639
  675MOL0     C88997   4.814   2.528   6.470  0.0937  0.5527  0.0303
  675MOL0     O88998   4.674   2.530   6.484  0.0396 -0.4504 -0.1841
  675MOL0     C88999   4.602   2.434   6.557  0.3925  0.0559  0.2532
  675MOL0     C89000   4.477   2.474   6.591  0.2852  0.2198 -0.2750
  675MOL0     C89001   4.388   2.388   6.641 -0.3656 -0.0785 -0.2880
  675MOL0     C89002   4.425   2.252   6.665 -0.2042  0.5173  0.5064
  675MOL0     O89003   4.322   2.166   6.705 -1.0260  0.0217  0.3767
  675MOL0     C89004   4.342   2.105   6.834  0.1942  0.0992 -0.4679
  675MOL0     C89005   4.242   1.985   6.850 -0.4900 -0.7854  0.6607
  675MOL0     C89006   4.104   2.029   6.839 -0.1107  0.6539 -0.5569
  675MOL0     C89007   3.998   1.929   6.895 -0.6430  0.8749  0.0564
  675MOL0     C89008   3.859   1.983   6.895  0.6827 -0.0326 -0.2415
  675MOL0     C89009   3.768   1.869   6.927  1.2145  0.0676 -0.0932
  675MOL0     C89010   3.624   1.905   6.981 -0.4159  0.4340  0.3451
  675MOL0     C89011   3.552   2.009   6.888  0.8608  0.5523  1.3246
  675MOL0    Cl89012   3.521   1.946   6.716  0.1248  0.2269 -0.1555
  675MOL0     C89013   4.550   2.203   6.640 -0.1533  0.6509  0.0014
  675MOL0     C89014   4.638   2.298   6.579 -0.3815  0.4152 -0.5505
  675MOL0     O89015   4.891   2.446   6.531  0.7990  0.2477  0.3022
  675MOL0     C89016   5.009   2.646   6.348  0.6442  0.0538 -1.0750
  675MOL0     C89017   5.055   2.744   6.267 -0.3529  0.0360  0.2717
  675MOL0     N89018   5.496   3.105   5.696 -0.3868 -0.5053  0.3452
  675MOL0     N89019   5.602   3.161   5.655  0.2718 -0.7867 -0.2349
  675MOL0     C89020   6.342   3.988   6.225 -0.3228 -0.2328 -0.3300
  675MOL0     C89021   6.345   4.066   6.349  0.1191 -0.4111  0.0051
  675MOL0     C89022   6.330   4.249   6.757 -1.0369 -0.4165 -0.7661
  675MOL0     C89023   6.202   4.247   6.812 -0.9833 -0.6391  0.7562
  675MOL0     C89024   6.179   4.302   6.929 -0.6043 -0.4137 -0.1971
  675MOL0     C89025   6.275   4.353   7.008 -0.2497 -1.1050 -0.2503
  675MOL0     O89026   6.256   4.382   7.138  0.5002  0.8300  0.0498
  675MOL0     C89027   6.363   4.422   7.232  0.6263 -0.1358 -0.5440
  675MOL0     C89028   6.309   4.390   7.374  0.2963 -0.0156 -0.1120
  675MOL0     C89029   6.185   4.472   7.413  0.5746 -0.3516  0.0722
  675MOL0     C89030   6.061   4.402   7.370  0.2407 -0.2229  0.1267
  675MOL0     C89031   5.943   4.451   7.435  0.7087 -0.4208  1.3300
  675MOL0     C89032   5.839   4.482   7.490 -0.7967  0.7643  0.7005
  675MOL0     C89033   6.404   4.343   6.965 -0.8805 -0.4511  0.5823
  675MOL0     C89034   6.435   4.294   6.837  0.2875  0.6670 -0.5170
  675MOL0     H89035   6.073   3.943   6.504 -1.2228 -0.2169  0.1252
  675MOL0     H89036   6.068   3.807   6.302 -1.7861  1.5525  1.9586
  675MOL0     H89037   6.446   3.784   6.076 -0.5114  1.1140 -2.0488
  675MOL0     H89038   6.352   3.713   5.955  1.1608  0.5628  0.1585
  675MOL0     H89039   6.401   3.608   6.221 -0.7105 -0.0108 -0.0356
  675MOL0     H89040   6.428   3.531   6.058 -1.0908 -0.7308 -0.1396
  675MOL0     H89041   6.152   3.586   6.166  2.4925  1.8159  1.3082
  675MOL0     H89042   6.244   3.432   6.180  0.6417  0.8595  1.0695
  675MOL0     H89043   6.177   3.579   5.917  2.5196 -1.7353 -2.0891
  675MOL0     H89044   6.260   3.431   5.929  1.6866  1.5902  0.9843
  675MOL0     H89045   5.965   3.499   5.995 -0.9430 -0.5213 -2.3859
  675MOL0     H89046   6.031   3.357   6.077 -0.9684  3.2351  1.8174
  675MOL0     H89047   6.091   3.276   5.836  0.8332 -0.0325  1.3634
  675MOL0     H89048   6.013   3.419   5.772  0.4634  0.0915 -0.4051
  675MOL0     H89049   5.903   3.176   5.933 -0.4053 -0.0735  0.1926
  675MOL0     H89050   5.788   3.298   5.904 -0.7891 -2.5064  1.2158
  675MOL0     H89051   5.917   3.107   5.726  1.4884  0.8241 -0.2985
  675MOL0     H89052   5.868   3.255   5.646 -1.8710 -0.7319 -1.0835
  675MOL0     H89053   5.707   3.002   5.915  0.7586  0.5801  0.2958
  675MOL0     H89054   5.523   2.896   5.973  0.5068 -1.2273 -0.6972
  675MOL0     H89055   5.418   2.834   5.849 -2.3995 -0.7008  0.8085
  675MOL0     H89056   5.280   3.041   5.866  3.6895 -1.8194 -2.6792
  675MOL0     H89057   5.367   3.086   6.016 -4.6809  2.3537  0.2847
  675MOL0     H89058   5.162   2.866   5.979 -2.6967  3.0604 -0.0006
  675MOL0     H89059   5.305   2.839   6.094 -0.2647  0.3988  2.4676
  675MOL0     H89060   5.165   3.100   6.135  2.5431 -0.0082  2.3144
  675MOL0     H89061   5.213   2.968   6.238  0.3325  0.9463  0.7483
  675MOL0     H89062   4.795   2.945   6.232 -3.2217 -0.6072  1.2171
  675MOL0     H89063   4.685   2.750   6.363 -0.0808 -0.9552 -1.9948
  675MOL0     H89064   4.444   2.573   6.562  1.5949  0.1936 -2.0536
  675MOL0     H89065   4.286   2.417   6.664  0.1221  0.5441  1.1891
  675MOL0     H89066   4.348   2.177   6.916  1.1306  2.2376 -2.3253
  675MOL0     H89067   4.440   2.057   6.830 -0.4406 -1.2681 -0.3449
  675MOL0     H89068   4.250   1.935   6.947 -0.8699 -2.7299 -0.2648
  675MOL0     H89069   4.250   1.918   6.764 -1.9888  1.1426 -1.0784
  675MOL0     H89070   4.081   2.067   6.739  1.4862 -2.5844 -2.2962
  675MOL0     H89071   4.103   2.118   6.904 -1.1448 -0.6918  1.3917
  675MOL0     H89072   3.994   1.847   6.823 -0.4464  1.8798 -1.1324
  675MOL0     H89073   4.027   1.875   6.986 -0.3919  0.0997 -0.4660
  675MOL0     H89074   3.838   2.029   6.797  1.8696  0.3604 -0.3350
  675MOL0     H89075   3.851   2.055   6.977  3.4030  1.7896 -1.3965
  675MOL0     H89076   3.818   1.800   6.997  3.7580  0.9446 -0.9418
  675MOL0     H89077   3.750   1.806   6.840 -2.1251 -0.0861  0.5967
  675MOL0     H89078   3.559   1.817   6.983 -0.3684  0.3995  0.3701
  675MOL0     H89079   3.631   1.954   7.078  1.8688  1.9657 -0.5016
  675MOL0     H89080   3.620   2.093   6.873  1.0101  0.2359  0.0587
  675MOL0     H89081   3.464   2.051   6.936  0.0943 -1.1539  1.4970
  675MOL0     H89082   4.580   2.101   6.659 -0.8683  0.5960  0.9115
  675MOL0     H89083   4.742   2.275   6.558 -0.2828 -0.5224  0.8522
  675MOL0     H89084   5.069   2.568   6.392 -0.6820 -0.5184 -0.2343
  675MOL0     H89085   5.161   2.738   6.242 -0.1155  1.9714  0.6437
  675MOL0     H89086   6.418   4.002   6.149 -0.5777  0.1988 -0.5091
  675MOL0     H89087   6.429   4.136   6.350  1.0640 -1.4804 -0.9592
  675MOL0     H89088   6.111   4.216   6.762 -2.6537  1.4787  2.3281
  675MOL0     H89089   6.074   4.298   6.958 -0.6325 -2.9102 -0.3932
  675MOL0     H89090   6.393   4.527   7.227  1.2507 -0.3603 -2.2282
  675MOL0     H89091   6.458   4.370   7.217  0.7843 -0.7028  1.9191
  675MOL0     H89092   6.284   4.284   7.366  4.5384 -1.2288  0.3733
  675MOL0     H89093   6.389   4.410   7.446  1.7371  1.3622 -1.9810
  675MOL0     H89094   6.200   4.564   7.354  1.8462  0.1595  1.1450
  675MOL0     H89095   6.175   4.497   7.519 -1.1915 -3.1090  0.6452
  675MOL0     H89096   6.036   4.400   7.263 -1.5088 -1.1976  0.4948
  675MOL0     H89097   6.056   4.293   7.380 -2.5091 -0.5467 -2.9395
  675MOL0     H89098   5.748   4.513   7.537  0.2739 -0.6532  4.0080
  675MOL0     H89099   6.494   4.376   7.016  0.1075 -1.0210 -0.7290
  675MOL0     H89100   6.533   4.286   6.791  0.2002  1.5248 -0.8721
  676MOL0     O89101  10.441   9.153   0.335  0.3696  0.0250 -0.2026
  676MOL0     C89102  10.490   9.049   0.358 -0.6071 -0.0718 -0.5422
  676MOL0     O89103  10.455   8.961   0.462  0.7590  0.1348 -0.6515
  676MOL0     C89104  10.339   8.976   0.535 -0.0818  0.4934  0.5037
  676MOL0     C89105  10.286   8.859   0.589  0.2552 -0.0028  0.2983
  676MOL0     C89106  10.174   8.858   0.672  0.2838  0.5340 -0.1285
  676MOL0     C89107  10.112   8.983   0.706  0.3479  0.1986  1.0776
  676MOL0     O89108  10.012   8.980   0.796 -0.6619  0.3252 -0.4321
  676MOL0     C89109   9.884   8.966   0.728 -0.1004 -0.8871  0.4843
  676MOL0     C89110   9.779   9.068   0.780 -0.5830  0.4163  0.3520
  676MOL0     C89111   9.771   9.084   0.932 -0.0287 -0.1689  0.7178
  676MOL0     C89112   9.704   9.216   0.967  1.0953 -0.2800  0.1412
  676MOL0     C89113   9.561   9.249   0.909 -0.4741 -0.2024  0.3736
  676MOL0     C89114   9.463   9.136   0.951  0.4380 -0.4189  0.3394
  676MOL0     C89115   9.320   9.188   0.959  0.2306  0.7893 -0.4652
  676MOL0     C89116   9.227   9.061   0.990  0.4264  0.3346  0.1273
  676MOL0     N89117   9.207   8.973   0.875 -0.0315 -0.4286  0.7248
  676MOL0     C89118   9.138   9.003   0.761  0.6595  0.4456  0.6310
  676MOL0     C89119   9.129   8.879   0.698 -1.4083 -0.9788 -0.5285
  676MOL0     C89120   9.055   8.858   0.568 -0.2997  0.1126  0.4101
  676MOL0     C89121   8.969   8.726   0.562  0.2560  0.8903 -0.5043
  676MOL0     C89122   9.050   8.603   0.537 -0.3323 -0.1878 -0.5316
  676MOL0     C89123   9.108   8.594   0.398  0.1090  0.1525 -0.2060
  676MOL0     O89124   9.136   8.459   0.378  0.5453 -1.1050 -0.6206
  676MOL0     C89125   9.260   8.419   0.347 -0.2555  1.2371  0.6838
  676MOL0     C89126   9.330   8.322   0.423  0.6321 -0.4443 -0.0484
  676MOL0     C89127   9.448   8.271   0.382  0.0121 -0.2062 -0.5737
  676MOL0     C89128   9.507   8.325   0.265 -0.6174  0.4307  0.2228
  676MOL0     C89129   9.650   8.280   0.236  0.5371 -0.4074 -0.7074
  676MOL0     O89130   9.709   8.207   0.336  0.0638 -0.1900  0.4769
  676MOL0     C89131   9.838   8.153   0.335  0.0441  0.3227 -0.0906
  676MOL0     C89132   9.934   8.172   0.235 -0.3388 -0.0321  0.2872
  676MOL0     C89133  10.066   8.129   0.261  0.4002  0.6284  0.9835
  676MOL0     C89134  10.098   8.067   0.382  0.1533  0.7525 -0.3352
  676MOL0     O89135  10.230   8.038   0.413  0.5097  0.1950  0.2985
  676MOL0     C89136  10.321   8.156   0.422 -0.2701  0.6941  0.5550
  676MOL0     C89137  10.454   8.099   0.450 -1.1033 -0.8809 -0.2852
  676MOL0     C89138  10.500   8.010   0.333  0.5171 -1.3099 -0.3442
  676MOL0     C89139  10.633   7.943   0.372  0.3082 -0.8564 -0.5678
  676MOL0     C89140  10.668   7.839   0.261 -0.5030  0.5480 -0.0873
  676MOL0     C89141  10.782   7.889   0.176 -0.8329  0.7948 -0.4356
  676MOL0     C89142  10.735   8.015   0.102  0.4728  0.5141 -0.0273
  676MOL0     C89143  10.830   8.045  -0.018 -0.4265 -0.5457  0.4309
  676MOL0    Cl89144  11.000   8.040   0.026 -0.5719 -0.2439  0.3224
  676MOL0     C89145   9.999   8.036   0.468 -0.4530  0.5813  0.1093
  676MOL0     C89146   9.868   8.078   0.451  0.4963 -0.9177  0.4774
  676MOL0     O89147   9.699   8.317   0.131  0.8895  0.4669  0.4560
  676MOL0     C89148   9.442   8.425   0.187  0.0552  1.1475  0.6899
  676MOL0     C89149   9.323   8.466   0.232  1.2759  0.1936  0.2109
  676MOL0     N89150   9.182   8.785   0.784  0.0061  0.1700 -0.6105
  676MOL0     N89151   9.230   8.847   0.889 -0.0024  0.4947 -0.9700
  676MOL0     C89152  10.158   9.098   0.650 -0.6798  0.7202 -0.0649
  676MOL0     C89153  10.274   9.097   0.567  1.0101  0.3611 -0.1124
  676MOL0     C89154  10.601   8.996   0.266  0.2878  0.1165 -0.0732
  676MOL0     C89155  10.642   9.084   0.164  0.1937  0.8849  0.3203
  676MOL0     C89156  10.742   9.031   0.082  0.8425 -0.3043  0.1928
  676MOL0     C89157  10.788   8.904   0.090 -0.0099  1.0137 -0.4981
  676MOL0     O89158  10.879   8.869   0.001 -0.5851 -0.9075 -0.5016
  676MOL0     C89159  10.828   8.789  -0.107  0.5580  0.2518 -0.5636
  676MOL0     C89160  10.941   8.724  -0.187 -0.3028  1.1913  0.1879
  676MOL0     C89161  11.049   8.646  -0.103 -1.0887  0.4989 -0.0150
  676MOL0     C89162  11.157   8.571  -0.184 -0.5503  0.1687 -0.6865
  676MOL0     C89163  11.255   8.663  -0.243 -0.8330 -0.6350 -0.5718
  676MOL0     C89164  11.347   8.727  -0.286 -0.7522 -0.3671  1.1868
  676MOL0     C89165  10.735   8.815   0.184  1.1753 -0.3674 -0.9806
  676MOL0     C89166  10.642   8.861   0.278 -0.1507 -0.0133 -1.0210
  676MOL0     H89167  10.336   8.766   0.565 -1.3480 -0.8306 -0.0418
  676MOL0     H89168  10.149   8.765   0.723  0.3409 -0.1675 -1.3561
  676MOL0     H89169   9.828   8.873   0.743  0.0493 -1.6610 -2.9942
  676MOL0     H89170   9.880   8.975   0.619 -1.6248 -2.1213  0.4098
  676MOL0     H89171   9.683   9.035   0.740  1.1538 -2.1002 -2.0841
  676MOL0     H89172   9.814   9.157   0.728 -0.6738  0.3294  0.1436
  676MOL0     H89173   9.863   9.086   0.992 -0.5111  1.4381  1.4405
  676MOL0     H89174   9.704   9.006   0.970  0.5393 -0.3325  1.4177
  676MOL0     H89175   9.695   9.218   1.076  2.6292 -0.7026  0.2953
  676MOL0     H89176   9.775   9.297   0.953  2.4418 -1.4874 -0.3240
  676MOL0     H89177   9.569   9.265   0.801 -1.1384 -0.9928  0.1983
  676MOL0     H89178   9.525   9.345   0.948 -2.9967 -0.1874 -1.6750
  676MOL0     H89179   9.503   9.098   1.045  0.9305  1.4085  0.9040
  676MOL0     H89180   9.464   9.053   0.880 -2.4277 -1.9680  1.9249
  676MOL0     H89181   9.307   9.258   1.042 -0.3973 -0.6543  0.7121
  676MOL0     H89182   9.295   9.231   0.862 -2.7082  1.8122  0.6362
  676MOL0     H89183   9.125   9.094   1.013 -0.4074 -0.9121 -1.6512
  676MOL0     H89184   9.258   9.004   1.078 -0.6543 -3.0101 -1.5029
  676MOL0     H89185   9.095   9.101   0.743 -0.6641 -0.1748  0.3303
  676MOL0     H89186   9.117   8.867   0.478 -1.0635 -0.4385 -0.1898
  676MOL0     H89187   8.999   8.950   0.553  1.2145  0.7628 -1.6853
  676MOL0     H89188   8.886   8.740   0.491 -2.2210  2.1442  2.3991
  676MOL0     H89189   8.919   8.700   0.656  0.8342  1.8909  0.0878
  676MOL0     H89190   9.135   8.604   0.606 -1.3294 -1.0053  0.7401
  676MOL0     H89191   8.987   8.514   0.541  0.4981 -0.7753 -0.0538
  676MOL0     H89192   9.198   8.657   0.394  0.8655 -0.9495 -3.0389
  676MOL0     H89193   9.034   8.629   0.325  0.5083  1.7011  0.0933
  676MOL0     H89194   9.275   8.284   0.509  0.5583 -1.2185 -0.4299
  676MOL0     H89195   9.496   8.202   0.451 -0.7235  0.8192  1.0542
  676MOL0     H89196   9.906   8.216   0.140  1.3918 -0.5054 -0.4693
  676MOL0     H89197  10.143   8.145   0.186  0.5339  1.3186  1.2596
  676MOL0     H89198  10.295   8.219   0.507  1.2272  0.5280  1.1507
  676MOL0     H89199  10.315   8.217   0.332 -2.1698  0.0040  0.1496
  676MOL0     H89200  10.455   8.044   0.544 -3.2705  1.1539  1.0616
  676MOL0     H89201  10.532   8.176   0.445  0.4678 -2.4230 -0.1142
  676MOL0     H89202  10.520   8.075   0.248 -0.8569  1.4051  1.2732
  676MOL0     H89203  10.423   7.941   0.299  0.4744  0.0315 -3.2937
  676MOL0     H89204  10.706   8.025   0.381  0.2856 -0.8344 -0.5965
  676MOL0     H89205  10.623   7.899   0.472 -0.1276  4.6148  2.2276
  676MOL0     H89206  10.580   7.805   0.206  0.0011 -2.4042  0.7546
  676MOL0     H89207  10.698   7.746   0.310 -0.3431 -0.0431 -1.2647
  676MOL0     H89208  10.797   7.811   0.100 -1.6125 -0.5063  0.6994
  676MOL0     H89209  10.868   7.891   0.242 -2.2498 -0.2740  1.5365
  676MOL0     H89210  10.633   7.997   0.065  1.7123  0.5620 -3.9029
  676MOL0     H89211  10.741   8.101   0.170 -0.6645  1.7440 -1.4013
  676MOL0     H89212  10.806   8.148  -0.045  1.0196  0.5749  3.0136
  676MOL0     H89213  10.807   7.983  -0.105  0.4067 -0.7412  0.3387
  676MOL0     H89214  10.018   8.002   0.570  1.5756 -0.2211 -0.4742
  676MOL0     H89215   9.799   8.071   0.534 -1.6462 -2.7849 -1.3622
  676MOL0     H89216   9.480   8.474   0.098  0.4157 -1.0312 -0.4353
  676MOL0     H89217   9.268   8.539   0.174 -1.2061 -0.4200  1.6478
  676MOL0     H89218  10.109   9.194   0.666 -1.6538  0.0011  1.5565
  676MOL0     H89219  10.315   9.193   0.538 -0.5868  0.9880 -0.4115
  676MOL0     H89220  10.601   9.183   0.149  1.8294  1.1159 -4.8585
  676MOL0     H89221  10.781   9.095   0.003 -0.0017  2.2380  1.7249
  676MOL0     H89222  10.770   8.841  -0.184  0.0093  1.3663  0.5551
  676MOL0     H89223  10.758   8.714  -0.069  1.0359  0.2994  0.4515
  676MOL0     H89224  10.907   8.641  -0.250 -0.5412 -0.2184  2.0645
  676MOL0     H89225  10.976   8.799  -0.258  0.8191  0.2076 -0.3229
  676MOL0     H89226  10.990   8.569  -0.052 -2.1883 -1.3209 -3.6811
  676MOL0     H89227  11.115   8.704  -0.039  1.2305  0.8268 -2.5308
  676MOL0     H89228  11.204   8.500  -0.115 -2.5836  0.5329  1.1646
  676MOL0     H89229  11.115   8.511  -0.265 -0.0642 -1.0370 -0.0806
  676MOL0     H89230  11.430   8.789  -0.312  0.5610 -1.8149  1.7270
  676MOL0     H89231  10.751   8.708   0.175 -0.3978 -0.4433 -4.2968
  676MOL0     H89232  10.601   8.806   0.362  2.2851  0.6456  0.6931
  677MOL0     O89233   4.231   6.360   2.050  0.2143  0.1648 -0.2744
  677MOL0     C89234   4.329   6.385   2.121  0.4362 -0.0525  0.0429
  677MOL0     O89235   4.326   6.458   2.243 -1.3527 -0.6075  0.2166
  677MOL0     C89236   4.210   6.501   2.302 -0.5911 -1.5739  0.6721
  677MOL0     C89237   4.152   6.618   2.248  0.5622  0.1585 -0.0764
  677MOL0     C89238   4.024   6.661   2.289  0.6706  0.5441 -0.2422
  677MOL0     C89239   3.967   6.598   2.403  0.7006  0.6691  0.2561
  677MOL0     O89240   3.843   6.630   2.457  0.8865  1.1078  0.1361
  677MOL0     C89241   3.723   6.647   2.375 -0.1697  0.1265 -0.3330
  677MOL0     C89242   3.603   6.621   2.459 -0.3211  0.4746  0.4128
  677MOL0     C89243   3.465   6.643   2.387 -0.2221 -0.2476 -0.0194
  677MOL0     C89244   3.341   6.615   2.470  0.8284 -1.1163 -0.0696
  677MOL0     C89245   3.202   6.609   2.397 -0.4314 -0.4618 -0.2957
  677MOL0     C89246   3.089   6.570   2.498 -0.8944  0.1448 -0.0484
  677MOL0     C89247   2.956   6.548   2.428  0.3991  0.2511  0.2762
  677MOL0     C89248   2.844   6.499   2.522 -0.4462  0.0305 -0.0378
  677MOL0     N89249   2.714   6.490   2.464  0.9251  0.0082  0.3441
  677MOL0     C89250   2.625   6.379   2.441 -0.3634 -0.9408  1.4251
  677MOL0     C89251   2.524   6.436   2.367 -0.3073  0.0185 -0.1801
  677MOL0     C89252   2.414   6.348   2.313  0.2934 -0.3916  0.0416
  677MOL0     C89253   2.321   6.312   2.428  0.3062 -0.4277  0.1901
  677MOL0     C89254   2.229   6.425   2.469  0.5746 -0.0262  0.4131
  677MOL0     C89255   2.146   6.401   2.592  0.3986  0.4829 -0.1041
  677MOL0     O89256   2.063   6.285   2.573 -0.1183  0.0057  0.4718
  677MOL0     C89257   2.008   6.220   2.677 -0.4376 -0.5036  0.7846
  677MOL0     C89258   1.995   6.282   2.799 -0.4794 -0.3535  0.1850
  677MOL0     C89259   1.939   6.220   2.905 -0.5835 -0.3385  0.7271
  677MOL0     C89260   1.891   6.084   2.891  0.4691  0.9939 -0.3896
  677MOL0     C89261   1.820   6.012   2.992 -0.5152  0.2310 -0.2247
  677MOL0     O89262   1.794   6.082   3.105 -0.7956 -0.4339  0.3106
  677MOL0     C89263   1.725   6.037   3.213 -0.3994  0.0073 -0.6245
  677MOL0     C89264   1.783   6.040   3.338  0.1021 -0.8349 -1.0344
  677MOL0     C89265   1.715   6.000   3.458  0.1128  0.6736  0.6948
  677MOL0     C89266   1.578   5.959   3.456  0.2514 -0.4799 -0.0807
  677MOL0     O89267   1.508   5.939   3.570  0.1654  0.1735 -0.3724
  677MOL0     C89268   1.364   5.955   3.568  1.0521  0.8284 -0.1710
  677MOL0     C89269   1.299   5.928   3.702  0.0391 -0.6829  0.1113
  677MOL0     C89270   1.257   5.788   3.706 -0.2068  0.1718 -0.1430
  677MOL0     C89271   1.212   5.758   3.843 -0.1576 -0.7982 -1.3488
  677MOL0     C89272   1.154   5.614   3.851 -0.4903 -0.3967 -0.0397
  677MOL0     C89273   1.078   5.585   3.982 -0.0849  0.3773  0.5462
  677MOL0     C89274   1.162   5.602   4.109  0.0013  0.9276 -0.1627
  677MOL0     C89275   1.078   5.563   4.235  0.4263 -0.3915  0.4405
  677MOL0    Cl89276   1.021   5.402   4.221 -0.3214  0.3013  0.2413
  677MOL0     C89277   1.515   5.968   3.330 -0.3821 -0.3572 -0.8138
  677MOL0     C89278   1.583   6.004   3.213 -0.7912 -0.7379  0.2748
  677MOL0     O89279   1.775   5.903   2.973 -0.2044 -0.1626  0.2102
  677MOL0     C89280   1.910   6.018   2.769 -1.0420 -0.7349  0.7033
  677MOL0     C89281   1.964   6.093   2.659  0.1986  0.4581  0.4427
  677MOL0     N89282   2.535   6.570   2.355 -0.4144 -0.1135 -0.7128
  677MOL0     N89283   2.652   6.601   2.406 -0.5844  0.7840 -0.1339
  677MOL0     C89284   4.031   6.490   2.468 -0.7245  0.3589  1.3132
  677MOL0     C89285   4.149   6.443   2.414  0.0228 -0.2899 -0.3388
  677MOL0     C89286   4.452   6.357   2.065  0.1055  0.3397  0.1688
  677MOL0     C89287   4.484   6.246   1.979 -0.6272  0.1612 -0.0828
  677MOL0     C89288   4.615   6.213   1.933  1.3264 -0.1657 -0.1699
  677MOL0     C89289   4.716   6.292   1.966  0.7175 -0.6980  0.2973
  677MOL0     O89290   4.841   6.284   1.925 -0.1772  0.0649  0.0754
  677MOL0     C89291   4.881   6.152   1.876 -0.4106 -0.6895  0.5325
  677MOL0     C89292   4.904   6.046   1.981 -0.4493  0.0278  0.2837
  677MOL0     C89293   4.968   5.919   1.927  0.4313 -0.1932 -0.3083
  677MOL0     C89294   4.875   5.834   1.847  0.3878  0.8316  0.3991
  677MOL0     C89295   4.731   5.813   1.898  0.3415 -0.5362  0.3015
  677MOL0     C89296   4.611   5.803   1.928  0.1837  0.0238 -0.7364
  677MOL0     C89297   4.688   6.397   2.051 -0.0701 -0.0967  0.2283
  677MOL0     C89298   4.559   6.433   2.095 -0.5078  0.2682  0.7415
  677MOL0     H89299   4.202   6.664   2.164 -0.5225  2.0600  0.2614
  677MOL0     H89300   3.975   6.739   2.233  2.3211  3.0476  1.5770
  677MOL0     H89301   3.722   6.575   2.292 -0.3260  0.7207 -0.8583
  677MOL0     H89302   3.713   6.744   2.325 -2.8415  1.2865  2.1608
  677MOL0     H89303   3.601   6.685   2.547 -1.5667  2.1021 -0.7475
  677MOL0     H89304   3.597   6.516   2.487 -0.8471  0.4706  0.2992
  677MOL0     H89305   3.462   6.567   2.308 -0.9187  2.1147 -2.4093
  677MOL0     H89306   3.455   6.745   2.348 -2.3546 -1.3435 -2.6362
  677MOL0     H89307   3.362   6.518   2.515 -3.3288 -1.2795  2.0289
  677MOL0     H89308   3.340   6.690   2.550 -1.2571 -0.0190 -1.0206
  677MOL0     H89309   3.196   6.529   2.323 -1.3865  0.2155 -0.9681
  677MOL0     H89310   3.162   6.705   2.364 -2.2955 -0.1075  2.5966
  677MOL0     H89311   3.075   6.641   2.581 -0.7500  1.3748 -1.0518
  677MOL0     H89312   3.130   6.482   2.549  0.7254  1.0747  0.3336
  677MOL0     H89313   2.923   6.642   2.383 -1.5287 -1.3211 -1.8122
  677MOL0     H89314   2.968   6.481   2.343  0.3518 -0.3104  0.7090
  677MOL0     H89315   2.850   6.574   2.601  3.7087  0.3795 -0.4424
  677MOL0     H89316   2.878   6.404   2.565  0.8776 -0.7613 -2.6763
  677MOL0     H89317   2.645   6.274   2.459 -0.2494 -1.5276 -1.6125
  677MOL0     H89318   2.463   6.264   2.262  1.3616  0.4465 -0.3455
  677MOL0     H89319   2.344   6.399   2.246 -0.6110 -1.5284  0.0727
  677MOL0     H89320   2.380   6.272   2.511  2.2548  0.6016 -0.6524
  677MOL0     H89321   2.254   6.232   2.393 -2.0993  2.5155 -2.5384
  677MOL0     H89322   2.301   6.507   2.481  1.3706 -0.6648  0.1430
  677MOL0     H89323   2.159   6.447   2.388  0.2361  0.2038  0.7682
  677MOL0     H89324   2.089   6.487   2.631 -1.9159 -1.3278  0.7220
  677MOL0     H89325   2.212   6.378   2.675 -0.8500  0.6256  0.9623
  677MOL0     H89326   2.017   6.387   2.817  3.0812 -1.1086  0.9944
  677MOL0     H89327   1.920   6.282   2.992  1.9804 -2.7514  3.2404
  677MOL0     H89328   1.882   6.086   3.344 -0.4747  0.4562 -0.9667
  677MOL0     H89329   1.754   6.011   3.558  0.4925  0.5513  0.5623
  677MOL0     H89330   1.325   5.881   3.497 -0.0765  2.1109 -0.9420
  677MOL0     H89331   1.341   6.055   3.530  3.2484  1.3175 -0.3313
  677MOL0     H89332   1.215   5.995   3.716 -0.5355 -1.0576 -1.3859
  677MOL0     H89333   1.374   5.953   3.778 -0.6800 -2.9341  1.6832
  677MOL0     H89334   1.331   5.715   3.672 -0.1110  1.0409 -1.9184
  677MOL0     H89335   1.170   5.784   3.639 -0.7287  2.4907  0.3046
  677MOL0     H89336   1.297   5.759   3.912  0.1944 -0.5175 -1.7762
  677MOL0     H89337   1.138   5.826   3.886  1.3920 -1.1176  2.2095
  677MOL0     H89338   1.239   5.546   3.840 -0.0951  0.2938 -1.4367
  677MOL0     H89339   1.091   5.600   3.763 -1.1882  0.6768  0.2799
  677MOL0     H89340   1.059   5.478   3.979  0.8962  0.0262  3.3412
  677MOL0     H89341   0.983   5.639   3.979 -0.0661  0.6538 -4.8198
  677MOL0     H89342   1.243   5.527   4.108 -2.7832 -2.3427 -1.5329
  677MOL0     H89343   1.200   5.702   4.130  2.3000 -0.0440  0.7429
  677MOL0     H89344   0.992   5.630   4.248  0.2442 -0.2852 -1.1313
  677MOL0     H89345   1.139   5.579   4.324  0.7230  4.5742 -0.3589
  677MOL0     H89346   1.412   5.935   3.319 -0.1178 -1.7229  0.4170
  677MOL0     H89347   1.531   6.003   3.118  3.9287  0.7136 -2.7321
  677MOL0     H89348   1.867   5.920   2.751 -2.6603  0.3736 -2.0523
  677MOL0     H89349   1.954   6.047   2.561 -1.2312 -0.9652  1.1997
  677MOL0     H89350   3.977   6.449   2.552 -1.8458 -0.6758  0.1281
  677MOL0     H89351   4.197   6.360   2.465  0.1564  0.9654  1.6813
  677MOL0     H89352   4.394   6.195   1.945 -0.7726 -0.8884  1.7542
  677MOL0     H89353   4.634   6.122   1.877  0.8025 -0.2271 -0.2509
  677MOL0     H89354   4.979   6.170   1.831 -0.6797 -1.3107 -0.3395
  677MOL0     H89355   4.820   6.122   1.790  0.1686  0.2088 -0.2169
  677MOL0     H89356   4.974   6.081   2.057 -1.7146  2.3072  0.5002
  677MOL0     H89357   4.813   6.013   2.032 -0.0174 -1.2265  0.2817
  677MOL0     H89358   4.993   5.873   2.023 -2.6066  3.0991  2.3147
  677MOL0     H89359   5.060   5.936   1.870  1.2322  0.8506  1.2207
  677MOL0     H89360   4.858   5.882   1.750 -1.8521  0.7280  0.6754
  677MOL0     H89361   4.926   5.738   1.836  1.0762  0.5197  4.6130
  677MOL0     H89362   4.507   5.798   1.953  0.5019  0.4457  0.7928
  677MOL0     H89363   4.781   6.439   2.088  0.5860 -3.7537  3.4481
  677MOL0     H89364   4.568   6.520   2.160  2.7359  0.8339 -0.2481
  678MOL0     O89365   9.392  11.043   1.615  0.0439 -0.0226  0.1488
  678MOL0     C89366   9.483  10.991   1.666  0.6219 -0.2565 -0.1345
  678MOL0     O89367   9.497  10.963   1.796 -0.0717 -0.1989 -0.3635
  678MOL0     C89368   9.388  10.987   1.875  0.6261  0.0269  1.0620
  678MOL0     C89369   9.270  10.926   1.864  0.0948 -0.1892  0.1849
  678MOL0     C89370   9.159  10.949   1.949 -0.2206 -0.2201  0.5544
  678MOL0     C89371   9.168  11.038   2.050  0.2050  0.0714 -0.7793
  678MOL0     O89372   9.063  11.077   2.139 -1.1780  0.0006 -0.1190
  678MOL0     C89373   8.931  11.068   2.091 -0.3842 -1.1188 -0.1007
  678MOL0     C89374   8.832  11.093   2.207 -0.0674  0.2242  0.1388
  678MOL0     C89375   8.685  11.058   2.176 -0.7086  0.1808 -0.4210
  678MOL0     C89376   8.585  11.102   2.294 -0.0353 -0.0647  0.0806
  678MOL0     C89377   8.432  11.070   2.270 -0.2596 -0.0570  1.1788
  678MOL0     C89378   8.366  11.174   2.164  0.4330 -1.0179 -0.9774
  678MOL0     C89379   8.245  11.107   2.108  0.0521 -0.0321 -0.0915
  678MOL0     C89380   8.147  11.214   2.051  0.3784  0.8408  0.0800
  678MOL0     N89381   8.016  11.149   2.039 -0.2695 -0.6669 -0.2976
  678MOL0     C89382   7.904  11.165   2.127 -0.7293 -0.5458 -0.5842
  678MOL0     C89383   7.798  11.107   2.065 -0.1217  0.4391  0.3258
  678MOL0     C89384   7.671  11.089   2.135 -0.0299  0.1076  0.7516
  678MOL0     C89385   7.629  10.942   2.136 -0.1624 -0.7496  0.5934
  678MOL0     C89386   7.564  10.900   2.008  0.5370  0.9754 -0.5328
  678MOL0     C89387   7.472  10.777   2.050 -0.9881  0.0519  0.2135
  678MOL0     O89388   7.396  10.740   1.932  0.1024 -0.0873  0.6303
  678MOL0     C89389   7.293  10.650   1.954 -0.5109  0.3009  0.2569
  678MOL0     C89390   7.274  10.565   2.067 -0.3916  0.3548  0.3969
  678MOL0     C89391   7.161  10.487   2.084  0.1610 -0.4793 -0.2586
  678MOL0     C89392   7.057  10.489   1.988  0.1034  0.8093 -1.0612
  678MOL0     C89393   6.942  10.399   1.994  0.1522  0.0303 -0.0591
  678MOL0     O89394   6.922  10.329   2.114  0.3923 -0.0477  0.0965
  678MOL0     C89395   6.812  10.255   2.125  0.3086 -0.1260  0.8150
  678MOL0     C89396   6.727  10.286   2.233 -0.1102 -0.7195  0.1778
  678MOL0     C89397   6.607  10.210   2.263 -1.1839  1.2223 -0.2408
  678MOL0     C89398   6.565  10.105   2.181 -0.3014 -0.0161 -0.1532
  678MOL0     O89399   6.459  10.017   2.206  0.3430 -0.0148  0.0682
  678MOL0     C89400   6.395  10.016   2.338  0.5319  0.2146  0.2659
  678MOL0     C89401   6.266  10.105   2.335 -0.0740  0.2876 -0.5895
  678MOL0     C89402   6.184  10.084   2.462 -0.0759 -0.5178 -0.0190
  678MOL0     C89403   6.125   9.941   2.476 -0.5091  1.3402 -0.2786
  678MOL0     C89404   6.033   9.923   2.591  0.0100  0.2483  0.1012
  678MOL0     C89405   5.898   9.995   2.556  0.1299 -0.3626 -0.0846
  678MOL0     C89406   5.780   9.942   2.641 -0.1038 -0.3233  0.9208
  678MOL0     C89407   5.723   9.803   2.601 -0.0832 -0.1663  0.8149
  678MOL0    Cl89408   5.638   9.740   2.741  0.0205 -0.2485  0.3670
  678MOL0     C89409   6.648  10.070   2.079 -0.1145  0.1134 -0.5041
  678MOL0     C89410   6.775  10.137   2.053  1.0577  0.4481  0.4846
  678MOL0     O89411   6.865  10.400   1.901  0.4900  0.8842 -0.5798
  678MOL0     C89412   7.089  10.569   1.868  0.2812 -0.3700  0.2360
  678MOL0     C89413   7.203  10.646   1.853  0.1041  0.2862 -0.3359
  678MOL0     N89414   7.840  11.076   1.937 -0.0944  0.3736 -0.6623
  678MOL0     N89415   7.961  11.108   1.915 -0.3400  0.0501  0.0840
  678MOL0     C89416   9.286  11.110   2.059 -0.1826  0.8318  0.1059
  678MOL0     C89417   9.393  11.085   1.974 -0.9565 -0.0478 -0.6076
  678MOL0     C89418   9.593  10.957   1.581 -0.3082 -0.7455  0.1660
  678MOL0     C89419   9.593  10.973   1.439 -0.0382 -0.5470 -0.7699
  678MOL0     C89420   9.705  10.928   1.363 -0.3763  0.3882 -0.4635
  678MOL0     C89421   9.813  10.872   1.427 -1.7638 -0.5448  0.4706
  678MOL0     O89422   9.925  10.837   1.356 -0.4542  0.0123 -0.7422
  678MOL0     C89423  10.037  10.940   1.354  0.2115 -0.2316  0.1147
  678MOL0     C89424  10.022  11.015   1.222 -0.4584 -0.9563 -0.5861
  678MOL0     C89425  10.015  10.920   1.096  0.7895  0.1149 -0.7347
  678MOL0     C89426  10.131  10.823   1.080 -0.0971  0.3374  0.0227
  678MOL0     C89427  10.256  10.887   1.033 -0.3021  0.5506 -0.4133
  678MOL0     C89428  10.363  10.932   0.996  0.2531 -0.3591  0.1945
  678MOL0     C89429   9.822  10.870   1.569 -0.2106  0.7520  0.1166
  678MOL0     C89430   9.716  10.918   1.641 -1.1351 -0.7722  0.4252
  678MOL0     H89431   9.259  10.842   1.796 -0.9290 -1.6701  2.0583
  678MOL0     H89432   9.067  10.893   1.932  1.0062 -2.0224 -0.5125
  678MOL0     H89433   8.922  10.969   2.045  2.6355 -0.2373 -2.9893
  678MOL0     H89434   8.921  11.148   2.017  2.9680 -0.3028  0.1918
  678MOL0     H89435   8.844  11.195   2.245 -0.8543  0.5383 -0.4327
  678MOL0     H89436   8.866  11.029   2.289  0.8184  0.7271  0.1767
  678MOL0     H89437   8.678  10.952   2.149  1.9325 -0.2984  0.5276
  678MOL0     H89438   8.655  11.115   2.087  0.1650  2.6784  0.7800
  678MOL0     H89439   8.616  11.043   2.382 -0.5014  2.1497  1.8133
  678MOL0     H89440   8.600  11.208   2.317  2.0682 -0.0447 -1.0727
  678MOL0     H89441   8.380  11.074   2.366  3.2368 -2.5642  3.4045
  678MOL0     H89442   8.417  10.967   2.237 -2.5433  0.3666  0.7155
  678MOL0     H89443   8.435  11.193   2.081  0.3131  3.2548 -0.3484
  678MOL0     H89444   8.335  11.266   2.215  0.7034 -0.2843 -2.0831
  678MOL0     H89445   8.267  11.032   2.032  2.8548 -1.3711  1.8667
  678MOL0     H89446   8.187  11.060   2.189 -2.1196 -0.8277 -1.9969
  678MOL0     H89447   8.178  11.244   1.950  0.3184  0.0726 -0.1683
  678MOL0     H89448   8.130  11.305   2.109 -0.4342  2.0642 -1.9389
  678MOL0     H89449   7.897  11.221   2.220 -3.2790  1.7362 -1.9863
  678MOL0     H89450   7.594  11.156   2.094 -3.5026 -2.0862  3.2199
  678MOL0     H89451   7.694  11.120   2.237  0.3602  0.8211  0.4570
  678MOL0     H89452   7.564  10.946   2.224 -0.3712  1.0164  0.3992
  678MOL0     H89453   7.710  10.874   2.162 -0.8281 -0.5710  3.4077
  678MOL0     H89454   7.506  10.982   1.966  2.0843  3.3053  1.6007
  678MOL0     H89455   7.637  10.870   1.933  1.5923 -2.1652  1.5353
  678MOL0     H89456   7.406  10.809   2.132  0.4441  0.5063  1.2292
  678MOL0     H89457   7.533  10.694   2.087  0.5765  1.5252  1.0570
  678MOL0     H89458   7.357  10.565   2.137 -0.9817 -0.1295  1.1072
  678MOL0     H89459   7.157  10.426   2.174  0.2859  3.9068  3.0380
  678MOL0     H89460   6.760  10.375   2.286 -1.9382  1.1487 -1.6678
  678MOL0     H89461   6.541  10.239   2.344 -1.6608 -1.4771  0.4226
  678MOL0     H89462   6.452  10.048   2.425  3.0074 -1.3546 -0.6855
  678MOL0     H89463   6.356   9.916   2.361  0.6443  0.7992  3.3689
  678MOL0     H89464   6.202  10.080   2.250 -1.8783 -0.5004  0.9212
  678MOL0     H89465   6.306  10.206   2.327  1.1442 -0.1709 -0.5930
  678MOL0     H89466   6.101  10.155   2.454 -0.1060 -0.5377  0.1140
  678MOL0     H89467   6.247  10.120   2.544 -0.6918 -0.3382  0.3802
  678MOL0     H89468   6.069   9.925   2.383 -0.7725  3.7632 -0.6166
  678MOL0     H89469   6.193   9.856   2.491 -1.5567  0.7750  1.6621
  678MOL0     H89470   6.079   9.966   2.680  1.6252  0.3026 -0.7142
  678MOL0     H89471   6.009   9.819   2.617 -1.7752  0.5866 -0.0655
  678MOL0     H89472   5.881   9.970   2.451  5.7401 -1.1078 -1.1224
  678MOL0     H89473   5.893  10.104   2.568 -3.0119 -0.5970  1.7399
  678MOL0     H89474   5.821   9.935   2.742  1.9623 -1.8478  0.0544
  678MOL0     H89475   5.703  10.019   2.631  1.9882  1.8901  0.8936
  678MOL0     H89476   5.808   9.740   2.572 -0.7023 -0.3758 -0.6578
  678MOL0     H89477   5.660   9.815   2.513  0.7401  0.9445  0.3660
  678MOL0     H89478   6.616   9.985   2.020 -0.3179  1.7787 -2.9417
  678MOL0     H89479   6.842  10.108   1.974  0.2871 -1.7074  0.5761
  678MOL0     H89480   7.020  10.566   1.785 -1.1545 -1.1246  1.4151
  678MOL0     H89481   7.203  10.702   1.760 -0.6616 -0.2278 -0.6582
  678MOL0     H89482   9.299  11.193   2.126  1.8129  1.2079 -0.6831
  678MOL0     H89483   9.485  11.139   1.996 -0.3708 -1.4370  0.5345
  678MOL0     H89484   9.509  11.017   1.386 -0.2495 -0.5074 -0.4099
  678MOL0     H89485   9.716  10.927   1.255  3.6125  0.6564 -0.1988
  678MOL0     H89486  10.136  10.894   1.368 -0.2575 -1.7348 -1.2032
  678MOL0     H89487  10.020  11.011   1.435 -0.0328 -0.2316  0.0614
  678MOL0     H89488   9.928  11.071   1.226  0.8431  1.4360 -1.4345
  678MOL0     H89489  10.096  11.095   1.211 -0.8398 -0.1750  1.9294
  678MOL0     H89490  10.019  10.981   1.005 -1.9115  1.1263 -0.2857
  678MOL0     H89491   9.926  10.859   1.083  1.4466 -1.0415  0.0725
  678MOL0     H89492  10.142  10.761   1.170  0.0506  0.4587  0.0888
  678MOL0     H89493  10.117  10.742   1.007 -0.8440  0.4719  0.0081
  678MOL0     H89494  10.455  10.979   0.971 -0.0645  0.2721  0.2071
  678MOL0     H89495   9.916  10.838   1.614 -2.1675 -1.6809  2.8628
  678MOL0     H89496   9.720  10.912   1.749  0.0089  2.3652  0.6627
  679MOL0     O89497   7.918   7.734   8.819 -0.2846 -0.0172  0.4340
  679MOL0     C89498   7.978   7.626   8.838 -0.4638 -0.5079  1.0836
  679MOL0     O89499   7.915   7.517   8.890  0.6823 -0.0323  0.5921
  679MOL0     C89500   7.809   7.557   8.966  0.6201 -0.1388  0.9718
  679MOL0     C89501   7.682   7.507   8.923 -0.1073 -0.2745 -0.5453
  679MOL0     C89502   7.565   7.546   8.987 -0.1097  0.3597  0.2244
  679MOL0     C89503   7.573   7.614   9.110  0.3485 -0.3328 -0.2584
  679MOL0     O89504   7.464   7.640   9.183  0.7773  0.6843 -0.2468
  679MOL0     C89505   7.345   7.555   9.195 -0.1296  0.0112  0.0485
  679MOL0     C89506   7.262   7.621   9.308 -0.8840  0.1875  0.0555
  679MOL0     C89507   7.118   7.574   9.294 -0.5987  0.2709 -0.0984
  679MOL0     C89508   7.035   7.631   9.409 -0.1733  0.0928  0.5266
  679MOL0     C89509   6.894   7.577   9.400  0.2333 -0.3318 -0.6173
  679MOL0     C89510   6.816   7.611   9.525 -0.1789  0.1601 -0.5563
  679MOL0     C89511   6.668   7.582   9.512 -0.1477  0.1244 -0.4566
  679MOL0     C89512   6.632   7.429   9.489  1.4316  0.7424 -1.2837
  679MOL0     N89513   6.489   7.425   9.454 -0.8256 -0.6104 -0.0469
  679MOL0     C89514   6.453   7.402   9.322 -0.5274 -0.1259 -0.0017
  679MOL0     C89515   6.319   7.409   9.336  0.3771 -0.0687  0.1949
  679MOL0     C89516   6.231   7.364   9.230  0.3871  0.1885  0.4019
  679MOL0     C89517   6.206   7.472   9.121 -0.6415  0.4857  0.0273
  679MOL0     C89518   6.206   7.615   9.176 -0.0331  0.7485 -0.9086
  679MOL0     C89519   6.180   7.702   9.050 -0.0673 -0.2959 -0.5259
  679MOL0     O89520   6.048   7.706   9.012  0.2537 -0.4291  0.1724
  679MOL0     C89521   5.965   7.794   9.074 -0.7890  0.0138  0.2816
  679MOL0     C89522   5.831   7.767   9.051  0.0895  0.1632  0.0008
  679MOL0     C89523   5.725   7.824   9.119 -0.4452 -0.4597  0.4457
  679MOL0     C89524   5.758   7.931   9.209  0.2079 -0.1051  0.5880
  679MOL0     C89525   5.649   8.001   9.283 -0.3860  0.6066  0.1922
  679MOL0     O89526   5.520   7.950   9.274 -0.5004 -0.5892 -0.0808
  679MOL0     C89527   5.433   8.037   9.343 -0.0923  0.5452 -0.4198
  679MOL0     C89528   5.433   8.060   9.480 -0.7782  0.5386 -0.0655
  679MOL0     C89529   5.330   8.138   9.526  0.0036 -0.9032  0.2328
  679MOL0     C89530   5.241   8.204   9.439 -0.4947 -0.5159 -0.2598
  679MOL0     O89531   5.163   8.298   9.486 -0.0121 -0.0787 -0.4724
  679MOL0     C89532   5.032   8.246   9.511 -0.6171 -0.5539 -0.3496
  679MOL0     C89533   5.016   8.201   9.653 -0.6108  0.2493 -0.0300
  679MOL0     C89534   4.877   8.186   9.709  0.0838  0.7478  0.8564
  679MOL0     C89535   4.785   8.084   9.644  0.5136  0.3982 -0.0241
  679MOL0     C89536   4.670   8.077   9.746 -0.2092 -0.6162 -1.3325
  679MOL0     C89537   4.525   8.064   9.706 -0.4981  0.5418  0.0422
  679MOL0     C89538   4.426   8.078   9.817 -1.1031 -0.1583 -0.3090
  679MOL0     C89539   4.381   7.945   9.883 -1.0407  0.4267 -0.1614
  679MOL0    Cl89540   4.261   7.860   9.771  0.1638  0.0930 -0.0683
  679MOL0     C89541   5.253   8.192   9.307 -0.3688 -0.6384 -0.4113
  679MOL0     C89542   5.341   8.097   9.263  0.1183 -0.2888  0.2356
  679MOL0     O89543   5.685   8.102   9.344  0.3076  1.0778 -0.1262
  679MOL0     C89544   5.893   7.969   9.234  0.1714  1.1635  0.5165
  679MOL0     C89545   6.000   7.901   9.167  0.3722  0.7060  0.3572
  679MOL0     N89546   6.281   7.451   9.468 -0.7385 -0.1449 -0.3213
  679MOL0     N89547   6.391   7.458   9.533 -0.0470 -0.4242  0.6243
  679MOL0     C89548   7.698   7.659   9.156 -0.2991 -0.0936 -0.1623
  679MOL0     C89549   7.820   7.620   9.095  0.1143  0.2784 -0.8323
  679MOL0     C89550   8.115   7.609   8.770  0.4424  0.5884 -0.4332
  679MOL0     C89551   8.128   7.671   8.640 -0.3841  0.4058  0.1700
  679MOL0     C89552   8.253   7.652   8.574 -0.6017  0.1409  0.2626
  679MOL0     C89553   8.344   7.552   8.616  0.0251 -0.4888 -0.7963
  679MOL0     O89554   8.452   7.545   8.537 -0.2046 -0.1410 -0.7716
  679MOL0     C89555   8.530   7.422   8.534  1.3027 -0.1391 -0.2014
  679MOL0     C89556   8.662   7.444   8.456  0.1908  1.3343  0.4927
  679MOL0     C89557   8.738   7.573   8.490 -0.5447 -0.5879  0.1286
  679MOL0     C89558   8.777   7.585   8.643 -0.6400  0.0409  0.0026
  679MOL0     C89559   8.865   7.485   8.701  0.0993  0.7076  0.6676
  679MOL0     C89560   8.931   7.399   8.751  0.4448  0.5591 -0.3456
  679MOL0     C89561   8.324   7.480   8.736 -0.8914 -0.2906  0.5424
  679MOL0     C89562   8.216   7.512   8.817  0.3312 -0.0615  0.4604
  679MOL0     H89563   7.673   7.450   8.831  1.5661 -0.1976 -0.7864
  679MOL0     H89564   7.469   7.521   8.944 -0.6661 -0.4035  1.8331
  679MOL0     H89565   7.350   7.451   9.227  0.4536  0.1242  0.3473
  679MOL0     H89566   7.301   7.564   9.096 -0.4553  0.1744  0.2064
  679MOL0     H89567   7.263   7.730   9.312 -0.0906  0.1442  1.6853
  679MOL0     H89568   7.307   7.585   9.401  1.8563 -0.3341 -1.3557
  679MOL0     H89569   7.112   7.464   9.294  0.0954  0.2299 -0.4478
  679MOL0     H89570   7.076   7.604   9.198 -0.8966 -2.3905 -0.8907
  679MOL0     H89571   7.073   7.597   9.505  0.4299 -0.6839  0.0299
  679MOL0     H89572   7.030   7.740   9.416 -1.4499 -0.0161  1.8380
  679MOL0     H89573   6.903   7.468   9.394  3.2131 -0.1474 -1.3565
  679MOL0     H89574   6.850   7.617   9.308 -0.5298  1.7630  0.5891
  679MOL0     H89575   6.823   7.718   9.546 -0.7227 -0.0174  0.5705
  679MOL0     H89576   6.860   7.549   9.604 -2.3385 -2.2577 -1.1338
  679MOL0     H89577   6.619   7.604   9.607 -0.6163 -0.7172 -0.4929
  679MOL0     H89578   6.633   7.645   9.429  0.9588  2.3809  0.7010
  679MOL0     H89579   6.643   7.370   9.580  0.3618  0.7109 -1.1618
  679MOL0     H89580   6.693   7.396   9.405  1.1655 -0.1672 -1.1263
  679MOL0     H89581   6.515   7.379   9.236 -1.9741 -0.8703 -0.8947
  679MOL0     H89582   6.129   7.349   9.265  0.6496  0.0830  1.1370
  679MOL0     H89583   6.269   7.273   9.183 -0.5539  0.5469 -1.1134
  679MOL0     H89584   6.114   7.443   9.069  0.0032 -2.1453  0.1927
  679MOL0     H89585   6.287   7.464   9.047 -0.8290  3.6518 -0.6707
  679MOL0     H89586   6.129   7.632   9.252  0.2681  0.5566 -0.5582
  679MOL0     H89587   6.307   7.631   9.215 -0.2171  0.6533 -0.3933
  679MOL0     H89588   6.250   7.669   8.973  0.5143 -2.8874  0.9909
  679MOL0     H89589   6.218   7.800   9.080 -0.1457 -0.8950  1.6578
  679MOL0     H89590   5.801   7.679   8.994  0.6522  0.3436 -0.5971
  679MOL0     H89591   5.625   7.782   9.115 -0.5059 -0.2250 -1.4366
  679MOL0     H89592   5.503   8.013   9.547  0.1814  0.5388 -1.0512
  679MOL0     H89593   5.317   8.159   9.632  1.2709  3.2156 -0.2514
  679MOL0     H89594   5.002   8.175   9.433 -1.2384  0.4731 -1.0603
  679MOL0     H89595   4.967   8.332   9.501  0.4695  0.3504  0.1549
  679MOL0     H89596   5.065   8.276   9.716 -0.5075 -1.0225  1.4853
  679MOL0     H89597   5.074   8.109   9.664  1.2123  1.2545 -0.7917
  679MOL0     H89598   4.824   8.281   9.694 -0.4288  0.2899 -0.3455
  679MOL0     H89599   4.891   8.168   9.816 -3.1739 -0.4497  1.2009
  679MOL0     H89600   4.742   8.114   9.548 -3.5532  0.7997  1.7226
  679MOL0     H89601   4.834   7.986   9.642  0.1974  0.1587  2.0371
  679MOL0     H89602   4.659   8.171   9.800  0.8326 -0.2199 -1.7838
  679MOL0     H89603   4.684   7.987   9.807 -2.7730 -0.7152 -0.8050
  679MOL0     H89604   4.509   7.965   9.662 -2.0210  0.8471 -0.1351
  679MOL0     H89605   4.500   8.132   9.624 -0.1014  1.4799  0.6730
  679MOL0     H89606   4.469   8.141   9.895 -3.0632 -0.8580  1.4374
  679MOL0     H89607   4.333   8.131   9.792 -1.9680 -0.7426  1.4313
  679MOL0     H89608   4.339   7.974   9.980 -0.2671 -1.6511  0.8521
  679MOL0     H89609   4.460   7.872   9.903 -0.8241  1.3792  3.0977
  679MOL0     H89610   5.191   8.250   9.239  0.8931  2.2425  0.7366
  679MOL0     H89611   5.346   8.081   9.156  0.4699 -1.4566  0.4051
  679MOL0     H89612   5.919   8.057   9.291  0.5719 -0.6408  3.2990
  679MOL0     H89613   6.105   7.922   9.186  0.3099  2.0828 -0.6720
  679MOL0     H89614   7.695   7.704   9.255 -1.4134  1.8402 -1.0215
  679MOL0     H89615   7.915   7.645   9.141 -0.4115 -2.0699  1.8112
  679MOL0     H89616   8.056   7.749   8.615 -1.8164 -0.4745  1.3680
  679MOL0     H89617   8.278   7.702   8.481 -0.4162 -2.5117 -1.2181
  679MOL0     H89618   8.470   7.351   8.476  0.9471  0.2231 -0.2827
  679MOL0     H89619   8.556   7.387   8.634 -3.4650  1.9037  2.0348
  679MOL0     H89620   8.728   7.359   8.478  0.6819  0.3567 -3.8446
  679MOL0     H89621   8.638   7.449   8.350 -1.3963 -1.6219  0.6110
  679MOL0     H89622   8.673   7.651   8.448  0.2932  0.2947  0.4406
  679MOL0     H89623   8.825   7.559   8.426 -0.4982  3.9193 -1.1847
  679MOL0     H89624   8.832   7.679   8.640  0.7415 -0.7671 -0.6767
  679MOL0     H89625   8.692   7.597   8.711 -1.5622 -2.8338 -0.5307
  679MOL0     H89626   8.973   7.320   8.810 -1.0321 -0.7203 -0.9106
  679MOL0     H89627   8.402   7.411   8.766  1.8355  1.3847 -2.1429
  679MOL0     H89628   8.204   7.458   8.910  2.3763 -1.1792  0.1168
  680MOL0     O89629   6.200   8.645   9.976  1.0130 -0.3384 -0.1999
  680MOL0     C89630   6.270   8.666  10.075 -0.5380  0.1793  0.0733
  680MOL0     O89631   6.244   8.643  10.201 -0.1924 -0.4068  0.0631
  680MOL0     C89632   6.117   8.598  10.244  0.5329 -0.0210  0.7488
  680MOL0     C89633   6.113   8.474  10.309 -0.9980 -0.1413 -0.5969
  680MOL0     C89634   5.991   8.438  10.362 -0.6527 -0.1540 -0.1055
  680MOL0     C89635   5.878   8.521  10.351 -0.0369  0.1579  0.7129
  680MOL0     O89636   5.766   8.489  10.422  0.0900  0.3820  0.1691
  680MOL0     C89637   5.667   8.590  10.458 -0.0957 -0.1537  0.9554
  680MOL0     C89638   5.558   8.546  10.555  0.0933 -0.1630 -0.6953
  680MOL0     C89639   5.603   8.462  10.667 -1.1435  0.3947  0.3228
  680MOL0     C89640   5.679   8.548  10.770 -0.4552  1.0953 -0.5604
  680MOL0     C89641   5.597   8.634  10.862  0.0845 -0.3864 -0.6155
  680MOL0     C89642   5.679   8.656  10.989  0.2773  0.2478  0.2969
  680MOL0     C89643   5.594   8.725  11.099 -1.3713  0.8267 -0.0517
  680MOL0     C89644   5.678   8.747  11.222 -0.3460  0.5515 -0.4266
  680MOL0     N89645   5.591   8.781  11.334 -0.3214  0.7564 -0.0568
  680MOL0     C89646   5.486   8.865  11.337 -0.4447 -1.0812 -0.6882
  680MOL0     C89647   5.444   8.843  11.470 -0.3095 -0.2197  0.7980
  680MOL0     C89648   5.330   8.921  11.536  0.1342  0.2900  0.3053
  680MOL0     C89649   5.378   9.067  11.567 -0.2562  1.0313 -0.1800
  680MOL0     C89650   5.269   9.138  11.649  0.3989 -0.6636  0.8497
  680MOL0     C89651   5.152   9.196  11.564 -0.2829  0.7395 -0.5586
  680MOL0     O89652   5.052   9.255  11.649 -0.1729  0.1042 -0.3421
  680MOL0     C89653   4.934   9.182  11.666  0.7758 -0.1514 -0.6541
  680MOL0     C89654   4.921   9.038  11.670  1.1986 -0.2223 -0.3433
  680MOL0     C89655   4.792   8.979  11.690  0.5126 -0.4302  0.4780
  680MOL0     C89656   4.686   9.064  11.713 -0.5629 -0.0857 -0.4809
  680MOL0     C89657   4.553   9.020  11.750 -0.0449  0.1410  0.5042
  680MOL0     O89658   4.461   9.104  11.804 -0.3479 -0.4912  0.6502
  680MOL0     C89659   4.335   9.055  11.845 -0.5551  0.8012  0.1003
  680MOL0     C89660   4.252   8.979  11.763 -0.2234 -0.4993 -0.4586
  680MOL0     C89661   4.123   8.942  11.815  0.3317 -0.0443 -0.2375
  680MOL0     C89662   4.080   8.973  11.940 -0.2546  0.6746 -0.7787
  680MOL0     O89663   3.959   8.934  11.988  0.0834  0.3999  0.0699
  680MOL0     C89664   3.844   9.016  11.955 -0.1690  0.4676  0.1292
  680MOL0     C89665   3.755   9.040  12.082  0.7822  0.5165 -0.5924
  680MOL0     C89666   3.717   8.912  12.154  0.2512 -0.5921 -0.0638
  680MOL0     C89667   3.645   8.922  12.289 -0.4344 -0.0231  0.3537
  680MOL0     C89668   3.602   8.784  12.342 -0.6850 -0.2007 -0.1643
  680MOL0     C89669   3.471   8.723  12.290  0.3138  0.4941 -0.1298
  680MOL0     C89670   3.454   8.590  12.362  0.0841  0.7611 -0.6671
  680MOL0     C89671   3.337   8.521  12.292 -0.7298  0.3604  0.1168
  680MOL0    Cl89672   3.341   8.486  12.124  0.2137 -0.1412  0.2866
  680MOL0     C89673   4.163   9.051  12.016 -0.5347 -0.1080  0.7994
  680MOL0     C89674   4.285   9.102  11.967 -0.0940  0.1124 -1.0528
  680MOL0     O89675   4.531   8.904  11.724  0.0899  0.7557  0.2067
  680MOL0     C89676   4.698   9.205  11.708 -0.1221  0.8440 -0.1056
  680MOL0     C89677   4.820   9.262  11.686  0.8391 -0.7051  0.1338
  680MOL0     N89678   5.531   8.758  11.546  0.5288  0.8496  0.1241
  680MOL0     N89679   5.618   8.719  11.451  0.2426 -0.0404 -0.7226
  680MOL0     C89680   5.881   8.635  10.272  0.0023 -0.7189 -0.4664
  680MOL0     C89681   6.002   8.674  10.217 -0.3596  0.1619  0.5181
  680MOL0     C89682   6.399   8.729  10.038 -0.5424  0.0846 -0.2505
  680MOL0     C89683   6.441   8.721   9.899 -0.1330  0.2171  0.1781
  680MOL0     C89684   6.574   8.750   9.859 -1.2314 -0.3612 -0.6024
  680MOL0     C89685   6.671   8.764   9.958  0.0081  0.1205  0.0174
  680MOL0     O89686   6.803   8.772   9.922  0.3965 -0.2661 -0.9658
  680MOL0     C89687   6.902   8.803  10.019  0.0942  0.2047 -0.4454
  680MOL0     C89688   6.903   8.945  10.074  1.2899  0.5932  0.3643
  680MOL0     C89689   6.942   9.042   9.969 -0.4495  0.1631 -0.3664
  680MOL0     C89690   6.957   9.192  10.013 -0.1946 -0.1453 -0.1015
  680MOL0     C89691   6.831   9.253  10.053  0.0198 -0.9522 -0.8587
  680MOL0     C89692   6.728   9.296  10.091  0.7013 -0.0824 -0.2579
  680MOL0     C89693   6.629   8.768  10.092 -0.1073  1.0684  0.1525
  680MOL0     C89694   6.500   8.754  10.132  0.2122  0.1659 -0.0500
  680MOL0     H89695   6.191   8.407  10.343 -0.4140  2.4183  3.9757
  680MOL0     H89696   5.989   8.345  10.417  1.7078 -0.2765 -0.1394
  680MOL0     H89697   5.608   8.623  10.372 -2.2083 -2.0237  1.5979
  680MOL0     H89698   5.726   8.674  10.497  1.5824 -0.6382 -0.3763
  680MOL0     H89699   5.484   8.489  10.498  0.9544 -0.2536 -1.7313
  680MOL0     H89700   5.499   8.627  10.600  1.0550 -0.0525  0.4192
  680MOL0     H89701   5.666   8.384  10.624 -2.5641  0.7518 -2.6699
  680MOL0     H89702   5.515   8.411  10.706 -0.8247 -2.9338 -2.7625
  680MOL0     H89703   5.742   8.484  10.832  0.7286  2.4108 -0.3748
  680MOL0     H89704   5.748   8.612  10.716  2.5595 -0.7167  0.8847
  680MOL0     H89705   5.507   8.583  10.897 -0.8586  1.9066  0.5378
  680MOL0     H89706   5.572   8.732  10.820 -1.7036  0.4227  2.0904
  680MOL0     H89707   5.758   8.727  10.964  0.2827  0.3178  0.5148
  680MOL0     H89708   5.718   8.560  11.023  1.2151 -0.9739 -3.6512
  680MOL0     H89709   5.555   8.823  11.069  0.7711  2.1340  1.1865
  680MOL0     H89710   5.512   8.656  11.123  0.2114 -1.5444 -1.1948
  680MOL0     H89711   5.748   8.830  11.204  2.9368 -2.5602 -3.6839
  680MOL0     H89712   5.747   8.666  11.247  0.0897 -0.0755 -3.2419
  680MOL0     H89713   5.463   8.945  11.266  4.0513  2.4083  1.2638
  680MOL0     H89714   5.291   8.860  11.618 -0.0030 -1.0495 -0.7056
  680MOL0     H89715   5.241   8.907  11.473 -0.5442  2.6724  0.6472
  680MOL0     H89716   5.402   9.124  11.477  0.7756  0.0217 -0.5704
  680MOL0     H89717   5.466   9.060  11.631  0.9369  2.8514 -1.5163
  680MOL0     H89718   5.214   9.079  11.724 -1.4710 -1.0752 -0.7382
  680MOL0     H89719   5.320   9.220  11.700 -1.1055  0.4693  0.6016
  680MOL0     H89720   5.109   9.115  11.506  1.8268  0.0078 -1.1700
  680MOL0     H89721   5.202   9.265  11.496  0.0120 -1.4690 -2.7055
  680MOL0     H89722   5.005   8.969  11.674 -0.6740 -2.5625  1.4372
  680MOL0     H89723   4.771   8.873  11.679 -0.1821 -0.3598  1.0689
  680MOL0     H89724   4.284   8.949  11.664  1.2110  0.4554 -0.3128
  680MOL0     H89725   4.056   8.887  11.750 -1.3986  2.9743 -1.2105
  680MOL0     H89726   3.788   8.959  11.880 -1.6666  1.2373  0.6088
  680MOL0     H89727   3.868   9.108  11.901  0.2175 -2.1987 -4.8348
  680MOL0     H89728   3.667   9.098  12.050  1.0951  3.6261  3.3863
  680MOL0     H89729   3.807   9.108  12.150 -0.9764  3.2703 -1.7810
  680MOL0     H89730   3.807   8.863  12.190  0.5516  0.2224  0.3026
  680MOL0     H89731   3.657   8.847  12.089  2.1596 -1.8760 -0.6351
  680MOL0     H89732   3.722   8.968  12.352 -1.3350  3.7337 -1.0100
  680MOL0     H89733   3.566   8.998  12.286 -2.5058 -2.1050 -1.5595
  680MOL0     H89734   3.588   8.799  12.450 -1.5368 -2.4641  0.1012
  680MOL0     H89735   3.685   8.715  12.322  0.7976  1.0434  1.3961
  680MOL0     H89736   3.477   8.709  12.182 -2.6234  0.5252 -0.3614
  680MOL0     H89737   3.403   8.806  12.311  1.5945  0.7951  3.7148
  680MOL0     H89738   3.546   8.537  12.333 -0.7441 -0.9368 -0.3516
  680MOL0     H89739   3.439   8.578  12.470 -0.3587 -1.2754 -0.9051
  680MOL0     H89740   3.242   8.572  12.307 -1.1465 -0.3904  0.0851
  680MOL0     H89741   3.337   8.420  12.333 -2.2930 -0.0295 -0.7735
  680MOL0     H89742   4.131   9.072  12.118 -0.2395  3.3047  0.3114
  680MOL0     H89743   4.339   9.165  12.037 -1.9412 -0.3887  0.9215
  680MOL0     H89744   4.611   9.268  11.721 -0.3369  0.6351 -0.5070
  680MOL0     H89745   4.825   9.370  11.681  0.6376 -0.4127  3.6209
  680MOL0     H89746   5.801   8.709  10.270  0.9776  0.4037  0.4763
  680MOL0     H89747   6.013   8.762  10.154 -0.2797 -2.8972 -4.2321
  680MOL0     H89748   6.367   8.681   9.830 -0.6231 -1.4854  1.6306
  680MOL0     H89749   6.618   8.749   9.760 -0.1996  0.9470 -0.1868
  680MOL0     H89750   7.001   8.794   9.974  0.6684  3.0115  0.0478
  680MOL0     H89751   6.883   8.734  10.101 -5.1468 -1.8658 -2.9221
  680MOL0     H89752   6.804   8.961  10.118 -0.2703 -0.1917 -2.5450
  680MOL0     H89753   6.985   8.963  10.144  4.6589 -1.8682 -2.5910
  680MOL0     H89754   6.855   9.040   9.904 -2.3117  1.2897  1.9251
  680MOL0     H89755   7.030   9.004   9.916 -0.1079 -1.2135  1.0971
  680MOL0     H89756   7.030   9.195  10.095  1.6056 -0.6825 -1.6067
  680MOL0     H89757   7.001   9.245   9.928 -1.4433  1.7400  0.3709
  680MOL0     H89758   6.627   9.330  10.104  0.4639 -1.0503  0.5534
  680MOL0     H89759   6.693   8.781  10.179  1.5553 -2.8016 -0.2660
  680MOL0     H89760   6.476   8.745  10.237  1.1117 -0.2231  0.1296
  681MOL0     O89761   5.704   2.456   5.244  0.2464 -0.4091  0.3806
  681MOL0     C89762   5.821   2.441   5.223  0.1160 -0.4833  0.0609
  681MOL0     O89763   5.884   2.446   5.096 -0.9387 -0.1464 -0.1129
  681MOL0     C89764   5.805   2.469   4.987  0.3257 -0.7505  1.3573
  681MOL0     C89765   5.750   2.594   4.966 -0.5556  0.4835  0.3558
  681MOL0     C89766   5.665   2.616   4.858  0.9615  0.1012 -0.9106
  681MOL0     C89767   5.640   2.521   4.761  0.7359  0.7109  1.1593
  681MOL0     O89768   5.555   2.530   4.647  0.3157 -0.3396 -0.0146
  681MOL0     C89769   5.437   2.609   4.661  0.1650 -0.0958 -0.2132
  681MOL0     C89770   5.304   2.531   4.631 -0.2277  0.3582 -0.5350
  681MOL0     C89771   5.179   2.620   4.619  1.0333  0.4857 -0.3128
  681MOL0     C89772   5.132   2.677   4.754  1.5639 -0.0066 -0.1082
  681MOL0     C89773   4.990   2.732   4.746  0.0055 -0.3628 -0.7050
  681MOL0     C89774   4.950   2.783   4.886 -0.0324 -0.2705 -0.0799
  681MOL0     C89775   4.807   2.846   4.884  0.0253  0.9097 -0.1718
  681MOL0     C89776   4.689   2.753   4.916  0.5180  0.4715 -0.0695
  681MOL0     N89777   4.575   2.845   4.950 -0.6323  0.5787  1.1181
  681MOL0     C89778   4.473   2.884   4.867 -0.7232  0.4953 -0.1223
  681MOL0     C89779   4.376   2.944   4.946  0.3637 -0.6062  0.9267
  681MOL0     C89780   4.239   2.990   4.899  1.1721 -0.0456  1.0163
  681MOL0     C89781   4.131   2.888   4.937 -0.0712  0.2752 -1.0259
  681MOL0     C89782   4.106   2.883   5.089  1.0784 -0.0296 -0.1665
  681MOL0     C89783   3.983   2.791   5.120  0.4853 -0.3665 -0.1826
  681MOL0     O89784   3.961   2.788   5.263  0.8359  0.3027  0.6008
  681MOL0     C89785   3.838   2.751   5.307  0.3930  0.7893 -0.3458
  681MOL0     C89786   3.813   2.735   5.440 -0.1485  0.7236 -0.4068
  681MOL0     C89787   3.688   2.695   5.501  0.4070 -0.5113  0.2240
  681MOL0     C89788   3.584   2.668   5.410 -0.7995 -0.7516 -0.4841
  681MOL0     C89789   3.457   2.626   5.465 -0.3026 -0.0188  0.2618
  681MOL0     O89790   3.446   2.662   5.605  0.6006 -0.0138  0.2466
  681MOL0     C89791   3.330   2.624   5.664 -0.0919 -0.0453  0.4163
  681MOL0     C89792   3.327   2.502   5.737 -0.4114 -0.0347 -0.6026
  681MOL0     C89793   3.211   2.471   5.807  1.2572 -0.1141 -0.2036
  681MOL0     C89794   3.091   2.545   5.797 -0.5097  0.0571  0.2207
  681MOL0     O89795   2.976   2.511   5.850  0.7655  0.3720  0.2224
  681MOL0     C89796   2.924   2.390   5.793  0.3574 -0.2043 -0.2029
  681MOL0     C89797   2.823   2.310   5.887  0.2064  0.2074  0.7180
  681MOL0     C89798   2.843   2.349   6.029 -0.2765 -0.2802 -0.4310
  681MOL0     C89799   2.741   2.281   6.122  0.1015 -0.1233  0.1580
  681MOL0     C89800   2.751   2.134   6.119 -0.5062  0.7654  0.3478
  681MOL0     C89801   2.647   2.075   6.230  1.0473 -0.4984  0.1487
  681MOL0     C89802   2.654   1.920   6.245  0.5734  0.6583  0.2128
  681MOL0     C89803   2.660   1.848   6.112 -0.0028 -0.5005  0.9222
  681MOL0    Cl89804   2.495   1.868   6.041  0.2509 -0.1812  0.1003
  681MOL0     C89805   3.106   2.661   5.726  0.4305 -1.2040  0.5388
  681MOL0     C89806   3.221   2.701   5.664 -0.0320 -0.1569  0.1579
  681MOL0     O89807   3.373   2.571   5.394  0.2947  0.0809  0.0001
  681MOL0     C89808   3.603   2.678   5.269 -0.9493  0.2137 -0.6442
  681MOL0     C89809   3.731   2.718   5.220  0.3618 -0.3214 -0.5500
  681MOL0     N89810   4.429   2.938   5.077  0.1410  0.4559  0.8499
  681MOL0     N89811   4.541   2.880   5.077 -0.5775 -0.4486 -0.0108
  681MOL0     C89812   5.704   2.399   4.776 -0.1260 -1.2359  0.0591
  681MOL0     C89813   5.784   2.371   4.889  0.0653 -0.5632 -0.4197
  681MOL0     C89814   5.890   2.419   5.357  0.1708  1.2315  0.8127
  681MOL0     C89815   5.818   2.377   5.467  0.3544  0.2459 -0.9727
  681MOL0     C89816   5.881   2.370   5.591 -0.2969 -0.1630 -0.0237
  681MOL0     C89817   6.020   2.380   5.597 -0.1483 -0.4061  0.4126
  681MOL0     O89818   6.078   2.363   5.726  0.2193  0.3215  0.3131
  681MOL0     C89819   6.213   2.409   5.739 -1.1861 -0.1249  1.5441
  681MOL0     C89820   6.264   2.389   5.885 -0.0890  0.1094  0.3296
  681MOL0     C89821   6.164   2.442   5.984 -0.1293 -0.0684 -0.2072
  681MOL0     C89822   6.105   2.332   6.070 -0.4386  0.7553  0.6909
  681MOL0     C89823   6.188   2.283   6.182  1.0489 -0.6234  1.2512
  681MOL0     C89824   6.259   2.254   6.274  0.7249  0.8808 -0.5455
  681MOL0     C89825   6.086   2.424   5.487 -0.3185  0.2525 -0.6246
  681MOL0     C89826   6.025   2.448   5.365  0.7680  0.1054 -0.1041
  681MOL0     H89827   5.757   2.666   5.047 -0.6855 -0.3444  1.1125
  681MOL0     H89828   5.619   2.714   4.861 -0.7340 -0.6167  2.9846
  681MOL0     H89829   5.444   2.701   4.601 -2.2687 -0.1552 -0.6852
  681MOL0     H89830   5.423   2.639   4.765 -2.6057  0.6326 -0.7055
  681MOL0     H89831   5.291   2.461   4.714  1.2483 -0.3595 -0.8861
  681MOL0     H89832   5.321   2.470   4.541  1.0843  0.2738 -0.2444
  681MOL0     H89833   5.090   2.564   4.589 -0.7170  2.4255  1.0328
  681MOL0     H89834   5.197   2.708   4.557  0.0913  0.8228 -0.1166
  681MOL0     H89835   5.135   2.601   4.833  0.7114 -2.7880 -2.5529
  681MOL0     H89836   5.201   2.758   4.777  2.7787 -1.3290  1.0984
  681MOL0     H89837   4.917   2.651   4.733 -2.5896  2.1788 -3.2335
  681MOL0     H89838   4.978   2.801   4.662 -1.3325 -0.5123 -0.6597
  681MOL0     H89839   5.035   2.849   4.907  0.2290 -0.0640 -1.6480
  681MOL0     H89840   4.963   2.705   4.961 -0.3046 -1.1776 -0.9666
  681MOL0     H89841   4.819   2.904   4.976 -0.9520 -0.0196  0.5651
  681MOL0     H89842   4.789   2.896   4.788  0.9941 -2.9285 -2.5745
  681MOL0     H89843   4.721   2.694   5.002  2.1013 -1.6964 -2.0453
  681MOL0     H89844   4.670   2.678   4.839  1.1087  0.3143 -0.0654
  681MOL0     H89845   4.461   2.866   4.760 -2.2854 -0.3210  0.1519
  681MOL0     H89846   4.232   3.010   4.791 -1.8776 -4.5552  0.1267
  681MOL0     H89847   4.205   3.086   4.939  0.3720  0.8893 -1.6467
  681MOL0     H89848   4.152   2.787   4.899  3.1837  0.9790 -1.3788
  681MOL0     H89849   4.036   2.924   4.896  0.1952  0.2399 -1.6891
  681MOL0     H89850   4.198   2.846   5.136  0.9629 -1.9461 -1.3332
  681MOL0     H89851   4.087   2.986   5.119 -0.8574 -0.9521  2.0548
  681MOL0     H89852   4.009   2.693   5.079  4.9379  0.6011 -0.2788
  681MOL0     H89853   3.894   2.829   5.069 -1.8930 -4.0620  0.8192
  681MOL0     H89854   3.901   2.753   5.501 -0.8774  0.1375  0.8763
  681MOL0     H89855   3.690   2.701   5.609  0.8905  0.7794  0.1538
  681MOL0     H89856   3.420   2.448   5.752 -0.6826 -0.1094  0.9365
  681MOL0     H89857   3.197   2.380   5.865 -3.2511  1.4666  1.6887
  681MOL0     H89858   2.996   2.315   5.762 -1.7248 -1.4964 -2.3015
  681MOL0     H89859   2.863   2.417   5.706 -1.0253 -2.1916  0.0895
  681MOL0     H89860   2.844   2.203   5.871 -0.8693  0.3449 -2.3108
  681MOL0     H89861   2.717   2.333   5.871 -0.4677 -1.5180  2.2557
  681MOL0     H89862   2.840   2.457   6.042  2.6177 -0.2088  0.5597
  681MOL0     H89863   2.948   2.331   6.056  0.4648  1.9017 -1.6532
  681MOL0     H89864   2.767   2.311   6.224  2.4692 -3.3323  0.6399
  681MOL0     H89865   2.639   2.309   6.093  0.7799  0.5606 -1.7364
  681MOL0     H89866   2.854   2.101   6.137 -0.0908  1.4214 -0.7497
  681MOL0     H89867   2.715   2.102   6.021  0.5503  0.2474  0.1209
  681MOL0     H89868   2.545   2.093   6.194  1.1673 -0.0650  0.0239
  681MOL0     H89869   2.652   2.131   6.324  2.3855  0.5970 -0.5332
  681MOL0     H89870   2.737   1.895   6.311 -0.4231 -2.4660  0.4467
  681MOL0     H89871   2.566   1.896   6.306  0.2031  1.5725  0.0588
  681MOL0     H89872   2.660   1.742   6.137 -3.4369 -0.5844  1.0056
  681MOL0     H89873   2.750   1.873   6.055  0.1449 -0.9043  0.9754
  681MOL0     H89874   3.022   2.718   5.688 -1.1518 -3.9433 -0.3757
  681MOL0     H89875   3.216   2.797   5.613 -1.2684 -0.7891 -0.9596
  681MOL0     H89876   3.531   2.675   5.188 -1.3188  0.1210 -0.3159
  681MOL0     H89877   3.726   2.727   5.112  0.9190  1.4689 -0.4587
  681MOL0     H89878   5.682   2.317   4.709  0.3052 -3.6483  2.6511
  681MOL0     H89879   5.797   2.265   4.905 -3.6849 -1.5486 -2.6635
  681MOL0     H89880   5.711   2.360   5.463  0.3340  0.1772 -0.2136
  681MOL0     H89881   5.833   2.325   5.677 -1.1355 -3.2107 -1.9407
  681MOL0     H89882   6.196   2.515   5.721  2.4261  0.6607  1.8933
  681MOL0     H89883   6.283   2.360   5.670  0.0269 -0.3165  2.8395
  681MOL0     H89884   6.286   2.284   5.906 -3.7551 -1.1718 -1.4394
  681MOL0     H89885   6.349   2.458   5.893  0.9700 -1.0761 -0.3029
  681MOL0     H89886   6.076   2.480   5.932 -3.3319 -2.9800  2.5391
  681MOL0     H89887   6.204   2.517   6.052 -0.2057 -0.7079  0.5571
  681MOL0     H89888   6.020   2.378   6.122 -0.6760  1.2046 -0.0830
  681MOL0     H89889   6.058   2.257   6.005 -0.3265  1.0756  0.2369
  681MOL0     H89890   6.307   2.228   6.367 -0.1588 -0.9610 -0.5462
  681MOL0     H89891   6.192   2.449   5.482 -0.6588  2.7018  2.0577
  681MOL0     H89892   6.087   2.475   5.280  1.2247  2.5499  0.9368
  682MOL0     O89893   2.845   7.005   4.823 -0.4886  0.9640 -0.7475
  682MOL0     C89894   2.835   7.033   4.942 -0.8349 -0.4143 -0.0380
  682MOL0     O89895   2.933   7.055   5.035  0.0148 -0.3048 -0.1054
  682MOL0     C89896   3.059   7.033   4.993 -0.6558 -0.0698  0.3340
  682MOL0     C89897   3.166   7.124   4.976  0.5819  0.4182 -0.4724
  682MOL0     C89898   3.287   7.097   4.922  0.3115  1.4931 -0.1108
  682MOL0     C89899   3.326   6.965   4.892 -0.2441 -0.0030 -0.9091
  682MOL0     O89900   3.443   6.936   4.839  0.5777  0.1466 -0.1237
  682MOL0     C89901   3.562   6.938   4.923 -0.0925 -0.1770 -0.4255
  682MOL0     C89902   3.665   6.862   4.842  0.2811  0.5090 -0.8689
  682MOL0     C89903   3.695   6.933   4.711  0.4287  0.5435 -0.9319
  682MOL0     C89904   3.822   6.867   4.635 -0.0915 -0.4359  0.7510
  682MOL0     C89905   3.851   6.938   4.512 -0.3680  0.0509 -0.0302
  682MOL0     C89906   3.955   6.860   4.421 -0.6696 -0.2656 -0.1954
  682MOL0     C89907   3.990   6.938   4.295 -0.1043  0.5012  0.7287
  682MOL0     C89908   4.095   7.039   4.307  0.0841  0.7314  0.0467
  682MOL0     N89909   4.216   6.979   4.377 -0.3080 -1.2268 -0.3527
  682MOL0     C89910   4.251   7.009   4.501 -0.1903 -1.0363  0.3955
  682MOL0     C89911   4.351   6.922   4.531 -0.1573  0.8332  0.0015
  682MOL0     C89912   4.444   6.925   4.646  0.5053  0.0197 -0.3008
  682MOL0     C89913   4.404   6.822   4.742 -0.2267  0.1929 -0.0927
  682MOL0     C89914   4.268   6.867   4.812 -0.0841  0.3918  0.1556
  682MOL0     C89915   4.238   6.764   4.923  1.1714 -0.2738  0.8252
  682MOL0     O89916   4.183   6.644   4.872  0.2716 -0.0155 -0.0824
  682MOL0     C89917   4.058   6.606   4.914 -0.3294  0.0856 -0.1964
  682MOL0     C89918   4.035   6.583   5.055  0.7103  0.8603 -0.8316
  682MOL0     C89919   3.931   6.504   5.111 -1.0436 -0.5243 -0.0716
  682MOL0     C89920   3.825   6.467   5.018 -0.6948 -0.4137 -0.8195
  682MOL0     C89921   3.703   6.399   5.067 -0.3697  0.1770  0.6535
  682MOL0     O89922   3.686   6.390   5.196 -0.3542 -0.1453 -0.3255
  682MOL0     C89923   3.581   6.312   5.243  0.2803 -0.2047 -0.4255
  682MOL0     C89924   3.446   6.297   5.196 -0.0654 -0.1311 -0.3907
  682MOL0     C89925   3.356   6.203   5.259  0.2437  1.1737  1.3126
  682MOL0     C89926   3.402   6.115   5.357  0.7625 -0.5186 -0.3898
  682MOL0     O89927   3.309   6.021   5.390 -0.0512 -0.0246  0.3516
  682MOL0     C89928   3.286   6.007   5.529  0.6120  0.5692  0.0475
  682MOL0     C89929   3.153   6.062   5.575  0.5705 -0.2726  0.3789
  682MOL0     C89930   3.037   5.968   5.551 -0.2404  0.5396  0.0569
  682MOL0     C89931   2.922   6.047   5.624  0.6923 -0.0499  0.3880
  682MOL0     C89932   2.790   5.965   5.631  0.6222 -0.2604  0.2735
  682MOL0     C89933   2.671   6.034   5.703  0.4666  0.3950  0.1467
  682MOL0     C89934   2.550   5.951   5.751 -0.4452  0.0026  0.3216
  682MOL0     C89935   2.444   5.910   5.649  0.3286 -0.2598  0.3661
  682MOL0    Cl89936   2.344   6.057   5.630  0.3889  0.0533 -0.3100
  682MOL0     C89937   3.532   6.134   5.412 -0.1730  0.5969  0.1929
  682MOL0     C89938   3.617   6.234   5.358 -1.1149 -0.2923  0.1656
  682MOL0     O89939   3.625   6.362   4.977  0.9664  0.1431  0.1592
  682MOL0     C89940   3.838   6.511   4.882 -0.7249 -0.1959  0.1103
  682MOL0     C89941   3.958   6.568   4.829  0.9786  0.2296  0.0970
  682MOL0     N89942   4.369   6.846   4.420  0.4291  0.0776 -0.0723
  682MOL0     N89943   4.295   6.880   4.325  0.5284 -1.0021 -1.3422
  682MOL0     C89944   3.226   6.864   4.901 -0.7780 -0.0972 -0.8514
  682MOL0     C89945   3.097   6.901   4.958  0.5841 -0.0567  0.0365
  682MOL0     C89946   2.699   7.069   4.987 -0.2404  0.1696 -0.0701
  682MOL0     C89947   2.590   7.052   4.905  0.6147  0.6420  0.8317
  682MOL0     C89948   2.464   7.082   4.952  0.2988  0.8036 -0.2891
  682MOL0     C89949   2.442   7.129   5.085 -0.0298  0.2661  0.2143
  682MOL0     O89950   2.328   7.175   5.140  0.1141  0.5309 -0.2158
  682MOL0     C89951   2.198   7.168   5.073 -0.5594  1.0719  0.2375
  682MOL0     C89952   2.147   7.018   5.069  0.4178 -0.3586 -0.6004
  682MOL0     C89953   2.032   7.006   4.971  0.4867  0.0363 -0.0886
  682MOL0     C89954   1.946   6.877   4.983 -0.6425  1.1357 -0.9641
  682MOL0     C89955   1.848   6.868   4.873 -0.5093 -0.4668 -0.1575
  682MOL0     C89956   1.765   6.844   4.777 -0.5579 -0.5871 -0.1065
  682MOL0     C89957   2.558   7.145   5.168 -0.3372  0.1579 -0.5283
  682MOL0     C89958   2.683   7.111   5.118 -0.0064 -0.4084 -0.2250
  682MOL0     H89959   3.152   7.227   5.006  0.0656 -0.1265  1.2695
  682MOL0     H89960   3.370   7.166   4.909  2.4979 -0.9778  0.0174
  682MOL0     H89961   3.532   6.900   5.021 -2.5548  0.7969 -0.7412
  682MOL0     H89962   3.597   7.041   4.925  1.0447 -0.4585 -2.4241
  682MOL0     H89963   3.639   6.756   4.827 -1.4675  0.7867 -0.0268
  682MOL0     H89964   3.755   6.857   4.904 -1.1026 -2.2248  1.1622
  682MOL0     H89965   3.719   7.038   4.731 -0.7548  0.7514 -0.5125
  682MOL0     H89966   3.607   6.942   4.647 -1.4370  1.3939  1.5820
  682MOL0     H89967   3.915   6.848   4.691 -0.5203 -1.7571  1.0717
  682MOL0     H89968   3.790   6.764   4.614 -0.5319 -0.2081  0.3034
  682MOL0     H89969   3.901   7.031   4.540 -1.0065  0.6784 -0.8967
  682MOL0     H89970   3.757   6.956   4.458 -0.1049 -2.8152 -1.6621
  682MOL0     H89971   3.902   6.767   4.398  1.3568 -2.1316  2.2596
  682MOL0     H89972   4.040   6.831   4.482 -0.2300  1.9642  0.3412
  682MOL0     H89973   4.035   6.875   4.218 -2.3910  1.0403 -1.1672
  682MOL0     H89974   3.905   6.990   4.252  0.9405  1.6430 -0.0198
  682MOL0     H89975   4.060   7.113   4.380 -0.2908 -0.0127  0.6305
  682MOL0     H89976   4.109   7.087   4.209 -0.2031  0.2469 -0.2351
  682MOL0     H89977   4.215   7.096   4.554 -2.2427 -0.4127 -1.8633
  682MOL0     H89978   4.439   7.024   4.691  0.8136 -1.4767  3.3874
  682MOL0     H89979   4.543   6.904   4.605  0.7423 -1.9388  1.1239
  682MOL0     H89980   4.484   6.809   4.815 -2.4807 -3.6683  2.0096
  682MOL0     H89981   4.400   6.727   4.689 -0.3194 -0.2623  0.7183
  682MOL0     H89982   4.260   6.966   4.856 -0.9128 -0.2507  1.5148
  682MOL0     H89983   4.185   6.852   4.742 -0.7998 -1.1524  1.2603
  682MOL0     H89984   4.170   6.818   4.990 -0.3855 -1.9105  0.6547
  682MOL0     H89985   4.334   6.739   4.968  0.8654 -2.0105  0.5904
  682MOL0     H89986   4.113   6.626   5.117 -0.1313  0.0627  0.8495
  682MOL0     H89987   3.931   6.489   5.219 -0.5632 -0.8396 -0.1131
  682MOL0     H89988   3.412   6.355   5.111 -3.4482 -1.5519 -0.1847
  682MOL0     H89989   3.256   6.200   5.218  0.6813 -0.0894  0.2468
  682MOL0     H89990   3.356   6.063   5.593  0.2841  0.1198  0.8201
  682MOL0     H89991   3.295   5.900   5.549 -1.6022 -0.5084 -3.8676
  682MOL0     H89992   3.135   6.158   5.527  0.8393  1.2851  3.2335
  682MOL0     H89993   3.159   6.092   5.679 -3.1354 -2.0225  1.2553
  682MOL0     H89994   3.035   5.873   5.605  0.0055  1.0098  0.9062
  682MOL0     H89995   3.013   5.954   5.445 -2.0662 -0.8007  0.5890
  682MOL0     H89996   2.952   6.067   5.727 -0.0432 -1.1181  0.8229
  682MOL0     H89997   2.894   6.145   5.583 -3.3632  0.9371  4.6091
  682MOL0     H89998   2.810   5.868   5.677 -2.0811 -1.7470 -1.4505
  682MOL0     H89999   2.756   5.937   5.531  1.2957 -1.8845  0.4802
  682MOL0     H90000   2.642   6.117   5.638 -1.6778  0.5456  1.2042
  682MOL0     H90001   2.709   6.080   5.795 -1.4131  1.3248  0.5051
  682MOL0     H90002   2.584   5.855   5.791  1.0683  0.9166  1.3354
  682MOL0     H90003   2.502   6.001   5.836 -1.3773  3.6293 -2.1074
  682MOL0     H90004   2.387   5.826   5.692  0.2295 -0.7025 -0.6127
  682MOL0     H90005   2.479   5.884   5.549  1.8830  0.0639  0.8110
  682MOL0     H90006   3.569   6.072   5.493 -1.2098  1.5399  1.4427
  682MOL0     H90007   3.715   6.252   5.402 -2.1567  3.5990  1.2588
  682MOL0     H90008   3.760   6.478   4.815  0.4347 -1.9609 -0.4544
  682MOL0     H90009   3.971   6.575   4.721 -0.6785  0.4927 -0.1108
  682MOL0     H90010   3.259   6.763   4.878 -0.7469 -0.1407 -0.6151
  682MOL0     H90011   3.013   6.834   4.968 -2.2059  3.3384  1.7111
  682MOL0     H90012   2.596   7.016   4.802  1.9569 -2.1991  1.7971
  682MOL0     H90013   2.375   7.062   4.892  1.1160  0.4042 -1.3921
  682MOL0     H90014   2.205   7.209   4.972  2.4503  1.8457  0.6660
  682MOL0     H90015   2.122   7.225   5.129 -1.5771  2.6128 -2.4906
  682MOL0     H90016   2.220   6.941   5.044 -0.1799 -1.4729  0.9588
  682MOL0     H90017   2.102   6.993   5.165 -0.6519  1.0387 -0.6926
  682MOL0     H90018   2.052   7.033   4.867 -0.5325  2.2271  0.2289
  682MOL0     H90019   1.957   7.079   5.003 -0.5819 -1.8663  2.0270
  682MOL0     H90020   2.017   6.794   4.984  2.0857  3.3174  0.5452
  682MOL0     H90021   1.898   6.874   5.081  1.5294  1.2767  0.1660
  682MOL0     H90022   1.705   6.832   4.689  2.7223 -0.0181 -2.6717
  682MOL0     H90023   2.549   7.173   5.272  0.4311  0.8189 -0.6307
  682MOL0     H90024   2.766   7.125   5.187 -0.9527 -0.4549  0.9624
  683MOL0     O90025   1.038   3.944  11.166  0.2823  0.4875 -0.4122
  683MOL0     C90026   1.002   3.820  11.171 -0.6898  0.1597 -0.4056
  683MOL0     O90027   0.894   3.773  11.117  0.5157 -0.3396  0.6476
  683MOL0     C90028   0.809   3.852  11.045 -0.3333 -0.3658 -0.4395
  683MOL0     C90029   0.756   3.961  11.105 -0.5809 -0.4028 -0.4342
  683MOL0     C90030   0.668   4.041  11.037 -0.0742  0.0497 -0.3196
  683MOL0     C90031   0.634   4.009  10.903 -0.6856 -0.6224 -0.6622
  683MOL0     O90032   0.550   4.104  10.850  0.0009  1.1080 -0.2152
  683MOL0     C90033   0.506   4.079  10.712  0.7518  0.2256 -0.4906
  683MOL0     C90034   0.428   4.204  10.666  0.7229  0.0950  0.4086
  683MOL0     C90035   0.402   4.187  10.517 -0.4379 -0.6199 -0.3008
  683MOL0     C90036   0.320   4.307  10.456 -0.3706 -0.2301  0.0009
  683MOL0     C90037   0.189   4.324  10.534  0.3643  0.0998 -0.4825
  683MOL0     C90038   0.109   4.440  10.504 -0.1270  0.2518  0.0617
  683MOL0     C90039   0.066   4.451  10.348  0.7541  0.3304 -1.2644
  683MOL0     C90040  -0.064   4.364  10.325  0.0676 -0.3294 -0.3435
  683MOL0     N90041  -0.177   4.430  10.390 -0.0326 -0.1968 -0.0375
  683MOL0     C90042  -0.254   4.527  10.337  0.6917 -0.2880 -0.0536
  683MOL0     C90043  -0.344   4.570  10.431  0.4507 -0.4744 -0.2621
  683MOL0     C90044  -0.457   4.669  10.391  0.5934 -0.1799  0.0546
  683MOL0     C90045  -0.413   4.815  10.357  0.3396  0.9937  0.7735
  683MOL0     C90046  -0.508   4.876  10.256 -0.4095 -0.3165 -0.3429
  683MOL0     C90047  -0.476   5.021  10.230 -0.0466  0.7821  0.0891
  683MOL0     O90048  -0.486   5.094  10.353 -0.1814  0.4519  0.0430
  683MOL0     C90049  -0.597   5.158  10.396 -0.3164 -0.5537 -0.5982
  683MOL0     C90050  -0.713   5.164  10.324 -0.4446  0.1177  0.4030
  683MOL0     C90051  -0.821   5.243  10.381  1.1225  0.8837  0.2848
  683MOL0     C90052  -0.807   5.310  10.503  0.4914 -0.5555 -0.6946
  683MOL0     C90053  -0.907   5.409  10.547 -0.2517 -1.0454  0.3945
  683MOL0     O90054  -1.021   5.411  10.468  0.5533 -0.0363  0.0053
  683MOL0     C90055  -1.116   5.510  10.480  0.5499 -0.9352  0.1744
  683MOL0     C90056  -1.190   5.537  10.364 -1.0001  0.4624 -0.1875
  683MOL0     C90057  -1.295   5.627  10.366  0.4731  0.3903 -0.6922
  683MOL0     C90058  -1.323   5.703  10.478 -0.9768  0.5492 -0.1256
  683MOL0     O90059  -1.419   5.808  10.482  0.0359  0.0299 -0.3454
  683MOL0     C90060  -1.489   5.836  10.362 -0.8529 -0.2797 -0.1262
  683MOL0     C90061  -1.582   5.953  10.378  0.4615  0.5003 -0.3352
  683MOL0     C90062  -1.675   5.935  10.503 -0.6202 -0.1041  0.3098
  683MOL0     C90063  -1.769   6.056  10.516 -0.0157 -0.0759 -0.7869
  683MOL0     C90064  -1.830   6.076  10.662 -0.4768 -0.7114  0.3321
  683MOL0     C90065  -1.934   6.181  10.664  0.3660 -0.3540  1.3431
  683MOL0     C90066  -1.985   6.198  10.808 -0.3454 -0.1834  1.2509
  683MOL0     C90067  -2.095   6.303  10.807 -0.5732 -0.4189 -0.6666
  683MOL0    Cl90068  -2.224   6.252  10.705 -0.2322  0.3963  0.4604
  683MOL0     C90069  -1.247   5.683  10.590 -0.1368 -0.2784  0.0620
  683MOL0     C90070  -1.146   5.587  10.594 -0.0499  0.7241  0.7433
  683MOL0     O90071  -0.887   5.469  10.652 -0.5206 -0.3645  0.3546
  683MOL0     C90072  -0.688   5.290  10.575  0.1334  0.0147  0.2919
  683MOL0     C90073  -0.582   5.224  10.518  0.1145 -0.1453  0.4905
  683MOL0     N90074  -0.323   4.481  10.536  0.2756  0.4811 -0.6105
  683MOL0     N90075  -0.225   4.398  10.510 -0.5221  0.0031  0.1168
  683MOL0     C90076   0.667   3.887  10.852 -0.7443  0.2313 -0.4907
  683MOL0     C90077   0.749   3.806  10.929  0.2231 -0.4687 -0.8747
  683MOL0     C90078   1.098   3.730  11.226 -0.9491  0.0424 -0.6068
  683MOL0     C90079   1.234   3.771  11.251 -0.5887 -0.1768 -1.0396
  683MOL0     C90080   1.327   3.681  11.304  0.2386  0.1362  0.8354
  683MOL0     C90081   1.292   3.547  11.327 -0.1473 -0.5908 -0.8248
  683MOL0     O90082   1.391   3.472  11.388 -0.0542  0.0293 -0.1348
  683MOL0     C90083   1.410   3.348  11.333 -0.2427 -0.3892 -0.4327
  683MOL0     C90084   1.548   3.298  11.369 -0.5824  0.5105 -0.3086
  683MOL0     C90085   1.556   3.190  11.471  0.1901  0.3677 -0.9553
  683MOL0     C90086   1.703   3.138  11.486  0.6495 -0.4340  0.5816
  683MOL0     C90087   1.713   3.038  11.594  0.0796 -1.3563  0.0653
  683MOL0     C90088   1.714   2.959  11.683 -0.3753  0.2822 -0.1068
  683MOL0     C90089   1.162   3.507  11.297 -0.0131 -0.6030 -0.2906
  683MOL0     C90090   1.065   3.598  11.241  0.0609  0.4090 -0.6386
  683MOL0     H90091   0.786   3.980  11.207 -1.5236  2.3076 -0.5700
  683MOL0     H90092   0.629   4.134  11.078 -0.7658 -0.4824  0.2398
  683MOL0     H90093   0.442   3.991  10.709  3.2792 -2.2041  4.3425
  683MOL0     H90094   0.600   4.071  10.656  1.5708  0.8549  0.7403
  683MOL0     H90095   0.489   4.291  10.692  2.3639 -0.7176 -0.5154
  683MOL0     H90096   0.336   4.199  10.725  0.5889 -0.6843  0.1498
  683MOL0     H90097   0.345   4.095  10.507  0.9282 -1.3658 -1.4992
  683MOL0     H90098   0.496   4.162  10.469  0.0717 -1.9118  1.2715
  683MOL0     H90099   0.384   4.395  10.467 -1.1118  0.1240  1.7969
  683MOL0     H90100   0.302   4.300  10.348  0.5839  0.1050 -0.1882
  683MOL0     H90101   0.201   4.321  10.643  1.6320 -0.4866 -0.6171
  683MOL0     H90102   0.129   4.233  10.524  1.0074 -0.5927  1.4701
  683MOL0     H90103   0.159   4.532  10.537  2.6298 -1.4044  0.7900
  683MOL0     H90104   0.023   4.450  10.571  0.0065  0.5484  0.1935
  683MOL0     H90105   0.032   4.554  10.337 -3.5058 -0.7971 -0.5208
  683MOL0     H90106   0.148   4.429  10.279  0.0087  1.2446 -2.4717
  683MOL0     H90107  -0.055   4.258  10.351 -0.0641 -0.4487 -0.7760
  683MOL0     H90108  -0.083   4.371  10.217  0.2058 -2.9426 -0.5973
  683MOL0     H90109  -0.243   4.567  10.237  0.1407 -0.0248 -0.0156
  683MOL0     H90110  -0.532   4.678  10.470 -0.2949 -4.4135 -0.0347
  683MOL0     H90111  -0.500   4.622  10.302 -2.8207  1.4193  0.7189
  683MOL0     H90112  -0.313   4.831  10.318 -1.0188  4.6752 -1.6977
  683MOL0     H90113  -0.419   4.871  10.451  0.4534 -0.4654  1.6892
  683MOL0     H90114  -0.504   4.834  10.156  1.8191  1.4953 -1.0971
  683MOL0     H90115  -0.609   4.859  10.296 -0.5703  0.4020 -0.4320
  683MOL0     H90116  -0.529   5.060  10.143 -1.9973 -0.7596  0.5116
  683MOL0     H90117  -0.369   5.027  10.205  0.4439 -0.7996  1.5554
  683MOL0     H90118  -0.712   5.128  10.222 -2.8979  0.2746  0.2590
  683MOL0     H90119  -0.911   5.257  10.322  1.5538 -0.6153 -0.8245
  683MOL0     H90120  -1.192   5.471  10.278 -1.1033  1.9370 -1.3675
  683MOL0     H90121  -1.371   5.635  10.289  0.4616 -0.3895 -0.7654
  683MOL0     H90122  -1.537   5.744  10.328  1.7568 -1.9333  0.3078
  683MOL0     H90123  -1.408   5.864  10.294  1.3867 -2.2298  1.5144
  683MOL0     H90124  -1.647   5.957  10.290  2.4263 -0.1714 -1.8700
  683MOL0     H90125  -1.530   6.049  10.387 -2.2774  1.9961  0.8477
  683MOL0     H90126  -1.610   5.926  10.590 -1.6514  0.2409  1.1393
  683MOL0     H90127  -1.738   5.845  10.505 -0.4418 -0.2332  0.1626
  683MOL0     H90128  -1.720   6.153  10.505  0.9610 -0.3156  0.9471
  683MOL0     H90129  -1.848   6.040  10.442 -1.0734 -2.2478  0.6839
  683MOL0     H90130  -1.750   6.105  10.731 -2.7483 -0.2167  2.9301
  683MOL0     H90131  -1.857   5.976  10.699 -0.4812 -1.4507 -1.5499
  683MOL0     H90132  -2.009   6.155  10.589  2.4210  1.1367 -1.3927
  683MOL0     H90133  -1.886   6.273  10.632  0.0578 -0.2564  1.1576
  683MOL0     H90134  -2.019   6.102  10.848 -0.1042 -0.5540  0.5924
  683MOL0     H90135  -1.903   6.232  10.873  4.5988 -2.0917 -3.2049
  683MOL0     H90136  -2.060   6.403  10.779  0.9632  0.4222  3.5851
  683MOL0     H90137  -2.133   6.297  10.909 -0.6476  1.1526 -0.5742
  683MOL0     H90138  -1.256   5.750  10.675  1.5923  1.5013 -1.0544
  683MOL0     H90139  -1.099   5.556  10.687  0.4066 -1.0956 -0.0558
  683MOL0     H90140  -0.679   5.330  10.676 -0.5981 -2.5389  1.4410
  683MOL0     H90141  -0.487   5.218  10.570  2.0664 -3.7251 -2.9593
  683MOL0     H90142   0.627   3.849  10.758  0.2144  2.3503 -1.8512
  683MOL0     H90143   0.766   3.710  10.880 -1.9852  0.5089 -3.8053
  683MOL0     H90144   1.263   3.873  11.227  0.3578  0.1239  1.1831
  683MOL0     H90145   1.421   3.723  11.338  0.2140 -0.4228  1.6095
  683MOL0     H90146   1.398   3.349  11.224 -1.3500 -0.4630 -0.3263
  683MOL0     H90147   1.337   3.283  11.382 -2.1506 -0.2928 -2.9234
  683MOL0     H90148   1.585   3.251  11.277  0.0193 -0.4036  0.3767
  683MOL0     H90149   1.614   3.378  11.404  0.2907 -0.6183  0.7391
  683MOL0     H90150   1.494   3.107  11.434 -1.5018  0.8428  0.6778
  683MOL0     H90151   1.509   3.219  11.565 -0.1816  1.6838 -1.5274
  683MOL0     H90152   1.727   3.083  11.395  2.6654  1.4619 -0.1143
  683MOL0     H90153   1.765   3.225  11.510  0.2859 -0.5994  2.2151
  683MOL0     H90154   1.735   2.891  11.763  1.6046 -0.8154 -1.4783
  683MOL0     H90155   1.127   3.405  11.307  1.3029 -1.0012  0.3611
  683MOL0     H90156   0.969   3.562  11.204  1.3755 -0.9821 -2.9319
  684MOL0     O90157   8.428   0.765   7.550  0.0017  0.1314  0.3652
  684MOL0     C90158   8.516   0.775   7.640 -0.2417  0.5358 -0.5569
  684MOL0     O90159   8.497   0.766   7.777 -0.2135  0.1093 -0.0158
  684MOL0     C90160   8.376   0.734   7.834 -0.2329  0.2344  0.9629
  684MOL0     C90161   8.292   0.633   7.781  0.1179  0.9248  0.0725
  684MOL0     C90162   8.163   0.612   7.835 -0.4856 -0.3754  0.3367
  684MOL0     C90163   8.112   0.698   7.935  0.8580  0.7848 -0.0059
  684MOL0     O90164   7.999   0.678   8.002  0.3625 -0.1575  0.2452
  684MOL0     C90165   7.908   0.592   7.938  0.6018  0.1309  0.8595
  684MOL0     C90166   7.763   0.598   8.011 -0.3493 -0.4205  0.5297
  684MOL0     C90167   7.676   0.519   7.926 -0.4697  0.1347 -0.7960
  684MOL0     C90168   7.530   0.489   7.980 -0.9816  0.6745 -0.0128
  684MOL0     C90169   7.439   0.613   8.017 -0.1526 -0.8666  0.2907
  684MOL0     C90170   7.389   0.692   7.898 -1.2450 -0.4621 -0.0013
  684MOL0     C90171   7.295   0.621   7.803  0.5318  0.5373 -0.1214
  684MOL0     C90172   7.158   0.583   7.872 -0.4806  0.6198  0.3527
  684MOL0     N90173   7.077   0.685   7.947 -0.3659  1.2476 -0.2136
  684MOL0     C90174   6.982   0.658   8.041  0.1199  0.1626 -0.3323
  684MOL0     C90175   6.911   0.776   8.051 -1.3948 -0.0202 -0.1911
  684MOL0     C90176   6.792   0.790   8.147  0.9232  0.2553  1.3788
  684MOL0     C90177   6.657   0.747   8.081 -0.1181  0.4637 -1.1029
  684MOL0     C90178   6.618   0.836   7.959  1.0337  0.4513  0.0377
  684MOL0     C90179   6.623   0.986   7.982  0.2962 -0.6869 -0.1817
  684MOL0     O90180   6.531   1.009   8.092  0.4797  0.3537 -0.7177
  684MOL0     C90181   6.516   1.139   8.127 -0.2198 -0.6096  0.3016
  684MOL0     C90182   6.582   1.255   8.070  0.3823  0.1095 -0.7456
  684MOL0     C90183   6.545   1.382   8.110  0.7369  0.0576  0.5856
  684MOL0     C90184   6.438   1.399   8.203  0.6487 -0.5630 -0.3350
  684MOL0     C90185   6.418   1.527   8.272  0.5677 -0.0380  0.3307
  684MOL0     O90186   6.302   1.547   8.340  0.1170 -0.3477  0.3586
  684MOL0     C90187   6.264   1.657   8.412  0.1621  0.1073  0.0908
  684MOL0     C90188   6.344   1.722   8.506 -0.1434 -0.5971 -0.2770
  684MOL0     C90189   6.301   1.848   8.552  0.4169  0.1456  0.5873
  684MOL0     C90190   6.180   1.905   8.524 -0.9533 -0.3923  0.0222
  684MOL0     O90191   6.151   2.026   8.577 -1.1037 -0.0965 -0.9996
  684MOL0     C90192   6.017   2.065   8.597 -0.6674 -0.0246 -0.1987
  684MOL0     C90193   6.007   2.186   8.677 -0.3030  0.3013 -0.1018
  684MOL0     C90194   5.861   2.204   8.710  0.2907 -0.0845 -0.1693
  684MOL0     C90195   5.853   2.315   8.815  0.9816  0.2842 -0.0756
  684MOL0     C90196   5.714   2.332   8.879  0.4066 -0.0199  0.1042
  684MOL0     C90197   5.668   2.216   8.972  0.2430  0.1731  0.4998
  684MOL0     C90198   5.532   2.247   9.038 -0.7918 -0.8526  0.3737
  684MOL0     C90199   5.493   2.123   9.136 -0.1714 -0.4711 -1.1467
  684MOL0    Cl90200   5.592   2.113   9.283 -0.6434  0.2257 -0.2034
  684MOL0     C90201   6.094   1.833   8.437  0.4560 -0.7112 -0.1990
  684MOL0     C90202   6.138   1.714   8.384 -0.0113 -0.1549  0.5189
  684MOL0     O90203   6.495   1.620   8.257 -0.1779  0.6359  0.3324
  684MOL0     C90204   6.371   1.289   8.253 -0.2994  0.7609  0.7123
  684MOL0     C90205   6.413   1.160   8.217  0.5651  0.2735  0.0860
  684MOL0     N90206   6.968   0.875   7.971 -0.0546  0.3259  0.0961
  684MOL0     N90207   7.060   0.816   7.902  0.4870 -0.0042 -0.2339
  684MOL0     C90208   8.186   0.798   7.978  0.0011  0.3390 -0.4812
  684MOL0     C90209   8.320   0.815   7.933 -0.5990  0.2257  0.0623
  684MOL0     C90210   8.651   0.793   7.589  0.3307 -0.4495 -0.3157
  684MOL0     C90211   8.679   0.788   7.451  0.0374 -0.3134  0.1717
  684MOL0     C90212   8.802   0.825   7.395 -0.1933  0.2820  0.7535
  684MOL0     C90213   8.908   0.850   7.478  0.3185 -0.2101 -0.1839
  684MOL0     O90214   9.029   0.885   7.425 -0.4143  0.0857  0.1474
  684MOL0     C90215   9.025   0.943   7.289  0.0086 -0.0738  0.0260
  684MOL0     C90216   9.148   1.034   7.256 -0.7006  0.1705 -0.2085
  684MOL0     C90217   9.283   0.955   7.243  1.0049 -0.8427  0.6584
  684MOL0     C90218   9.415   1.044   7.249 -0.2309 -0.3194 -0.1026
  684MOL0     C90219   9.433   1.096   7.387  0.4356  0.3140  0.2267
  684MOL0     C90220   9.451   1.145   7.500  1.1880 -0.1682  0.4755
  684MOL0     C90221   8.894   0.853   7.620 -0.9488  0.6228 -0.1119
  684MOL0     C90222   8.763   0.834   7.671 -0.2014  0.1786  0.3185
  684MOL0     H90223   8.326   0.583   7.692  3.6287  0.6799  1.4108
  684MOL0     H90224   8.112   0.524   7.799 -1.9362  0.0703  1.1933
  684MOL0     H90225   7.945   0.489   7.935  0.4265  0.0806 -0.0445
  684MOL0     H90226   7.893   0.610   7.831 -1.9689 -4.2149  0.2276
  684MOL0     H90227   7.729   0.702   8.020 -1.9028 -0.8228 -0.2575
  684MOL0     H90228   7.776   0.554   8.110  0.3698 -2.8175 -0.5519
  684MOL0     H90229   7.720   0.419   7.922 -1.8575 -0.7160  2.2556
  684MOL0     H90230   7.666   0.569   7.830 -1.0746 -0.6916 -1.1747
  684MOL0     H90231   7.474   0.440   7.899 -0.8831 -2.0926  1.4481
  684MOL0     H90232   7.538   0.415   8.061 -2.0567  0.6058  0.0346
  684MOL0     H90233   7.499   0.671   8.087 -0.6709 -0.4494  0.3921
  684MOL0     H90234   7.351   0.576   8.069 -0.0850 -1.6338 -0.1120
  684MOL0     H90235   7.474   0.716   7.834 -1.7208 -1.8884 -1.2286
  684MOL0     H90236   7.345   0.785   7.936 -0.9101  0.3706 -1.5294
  684MOL0     H90237   7.272   0.680   7.714 -2.4476 -2.3358 -1.5007
  684MOL0     H90238   7.342   0.531   7.761  0.4661  0.0727  0.7749
  684MOL0     H90239   7.170   0.491   7.931  1.4914  0.0389 -0.8617
  684MOL0     H90240   7.084   0.560   7.795 -0.2798 -0.5671  0.4883
  684MOL0     H90241   6.958   0.565   8.090  1.0279  1.1592  2.1663
  684MOL0     H90242   6.782   0.895   8.176  0.5599  0.4642  0.5206
  684MOL0     H90243   6.820   0.729   8.234  0.2142  0.4904  1.7819
  684MOL0     H90244   6.578   0.756   8.156  0.4141  0.6530 -0.5646
  684MOL0     H90245   6.651   0.640   8.057 -0.9996  0.4838 -1.0058
  684MOL0     H90246   6.680   0.812   7.872  0.9376  1.1083 -0.2163
  684MOL0     H90247   6.514   0.816   7.932  0.3202  1.3527  1.9435
  684MOL0     H90248   6.595   1.044   7.893  5.1499 -1.5987 -2.6703
  684MOL0     H90249   6.724   1.023   8.003  1.5763 -3.3895 -1.0335
  684MOL0     H90250   6.670   1.249   8.007  1.2524  0.0291  0.4413
  684MOL0     H90251   6.585   1.478   8.078  0.5740  1.2634  3.5903
  684MOL0     H90252   6.439   1.675   8.529  0.3963 -0.2592 -1.7026
  684MOL0     H90253   6.379   1.913   8.591  1.0533  1.5510 -2.7321
  684MOL0     H90254   5.960   1.984   8.644 -0.8902  2.0699  3.5167
  684MOL0     H90255   5.963   2.093   8.506 -1.2339  0.8054  0.3781
  684MOL0     H90256   6.044   2.274   8.625  0.5419  0.3785  0.6014
  684MOL0     H90257   6.060   2.173   8.772  0.3646  1.8616 -0.2354
  684MOL0     H90258   5.800   2.122   8.748  0.8336 -0.2947  0.2617
  684MOL0     H90259   5.819   2.247   8.619 -1.0972  1.2201  1.0148
  684MOL0     H90260   5.926   2.290   8.893  3.9106 -0.9032 -2.9791
  684MOL0     H90261   5.890   2.409   8.773  2.7853 -0.2313  0.2698
  684MOL0     H90262   5.646   2.337   8.794  0.7555  2.4672 -0.0969
  684MOL0     H90263   5.710   2.421   8.942  0.3170  0.4494 -0.5563
  684MOL0     H90264   5.742   2.212   9.053  0.4415  2.7930  0.5100
  684MOL0     H90265   5.660   2.122   8.915 -1.5666  0.1270  0.7820
  684MOL0     H90266   5.544   2.329   9.109  1.0798 -0.0222 -0.8219
  684MOL0     H90267   5.462   2.259   8.955 -0.4098 -0.6652  0.0779
  684MOL0     H90268   5.513   2.030   9.081  1.7051 -1.9730  1.7614
  684MOL0     H90269   5.388   2.138   9.162  0.1245 -0.2356 -0.0369
  684MOL0     H90270   6.001   1.877   8.400  0.5888  0.9807  1.3276
  684MOL0     H90271   6.082   1.664   8.306  0.7079 -2.3590  1.3384
  684MOL0     H90272   6.291   1.306   8.324 -1.0801  4.2009 -0.7974
  684MOL0     H90273   6.361   1.071   8.252 -0.7848  0.6911 -0.7630
  684MOL0     H90274   8.152   0.861   8.060  2.0152  1.4791 -0.4710
  684MOL0     H90275   8.379   0.897   7.974 -2.0025  0.4339  1.7535
  684MOL0     H90276   8.600   0.779   7.378 -1.2277 -0.1940  1.4818
  684MOL0     H90277   8.801   0.820   7.286  0.0702 -3.3892  0.7803
  684MOL0     H90278   8.933   1.002   7.285 -1.2991 -2.0324 -0.2715
  684MOL0     H90279   9.013   0.867   7.212 -0.5193 -0.0671  0.0995
  684MOL0     H90280   9.129   1.094   7.166 -2.1157  0.8384  0.5012
  684MOL0     H90281   9.149   1.102   7.341 -0.8633  0.2940 -0.3038
  684MOL0     H90282   9.288   0.909   7.144  2.8664  1.8998 -0.6671
  684MOL0     H90283   9.280   0.878   7.320 -0.8680 -0.5481  0.9278
  684MOL0     H90284   9.500   0.977   7.233  1.6186  1.9489 -0.3152
  684MOL0     H90285   9.404   1.124   7.175  0.2910 -1.9914 -2.0811
  684MOL0     H90286   9.472   1.200   7.590  2.3752  4.6449 -2.3516
  684MOL0     H90287   8.979   0.893   7.675  0.1471 -1.1583 -0.4303
  684MOL0     H90288   8.739   0.861   7.773  1.5754 -2.3351  1.5084
  685MOL0     O90289   1.433   1.234   1.161  0.1527 -0.1825 -0.3452
  685MOL0     C90290   1.347   1.319   1.133  0.0888  0.8178 -0.3578
  685MOL0     O90291   1.363   1.454   1.117 -1.1793  0.1468 -0.5631
  685MOL0     C90292   1.474   1.517   1.057  0.3727  0.2729  0.7914
  685MOL0     C90293   1.468   1.656   1.047  0.2519 -0.5226  0.0649
  685MOL0     C90294   1.557   1.730   0.971 -0.4939 -0.1482 -0.6906
  685MOL0     C90295   1.651   1.665   0.897 -0.9975  0.0273 -1.0324
  685MOL0     O90296   1.752   1.726   0.828 -0.4142 -1.1300 -0.7757
  685MOL0     C90297   1.821   1.844   0.881  0.2608  0.0935 -0.0076
  685MOL0     C90298   1.948   1.867   0.804 -0.3167 -0.8136  0.0114
  685MOL0     C90299   1.912   1.919   0.661  0.1059 -0.5869  0.5615
  685MOL0     C90300   2.040   1.936   0.583 -0.4984  0.4104  0.2511
  685MOL0     C90301   2.020   1.993   0.436  0.4236  0.4417  0.1073
  685MOL0     C90302   2.158   1.969   0.372 -0.9362 -0.9093 -0.3873
  685MOL0     C90303   2.181   2.080   0.258  0.0952  0.0466 -0.0623
  685MOL0     C90304   2.211   2.220   0.314  0.1722 -0.0232 -0.2853
  685MOL0     N90305   2.209   2.312   0.194 -0.3036  0.5447 -0.4206
  685MOL0     C90306   2.097   2.362   0.133  0.0826  0.0762  0.4677
  685MOL0     C90307   2.152   2.425   0.025  0.2565 -0.3025  0.6374
  685MOL0     C90308   2.068   2.493  -0.082  0.7058  0.0934 -0.3180
  685MOL0     C90309   2.064   2.647  -0.070  0.1555 -0.3323  0.5623
  685MOL0     C90310   2.028   2.709   0.072  1.3139  0.0226 -0.2201
  685MOL0     C90311   1.891   2.674   0.130 -0.1318 -0.0325  0.0690
  685MOL0     O90312   1.801   2.606   0.039  0.4939 -0.0895 -0.1822
  685MOL0     C90313   1.681   2.566   0.083  0.0841 -0.2762 -1.2569
  685MOL0     C90314   1.649   2.560   0.225  0.0368  0.4590 -0.8143
  685MOL0     C90315   1.525   2.508   0.258 -0.7038  1.1473  0.3514
  685MOL0     C90316   1.439   2.452   0.161 -0.4163 -0.1450  0.2422
  685MOL0     C90317   1.312   2.389   0.201  0.6664 -0.3685  0.5749
  685MOL0     O90318   1.235   2.349   0.093 -0.3821 -0.1115 -0.2596
  685MOL0     C90319   1.101   2.325   0.118  0.0313  0.8100 -0.3504
  685MOL0     C90320   1.009   2.427   0.131 -0.0058 -0.2108 -0.0230
  685MOL0     C90321   0.877   2.399   0.166 -0.2853 -0.1282  0.3450
  685MOL0     C90322   0.832   2.271   0.196  0.0293 -0.0405 -0.5369
  685MOL0     O90323   0.694   2.252   0.237 -0.8981  0.2340  0.9271
  685MOL0     C90324   0.633   2.121   0.206 -0.5742 -1.1805  0.3935
  685MOL0     C90325   0.500   2.134   0.274  0.2409 -0.0077  0.3890
  685MOL0     C90326   0.424   2.007   0.255  0.5325 -0.7909 -0.4613
  685MOL0     C90327   0.301   2.003   0.342  0.4889  0.8438  0.0877
  685MOL0     C90328   0.211   2.121   0.324  0.3638 -0.0309  0.3810
  685MOL0     C90329   0.080   2.102   0.399 -0.0509 -0.1405 -0.1999
  685MOL0     C90330  -0.003   2.232   0.380  0.5466  0.1584 -0.6823
  685MOL0     C90331  -0.147   2.226   0.417  0.1334 -0.2118  0.2140
  685MOL0    Cl90332  -0.234   2.095   0.324  0.3059  0.0390  0.3747
  685MOL0     C90333   0.926   2.167   0.197 -1.4975 -0.4362 -0.7415
  685MOL0     C90334   1.063   2.195   0.160  0.7726 -0.1081  0.8705
  685MOL0     O90335   1.277   2.384   0.325 -0.0189 -0.5378  0.8255
  685MOL0     C90336   1.477   2.461   0.023  0.2459  0.2691  0.1580
  685MOL0     C90337   1.602   2.514  -0.013 -0.3849 -0.9020 -0.7460
  685MOL0     N90338   2.287   2.427   0.030  0.3444 -0.0190 -0.6141
  685MOL0     N90339   2.322   2.361   0.132 -0.1660  0.2145 -0.7851
  685MOL0     C90340   1.660   1.525   0.902  0.3985 -0.1289  0.6960
  685MOL0     C90341   1.571   1.448   0.984 -0.5145 -0.1827 -0.0860
  685MOL0     C90342   1.211   1.271   1.112 -0.1834 -0.1782  0.4784
  685MOL0     C90343   1.173   1.134   1.124 -0.5023 -0.9740 -0.7379
  685MOL0     C90344   1.044   1.100   1.129  0.0697 -0.5431  0.3182
  685MOL0     C90345   0.938   1.195   1.112 -0.2826  0.0075 -0.3820
  685MOL0     O90346   0.803   1.162   1.123  1.1710  0.2787  0.5780
  685MOL0     C90347   0.768   1.024   1.145  0.8610  0.0853 -0.3529
  685MOL0     C90348   0.607   1.012   1.120  0.7679  0.8094  0.0399
  685MOL0     C90349   0.536   1.098   1.221 -0.4423  0.0479  0.1967
  685MOL0     C90350   0.387   1.046   1.244 -0.2154 -1.0257  0.9756
  685MOL0     C90351   0.326   1.025   1.106 -0.6191  0.7042  0.8924
  685MOL0     C90352   0.263   1.011   1.002 -0.2788 -0.1914 -1.0385
  685MOL0     C90353   0.970   1.331   1.092 -0.4259 -0.3067  0.7185
  685MOL0     C90354   1.103   1.364   1.097  0.6753  0.4311  0.4636
  685MOL0     H90355   1.387   1.701   1.104 -1.2338 -1.9625 -0.8071
  685MOL0     H90356   1.550   1.838   0.962  0.1858  0.2466  2.4072
  685MOL0     H90357   1.862   1.823   0.980  1.6981  0.5242 -0.4757
  685MOL0     H90358   1.757   1.931   0.864  0.0178 -0.3213 -1.3122
  685MOL0     H90359   1.999   1.770   0.798  1.4714  0.1748 -2.7327
  685MOL0     H90360   2.008   1.945   0.851 -1.7252  0.0387  0.4506
  685MOL0     H90361   1.860   2.015   0.653  0.8160 -0.3461 -2.1094
  685MOL0     H90362   1.851   1.846   0.607 -1.9274  0.5637  1.1825
  685MOL0     H90363   2.092   2.018   0.634  3.6629 -1.3125 -0.8239
  685MOL0     H90364   2.098   1.844   0.581  1.8552  1.7948  0.6574
  685MOL0     H90365   1.996   2.099   0.450  0.9571  0.2799  2.9402
  685MOL0     H90366   1.941   1.932   0.390  0.6845  0.4095 -0.3033
  685MOL0     H90367   2.162   1.868   0.331  3.1831 -1.2850  0.5021
  685MOL0     H90368   2.224   1.986   0.457 -0.5247  0.5091 -0.9622
  685MOL0     H90369   2.270   2.056   0.199 -0.0094  1.6119 -0.9053
  685MOL0     H90370   2.090   2.093   0.200  0.6307  2.0139 -0.5325
  685MOL0     H90371   2.307   2.222   0.366  1.4829 -0.4951 -2.5589
  685MOL0     H90372   2.133   2.248   0.386 -0.8277 -2.6652 -0.2092
  685MOL0     H90373   1.990   2.344   0.138  0.5622 -3.9122 -0.4009
  685MOL0     H90374   1.967   2.453  -0.072  0.4396  0.5376 -1.1021
  685MOL0     H90375   2.113   2.454  -0.174  1.9677 -1.3547  0.8617
  685MOL0     H90376   1.993   2.678  -0.148  2.5420 -0.4000 -1.7623
  685MOL0     H90377   2.161   2.687  -0.100 -0.2122  0.3492  0.2709
  685MOL0     H90378   2.090   2.681   0.158  0.4446  0.2934  0.5151
  685MOL0     H90379   2.038   2.818   0.075  0.8624  0.0561  0.5365
  685MOL0     H90380   1.842   2.760   0.176  1.5137 -0.8351  3.6213
  685MOL0     H90381   1.904   2.596   0.206 -2.9525 -0.3196  0.3880
  685MOL0     H90382   1.719   2.597   0.299 -1.8217  0.1988  1.1960
  685MOL0     H90383   1.499   2.502   0.363  1.5737 -3.3070  0.8793
  685MOL0     H90384   1.033   2.532   0.116  2.4143 -0.8490 -1.0789
  685MOL0     H90385   0.793   2.467   0.167 -1.0270 -1.0322  0.4023
  685MOL0     H90386   0.689   2.035   0.246  0.6373 -0.7685 -0.3660
  685MOL0     H90387   0.625   2.103   0.099 -0.5711  3.5706 -0.6002
  685MOL0     H90388   0.447   2.220   0.230 -0.3953 -0.1757  0.8075
  685MOL0     H90389   0.513   2.147   0.381 -2.5108  1.7717  0.6269
  685MOL0     H90390   0.494   1.925   0.275 -0.3925 -1.1921  1.3446
  685MOL0     H90391   0.385   2.000   0.153 -0.1324  0.7366 -0.3441
  685MOL0     H90392   0.245   1.914   0.313 -1.7701  1.6714  1.5466
  685MOL0     H90393   0.334   1.994   0.446  1.8214 -0.0054 -0.3921
  685MOL0     H90394   0.192   2.131   0.216  1.6097  0.6443  0.2049
  685MOL0     H90395   0.250   2.216   0.361  0.7706 -1.3571  3.7036
  685MOL0     H90396   0.088   2.076   0.505  0.1091  0.4560 -0.0624
  685MOL0     H90397   0.038   2.008   0.360  2.5819 -2.0837  1.3032
  685MOL0     H90398   0.043   2.307   0.444 -3.2588  1.1887  1.1536
  685MOL0     H90399   0.009   2.266   0.276  2.2322 -0.7623 -0.8282
  685MOL0     H90400  -0.193   2.320   0.385 -0.9944 -0.6510  0.5161
  685MOL0     H90401  -0.155   2.208   0.525  0.4095  0.7974  0.4094
  685MOL0     H90402   0.911   2.063   0.224 -3.9139 -0.1599 -0.8051
  685MOL0     H90403   1.132   2.112   0.153 -1.0462 -1.6093  0.1086
  685MOL0     H90404   1.410   2.434  -0.058 -0.9971  1.3041  0.8131
  685MOL0     H90405   1.637   2.506  -0.115 -0.7288  0.5849 -1.0008
  685MOL0     H90406   1.742   1.476   0.851 -0.3742 -0.7906  0.0404
  685MOL0     H90407   1.573   1.339   0.991 -3.1482 -0.2654  0.4859
  685MOL0     H90408   1.250   1.063   1.155  0.8796  1.4930  2.0228
  685MOL0     H90409   1.044   0.993   1.148 -0.4688 -1.2227 -2.9882
  685MOL0     H90410   0.801   1.003   1.247  0.1064  0.1744 -0.0837
  685MOL0     H90411   0.824   0.955   1.080 -1.9447 -2.7929  0.0177
  685MOL0     H90412   0.595   1.044   1.016  3.1775  0.5815 -0.3610
  685MOL0     H90413   0.579   0.907   1.128  1.8824  0.4068 -0.9554
  685MOL0     H90414   0.527   1.200   1.182 -2.1128 -0.8062 -1.8244
  685MOL0     H90415   0.592   1.106   1.314  1.2564  0.3776 -0.7972
  685MOL0     H90416   0.395   0.959   1.311  2.2755 -2.4783 -1.0307
  685MOL0     H90417   0.331   1.126   1.293  1.5138  1.9683 -1.5587
  685MOL0     H90418   0.207   0.977   0.917  1.2164 -0.9675 -1.7627
  685MOL0     H90419   0.892   1.407   1.083 -0.2587  0.0645  2.2247
  685MOL0     H90420   1.122   1.469   1.074 -3.0869  1.2933  0.6374
  686MOL0     O90421   0.797   6.343   3.244 -0.1595 -0.3136  0.5225
  686MOL0     C90422   0.856   6.421   3.322  0.1456  0.4891  0.5043
  686MOL0     O90423   0.803   6.525   3.395 -0.0847  0.2957  0.4620
  686MOL0     C90424   0.673   6.548   3.394 -0.0300  0.8959  0.2857
  686MOL0     C90425   0.616   6.599   3.280 -0.4276 -1.2919  0.0462
  686MOL0     C90426   0.472   6.621   3.273 -0.6147  0.1501  0.4110
  686MOL0     C90427   0.390   6.585   3.391 -0.9018  0.1259  0.0004
  686MOL0     O90428   0.255   6.609   3.422  1.0968  0.1437 -0.2349
  686MOL0     C90429   0.188   6.620   3.299  0.1452 -0.1735  0.2397
  686MOL0     C90430   0.032   6.647   3.321  0.3648 -0.3998 -0.6017
  686MOL0     C90431  -0.047   6.647   3.195  0.1708 -0.2432  0.1040
  686MOL0     C90432  -0.194   6.703   3.219  0.3049 -0.2054 -0.0010
  686MOL0     C90433  -0.279   6.681   3.091  0.2579 -0.0261 -0.0576
  686MOL0     C90434  -0.415   6.755   3.103 -0.5938 -0.3757 -0.6146
  686MOL0     C90435  -0.495   6.750   2.974 -0.0492 -0.3130 -0.0083
  686MOL0     C90436  -0.617   6.829   2.985 -0.5356  0.9862  1.0603
  686MOL0     N90437  -0.675   6.830   2.847  0.6384 -0.5401  0.3364
  686MOL0     C90438  -0.806   6.833   2.829  0.0647  0.1766 -1.2162
  686MOL0     C90439  -0.817   6.878   2.697  0.9162  0.5268 -0.4121
  686MOL0     C90440  -0.946   6.921   2.621 -0.0995  0.4007  0.3137
  686MOL0     C90441  -1.078   6.921   2.695  0.0834  0.3202  0.2959
  686MOL0     C90442  -1.098   7.041   2.793  0.1945 -0.3687  0.4665
  686MOL0     C90443  -1.143   7.161   2.715  0.8894 -0.3355  0.2842
  686MOL0     O90444  -1.281   7.117   2.676 -0.3922 -0.8507  0.1536
  686MOL0     C90445  -1.372   7.216   2.675 -0.9821  0.7521  0.6539
  686MOL0     C90446  -1.348   7.349   2.645  0.4493  0.1102 -0.0343
  686MOL0     C90447  -1.447   7.437   2.609 -1.0248 -0.5162 -0.2617
  686MOL0     C90448  -1.580   7.405   2.605 -0.2135 -0.0225 -0.3889
  686MOL0     C90449  -1.680   7.503   2.569  0.2160 -0.5709 -0.6999
  686MOL0     O90450  -1.821   7.466   2.575  0.4645 -0.4021 -0.3321
  686MOL0     C90451  -1.916   7.550   2.507  0.3805  0.3384 -0.0610
  686MOL0     C90452  -1.881   7.611   2.386  0.2322  0.3006  0.6736
  686MOL0     C90453  -1.989   7.666   2.311  0.2618  0.2979 -0.3105
  686MOL0     C90454  -2.119   7.680   2.369 -1.0885  1.1499  0.0899
  686MOL0     O90455  -2.224   7.756   2.312 -0.1237  1.2109 -0.1903
  686MOL0     C90456  -2.216   7.787   2.170 -1.1242 -0.3594 -0.8660
  686MOL0     C90457  -2.353   7.831   2.112  0.1417  1.1365 -0.4168
  686MOL0     C90458  -2.341   7.973   2.048 -0.4657 -0.5227 -1.0248
  686MOL0     C90459  -2.445   7.992   1.944  0.1079 -0.3603  1.2126
  686MOL0     C90460  -2.398   8.094   1.839 -0.1269  0.0336 -0.0821
  686MOL0     C90461  -2.335   8.221   1.888 -0.7205 -0.2359  0.2545
  686MOL0     C90462  -2.295   8.317   1.770  0.8934 -0.4702 -0.4863
  686MOL0     C90463  -2.149   8.302   1.722 -0.2961 -0.7049 -0.9885
  686MOL0    Cl90464  -2.032   8.333   1.857 -0.0535 -0.1080  0.1240
  686MOL0     C90465  -2.152   7.622   2.489  0.2498 -0.8264 -0.1087
  686MOL0     C90466  -2.050   7.557   2.556  0.3095  1.0324 -0.4617
  686MOL0     O90467  -1.643   7.615   2.558  0.3587 -0.1943 -0.6757
  686MOL0     C90468  -1.609   7.272   2.631  0.7283  0.5488 -0.0594
  686MOL0     C90469  -1.504   7.176   2.656  0.6612 -0.3366  0.2053
  686MOL0     N90470  -0.688   6.884   2.640  0.0883 -0.2060  1.0052
  686MOL0     N90471  -0.602   6.855   2.732  0.0553 -0.2749  0.6894
  686MOL0     C90472   0.461   6.535   3.504  0.2682 -0.0575 -0.4628
  686MOL0     C90473   0.597   6.511   3.503 -0.9215 -0.4462  0.0518
  686MOL0     C90474   1.003   6.400   3.323 -0.3798  0.4636 -1.1647
  686MOL0     C90475   1.078   6.489   3.396  0.3717  0.2145 -0.5138
  686MOL0     C90476   1.210   6.488   3.379 -0.7284 -0.7164 -1.2880
  686MOL0     C90477   1.272   6.399   3.287  0.2988 -0.8121 -0.5522
  686MOL0     O90478   1.410   6.404   3.280 -0.6081 -0.1982  0.0095
  686MOL0     C90479   1.463   6.353   3.161 -0.1862 -0.5963 -1.1239
  686MOL0     C90480   1.603   6.396   3.136  0.8328 -0.4026  0.7232
  686MOL0     C90481   1.629   6.558   3.140  0.6479  0.2738 -0.2926
  686MOL0     C90482   1.636   6.605   3.281  0.7173 -0.2075  0.6373
  686MOL0     C90483   1.635   6.753   3.296 -0.3411 -0.0394 -0.0761
  686MOL0     C90484   1.635   6.875   3.312  0.3098 -0.5824  0.3857
  686MOL0     C90485   1.197   6.303   3.219  1.0424  0.1609 -1.6349
  686MOL0     C90486   1.063   6.302   3.242  0.3378  0.6130 -0.1953
  686MOL0     H90487   0.697   6.618   3.211  1.9403 -3.3557  2.0676
  686MOL0     H90488   0.435   6.680   3.190 -1.7565 -0.3271  0.5504
  686MOL0     H90489   0.208   6.524   3.249  1.7841 -1.5168  3.2162
  686MOL0     H90490   0.226   6.701   3.237  1.7791 -1.4850 -0.5608
  686MOL0     H90491   0.032   6.752   3.353 -2.2561  0.4717 -3.0544
  686MOL0     H90492   0.006   6.568   3.392  0.3741 -0.4957 -0.7052
  686MOL0     H90493  -0.044   6.546   3.153 -3.0987 -0.3308 -0.2096
  686MOL0     H90494   0.004   6.709   3.121  1.3026 -3.7684 -2.3339
  686MOL0     H90495  -0.242   6.644   3.298 -0.0869 -0.8747 -0.7149
  686MOL0     H90496  -0.197   6.810   3.240 -0.9783 -0.2502  0.1667
  686MOL0     H90497  -0.293   6.575   3.071  0.9333 -0.0195 -0.5983
  686MOL0     H90498  -0.221   6.718   3.005  4.5888 -1.0738  2.1328
  686MOL0     H90499  -0.388   6.861   3.111 -0.4654 -0.0608 -3.8479
  686MOL0     H90500  -0.484   6.725   3.182  0.4374  1.1658  0.9497
  686MOL0     H90501  -0.432   6.788   2.893  0.0046 -0.2600  0.0578
  686MOL0     H90502  -0.517   6.646   2.949  1.0270 -0.5011 -0.2187
  686MOL0     H90503  -0.595   6.932   3.016  1.0734  0.6724  1.0093
  686MOL0     H90504  -0.690   6.789   3.056  0.4999 -1.1027  1.0191
  686MOL0     H90505  -0.888   6.822   2.899 -0.1394 -0.5725 -1.5649
  686MOL0     H90506  -0.958   6.851   2.538 -0.2556  1.0902 -0.2606
  686MOL0     H90507  -0.935   7.022   2.580  0.4129  1.2193  2.3496
  686MOL0     H90508  -1.085   6.829   2.754  1.4831 -0.1284 -0.1860
  686MOL0     H90509  -1.153   6.918   2.615  2.7584  1.8121 -2.5204
  686MOL0     H90510  -1.166   7.011   2.874  3.6329 -0.7364  3.4429
  686MOL0     H90511  -1.004   7.048   2.848  0.8271  0.4638 -0.6967
  686MOL0     H90512  -1.077   7.188   2.631  1.0938  1.0366  0.8516
  686MOL0     H90513  -1.151   7.242   2.788  0.7849 -1.2209  1.2686
  686MOL0     H90514  -1.245   7.382   2.636  0.8046 -1.2903 -1.6009
  686MOL0     H90515  -1.413   7.539   2.595  2.6813 -1.3943  1.1734
  686MOL0     H90516  -1.782   7.594   2.346  0.1294 -3.5795  1.6951
  686MOL0     H90517  -1.965   7.710   2.215 -0.3349  0.3322 -0.4456
  686MOL0     H90518  -2.203   7.691   2.119 -0.7642  0.5766 -2.6381
  686MOL0     H90519  -2.136   7.855   2.137 -0.0440  0.5733  3.1867
  686MOL0     H90520  -2.427   7.832   2.193 -1.4844  0.5783 -1.8540
  686MOL0     H90521  -2.394   7.754   2.047  2.0742  0.2573 -0.6834
  686MOL0     H90522  -2.244   7.982   1.999 -0.3332  0.8209 -0.5485
  686MOL0     H90523  -2.346   8.053   2.122  0.9517 -0.8043 -0.5967
  686MOL0     H90524  -2.469   7.896   1.896 -2.2017  1.3739 -1.4097
  686MOL0     H90525  -2.532   8.033   1.995  0.8662  0.8754  1.5358
  686MOL0     H90526  -2.478   8.112   1.766  0.8383 -0.5907 -1.3377
  686MOL0     H90527  -2.314   8.045   1.788  0.8521 -2.4493  3.5458
  686MOL0     H90528  -2.256   8.193   1.958 -2.0483 -2.2639  1.0170
  686MOL0     H90529  -2.408   8.270   1.952  1.5265 -1.1161  3.8153
  686MOL0     H90530  -2.371   8.304   1.692  0.2820 -0.0206  0.0232
  686MOL0     H90531  -2.301   8.420   1.806 -0.6205 -1.3938  2.2298
  686MOL0     H90532  -2.145   8.373   1.639 -2.1267  0.3808 -0.2211
  686MOL0     H90533  -2.120   8.204   1.685 -2.1991 -1.5926 -0.2688
  686MOL0     H90534  -2.254   7.648   2.514  1.4992  1.4313  3.2460
  686MOL0     H90535  -2.086   7.516   2.650  3.3212  0.0946  0.3693
  686MOL0     H90536  -1.711   7.238   2.620  1.0693 -0.0390 -1.8604
  686MOL0     H90537  -1.531   7.072   2.669 -2.0899  0.3141  0.3773
  686MOL0     H90538   0.400   6.516   3.592  0.8722  1.0816  0.2271
  686MOL0     H90539   0.645   6.456   3.583 -1.2566 -1.1825 -0.2486
  686MOL0     H90540   1.041   6.570   3.458  1.8426 -2.8822  5.0711
  686MOL0     H90541   1.273   6.559   3.432  0.1264 -2.4224  0.0947
  686MOL0     H90542   1.412   6.370   3.066  3.7872  2.5838 -3.0276
  686MOL0     H90543   1.471   6.246   3.182 -1.2243 -0.3352  0.7776
  686MOL0     H90544   1.669   6.348   3.209  0.6849  1.4815  2.2056
  686MOL0     H90545   1.626   6.377   3.031 -0.6963  2.6222 -0.2776
  686MOL0     H90546   1.531   6.588   3.102  0.3818 -3.0322 -2.6654
  686MOL0     H90547   1.715   6.592   3.082  0.6034  0.1742 -0.4171
  686MOL0     H90548   1.552   6.571   3.342  0.1413  1.4422  0.8192
  686MOL0     H90549   1.726   6.560   3.323 -1.2157 -2.8797  2.2212
  686MOL0     H90550   1.640   6.982   3.316 -2.1062 -0.3227 -1.2189
  686MOL0     H90551   1.244   6.229   3.154 -0.3565  1.2038 -3.9935
  686MOL0     H90552   1.000   6.230   3.192  2.4740 -1.0642 -0.6254
  687MOL0     O90553   5.756  10.074   0.848 -0.0440 -0.6741  0.7277
  687MOL0     C90554   5.656  10.149   0.823 -0.0912  0.1750  0.1428
  687MOL0     O90555   5.655  10.246   0.721  0.0173  0.1824 -0.3383
  687MOL0     C90556   5.778  10.251   0.647  0.4917 -1.0795  0.3419
  687MOL0     C90557   5.775  10.219   0.511  0.9531  0.3846 -1.0929
  687MOL0     C90558   5.883  10.247   0.430 -1.2123 -0.5120 -0.4155
  687MOL0     C90559   6.003  10.296   0.483 -0.3985 -0.9639 -1.0441
  687MOL0     O90560   6.102  10.321   0.398 -0.4906  0.1630  0.1703
  687MOL0     C90561   6.169  10.451   0.418  0.1918  0.1926 -0.3027
  687MOL0     C90562   6.177  10.520   0.284  1.9247  0.6126  0.7104
  687MOL0     C90563   6.276  10.631   0.287  0.6389 -0.2486  0.3221
  687MOL0     C90564   6.273  10.701   0.146 -0.3225 -0.0532  1.1382
  687MOL0     C90565   6.342  10.837   0.153 -0.4144 -0.8557 -0.0001
  687MOL0     C90566   6.497  10.816   0.129  0.4029 -0.2228  0.8036
  687MOL0     C90567   6.569  10.941   0.171 -0.3717  0.0567 -0.6849
  687MOL0     C90568   6.718  10.940   0.168  0.0004 -0.7523 -0.6457
  687MOL0     N90569   6.773  10.846   0.269  1.1350  0.7107 -0.0137
  687MOL0     C90570   6.815  10.880   0.400 -0.5359  0.1805 -0.5557
  687MOL0     C90571   6.848  10.763   0.446 -0.2628  0.4762 -0.7072
  687MOL0     C90572   6.913  10.726   0.578 -0.2778  0.7592  0.7964
  687MOL0     C90573   6.813  10.633   0.655 -0.0864 -0.7827  1.0158
  687MOL0     C90574   6.877  10.571   0.785  0.4097  0.4359  0.0987
  687MOL0     C90575   6.970  10.445   0.740  0.6541 -0.6980 -0.5813
  687MOL0     O90576   7.012  10.369   0.851 -0.3215 -0.6471  0.0395
  687MOL0     C90577   6.925  10.282   0.910 -0.1585  0.8843  0.8270
  687MOL0     C90578   6.957  10.246   1.037 -0.3853  0.4688 -0.2588
  687MOL0     C90579   6.881  10.153   1.117 -0.1031  0.7566  0.1762
  687MOL0     C90580   6.768  10.107   1.061  0.3513 -0.0811 -0.2689
  687MOL0     C90581   6.684  10.016   1.149 -0.4385  0.3443  0.0174
  687MOL0     O90582   6.547  10.016   1.127 -0.3495 -0.5308  0.0473
  687MOL0     C90583   6.460   9.936   1.183  0.2109  1.0129 -0.1376
  687MOL0     C90584   6.324   9.967   1.176 -0.4491 -0.8013  0.0848
  687MOL0     C90585   6.222   9.886   1.219 -0.1824  0.1638  0.5655
  687MOL0     C90586   6.253   9.764   1.278  0.1858 -0.1522 -0.1937
  687MOL0     O90587   6.152   9.677   1.300 -0.1742  0.7687 -0.3004
  687MOL0     C90588   6.165   9.546   1.367 -0.6376 -0.1869  0.1442
  687MOL0     C90589   6.186   9.560   1.515 -0.2229 -0.0379 -0.3963
  687MOL0     C90590   6.052   9.568   1.571  0.5656  0.4156 -0.2513
  687MOL0     C90591   6.050   9.555   1.722  0.5519  0.3685 -0.3737
  687MOL0     C90592   5.921   9.499   1.779 -0.7413 -0.0488 -0.8837
  687MOL0     C90593   5.787   9.573   1.740  0.4202  0.2908 -0.0562
  687MOL0     C90594   5.667   9.524   1.825 -0.0258 -0.6572 -0.3939
  687MOL0     C90595   5.634   9.387   1.796  0.3939  0.2886 -0.5233
  687MOL0    Cl90596   5.625   9.343   1.625  0.0516  0.6932 -0.0561
  687MOL0     C90597   6.392   9.728   1.289  0.7187 -0.4859  0.0448
  687MOL0     C90598   6.493   9.822   1.246  1.0035  0.6498 -0.4198
  687MOL0     O90599   6.738   9.960   1.245 -0.8424  0.3447 -0.2679
  687MOL0     C90600   6.728  10.148   0.931  0.1713  0.2751 -0.5035
  687MOL0     C90601   6.805  10.229   0.858 -0.3704 -0.5425 -0.0997
  687MOL0     N90602   6.821  10.659   0.354 -0.6220  0.5827 -0.4168
  687MOL0     N90603   6.782  10.719   0.249  0.0208  0.6620  0.9073
  687MOL0     C90604   6.017  10.314   0.623 -0.1090  0.5291 -1.0966
  687MOL0     C90605   5.901  10.291   0.708  0.4948  0.3884  0.8261
  687MOL0     C90606   5.539  10.155   0.917  0.5251  0.2104 -0.0603
  687MOL0     C90607   5.440  10.255   0.898 -0.4936 -1.0219 -0.3349
  687MOL0     C90608   5.336  10.262   0.985  0.1802 -0.1743 -0.2344
  687MOL0     C90609   5.322  10.172   1.097  0.0043  0.6594 -0.3461
  687MOL0     O90610   5.219  10.181   1.189 -0.4228  0.4611 -0.1705
  687MOL0     C90611   5.230  10.263   1.298  0.2863  0.8197 -0.7377
  687MOL0     C90612   5.086  10.268   1.357  0.9195  0.4300 -0.4422
  687MOL0     C90613   5.066  10.366   1.470 -0.5862 -0.5661 -0.3719
  687MOL0     C90614   4.925  10.345   1.537 -0.6817  0.0614 -0.3925
  687MOL0     C90615   4.902  10.446   1.637 -0.5526 -0.3994  0.0133
  687MOL0     C90616   4.885  10.536   1.711  0.1825 -0.2445  0.7754
  687MOL0     C90617   5.421  10.076   1.117  0.6112 -0.3447 -0.0396
  687MOL0     C90618   5.527  10.079   1.034 -0.4557  0.5311 -0.4529
  687MOL0     H90619   5.687  10.180   0.461  0.7621 -0.5826 -0.0262
  687MOL0     H90620   5.879  10.244   0.321  0.2959  0.8446 -0.5494
  687MOL0     H90621   6.275  10.435   0.440  0.5393  3.0979  0.5666
  687MOL0     H90622   6.132  10.520   0.495  3.1592  1.5011  0.1152
  687MOL0     H90623   6.084  10.554   0.237  1.8156 -3.2334 -2.3145
  687MOL0     H90624   6.216  10.442   0.218 -1.6704  1.2274 -2.4605
  687MOL0     H90625   6.381  10.599   0.295  1.5681  2.3651 -0.5440
  687MOL0     H90626   6.264  10.699   0.372  2.1981  1.0377 -0.4364
  687MOL0     H90627   6.330  10.634   0.080  0.2539  0.3356  1.2326
  687MOL0     H90628   6.168  10.706   0.117  0.0696 -3.2263 -1.5735
  687MOL0     H90629   6.313  10.895   0.241 -1.2001 -0.0556 -0.7635
  687MOL0     H90630   6.300  10.894   0.069 -1.0330 -0.9966  0.2096
  687MOL0     H90631   6.507  10.797   0.022 -2.4590 -1.6327  0.7001
  687MOL0     H90632   6.528  10.731   0.190  0.4387 -1.9707 -1.5263
  687MOL0     H90633   6.547  11.020   0.099  1.4056  2.9504  1.7077
  687MOL0     H90634   6.522  10.975   0.264 -2.2879 -3.7784 -0.0369
  687MOL0     H90635   6.757  11.040   0.189 -1.6082  0.0019 -1.1285
  687MOL0     H90636   6.749  10.897   0.073  2.7450 -1.5276  0.4946
  687MOL0     H90637   6.822  10.981   0.439  1.8247  0.2410 -0.9613
  687MOL0     H90638   6.937  10.814   0.639  4.4265 -0.2023  0.7445
  687MOL0     H90639   7.006  10.674   0.552 -1.4466 -0.7866 -0.5066
  687MOL0     H90640   6.811  10.537   0.602  1.7006 -1.4456  2.0822
  687MOL0     H90641   6.721  10.691   0.664  0.6078  0.4899  0.2293
  687MOL0     H90642   6.935  10.639   0.849  2.7180 -1.8324  0.5896
  687MOL0     H90643   6.800  10.531   0.852 -0.3906  2.4252  0.4517
  687MOL0     H90644   7.060  10.473   0.686  1.3771 -2.2546 -0.2402
  687MOL0     H90645   6.931  10.380   0.661 -1.5000 -0.6403  0.3630
  687MOL0     H90646   7.045  10.293   1.080 -0.0192 -0.6485  0.2752
  687MOL0     H90647   6.914  10.132   1.218  1.0793 -1.6720 -0.6578
  687MOL0     H90648   6.285  10.055   1.126 -1.5411 -1.2062  0.1747
  687MOL0     H90649   6.118   9.907   1.194 -1.2488 -0.7924  3.6584
  687MOL0     H90650   6.250   9.484   1.337 -0.3967  0.0790  0.2719
  687MOL0     H90651   6.072   9.492   1.348 -0.4710  0.0364 -1.4753
  687MOL0     H90652   6.254   9.641   1.544 -1.5820  0.9642  0.1018
  687MOL0     H90653   6.232   9.467   1.551  0.1687 -0.1358 -1.1504
  687MOL0     H90654   5.979   9.494   1.536 -0.6851  0.1130  2.6822
  687MOL0     H90655   6.018   9.670   1.552  0.0123  0.5785  1.4496
  687MOL0     H90656   6.125   9.489   1.768 -1.2148 -0.6586  1.1726
  687MOL0     H90657   6.052   9.659   1.756  0.8889  0.0283  0.6737
  687MOL0     H90658   5.944   9.514   1.885  3.2090 -0.8072 -1.4554
  687MOL0     H90659   5.916   9.391   1.762 -3.4845  0.1376 -1.6375
  687MOL0     H90660   5.759   9.552   1.637 -3.7697 -2.1161  1.3399
  687MOL0     H90661   5.808   9.675   1.774  2.2827  0.0713 -0.4281
  687MOL0     H90662   5.715   9.519   1.924  0.1581 -0.9846 -0.4951
  687MOL0     H90663   5.588   9.599   1.817  0.3117 -0.1252  0.8938
  687MOL0     H90664   5.534   9.369   1.837 -0.0286 -0.5206 -1.8525
  687MOL0     H90665   5.715   9.322   1.832  1.8317  0.7687 -2.7054
  687MOL0     H90666   6.430   9.631   1.322  1.2009 -0.4845 -0.5008
  687MOL0     H90667   6.596   9.791   1.260  1.0171  0.8487 -0.0625
  687MOL0     H90668   6.628  10.110   0.913  0.3269 -0.6580  0.4368
  687MOL0     H90669   6.763  10.259   0.763  1.3822 -2.6174 -1.6620
  687MOL0     H90670   6.121  10.333   0.648 -0.3876  1.1470 -0.3759
  687MOL0     H90671   5.904  10.305   0.816 -2.1182 -1.5840  1.2438
  687MOL0     H90672   5.454  10.327   0.818  0.8451 -2.5092 -1.5115
  687MOL0     H90673   5.268  10.346   0.978 -0.2906 -0.6638 -1.8404
  687MOL0     H90674   5.260  10.363   1.265  1.1983  1.6696  2.3745
  687MOL0     H90675   5.300  10.222   1.372 -1.6319  0.0613  0.7230
  687MOL0     H90676   5.011  10.302   1.285 -0.2279  0.1331  0.5826
  687MOL0     H90677   5.059  10.169   1.393 -2.1216  1.3461  0.0547
  687MOL0     H90678   5.067  10.464   1.421  1.2021 -0.6576 -0.5982
  687MOL0     H90679   5.144  10.360   1.547 -1.6904  2.5642  1.1797
  687MOL0     H90680   4.850  10.335   1.457  0.4552 -1.3617 -1.3441
  687MOL0     H90681   4.934  10.249   1.589 -3.8456  0.8213  1.8063
  687MOL0     H90682   4.838  10.622   1.755 -3.3021 -0.0118 -2.8490
  687MOL0     H90683   5.406   9.998   1.190 -0.4992 -0.6972 -0.6193
  687MOL0     H90684   5.598   9.998   1.047 -0.3115  0.5115 -1.2793
  688MOL0     O90685   6.225   1.042   1.449  0.3842 -0.3392 -0.0066
  688MOL0     C90686   6.257   1.101   1.350  1.0043  1.1955 -0.0947
  688MOL0     O90687   6.191   1.096   1.220  0.3482  0.0020 -0.2955
  688MOL0     C90688   6.092   1.009   1.176  0.2390  0.2043 -0.4275
  688MOL0     C90689   6.118   0.873   1.196  0.0734  0.2470 -0.1316
  688MOL0     C90690   6.043   0.789   1.119  0.4277  0.8246  0.3622
  688MOL0     C90691   5.944   0.834   1.029 -0.0277 -0.0600 -0.4218
  688MOL0     O90692   5.865   0.742   0.964  0.1901 -0.5208 -0.2185
  688MOL0     C90693   5.804   0.634   1.043  0.2918 -0.5875 -0.1911
  688MOL0     C90694   5.701   0.543   0.962  0.2298 -0.1189  0.7686
  688MOL0     C90695   5.666   0.421   1.043 -0.3168  0.2111 -0.3497
  688MOL0     C90696   5.553   0.329   0.994  0.5474 -0.4871 -1.1054
  688MOL0     C90697   5.561   0.281   0.847  0.1068  0.6103  0.3919
  688MOL0     C90698   5.668   0.180   0.812  0.2818 -0.3748 -0.2928
  688MOL0     C90699   5.683   0.141   0.660 -0.8554 -0.5328 -0.5737
  688MOL0     C90700   5.802   0.033   0.634 -1.0593 -1.4786 -0.0781
  688MOL0     N90701   5.755  -0.088   0.701  0.6945  0.1886  0.1648
  688MOL0     C90702   5.777  -0.143   0.826 -0.1831  0.6170 -0.3354
  688MOL0     C90703   5.729  -0.262   0.833  0.2063  0.9859 -0.4514
  688MOL0     C90704   5.716  -0.360   0.957  0.8191 -0.1460  0.3541
  688MOL0     C90705   5.567  -0.409   0.983 -0.4814 -1.0721 -0.8315
  688MOL0     C90706   5.553  -0.542   1.042  0.3219  0.5787 -0.2606
  688MOL0     C90707   5.408  -0.601   1.048 -0.4078  0.6295  0.5535
  688MOL0     O90708   5.312  -0.514   1.109 -0.0785 -0.1002 -0.4573
  688MOL0     C90709   5.189  -0.562   1.135  0.5658  0.4941  1.1871
  688MOL0     C90710   5.117  -0.490   1.226  0.8971 -0.0363  0.1206
  688MOL0     C90711   4.980  -0.528   1.250 -0.3878  0.4064 -0.8445
  688MOL0     C90712   4.922  -0.643   1.192 -0.0839 -0.0102 -0.0280
  688MOL0     C90713   4.786  -0.687   1.224  0.7549 -0.1413  0.2403
  688MOL0     O90714   4.724  -0.646   1.343 -0.0662  0.5196  0.3305
  688MOL0     C90715   4.591  -0.694   1.358 -0.9653  0.4100 -0.2632
  688MOL0     C90716   4.480  -0.655   1.280 -0.9540  0.3430 -0.0031
  688MOL0     C90717   4.353  -0.723   1.299 -0.9514  0.0385  1.0329
  688MOL0     C90718   4.343  -0.820   1.395 -0.1568 -0.1657  0.0828
  688MOL0     O90719   4.228  -0.896   1.421  0.0379 -0.4403 -0.4869
  688MOL0     C90720   4.114  -0.853   1.348  1.6143  0.4168 -0.1631
  688MOL0     C90721   3.990  -0.954   1.364 -0.1353 -0.7668 -0.1431
  688MOL0     C90722   3.872  -0.896   1.306 -0.0363 -0.6725 -0.1660
  688MOL0     C90723   3.867  -0.921   1.148 -0.5128  0.3617 -0.5216
  688MOL0     C90724   3.739  -0.871   1.088  0.1566 -0.0973  0.5131
  688MOL0     C90725   3.732  -0.929   0.944  1.3271  0.8191  0.6755
  688MOL0     C90726   3.831  -0.852   0.849 -0.2940  0.1915 -1.7629
  688MOL0     C90727   3.776  -0.849   0.706  0.5692  0.3689  0.4848
  688MOL0    Cl90728   3.916  -0.815   0.615 -0.1515 -0.6360 -0.2905
  688MOL0     C90729   4.444  -0.844   1.488 -0.2494 -0.3199  0.8969
  688MOL0     C90730   4.566  -0.791   1.458 -0.3907 -0.1646 -0.7208
  688MOL0     O90731   4.742  -0.767   1.139  0.2944  0.3600 -0.5923
  688MOL0     C90732   5.008  -0.716   1.098  0.5995  0.1234 -0.2648
  688MOL0     C90733   5.139  -0.676   1.077 -0.5923  0.4034  0.4138
  688MOL0     N90734   5.683  -0.292   0.704  0.1596 -0.1749 -0.0738
  688MOL0     N90735   5.699  -0.191   0.631  0.3937 -0.5204 -0.1866
  688MOL0     C90736   5.918   0.967   1.009 -0.2208  0.5173 -0.4936
  688MOL0     C90737   5.995   1.057   1.089 -0.1610 -0.4836 -0.5025
  688MOL0     C90738   6.376   1.187   1.357 -0.8414  0.6092 -0.2016
  688MOL0     C90739   6.462   1.191   1.248 -0.0017 -0.5270 -0.3004
  688MOL0     C90740   6.575   1.281   1.252  0.0303  0.4888 -0.5646
  688MOL0     C90741   6.609   1.341   1.370 -0.2909  0.1629  1.1223
  688MOL0     O90742   6.732   1.405   1.375  1.2410  0.0539  0.4287
  688MOL0     C90743   6.791   1.409   1.512 -1.2830 -0.1735  0.2042
  688MOL0     C90744   6.900   1.512   1.518 -0.6056  0.3902 -0.0420
  688MOL0     C90745   7.035   1.452   1.467 -0.3852 -1.4475  0.6954
  688MOL0     C90746   7.124   1.567   1.427  0.1820 -0.6995 -0.0001
  688MOL0     C90747   7.153   1.659   1.539  0.0185 -0.1105  0.0060
  688MOL0     C90748   7.183   1.738   1.628 -0.8924  0.8905 -0.4938
  688MOL0     C90749   6.519   1.326   1.482 -0.5353 -0.3488 -0.0792
  688MOL0     C90750   6.410   1.250   1.474 -0.2204  0.1934 -0.0358
  688MOL0     H90751   6.191   0.835   1.267  0.2822  3.4995  1.6272
  688MOL0     H90752   6.059   0.682   1.130 -1.0950  0.5967  0.4751
  688MOL0     H90753   5.751   0.678   1.128 -2.3660 -1.2633 -1.3819
  688MOL0     H90754   5.883   0.570   1.083 -0.3870 -1.1150  0.3353
  688MOL0     H90755   5.756   0.505   0.875  0.4700  2.8220 -0.4912
  688MOL0     H90756   5.616   0.593   0.914  1.8589 -1.0954 -3.5706
  688MOL0     H90757   5.625   0.456   1.138  2.6959  1.1107  0.7243
  688MOL0     H90758   5.759   0.365   1.053 -0.9663 -0.7222  0.6546
  688MOL0     H90759   5.545   0.243   1.061  0.5542  1.0859  0.9800
  688MOL0     H90760   5.460   0.386   0.996 -0.8701 -2.6399 -1.9740
  688MOL0     H90761   5.575   0.371   0.787  3.5908 -0.8646 -1.2635
  688MOL0     H90762   5.474   0.224   0.811  2.1308 -3.3147  1.1426
  688MOL0     H90763   5.644   0.091   0.871 -1.4828  0.4649  0.3373
  688MOL0     H90764   5.769   0.220   0.825 -0.5007  2.1885 -1.4236
  688MOL0     H90765   5.597   0.082   0.627  0.0685 -1.4322 -1.4305
  688MOL0     H90766   5.701   0.232   0.601  0.8952 -0.4797 -0.0083
  688MOL0     H90767   5.890   0.071   0.687 -2.6256 -0.9139  2.2974
  688MOL0     H90768   5.816   0.010   0.528 -0.3315 -0.6952 -0.1635
  688MOL0     H90769   5.815  -0.078   0.905  2.6270 -2.2353  0.8944
  688MOL0     H90770   5.741  -0.304   1.047  2.0829  2.0827 -1.2771
  688MOL0     H90771   5.774  -0.451   0.943 -4.2678 -3.5516 -1.7919
  688MOL0     H90772   5.514  -0.406   0.887 -1.2049 -1.3571 -0.4492
  688MOL0     H90773   5.522  -0.336   1.050  3.5677  0.3084  0.7105
  688MOL0     H90774   5.608  -0.613   0.979 -1.3488 -1.0518  0.0365
  688MOL0     H90775   5.586  -0.553   1.145  2.5406 -2.3920 -1.1191
  688MOL0     H90776   5.401  -0.698   1.096 -1.7847  1.2158  1.6232
  688MOL0     H90777   5.365  -0.617   0.948  1.2446 -3.1242  0.2853
  688MOL0     H90778   5.170  -0.408   1.275  0.3940  0.9010 -0.8708
  688MOL0     H90779   4.924  -0.471   1.324 -0.2916 -0.4252 -0.1174
  688MOL0     H90780   4.507  -0.577   1.210  5.5039 -3.2032 -2.3229
  688MOL0     H90781   4.271  -0.676   1.246  2.1890  4.1558 -0.6819
  688MOL0     H90782   4.144  -0.855   1.243  1.1008 -1.0198 -0.3116
  688MOL0     H90783   4.090  -0.751   1.379  1.1970 -0.3201  2.1900
  688MOL0     H90784   3.968  -0.958   1.471 -3.1875 -3.0901 -0.7398
  688MOL0     H90785   4.016  -1.052   1.323  1.4683  0.4238 -2.1706
  688MOL0     H90786   3.871  -0.788   1.321 -0.2738 -0.8163  0.9048
  688MOL0     H90787   3.779  -0.928   1.354  1.3016  0.8755  3.8630
  688MOL0     H90788   3.957  -0.883   1.099  0.6639 -1.0318  0.4517
  688MOL0     H90789   3.865  -1.031   1.147  1.1098  0.2611  1.5235
  688MOL0     H90790   3.756  -0.763   1.083 -1.3786  0.1374 -0.5815
  688MOL0     H90791   3.647  -0.884   1.147  0.0342 -0.0489  0.3330
  688MOL0     H90792   3.636  -0.909   0.896  1.8248  0.4735 -0.5037
  688MOL0     H90793   3.754  -1.036   0.934  0.0243  0.7539 -4.1554
  688MOL0     H90794   3.845  -0.749   0.885 -1.5539 -0.1388 -0.2725
  688MOL0     H90795   3.932  -0.895   0.846 -0.4447 -0.5192  0.9810
  688MOL0     H90796   3.701  -0.769   0.699 -1.3559 -1.4835 -1.6959
  688MOL0     H90797   3.734  -0.941   0.664 -1.4058  1.2588  0.3868
  688MOL0     H90798   4.441  -0.899   1.581  1.4830 -0.2438  1.0197
  688MOL0     H90799   4.653  -0.820   1.516 -0.7961  0.0630  0.0111
  688MOL0     H90800   4.959  -0.802   1.052  0.0967  0.0900  0.3168
  688MOL0     H90801   5.192  -0.726   0.997  2.1230  2.0729  1.0391
  688MOL0     H90802   5.829   1.003   0.959  0.6078  1.3527 -1.4101
  688MOL0     H90803   5.973   1.163   1.076 -2.4465 -0.8913 -0.4182
  688MOL0     H90804   6.423   1.133   1.165 -0.7525 -2.1814  1.1366
  688MOL0     H90805   6.631   1.286   1.159  1.8959 -0.7803  0.4398
  688MOL0     H90806   6.835   1.310   1.530  1.7239  0.7599 -1.3230
  688MOL0     H90807   6.721   1.447   1.587 -0.1057  1.1171  0.6860
  688MOL0     H90808   6.880   1.599   1.454  0.7307 -1.7156 -3.6448
  688MOL0     H90809   6.913   1.540   1.623  1.0494 -1.7867  0.4225
  688MOL0     H90810   7.014   1.389   1.380  1.2708  1.3849 -1.9753
  688MOL0     H90811   7.083   1.402   1.552  0.3468 -0.4873  0.8655
  688MOL0     H90812   7.218   1.537   1.379  0.1725  3.1990 -2.8683
  688MOL0     H90813   7.073   1.641   1.365 -1.0742  1.7602  3.6240
  688MOL0     H90814   7.204   1.811   1.703 -1.1182 -0.7750  1.2853
  688MOL0     H90815   6.537   1.384   1.572  0.9828  0.5656 -0.9123
  688MOL0     H90816   6.345   1.259   1.560 -1.2311  1.2566 -0.8845
  689MOL0     O90817   6.999   4.590   2.007 -0.8300  0.1006 -0.6457
  689MOL0     C90818   6.962   4.580   2.127  0.2339 -0.1969 -0.1437
  689MOL0     O90819   7.031   4.636   2.237  0.4447  0.0035 -0.4137
  689MOL0     C90820   7.160   4.685   2.218  0.0887 -0.7766  0.7895
  689MOL0     C90821   7.199   4.781   2.314  0.2416 -0.0130 -0.2993
  689MOL0     C90822   7.334   4.812   2.322  0.3838 -0.1477 -0.3501
  689MOL0     C90823   7.430   4.758   2.230 -0.1224 -0.0938 -0.2487
  689MOL0     O90824   7.551   4.832   2.218 -0.1890  0.7408 -0.6435
  689MOL0     C90825   7.650   4.795   2.128  1.1064  1.0678  0.1848
  689MOL0     C90826   7.743   4.911   2.109 -0.0558  0.2150 -0.5041
  689MOL0     C90827   7.866   4.886   2.020  0.0738 -0.8425  0.4768
  689MOL0     C90828   7.920   5.017   1.969  0.6543 -0.6407  0.5164
  689MOL0     C90829   8.065   4.994   1.930  0.1305  0.4827 -0.6439
  689MOL0     C90830   8.086   4.905   1.808  1.2162  0.2650 -0.0338
  689MOL0     C90831   8.227   4.887   1.745 -0.2722 -0.3027 -0.0288
  689MOL0     C90832   8.206   4.819   1.612  0.3557  0.2369  0.4346
  689MOL0     N90833   8.160   4.688   1.620  0.5517  0.1082  0.0750
  689MOL0     C90834   8.243   4.588   1.631 -0.4031  0.2980  0.0189
  689MOL0     C90835   8.179   4.467   1.608  0.4792  0.4656 -0.2099
  689MOL0     C90836   8.226   4.333   1.580 -0.6533 -0.2464  0.6268
  689MOL0     C90837   8.197   4.240   1.699  0.0827 -0.1423 -0.2513
  689MOL0     C90838   8.237   4.097   1.653  0.8519 -0.1003 -0.1313
  689MOL0     C90839   8.388   4.064   1.662  0.6025  0.7931 -0.3102
  689MOL0     O90840   8.457   4.107   1.548 -0.4583 -0.4644  0.1972
  689MOL0     C90841   8.592   4.133   1.554 -0.1326 -0.1847 -0.6498
  689MOL0     C90842   8.669   4.102   1.666 -0.3538  0.5240  0.9128
  689MOL0     C90843   8.802   4.149   1.664  0.4397 -0.6293 -0.1902
  689MOL0     C90844   8.852   4.213   1.549  1.0479  0.3463 -0.3350
  689MOL0     C90845   8.993   4.257   1.539  0.1355  0.2290  0.3173
  689MOL0     O90846   9.082   4.153   1.562 -0.5449  0.5439  0.3476
  689MOL0     C90847   9.214   4.194   1.601  0.4730  0.7533  0.2290
  689MOL0     C90848   9.304   4.094   1.582  0.0476  0.2374  0.5308
  689MOL0     C90849   9.441   4.116   1.619  0.3174 -0.6667  0.5250
  689MOL0     C90850   9.485   4.241   1.671  0.4572 -0.4440 -0.0095
  689MOL0     O90851   9.618   4.259   1.710  0.4935 -0.1329  0.0034
  689MOL0     C90852   9.666   4.398   1.708  0.4726  0.7271 -0.2162
  689MOL0     C90853   9.817   4.370   1.682  0.8767  0.1465 -0.2304
  689MOL0     C90854   9.889   4.490   1.730  0.7421 -0.0707 -0.0104
  689MOL0     C90855  10.038   4.486   1.714 -0.3218  0.0462  1.1103
  689MOL0     C90856  10.109   4.612   1.761  0.2663  0.2274  0.3164
  689MOL0     C90857  10.251   4.594   1.819  0.7183  0.6242  0.0990
  689MOL0     C90858  10.336   4.531   1.708 -0.4076  0.6051  0.0322
  689MOL0     C90859  10.479   4.522   1.763 -0.5828  0.3076 -0.1759
  689MOL0    Cl90860  10.550   4.685   1.766 -0.1119 -0.1058  0.0969
  689MOL0     C90861   9.382   4.336   1.694  0.3608 -0.5605 -0.2031
  689MOL0     C90862   9.250   4.316   1.661 -0.3881 -0.4129  0.6953
  689MOL0     O90863   9.019   4.372   1.518  0.1076  0.0162  0.5331
  689MOL0     C90864   8.771   4.239   1.434  0.0340  1.2983  1.0970
  689MOL0     C90865   8.646   4.189   1.438 -0.1044  1.1427 -0.1203
  689MOL0     N90866   8.041   4.512   1.596  0.3029 -0.7433 -0.4127
  689MOL0     N90867   8.034   4.645   1.596 -0.0266 -0.2844  0.1183
  689MOL0     C90868   7.399   4.656   2.145  0.2808  0.5205  0.6459
  689MOL0     C90869   7.260   4.626   2.137 -0.3511  0.2893  0.1101
  689MOL0     C90870   6.831   4.518   2.157  0.4164 -0.5673  0.3673
  689MOL0     C90871   6.764   4.555   2.281 -0.0358  0.6415 -0.1151
  689MOL0     C90872   6.633   4.508   2.307 -0.3455  0.2070  1.2106
  689MOL0     C90873   6.566   4.424   2.213 -0.0824  0.2698  0.7268
  689MOL0     O90874   6.433   4.380   2.235  0.2401  0.7473 -0.3853
  689MOL0     C90875   6.352   4.452   2.327 -0.2129 -0.2079 -0.0531
  689MOL0     C90876   6.206   4.413   2.326  0.3827  1.0883 -0.8562
  689MOL0     C90877   6.172   4.259   2.353 -0.3230 -0.2278 -0.0775
  689MOL0     C90878   6.249   4.213   2.478  0.4628  0.3284 -0.0996
  689MOL0     C90879   6.223   4.283   2.604  0.8514  0.2229  0.8504
  689MOL0     C90880   6.190   4.338   2.704 -0.1435  0.3236 -1.0203
  689MOL0     C90881   6.635   4.384   2.098 -0.7321 -0.4141 -0.5266
  689MOL0     C90882   6.766   4.436   2.066  1.0463 -0.0424 -0.3972
  689MOL0     H90883   7.140   4.838   2.385 -0.1464 -0.6019 -0.1486
  689MOL0     H90884   7.357   4.894   2.389 -2.0001  3.2349 -3.2848
  689MOL0     H90885   7.599   4.780   2.033  1.1629 -2.0458  0.5501
  689MOL0     H90886   7.700   4.700   2.151 -1.3220 -0.7733 -1.6532
  689MOL0     H90887   7.783   4.943   2.206  1.3103 -1.1424 -0.5821
  689MOL0     H90888   7.682   4.989   2.063 -0.9684 -0.8615 -1.1699
  689MOL0     H90889   7.841   4.826   1.932  1.5207 -2.6000  1.2008
  689MOL0     H90890   7.931   4.823   2.081 -0.4597 -0.7980  1.1058
  689MOL0     H90891   7.864   5.061   1.886  1.6505 -2.0740 -0.9866
  689MOL0     H90892   7.923   5.094   2.047  2.4140  2.4223 -2.2885
  689MOL0     H90893   8.120   4.958   2.017 -0.4448  1.3163  0.0693
  689MOL0     H90894   8.101   5.097   1.916  0.6186  0.1375 -2.2344
  689MOL0     H90895   8.013   4.944   1.736  0.1070 -0.5290  0.6228
  689MOL0     H90896   8.057   4.802   1.834 -0.1354  1.0282  1.7243
  689MOL0     H90897   8.270   4.985   1.718  2.7171 -0.5942  3.0704
  689MOL0     H90898   8.297   4.846   1.818  3.5840  1.8787 -2.1289
  689MOL0     H90899   8.294   4.825   1.547  0.2341  2.7742  0.4118
  689MOL0     H90900   8.129   4.875   1.559  1.1305 -1.4521 -2.7222
  689MOL0     H90901   8.350   4.600   1.644 -0.5453  0.7265  0.9111
  689MOL0     H90902   8.332   4.353   1.560 -0.4951 -0.9699  0.7153
  689MOL0     H90903   8.174   4.306   1.488  0.4216  1.2956 -0.4667
  689MOL0     H90904   8.093   4.233   1.733 -0.0965 -1.3580 -0.9816
  689MOL0     H90905   8.254   4.279   1.784 -0.7971  3.4569 -1.1715
  689MOL0     H90906   8.186   4.026   1.719 -2.7564  1.1952 -1.3065
  689MOL0     H90907   8.200   4.076   1.553 -2.8883  1.1722  0.8253
  689MOL0     H90908   8.404   3.957   1.647  1.8034  1.2391 -2.6393
  689MOL0     H90909   8.435   4.107   1.751  0.0615  0.7932 -0.0199
  689MOL0     H90910   8.630   4.044   1.749 -0.8443  2.6161  2.2374
  689MOL0     H90911   8.864   4.157   1.753  1.7737  4.2253 -1.2588
  689MOL0     H90912   9.271   3.998   1.543 -0.0401  0.2203  0.6431
  689MOL0     H90913   9.521   4.042   1.616  1.8362  0.9537 -1.4822
  689MOL0     H90914   9.646   4.442   1.806 -2.1920 -0.6352 -0.0663
  689MOL0     H90915   9.626   4.448   1.620 -1.7334 -0.7608 -0.1504
  689MOL0     H90916   9.844   4.347   1.579 -4.2843 -0.9522 -1.6145
  689MOL0     H90917   9.852   4.291   1.750  2.7413  0.2534 -1.0139
  689MOL0     H90918   9.886   4.492   1.839  2.0364 -1.7480  0.0941
  689MOL0     H90919   9.843   4.584   1.697  0.0346  0.5241  2.4676
  689MOL0     H90920  10.084   4.397   1.757  1.3217  0.5678  0.5076
  689MOL0     H90921  10.067   4.473   1.609  2.3644  0.2260  1.7719
  689MOL0     H90922  10.060   4.656   1.848  0.1189  0.4313  0.1315
  689MOL0     H90923  10.111   4.684   1.678 -0.5543  0.6883  0.6911
  689MOL0     H90924  10.248   4.543   1.915 -1.3267 -0.4895 -0.5035
  689MOL0     H90925  10.290   4.692   1.849  0.5334  0.5942  0.4408
  689MOL0     H90926  10.299   4.433   1.677 -0.6084  0.7031 -0.0422
  689MOL0     H90927  10.329   4.596   1.621 -0.5813  1.0582  0.3806
  689MOL0     H90928  10.529   4.461   1.687  1.5578  0.7712  0.7928
  689MOL0     H90929  10.484   4.477   1.863 -1.3244  2.1513  0.7272
  689MOL0     H90930   9.410   4.418   1.760 -0.6620  1.2810 -1.9447
  689MOL0     H90931   9.177   4.390   1.693 -0.8847 -0.3846 -0.4580
  689MOL0     H90932   8.810   4.287   1.345 -0.2613  0.2926  0.4105
  689MOL0     H90933   8.584   4.206   1.350 -0.5713  0.5577  0.0855
  689MOL0     H90934   7.462   4.611   2.069  0.1624 -0.6033  1.1901
  689MOL0     H90935   7.224   4.539   2.082  0.6864 -1.3788  1.9517
  689MOL0     H90936   6.807   4.608   2.366  2.7014 -0.1766 -0.8665
  689MOL0     H90937   6.584   4.552   2.393  1.9257  3.9868  0.7959
  689MOL0     H90938   6.355   4.561   2.322  0.4578 -0.0588  2.2273
  689MOL0     H90939   6.385   4.444   2.431 -2.6362 -1.2436  0.7168
  689MOL0     H90940   6.152   4.478   2.395 -1.5993 -0.5987 -0.7078
  689MOL0     H90941   6.152   4.425   2.232 -1.8091  2.5451  0.5195
  689MOL0     H90942   6.203   4.195   2.270 -1.2828 -1.8738  0.7929
  689MOL0     H90943   6.063   4.254   2.361 -0.4410  3.0965  2.7300
  689MOL0     H90944   6.210   4.116   2.511 -2.5780  1.9029  1.3593
  689MOL0     H90945   6.355   4.215   2.452  0.1953  1.0034 -1.1932
  689MOL0     H90946   6.189   4.389   2.798  2.6978  1.9870 -1.7731
  689MOL0     H90947   6.600   4.314   2.024  0.1012  3.1472 -4.7378
  689MOL0     H90948   6.816   4.398   1.978 -0.0257 -0.7131 -0.7498
  690MOL0     O90949   0.190   2.854   1.379 -0.1951  0.1835 -0.3366
  690MOL0     C90950   0.226   2.795   1.271  0.1946 -0.7475 -0.4204
  690MOL0     O90951   0.144   2.729   1.193  0.0311 -0.8969  0.4727
  690MOL0     C90952   0.026   2.702   1.255 -0.3333 -0.7684  0.0237
  690MOL0     C90953  -0.102   2.743   1.206  0.3456  0.2659 -0.5788
  690MOL0     C90954  -0.211   2.691   1.266 -0.2107  0.5006 -0.0454
  690MOL0     C90955  -0.202   2.607   1.373  0.8362 -0.3945  0.2997
  690MOL0     O90956  -0.314   2.553   1.425  0.6348  0.0182 -1.0581
  690MOL0     C90957  -0.426   2.636   1.458  1.0390  0.0078  0.5123
  690MOL0     C90958  -0.545   2.544   1.490  0.8202 -0.0118 -0.7898
  690MOL0     C90959  -0.524   2.448   1.608  0.6372 -0.0592  0.5973
  690MOL0     C90960  -0.484   2.511   1.731 -0.7111  0.3244 -1.0779
  690MOL0     C90961  -0.485   2.407   1.840  0.0897  0.0635 -0.4030
  690MOL0     C90962  -0.431   2.456   1.975  0.4502  0.5105 -0.5728
  690MOL0     C90963  -0.434   2.340   2.076 -0.1638  0.7124 -0.3627
  690MOL0     C90964  -0.381   2.368   2.210 -0.0908  0.9680  0.3898
  690MOL0     N90965  -0.461   2.447   2.301  0.4007 -0.0236 -0.3965
  690MOL0     C90966  -0.568   2.398   2.368  0.7345 -0.5135  0.4142
  690MOL0     C90967  -0.612   2.494   2.448  0.0571  0.4627  0.5360
  690MOL0     C90968  -0.739   2.490   2.525  1.0090  0.6382 -0.3785
  690MOL0     C90969  -0.817   2.606   2.489  0.1705 -0.1451  0.2996
  690MOL0     C90970  -0.893   2.625   2.353  0.0546  0.0120 -0.4385
  690MOL0     C90971  -0.791   2.668   2.243 -0.7391  0.7524  0.2342
  690MOL0     O90972  -0.860   2.705   2.128  0.4397  0.5362  0.3015
  690MOL0     C90973  -0.792   2.756   2.015  0.2040  0.3611  0.2515
  690MOL0     C90974  -0.865   2.788   1.897 -0.3282 -0.0382 -0.2571
  690MOL0     C90975  -0.809   2.827   1.782 -0.5350 -0.1151 -0.9910
  690MOL0     C90976  -0.670   2.836   1.779  0.1871 -0.5947  0.0291
  690MOL0     C90977  -0.598   2.878   1.658  0.9181 -0.0530 -0.5287
  690MOL0     O90978  -0.469   2.924   1.672  0.3681  1.0069  0.7052
  690MOL0     C90979  -0.396   2.973   1.570 -0.2186 -0.5060  0.5711
  690MOL0     C90980  -0.436   3.059   1.462  0.3847  0.1116 -0.1422
  690MOL0     C90981  -0.340   3.101   1.371 -0.6418  0.2484  0.5940
  690MOL0     C90982  -0.201   3.061   1.395  0.0614  0.0054 -0.4455
  690MOL0     O90983  -0.126   3.117   1.307  0.0632 -0.3618  0.1384
  690MOL0     C90984  -0.054   3.230   1.359 -0.1771 -0.3010 -0.4498
  690MOL0     C90985   0.091   3.187   1.377  0.0254 -0.2055  0.2750
  690MOL0     C90986   0.176   3.309   1.429  0.4816 -0.0099 -0.0941
  690MOL0     C90987   0.160   3.339   1.572  0.0809  0.1370  0.3365
  690MOL0     C90988   0.212   3.479   1.615  0.0301  0.2480 -0.5879
  690MOL0     C90989   0.359   3.476   1.586 -0.9987  0.5230 -0.0457
  690MOL0     C90990   0.426   3.610   1.645 -0.6287  0.3726 -0.6289
  690MOL0     C90991   0.563   3.625   1.590 -0.1211 -0.0274 -0.1618
  690MOL0    Cl90992   0.614   3.788   1.654  0.2325 -0.0532  0.3859
  690MOL0     C90993  -0.162   2.980   1.503  1.3780 -0.7277 -0.2978
  690MOL0     C90994  -0.260   2.940   1.586  1.1516 -0.0317  0.2124
  690MOL0     O90995  -0.662   2.859   1.554 -0.3105  0.6922 -0.6724
  690MOL0     C90996  -0.591   2.815   1.899  0.3230 -0.9907  0.8655
  690MOL0     C90997  -0.656   2.778   2.009 -0.7918 -0.1170 -0.3942
  690MOL0     N90998  -0.521   2.600   2.432  0.3470  0.1356 -0.5055
  690MOL0     N90999  -0.424   2.567   2.363 -0.4352 -0.4365 -0.8204
  690MOL0     C91000  -0.078   2.563   1.420  0.4638  0.7961 -0.2069
  690MOL0     C91001   0.037   2.608   1.360  0.4021 -0.4607  0.0121
  690MOL0     C91002   0.367   2.806   1.220  0.7292 -0.4483  0.0334
  690MOL0     C91003   0.372   2.812   1.083  0.4108  0.3605 -0.1504
  690MOL0     C91004   0.501   2.799   1.023 -0.1268 -0.1986  0.1293
  690MOL0     C91005   0.617   2.798   1.102  0.0007 -1.0234  0.2039
  690MOL0     O91006   0.727   2.785   1.033 -0.3326 -0.1663  0.8526
  690MOL0     C91007   0.836   2.874   1.082  1.0230 -0.0069 -0.2302
  690MOL0     C91008   0.904   2.920   0.958 -0.3836  0.1869 -0.3571
  690MOL0     C91009   0.840   3.028   0.862 -0.9569  0.5702 -0.0942
  690MOL0     C91010   0.774   3.152   0.927 -0.3951 -0.3333 -0.9762
  690MOL0     C91011   0.883   3.234   0.991  0.6632  0.0677 -0.0041
  690MOL0     C91012   0.984   3.296   1.020  0.7909  0.4849  0.2215
  690MOL0     C91013   0.607   2.812   1.247  0.5038  0.5926  0.6172
  690MOL0     C91014   0.476   2.830   1.299 -0.4702  0.9711 -0.3059
  690MOL0     H91015  -0.118   2.808   1.120  0.7570 -0.6566 -1.3787
  690MOL0     H91016  -0.309   2.726   1.232  0.0417 -0.3477 -1.7454
  690MOL0     H91017  -0.458   2.693   1.370 -1.0526  1.1652  1.9418
  690MOL0     H91018  -0.406   2.697   1.546 -2.3071 -0.7338  1.9219
  690MOL0     H91019  -0.578   2.485   1.404  0.2910  2.9632 -2.7666
  690MOL0     H91020  -0.621   2.617   1.519  1.3292  0.2789 -0.1586
  690MOL0     H91021  -0.442   2.381   1.579  0.7823  0.3109  0.1414
  690MOL0     H91022  -0.604   2.376   1.630  2.2090 -1.9907  0.3348
  690MOL0     H91023  -0.380   2.543   1.725 -0.6861  0.2558 -1.0186
  690MOL0     H91024  -0.551   2.594   1.756 -1.6026 -0.8784  0.7456
  690MOL0     H91025  -0.436   2.313   1.811 -0.7122 -1.5736  3.1058
  690MOL0     H91026  -0.584   2.368   1.868  1.8359 -1.5916  4.4176
  690MOL0     H91027  -0.480   2.550   2.001 -0.2252  0.6904 -2.3718
  690MOL0     H91028  -0.328   2.493   1.967  0.6625  1.2115  3.3397
  690MOL0     H91029  -0.537   2.304   2.079 -0.0318 -0.0432 -2.7206
  690MOL0     H91030  -0.372   2.264   2.028 -0.3794  1.6950 -2.3047
  690MOL0     H91031  -0.286   2.420   2.204  0.3708  0.3510  1.8595
  690MOL0     H91032  -0.349   2.269   2.243 -1.6936 -0.0820 -0.9963
  690MOL0     H91033  -0.621   2.305   2.352 -2.2079  1.0169  0.4930
  690MOL0     H91034  -0.716   2.498   2.632  1.1714 -1.0884 -0.2501
  690MOL0     H91035  -0.788   2.393   2.509  2.1774  0.0002 -0.2872
  690MOL0     H91036  -0.751   2.692   2.504  0.8614 -0.6530  0.2199
  690MOL0     H91037  -0.897   2.618   2.563  0.2727  1.2070  0.2139
  690MOL0     H91038  -0.954   2.541   2.319 -1.5899 -0.9548  4.1194
  690MOL0     H91039  -0.962   2.706   2.378 -0.1525 -1.1244  3.2774
  690MOL0     H91040  -0.726   2.582   2.224  2.6265  3.2645 -0.5331
  690MOL0     H91041  -0.729   2.744   2.291  0.2683  0.4013 -0.4876
  690MOL0     H91042  -0.973   2.784   1.899 -0.3759  0.8713 -0.4613
  690MOL0     H91043  -0.867   2.856   1.695  0.0016 -0.7661 -1.5852
  690MOL0     H91044  -0.536   3.101   1.456 -0.2118 -0.7189  2.4453
  690MOL0     H91045  -0.361   3.159   1.281 -0.8414  1.2509  1.2619
  690MOL0     H91046  -0.083   3.275   1.454  0.9307  0.5202 -0.4873
  690MOL0     H91047  -0.057   3.307   1.281 -0.9808 -0.1874 -0.3157
  690MOL0     H91048   0.128   3.159   1.278  1.6568  2.9702 -0.1276
  690MOL0     H91049   0.102   3.107   1.451  0.7210 -2.5243 -2.1928
  690MOL0     H91050   0.136   3.401   1.386 -3.0536  0.8954  4.3637
  690MOL0     H91051   0.280   3.283   1.407 -0.4478 -5.2352  0.4083
  690MOL0     H91052   0.056   3.324   1.600  0.7783  1.3764  4.1036
  690MOL0     H91053   0.210   3.256   1.623  2.7823  2.1328  1.1925
  690MOL0     H91054   0.201   3.500   1.722 -0.1742 -0.6345 -0.4303
  690MOL0     H91055   0.171   3.561   1.555 -1.2301 -0.9349 -1.3958
  690MOL0     H91056   0.370   3.481   1.478 -1.5901  3.8848 -0.0551
  690MOL0     H91057   0.413   3.388   1.622  0.5637  2.1505  1.8161
  690MOL0     H91058   0.371   3.700   1.617  2.0953  3.0300  1.8602
  690MOL0     H91059   0.436   3.601   1.753 -0.6206  0.7186 -0.6009
  690MOL0     H91060   0.566   3.614   1.481  0.1420  2.7356 -0.5111
  690MOL0     H91061   0.633   3.545   1.614 -0.0152 -0.4212 -1.6827
  690MOL0     H91062  -0.061   2.945   1.518  1.4853  0.6886  3.3563
  690MOL0     H91063  -0.246   2.862   1.660 -3.9990 -1.8880 -0.3736
  690MOL0     H91064  -0.483   2.820   1.887  0.0894 -1.4739 -2.0604
  690MOL0     H91065  -0.597   2.782   2.100  3.0049 -0.3807 -2.6394
  690MOL0     H91066  -0.063   2.488   1.497  0.6987  2.5899  1.5536
  690MOL0     H91067   0.136   2.574   1.389 -0.3805 -1.4059  1.7279
  690MOL0     H91068   0.289   2.814   1.014  1.0308 -2.2737 -1.0871
  690MOL0     H91069   0.502   2.802   0.914  2.3421 -1.1396  0.0701
  690MOL0     H91070   0.903   2.814   1.144 -0.3726 -3.2186 -1.5901
  690MOL0     H91071   0.800   2.966   1.129 -0.2762 -1.3424  1.5231
  690MOL0     H91072   1.001   2.968   0.973  0.7516 -2.5800  2.0443
  690MOL0     H91073   0.928   2.831   0.898  1.9172  1.1826 -1.0225
  690MOL0     H91074   0.757   2.985   0.805 -0.6100 -0.7003  0.3398
  690MOL0     H91075   0.920   3.061   0.794 -2.5824  1.7126 -1.5625
  690MOL0     H91076   0.717   3.204   0.849  2.3190  2.2506 -1.3814
  690MOL0     H91077   0.700   3.129   1.004  1.0269  1.0769  0.8968
  690MOL0     H91078   1.074   3.338   1.060  0.1555 -0.4473  2.8385
  690MOL0     H91079   0.690   2.825   1.316  0.5897 -1.5180  1.0049
  690MOL0     H91080   0.460   2.861   1.402 -2.7334  1.7802 -0.8546
  691MOL0     O91081   3.746   2.404   2.689 -0.1936  0.5306  0.1976
  691MOL0     C91082   3.820   2.405   2.789  1.0427 -0.1333  0.5575
  691MOL0     O91083   3.782   2.457   2.909 -0.1236 -0.2340 -0.3486
  691MOL0     C91084   3.677   2.544   2.896 -0.6857 -0.6752  0.2949
  691MOL0     C91085   3.701   2.683   2.911  0.1613  0.7143  0.0891
  691MOL0     C91086   3.602   2.777   2.886 -0.0882 -0.1992 -0.7933
  691MOL0     C91087   3.472   2.738   2.865  0.5198 -0.2356 -0.2857
  691MOL0     O91088   3.372   2.835   2.844 -0.8261  0.5046 -0.3782
  691MOL0     C91089   3.357   2.860   2.704 -1.0867  0.4313 -0.1345
  691MOL0     C91090   3.292   2.743   2.632  0.1194  0.2186 -0.1117
  691MOL0     C91091   3.167   2.685   2.707 -0.8863 -0.8952  1.4749
  691MOL0     C91092   3.147   2.533   2.668  0.5740 -0.1713  0.2382
  691MOL0     C91093   3.035   2.470   2.749  0.2765  0.8408 -0.5781
  691MOL0     C91094   2.903   2.505   2.691  0.1775  0.2843 -0.5905
  691MOL0     C91095   2.783   2.420   2.742  0.4429  0.2053 -0.2844
  691MOL0     C91096   2.798   2.274   2.707  0.1784 -0.3411  0.1571
  691MOL0     N91097   2.677   2.201   2.653  0.5719  0.5253 -0.5412
  691MOL0     C91098   2.554   2.199   2.708 -0.0664  0.9414  0.0831
  691MOL0     C91099   2.484   2.117   2.629 -0.1498 -0.0822  0.1476
  691MOL0     C91100   2.348   2.067   2.661 -0.3248 -0.6993  0.0993
  691MOL0     C91101   2.355   1.921   2.687  0.4218  0.3305 -0.1257
  691MOL0     C91102   2.418   1.888   2.820 -0.1189  0.4819  0.1815
  691MOL0     C91103   2.415   1.731   2.834 -0.3496  0.0077 -1.0914
  691MOL0     O91104   2.469   1.697   2.961  0.2766  0.3547  0.2949
  691MOL0     C91105   2.605   1.668   2.975 -0.5914  0.3788 -0.7404
  691MOL0     C91106   2.703   1.683   2.876 -0.2320 -0.0082 -0.0585
  691MOL0     C91107   2.841   1.660   2.901  0.0354  0.4028 -0.2380
  691MOL0     C91108   2.890   1.647   3.037  0.2782 -0.5604 -0.0523
  691MOL0     C91109   3.035   1.637   3.065  0.3424 -0.5695 -0.2809
  691MOL0     O91110   3.069   1.641   3.198 -0.9792  0.0641  0.5781
  691MOL0     C91111   3.200   1.626   3.242 -0.6839 -0.5681  1.1196
  691MOL0     C91112   3.298   1.551   3.178 -0.7326 -0.5426 -0.0119
  691MOL0     C91113   3.424   1.533   3.237 -0.3032  0.7661  0.0257
  691MOL0     C91114   3.453   1.592   3.355 -1.3799 -0.3803 -0.7889
  691MOL0     O91115   3.590   1.585   3.395  0.8105 -0.1394  0.3924
  691MOL0     C91116   3.643   1.702   3.449  0.2882 -0.5064  0.2517
  691MOL0     C91117   3.795   1.686   3.470  0.5603 -0.5605 -0.0230
  691MOL0     C91118   3.844   1.777   3.582 -0.4948 -0.1554  0.1625
  691MOL0     C91119   3.996   1.775   3.569  0.6649  1.0275  0.0231
  691MOL0     C91120   4.055   1.878   3.661 -0.0067  0.6445 -0.1197
  691MOL0     C91121   4.200   1.840   3.677  0.1814  0.0209  0.7443
  691MOL0     C91122   4.277   1.943   3.763 -0.1976 -0.6837  0.7390
  691MOL0     C91123   4.423   1.914   3.760 -0.5144  0.5725 -0.7178
  691MOL0    Cl91124   4.526   2.037   3.825  0.1077 -0.2349  0.3303
  691MOL0     C91125   3.355   1.675   3.418  0.6927  0.5510 -0.0933
  691MOL0     C91126   3.230   1.692   3.360 -0.5848  0.4439 -0.3892
  691MOL0     O91127   3.112   1.654   2.971  0.2155  0.2018  0.1087
  691MOL0     C91128   2.792   1.646   3.138 -0.6911 -0.3404 -0.0546
  691MOL0     C91129   2.655   1.651   3.108 -1.0058  0.5163  0.2489
  691MOL0     N91130   2.573   2.055   2.540  0.4398 -0.6104 -0.7312
  691MOL0     N91131   2.680   2.111   2.554 -0.1351  0.3299  0.0882
  691MOL0     C91132   3.443   2.595   2.874  0.6974 -0.6295 -0.4044
  691MOL0     C91133   3.544   2.499   2.876  0.4633 -0.2991  0.0322
  691MOL0     C91134   3.959   2.361   2.774  0.7466 -0.7118 -0.2296
  691MOL0     C91135   4.013   2.326   2.645  1.2327  0.1366  0.1443
  691MOL0     C91136   4.141   2.272   2.643 -0.4110 -0.0389 -0.1163
  691MOL0     C91137   4.227   2.276   2.754 -0.4649  0.1915  0.2612
  691MOL0     O91138   4.358   2.245   2.759 -0.4439  0.1659  0.4439
  691MOL0     C91139   4.426   2.227   2.636 -0.1437 -0.2139  0.5328
  691MOL0     C91140   4.578   2.204   2.655  0.7584 -0.4526 -0.2392
  691MOL0     C91141   4.657   2.333   2.700  1.1142  0.2918 -0.5842
  691MOL0     C91142   4.798   2.308   2.693 -0.1190 -0.6809  0.8072
  691MOL0     C91143   4.886   2.424   2.746 -0.6874 -0.2213 -0.1256
  691MOL0     C91144   4.949   2.520   2.789 -0.1122  1.0282 -0.3254
  691MOL0     C91145   4.177   2.308   2.878 -0.3184  0.2745 -0.1196
  691MOL0     C91146   4.044   2.342   2.882  1.5724  0.5938  0.5423
  691MOL0     H91147   3.803   2.714   2.927  1.0586 -1.9913 -0.0360
  691MOL0     H91148   3.622   2.884   2.882  0.5807 -0.3388 -1.2117
  691MOL0     H91149   3.451   2.863   2.649 -1.3564  1.1052 -0.5762
  691MOL0     H91150   3.302   2.955   2.696  2.3830  2.8701  2.1437
  691MOL0     H91151   3.370   2.667   2.631  1.7640  1.8422 -0.3922
  691MOL0     H91152   3.273   2.780   2.530 -1.2807  1.4120  0.5397
  691MOL0     H91153   3.075   2.743   2.695 -0.1928  0.1551  1.0689
  691MOL0     H91154   3.190   2.678   2.813  2.4534 -4.4293  0.7350
  691MOL0     H91155   3.142   2.511   2.561  1.3381 -1.2985  0.4163
  691MOL0     H91156   3.245   2.489   2.688  2.7247  3.0703 -2.1022
  691MOL0     H91157   3.028   2.497   2.855 -4.3244 -0.0728 -0.4503
  691MOL0     H91158   3.040   2.360   2.744  0.3189  0.8105  0.0374
  691MOL0     H91159   2.909   2.498   2.582  0.4375 -1.9395 -0.4761
  691MOL0     H91160   2.883   2.612   2.707 -1.1368 -0.0366  0.0656
  691MOL0     H91161   2.774   2.443   2.849  1.8579 -1.8493  0.3389
  691MOL0     H91162   2.697   2.464   2.691  0.1762  0.5776  0.4646
  691MOL0     H91163   2.848   2.217   2.787  0.8573  0.8235  0.5773
  691MOL0     H91164   2.862   2.268   2.619 -0.8736 -1.7136 -0.5516
  691MOL0     H91165   2.523   2.241   2.804 -1.7052 -0.7815  0.3518
  691MOL0     H91166   2.289   2.082   2.571 -2.5401  0.6685  1.6846
  691MOL0     H91167   2.298   2.125   2.739 -0.4612  1.8737 -1.7812
  691MOL0     H91168   2.409   1.872   2.605 -1.6564  2.2929 -2.8302
  691MOL0     H91169   2.256   1.874   2.692  1.8177 -2.8359  0.6759
  691MOL0     H91170   2.523   1.918   2.824 -0.1546  0.5903  0.3137
  691MOL0     H91171   2.369   1.919   2.913  4.2821 -0.9514  3.2790
  691MOL0     H91172   2.464   1.685   2.747  2.5396  3.2218 -1.3619
  691MOL0     H91173   2.308   1.709   2.831 -0.4124  0.2629 -4.0118
  691MOL0     H91174   2.682   1.729   2.780 -0.3577 -0.7725 -0.4007
  691MOL0     H91175   2.921   1.689   2.833  0.4294  2.5422  1.0570
  691MOL0     H91176   3.270   1.506   3.084  2.6004  0.5052 -1.6583
  691MOL0     H91177   3.501   1.486   3.176  0.5500 -0.7355  2.1646
  691MOL0     H91178   3.594   1.739   3.540 -0.6541  5.0852 -2.1027
  691MOL0     H91179   3.610   1.788   3.391 -0.2588  1.6151  3.4411
  691MOL0     H91180   3.842   1.703   3.373 -0.1147  0.4233 -0.1967
  691MOL0     H91181   3.820   1.589   3.513  0.1919  0.2392  2.1744
  691MOL0     H91182   3.820   1.737   3.681  3.7641 -0.3284  1.3589
  691MOL0     H91183   3.814   1.880   3.564  1.8947  0.7908  1.0708
  691MOL0     H91184   4.030   1.672   3.582 -0.0542  0.6730 -0.7425
  691MOL0     H91185   4.015   1.802   3.465 -1.6554 -0.5804 -0.8999
  691MOL0     H91186   4.012   1.869   3.761  0.8574 -3.5844  0.0377
  691MOL0     H91187   4.058   1.981   3.625 -1.6557  0.7108 -0.1282
  691MOL0     H91188   4.248   1.854   3.579 -0.2936  0.4667  0.5670
  691MOL0     H91189   4.204   1.738   3.716 -0.5365  0.2183  1.3592
  691MOL0     H91190   4.271   2.048   3.733  3.3068 -0.0058  1.9125
  691MOL0     H91191   4.233   1.938   3.863  0.8806 -1.3677  1.1996
  691MOL0     H91192   4.446   1.886   3.657  1.4355  1.2026 -0.5107
  691MOL0     H91193   4.441   1.828   3.826 -1.9677  0.0812 -0.9336
  691MOL0     H91194   3.372   1.741   3.502  0.3251  1.6796 -0.8684
  691MOL0     H91195   3.165   1.771   3.394  2.3849  3.0474 -0.3403
  691MOL0     H91196   2.814   1.628   3.242  0.8855 -3.0323 -0.7414
  691MOL0     H91197   2.584   1.634   3.189 -1.6142 -2.4384 -0.7679
  691MOL0     H91198   3.338   2.566   2.874  0.7375 -0.8726  1.3599
  691MOL0     H91199   3.515   2.394   2.868  0.0580 -0.3978  2.1985
  691MOL0     H91200   3.942   2.318   2.563 -2.0902 -1.1156  2.9131
  691MOL0     H91201   4.170   2.219   2.553 -0.3325  0.8788 -0.6450
  691MOL0     H91202   4.408   2.309   2.565  1.3663 -0.3904 -0.1080
  691MOL0     H91203   4.399   2.135   2.582  3.5397 -0.4996 -1.1495
  691MOL0     H91204   4.598   2.124   2.728 -1.6690 -0.7094  0.2351
  691MOL0     H91205   4.613   2.172   2.556 -2.6818  0.1214 -1.7552
  691MOL0     H91206   4.622   2.360   2.800 -1.3392  0.5256 -1.4595
  691MOL0     H91207   4.637   2.414   2.630 -1.0681 -0.7189 -1.1934
  691MOL0     H91208   4.835   2.216   2.739  0.8530 -0.8947 -0.3610
  691MOL0     H91209   4.820   2.295   2.587 -2.8370  1.6895 -0.1589
  691MOL0     H91210   4.998   2.609   2.822  2.8762  0.7319 -3.4639
  691MOL0     H91211   4.241   2.295   2.965 -1.3103 -3.0674  0.2670
  691MOL0     H91212   3.997   2.357   2.979 -0.1527  1.4056 -0.3567
  692MOL0     O91213   3.889  10.423  11.196  0.2849  0.4177  0.0927
  692MOL0     C91214   3.957  10.318  11.223  0.6624  0.9060 -0.0997
  692MOL0     O91215   3.903  10.193  11.263 -0.0425  0.0352 -0.4051
  692MOL0     C91216   3.768  10.171  11.254  0.0294 -1.1230  0.0586
  692MOL0     C91217   3.696  10.119  11.361 -0.1717 -0.0724 -0.5974
  692MOL0     C91218   3.561  10.101  11.340 -0.0794  1.1893  0.5878
  692MOL0     C91219   3.501  10.125  11.218 -0.5806 -0.0582 -0.5076
  692MOL0     O91220   3.371  10.102  11.177  0.3457 -0.4309 -0.8286
  692MOL0     C91221   3.291  10.067  11.284  0.1027  0.7810 -0.0158
  692MOL0     C91222   3.151  10.041  11.222  0.2757  0.2011  0.9666
  692MOL0     C91223   3.072  10.170  11.210 -0.2868  1.1238 -0.1351
  692MOL0     C91224   2.925  10.144  11.179 -0.0641 -0.0427  0.4319
  692MOL0     C91225   2.862  10.270  11.103 -0.6521 -0.9430 -1.0242
  692MOL0     C91226   2.708  10.278  11.128  0.6493  0.4787  0.1906
  692MOL0     C91227   2.650  10.395  11.055  0.1049 -0.2112 -0.4848
  692MOL0     C91228   2.667  10.397  10.903  0.3152  0.2284 -0.8887
  692MOL0     N91229   2.584  10.511  10.857  0.1633  0.6572 -0.3477
  692MOL0     C91230   2.455  10.499  10.834  0.1362  0.3016 -0.8436
  692MOL0     C91231   2.412  10.622  10.804 -0.4336  0.6904  0.2614
  692MOL0     C91232   2.271  10.673  10.782 -0.3268 -0.9063 -0.1661
  692MOL0     C91233   2.172  10.590  10.856 -0.1780 -0.0696 -0.5332
  692MOL0     C91234   2.045  10.666  10.866  0.4304 -0.1782 -0.4876
  692MOL0     C91235   1.965  10.613  10.984  0.1503  0.1316  0.2666
  692MOL0     O91236   1.892  10.490  10.977  0.5318  0.4112 -0.5506
  692MOL0     C91237   1.814  10.456  11.090 -0.0389  0.4331  0.7237
  692MOL0     C91238   1.702  10.370  11.074  0.6484 -0.9046 -0.1153
  692MOL0     C91239   1.621  10.317  11.182 -0.4801  0.3678  0.0137
  692MOL0     C91240   1.640  10.365  11.310 -0.1976  1.2522  0.2609
  692MOL0     C91241   1.540  10.339  11.413 -0.1576 -0.0438 -0.3714
  692MOL0     O91242   1.535  10.437  11.508  0.0095  0.2299  0.7380
  692MOL0     C91243   1.442  10.411  11.600  0.6062 -0.3504  0.0905
  692MOL0     C91244   1.487  10.361  11.717  0.0768 -0.1779 -0.4922
  692MOL0     C91245   1.396  10.332  11.823 -0.1081  1.2529  0.1826
  692MOL0     C91246   1.257  10.352  11.814  0.1388  0.8643 -0.5511
  692MOL0     O91247   1.182  10.316  11.927 -0.4592 -0.0258  0.2176
  692MOL0     C91248   1.042  10.339  11.916  0.5412  0.0586  0.4946
  692MOL0     C91249   0.971  10.281  12.038  0.2586  0.9727  0.5132
  692MOL0     C91250   1.012  10.369  12.160  0.9285 -0.4007 -0.4848
  692MOL0     C91251   0.954  10.320  12.296  0.1176 -0.0547 -0.8439
  692MOL0     C91252   0.809  10.377  12.310  0.2653 -0.1520  0.0011
  692MOL0     C91253   0.795  10.526  12.325 -0.3074 -0.5527  0.9076
  692MOL0     C91254   0.657  10.558  12.385 -0.3882  0.2495  0.1855
  692MOL0     C91255   0.625  10.706  12.376 -0.4593 -0.0926 -0.2672
  692MOL0    Cl91256   0.756  10.806  12.462  0.0329  0.4551  0.1197
  692MOL0     C91257   1.206  10.406  11.693  0.2787  0.2653  1.0464
  692MOL0     C91258   1.302  10.438  11.595  0.2057  0.3571  0.1100
  692MOL0     O91259   1.469  10.243  11.393  0.0205  0.1556 -0.6605
  692MOL0     C91260   1.740  10.455  11.325 -0.5553 -0.6844  0.8421
  692MOL0     C91261   1.824  10.490  11.224  0.6985  0.5441 -0.6679
  692MOL0     N91262   2.519  10.704  10.811 -0.0057  0.3489 -0.2276
  692MOL0     N91263   2.626  10.634  10.835 -0.6848  0.2216  0.3168
  692MOL0     C91264   3.571  10.171  11.118  0.6559  0.0703 -0.1465
  692MOL0     C91265   3.707  10.182  11.125 -0.5804  0.5447 -0.2044
  692MOL0     C91266   4.099  10.337  11.224 -0.2032  0.2683 -0.2160
  692MOL0     C91267   4.158  10.453  11.165 -0.3654  0.5042  0.4845
  692MOL0     C91268   4.302  10.464  11.160  0.0680  0.2685  0.0337
  692MOL0     C91269   4.382  10.369  11.220 -0.6389 -0.3619 -0.2992
  692MOL0     O91270   4.512  10.384  11.226  0.0053 -0.0689 -0.4279
  692MOL0     C91271   4.563  10.337  11.103 -0.3598 -0.5628  0.4809
  692MOL0     C91272   4.713  10.359  11.092 -1.6015  0.3173  0.7009
  692MOL0     C91273   4.782  10.261  11.187 -0.4464 -0.1257  0.9548
  692MOL0     C91274   4.793  10.116  11.129 -0.1929 -0.0435 -0.3538
  692MOL0     C91275   4.909  10.079  11.043 -0.1773 -0.5157 -0.2212
  692MOL0     C91276   5.015  10.082  10.982  0.5506  0.1468 -0.1586
  692MOL0     C91277   4.323  10.252  11.290  0.1429 -0.2949  0.6791
  692MOL0     C91278   4.188  10.239  11.280  0.1611  0.4231  0.0655
  692MOL0     H91279   3.747  10.084  11.450  0.5931 -1.4598 -1.5429
  692MOL0     H91280   3.520  10.048  11.425 -0.2598 -0.2060 -0.3393
  692MOL0     H91281   3.274  10.138  11.365 -1.3991 -0.0468  0.4344
  692MOL0     H91282   3.327   9.971  11.321 -1.0128  0.4180  0.1623
  692MOL0     H91283   3.105   9.968  11.290  0.9367 -2.5035 -1.2927
  692MOL0     H91284   3.161   9.982  11.131 -0.0170  0.1597  0.9586
  692MOL0     H91285   3.125  10.234  11.139  1.0274  0.5017  0.2543
  692MOL0     H91286   3.085  10.210  11.311  1.4936 -2.3944  1.1735
  692MOL0     H91287   2.902  10.052  11.125 -3.9228  0.5312  0.8284
  692MOL0     H91288   2.880  10.128  11.277 -4.2884 -0.7908 -1.4255
  692MOL0     H91289   2.888  10.272  10.997 -2.3729 -0.9173 -1.4794
  692MOL0     H91290   2.887  10.365  11.151 -1.8263 -0.2785 -1.6735
  692MOL0     H91291   2.683  10.285  11.234 -4.7639  2.1394 -0.9139
  692MOL0     H91292   2.657  10.192  11.084 -1.5856  2.0755 -0.5118
  692MOL0     H91293   2.543  10.405  11.077 -0.5144 -1.9736 -2.4731
  692MOL0     H91294   2.700  10.485  11.094  0.2463 -1.8105  3.4916
  692MOL0     H91295   2.637  10.303  10.856 -0.2633 -0.3269  0.5198
  692MOL0     H91296   2.774  10.408  10.883  0.5492  0.9472  0.5646
  692MOL0     H91297   2.394  10.409  10.833  0.5300  0.0206  0.0424
  692MOL0     H91298   2.246  10.662  10.676 -1.0448  2.3858 -0.4550
  692MOL0     H91299   2.258  10.779  10.804  2.5295 -0.2705 -1.1453
  692MOL0     H91300   2.221  10.563  10.950 -0.7405  1.9434  0.3775
  692MOL0     H91301   2.150  10.491  10.815 -0.1707 -0.0475 -0.5908
  692MOL0     H91302   2.055  10.772  10.890 -4.5686 -0.1571  3.1981
  692MOL0     H91303   1.982  10.669  10.777  0.8567 -0.8408 -0.8174
  692MOL0     H91304   1.881  10.681  11.003  0.0080  0.1475 -0.4064
  692MOL0     H91305   2.031  10.624  11.070 -0.6993 -0.0397  0.9582
  692MOL0     H91306   1.678  10.329  10.976 -3.5617 -1.8955  1.1233
  692MOL0     H91307   1.549  10.236  11.172  1.0399 -1.3135  1.8291
  692MOL0     H91308   1.584  10.319  11.744 -0.7670 -1.0486  1.4225
  692MOL0     H91309   1.452  10.286  11.903  2.5216  2.1165 -1.0359
  692MOL0     H91310   1.002  10.299  11.823  2.7986  0.5253 -0.7607
  692MOL0     H91311   1.030  10.447  11.902  1.4843 -0.1546 -2.8879
  692MOL0     H91312   0.991  10.173  12.045  0.0180  0.9529  0.9603
  692MOL0     H91313   0.866  10.300  12.017 -0.1018  0.7787  2.0265
  692MOL0     H91314   0.991  10.472  12.132  1.6576 -0.0355  0.2687
  692MOL0     H91315   1.120  10.355  12.159  0.8199 -1.8546  1.6003
  692MOL0     H91316   0.952  10.211  12.299  1.5846 -0.0959  2.3445
  692MOL0     H91317   1.025  10.345  12.376 -1.4102  1.1206  0.2071
  692MOL0     H91318   0.776  10.319  12.396  0.9984  1.2064  1.2459
  692MOL0     H91319   0.746  10.353  12.224 -4.0606  2.7420  2.0009
  692MOL0     H91320   0.801  10.584  12.232 -0.9308 -1.1279  0.4959
  692MOL0     H91321   0.884  10.555  12.382 -0.5952 -0.0890  1.1288
  692MOL0     H91322   0.576  10.515  12.326 -0.4225 -0.1900  0.5414
  692MOL0     H91323   0.657  10.510  12.484 -1.1250  1.0601  0.5870
  692MOL0     H91324   0.529  10.732  12.422  1.2701  2.5577  2.1922
  692MOL0     H91325   0.619  10.742  12.273 -2.7681  0.7699  0.0971
  692MOL0     H91326   1.103  10.438  11.687  0.0807 -0.5751 -0.7767
  692MOL0     H91327   1.275  10.508  11.517  2.5222 -1.0017 -2.0753
  692MOL0     H91328   1.771  10.500  11.419  2.2330 -0.7547  0.0496
  692MOL0     H91329   1.905  10.559  11.246  1.7111  0.0328 -2.4931
  692MOL0     H91330   3.526  10.184  11.020 -0.8675  1.0117  0.6426
  692MOL0     H91331   3.758  10.217  11.036 -1.4494  2.1678 -0.0971
  692MOL0     H91332   4.087  10.521  11.119  1.3371  1.4865 -0.8120
  692MOL0     H91333   4.333  10.559  11.116 -1.6970 -0.7377 -3.8458
  692MOL0     H91334   4.524  10.387  11.013  1.7275 -0.9832 -0.7137
  692MOL0     H91335   4.536  10.232  11.088 -1.0449 -0.5507  1.4904
  692MOL0     H91336   4.755  10.354  10.992 -1.9223 -2.7269  0.6292
  692MOL0     H91337   4.730  10.461  11.127  0.3419 -0.6358  2.7778
  692MOL0     H91338   4.729  10.257  11.283 -1.5513 -1.0129  0.3242
  692MOL0     H91339   4.886  10.286  11.213 -1.1317  1.9301  1.9838
  692MOL0     H91340   4.796  10.046  11.214 -0.2224 -1.5049 -1.5104
  692MOL0     H91341   4.700  10.092  11.077  0.2514  0.4724 -1.4158
  692MOL0     H91342   5.115  10.102  10.947  0.6983  1.8998  1.0881
  692MOL0     H91343   4.386  10.174  11.331 -1.4545 -1.8883  0.2192
  692MOL0     H91344   4.139  10.151  11.320  2.6047 -1.1722 -0.2347
  693MOL0     O91345   9.606   9.425   9.200 -1.5527  0.0216  0.0664
  693MOL0     C91346   9.690   9.435   9.115 -0.5836 -0.9560 -0.4018
  693MOL0     O91347   9.724   9.558   9.054 -0.7699  0.7643 -0.6563
  693MOL0     C91348   9.641   9.666   9.086 -0.3009  0.3687 -0.4219
  693MOL0     C91349   9.703   9.790   9.125  0.1568  0.2201  0.1255
  693MOL0     C91350   9.616   9.902   9.149  0.5402 -0.0364  0.3470
  693MOL0     C91351   9.484   9.893   9.133  0.4685 -0.3374 -0.2974
  693MOL0     O91352   9.409  10.008   9.162 -0.2443 -0.2019 -0.5459
  693MOL0     C91353   9.276  10.027   9.122  0.3907  0.2400  0.4882
  693MOL0     C91354   9.244  10.179   9.127 -0.3851 -0.1631  0.4353
  693MOL0     C91355   9.100  10.199   9.179  0.3877 -0.0897  0.3592
  693MOL0     C91356   8.986  10.124   9.095  0.5951  0.5311  0.0268
  693MOL0     C91357   8.852  10.185   9.133  0.6492 -0.1187 -0.1297
  693MOL0     C91358   8.803  10.150   9.277  1.0160 -0.9035  0.2764
  693MOL0     C91359   8.669  10.215   9.321 -0.3668  0.5665  0.8479
  693MOL0     C91360   8.680  10.363   9.348 -0.2777 -0.0435  0.3027
  693MOL0     N91361   8.546  10.427   9.384  1.1466  0.6938 -0.1145
  693MOL0     C91362   8.518  10.472   9.516  0.7234  0.4483 -0.1970
  693MOL0     C91363   8.394  10.525   9.508  0.0057  0.4970 -0.6149
  693MOL0     C91364   8.315  10.588   9.624  0.2570  0.6152  0.5966
  693MOL0     C91365   8.217  10.690   9.558 -0.6435  0.4914 -0.1649
  693MOL0     C91366   8.073  10.629   9.543  1.1618  0.5040 -0.3022
  693MOL0     C91367   7.972  10.729   9.509  1.2610 -0.2578  0.3472
  693MOL0     O91368   7.848  10.667   9.466  0.0296  0.3249 -0.3366
  693MOL0     C91369   7.729  10.726   9.488  0.2910  0.1861  0.7004
  693MOL0     C91370   7.703  10.860   9.474  0.4089 -0.8885 -0.1994
  693MOL0     C91371   7.569  10.902   9.499 -0.3890 -0.0376  0.4051
  693MOL0     C91372   7.465  10.814   9.532 -0.5244  0.9471  0.2368
  693MOL0     C91373   7.330  10.863   9.562  0.1837  0.6851 -0.4123
  693MOL0     O91374   7.302  11.001   9.568 -0.3128 -0.1528  0.5005
  693MOL0     C91375   7.185  11.059   9.606  0.1309 -0.7202 -0.2147
  693MOL0     C91376   7.105  11.010   9.709  0.5674 -0.0869  0.2980
  693MOL0     C91377   6.978  11.065   9.743 -0.3051 -0.5009 -0.4473
  693MOL0     C91378   6.950  11.192   9.688  0.5771 -0.1166 -0.7208
  693MOL0     O91379   6.832  11.244   9.733 -0.1085 -0.3229  0.0556
  693MOL0     C91380   6.782  11.357   9.658  0.5362  0.3691  0.3126
  693MOL0     C91381   6.629  11.347   9.676  0.6223 -0.4644 -0.4803
  693MOL0     C91382   6.573  11.228   9.603 -0.1590  0.2893 -0.1488
  693MOL0     C91383   6.425  11.223   9.629 -0.7265 -0.1430  0.3209
  693MOL0     C91384   6.346  11.112   9.559  0.1031  0.3908  0.0956
  693MOL0     C91385   6.433  10.977   9.544  0.2769  0.5074  0.1834
  693MOL0     C91386   6.340  10.855   9.544  0.8505 -0.1190 -0.2871
  693MOL0     C91387   6.417  10.729   9.557  0.1163  0.0006  0.6319
  693MOL0    Cl91388   6.302  10.601   9.543  0.2454  0.0804 -0.4229
  693MOL0     C91389   7.034  11.250   9.593  0.4033 -0.2711 -0.2332
  693MOL0     C91390   7.148  11.180   9.546  0.0758 -0.1573 -0.6193
  693MOL0     O91391   7.241  10.780   9.585  0.4190 -0.7045  0.2962
  693MOL0     C91392   7.495  10.675   9.544 -0.4959 -0.3375 -0.0511
  693MOL0     C91393   7.627  10.632   9.513 -0.3533 -0.5811 -0.2027
  693MOL0     N91394   8.352  10.501   9.380 -0.2267  0.4993 -0.1491
  693MOL0     N91395   8.431  10.447   9.307  0.5866 -0.6570 -0.0107
  693MOL0     C91396   9.426   9.776   9.090 -0.1754 -0.1463 -0.0785
  693MOL0     C91397   9.505   9.665   9.060 -0.0483  0.1956 -1.2377
  693MOL0     C91398   9.777   9.315   9.073 -0.1477  0.2016 -1.0589
  693MOL0     C91399   9.873   9.326   8.971  0.8196 -0.6028  0.4581
  693MOL0     C91400   9.946   9.217   8.934  0.1287  0.3303 -0.4739
  693MOL0     C91401   9.920   9.088   8.986 -0.8375  0.2396 -0.5453
  693MOL0     O91402   9.990   8.974   8.958  0.7269  0.5637 -0.9828
  693MOL0     C91403  10.066   8.974   8.838 -0.9990 -0.2528  0.2616
  693MOL0     C91404  10.158   8.843   8.800  0.8371  0.3137 -1.1232
  693MOL0     C91405  10.108   8.774   8.677 -0.6505 -0.0567 -0.0650
  693MOL0     C91406  10.159   8.628   8.674  0.6664  0.4662  0.4358
  693MOL0     C91407  10.094   8.551   8.567 -0.0158  0.9168 -0.2264
  693MOL0     C91408  10.020   8.487   8.484  0.4970 -0.3755  0.6787
  693MOL0     C91409   9.823   9.075   9.081 -0.1350  0.3325 -0.1870
  693MOL0     C91410   9.755   9.187   9.128 -0.1491  1.1092 -0.6784
  693MOL0     H91411   9.811   9.791   9.126  0.2132 -0.5296 -2.0027
  693MOL0     H91412   9.665   9.997   9.171  1.7543 -0.6823  0.5257
  693MOL0     H91413   9.210   9.980   9.195  1.4054 -0.5107  0.9400
  693MOL0     H91414   9.262   9.985   9.022  0.6849  2.7645 -0.7104
  693MOL0     H91415   9.260  10.227   9.030 -2.1243  1.0158  0.6842
  693MOL0     H91416   9.314  10.223   9.199  0.5916 -1.8477  0.5766
  693MOL0     H91417   9.078  10.306   9.182 -2.4667 -0.5504 -0.6608
  693MOL0     H91418   9.103  10.163   9.282  2.8761 -0.5934  0.1748
  693MOL0     H91419   8.997  10.129   8.987 -1.6122 -0.4604 -0.2988
  693MOL0     H91420   8.996  10.017   9.112 -0.3404  0.5677  0.9429
  693MOL0     H91421   8.778  10.160   9.056  1.9854 -0.5817 -1.3044
  693MOL0     H91422   8.863  10.294   9.131 -1.3738  0.1324  0.3761
  693MOL0     H91423   8.881  10.184   9.346  0.3441 -1.1256  1.1647
  693MOL0     H91424   8.798  10.041   9.278  0.5961 -0.9143  3.0450
  693MOL0     H91425   8.595  10.207   9.241  0.2563  0.7204  0.2459
  693MOL0     H91426   8.633  10.161   9.408  1.4260 -0.2186  1.1541
  693MOL0     H91427   8.721  10.407   9.256 -1.3818 -2.1214 -1.2824
  693MOL0     H91428   8.756  10.368   9.427  0.4567  1.7411 -0.4623
  693MOL0     H91429   8.582  10.463   9.603  1.8615 -1.5312 -1.1532
  693MOL0     H91430   8.389  10.641   9.686  1.2832  2.6840 -2.1564
  693MOL0     H91431   8.265  10.512   9.684 -1.6134  0.3039 -1.2456
  693MOL0     H91432   8.248  10.714   9.456 -2.2518 -1.8185 -1.2783
  693MOL0     H91433   8.216  10.784   9.614  1.8303 -0.8132  2.3416
  693MOL0     H91434   8.067  10.539   9.481 -0.2975  0.2993  0.1103
  693MOL0     H91435   8.044  10.586   9.639 -3.4817 -1.8201 -2.4584
  693MOL0     H91436   8.019  10.789   9.430  1.2866 -0.3270  0.3087
  693MOL0     H91437   7.959  10.808   9.583  0.6484 -0.6169  0.6265
  693MOL0     H91438   7.776  10.939   9.454 -0.2076 -0.8633 -2.7575
  693MOL0     H91439   7.547  11.008   9.492  0.3347  0.1053  0.2413
  693MOL0     H91440   7.142  10.919   9.755  0.9489 -0.0189  0.1251
  693MOL0     H91441   6.918  11.005   9.811  1.3496 -0.2822  1.2950
  693MOL0     H91442   6.798  11.350   9.550 -1.1642  1.2138 -0.0322
  693MOL0     H91443   6.826  11.450   9.696 -2.2068  1.4479  1.1331
  693MOL0     H91444   6.584  11.443   9.649  1.8902  0.7180  1.3623
  693MOL0     H91445   6.598  11.337   9.780  0.5136  0.5159 -0.4066
  693MOL0     H91446   6.634  11.142   9.633  2.1467  2.1140  0.6728
  693MOL0     H91447   6.571  11.246   9.496 -1.4056  0.2398 -0.1456
  693MOL0     H91448   6.410  11.209   9.736 -1.8783 -3.3034 -0.1440
  693MOL0     H91449   6.386  11.324   9.615  0.7883  0.1085 -3.1074
  693MOL0     H91450   6.303  11.151   9.467  1.6984 -0.2178 -0.9596
  693MOL0     H91451   6.270  11.075   9.628  0.5229 -4.5094 -1.6280
  693MOL0     H91452   6.504  10.953   9.623 -1.9039 -0.9231  1.8111
  693MOL0     H91453   6.490  10.978   9.450  0.5711 -1.7464  0.2829
  693MOL0     H91454   6.258  10.856   9.615 -1.8449  0.9996 -3.1913
  693MOL0     H91455   6.290  10.861   9.447 -0.8958 -4.3496  0.1323
  693MOL0     H91456   6.458  10.738   9.658  0.8867  2.1802  0.1644
  693MOL0     H91457   6.492  10.710   9.480 -1.4785  0.6671 -1.1722
  693MOL0     H91458   7.022  11.352   9.559  0.4729  0.1720  1.0089
  693MOL0     H91459   7.210  11.218   9.465 -0.8671 -3.0484 -2.8934
  693MOL0     H91460   7.418  10.600   9.555 -0.1196 -0.5653  1.1200
  693MOL0     H91461   7.654  10.526   9.518  3.5551  0.1064 -2.4799
  693MOL0     H91462   9.318   9.761   9.091 -0.1806 -0.1150  0.6401
  693MOL0     H91463   9.457   9.573   9.026 -1.4869  0.5354 -0.2021
  693MOL0     H91464   9.890   9.426   8.932 -0.4749 -0.7047 -0.4237
  693MOL0     H91465  10.011   9.245   8.852  1.1034 -1.6590 -0.4318
  693MOL0     H91466  10.130   9.063   8.848 -3.0107  1.4439 -1.1432
  693MOL0     H91467  10.005   8.991   8.749  2.1019  1.5579 -1.7290
  693MOL0     H91468  10.259   8.876   8.775  0.9530 -1.7556 -3.7496
  693MOL0     H91469  10.159   8.776   8.886 -1.7805 -1.5532 -2.4259
  693MOL0     H91470  10.135   8.834   8.589 -0.2285  1.4192  1.0372
  693MOL0     H91471  10.000   8.767   8.667 -0.4354  0.0580 -5.1674
  693MOL0     H91472  10.263   8.650   8.649 -0.2190  3.1420 -1.2487
  693MOL0     H91473  10.168   8.571   8.767  2.5103 -2.4154 -1.3250
  693MOL0     H91474   9.951   8.433   8.422 -0.6383 -0.1904  1.7182
  693MOL0     H91475   9.809   8.982   9.134  0.4941 -0.5515 -1.5017
  693MOL0     H91476   9.675   9.189   9.200  0.3070 -0.9426 -0.0576
  694MOL0     O91477   5.443   9.888   4.895 -0.0901  0.3452 -0.0586
  694MOL0     C91478   5.528   9.940   4.968  0.0789 -0.0017  1.1874
  694MOL0     O91479   5.503   9.996   5.092 -0.2396 -0.6966 -0.1237
  694MOL0     C91480   5.377  10.012   5.134  0.7937 -0.5770 -0.2699
  694MOL0     C91481   5.343  10.135   5.203 -0.2875  0.2328 -0.1272
  694MOL0     C91482   5.211  10.165   5.242 -0.2179 -0.4219 -0.5301
  694MOL0     C91483   5.096  10.079   5.221 -0.8458 -0.2909 -0.3428
  694MOL0     O91484   4.964  10.102   5.259 -0.8559  0.1951 -0.6338
  694MOL0     C91485   4.936  10.210   5.346 -0.7573 -0.1030  0.3532
  694MOL0     C91486   4.785  10.222   5.363 -0.4845 -0.0276 -0.4223
  694MOL0     C91487   4.704  10.239   5.234 -0.6918 -0.5064 -0.4219
  694MOL0     C91488   4.554  10.197   5.248  0.5218  0.3064 -0.7103
  694MOL0     C91489   4.464  10.279   5.342 -0.6077  0.7696  0.5375
  694MOL0     C91490   4.320  10.237   5.341 -0.2275 -0.0759  0.1443
  694MOL0     C91491   4.230  10.307   5.447  0.2799  0.5312  0.3243
  694MOL0     C91492   4.086  10.255   5.431  0.6873  0.0054  0.2023
  694MOL0     N91493   3.987  10.363   5.460 -0.4186 -0.5107  0.0684
  694MOL0     C91494   3.944  10.394   5.586  0.2583  0.1719 -0.0327
  694MOL0     C91495   3.879  10.508   5.569  0.9330 -0.1124 -0.0605
  694MOL0     C91496   3.817  10.605   5.673 -0.7306  0.4671 -1.0775
  694MOL0     C91497   3.697  10.569   5.755  0.8950  0.4575 -0.1160
  694MOL0     C91498   3.647  10.685   5.854  0.2285  0.5436 -0.4533
  694MOL0     C91499   3.500  10.674   5.903  0.6669 -0.0058  0.1030
  694MOL0     O91500   3.481  10.769   6.001 -0.0686 -0.0665  0.0895
  694MOL0     C91501   3.359  10.816   6.012  0.3640 -0.9921  0.0880
  694MOL0     C91502   3.337  10.954   6.031  0.3980 -0.5761 -0.3232
  694MOL0     C91503   3.211  10.997   6.059  0.2762  1.2314  0.4138
  694MOL0     C91504   3.104  10.908   6.056 -0.1877  0.2581 -0.2288
  694MOL0     C91505   2.965  10.956   6.064 -0.3319  0.2245  0.6282
  694MOL0     O91506   2.856  10.859   6.059  0.1946  0.4219 -0.1016
  694MOL0     C91507   2.729  10.874   6.100 -0.6392  1.1083  0.6267
  694MOL0     C91508   2.621  10.810   6.036 -0.2932  0.5020 -0.4632
  694MOL0     C91509   2.490  10.820   6.086 -0.4231  0.2682  0.3468
  694MOL0     C91510   2.466  10.910   6.194  0.8572 -0.3371  0.2999
  694MOL0     O91511   2.339  10.941   6.252  0.0286  0.4643  1.0535
  694MOL0     C91512   2.213  10.889   6.179 -0.6475  0.1212 -0.1870
  694MOL0     C91513   2.101  10.896   6.277 -0.4220 -0.0246  0.1686
  694MOL0     C91514   2.121  10.802   6.397 -0.9525 -0.2935 -0.2288
  694MOL0     C91515   2.010  10.823   6.500 -0.3824  0.1653 -0.6136
  694MOL0     C91516   2.037  10.738   6.629  0.2122  1.1529 -0.0299
  694MOL0     C91517   1.910  10.719   6.716  0.1766  0.1212 -0.4528
  694MOL0     C91518   1.807  10.618   6.660  0.3700  0.5145  0.5208
  694MOL0     C91519   1.762  10.514   6.764 -0.0855  0.0651 -0.3179
  694MOL0    Cl91520   1.899  10.404   6.792  0.3283  0.1739 -0.2862
  694MOL0     C91521   2.572  10.970   6.258 -0.1698 -0.8148 -0.0127
  694MOL0     C91522   2.701  10.945   6.216 -0.0710  0.1545 -0.2416
  694MOL0     O91523   2.945  11.077   6.090  0.0148  0.2143  0.7723
  694MOL0     C91524   3.130  10.769   6.029  1.2310 -0.6650  0.6460
  694MOL0     C91525   3.259  10.730   6.011  0.0643  0.5253  0.4533
  694MOL0     N91526   3.876  10.543   5.435 -0.1937 -1.1929 -0.8890
  694MOL0     N91527   3.936  10.452   5.366 -0.0017  0.5373  0.0887
  694MOL0     C91528   5.134   9.955   5.161  0.5243  0.8676  0.2261
  694MOL0     C91529   5.263   9.921   5.125  0.0295 -0.4204 -0.1883
  694MOL0     C91530   5.655   9.967   4.904 -0.2713  0.2898  0.8627
  694MOL0     C91531   5.688   9.907   4.783 -0.3142  0.2111  0.9926
  694MOL0     C91532   5.814   9.927   4.724 -0.5361 -0.1605  0.5831
  694MOL0     C91533   5.910  10.008   4.790  0.1643  0.3425 -0.0717
  694MOL0     O91534   6.037  10.041   4.759 -0.0883  0.5855  0.2090
  694MOL0     C91535   6.086  10.012   4.624  0.5418  0.1065  0.2597
  694MOL0     C91536   6.241  10.011   4.618 -0.2361  0.3001 -0.3042
  694MOL0     C91537   6.299  10.157   4.642  0.2674  1.2706 -0.4006
  694MOL0     C91538   6.271  10.260   4.526 -0.2690 -0.2249 -0.3988
  694MOL0     C91539   6.165  10.363   4.556 -0.3713 -0.2915 -0.6748
  694MOL0     C91540   6.077  10.444   4.564  0.0464  0.5101  0.1428
  694MOL0     C91541   5.868  10.064   4.906  0.5995  0.5799  0.8110
  694MOL0     C91542   5.745  10.050   4.964  0.3250 -0.8296  0.3007
  694MOL0     H91543   5.420  10.210   5.221 -1.8081  1.1441  3.3122
  694MOL0     H91544   5.189  10.252   5.303  0.1013 -1.1120  0.5893
  694MOL0     H91545   4.970  10.303   5.300 -0.1766 -0.2603  0.4499
  694MOL0     H91546   4.977  10.191   5.446 -2.1396  2.8023  1.5757
  694MOL0     H91547   4.771  10.310   5.427  0.6551 -2.1610  3.0522
  694MOL0     H91548   4.750  10.141   5.428  0.9875 -0.2607  0.1202
  694MOL0     H91549   4.745  10.197   5.141  0.0311  0.0975 -0.3852
  694MOL0     H91550   4.709  10.348   5.226 -1.2404  0.1847  4.9553
  694MOL0     H91551   4.520  10.195   5.144 -1.2935 -3.6447 -0.2076
  694MOL0     H91552   4.543  10.092   5.275 -3.3508  0.0860 -2.4040
  694MOL0     H91553   4.477  10.377   5.296 -0.6740  1.2014  1.4049
  694MOL0     H91554   4.508  10.276   5.442  0.6892  0.1466 -0.0272
  694MOL0     H91555   4.309  10.131   5.364  1.2595 -0.1629  0.5334
  694MOL0     H91556   4.280  10.276   5.247 -1.2561  0.6701  0.8654
  694MOL0     H91557   4.263  10.276   5.547  4.7137  0.1394 -1.0336
  694MOL0     H91558   4.228  10.416   5.434 -0.3723  0.7083  1.7264
  694MOL0     H91559   4.055  10.173   5.496  0.5686  0.9998  1.4170
  694MOL0     H91560   4.064  10.227   5.327  0.4577  0.5054  0.1167
  694MOL0     H91561   3.964  10.343   5.680 -0.5155 -2.7198 -1.3307
  694MOL0     H91562   3.781  10.696   5.625 -2.5245  1.8564  2.5264
  694MOL0     H91563   3.891  10.629   5.749  0.4909 -0.7163 -1.8492
  694MOL0     H91564   3.721  10.479   5.812 -2.4329  0.7402  2.0345
  694MOL0     H91565   3.610  10.556   5.690 -0.9548 -1.3115  2.4972
  694MOL0     H91566   3.713  10.682   5.942 -1.3033 -3.7510  0.8086
  694MOL0     H91567   3.653  10.781   5.803 -1.1257  0.6910 -0.3657
  694MOL0     H91568   3.496  10.570   5.934  0.1053  0.5951  2.1722
  694MOL0     H91569   3.427  10.680   5.821 -0.2544  1.3614  0.9773
  694MOL0     H91570   3.410  11.034   6.033  0.9892 -0.9970 -2.5380
  694MOL0     H91571   3.197  11.104   6.068  0.7811  1.3069  0.2983
  694MOL0     H91572   2.642  10.748   5.950  1.8836  3.2250 -2.0630
  694MOL0     H91573   2.412  10.755   6.048  0.3505 -0.9834  0.8398
  694MOL0     H91574   2.235  10.786   6.153 -1.0860  0.1717 -0.7718
  694MOL0     H91575   2.189  10.940   6.085 -0.2778  0.0220 -0.3346
  694MOL0     H91576   2.008  10.867   6.226 -0.3100 -1.6748  0.8346
  694MOL0     H91577   2.084  10.999   6.310  0.7650  1.3313 -3.0106
  694MOL0     H91578   2.218  10.827   6.441  0.5756 -2.1063 -2.3274
  694MOL0     H91579   2.132  10.699   6.363 -2.4994 -1.1738  1.7094
  694MOL0     H91580   2.015  10.928   6.530 -0.7554  0.3713 -1.2651
  694MOL0     H91581   1.910  10.794   6.466 -1.1567 -0.1211  1.7191
  694MOL0     H91582   2.121  10.782   6.683  0.2698 -0.6250  1.4169
  694MOL0     H91583   2.061  10.633   6.607  1.3313  1.5995 -1.0647
  694MOL0     H91584   1.865  10.814   6.746  0.5607  0.1608  0.0097
  694MOL0     H91585   1.954  10.678   6.808 -1.3156  3.4418  1.9744
  694MOL0     H91586   1.718  10.667   6.620 -0.3246 -1.4153 -0.4348
  694MOL0     H91587   1.861  10.569   6.579 -0.7761 -0.6710  0.4296
  694MOL0     H91588   1.676  10.457   6.728 -0.6571  0.3567  0.5446
  694MOL0     H91589   1.738  10.569   6.856 -1.6493  0.4435 -0.9270
  694MOL0     H91590   2.542  11.027   6.345 -0.4145  1.1185 -1.3207
  694MOL0     H91591   2.777  10.990   6.278  1.9027 -0.0118 -2.4024
  694MOL0     H91592   3.050  10.696   6.032 -0.6775  1.3672  1.6962
  694MOL0     H91593   3.274  10.622   6.007  0.6950  0.6323 -3.1963
  694MOL0     H91594   5.056   9.880   5.157  0.0453  1.3897 -0.5684
  694MOL0     H91595   5.285   9.827   5.077  0.6769 -0.5708  0.3791
  694MOL0     H91596   5.620   9.842   4.728  2.9397 -0.7591 -2.3055
  694MOL0     H91597   5.845   9.882   4.630  1.9745 -2.0869  2.2045
  694MOL0     H91598   6.048  10.085   4.553  0.6868 -0.1206 -0.0554
  694MOL0     H91599   6.045   9.915   4.592 -1.8175  1.2207 -0.2767
  694MOL0     H91600   6.279   9.942   4.695  2.1295 -1.1104 -2.5756
  694MOL0     H91601   6.273   9.972   4.521 -0.0724  1.0645 -0.5638
  694MOL0     H91602   6.408  10.142   4.650 -0.0630 -1.9792 -0.7145
  694MOL0     H91603   6.267  10.196   4.739 -1.8499 -3.0256  0.8662
  694MOL0     H91604   6.367  10.300   4.494  1.1348 -2.5651  0.5960
  694MOL0     H91605   6.229  10.205   4.441  0.8161 -0.5327 -0.7521
  694MOL0     H91606   5.993  10.509   4.555 -0.9466 -0.5929  1.0874
  694MOL0     H91607   5.932  10.138   4.953 -0.2471  1.0813  1.2089
  694MOL0     H91608   5.727  10.105   5.056 -1.0654 -1.5865  0.4901
  695MOL0     O91609   9.575   5.290   9.867 -0.0122  1.0505  1.1464
  695MOL0     C91610   9.583   5.232   9.977  0.6093 -0.2411  0.3659
  695MOL0     O91611   9.480   5.232  10.075  0.4719  0.3943 -0.3255
  695MOL0     C91612   9.351   5.280  10.053  0.1676  0.6413 -0.7573
  695MOL0     C91613   9.290   5.316   9.933 -0.5441 -0.3227 -0.0575
  695MOL0     C91614   9.157   5.370   9.939  0.8040  0.3462 -0.5079
  695MOL0     C91615   9.083   5.369  10.056 -0.2711 -1.1951 -0.0775
  695MOL0     O91616   8.949   5.400  10.044 -0.6717 -0.1009  0.2252
  695MOL0     C91617   8.860   5.294  10.073  0.2797  0.1502  0.4201
  695MOL0     C91618   8.764   5.288   9.963  0.1489  0.8614  0.2311
  695MOL0     C91619   8.662   5.175   9.980  0.0623 -0.1874 -0.3652
  695MOL0     C91620   8.573   5.185  10.098 -0.2985  0.3053  0.2443
  695MOL0     C91621   8.441   5.107  10.081 -0.0970  0.2295  0.5126
  695MOL0     C91622   8.338   5.154   9.973  0.5261 -1.1300 -0.1371
  695MOL0     C91623   8.212   5.081   9.982  1.1380 -0.2307 -0.3612
  695MOL0     C91624   8.121   5.140   9.875  0.6509 -0.2779 -0.8551
  695MOL0     N91625   8.064   5.274   9.901  0.3694  0.1454 -0.1180
  695MOL0     C91626   7.968   5.300  10.004  0.3160  0.6642  0.1421
  695MOL0     C91627   7.946   5.437   9.989 -0.1052 -0.0002 -0.2272
  695MOL0     C91628   7.837   5.523  10.054 -0.7977 -0.2390 -0.4119
  695MOL0     C91629   7.707   5.454  10.048 -0.3143  0.0269  0.0376
  695MOL0     C91630   7.638   5.464   9.916  0.9409  0.5779  0.2486
  695MOL0     C91631   7.508   5.379   9.922  0.5831 -0.0252 -0.6215
  695MOL0     O91632   7.443   5.352   9.794 -0.3893  0.3569  0.3332
  695MOL0     C91633   7.329   5.284   9.812  0.3125  0.0521  0.1536
  695MOL0     C91634   7.309   5.164   9.742  0.7322 -0.8781 -0.3021
  695MOL0     C91635   7.188   5.090   9.744  0.5409 -0.0652 -0.0595
  695MOL0     C91636   7.089   5.134   9.833  0.2801  0.2692  0.3866
  695MOL0     C91637   6.965   5.059   9.854  0.7595 -0.1121  0.3037
  695MOL0     O91638   6.871   5.120   9.925 -0.8312  0.4272  0.5529
  695MOL0     C91639   6.744   5.064   9.932  0.0090  0.2832 -0.5955
  695MOL0     C91640   6.649   5.160   9.960 -0.6053  0.5679  0.5973
  695MOL0     C91641   6.517   5.118   9.972  0.0602 -0.1724  0.7864
  695MOL0     C91642   6.478   4.982   9.959  0.1137 -0.5940 -0.3377
  695MOL0     O91643   6.352   4.938   9.987  0.6148  0.2410  0.0759
  695MOL0     C91644   6.232   5.028   9.988  0.7390 -0.4868  0.4525
  695MOL0     C91645   6.108   4.953   9.937 -0.2600  0.0170  0.1038
  695MOL0     C91646   6.105   4.967   9.792 -0.3416 -0.4216 -0.9561
  695MOL0     C91647   6.038   4.851   9.720 -0.1789  0.2358 -0.3361
  695MOL0     C91648   5.999   4.904   9.577 -0.1860  0.8390  0.4251
  695MOL0     C91649   6.121   4.914   9.484  0.5114  0.0803  0.0711
  695MOL0     C91650   6.090   4.992   9.350  0.2059 -0.2697  0.0460
  695MOL0     C91651   6.201   4.961   9.246 -0.6028 -0.9005  0.4557
  695MOL0    Cl91652   6.349   5.055   9.287 -0.1389 -0.4282 -0.0007
  695MOL0     C91653   6.578   4.886   9.945  0.0594 -0.2079 -0.9126
  695MOL0     C91654   6.708   4.925   9.936 -1.1962  0.2493 -0.2277
  695MOL0     O91655   6.957   4.956   9.785  0.2750  0.7200 -0.2319
  695MOL0     C91656   7.105   5.256   9.904 -0.2995 -0.2027  0.2226
  695MOL0     C91657   7.213   5.338   9.878  0.0361 -0.2017 -0.5627
  695MOL0     N91658   8.030   5.485   9.894 -0.5317 -0.1700  0.3001
  695MOL0     N91659   8.092   5.391   9.833  0.2910  0.7209  0.1874
  695MOL0     C91660   9.138   5.324  10.178  0.1712  0.9133  0.1902
  695MOL0     C91661   9.272   5.281  10.174 -0.1265  0.3350  0.4864
  695MOL0     C91662   9.700   5.145  10.004  0.2208  0.7867  1.1397
  695MOL0     C91663   9.728   5.107  10.134  0.6462  0.1408  0.3231
  695MOL0     C91664   9.832   5.019  10.168 -0.5953 -0.6164 -0.4261
  695MOL0     C91665   9.925   4.973  10.070 -0.6861  0.0055 -0.0973
  695MOL0     O91666  10.039   4.897  10.091 -0.4899 -0.6385  0.2687
  695MOL0     C91667  10.063   4.840  10.212 -0.0004  0.0902 -0.7093
  695MOL0     C91668  10.188   4.756  10.199  1.0767 -0.0123 -0.6022
  695MOL0     C91669  10.311   4.829  10.126  0.1539  0.4072  0.1093
  695MOL0     C91670  10.397   4.917  10.220 -0.1092 -0.2915 -0.2171
  695MOL0     C91671  10.455   4.840  10.328 -0.2921 -0.4674 -0.9131
  695MOL0     C91672  10.498   4.778  10.427  0.5408 -0.8037  0.4456
  695MOL0     C91673   9.911   5.029   9.942 -0.2569 -0.3569  0.9638
  695MOL0     C91674   9.801   5.105   9.911  1.2619  0.3480  0.5269
  695MOL0     H91675   9.337   5.326   9.835  3.1503  1.2067  1.6723
  695MOL0     H91676   9.116   5.417   9.850  1.9911 -1.2669 -1.9956
  695MOL0     H91677   8.822   5.307  10.175  0.5876  1.2867  0.4042
  695MOL0     H91678   8.920   5.204  10.088  1.4421  1.1432  2.1189
  695MOL0     H91679   8.830   5.274   9.877  1.2484  1.6695  0.9132
  695MOL0     H91680   8.712   5.384   9.961  1.8410  1.8102 -1.1947
  695MOL0     H91681   8.718   5.082   9.991  2.4229  1.3210  1.1150
  695MOL0     H91682   8.604   5.163   9.887  1.1253  0.1841 -1.0891
  695MOL0     H91683   8.623   5.133  10.181  0.4497  2.7365  1.3899
  695MOL0     H91684   8.542   5.287  10.120 -4.9978 -0.7812 -0.2564
  695MOL0     H91685   8.397   5.118  10.180 -1.3502 -1.6742  0.2098
  695MOL0     H91686   8.462   5.000  10.073  0.6413  0.3251  1.0995
  695MOL0     H91687   8.386   5.158   9.875  0.3649 -0.3381 -0.1893
  695MOL0     H91688   8.317   5.261   9.985 -0.2988 -1.2421 -0.5304
  695MOL0     H91689   8.238   4.975   9.971  1.0324 -0.1051 -2.2282
  695MOL0     H91690   8.173   5.084  10.084 -2.2972  1.1922 -1.5687
  695MOL0     H91691   8.041   5.067   9.856 -1.8440  2.2566 -0.6547
  695MOL0     H91692   8.173   5.157   9.780  0.7804  1.6687 -0.4692
  695MOL0     H91693   7.929   5.224  10.071  0.9688 -1.8264 -2.0937
  695MOL0     H91694   7.832   5.626  10.015  1.4243  0.5763  1.2654
  695MOL0     H91695   7.858   5.540  10.160  2.8378 -2.6741 -0.5888
  695MOL0     H91696   7.639   5.494  10.124 -0.9083 -2.3151  0.8324
  695MOL0     H91697   7.713   5.353  10.090 -2.9998 -0.3768 -0.3231
  695MOL0     H91698   7.608   5.569   9.905 -0.0416  0.2050 -0.9048
  695MOL0     H91699   7.701   5.440   9.830  0.2106 -0.5778  0.0081
  695MOL0     H91700   7.448   5.424  10.002  1.7043  1.4550 -0.5550
  695MOL0     H91701   7.530   5.282   9.967  2.8151  0.3563 -0.7751
  695MOL0     H91702   7.390   5.121   9.683  0.7884  0.8943 -1.5722
  695MOL0     H91703   7.178   4.998   9.688 -2.5423 -1.0328  1.8566
  695MOL0     H91704   6.682   5.261   9.981  4.1481 -1.4185  5.1044
  695MOL0     H91705   6.436   5.185   9.999  0.6106  2.0435 -2.4864
  695MOL0     H91706   6.249   5.121   9.934 -2.3684  1.2513  2.1883
  695MOL0     H91707   6.213   5.059  10.091 -2.1246  0.8235 -0.3804
  695MOL0     H91708   6.017   5.004   9.968  0.3391  0.6059  0.9700
  695MOL0     H91709   6.112   4.847   9.966  0.1037 -1.1483 -3.7418
  695MOL0     H91710   6.208   4.972   9.755  0.3030 -1.2909  0.6560
  695MOL0     H91711   6.054   5.062   9.770  0.8742  0.4870 -0.0270
  695MOL0     H91712   6.095   4.758   9.720 -1.4714 -0.6148  1.2962
  695MOL0     H91713   5.948   4.818   9.772 -0.4543  2.6925  0.8769
  695MOL0     H91714   5.939   4.994   9.588 -2.1189 -0.2096 -1.0437
  695MOL0     H91715   5.929   4.834   9.532 -0.2692  2.3203 -1.9391
  695MOL0     H91716   6.150   4.815   9.447  1.3338  0.0839  0.6797
  695MOL0     H91717   6.208   4.953   9.538 -0.2036 -0.6562  1.8662
  695MOL0     H91718   5.993   4.981   9.301  1.4258 -0.3451 -2.4831
  695MOL0     H91719   6.087   5.099   9.369 -0.7982  0.5993 -4.0150
  695MOL0     H91720   6.171   5.004   9.150  0.2259  2.8004  1.6994
  695MOL0     H91721   6.215   4.854   9.227 -1.8768 -0.6830 -2.1506
  695MOL0     H91722   6.556   4.782   9.966  1.5368 -0.1820  1.2036
  695MOL0     H91723   6.799   4.866   9.932 -0.3588  1.5195 -0.5792
  695MOL0     H91724   7.036   5.306   9.971 -0.0236 -0.7182  0.8990
  695MOL0     H91725   7.212   5.434   9.929 -2.0442 -0.7641  0.5902
  695MOL0     H91726   9.077   5.314  10.267 -1.8976  1.6582 -1.0589
  695MOL0     H91727   9.315   5.240  10.264 -0.9228 -1.7933 -0.0415
  695MOL0     H91728   9.662   5.130  10.217  2.3446 -0.2804  1.8534
  695MOL0     H91729   9.842   5.003  10.275 -1.4907 -0.7810 -0.3614
  695MOL0     H91730   9.978   4.777  10.239  1.1992 -1.4110 -0.2764
  695MOL0     H91731  10.070   4.919  10.287  1.2328  0.3719 -1.0944
  695MOL0     H91732  10.226   4.734  10.300  2.2259 -0.9354 -1.2121
  695MOL0     H91733  10.174   4.666  10.139  1.6532  0.8119 -2.0070
  695MOL0     H91734  10.284   4.874  10.030  2.2727  1.1742 -0.1587
  695MOL0     H91735  10.387   4.759  10.090  1.7930  3.2651 -2.4491
  695MOL0     H91736  10.485   4.955  10.168 -0.7300 -0.0407 -1.1109
  695MOL0     H91737  10.342   5.005  10.253 -0.1785  0.7076 -2.7537
  695MOL0     H91738  10.529   4.733  10.519  2.9951  0.7591  0.4761
  695MOL0     H91739   9.971   5.005   9.854 -2.1602  2.3387 -1.2644
  695MOL0     H91740   9.788   5.128   9.806 -2.7446  1.8552  1.1780
  696MOL0     O91741  10.159   2.208   6.992 -0.4492  0.1143 -0.0978
  696MOL0     C91742  10.222   2.156   7.086  0.1201 -0.0000  0.4877
  696MOL0     O91743  10.169   2.103   7.195  0.8087 -0.0360  0.1267
  696MOL0     C91744  10.028   2.108   7.216 -0.4296  1.3313  0.1153
  696MOL0     C91745   9.951   2.219   7.209  1.4017  1.0870  0.1441
  696MOL0     C91746   9.815   2.214   7.233  0.6686 -0.1797 -0.3114
  696MOL0     C91747   9.754   2.089   7.290 -0.4953 -0.7217  0.7561
  696MOL0     O91748   9.620   2.095   7.314  0.3419 -0.4011 -0.5039
  696MOL0     C91749   9.538   1.984   7.367 -0.3229 -0.4313  0.2504
  696MOL0     C91750   9.442   2.042   7.473  0.9715  0.2153 -1.0766
  696MOL0     C91751   9.338   1.934   7.503 -0.0822 -1.5258  0.3054
  696MOL0     C91752   9.217   1.918   7.407  1.0622 -0.0470 -0.4341
  696MOL0     C91753   9.117   1.803   7.440  0.2866  0.6105  0.1030
  696MOL0     C91754   9.018   1.793   7.320  0.1299  0.0465 -0.5184
  696MOL0     C91755   8.917   1.675   7.328  0.0567  0.7498  0.1285
  696MOL0     C91756   8.965   1.535   7.379 -0.6263 -0.0936  0.0947
  696MOL0     N91757   8.887   1.418   7.331  0.2383 -0.3144 -0.4422
  696MOL0     C91758   8.757   1.436   7.278 -0.7156  0.0883  0.2517
  696MOL0     C91759   8.743   1.339   7.186 -0.3508 -0.7230  0.3315
  696MOL0     C91760   8.627   1.351   7.090 -0.5798 -0.5869 -0.3601
  696MOL0     C91761   8.670   1.467   6.987  0.2954 -0.6725  0.1310
  696MOL0     C91762   8.565   1.581   6.985 -0.8442  0.7094  0.0315
  696MOL0     C91763   8.431   1.532   6.939  0.5137  0.0590 -0.2862
  696MOL0     O91764   8.346   1.457   7.030  0.0042  0.6024  0.4079
  696MOL0     C91765   8.280   1.522   7.132 -0.0810 -1.0320  0.7303
  696MOL0     C91766   8.256   1.658   7.152 -1.0417  0.0556 -0.0977
  696MOL0     C91767   8.183   1.707   7.259  0.0567  0.4442 -0.2933
  696MOL0     C91768   8.103   1.625   7.338 -0.0115 -0.5367 -1.2469
  696MOL0     C91769   8.003   1.681   7.441 -0.1419  0.3896  0.4387
  696MOL0     O91770   7.911   1.597   7.516 -0.2810  0.3758  0.3111
  696MOL0     C91771   7.857   1.624   7.643  0.3441 -1.3071 -0.4316
  696MOL0     C91772   7.906   1.723   7.728 -0.0760 -1.0863 -0.1127
  696MOL0     C91773   7.847   1.747   7.859  0.0865  0.0288 -0.2928
  696MOL0     C91774   7.725   1.675   7.894  0.3186 -0.6297  1.0619
  696MOL0     O91775   7.665   1.717   8.007  1.1058 -0.3782  0.2103
  696MOL0     C91776   7.525   1.748   7.990  0.5399 -0.1094  0.7940
  696MOL0     C91777   7.475   1.802   8.125  1.2499  0.3237 -0.2158
  696MOL0     C91778   7.316   1.800   8.128 -0.7554 -0.9013 -0.3517
  696MOL0     C91779   7.258   1.675   8.196 -0.4116  0.6300 -0.0629
  696MOL0     C91780   7.108   1.695   8.223  0.3870 -0.2973 -0.3375
  696MOL0     C91781   7.069   1.795   8.329 -0.1048 -0.3372  0.0732
  696MOL0     C91782   6.935   1.755   8.397  0.1222  0.0522  0.1893
  696MOL0     C91783   6.839   1.858   8.443 -0.3586  0.0047 -0.8960
  696MOL0    Cl91784   6.778   1.962   8.313  0.0956  0.1015 -0.2309
  696MOL0     C91785   7.684   1.577   7.809 -0.3056  0.6715 -0.0276
  696MOL0     C91786   7.760   1.545   7.695 -1.6637 -0.1787 -0.0936
  696MOL0     O91787   8.006   1.800   7.448 -0.2633  0.5052  0.0073
  696MOL0     C91788   8.130   1.488   7.327  0.3473 -0.2846  0.2588
  696MOL0     C91789   8.213   1.439   7.226  0.3895  0.7755 -0.3052
  696MOL0     N91790   8.850   1.257   7.193 -0.5851  0.0125 -0.1387
  696MOL0     N91791   8.937   1.303   7.277  0.0639  0.5258  0.0335
  696MOL0     C91792   9.846   1.981   7.304  0.4292  0.2733  0.1703
  696MOL0     C91793   9.979   1.993   7.276 -0.2230  0.2870  0.3477
  696MOL0     C91794  10.370   2.142   7.062  0.5599 -0.6602  0.2692
  696MOL0     C91795  10.455   2.120   7.168 -0.2727 -0.0775 -0.0213
  696MOL0     C91796  10.591   2.121   7.140  0.3585 -0.3889  0.1347
  696MOL0     C91797  10.649   2.128   7.017 -0.7556 -0.3087  1.0183
  696MOL0     O91798  10.787   2.137   7.009  0.4812 -0.2114 -0.3880
  696MOL0     C91799  10.848   2.189   6.891 -0.2262  0.9917  0.2605
  696MOL0     C91800  10.998   2.170   6.899 -0.4079 -0.2721 -0.3849
  696MOL0     C91801  11.054   2.292   6.983 -0.2900 -0.0449 -0.1829
  696MOL0     C91802  11.210   2.301   6.964  0.0486 -0.8617  0.5854
  696MOL0     C91803  11.281   2.265   7.084 -0.4328  0.3114 -0.4992
  696MOL0     C91804  11.343   2.244   7.190  0.3249  0.4843  0.1423
  696MOL0     C91805  10.563   2.144   6.909  0.0402 -0.6547 -0.2093
  696MOL0     C91806  10.425   2.145   6.930  0.1085 -0.1454 -1.0990
  696MOL0     H91807   9.987   2.314   7.171  0.6418  1.2515 -0.1785
  696MOL0     H91808   9.749   2.297   7.211  1.2443  0.6275  0.8873
  696MOL0     H91809   9.591   1.897   7.407  0.1148  0.4471  1.6383
  696MOL0     H91810   9.479   1.945   7.284  0.2000 -1.7516  0.4700
  696MOL0     H91811   9.395   2.135   7.439  2.6404  1.9749  1.0800
  696MOL0     H91812   9.495   2.060   7.567  0.2564  0.4329 -0.7135
  696MOL0     H91813   9.293   1.972   7.595 -1.3720  1.0417 -1.2722
  696MOL0     H91814   9.388   1.842   7.534  2.8015 -0.0619  0.3585
  696MOL0     H91815   9.158   2.010   7.411 -0.4417 -0.9978 -0.1689
  696MOL0     H91816   9.260   1.898   7.309  1.0711  0.0384 -0.4480
  696MOL0     H91817   9.061   1.822   7.532  0.6187 -0.5609  0.5572
  696MOL0     H91818   9.177   1.713   7.452 -1.4266 -0.7989 -1.3281
  696MOL0     H91819   9.086   1.794   7.235 -2.6778 -0.1277 -2.9546
  696MOL0     H91820   8.958   1.884   7.305 -0.2753 -0.0167  0.6141
  696MOL0     H91821   8.831   1.702   7.389 -1.8479  0.0103 -2.0779
  696MOL0     H91822   8.895   1.650   7.223  1.2094 -1.6442  0.3903
  696MOL0     H91823   8.948   1.547   7.486 -0.2001 -4.1544  0.7601
  696MOL0     H91824   9.072   1.526   7.356 -0.3441 -0.8695  1.6247
  696MOL0     H91825   8.696   1.525   7.280 -1.1842 -0.2274  0.2619
  696MOL0     H91826   8.537   1.372   7.148 -0.5899 -3.1890  0.7042
  696MOL0     H91827   8.606   1.258   7.036 -0.1216  0.0593 -1.6927
  696MOL0     H91828   8.689   1.436   6.884  1.2326  0.8886 -0.1967
  696MOL0     H91829   8.763   1.508   7.028 -0.5356 -0.4187  1.8406
  696MOL0     H91830   8.559   1.631   7.082  2.4263  1.9660 -0.2880
  696MOL0     H91831   8.598   1.648   6.905  0.5721  0.4522  0.3666
  696MOL0     H91832   8.450   1.471   6.850  0.0452  3.0528 -2.5975
  696MOL0     H91833   8.379   1.623   6.908 -0.2440  0.7498  2.7243
  696MOL0     H91834   8.303   1.737   7.095 -0.8229  2.0827  2.6560
  696MOL0     H91835   8.174   1.815   7.268 -0.7523  0.4061 -0.5708
  696MOL0     H91836   8.004   1.760   7.700  0.1573 -3.0330 -2.1583
  696MOL0     H91837   7.903   1.813   7.925  1.4610  1.3933 -2.6850
  696MOL0     H91838   7.463   1.661   7.965  0.7912 -0.9617  2.9268
  696MOL0     H91839   7.493   1.834   7.932 -1.4068 -1.0755  0.3510
  696MOL0     H91840   7.513   1.904   8.134  2.6480 -0.0425 -1.5613
  696MOL0     H91841   7.507   1.730   8.201 -2.6250 -3.8536 -2.0944
  696MOL0     H91842   7.271   1.823   8.031 -1.7377  0.4116  0.3804
  696MOL0     H91843   7.286   1.892   8.179 -0.1592 -1.2528  0.6610
  696MOL0     H91844   7.264   1.587   8.132  0.9797 -0.1782  1.1307
  696MOL0     H91845   7.308   1.658   8.292  0.5025  1.5627 -0.3554
  696MOL0     H91846   7.079   1.599   8.267 -0.3228 -0.8203 -1.8693
  696MOL0     H91847   7.055   1.703   8.127 -1.0349  0.9635  0.5120
  696MOL0     H91848   7.072   1.901   8.301  1.6501 -0.2567  0.4409
  696MOL0     H91849   7.146   1.803   8.406 -1.6888 -2.1533  1.9440
  696MOL0     H91850   6.881   1.687   8.330 -1.5260  1.9098 -0.4811
  696MOL0     H91851   6.971   1.711   8.490 -1.9817  0.7528  1.4132
  696MOL0     H91852   6.876   1.923   8.523  1.2814 -1.7190 -0.1717
  696MOL0     H91853   6.758   1.808   8.497 -0.4318  2.5680  1.6691
  696MOL0     H91854   7.599   1.513   7.832 -0.0303  0.2322 -0.2249
  696MOL0     H91855   7.719   1.468   7.629  0.5390 -0.5154 -1.1529
  696MOL0     H91856   8.088   1.412   7.391 -0.4461 -0.1761 -0.1171
  696MOL0     H91857   8.224   1.332   7.235 -3.3297  0.4438  3.1285
  696MOL0     H91858   9.812   1.889   7.349 -0.0133  0.8054  0.9451
  696MOL0     H91859  10.049   1.911   7.289  0.6133  0.9706  0.2918
  696MOL0     H91860  10.432   2.109   7.274 -1.2462 -0.5036 -0.2646
  696MOL0     H91861  10.658   2.103   7.223 -1.2359 -1.8901  1.1851
  696MOL0     H91862  10.821   2.294   6.877  2.2905  2.4242  4.1746
  696MOL0     H91863  10.827   2.128   6.804  2.2447 -1.7725  1.4578
  696MOL0     H91864  11.026   2.072   6.939 -2.6851 -0.4516  0.9659
  696MOL0     H91865  11.041   2.177   6.799  2.1184 -0.1039  0.6298
  696MOL0     H91866  11.032   2.275   7.089 -1.0803  3.4091  0.3190
  696MOL0     H91867  11.000   2.384   6.960 -0.5305 -1.1796 -5.5891
  696MOL0     H91868  11.241   2.235   6.883 -1.4342  2.5094 -3.0659
  696MOL0     H91869  11.242   2.401   6.933  3.7796 -1.1262  3.0285
  696MOL0     H91870  11.384   2.230   7.288  2.0342  1.2297 -0.4245
  696MOL0     H91871  10.608   2.173   6.814  0.3232  1.5018  0.5294
  696MOL0     H91872  10.359   2.171   6.848  1.7410  0.1775 -2.3626
  697MOL0     O91873   8.872   3.709  11.133 -0.1424  0.6586  0.4553
  697MOL0     C91874   8.881   3.725  11.251 -0.5091  0.7625  0.0026
  697MOL0     O91875   8.993   3.768  11.316 -0.2233 -0.7725 -0.0658
  697MOL0     C91876   9.103   3.814  11.248  0.2548  0.0138 -0.0594
  697MOL0     C91877   9.229   3.791  11.304 -0.7378  0.7293  0.0003
  697MOL0     C91878   9.350   3.822  11.234  0.2206 -0.2722 -0.4191
  697MOL0     C91879   9.333   3.901  11.119 -0.3252  0.7966 -0.4295
  697MOL0     O91880   9.455   3.942  11.063 -0.0918  0.3277  0.0811
  697MOL0     C91881   9.469   3.923  10.920  0.1351  0.7381 -1.0885
  697MOL0     C91882   9.612   3.971  10.883 -0.3477 -0.0739 -0.7160
  697MOL0     C91883   9.720   3.858  10.901  0.1476 -0.9289  0.4185
  697MOL0     C91884   9.864   3.920  10.879  0.0747 -0.1992  0.2542
  697MOL0     C91885   9.968   3.802  10.870  0.9699 -0.3122 -0.1307
  697MOL0     C91886  10.023   3.783  11.020 -0.0263 -0.4175  0.2983
  697MOL0     C91887  10.139   3.677  11.023  0.0313 -0.0378  0.1277
  697MOL0     C91888  10.189   3.657  11.171  0.3377 -0.1915 -0.6535
  697MOL0     N91889  10.296   3.552  11.167 -0.5920 -0.2888  0.1530
  697MOL0     C91890  10.422   3.564  11.220  0.2631 -0.5730  0.4791
  697MOL0     C91891  10.468   3.439  11.218  0.7759 -0.2536  0.4669
  697MOL0     C91892  10.592   3.369  11.263 -0.1615 -0.7120  0.1995
  697MOL0     C91893  10.661   3.283  11.166  0.5800 -0.4325 -0.2008
  697MOL0     C91894  10.748   3.353  11.054 -0.2708 -0.2941  1.0519
  697MOL0     C91895  10.873   3.429  11.111 -0.3455 -0.3893 -0.4967
  697MOL0     O91896  10.948   3.489  11.001 -0.0198 -0.3781 -0.5707
  697MOL0     C91897  11.045   3.419  10.936 -0.7436  1.3825 -0.2224
  697MOL0     C91898  11.085   3.289  10.964  0.4689  0.7239  0.4025
  697MOL0     C91899  11.184   3.223  10.897 -0.4128  0.1797  0.7648
  697MOL0     C91900  11.267   3.292  10.807  0.2563  0.5284 -0.6202
  697MOL0     C91901  11.373   3.226  10.733  0.1972 -0.1056 -0.5068
  697MOL0     O91902  11.364   3.091  10.734 -0.1444 -0.1824 -0.4038
  697MOL0     C91903  11.467   3.014  10.684 -0.0374 -0.4086 -0.0083
  697MOL0     C91904  11.598   3.026  10.731 -0.7934  0.1931 -1.2682
  697MOL0     C91905  11.696   2.930  10.696 -0.2390 -0.2373 -0.3458
  697MOL0     C91906  11.666   2.828  10.598 -0.5037  0.1823 -0.0668
  697MOL0     O91907  11.758   2.748  10.544  0.1991  0.7363 -0.0422
  697MOL0     C91908  11.855   2.822  10.466 -0.0060 -0.4128  0.1657
  697MOL0     C91909  11.917   2.732  10.360  1.2761  0.2099  1.2575
  697MOL0     C91910  11.833   2.652  10.276  0.2433 -0.7422 -0.0002
  697MOL0     C91911  11.904   2.548  10.205 -0.7880  0.2440  0.7065
  697MOL0     C91912  12.002   2.599  10.088 -0.1832  0.2993 -0.1398
  697MOL0     C91913  11.921   2.633   9.961  0.1111  0.1718 -0.5613
  697MOL0     C91914  12.016   2.683   9.852  0.6389  0.1756  0.2370
  697MOL0     C91915  11.936   2.731   9.726  0.2646  0.9135 -1.3572
  697MOL0    Cl91916  11.824   2.853   9.766  0.0312  0.1071  0.2176
  697MOL0     C91917  11.533   2.825  10.542 -0.6271 -0.1503  0.8005
  697MOL0     C91918  11.437   2.919  10.593  1.1351 -0.0971  0.1228
  697MOL0     O91919  11.449   3.293  10.670 -0.1927 -0.2269  0.3213
  697MOL0     C91920  11.239   3.431  10.790 -0.3838  0.3633  1.1333
  697MOL0     C91921  11.124   3.494  10.848 -0.0790 -0.0012 -0.4131
  697MOL0     N91922  10.366   3.353  11.165  0.9430 -0.0320  0.7956
  697MOL0     N91923  10.264   3.426  11.143 -0.8861  0.3529  0.1976
  697MOL0     C91924   9.214   3.943  11.081  1.0512 -0.1197  0.2608
  697MOL0     C91925   9.093   3.895  11.136 -0.6573  0.1561  0.2664
  697MOL0     C91926   8.756   3.689  11.329 -0.3777  0.2933 -0.0756
  697MOL0     C91927   8.644   3.627  11.274  0.1582  0.4389 -0.4303
  697MOL0     C91928   8.536   3.604  11.352  0.4857  0.5212 -0.1605
  697MOL0     C91929   8.531   3.630  11.485  0.1535 -0.4960  0.1444
  697MOL0     O91930   8.414   3.605  11.562  0.0981 -0.7114 -0.0202
  697MOL0     C91931   8.313   3.531  11.505  0.1149  0.5351 -0.6390
  697MOL0     C91932   8.227   3.479  11.622 -0.2411  0.4940 -0.3242
  697MOL0     C91933   8.100   3.408  11.578  0.1504 -0.1745 -0.7690
  697MOL0     C91934   8.056   3.291  11.677  0.9446 -0.2072 -0.3616
  697MOL0     C91935   8.047   3.338  11.816 -0.6074  0.3123 -0.3265
  697MOL0     C91936   8.039   3.384  11.930  0.2362  0.0033  0.2202
  697MOL0     C91937   8.638   3.694  11.549  0.3216  0.8130 -0.1889
  697MOL0     C91938   8.743   3.723  11.467 -0.5169  0.7223 -0.2184
  697MOL0     H91939   9.240   3.735  11.396  0.1794 -0.3764 -0.7555
  697MOL0     H91940   9.447   3.800  11.279 -0.4552  0.8115  1.6789
  697MOL0     H91941   9.388   3.973  10.867 -1.8566 -2.2475 -1.1212
  697MOL0     H91942   9.456   3.815  10.906 -0.7773  0.8131 -0.8957
  697MOL0     H91943   9.630   4.056  10.948  0.1583 -0.8537  0.1777
  697MOL0     H91944   9.620   4.005  10.779 -2.5225 -0.4592 -1.0545
  697MOL0     H91945   9.695   3.777  10.833 -0.5313  0.2890 -0.8348
  697MOL0     H91946   9.716   3.824  11.005 -0.0400 -0.1963  0.6566
  697MOL0     H91947   9.853   3.992  10.797 -0.8631 -1.5787 -0.8854
  697MOL0     H91948   9.889   3.992  10.957 -0.4481 -0.2120  0.4410
  697MOL0     H91949  10.045   3.828  10.797  2.4779  3.2584  2.4511
  697MOL0     H91950   9.909   3.714  10.844 -1.0470  0.7006  0.7884
  697MOL0     H91951   9.948   3.744  11.090 -1.1309 -1.2583 -1.2799
  697MOL0     H91952  10.050   3.879  11.063 -1.7090  0.4446 -0.4590
  697MOL0     H91953  10.099   3.582  10.987 -2.7530  1.2055 -0.2839
  697MOL0     H91954  10.222   3.709  10.960 -1.5132 -1.7907 -3.0982
  697MOL0     H91955  10.104   3.624  11.230 -1.9408  2.5859 -2.1240
  697MOL0     H91956  10.226   3.746  11.223 -2.1422 -0.3940  1.6819
  697MOL0     H91957  10.470   3.646  11.272  1.6758 -2.2374  1.9475
  697MOL0     H91958  10.545   3.308  11.341 -2.7908  0.1072 -0.6688
  697MOL0     H91959  10.663   3.438  11.311  1.8117 -1.2584 -1.7817
  697MOL0     H91960  10.589   3.220  11.112 -0.5539 -0.8646  1.7017
  697MOL0     H91961  10.709   3.214  11.236  0.2981 -2.6744 -2.1134
  697MOL0     H91962  10.789   3.272  10.992 -1.8382 -0.6300  0.4010
  697MOL0     H91963  10.688   3.422  10.994  2.1279  4.9989  4.0506
  697MOL0     H91964  10.931   3.367  11.180  1.5411  1.6627 -0.0978
  697MOL0     H91965  10.833   3.514  11.168 -1.3600 -0.1892 -1.4835
  697MOL0     H91966  11.028   3.239  11.041  1.5045  1.0872  1.4296
  697MOL0     H91967  11.213   3.119  10.911 -1.2334 -0.4259 -1.5147
  697MOL0     H91968  11.641   3.107  10.789  1.0124 -1.2569 -0.4733
  697MOL0     H91969  11.796   2.924  10.735 -0.6581  2.4730  1.3621
  697MOL0     H91970  11.933   2.869  10.525  0.8773  0.1919 -1.4364
  697MOL0     H91971  11.792   2.904  10.430  1.8379  1.9822  2.0595
  697MOL0     H91972  12.001   2.674  10.400  2.3301  0.9803  0.2460
  697MOL0     H91973  11.966   2.800  10.290 -1.5558 -1.6008 -2.8357
  697MOL0     H91974  11.772   2.704  10.202 -0.8855 -1.2467  0.5462
  697MOL0     H91975  11.755   2.599  10.331 -1.7008  1.2207 -0.7500
  697MOL0     H91976  11.971   2.491  10.270  1.3312  0.4621 -1.1577
  697MOL0     H91977  11.841   2.468  10.165  1.9548 -1.3209 -0.7858
  697MOL0     H91978  12.080   2.525  10.068 -1.4537 -0.2550 -3.6103
  697MOL0     H91979  12.056   2.689  10.121  0.0707 -0.2498  0.9956
  697MOL0     H91980  11.835   2.699   9.971 -1.0541 -1.6724  3.3235
  697MOL0     H91981  11.875   2.536   9.939 -0.4040  0.1155  0.6666
  697MOL0     H91982  12.082   2.757   9.898 -0.2261  0.7027  0.6537
  697MOL0     H91983  12.076   2.600   9.815 -1.3553 -0.6462 -1.3434
  697MOL0     H91984  11.871   2.650   9.690  1.1301  1.2388 -3.8121
  697MOL0     H91985  12.007   2.759   9.648  2.2566  0.1210  0.0906
  697MOL0     H91986  11.513   2.752  10.465 -0.7187  2.7621 -2.1223
  697MOL0     H91987  11.337   2.909  10.552  1.0568 -0.2189  0.3395
  697MOL0     H91988  11.309   3.486  10.727  1.4260 -3.2389 -0.2919
  697MOL0     H91989  11.090   3.593  10.820 -1.2036 -1.2276 -3.9368
  697MOL0     H91990   9.219   4.018  11.003  1.2258  1.8348  2.0944
  697MOL0     H91991   8.994   3.936  11.122  0.6815  3.3052 -1.0403
  697MOL0     H91992   8.653   3.596  11.170  1.7143  1.5378 -0.6438
  697MOL0     H91993   8.459   3.546  11.303  0.3485  0.4907  0.0916
  697MOL0     H91994   8.347   3.445  11.445  1.6323  1.4751 -1.1799
  697MOL0     H91995   8.246   3.594  11.446  0.4295  2.9047  1.4258
  697MOL0     H91996   8.289   3.412  11.682 -1.1228 -1.9485 -2.0053
  697MOL0     H91997   8.194   3.568  11.678 -1.2045 -0.2734  0.3567
  697MOL0     H91998   8.124   3.360  11.483 -1.1753  0.6817 -1.5466
  697MOL0     H91999   8.027   3.488  11.569 -0.3193 -0.4427  0.4087
  697MOL0     H92000   7.962   3.250  11.640 -0.0636 -0.2499  2.0872
  697MOL0     H92001   8.121   3.203  11.678  0.8001 -0.3469  1.9938
  697MOL0     H92002   8.040   3.421  12.031  3.0153 -0.6876  0.5251
  697MOL0     H92003   8.632   3.713  11.655 -1.3254 -0.0352 -0.0918
  697MOL0     H92004   8.826   3.779  11.508 -0.9186  1.9002 -0.9792
  698MOL0     O92005   3.273   0.789   2.749  0.2604  0.9624  0.1471
  698MOL0     C92006   3.349   0.711   2.686 -0.1349 -1.1241 -0.8056
  698MOL0     O92007   3.339   0.580   2.658  0.5783  0.1059 -0.3314
  698MOL0     C92008   3.209   0.529   2.659 -1.6726  0.7519  0.4144
  698MOL0     C92009   3.160   0.466   2.547 -0.5732 -0.0708  0.5861
  698MOL0     C92010   3.038   0.411   2.534 -0.4653  0.0303 -0.2870
  698MOL0     C92011   2.951   0.426   2.641  0.1500 -0.4660 -0.2736
  698MOL0     O92012   2.822   0.377   2.624  0.2804 -0.5597  0.2247
  698MOL0     C92013   2.721   0.401   2.727 -0.4483 -1.0414 -0.9006
  698MOL0     C92014   2.595   0.324   2.706  1.2553 -0.2150  0.2020
  698MOL0     C92015   2.542   0.335   2.560 -0.4640 -0.4905  0.2586
  698MOL0     C92016   2.428   0.232   2.548 -0.4216  0.5162 -0.0967
  698MOL0     C92017   2.289   0.251   2.616 -0.0291 -0.1815 -0.5490
  698MOL0     C92018   2.245   0.400   2.612  0.1993 -0.6816  0.3110
  698MOL0     C92019   2.106   0.423   2.673 -0.6806 -0.7573 -0.0927
  698MOL0     C92020   2.101   0.405   2.821 -1.0466  0.1537 -0.1838
  698MOL0     N92021   1.971   0.426   2.882 -0.4195  0.1839  0.0601
  698MOL0     C92022   1.872   0.496   2.822  0.0947  0.2536  0.2480
  698MOL0     C92023   1.756   0.475   2.895 -0.6172  0.7662  0.0400
  698MOL0     C92024   1.612   0.517   2.851 -1.2225  0.9403 -0.6827
  698MOL0     C92025   1.588   0.669   2.882  0.1390 -0.5529 -0.4560
  698MOL0     C92026   1.565   0.692   3.028 -0.6066 -0.0371 -0.2285
  698MOL0     C92027   1.555   0.845   3.059  0.0640  0.0651 -1.3365
  698MOL0     O92028   1.691   0.903   3.103 -0.1397  0.2439  0.1121
  698MOL0     C92029   1.788   0.904   3.008 -0.6040 -0.7746  0.2060
  698MOL0     C92030   1.915   0.845   3.013 -0.0748 -0.0462  0.3103
  698MOL0     C92031   2.005   0.841   2.904  0.8727  0.3217  0.4891
  698MOL0     C92032   1.956   0.886   2.777  0.0710  0.2445  0.3404
  698MOL0     C92033   2.028   0.854   2.648  0.5024  0.2451 -0.3096
  698MOL0     O92034   2.011   0.935   2.545 -0.4342  0.6973 -0.0960
  698MOL0     C92035   2.068   0.909   2.423  0.6936  0.7280 -0.0202
  698MOL0     C92036   2.194   0.947   2.393 -0.9561 -0.5833  0.0079
  698MOL0     C92037   2.255   0.926   2.264  0.1383  0.8994  0.4561
  698MOL0     C92038   2.196   0.838   2.170  0.4222 -0.9053 -0.6312
  698MOL0     O92039   2.249   0.815   2.043 -0.1750  0.0924 -0.2630
  698MOL0     C92040   2.380   0.759   2.049  0.1735 -0.2232  0.3071
  698MOL0     C92041   2.379   0.613   2.089  0.1612 -0.5539 -0.0897
  698MOL0     C92042   2.506   0.545   2.040 -0.3555  0.7452 -0.1827
  698MOL0     C92043   2.512   0.393   2.066  0.0606  0.6196 -0.1759
  698MOL0     C92044   2.650   0.335   2.051 -0.8653  0.2585  0.3510
  698MOL0     C92045   2.657   0.199   2.115 -0.8153  0.3709 -0.0868
  698MOL0     C92046   2.766   0.100   2.062 -0.4244  0.3599 -0.5035
  698MOL0     C92047   2.901   0.160   2.035  0.4276  0.2184 -0.2184
  698MOL0    Cl92048   2.958   0.232   2.184 -0.0750 -0.2918 -0.3221
  698MOL0     C92049   2.055   0.807   2.203  0.0111 -0.1025  0.5913
  698MOL0     C92050   1.990   0.848   2.329  0.1981 -1.6208 -0.1242
  698MOL0     O92051   2.111   0.767   2.663  0.1685 -0.5273 -0.9433
  698MOL0     C92052   1.833   0.953   2.773  0.1823 -0.0329 -0.9216
  698MOL0     C92053   1.759   0.975   2.889 -0.1515 -0.7243  0.7417
  698MOL0     N92054   1.792   0.381   3.002  1.1340  0.1307 -0.0403
  698MOL0     N92055   1.922   0.351   2.985  0.7111 -0.7867 -0.2717
  698MOL0     C92056   2.993   0.487   2.762 -0.5457  0.2266 -0.9306
  698MOL0     C92057   3.125   0.540   2.772  0.5421  0.0759  0.3192
  698MOL0     C92058   3.479   0.780   2.636 -0.7606  0.6217 -1.0413
  698MOL0     C92059   3.496   0.915   2.650 -0.0682 -0.4480 -0.2685
  698MOL0     C92060   3.603   0.980   2.587 -0.2041 -0.5572  0.2069
  698MOL0     C92061   3.704   0.911   2.528 -0.2591  0.1116 -0.4692
  698MOL0     O92062   3.810   0.981   2.472  0.8326 -0.3219  0.9704
  698MOL0     C92063   3.929   0.990   2.552  0.1474  0.0260 -0.6616
  698MOL0     C92064   3.944   1.101   2.657 -0.2380  0.3947 -1.2980
  698MOL0     C92065   4.086   1.153   2.669 -0.3579  0.1684 -0.3220
  698MOL0     C92066   4.098   1.276   2.768 -0.2129  0.5059 -0.5019
  698MOL0     C92067   4.230   1.339   2.779 -0.6812  0.5898 -0.6134
  698MOL0     C92068   4.333   1.407   2.779 -0.1758 -0.5324 -0.0781
  698MOL0     C92069   3.694   0.769   2.536  0.0133 -0.3097 -0.3008
  698MOL0     C92070   3.575   0.707   2.574 -0.1103  0.5594 -0.2870
  698MOL0     H92071   3.214   0.469   2.453  1.8794 -0.1789  1.9092
  698MOL0     H92072   3.001   0.355   2.449 -3.3017 -0.4863  1.1674
  698MOL0     H92073   2.703   0.508   2.734  0.2981 -0.9944  0.8033
  698MOL0     H92074   2.759   0.369   2.824  1.8269 -1.0696 -1.7566
  698MOL0     H92075   2.523   0.366   2.777  2.3889  0.5394  0.9349
  698MOL0     H92076   2.600   0.218   2.733  3.5157  0.2641  1.8667
  698MOL0     H92077   2.614   0.301   2.485  0.5768 -1.3306  1.5915
  698MOL0     H92078   2.519   0.439   2.534 -0.9832 -0.3933  1.0694
  698MOL0     H92079   2.409   0.232   2.440  1.0338  0.4306 -0.3739
  698MOL0     H92080   2.475   0.136   2.569 -0.2768  0.7254  0.5520
  698MOL0     H92081   2.297   0.211   2.717  3.9617 -0.9115 -0.9697
  698MOL0     H92082   2.218   0.196   2.553  1.1306 -0.0389 -2.0591
  698MOL0     H92083   2.245   0.435   2.508 -2.8687 -2.5206 -0.4383
  698MOL0     H92084   2.316   0.464   2.665  0.3348 -0.8807  0.3692
  698MOL0     H92085   2.086   0.528   2.651  1.8835 -0.2335 -0.2026
  698MOL0     H92086   2.036   0.358   2.619  1.7597 -2.3139 -1.5907
  698MOL0     H92087   2.177   0.474   2.859 -0.4949 -1.5001  1.8630
  698MOL0     H92088   2.143   0.308   2.848 -2.3338  0.0353  1.6013
  698MOL0     H92089   1.887   0.569   2.743  0.0610  2.0681  1.8552
  698MOL0     H92090   1.536   0.452   2.895 -0.1214 -0.3721 -0.6229
  698MOL0     H92091   1.612   0.500   2.742  0.5632 -0.0712 -0.5842
  698MOL0     H92092   1.494   0.704   2.838 -1.1520 -1.8320  1.1601
  698MOL0     H92093   1.672   0.724   2.838  0.3636 -1.8247 -1.6811
  698MOL0     H92094   1.473   0.639   3.053 -2.3117  2.6357 -0.3549
  698MOL0     H92095   1.644   0.654   3.093 -1.9730  0.2982  1.6904
  698MOL0     H92096   1.492   0.852   3.148 -0.4570  1.8883 -1.8087
  698MOL0     H92097   1.496   0.900   2.985 -1.6816  0.7720  0.4929
  698MOL0     H92098   1.949   0.796   3.105  1.2227 -0.9465 -0.6102
  698MOL0     H92099   2.103   0.795   2.906 -0.0273 -1.7221  1.1583
  698MOL0     H92100   2.244   0.995   2.476  1.8976 -1.4204 -1.0980
  698MOL0     H92101   2.359   0.958   2.260  0.8609 -1.3139 -0.4644
  698MOL0     H92102   2.440   0.817   2.119 -0.6856  2.4341 -1.0192
  698MOL0     H92103   2.422   0.783   1.951  1.4584  1.9919  1.3222
  698MOL0     H92104   2.293   0.558   2.050 -0.6405  0.2952  0.4566
  698MOL0     H92105   2.379   0.601   2.198  2.3048 -0.7047 -0.0495
  698MOL0     H92106   2.596   0.601   2.067 -1.3478  1.6826  1.3352
  698MOL0     H92107   2.499   0.544   1.931  0.7058  1.3124 -0.2685
  698MOL0     H92108   2.491   0.374   2.172 -2.3706 -0.1631 -0.7285
  698MOL0     H92109   2.434   0.343   2.008  0.6360 -2.3920  1.4325
  698MOL0     H92110   2.726   0.390   2.107  1.4490 -1.2185 -1.1733
  698MOL0     H92111   2.679   0.323   1.946 -0.9833 -2.1483  0.5495
  698MOL0     H92112   2.557   0.155   2.105  0.4006 -3.0528  1.5190
  698MOL0     H92113   2.672   0.212   2.222  1.7611  3.5110 -0.6471
  698MOL0     H92114   2.779   0.011   2.125  1.0528  0.1315 -1.0825
  698MOL0     H92115   2.739   0.055   1.966 -0.2534 -1.0792  0.0950
  698MOL0     H92116   2.913   0.227   1.950 -0.1749  1.5037  0.6723
  698MOL0     H92117   2.972   0.082   2.007  1.4560  2.2427 -3.8380
  698MOL0     H92118   1.980   0.761   2.139 -2.5169  2.8819  1.1366
  698MOL0     H92119   1.883   0.832   2.340 -0.6108  1.9476 -1.5442
  698MOL0     H92120   1.805   0.989   2.675  1.4301  1.3037 -0.8393
  698MOL0     H92121   1.669   1.035   2.883 -2.9284 -4.6459 -1.6230
  698MOL0     H92122   2.925   0.482   2.847  0.2199 -1.0323 -0.3772
  698MOL0     H92123   3.158   0.572   2.870 -1.0468 -2.0663  1.6333
  698MOL0     H92124   3.426   0.976   2.708  0.6810  2.0901 -1.8672
  698MOL0     H92125   3.612   1.088   2.593 -4.3658  0.3432 -3.9512
  698MOL0     H92126   4.019   0.981   2.489  1.0030  1.2261  0.3364
  698MOL0     H92127   3.937   0.897   2.608  3.0008 -0.4956 -1.7532
  698MOL0     H92128   3.895   1.190   2.618  0.4577  1.1628 -0.4530
  698MOL0     H92129   3.897   1.059   2.746 -2.8015  0.1996 -2.6478
  698MOL0     H92130   4.116   1.198   2.574  2.4916 -0.9541 -0.0668
  698MOL0     H92131   4.154   1.069   2.688  1.2415  1.3081 -0.7396
  698MOL0     H92132   4.024   1.353   2.746  0.6503  1.8007  0.9113
  698MOL0     H92133   4.087   1.233   2.868  2.1101 -0.9129 -0.7714
  698MOL0     H92134   4.422   1.466   2.793 -0.3736 -0.6967  2.3486
  698MOL0     H92135   3.773   0.710   2.492  0.0174 -0.8909  0.4615
  698MOL0     H92136   3.567   0.599   2.565  1.2173  0.4083  0.2004
  699MOL0     O92137   6.928   8.791   8.980 -0.5528 -0.0722 -0.4711
  699MOL0     C92138   6.842   8.831   9.059 -0.8878  0.1108 -0.5943
  699MOL0     O92139   6.861   8.861   9.187 -0.5561 -0.6473 -0.0861
  699MOL0     C92140   6.990   8.829   9.246 -0.3160 -0.5135  0.4100
  699MOL0     C92141   7.081   8.928   9.294 -0.2350 -0.1039 -0.5505
  699MOL0     C92142   7.197   8.887   9.360  0.0208 -0.3862 -0.0663
  699MOL0     C92143   7.221   8.754   9.383  0.1974 -0.4957  0.5759
  699MOL0     O92144   7.335   8.704   9.438  0.5780 -0.7049 -0.5355
  699MOL0     C92145   7.458   8.784   9.450 -0.7028 -0.2585  0.4538
  699MOL0     C92146   7.585   8.697   9.483  0.9867 -0.3776 -0.4822
  699MOL0     C92147   7.695   8.690   9.374  0.5709 -0.2756  0.4616
  699MOL0     C92148   7.818   8.613   9.435 -0.8379  0.3681  0.3374
  699MOL0     C92149   7.924   8.702   9.520  0.7764 -0.2472 -0.7054
  699MOL0     C92150   8.048   8.627   9.555 -0.1659 -0.1411  0.3223
  699MOL0     C92151   8.012   8.487   9.615 -0.1591 -0.3979  0.5169
  699MOL0     C92152   8.133   8.414   9.665 -0.3582  0.3662  0.9827
  699MOL0     N92153   8.077   8.299   9.741 -0.3737  0.4153  0.1030
  699MOL0     C92154   8.034   8.174   9.701 -0.3500  0.2781  0.1068
  699MOL0     C92155   7.988   8.109   9.813  1.1003  0.5246 -0.4256
  699MOL0     C92156   7.929   7.970   9.824  0.1939 -0.5756 -0.5289
  699MOL0     C92157   8.033   7.864   9.857 -0.1535  0.6416  0.1760
  699MOL0     C92158   7.971   7.724   9.824 -0.3790 -0.4973  0.5813
  699MOL0     C92159   7.839   7.686   9.893 -0.2403 -0.0795  0.1764
  699MOL0     O92160   7.771   7.571   9.830 -0.0555 -0.4098 -0.0423
  699MOL0     C92161   7.654   7.527   9.893  0.2806 -0.0014 -0.3222
  699MOL0     C92162   7.584   7.589  10.000 -0.2425 -0.0747  0.3817
  699MOL0     C92163   7.470   7.531  10.057  0.2506  0.1668  0.2901
  699MOL0     C92164   7.430   7.404  10.011 -0.5828  0.8590 -0.0523
  699MOL0     C92165   7.325   7.328  10.089 -0.0319  0.1499 -0.0605
  699MOL0     O92166   7.286   7.211  10.029  0.1647  0.4439 -0.3390
  699MOL0     C92167   7.168   7.141  10.057  0.3209  0.3325 -0.2213
  699MOL0     C92168   7.069   7.168  10.155 -0.1851 -0.0275  0.9881
  699MOL0     C92169   6.951   7.094  10.164 -0.2260 -0.0593 -0.5497
  699MOL0     C92170   6.932   6.986  10.077 -0.0343  0.4549  0.2876
  699MOL0     O92171   6.816   6.909  10.072 -0.1841 -0.0785  0.7386
  699MOL0     C92172   6.744   6.895  10.196 -0.0784 -0.6556 -0.5667
  699MOL0     C92173   6.644   6.779  10.180  0.3209  1.0949 -0.1508
  699MOL0     C92174   6.550   6.798  10.067  0.4891  0.2702 -0.0470
  699MOL0     C92175   6.433   6.903  10.106 -0.1020  0.0689  0.4789
  699MOL0     C92176   6.329   6.888  10.004  0.8062 -0.2833  0.1801
  699MOL0     C92177   6.214   6.989  10.029 -0.2966 -0.2348 -0.5033
  699MOL0     C92178   6.106   6.960   9.921  0.1202  0.6137  0.3032
  699MOL0     C92179   5.992   7.059   9.921 -0.4544  0.4563 -0.5971
  699MOL0    Cl92180   5.903   7.066  10.080  0.2018 -0.1214 -0.4278
  699MOL0     C92181   7.038   6.942   9.997 -0.0488 -0.5147 -0.9444
  699MOL0     C92182   7.151   7.017   9.987 -1.3168 -0.6114  0.2147
  699MOL0     O92183   7.288   7.376  10.189  0.1098  0.5333 -0.2030
  699MOL0     C92184   7.500   7.346   9.904  0.8309  0.0995 -0.0634
  699MOL0     C92185   7.612   7.403   9.843  0.9508 -0.0905  0.1113
  699MOL0     N92186   7.997   8.198   9.919 -0.6430 -0.2468 -0.6267
  699MOL0     N92187   8.050   8.305   9.876  0.3272  0.2198 -0.0593
  699MOL0     C92188   7.130   8.657   9.337  0.2823  0.2775 -0.4066
  699MOL0     C92189   7.018   8.696   9.268  0.1849  0.6069 -0.0059
  699MOL0     C92190   6.708   8.865   9.008 -0.2805  0.7073  0.0747
  699MOL0     C92191   6.596   8.894   9.097  0.8645 -0.3029  0.8869
  699MOL0     C92192   6.474   8.929   9.038 -0.3611 -0.2664 -0.7170
  699MOL0     C92193   6.451   8.942   8.902 -1.6104  0.2595  0.4031
  699MOL0     O92194   6.327   8.969   8.855 -0.1046 -0.1479  1.0443
  699MOL0     C92195   6.296   8.953   8.715 -0.5580 -0.0203 -0.2390
  699MOL0     C92196   6.154   9.008   8.677 -1.3221 -0.7561  1.0228
  699MOL0     C92197   6.043   8.918   8.725 -0.4596 -0.3993  1.1770
  699MOL0     C92198   5.915   8.931   8.642 -0.0415  0.2835  0.0607
  699MOL0     C92199   5.836   9.045   8.683 -0.3308  0.0088  0.3914
  699MOL0     C92200   5.770   9.147   8.715  0.6074  0.4003  0.0496
  699MOL0     C92201   6.558   8.906   8.812 -0.1356  0.3731 -0.9115
  699MOL0     C92202   6.682   8.864   8.866 -0.5893 -0.2908 -0.6401
  699MOL0     H92203   7.058   9.033   9.279  0.6492  0.5047  1.8195
  699MOL0     H92204   7.269   8.961   9.396 -1.5120  1.6017 -0.8893
  699MOL0     H92205   7.452   8.870   9.518  2.0525  2.0238 -1.9265
  699MOL0     H92206   7.477   8.824   9.350  0.1419  2.0166  1.4499
  699MOL0     H92207   7.549   8.601   9.521  1.7015 -0.5417 -0.1941
  699MOL0     H92208   7.634   8.751   9.566  1.2484  0.9428 -1.4522
  699MOL0     H92209   7.716   8.784   9.322  2.6313 -0.9336 -0.0076
  699MOL0     H92210   7.660   8.627   9.291  0.8621 -0.1349  0.2264
  699MOL0     H92211   7.776   8.548   9.513 -1.1438  1.1076  0.8015
  699MOL0     H92212   7.872   8.554   9.361 -0.6177 -1.6232  2.0088
  699MOL0     H92213   7.879   8.732   9.615  1.5089 -1.3530  0.0133
  699MOL0     H92214   7.951   8.795   9.469 -4.4035  0.6887 -2.3578
  699MOL0     H92215   8.110   8.687   9.622  1.1102  0.6618 -1.5008
  699MOL0     H92216   8.091   8.617   9.455 -1.2477  1.8106 -0.3988
  699MOL0     H92217   7.955   8.516   9.704  0.3694  3.0863 -0.1298
  699MOL0     H92218   7.945   8.426   9.554 -1.1887  0.3195  0.9101
  699MOL0     H92219   8.186   8.484   9.730 -1.7550  1.8097  0.6105
  699MOL0     H92220   8.195   8.374   9.584  0.8443  1.4861  1.3141
  699MOL0     H92221   8.058   8.132   9.604 -1.8988 -2.9094  0.9969
  699MOL0     H92222   7.884   7.942   9.729  4.7210  0.0517 -3.1397
  699MOL0     H92223   7.857   7.973   9.907  2.0918 -2.0726  1.2837
  699MOL0     H92224   8.045   7.871   9.966 -1.5364  3.9898  0.2364
  699MOL0     H92225   8.122   7.876   9.794 -1.5738 -0.7487 -2.2636
  699MOL0     H92226   7.957   7.718   9.715 -1.5079  1.6579  0.5549
  699MOL0     H92227   8.040   7.645   9.857  2.2754  1.4024 -0.0219
  699MOL0     H92228   7.769   7.770   9.896 -1.7566 -1.2189  4.7038
  699MOL0     H92229   7.855   7.655   9.997  1.4397  0.0962  0.0010
  699MOL0     H92230   7.612   7.683  10.047  0.5504  0.8925 -1.8489
  699MOL0     H92231   7.435   7.589  10.142 -0.4847  1.7330 -1.0326
  699MOL0     H92232   7.086   7.262  10.206  3.5118 -0.1901  0.3584
  699MOL0     H92233   6.873   7.131  10.230  1.9515 -0.1506  2.2748
  699MOL0     H92234   6.690   6.986  10.222  0.8949 -1.0182  3.2479
  699MOL0     H92235   6.798   6.876  10.289 -2.5550  2.7597  1.8154
  699MOL0     H92236   6.588   6.768  10.274  2.7208  0.3514  1.2792
  699MOL0     H92237   6.702   6.689  10.157  0.5064  0.8483  1.2020
  699MOL0     H92238   6.501   6.703  10.043 -1.6999  0.7112  2.2952
  699MOL0     H92239   6.600   6.835   9.977 -0.6146  0.7104 -0.4984
  699MOL0     H92240   6.387   6.874  10.201 -0.5758 -1.0874 -0.0847
  699MOL0     H92241   6.474   7.004  10.108  1.0682 -0.1250 -3.8781
  699MOL0     H92242   6.297   6.785  10.016 -1.5344  0.4264  0.4662
  699MOL0     H92243   6.357   6.912   9.901  0.3056  0.2286  0.1552
  699MOL0     H92244   6.247   7.093  10.026  0.9170 -0.2605  4.0892
  699MOL0     H92245   6.170   6.968  10.127 -0.3262 -2.7705 -0.9793
  699MOL0     H92246   6.141   6.966   9.817 -0.2858  0.8208  0.1748
  699MOL0     H92247   6.065   6.859   9.926  1.1514  0.0416 -1.7084
  699MOL0     H92248   5.921   7.033   9.842 -1.1445  2.5523 -0.7261
  699MOL0     H92249   6.034   7.158   9.899  0.6125  0.2043  0.2126
  699MOL0     H92250   7.028   6.844   9.952 -3.0183 -1.1931  0.9270
  699MOL0     H92251   7.236   6.977   9.934 -0.8320 -1.6090  1.6723
  699MOL0     H92252   7.462   7.255   9.858 -0.5417 -0.9482  2.8809
  699MOL0     H92253   7.665   7.357   9.760 -2.7886 -3.1998 -0.8534
  699MOL0     H92254   7.145   8.552   9.360  0.9959  0.2282 -1.0538
  699MOL0     H92255   6.962   8.614   9.224  0.7958  0.4375 -0.4741
  699MOL0     H92256   6.614   8.903   9.203 -0.4221 -0.3269  1.1257
  699MOL0     H92257   6.383   8.950   9.092 -0.4368 -1.7495 -0.2179
  699MOL0     H92258   6.306   8.846   8.695 -0.5881  0.1838 -1.4277
  699MOL0     H92259   6.366   9.011   8.653  0.6150 -2.0414 -0.9213
  699MOL0     H92260   6.145   9.113   8.703  1.7194  0.8109 -3.1349
  699MOL0     H92261   6.149   9.010   8.567  1.4990 -5.2787  0.5250
  699MOL0     H92262   6.016   8.951   8.826  2.2269  2.0062  1.2395
  699MOL0     H92263   6.054   8.809   8.729 -1.9136 -0.7090 -1.2731
  699MOL0     H92264   5.953   8.949   8.540 -0.4237  2.2080  0.2110
  699MOL0     H92265   5.858   8.839   8.655  0.9484  0.1412  5.3617
  699MOL0     H92266   5.733   9.240   8.754  0.6958  0.3551  0.2451
  699MOL0     H92267   6.541   8.910   8.705 -1.0076 -2.0788 -0.9226
  699MOL0     H92268   6.768   8.851   8.800 -0.0842  0.2529 -0.1027
  700MOL0     O92269   4.420   4.604   2.499 -0.4909 -0.4001 -0.7609
  700MOL0     C92270   4.427   4.579   2.618  0.4499  0.1779 -0.4513
  700MOL0     O92271   4.333   4.505   2.675  0.7514  0.1484  0.5269
  700MOL0     C92272   4.204   4.493   2.609 -0.2513 -0.6393  0.3316
  700MOL0     C92273   4.087   4.536   2.676 -1.3133  0.3594  0.5271
  700MOL0     C92274   3.960   4.511   2.619 -0.0308 -0.3436 -0.4803
  700MOL0     C92275   3.945   4.455   2.499 -0.1756 -0.3851  0.1377
  700MOL0     O92276   3.820   4.442   2.454  0.6041  0.2536  0.0574
  700MOL0     C92277   3.795   4.415   2.309  0.4042 -0.3065 -0.5551
  700MOL0     C92278   3.646   4.404   2.291  1.9363 -0.1230 -0.7961
  700MOL0     C92279   3.581   4.534   2.343 -0.4369 -0.0145  0.8522
  700MOL0     C92280   3.432   4.518   2.333  0.1961 -0.7838  0.5739
  700MOL0     C92281   3.350   4.653   2.330  0.3938 -0.3558 -0.3184
  700MOL0     C92282   3.218   4.640   2.243 -0.2606  0.9493  0.3645
  700MOL0     C92283   3.135   4.767   2.224 -0.9075 -0.4896 -0.3319
  700MOL0     C92284   3.040   4.741   2.102  0.3183 -0.3461 -0.4119
  700MOL0     N92285   2.938   4.642   2.115  0.1203 -0.0534 -0.4636
  700MOL0     C92286   2.806   4.661   2.149 -0.9255 -0.8489  0.2339
  700MOL0     C92287   2.749   4.536   2.156  0.2612 -0.4224  0.0046
  700MOL0     C92288   2.601   4.491   2.183  0.0391 -0.2172 -0.3975
  700MOL0     C92289   2.565   4.553   2.313 -0.0499 -0.1450  0.1891
  700MOL0     C92290   2.448   4.475   2.383 -0.2744  0.0537  0.7663
  700MOL0     C92291   2.466   4.322   2.380  0.1577  0.1435  0.7541
  700MOL0     O92292   2.435   4.250   2.258  0.0704 -0.0392 -0.1361
  700MOL0     C92293   2.318   4.188   2.253 -0.2055  0.1404 -0.6638
  700MOL0     C92294   2.204   4.255   2.213  0.2064 -0.1578  0.2231
  700MOL0     C92295   2.073   4.189   2.224  0.0265 -0.6253  0.1032
  700MOL0     C92296   2.071   4.058   2.259  0.1631  0.3586  0.1571
  700MOL0     C92297   1.941   3.987   2.274  0.0789  0.0158  0.4957
  700MOL0     O92298   1.829   4.065   2.266  0.0300  0.3516 -0.4138
  700MOL0     C92299   1.699   4.016   2.295 -0.0854 -0.9764 -0.0118
  700MOL0     C92300   1.649   3.886   2.314 -0.6491  1.4572  0.6026
  700MOL0     C92301   1.514   3.858   2.348  0.3864  0.8469  0.7774
  700MOL0     C92302   1.420   3.956   2.368 -1.2281 -0.0569  0.2633
  700MOL0     O92303   1.292   3.919   2.399 -0.3578  0.7761  0.0878
  700MOL0     C92304   1.198   4.024   2.412 -0.4120 -0.8855 -0.4789
  700MOL0     C92305   1.061   3.986   2.459  1.3072 -0.0338 -0.5518
  700MOL0     C92306   1.003   3.870   2.391  0.7418  0.4892 -0.8100
  700MOL0     C92307   0.855   3.857   2.429 -0.1941  0.7738  0.5102
  700MOL0     C92308   0.784   3.745   2.346 -0.1965  0.3738  1.1478
  700MOL0     C92309   0.739   3.787   2.199 -0.0755  0.8726 -0.0699
  700MOL0     C92310   0.654   3.685   2.125 -0.1412 -0.1571 -1.0512
  700MOL0     C92311   0.543   3.616   2.221  0.1277  0.3719 -0.8905
  700MOL0    Cl92312   0.415   3.547   2.126 -0.0843 -0.0501 -0.7386
  700MOL0     C92313   1.468   4.082   2.334 -0.4047 -0.1625 -0.7303
  700MOL0     C92314   1.596   4.113   2.294 -0.4887  0.4018 -0.3536
  700MOL0     O92315   1.949   3.879   2.315  0.0503 -0.0869  0.4962
  700MOL0     C92316   2.190   3.988   2.287 -0.2647 -0.3040  0.0067
  700MOL0     C92317   2.314   4.058   2.283  0.5861  0.4671  0.6496
  700MOL0     N92318   2.842   4.449   2.112 -0.5933 -0.1011 -0.1656
  700MOL0     N92319   2.952   4.509   2.098 -0.4304 -0.0429  0.2848
  700MOL0     C92320   4.056   4.422   2.425 -0.9315 -0.0611 -0.1324
  700MOL0     C92321   4.187   4.439   2.479 -1.0361  0.6091 -0.3629
  700MOL0     C92322   4.549   4.612   2.695 -1.1733 -0.1197  0.1491
  700MOL0     C92323   4.562   4.581   2.833 -0.6174  0.8595 -0.5268
  700MOL0     C92324   4.687   4.589   2.903  0.2110 -1.0761 -0.9448
  700MOL0     C92325   4.795   4.656   2.838  0.5451 -0.3667  0.1429
  700MOL0     O92326   4.920   4.672   2.886 -1.4059 -0.5990  0.4057
  700MOL0     C92327   4.970   4.588   2.991  0.4522  0.4485  0.1012
  700MOL0     C92328   5.124   4.599   2.991 -0.1641 -0.0067  0.5446
  700MOL0     C92329   5.204   4.494   3.079 -0.5331 -0.2088 -0.1239
  700MOL0     C92330   5.225   4.526   3.227  0.9123  0.3257 -0.3474
  700MOL0     C92331   5.112   4.591   3.299 -0.9243 -0.2306  0.0340
  700MOL0     C92332   5.027   4.651   3.356  0.2319  0.1497  0.3385
  700MOL0     C92333   4.782   4.698   2.709 -0.1692  1.0164 -0.5293
  700MOL0     C92334   4.663   4.673   2.643  0.6767  0.5274  0.1367
  700MOL0     H92335   4.100   4.584   2.772  0.2716 -1.9551  1.5580
  700MOL0     H92336   3.869   4.528   2.676  0.6506 -1.3356  0.9854
  700MOL0     H92337   3.847   4.325   2.275  0.1823 -0.0958 -1.5015
  700MOL0     H92338   3.831   4.505   2.258 -0.0212  1.2080  1.6609
  700MOL0     H92339   3.605   4.313   2.336 -2.1813  0.3505 -3.1359
  700MOL0     H92340   3.633   4.389   2.184 -1.7372  0.4729 -0.5423
  700MOL0     H92341   3.624   4.607   2.275 -2.1617  0.3864  0.1455
  700MOL0     H92342   3.601   4.559   2.448  3.2692  0.7843  0.1133
  700MOL0     H92343   3.415   4.476   2.234 -1.3241  2.7634 -0.8530
  700MOL0     H92344   3.399   4.443   2.405  2.3584 -0.7257  1.6956
  700MOL0     H92345   3.422   4.728   2.294  1.9880 -1.0901  1.2411
  700MOL0     H92346   3.312   4.693   2.425 -0.2360  2.2091 -1.5395
  700MOL0     H92347   3.155   4.561   2.285  1.6730 -0.4307  0.8061
  700MOL0     H92348   3.253   4.603   2.146 -0.7286  2.4673 -0.4199
  700MOL0     H92349   3.074   4.787   2.312  3.2110 -0.6143  2.9017
  700MOL0     H92350   3.187   4.858   2.194 -2.5657  1.3533  2.0742
  700MOL0     H92351   3.100   4.725   2.011 -0.4510  1.8242 -1.3783
  700MOL0     H92352   2.994   4.840   2.091  2.0835  0.4219 -1.4513
  700MOL0     H92353   2.752   4.755   2.150  0.3433 -0.0990 -0.3061
  700MOL0     H92354   2.599   4.382   2.178 -1.6023 -0.1983 -0.7993
  700MOL0     H92355   2.528   4.539   2.116  1.7108  0.9863 -1.4434
  700MOL0     H92356   2.531   4.656   2.296 -4.9908 -0.5303  4.8733
  700MOL0     H92357   2.647   4.564   2.384  0.7153 -3.6258  0.0392
  700MOL0     H92358   2.429   4.503   2.488  1.0027  0.2634  0.9535
  700MOL0     H92359   2.356   4.504   2.332 -0.8175 -1.9662  0.5167
  700MOL0     H92360   2.404   4.282   2.461 -1.5230  1.0657 -0.0152
  700MOL0     H92361   2.570   4.302   2.407 -0.4149 -0.3046  2.7868
  700MOL0     H92362   2.220   4.360   2.189  1.8834 -0.6526 -1.0327
  700MOL0     H92363   1.988   4.253   2.204  0.8399  0.5134  0.2038
  700MOL0     H92364   1.727   3.811   2.303  1.5712  3.7326 -0.3261
  700MOL0     H92365   1.482   3.755   2.362  1.2865  0.6292  1.3307
  700MOL0     H92366   1.180   4.086   2.324 -1.5276  1.4632  1.2943
  700MOL0     H92367   1.240   4.097   2.483 -0.1230  0.9376 -2.4251
  700MOL0     H92368   0.995   4.073   2.448  1.2105 -0.3089 -2.4610
  700MOL0     H92369   1.066   3.956   2.564 -0.6754  0.1807 -0.3585
  700MOL0     H92370   1.057   3.777   2.414  1.6730  1.1911 -0.0321
  700MOL0     H92371   1.014   3.883   2.283  0.0251 -0.7244 -1.0472
  700MOL0     H92372   0.861   3.833   2.535  1.2207  0.2760  0.3378
  700MOL0     H92373   0.800   3.949   2.407  0.9262  1.5961  1.0825
  700MOL0     H92374   0.697   3.727   2.411 -0.6802 -1.5831  0.0400
  700MOL0     H92375   0.846   3.656   2.335  2.1203  2.0027  0.4380
  700MOL0     H92376   0.823   3.808   2.134 -0.8760 -0.1907 -1.5038
  700MOL0     H92377   0.682   3.880   2.205 -0.7437  0.3992  2.2141
  700MOL0     H92378   0.599   3.752   2.058  0.4126  1.9496  0.4943
  700MOL0     H92379   0.709   3.609   2.068  3.8421  0.6863  1.2582
  700MOL0     H92380   0.495   3.697   2.277  3.0936  1.9204 -0.3706
  700MOL0     H92381   0.596   3.543   2.283  3.3819  3.4489  0.2715
  700MOL0     H92382   1.413   4.176   2.342 -1.3337 -0.5485 -2.1292
  700MOL0     H92383   1.625   4.214   2.266  0.0510  1.0136  2.1142
  700MOL0     H92384   2.183   3.883   2.313  1.8315 -0.1819  1.3461
  700MOL0     H92385   2.409   4.017   2.315  0.1227  0.2957  1.8411
  700MOL0     H92386   4.061   4.384   2.323  3.0626  0.0072 -0.1174
  700MOL0     H92387   4.266   4.406   2.412  0.3809 -3.4705  2.8990
  700MOL0     H92388   4.477   4.526   2.872 -0.2018 -0.5105 -1.5051
  700MOL0     H92389   4.682   4.556   3.006 -3.5306  4.1635  0.9973
  700MOL0     H92390   4.924   4.491   2.973 -3.4124  2.0718  0.2249
  700MOL0     H92391   4.929   4.617   3.088  0.6014  1.1962 -0.0494
  700MOL0     H92392   5.152   4.590   2.886 -0.9116 -1.5087  0.4616
  700MOL0     H92393   5.138   4.703   3.023 -0.2100  0.4553 -0.8789
  700MOL0     H92394   5.300   4.479   3.030 -0.9747  2.4325 -1.9830
  700MOL0     H92395   5.149   4.399   3.073 -1.1993  0.1536  0.1493
  700MOL0     H92396   5.241   4.431   3.279  1.6642  0.3533 -0.5135
  700MOL0     H92397   5.317   4.584   3.233  1.3242 -0.2540 -0.8174
  700MOL0     H92398   4.948   4.704   3.405  0.2487 -0.2741  0.8438
  700MOL0     H92399   4.873   4.738   2.666  1.1015 -0.3545  0.7591
  700MOL0     H92400   4.670   4.713   2.542  0.2631  2.6551  0.9018
  701MOL0     O92401   4.186   0.146   6.552 -0.1613  0.0552 -0.5089
  701MOL0     C92402   4.117   0.248   6.551  0.5723  0.2600  0.0565
  701MOL0     O92403   4.152   0.365   6.508  0.4752 -0.3125 -0.0713
  701MOL0     C92404   4.274   0.398   6.451  0.5580 -0.6087  0.4351
  701MOL0     C92405   4.279   0.426   6.315  0.1430  0.5859  0.5807
  701MOL0     C92406   4.407   0.440   6.257  0.1856  0.1791  0.5914
  701MOL0     C92407   4.528   0.439   6.333 -0.3838  0.1278 -0.3261
  701MOL0     O92408   4.644   0.458   6.275 -0.0559 -0.2201 -0.7130
  701MOL0     C92409   4.766   0.410   6.331 -0.3238 -0.0837 -0.4711
  701MOL0     C92410   4.841   0.344   6.220 -0.3919  0.1766 -0.2378
  701MOL0     C92411   4.971   0.294   6.280  0.0124 -0.2266  0.3423
  701MOL0     C92412   5.052   0.224   6.165 -0.5939  0.2001 -1.5801
  701MOL0     C92413   5.187   0.172   6.219  0.2886 -0.6452 -0.5590
  701MOL0     C92414   5.193   0.067   6.336 -0.1010  0.1311 -0.0811
  701MOL0     C92415   5.335   0.009   6.352 -0.2605  0.6835 -0.1052
  701MOL0     C92416   5.338  -0.112   6.448  0.2876  0.3326  0.3030
  701MOL0     N92417   5.272  -0.087   6.577  0.1993 -0.2993  0.0385
  701MOL0     C92418   5.308   0.010   6.673  0.6627  0.1343 -0.3152
  701MOL0     C92419   5.212  -0.004   6.768 -1.0286 -0.6517 -0.1760
  701MOL0     C92420   5.181   0.082   6.896  0.9404  0.7165 -1.2676
  701MOL0     C92421   5.294   0.089   7.003  0.4202  0.4088  0.3867
  701MOL0     C92422   5.269   0.218   7.083  0.0496  0.3798  0.1054
  701MOL0     C92423   5.153   0.208   7.184 -0.0511 -0.9627 -0.3496
  701MOL0     O92424   5.112   0.341   7.228 -0.0816 -1.1345 -0.0720
  701MOL0     C92425   5.006   0.344   7.308 -0.2177 -0.5075 -0.0946
  701MOL0     C92426   4.941   0.236   7.376 -0.3971  0.0643 -0.4142
  701MOL0     C92427   4.840   0.263   7.474  0.1840 -0.6855  0.8048
  701MOL0     C92428   4.789   0.395   7.496  0.5182  0.5594  0.5635
  701MOL0     C92429   4.683   0.405   7.593  0.1136  0.2672  0.3894
  701MOL0     O92430   4.673   0.312   7.703  0.0694  0.3804  1.0019
  701MOL0     C92431   4.571   0.324   7.794  0.3142  0.3493 -0.1121
  701MOL0     C92432   4.522   0.206   7.855 -0.1651 -0.9931  0.5309
  701MOL0     C92433   4.433   0.211   7.954  0.1819 -0.0752  0.1659
  701MOL0     C92434   4.367   0.333   7.988 -0.3384 -0.0832 -0.4892
  701MOL0     O92435   4.276   0.348   8.093  0.2830 -0.7266  0.6341
  701MOL0     C92436   4.170   0.249   8.088 -0.3638 -0.5578 -0.5583
  701MOL0     C92437   4.059   0.299   8.182 -0.1263 -0.2306  0.2594
  701MOL0     C92438   3.956   0.198   8.212 -0.1770 -0.2605  0.2279
  701MOL0     C92439   3.819   0.263   8.237 -0.9165  0.5615 -0.7379
  701MOL0     C92440   3.712   0.163   8.275  0.4364  0.0391 -0.5408
  701MOL0     C92441   3.586   0.235   8.345 -0.8968  0.3011  0.5132
  701MOL0     C92442   3.460   0.234   8.255  0.2935 -0.4516  0.7755
  701MOL0     C92443   3.347   0.303   8.314  0.0284  0.4102 -0.8438
  701MOL0    Cl92444   3.201   0.253   8.201 -0.3592 -0.2314  0.0243
  701MOL0     C92445   4.399   0.451   7.928  0.0472  0.0504 -0.0264
  701MOL0     C92446   4.506   0.442   7.831  0.0846 -0.2643 -0.4335
  701MOL0     O92447   4.606   0.492   7.565  0.9339  0.5840 -0.0483
  701MOL0     C92448   4.838   0.501   7.423 -0.0035  0.0761  0.2622
  701MOL0     C92449   4.951   0.474   7.328 -0.3859 -0.4207 -0.7593
  701MOL0     N92450   5.128  -0.104   6.726 -0.8947  0.7807  0.9562
  701MOL0     N92451   5.173  -0.164   6.621 -0.3454 -1.0423  0.6496
  701MOL0     C92452   4.518   0.427   6.470 -0.7207 -0.3613 -0.4005
  701MOL0     C92453   4.389   0.403   6.531 -0.4912  0.0847  0.6639
  701MOL0     C92454   3.976   0.223   6.601 -0.0110  0.4617 -0.1517
  701MOL0     C92455   3.882   0.315   6.606 -0.1393 -0.1022  0.3934
  701MOL0     C92456   3.746   0.284   6.632 -0.1589  0.3455  0.9480
  701MOL0     C92457   3.702   0.159   6.659 -0.0820 -0.0557 -0.4966
  701MOL0     O92458   3.565   0.137   6.677  0.4999  0.6717 -0.2518
  701MOL0     C92459   3.525   0.017   6.750 -0.0735 -0.3956  0.3496
  701MOL0     C92460   3.387   0.058   6.806  0.5308 -0.1363  0.4248
  701MOL0     C92461   3.309  -0.049   6.871 -0.4157  0.0395 -0.9081
  701MOL0     C92462   3.172   0.003   6.888 -0.3478  1.0069  0.3007
  701MOL0     C92463   3.173   0.121   6.979  0.2865 -0.2302 -0.4427
  701MOL0     C92464   3.151   0.213   7.049  0.4242  0.4016 -0.5570
  701MOL0     C92465   3.801   0.063   6.667 -0.5050  0.4581 -0.0902
  701MOL0     C92466   3.939   0.092   6.632  0.1747  0.3518 -0.8182
  701MOL0     H92467   4.191   0.431   6.253 -0.4227  0.4410  1.3570
  701MOL0     H92468   4.396   0.446   6.149  1.0532  0.8342  0.5248
  701MOL0     H92469   4.756   0.341   6.415 -2.6893  3.6335  2.5993
  701MOL0     H92470   4.820   0.495   6.373  0.2287 -0.2008 -0.9193
  701MOL0     H92471   4.867   0.400   6.129  1.5665  0.8030  0.6670
  701MOL0     H92472   4.781   0.264   6.176 -1.3909  0.6981  0.1411
  701MOL0     H92473   4.947   0.232   6.366 -4.4825  2.3782  1.2738
  701MOL0     H92474   5.042   0.370   6.315  1.8371 -1.7609  0.1777
  701MOL0     H92475   4.997   0.135   6.133 -0.6641  1.4762 -5.4917
  701MOL0     H92476   5.056   0.267   6.065 -0.1566 -2.2003 -2.6764
  701MOL0     H92477   5.247   0.260   6.247  1.7144 -1.7733  0.0959
  701MOL0     H92478   5.228   0.112   6.138 -3.4285 -1.1097 -2.2799
  701MOL0     H92479   5.124  -0.013   6.308 -2.1190  1.2985  1.2243
  701MOL0     H92480   5.161   0.114   6.429 -1.2399 -0.1417 -0.3205
  701MOL0     H92481   5.384  -0.014   6.257 -2.1063  1.1281 -1.2228
  701MOL0     H92482   5.397   0.079   6.409  0.0045  0.7706 -0.4974
  701MOL0     H92483   5.443  -0.137   6.466  0.6596  2.5326  1.5806
  701MOL0     H92484   5.297  -0.204   6.406  0.7304  0.2186  0.1225
  701MOL0     H92485   5.384   0.086   6.658 -0.1842  1.3640  1.3075
  701MOL0     H92486   5.094   0.037   6.944  1.7034 -2.0748 -2.2959
  701MOL0     H92487   5.169   0.187   6.866  0.6293  0.9739 -0.2845
  701MOL0     H92488   5.392   0.109   6.959 -0.2890  1.4292 -0.7969
  701MOL0     H92489   5.309   0.004   7.070 -0.8193 -0.0644  0.0821
  701MOL0     H92490   5.361   0.234   7.140  0.0910  0.2638  0.0707
  701MOL0     H92491   5.240   0.304   7.023 -3.4386 -1.2946 -0.9111
  701MOL0     H92492   5.185   0.150   7.271  0.3946 -0.2918 -0.0579
  701MOL0     H92493   5.078   0.155   7.123 -1.0724 -0.9527  0.8645
  701MOL0     H92494   4.966   0.131   7.363 -0.1774  0.2201 -1.2487
  701MOL0     H92495   4.804   0.173   7.523 -1.1516  0.3150  1.7375
  701MOL0     H92496   4.557   0.103   7.845 -2.6480 -1.7648 -1.5519
  701MOL0     H92497   4.399   0.115   7.993 -0.0332 -1.4323 -2.9992
  701MOL0     H92498   4.215   0.157   8.127  0.6518  0.0556 -0.2232
  701MOL0     H92499   4.123   0.239   7.990 -0.4565  2.5626 -0.9142
  701MOL0     H92500   4.024   0.391   8.134 -1.2110 -0.5563  0.4048
  701MOL0     H92501   4.106   0.311   8.281  3.1510 -0.7552 -1.0988
  701MOL0     H92502   3.997   0.129   8.285  0.9283 -0.2003 -0.3198
  701MOL0     H92503   3.942   0.145   8.118  1.8358 -1.0044  0.3079
  701MOL0     H92504   3.831   0.338   8.316 -1.7428 -1.4721  1.4321
  701MOL0     H92505   3.785   0.311   8.145 -0.6842  0.2478 -0.9916
  701MOL0     H92506   3.755   0.091   8.346  2.1057  1.6672  0.1685
  701MOL0     H92507   3.682   0.094   8.195  0.1907 -0.4075 -0.0727
  701MOL0     H92508   3.607   0.343   8.349  0.5071  0.0099  1.5998
  701MOL0     H92509   3.571   0.186   8.441  3.0549  1.2275  1.8096
  701MOL0     H92510   3.491   0.289   8.166 -0.5518  1.2572  1.4936
  701MOL0     H92511   3.423   0.133   8.233 -0.7133 -0.2457  1.4474
  701MOL0     H92512   3.359   0.411   8.312  0.9918  0.3014 -1.4901
  701MOL0     H92513   3.328   0.270   8.416  0.7688 -1.0577 -1.1459
  701MOL0     H92514   4.376   0.553   7.958 -0.1696 -0.8551  3.2812
  701MOL0     H92515   4.532   0.533   7.778 -3.2212  0.6952 -0.6172
  701MOL0     H92516   4.792   0.599   7.427  0.9916  0.5635  0.0371
  701MOL0     H92517   5.000   0.558   7.281  0.9895  0.0453  1.3461
  701MOL0     H92518   4.604   0.437   6.536 -0.6638  0.7249 -0.6208
  701MOL0     H92519   4.385   0.382   6.638  0.2880  0.7644  0.8360
  701MOL0     H92520   3.907   0.417   6.576  4.3570 -1.5076 -1.6369
  701MOL0     H92521   3.671   0.361   6.616 -1.5208 -1.2853 -1.1528
  701MOL0     H92522   3.595  -0.001   6.832 -2.1185  0.7494  2.4364
  701MOL0     H92523   3.536  -0.076   6.692 -1.3006 -0.0390 -0.4926
  701MOL0     H92524   3.409   0.139   6.876  0.7523  2.5874 -2.5691
  701MOL0     H92525   3.322   0.097   6.727  1.3210 -1.5113 -0.9734
  701MOL0     H92526   3.345  -0.081   6.969  2.1422 -1.8212 -2.3493
  701MOL0     H92527   3.320  -0.141   6.814  1.2661  0.5163 -1.4139
  701MOL0     H92528   3.118   0.035   6.798 -1.5555 -2.5119 -0.3538
  701MOL0     H92529   3.116  -0.075   6.940 -0.0813  0.4249 -0.2715
  701MOL0     H92530   3.134   0.310   7.093  0.1541 -0.0704  0.4266
  701MOL0     H92531   3.783  -0.041   6.690 -2.1735  0.6920 -0.2198
  701MOL0     H92532   4.019   0.018   6.631  0.8943  1.1113 -0.4544
  702MOL0     O92533   3.074   9.693   2.185  0.2014 -0.9620 -0.7228
  702MOL0     C92534   3.147   9.611   2.232 -0.0496  0.8828  0.7751
  702MOL0     O92535   3.117   9.480   2.238  0.1813  0.2201  0.3110
  702MOL0     C92536   2.987   9.443   2.210 -0.6879 -0.3502 -1.0846
  702MOL0     C92537   2.943   9.398   2.089  0.1617 -0.0270 -0.8602
  702MOL0     C92538   2.815   9.359   2.066  0.9855 -0.0929  0.1992
  702MOL0     C92539   2.714   9.368   2.165 -0.4553 -0.6465 -1.2663
  702MOL0     O92540   2.588   9.334   2.113 -0.5990 -0.1448  0.4341
  702MOL0     C92541   2.480   9.344   2.200  0.5603 -0.7478 -0.2922
  702MOL0     C92542   2.404   9.482   2.186  0.2571  0.4340  0.5072
  702MOL0     C92543   2.284   9.491   2.280 -0.3017 -0.0725 -0.8576
  702MOL0     C92544   2.178   9.388   2.248  0.8616  0.5869 -0.4363
  702MOL0     C92545   2.030   9.419   2.290  0.1333  0.7977  0.1283
  702MOL0     C92546   2.024   9.407   2.445 -0.2046  1.4370  1.6508
  702MOL0     C92547   1.915   9.496   2.498 -0.6510 -0.3065 -0.2606
  702MOL0     C92548   1.905   9.495   2.647 -0.2879  0.2024 -0.0320
  702MOL0     N92549   1.788   9.567   2.705  0.6610  0.3863 -0.2345
  702MOL0     C92550   1.765   9.697   2.700  0.1396 -0.9699 -0.5097
  702MOL0     C92551   1.643   9.717   2.756 -0.0410 -1.2345 -0.1092
  702MOL0     C92552   1.573   9.853   2.787  0.2626  0.3579 -0.3969
  702MOL0     C92553   1.655   9.967   2.831  0.1030 -0.1930 -0.0798
  702MOL0     C92554   1.724   9.959   2.969  0.2694 -0.1121 -0.2774
  702MOL0     C92555   1.617   9.947   3.075 -0.0803  0.1912  0.6018
  702MOL0     O92556   1.536  10.063   3.068 -0.1363 -0.1701 -0.0192
  702MOL0     C92557   1.427  10.073   3.149 -0.7058  0.5711  0.6125
  702MOL0     C92558   1.400  10.183   3.232  0.1290  0.3328  0.3521
  702MOL0     C92559   1.262  10.208   3.269  0.3078 -0.1853 -0.0747
  702MOL0     C92560   1.163  10.116   3.238 -0.9633  0.2007  0.6478
  702MOL0     C92561   1.020  10.147   3.271 -0.1690  0.3324  0.2359
  702MOL0     O92562   0.924  10.060   3.230 -0.4763  0.3718 -0.8046
  702MOL0     C92563   0.792  10.084   3.255  0.1100 -0.6867 -0.4793
  702MOL0     C92564   0.733  10.115   3.383  1.0380 -0.7581  0.1906
  702MOL0     C92565   0.596  10.160   3.387  0.4754  0.1953 -0.1548
  702MOL0     C92566   0.504  10.151   3.282 -1.3018 -0.9434 -0.4388
  702MOL0     O92567   0.378  10.201   3.304  0.2968 -0.5213  0.1706
  702MOL0     C92568   0.278  10.177   3.202  0.0153  0.3949  1.3130
  702MOL0     C92569   0.302  10.281   3.088  0.3451  0.1782 -0.5411
  702MOL0     C92570   0.215  10.242   2.964 -0.5701  0.3106 -0.1043
  702MOL0     C92571   0.229  10.344   2.854 -0.4246 -0.3091  0.4588
  702MOL0     C92572   0.167  10.318   2.720 -1.1530 -0.4187  0.0067
  702MOL0     C92573   0.024  10.369   2.725  0.3112  1.0711 -0.1103
  702MOL0     C92574  -0.033  10.385   2.579 -0.3011  0.9240 -0.5536
  702MOL0     C92575  -0.165  10.459   2.552  0.6404  1.0686 -0.1741
  702MOL0    Cl92576  -0.186  10.474   2.378 -0.7926  0.0372  0.1108
  702MOL0     C92577   0.558  10.097   3.166  0.0168 -0.5383 -0.2813
  702MOL0     C92578   0.701  10.070   3.149  0.9348  0.3304  0.1434
  702MOL0     O92579   0.995  10.253   3.324  0.9166 -0.2254 -0.2638
  702MOL0     C92580   1.194   9.993   3.179 -0.2517 -0.0195  0.0943
  702MOL0     C92581   1.325   9.981   3.130  0.1531  0.0558 -0.4784
  702MOL0     N92582   1.589   9.601   2.798  0.1889 -0.1502 -0.1222
  702MOL0     N92583   1.676   9.512   2.766  0.5954 -0.7699  0.3223
  702MOL0     C92584   2.750   9.417   2.297 -0.7088 -0.5134 -0.5976
  702MOL0     C92585   2.890   9.459   2.315  0.5849  0.4287  0.5199
  702MOL0     C92586   3.281   9.661   2.276  0.3621  0.5717  0.3278
  702MOL0     C92587   3.366   9.575   2.351 -0.1055  0.2115  0.4179
  702MOL0     C92588   3.492   9.618   2.399 -0.4015  1.3144  0.2993
  702MOL0     C92589   3.535   9.748   2.378 -0.1361 -0.3077 -0.6090
  702MOL0     O92590   3.660   9.766   2.439  0.1571 -0.1325  0.0903
  702MOL0     C92591   3.746   9.851   2.372 -0.0888  0.5352 -0.4030
  702MOL0     C92592   3.781   9.783   2.238  0.3219 -1.2096  0.3036
  702MOL0     C92593   3.871   9.658   2.250 -0.8684  0.1692  0.9585
  702MOL0     C92594   3.998   9.682   2.337 -0.2271 -0.6738 -0.4654
  702MOL0     C92595   4.099   9.777   2.278 -1.3803  0.4718 -0.6830
  702MOL0     C92596   4.168   9.863   2.231 -0.7435  0.5310 -0.5877
  702MOL0     C92597   3.453   9.838   2.305 -0.7491  0.0408 -0.2255
  702MOL0     C92598   3.327   9.796   2.254  0.4830 -0.5999 -0.8306
  702MOL0     H92599   3.021   9.393   2.014  1.7959  0.4576  0.7256
  702MOL0     H92600   2.804   9.338   1.960 -0.9801 -0.1570  0.3800
  702MOL0     H92601   2.513   9.332   2.304  0.1875  3.5979  0.5118
  702MOL0     H92602   2.414   9.260   2.175 -0.6854 -0.3313  1.3576
  702MOL0     H92603   2.370   9.493   2.082 -1.9043 -3.6779  0.5522
  702MOL0     H92604   2.481   9.554   2.214  1.3928 -0.5953  0.1414
  702MOL0     H92605   2.243   9.592   2.270 -0.7301  0.2463  2.9197
  702MOL0     H92606   2.327   9.491   2.380  1.1044  3.8200 -1.2870
  702MOL0     H92607   2.176   9.376   2.140 -0.5449 -2.7810 -0.1585
  702MOL0     H92608   2.219   9.295   2.289  2.4451 -0.4284 -3.9704
  702MOL0     H92609   1.950   9.354   2.254  0.7158 -0.0912  0.4135
  702MOL0     H92610   2.000   9.521   2.263 -1.6284  0.3141  0.1616
  702MOL0     H92611   2.125   9.417   2.486  0.9687 -4.3139  0.9958
  702MOL0     H92612   1.990   9.306   2.467  0.8824 -0.2935 -3.3612
  702MOL0     H92613   1.933   9.599   2.464  1.4511 -1.4310 -2.9383
  702MOL0     H92614   1.818   9.462   2.459 -0.1448 -0.3251 -1.5696
  702MOL0     H92615   1.988   9.546   2.696 -1.7319  0.7269  2.0509
  702MOL0     H92616   1.902   9.390   2.677  2.3025 -0.7611 -2.7083
  702MOL0     H92617   1.825   9.774   2.652 -1.7680  2.4331  2.1455
  702MOL0     H92618   1.486   9.850   2.853 -0.1330 -3.1149 -0.8908
  702MOL0     H92619   1.518   9.882   2.696 -0.7513  1.2631  0.4772
  702MOL0     H92620   1.598  10.059   2.814 -1.1254 -0.5833  1.6910
  702MOL0     H92621   1.740   9.986   2.764 -0.5070  1.9101 -0.3424
  702MOL0     H92622   1.790   9.875   2.993  0.2394  0.4859  2.1490
  702MOL0     H92623   1.786  10.045   2.996  1.0709 -1.0284  0.9230
  702MOL0     H92624   1.665   9.942   3.173  0.7226 -1.5766  0.1670
  702MOL0     H92625   1.570   9.850   3.056  0.6472  0.2099 -1.5788
  702MOL0     H92626   1.466  10.268   3.248  2.3880 -1.4852  1.0658
  702MOL0     H92627   1.234  10.304   3.311 -0.7330  0.5288 -2.2689
  702MOL0     H92628   0.793  10.128   3.472 -0.3900 -0.1547  1.0899
  702MOL0     H92629   0.562  10.189   3.486 -0.5995 -4.5928  1.1445
  702MOL0     H92630   0.173  10.196   3.224  0.0873  6.6569 -1.5673
  702MOL0     H92631   0.280  10.072   3.172 -0.8569  0.6421  0.3691
  702MOL0     H92632   0.405  10.272   3.053  1.7822  1.9624  2.7845
  702MOL0     H92633   0.274  10.382   3.118 -1.7674 -0.9677  1.7416
  702MOL0     H92634   0.108  10.241   2.985 -0.4732 -2.3293  0.6075
  702MOL0     H92635   0.248  10.146   2.925 -2.0442  0.4473 -1.8325
  702MOL0     H92636   0.193  10.436   2.901  0.1053  1.1556 -1.8548
  702MOL0     H92637   0.336  10.348   2.834 -0.6348 -0.0758 -0.6504
  702MOL0     H92638   0.168  10.212   2.691 -1.7862 -0.2974 -0.4657
  702MOL0     H92639   0.223  10.370   2.642 -1.9019  0.3307 -0.0423
  702MOL0     H92640   0.010  10.464   2.779 -1.7697  0.5760  0.2953
  702MOL0     H92641  -0.024  10.294   2.787 -0.2176  2.2098  0.9015
  702MOL0     H92642   0.053  10.433   2.531 -0.3648 -0.5358 -2.2530
  702MOL0     H92643  -0.033  10.290   2.525 -0.6656 -2.1900  4.3125
  702MOL0     H92644  -0.168  10.556   2.603  2.0886  0.6959  0.6685
  702MOL0     H92645  -0.245  10.393   2.586  4.2231 -3.0416  1.1827
  702MOL0     H92646   0.490  10.087   3.083  0.3522 -1.0791 -0.4994
  702MOL0     H92647   0.741  10.037   3.053 -0.3915 -0.4127 -0.1689
  702MOL0     H92648   1.123   9.914   3.156  0.0233 -0.2872  0.1556
  702MOL0     H92649   1.336   9.896   3.062  3.8927  0.1447 -0.1784
  702MOL0     H92650   2.678   9.444   2.373 -1.4645  2.1944 -2.1704
  702MOL0     H92651   2.924   9.503   2.408  1.1943 -0.1651  0.5914
  702MOL0     H92652   3.340   9.472   2.372 -1.3701 -0.1765 -2.4774
  702MOL0     H92653   3.557   9.553   2.456  1.4571  2.1404 -0.7717
  702MOL0     H92654   3.839   9.864   2.428  0.6853 -4.0234 -0.2522
  702MOL0     H92655   3.701   9.949   2.354 -2.5812 -0.4488 -0.0269
  702MOL0     H92656   3.691   9.766   2.177 -0.1997 -0.1944  0.7669
  702MOL0     H92657   3.841   9.858   2.185 -0.6902  2.1908  3.5682
  702MOL0     H92658   3.919   9.630   2.155 -2.4209 -2.1967  0.7737
  702MOL0     H92659   3.816   9.573   2.291  0.2723 -1.8268 -1.3483
  702MOL0     H92660   3.971   9.700   2.442  1.7674 -2.1735  0.3740
  702MOL0     H92661   4.049   9.587   2.356 -0.9664 -0.5899  2.5488
  702MOL0     H92662   4.230   9.947   2.207 -0.3575  0.6429  0.7631
  702MOL0     H92663   3.485   9.942   2.306  2.4668 -0.8307  1.6802
  702MOL0     H92664   3.266   9.870   2.203  0.9234 -1.1554 -2.2039
  703MOL0     O92665   0.911   8.507   6.994  0.1717  0.5825 -0.8436
  703MOL0     C92666   0.937   8.473   7.110  0.3660  0.3633  0.5198
  703MOL0     O92667   0.839   8.447   7.206  0.9125 -0.5460 -0.0354
  703MOL0     C92668   0.703   8.412   7.168 -0.4799 -0.3672  0.3597
  703MOL0     C92669   0.608   8.415   7.268 -0.0272 -0.8099 -0.6199
  703MOL0     C92670   0.475   8.373   7.251  0.1522 -0.0684  0.3813
  703MOL0     C92671   0.433   8.325   7.124  0.5618  0.0758  0.6947
  703MOL0     O92672   0.299   8.288   7.110 -0.7096  0.1479  0.5425
  703MOL0     C92673   0.252   8.216   6.992  0.2029  0.3701 -0.3454
  703MOL0     C92674   0.097   8.176   7.017  0.3207 -0.1864  0.0129
  703MOL0     C92675  -0.012   8.283   7.030 -0.2537  0.0227  0.2874
  703MOL0     C92676  -0.082   8.303   6.894  0.9989 -0.1700 -0.4348
  703MOL0     C92677  -0.183   8.427   6.895 -0.4892  0.6921 -0.5041
  703MOL0     C92678  -0.225   8.465   6.761 -0.0747 -0.2096  0.8924
  703MOL0     C92679  -0.106   8.543   6.685  0.1101  0.9478 -0.5732
  703MOL0     C92680  -0.130   8.569   6.541 -0.7994  0.1952 -0.4956
  703MOL0     N92681  -0.174   8.459   6.454  0.3096 -0.7080  0.5893
  703MOL0     C92682  -0.303   8.424   6.406 -0.2863 -0.0361  0.2315
  703MOL0     C92683  -0.277   8.325   6.310  0.4731  0.4313 -0.1980
  703MOL0     C92684  -0.365   8.259   6.211  0.2282  0.3572  0.2588
  703MOL0     C92685  -0.508   8.304   6.224  0.5791 -0.4576 -0.8327
  703MOL0     C92686  -0.602   8.260   6.112 -0.1496  0.0863 -0.3281
  703MOL0     C92687  -0.749   8.260   6.161 -0.7131  0.4308 -0.4672
  703MOL0     O92688  -0.797   8.395   6.151 -0.0281 -0.1190  0.0034
  703MOL0     C92689  -0.932   8.422   6.143 -1.5098  1.1525  0.5178
  703MOL0     C92690  -0.961   8.546   6.080 -0.2899  0.7743  0.7333
  703MOL0     C92691  -1.092   8.583   6.049  0.1159 -0.1057 -0.5215
  703MOL0     C92692  -1.199   8.503   6.108  0.1130 -0.3191 -0.0243
  703MOL0     C92693  -1.334   8.555   6.090  1.1016 -0.0885 -0.9931
  703MOL0     O92694  -1.354   8.684   6.041 -0.8078  0.8400  0.6148
  703MOL0     C92695  -1.485   8.728   6.031 -1.2404 -0.0946 -0.2312
  703MOL0     C92696  -1.515   8.855   6.082 -0.4531 -0.1552 -0.5778
  703MOL0     C92697  -1.651   8.903   6.079 -0.8581  0.1327  0.1096
  703MOL0     C92698  -1.752   8.835   6.017  0.2143 -0.4757 -0.7815
  703MOL0     O92699  -1.875   8.899   6.021  0.9143 -0.0412 -0.1121
  703MOL0     C92700  -1.991   8.831   5.969 -1.0428 -0.3387 -0.1714
  703MOL0     C92701  -2.106   8.930   5.972 -0.4786  0.2622  0.7561
  703MOL0     C92702  -2.105   9.026   5.857 -0.5282 -0.0056  1.0218
  703MOL0     C92703  -1.986   9.126   5.866 -0.0696 -0.0979 -0.4359
  703MOL0     C92704  -1.977   9.219   5.736 -0.4501  0.3158 -0.5798
  703MOL0     C92705  -2.097   9.315   5.721 -0.4726  0.1507  0.3082
  703MOL0     C92706  -2.092   9.386   5.584  1.4131 -0.5585 -0.4012
  703MOL0     C92707  -2.159   9.301   5.467  0.3225  0.4654  0.0064
  703MOL0    Cl92708  -2.106   9.377   5.319  0.1693 -0.7832  0.2564
  703MOL0     C92709  -1.726   8.708   5.956  0.5695  0.8892  0.4612
  703MOL0     C92710  -1.590   8.653   5.978 -0.2221 -0.7896 -0.2681
  703MOL0     O92711  -1.428   8.485   6.129  0.0139 -0.2797  0.1685
  703MOL0     C92712  -1.169   8.381   6.171  0.5068  0.4169 -0.1034
  703MOL0     C92713  -1.037   8.333   6.172  0.2016 -0.0040 -0.1718
  703MOL0     N92714  -0.148   8.304   6.301 -0.5251  0.3895 -1.2039
  703MOL0     N92715  -0.090   8.371   6.390  0.3827 -0.0655  0.0137
  703MOL0     C92716   0.525   8.327   7.011  0.6365 -0.7478  0.5947
  703MOL0     C92717   0.660   8.366   7.036  0.0010  0.2561  0.5538
  703MOL0     C92718   1.078   8.504   7.151 -0.3233  0.7812 -0.0078
  703MOL0     C92719   1.128   8.480   7.283  0.5799  0.1904 -0.1896
  703MOL0     C92720   1.262   8.506   7.316  0.8291 -0.8585  0.6300
  703MOL0     C92721   1.352   8.542   7.214  0.0379  0.3419 -0.7175
  703MOL0     O92722   1.477   8.580   7.261  0.1433 -0.1497  0.4376
  703MOL0     C92723   1.518   8.715   7.201 -0.7136  1.3256 -0.7393
  703MOL0     C92724   1.407   8.831   7.201 -0.0181  0.1667 -0.4244
  703MOL0     C92725   1.383   8.895   7.342  0.1138  0.1010 -1.0942
  703MOL0     C92726   1.284   8.820   7.431 -0.0232 -0.5777  0.6655
  703MOL0     C92727   1.354   8.750   7.534 -0.1707 -0.7905 -0.1379
  703MOL0     C92728   1.414   8.679   7.615 -0.0719 -0.3397  0.0113
  703MOL0     C92729   1.305   8.566   7.084 -0.5680 -0.2968  0.4742
  703MOL0     C92730   1.164   8.547   7.054 -0.5867 -0.3255 -0.6941
  703MOL0     H92731   0.636   8.441   7.369 -0.2636  2.0314 -1.1998
  703MOL0     H92732   0.409   8.364   7.337 -0.8674 -2.5287 -0.5690
  703MOL0     H92733   0.311   8.124   6.981  1.5440  0.9558  1.4176
  703MOL0     H92734   0.269   8.265   6.895  0.6282 -1.2630 -1.1464
  703MOL0     H92735   0.097   8.135   7.118  1.8908  2.4269  1.1677
  703MOL0     H92736   0.052   8.108   6.943 -1.2502  2.5167 -1.6983
  703MOL0     H92737   0.032   8.371   7.077 -0.2523  1.3881 -2.0970
  703MOL0     H92738  -0.091   8.239   7.092 -1.8260  2.7324  0.3606
  703MOL0     H92739  -0.004   8.319   6.819  0.5083 -0.0538 -0.9294
  703MOL0     H92740  -0.131   8.212   6.860 -0.1337  0.0266  0.6125
  703MOL0     H92741  -0.138   8.514   6.942  1.8865 -0.7572  0.0961
  703MOL0     H92742  -0.273   8.395   6.948  0.0977 -0.9665 -0.4109
  703MOL0     H92743  -0.309   8.534   6.769 -0.3001 -0.2389 -0.9278
  703MOL0     H92744  -0.259   8.376   6.706  2.8049 -1.3124  0.7216
  703MOL0     H92745  -0.055   8.628   6.729  3.5221 -1.4630  0.5221
  703MOL0     H92746  -0.030   8.464   6.686 -0.9979 -0.1487 -0.1584
  703MOL0     H92747  -0.039   8.616   6.502 -0.1006 -0.7256 -0.0357
  703MOL0     H92748  -0.199   8.653   6.536 -0.1128  0.7920 -0.1959
  703MOL0     H92749  -0.391   8.474   6.445  0.7751  3.2064 -1.1616
  703MOL0     H92750  -0.369   8.150   6.220 -3.0041  0.4135  0.9371
  703MOL0     H92751  -0.331   8.290   6.112  2.9986  3.7817  2.0868
  703MOL0     H92752  -0.495   8.412   6.220  1.0456 -0.3992  1.0618
  703MOL0     H92753  -0.547   8.244   6.308 -2.8334 -1.5687 -2.9886
  703MOL0     H92754  -0.590   8.331   6.031 -1.7277  1.0538  0.2434
  703MOL0     H92755  -0.567   8.161   6.081  0.6255  0.6830 -1.3891
  703MOL0     H92756  -0.749   8.246   6.270  2.6940 -0.2197 -0.4498
  703MOL0     H92757  -0.811   8.186   6.110  0.3801  1.0616 -2.8823
  703MOL0     H92758  -0.876   8.605   6.045  0.5092 -1.4141 -1.2752
  703MOL0     H92759  -1.114   8.678   6.002  0.7045  1.1543  1.6000
  703MOL0     H92760  -1.433   8.910   6.127  1.8300 -3.9493  0.3218
  703MOL0     H92761  -1.680   9.000   6.118 -2.8559 -1.0517  1.7702
  703MOL0     H92762  -2.014   8.747   6.036 -3.8613  1.0351  0.7429
  703MOL0     H92763  -1.969   8.808   5.864  4.9811 -0.6741  0.8398
  703MOL0     H92764  -2.108   8.983   6.068 -1.6709 -0.6680  1.2733
  703MOL0     H92765  -2.194   8.865   5.973 -1.2585  1.2239  3.1869
  703MOL0     H92766  -2.196   9.085   5.870 -0.0692  0.6328  1.3737
  703MOL0     H92767  -2.105   8.975   5.760 -1.9585  2.8019 -0.5708
  703MOL0     H92768  -2.014   9.186   5.954 -2.6354 -0.0730 -1.2154
  703MOL0     H92769  -1.888   9.077   5.872 -0.2505 -1.3360 -4.7442
  703MOL0     H92770  -1.977   9.154   5.647  1.6222 -0.9547  0.2900
  703MOL0     H92771  -1.887   9.280   5.737  0.7310 -1.3020 -1.8137
  703MOL0     H92772  -2.085   9.394   5.795 -0.6242  0.4282  0.0343
  703MOL0     H92773  -2.193   9.263   5.735  0.4272 -2.3033 -1.8163
  703MOL0     H92774  -2.135   9.486   5.594 -2.3158 -1.8614 -1.7327
  703MOL0     H92775  -1.985   9.405   5.571  1.6290  1.0192  2.6189
  703MOL0     H92776  -2.269   9.303   5.472  0.2241 -1.6154 -0.6686
  703MOL0     H92777  -2.130   9.196   5.461 -1.7060 -0.1486  0.1346
  703MOL0     H92778  -1.803   8.643   5.916 -0.9660  0.0507  4.3459
  703MOL0     H92779  -1.569   8.555   5.936 -0.8461 -0.4644 -1.4061
  703MOL0     H92780  -1.252   8.317   6.197  0.1503 -0.1860 -2.5040
  703MOL0     H92781  -1.029   8.236   6.221  1.6247  0.2516  0.1453
  703MOL0     H92782   0.492   8.292   6.914 -1.4698  0.5396  0.7927
  703MOL0     H92783   0.728   8.350   6.953 -2.4011 -0.0469 -1.4892
  703MOL0     H92784   1.065   8.444   7.364 -0.7046  2.6471 -0.0229
  703MOL0     H92785   1.296   8.495   7.418  3.2618  0.4235  0.0329
  703MOL0     H92786   1.536   8.702   7.094  1.5774  1.9938 -0.4877
  703MOL0     H92787   1.609   8.757   7.247  0.1401 -2.5714  1.5428
  703MOL0     H92788   1.431   8.913   7.133  1.5108  0.0546 -0.0473
  703MOL0     H92789   1.306   8.798   7.173 -0.9956  1.1077  1.7440
  703MOL0     H92790   1.327   8.988   7.333 -3.5616 -1.3031  3.5324
  703MOL0     H92791   1.475   8.917   7.396  0.1590 -0.6789 -0.8316
  703MOL0     H92792   1.209   8.888   7.472 -0.5934 -1.5149  1.2068
  703MOL0     H92793   1.233   8.745   7.370  0.7170 -0.4592 -0.1171
  703MOL0     H92794   1.461   8.614   7.686 -1.1730  1.7404  2.8590
  703MOL0     H92795   1.375   8.594   7.006 -0.0392 -1.6177  0.4522
  703MOL0     H92796   1.135   8.561   6.951  2.4539  2.0898 -1.3720
  704MOL0     O92797   3.517  11.059   7.161  0.8630  0.1909 -0.2049
  704MOL0     C92798   3.533  10.998   7.058 -0.9244 -0.0142 -0.0743
  704MOL0     O92799   3.446  10.916   6.998  0.0595 -0.4430  0.5020
  704MOL0     C92800   3.317  10.925   7.039  0.3715  0.1769 -0.7741
  704MOL0     C92801   3.277  10.886   7.167 -0.3271  0.1709 -0.0154
  704MOL0     C92802   3.142  10.883   7.213  0.7913  0.3869  0.1508
  704MOL0     C92803   3.041  10.917   7.122 -0.8724  0.0121 -0.2808
  704MOL0     O92804   2.917  10.911   7.180  0.3986 -0.0395  0.6290
  704MOL0     C92805   2.808  10.884   7.096 -0.0983  0.1558 -0.0413
  704MOL0     C92806   2.673  10.869   7.153 -0.8221 -0.1560  0.3763
  704MOL0     C92807   2.686  10.787   7.280  0.1825  0.5222 -0.7277
  704MOL0     C92808   2.537  10.767   7.325 -0.7421 -0.8062 -0.5212
  704MOL0     C92809   2.534  10.638   7.402  0.4954 -0.0572 -0.3697
  704MOL0     C92810   2.394  10.605   7.459  0.5810  0.2008  0.9589
  704MOL0     C92811   2.344  10.704   7.563  0.0512 -0.3909 -0.1023
  704MOL0     C92812   2.207  10.745   7.548  0.5712 -0.1481 -0.1855
  704MOL0     N92813   2.113  10.648   7.607 -0.6522 -0.5112  0.3941
  704MOL0     C92814   2.002  10.691   7.675  0.0849 -0.3885  0.1014
  704MOL0     C92815   1.946  10.577   7.722  0.2807  0.7176 -0.2761
  704MOL0     C92816   1.821  10.557   7.801  0.1903 -0.1641 -0.3977
  704MOL0     C92817   1.700  10.526   7.719  0.3700 -0.2845  0.6495
  704MOL0     C92818   1.571  10.555   7.802 -0.0468 -0.1095  0.8639
  704MOL0     C92819   1.453  10.497   7.727 -0.1294  0.3187 -0.4705
  704MOL0     O92820   1.466  10.500   7.588  0.2796 -0.1855 -0.4463
  704MOL0     C92821   1.363  10.455   7.507 -0.0247  0.5027  0.2793
  704MOL0     C92822   1.380  10.480   7.371  0.1899 -0.2208 -0.7277
  704MOL0     C92823   1.288  10.433   7.277  0.7045  1.1258  0.7130
  704MOL0     C92824   1.167  10.378   7.325 -0.8738  1.2426 -0.1812
  704MOL0     C92825   1.059  10.349   7.226 -0.1807 -0.1766 -0.4205
  704MOL0     O92826   0.954  10.286   7.274 -0.8695 -0.1175  0.2074
  704MOL0     C92827   0.847  10.261   7.198  0.3768  0.5392  0.4437
  704MOL0     C92828   0.800  10.131   7.170  1.2108 -1.0684 -0.3569
  704MOL0     C92829   0.679  10.116   7.103  0.4831  0.7518 -0.5455
  704MOL0     C92830   0.599  10.215   7.058  0.4100  0.0228 -0.3688
  704MOL0     O92831   0.483  10.183   6.994  0.1130 -0.0251  0.2656
  704MOL0     C92832   0.474  10.266   6.875 -0.4631 -0.8978 -0.2684
  704MOL0     C92833   0.366  10.236   6.778 -0.4169 -0.5797 -0.0819
  704MOL0     C92834   0.232  10.300   6.818 -0.5323 -0.9672 -1.0701
  704MOL0     C92835   0.184  10.271   6.964  0.0811 -0.3311  0.5957
  704MOL0     C92836   0.062  10.346   7.011  0.0563 -0.3206  0.3449
  704MOL0     C92837  -0.065  10.286   6.941  0.6441 -0.1503 -0.5578
  704MOL0     C92838  -0.205  10.344   6.980  0.6843  0.3024 -0.4908
  704MOL0     C92839  -0.286  10.380   6.852 -0.6552  0.5742 -0.2999
  704MOL0    Cl92840  -0.335  10.223   6.788 -0.2537 -0.1614  0.0374
  704MOL0     C92841   0.635  10.340   7.088  0.8249 -0.0552 -0.4732
  704MOL0     C92842   0.752  10.366   7.151 -0.5429 -0.0761 -0.9704
  704MOL0     O92843   1.077  10.378   7.109 -0.1071  0.1157 -0.7953
  704MOL0     C92844   1.146  10.359   7.466  1.1076  0.2976  0.6402
  704MOL0     C92845   1.251  10.393   7.554  0.5388  0.2128 -0.2003
  704MOL0     N92846   2.035  10.477   7.696  0.1962 -0.2189 -0.5182
  704MOL0     N92847   2.127  10.516   7.626  0.4212 -0.7101 -0.8632
  704MOL0     C92848   3.083  10.973   7.004 -0.0568 -0.5453 -0.4925
  704MOL0     C92849   3.216  10.972   6.959  0.4631  0.0127  0.7053
  704MOL0     C92850   3.663  11.027   6.988 -0.5653 -0.2768  0.1116
  704MOL0     C92851   3.741  11.138   7.023 -0.9164  0.3298  0.9323
  704MOL0     C92852   3.857  11.162   6.948 -1.0043  0.0029 -0.1390
  704MOL0     C92853   3.896  11.072   6.847  0.0893 -0.4805  0.1975
  704MOL0     O92854   4.001  11.111   6.767 -0.3051 -0.2071 -0.2064
  704MOL0     C92855   4.107  11.016   6.728 -0.4180  0.5297 -0.4048
  704MOL0     C92856   4.087  10.959   6.587 -0.1730 -0.0177  0.7224
  704MOL0     C92857   4.128  11.053   6.468  0.2017 -0.3410 -0.3682
  704MOL0     C92858   4.089  10.987   6.329 -0.5538  0.2613 -0.6726
  704MOL0     C92859   4.196  10.888   6.305  0.0613 -0.3025 -0.2103
  704MOL0     C92860   4.275  10.800   6.278 -0.2647  0.8605  0.0572
  704MOL0     C92861   3.817  10.963   6.811 -0.5772  0.4518 -0.8497
  704MOL0     C92862   3.696  10.946   6.878 -0.7492 -0.4286 -0.0971
  704MOL0     H92863   3.352  10.851   7.237 -1.5663  0.5800  1.5892
  704MOL0     H92864   3.123  10.835   7.308  0.2385  0.3850  0.0432
  704MOL0     H92865   2.831  10.798   7.033 -2.7334 -0.2136 -0.6253
  704MOL0     H92866   2.799  10.960   7.018  1.1444 -0.4883 -0.8396
  704MOL0     H92867   2.604  10.823   7.082 -0.5246  1.3831 -0.9700
  704MOL0     H92868   2.630  10.969   7.165  2.4127  1.2647  1.2736
  704MOL0     H92869   2.742  10.839   7.359  0.8108 -0.3497 -0.5917
  704MOL0     H92870   2.733  10.689   7.270 -2.6151 -1.1489  1.1575
  704MOL0     H92871   2.504  10.849   7.389  2.5669 -0.6518  1.2339
  704MOL0     H92872   2.468  10.764   7.240 -0.8610  3.4667 -0.7911
  704MOL0     H92873   2.602  10.633   7.488 -0.3263 -1.9523  0.2271
  704MOL0     H92874   2.573  10.558   7.338  2.6684  1.9341 -1.6902
  704MOL0     H92875   2.392  10.514   7.521 -0.8871 -1.3251 -1.1611
  704MOL0     H92876   2.323  10.600   7.376  1.3642  0.4994  0.2669
  704MOL0     H92877   2.347  10.665   7.665  0.1482 -0.8404 -0.2749
  704MOL0     H92878   2.411  10.790   7.560 -0.5172  0.0495 -0.2146
  704MOL0     H92879   2.190  10.743   7.440 -0.1795  2.1345 -0.1807
  704MOL0     H92880   2.191  10.849   7.580  2.6191  0.2180 -0.1979
  704MOL0     H92881   1.970  10.794   7.667 -0.7279 -0.6178  0.3493
  704MOL0     H92882   1.808  10.651   7.855 -1.1664  0.2252 -1.3525
  704MOL0     H92883   1.842  10.479   7.875  1.2750  0.8943  0.4477
  704MOL0     H92884   1.712  10.420   7.698  2.9339  0.2456 -0.9740
  704MOL0     H92885   1.705  10.582   7.625 -0.9809  0.8538  1.2132
  704MOL0     H92886   1.585  10.496   7.893 -2.0073 -0.1425  1.1896
  704MOL0     H92887   1.563  10.660   7.830 -2.7411 -0.1893  0.7180
  704MOL0     H92888   1.360  10.551   7.748  0.3457  0.2405  2.1293
  704MOL0     H92889   1.447  10.392   7.758 -4.2517  0.6447  0.4348
  704MOL0     H92890   1.463  10.545   7.347  0.3664 -1.5536 -4.2481
  704MOL0     H92891   1.283  10.458   7.172 -0.7018 -2.1198 -0.1030
  704MOL0     H92892   0.861  10.048   7.203  0.7257 -1.0154  0.7066
  704MOL0     H92893   0.640  10.025   7.060  0.3756  1.3407 -1.7433
  704MOL0     H92894   0.569  10.266   6.821 -1.6685  3.2007 -2.8203
  704MOL0     H92895   0.460  10.371   6.904 -2.0275 -1.2517  0.3757
  704MOL0     H92896   0.353  10.129   6.760  1.0322 -1.0347  1.3263
  704MOL0     H92897   0.399  10.291   6.690  1.9736 -0.3319  0.8856
  704MOL0     H92898   0.153  10.278   6.746 -3.5565 -0.0501  1.7622
  704MOL0     H92899   0.242  10.409   6.820  0.4389 -1.0359  1.6672
  704MOL0     H92900   0.159  10.167   6.987 -5.9649  1.1225  2.4029
  704MOL0     H92901   0.257  10.299   7.040  0.7633  0.1395 -0.2219
  704MOL0     H92902   0.076  10.447   6.971  1.1553 -1.1787 -1.5740
  704MOL0     H92903   0.061  10.342   7.120  3.5464  1.2580  0.5733
  704MOL0     H92904  -0.077  10.177   6.952  0.1428 -0.0671 -0.2830
  704MOL0     H92905  -0.043  10.312   6.837 -3.1093  1.1812 -1.1606
  704MOL0     H92906  -0.258  10.270   7.041 -0.6904  1.6359  0.0128
  704MOL0     H92907  -0.197  10.434   7.041 -1.0831  0.3670 -0.2810
  704MOL0     H92908  -0.233  10.437   6.776 -0.2588 -0.1145 -0.5505
  704MOL0     H92909  -0.380  10.434   6.870 -2.6359 -2.8152  0.6192
  704MOL0     H92910   0.587  10.429   7.051  4.7775  2.2175 -0.6563
  704MOL0     H92911   0.772  10.467   7.186 -0.1511 -0.8436  1.2208
  704MOL0     H92912   1.047  10.329   7.497  0.8039  0.7834  0.1660
  704MOL0     H92913   1.228  10.367   7.657 -3.0992  1.7034 -0.4797
  704MOL0     H92914   3.012  11.016   6.935  0.7113  1.2303 -0.2336
  704MOL0     H92915   3.233  10.999   6.855  2.6048 -0.9895  0.7380
  704MOL0     H92916   3.724  11.215   7.098  1.8956  1.8545  0.1667
  704MOL0     H92917   3.921  11.248   6.964 -1.8420  0.3491  1.6041
  704MOL0     H92918   4.105  10.930   6.796  1.0322  0.2391 -0.6983
  704MOL0     H92919   4.211  11.051   6.730  0.6947 -2.4404 -0.2618
  704MOL0     H92920   4.143  10.867   6.570 -1.6165 -1.3845  2.8564
  704MOL0     H92921   3.979  10.946   6.571  0.0282 -0.6974 -0.1616
  704MOL0     H92922   4.233  11.083   6.467 -0.5224  2.4753 -0.8449
  704MOL0     H92923   4.066  11.143   6.470 -0.5575 -0.8250 -1.0362
  704MOL0     H92924   3.992  10.935   6.331  0.9147 -2.7257 -0.9615
  704MOL0     H92925   4.089  11.062   6.250 -0.4311  1.9189  0.8410
  704MOL0     H92926   4.351  10.732   6.246 -2.1177 -1.1723 -0.2106
  704MOL0     H92927   3.838  10.916   6.716  1.3282  2.5374 -1.5353
  704MOL0     H92928   3.619  10.874   6.852 -0.4917 -0.4552 -0.8047
  705MOL0     O92929  10.285   8.289   7.611  0.3846  0.3083 -0.2220
  705MOL0     C92930  10.226   8.371   7.681  0.2354 -0.6249  0.3668
  705MOL0     O92931  10.095   8.406   7.678 -0.2339 -0.6604 -0.2825
  705MOL0     C92932  10.011   8.337   7.595  0.6884 -1.2608  0.3503
  705MOL0     C92933   9.896   8.282   7.646  0.4816 -0.0929  0.5068
  705MOL0     C92934   9.815   8.207   7.556 -0.0692  0.1330 -0.4733
  705MOL0     C92935   9.843   8.181   7.413 -0.0823  0.4083 -0.5356
  705MOL0     O92936   9.765   8.101   7.331 -0.6418 -0.1934 -0.2568
  705MOL0     C92937   9.675   8.012   7.389  0.3696 -0.6880 -0.7146
  705MOL0     C92938   9.593   7.932   7.287 -0.4018  0.0699  0.2804
  705MOL0     C92939   9.692   7.830   7.209  0.6366  0.1547  0.0181
  705MOL0     C92940   9.747   7.872   7.071  0.1596  0.4948 -0.3248
  705MOL0     C92941   9.645   7.907   6.961 -0.4417  0.4583 -0.0150
  705MOL0     C92942   9.540   7.807   6.917 -0.0976 -0.7159  0.4631
  705MOL0     C92943   9.462   7.853   6.791 -0.0410  0.1471 -0.4185
  705MOL0     C92944   9.342   7.939   6.829 -0.1146  1.1445  0.3107
  705MOL0     N92945   9.233   7.864   6.894 -1.3094 -0.3187  0.5753
  705MOL0     C92946   9.205   7.871   7.030  0.3707 -0.1547 -0.2147
  705MOL0     C92947   9.112   7.785   7.058  0.5172 -0.2837  0.4834
  705MOL0     C92948   9.062   7.766   7.201  0.4278 -0.1661  0.3727
  705MOL0     C92949   8.987   7.636   7.212 -0.1290  0.6921 -0.6388
  705MOL0     C92950   8.954   7.592   7.357  0.3001 -0.4510 -0.1691
  705MOL0     C92951   8.890   7.451   7.352 -0.5871  0.0693  0.6270
  705MOL0     O92952   8.757   7.469   7.321  1.3041  0.2156  0.2281
  705MOL0     C92953   8.670   7.357   7.320  0.2450 -0.9369  0.1386
  705MOL0     C92954   8.709   7.231   7.359 -0.2338  0.2774 -0.1912
  705MOL0     C92955   8.621   7.118   7.365  0.2620 -0.4907  0.7140
  705MOL0     C92956   8.484   7.132   7.304 -0.0840 -0.6225 -0.3705
  705MOL0     C92957   8.376   7.030   7.307  0.0964  0.4234  0.0552
  705MOL0     O92958   8.249   7.060   7.266 -0.4217  0.2189  0.9084
  705MOL0     C92959   8.148   6.980   7.296  0.2530 -0.6747 -0.3302
  705MOL0     C92960   8.119   6.887   7.203 -0.3258  0.5682 -0.2939
  705MOL0     C92961   8.008   6.812   7.223  0.0693 -0.0619 -0.3456
  705MOL0     C92962   7.927   6.825   7.344  0.0177 -0.9155  0.5761
  705MOL0     O92963   7.814   6.750   7.379 -0.0940  0.1529  0.0238
  705MOL0     C92964   7.773   6.647   7.280 -0.0001  0.3768 -0.1648
  705MOL0     C92965   7.653   6.555   7.324  0.3602 -1.3107 -0.7912
  705MOL0     C92966   7.668   6.461   7.437 -0.5174 -0.5430  0.6496
  705MOL0     C92967   7.532   6.413   7.474 -0.3516 -0.7168  0.7193
  705MOL0     C92968   7.470   6.326   7.367 -0.5693 -1.2429 -0.0738
  705MOL0     C92969   7.360   6.235   7.428  0.0262 -0.0430  0.1622
  705MOL0     C92970   7.265   6.183   7.323  1.3933  0.3995  0.1880
  705MOL0     C92971   7.173   6.079   7.386  0.1544 -0.1861 -0.0059
  705MOL0    Cl92972   7.041   6.039   7.279 -0.1679  0.4637  0.4557
  705MOL0     C92973   7.969   6.923   7.438  0.7331  0.5468 -0.5888
  705MOL0     C92974   8.077   7.003   7.413 -0.0870 -0.3074  0.5375
  705MOL0     O92975   8.406   6.926   7.362  0.0646 -0.2411  0.4780
  705MOL0     C92976   8.450   7.264   7.265  0.0281  0.0227  0.0142
  705MOL0     C92977   8.547   7.370   7.269 -0.2314  0.2435 -0.9061
  705MOL0     N92978   9.067   7.737   6.934  0.1257  0.0422  0.7882
  705MOL0     N92979   9.144   7.781   6.841 -0.7103  0.2444 -0.3357
  705MOL0     C92980   9.953   8.249   7.368  0.5463  0.4206 -0.4768
  705MOL0     C92981  10.034   8.323   7.460 -0.1105 -0.2842 -0.1407
  705MOL0     C92982  10.315   8.463   7.755  0.3070  0.4142  0.1296
  705MOL0     C92983  10.272   8.588   7.805 -0.1174 -0.0504  0.3598
  705MOL0     C92984  10.362   8.685   7.856 -1.0666  1.0061 -0.7501
  705MOL0     C92985  10.502   8.658   7.858  0.1778 -0.1149  0.5830
  705MOL0     O92986  10.588   8.756   7.904  0.3658 -0.0962 -0.1821
  705MOL0     C92987  10.653   8.715   8.025 -0.5122 -0.7270 -0.7030
  705MOL0     C92988  10.807   8.729   8.028 -0.6573  0.2445  0.2480
  705MOL0     C92989  10.840   8.874   8.005 -1.0402  0.6353 -0.2282
  705MOL0     C92990  10.995   8.890   8.028  0.9700 -0.5982  0.2287
  705MOL0     C92991  11.017   8.871   8.174  1.0289 -0.1339  0.0624
  705MOL0     C92992  11.036   8.856   8.289 -0.1273 -0.4663 -0.8434
  705MOL0     C92993  10.547   8.539   7.814  0.4912  0.6609  0.2550
  705MOL0     C92994  10.455   8.448   7.751  0.1004 -0.1810 -0.5830
  705MOL0     H92995   9.873   8.276   7.751 -0.5861 -3.7673  0.2159
  705MOL0     H92996   9.726   8.153   7.587  1.0491 -1.1398  0.7029
  705MOL0     H92997   9.605   8.068   7.451  1.7240 -1.3974  1.6036
  705MOL0     H92998   9.727   7.946   7.460 -1.3265 -1.2993  0.0175
  705MOL0     H92999   9.523   7.990   7.226 -0.1434  0.2745  0.1746
  705MOL0     H93000   9.534   7.863   7.348 -0.1758  0.6785  1.1966
  705MOL0     H93001   9.638   7.736   7.200 -0.5210  0.5535  2.2136
  705MOL0     H93002   9.786   7.806   7.260  1.4376 -0.9952 -1.8505
  705MOL0     H93003   9.829   7.944   7.082 -0.1686  0.5140  3.2726
  705MOL0     H93004   9.804   7.789   7.029  3.5184  1.0306  2.6389
  705MOL0     H93005   9.718   7.918   6.881 -0.5461 -2.1450 -0.5454
  705MOL0     H93006   9.591   7.999   6.987  1.1031  1.6877 -0.9898
  705MOL0     H93007   9.468   7.786   6.997 -2.1902 -1.1937 -1.4478
  705MOL0     H93008   9.592   7.714   6.893 -1.0699 -0.9630 -0.7575
  705MOL0     H93009   9.522   7.909   6.718 -0.4492 -0.3159 -1.1190
  705MOL0     H93010   9.429   7.766   6.735 -4.7492  1.8324 -0.7073
  705MOL0     H93011   9.292   7.979   6.740 -1.5006 -0.8111  0.1321
  705MOL0     H93012   9.381   8.023   6.885  0.6675  1.3405 -0.4989
  705MOL0     H93013   9.237   7.933   7.113  0.5213  0.6244 -0.8382
  705MOL0     H93014   8.986   7.841   7.224  1.7347  1.0615  0.8051
  705MOL0     H93015   9.144   7.773   7.273  1.1577  0.8835 -0.5257
  705MOL0     H93016   9.043   7.550   7.175  0.3821  1.0111 -0.6232
  705MOL0     H93017   8.896   7.635   7.151 -1.3331 -3.1815  0.9187
  705MOL0     H93018   9.044   7.582   7.418  1.5533  2.4594 -1.3645
  705MOL0     H93019   8.884   7.653   7.414  1.1272 -2.7236  3.6272
  705MOL0     H93020   8.900   7.392   7.443  0.7577 -3.6460 -1.7090
  705MOL0     H93021   8.941   7.391   7.277  0.8992  1.3839  0.5515
  705MOL0     H93022   8.813   7.215   7.386  0.0162  0.8572 -0.8136
  705MOL0     H93023   8.649   7.018   7.398 -1.3672 -1.0978  0.3656
  705MOL0     H93024   8.168   6.881   7.106 -1.6979  1.0984 -1.0544
  705MOL0     H93025   7.978   6.738   7.149  0.3710 -2.6079  1.9240
  705MOL0     H93026   7.860   6.582   7.265  1.1934  1.7630  0.5253
  705MOL0     H93027   7.751   6.690   7.182 -1.3407 -3.4071 -1.7126
  705MOL0     H93028   7.628   6.489   7.241  1.3142 -2.0767 -0.4833
  705MOL0     H93029   7.569   6.622   7.347  1.7838  0.3004 -0.0915
  705MOL0     H93030   7.711   6.502   7.529 -0.8846 -0.4835  0.7944
  705MOL0     H93031   7.743   6.385   7.412 -0.6191 -0.7537  0.9728
  705MOL0     H93032   7.554   6.358   7.565  3.0337 -0.4911  0.1668
  705MOL0     H93033   7.471   6.503   7.489  2.0891  1.1564  0.0790
  705MOL0     H93034   7.541   6.259   7.319 -0.6563 -0.3397 -1.5293
  705MOL0     H93035   7.424   6.392   7.292 -0.3039  4.0404  3.8767
  705MOL0     H93036   7.304   6.302   7.494  0.3749  1.3166 -0.8618
  705MOL0     H93037   7.397   6.145   7.477 -0.5705 -1.0567 -1.1834
  705MOL0     H93038   7.194   6.259   7.290 -0.4885 -1.1345  0.5427
  705MOL0     H93039   7.324   6.136   7.243 -0.1639 -1.8185  0.2529
  705MOL0     H93040   7.133   6.113   7.482 -0.1517  0.3778 -0.3283
  705MOL0     H93041   7.227   5.985   7.402  2.3934  0.9977 -0.2445
  705MOL0     H93042   7.924   6.926   7.537 -0.6378 -0.2054 -1.1641
  705MOL0     H93043   8.123   7.075   7.481  1.1091 -0.5247 -0.0098
  705MOL0     H93044   8.351   7.283   7.225 -0.8450  0.0120  2.0529
  705MOL0     H93045   8.508   7.466   7.235  0.1231  0.1101 -1.6992
  705MOL0     H93046   9.971   8.224   7.264 -2.7195 -1.4877 -0.7107
  705MOL0     H93047  10.118   8.369   7.410 -1.9805 -0.5525 -3.8746
  705MOL0     H93048  10.165   8.600   7.810  0.1879  2.4042  3.1815
  705MOL0     H93049  10.326   8.777   7.903  0.2859  0.2482  2.0077
  705MOL0     H93050  10.625   8.611   8.043  1.1668 -1.4534 -1.9904
  705MOL0     H93051  10.619   8.777   8.108 -0.1735  0.1389 -1.1839
  705MOL0     H93052  10.855   8.679   8.112 -0.4040 -2.5963 -1.4471
  705MOL0     H93053  10.846   8.674   7.941  0.8243 -1.7392  2.0639
  705MOL0     H93054  10.781   8.948   8.060 -0.1725  1.3258 -0.1982
  705MOL0     H93055  10.826   8.893   7.898 -0.7157 -2.6859 -0.9606
  705MOL0     H93056  11.046   8.810   7.974  0.8378 -1.7560  1.7475
  705MOL0     H93057  11.030   8.989   7.997  3.5268 -0.9578  1.7112
  705MOL0     H93058  11.028   8.848   8.396 -1.4060  0.9236 -0.8072
  705MOL0     H93059  10.653   8.540   7.795  0.2883  2.1217 -0.9755
  705MOL0     H93060  10.497   8.362   7.699  2.1000  1.2413 -1.4667
  706MOL0     O93061   7.926   4.219   2.788 -0.6246 -0.1941  0.5905
  706MOL0     C93062   7.950   4.173   2.894  0.9658 -0.1561  0.9396
  706MOL0     O93063   7.850   4.112   2.964 -1.0779 -0.2516  0.2742
  706MOL0     C93064   7.740   4.065   2.913 -0.5910 -0.9592 -0.5894
  706MOL0     C93065   7.621   4.130   2.944 -1.1885 -0.3636 -1.0502
  706MOL0     C93066   7.500   4.084   2.897 -0.3637  0.6176  0.8055
  706MOL0     C93067   7.497   3.978   2.798  0.3640 -0.0013  0.3944
  706MOL0     O93068   7.384   3.940   2.734  0.1004 -0.0668  0.8455
  706MOL0     C93069   7.263   3.994   2.780 -0.2954  1.0746 -1.0392
  706MOL0     C93070   7.156   3.911   2.702  0.2331 -0.2591 -0.9544
  706MOL0     C93071   7.020   3.982   2.708  0.6002  0.2446  0.4961
  706MOL0     C93072   6.911   3.889   2.647 -0.6009 -0.8921  0.0975
  706MOL0     C93073   6.870   3.776   2.730 -0.0744  0.1746  0.2701
  706MOL0     C93074   6.768   3.688   2.658 -0.2657  0.1034 -0.8759
  706MOL0     C93075   6.761   3.548   2.710 -0.0220  0.3119 -0.5695
  706MOL0     C93076   6.891   3.470   2.684 -0.2327  0.6286 -0.2456
  706MOL0     N93077   6.875   3.332   2.728 -0.7293  0.7853  0.0396
  706MOL0     C93078   6.826   3.226   2.649  0.5170 -0.1038  0.3998
  706MOL0     C93079   6.769   3.144   2.733  0.3523 -0.6892 -0.3608
  706MOL0     C93080   6.677   3.039   2.705  0.5116  0.3142 -0.0684
  706MOL0     C93081   6.524   3.093   2.713 -0.7041 -1.0158 -0.4932
  706MOL0     C93082   6.473   3.138   2.573  0.0163  0.0931 -0.3126
  706MOL0     C93083   6.324   3.160   2.562  0.5839 -0.1341  0.0110
  706MOL0     O93084   6.251   3.058   2.628 -0.1441  0.3059  0.3890
  706MOL0     C93085   6.120   3.045   2.618 -0.3351  0.3846  0.6591
  706MOL0     C93086   6.065   2.953   2.707 -0.7468 -0.2977  0.2684
  706MOL0     C93087   5.928   2.937   2.724 -0.4613 -0.0293 -0.2530
  706MOL0     C93088   5.843   3.007   2.640  0.3607 -0.0875 -1.4032
  706MOL0     C93089   5.699   2.969   2.639 -0.3341 -0.0224 -0.1797
  706MOL0     O93090   5.617   3.027   2.541 -0.4360  0.1961  1.1430
  706MOL0     C93091   5.479   3.010   2.535 -1.3792  0.2772 -0.1084
  706MOL0     C93092   5.427   3.034   2.408  0.4210 -0.0595  0.1158
  706MOL0     C93093   5.284   3.042   2.399  0.4803 -0.4422  0.5111
  706MOL0     C93094   5.203   3.029   2.512  0.0113 -1.0700  0.4594
  706MOL0     O93095   5.066   3.035   2.494 -0.7007  0.3315 -0.1425
  706MOL0     C93096   5.015   3.146   2.569 -0.3127 -0.0265  0.1799
  706MOL0     C93097   4.871   3.180   2.514 -0.2484  0.1013  0.4284
  706MOL0     C93098   4.766   3.089   2.571 -0.1734  0.0241  0.6469
  706MOL0     C93099   4.621   3.135   2.520  0.1721 -0.0383  0.2840
  706MOL0     C93100   4.508   3.081   2.605  0.1735 -0.4709  0.8068
  706MOL0     C93101   4.479   2.933   2.569 -0.2892  0.8478 -0.2005
  706MOL0     C93102   4.563   2.831   2.652  0.0266 -0.1075 -0.0621
  706MOL0     C93103   4.500   2.684   2.657  0.2743 -0.6052  1.0042
  706MOL0    Cl93104   4.352   2.680   2.747 -0.2667 -0.3059 -0.0566
  706MOL0     C93105   5.263   3.009   2.634  0.6446 -0.0079 -0.0879
  706MOL0     C93106   5.398   3.007   2.652 -0.0177 -0.3773  0.6683
  706MOL0     O93107   5.660   2.904   2.743 -0.4770  0.2690  0.8753
  706MOL0     C93108   5.893   3.091   2.537 -0.9769  0.4234  0.5004
  706MOL0     C93109   6.031   3.114   2.531  0.4412 -1.0811  0.3353
  706MOL0     N93110   6.789   3.194   2.856  0.3492 -0.1930 -0.0544
  706MOL0     N93111   6.859   3.298   2.854  0.3357  0.1747 -0.8974
  706MOL0     C93112   7.618   3.919   2.769 -0.4471  0.4610 -0.1184
  706MOL0     C93113   7.741   3.956   2.830 -0.5288  0.4382  0.5779
  706MOL0     C93114   8.084   4.192   2.954  0.4253  0.0314 -0.1051
  706MOL0     C93115   8.180   4.280   2.902  0.2517 -0.2743 -0.5165
  706MOL0     C93116   8.302   4.288   2.963 -0.0258  0.0992 -0.6407
  706MOL0     C93117   8.338   4.216   3.071 -0.4038 -0.3733  0.1590
  706MOL0     O93118   8.466   4.262   3.115  0.0504 -0.0202  0.4549
  706MOL0     C93119   8.538   4.183   3.204  0.2378  0.1153  0.6983
  706MOL0     C93120   8.660   4.267   3.247 -0.8205  0.2674 -0.5604
  706MOL0     C93121   8.627   4.392   3.330  0.2311 -0.0283 -1.0299
  706MOL0     C93122   8.631   4.516   3.245 -0.1018 -0.6180 -0.6810
  706MOL0     C93123   8.607   4.629   3.334 -0.8786  0.7042 -0.0634
  706MOL0     C93124   8.596   4.714   3.420  0.7029 -0.7765  0.0409
  706MOL0     C93125   8.247   4.124   3.128 -0.0510  0.2000 -0.9719
  706MOL0     C93126   8.124   4.118   3.067  0.5930 -0.5030  0.0951
  706MOL0     H93127   7.633   4.216   3.009 -0.6889 -0.4387 -1.0378
  706MOL0     H93128   7.412   4.137   2.929 -1.3784 -1.2058  1.1921
  706MOL0     H93129   7.252   4.100   2.756 -1.6444  0.8701 -1.4441
  706MOL0     H93130   7.258   3.977   2.888  2.9169 -1.9288 -1.1960
  706MOL0     H93131   7.153   3.810   2.743 -0.2608 -0.2718 -1.0206
  706MOL0     H93132   7.192   3.901   2.599  1.0760  1.4571 -0.8648
  706MOL0     H93133   7.022   4.071   2.645  1.1526 -1.4300 -2.0129
  706MOL0     H93134   6.979   4.003   2.807 -1.8975 -1.4543 -0.0956
  706MOL0     H93135   6.822   3.950   2.627  0.9316  1.3744 -0.1281
  706MOL0     H93136   6.946   3.859   2.547 -0.0335  0.6429 -0.1826
  706MOL0     H93137   6.832   3.815   2.825  1.4791  1.4735  0.4068
  706MOL0     H93138   6.964   3.724   2.749 -0.0584  0.5195  1.1510
  706MOL0     H93139   6.792   3.691   2.551 -1.3037  1.2992 -1.1084
  706MOL0     H93140   6.671   3.739   2.646  1.8775  4.0656 -3.9832
  706MOL0     H93141   6.727   3.537   2.813  0.4655  0.1735 -0.4168
  706MOL0     H93142   6.680   3.505   2.651 -2.0266  5.3109 -1.9830
  706MOL0     H93143   6.976   3.503   2.744 -1.8784 -1.8722  3.8860
  706MOL0     H93144   6.919   3.476   2.578 -1.5023  2.3452 -0.5350
  706MOL0     H93145   6.820   3.234   2.541  1.8884  0.5714  0.3460
  706MOL0     H93146   6.694   2.966   2.784 -1.8977 -1.1387 -0.7786
  706MOL0     H93147   6.684   2.999   2.603 -1.9349 -0.9508  0.1641
  706MOL0     H93148   6.530   3.185   2.772  0.1712 -0.1574 -1.8564
  706MOL0     H93149   6.474   3.006   2.757 -0.7485 -1.9256 -2.2556
  706MOL0     H93150   6.528   3.225   2.537 -0.6167  0.3619 -0.6422
  706MOL0     H93151   6.504   3.060   2.503  2.0141 -0.4103  1.0560
  706MOL0     H93152   6.293   3.157   2.457  1.0143 -1.5287 -0.0967
  706MOL0     H93153   6.295   3.254   2.610 -2.2900 -1.0246  0.1917
  706MOL0     H93154   6.129   2.885   2.763 -2.7621 -3.2991 -0.8642
  706MOL0     H93155   5.894   2.856   2.787  0.9436 -1.6143 -1.4647
  706MOL0     H93156   5.494   3.063   2.328  0.5017 -3.7232 -1.3464
  706MOL0     H93157   5.253   3.060   2.296  3.4116 -2.1624 -0.8104
  706MOL0     H93158   5.075   3.236   2.553  0.4542 -1.0327 -3.6759
  706MOL0     H93159   5.014   3.120   2.675  0.8238 -3.2328 -0.4675
  706MOL0     H93160   4.871   3.177   2.405 -0.8348 -0.8973  0.4491
  706MOL0     H93161   4.854   3.285   2.542  2.0298  1.0783 -1.4665
  706MOL0     H93162   4.773   3.087   2.681  1.8605 -1.2066  0.5531
  706MOL0     H93163   4.794   2.986   2.547  0.1584 -0.4320  2.7598
  706MOL0     H93164   4.615   3.244   2.529  2.5294  0.2040 -0.4890
  706MOL0     H93165   4.596   3.111   2.417 -0.0980 -0.9052  0.5446
  706MOL0     H93166   4.413   3.132   2.585  1.2301  1.4005  0.3406
  706MOL0     H93167   4.528   3.112   2.708 -0.0009  2.4319  0.0611
  706MOL0     H93168   4.488   2.922   2.460 -0.0546  2.2601 -0.3453
  706MOL0     H93169   4.376   2.903   2.591  1.0075 -3.1203  1.1888
  706MOL0     H93170   4.664   2.820   2.610 -0.0351 -0.6276 -0.0776
  706MOL0     H93171   4.575   2.860   2.757 -0.0113 -1.3774  0.3137
  706MOL0     H93172   4.583   2.620   2.688  1.1511 -0.1931 -0.3905
  706MOL0     H93173   4.479   2.655   2.554  6.2260  0.4645 -0.9239
  706MOL0     H93174   5.204   3.006   2.725  1.1293  0.5434  0.2499
  706MOL0     H93175   5.436   2.982   2.751 -0.6166  0.8132  1.2150
  706MOL0     H93176   5.824   3.148   2.475  0.8831  1.1749 -0.9673
  706MOL0     H93177   6.070   3.176   2.451 -1.3291 -1.7955 -1.1288
  706MOL0     H93178   7.614   3.834   2.702 -1.0647 -1.1594  1.8516
  706MOL0     H93179   7.832   3.897   2.830 -0.8131 -0.0146 -0.2350
  706MOL0     H93180   8.144   4.344   2.823 -0.8705 -2.2114 -1.6448
  706MOL0     H93181   8.368   4.363   2.919 -1.4468  0.3490 -2.5057
  706MOL0     H93182   8.562   4.080   3.177 -1.2558 -0.8849  2.8205
  706MOL0     H93183   8.480   4.165   3.295 -1.0933 -0.0610 -0.1569
  706MOL0     H93184   8.728   4.199   3.300 -0.1782 -0.4030 -2.1955
  706MOL0     H93185   8.717   4.296   3.159 -0.6698  0.4517 -0.4044
  706MOL0     H93186   8.696   4.405   3.415 -0.8878 -1.8602  0.2364
  706MOL0     H93187   8.532   4.370   3.379  0.0982 -0.8094 -1.6153
  706MOL0     H93188   8.727   4.530   3.194  0.8765 -1.3539  0.8673
  706MOL0     H93189   8.550   4.516   3.171 -0.6195 -2.2191 -0.1662
  706MOL0     H93190   8.609   4.790   3.494  2.3737 -2.3934  1.4875
  706MOL0     H93191   8.265   4.068   3.219  1.0504 -0.2440 -1.4430
  706MOL0     H93192   8.048   4.051   3.106  1.2681 -0.8804  0.7801
  707MOL0     O93193   1.577   5.571  11.083 -0.1312 -0.2385  0.2574
  707MOL0     C93194   1.641   5.490  11.011  0.6484  0.7678  0.1974
  707MOL0     O93195   1.579   5.392  10.936 -0.5581 -0.4844  0.0766
  707MOL0     C93196   1.446   5.401  10.902 -0.1031  0.2574 -0.0517
  707MOL0     C93197   1.379   5.524  10.882  0.4951 -0.0622  0.0197
  707MOL0     C93198   1.239   5.534  10.879  0.2805 -0.6452  0.3282
  707MOL0     C93199   1.166   5.420  10.852 -0.4515 -0.3727 -0.3556
  707MOL0     O93200   1.034   5.437  10.860  0.4525  0.4506  0.0816
  707MOL0     C93201   0.956   5.457  10.736  0.7077 -0.3435  0.2177
  707MOL0     C93202   0.811   5.495  10.769  1.0860  0.1983  0.5564
  707MOL0     C93203   0.721   5.477  10.646 -0.6705  0.6888 -0.6889
  707MOL0     C93204   0.574   5.473  10.683 -0.2830 -0.1649  0.3137
  707MOL0     C93205   0.483   5.442  10.562 -0.0611  0.8265 -0.7605
  707MOL0     C93206   0.339   5.412  10.602 -0.6009  0.0005 -0.0354
  707MOL0     C93207   0.253   5.391  10.477  0.8740  0.9220  0.4175
  707MOL0     C93208   0.110   5.352  10.512 -0.8257  0.0105 -0.0911
  707MOL0     N93209   0.041   5.451  10.587  0.3270 -0.7748 -0.1887
  707MOL0     C93210   0.025   5.582  10.542 -0.6738  0.4249 -0.4991
  707MOL0     C93211  -0.058   5.639  10.640  0.1782  0.5069  0.9272
  707MOL0     C93212  -0.094   5.789  10.642  0.5861  0.5337 -0.0755
  707MOL0     C93213  -0.239   5.809  10.662 -0.2466  0.4704  0.4351
  707MOL0     C93214  -0.328   5.719  10.576  0.2341 -0.4288  0.0630
  707MOL0     C93215  -0.473   5.738  10.617 -0.6340  0.2420 -0.3242
  707MOL0     O93216  -0.532   5.863  10.568  0.6478  0.4612 -0.5767
  707MOL0     C93217  -0.666   5.878  10.598 -1.0312 -0.1379  0.8161
  707MOL0     C93218  -0.747   5.792  10.676 -0.3437  0.2745  1.0164
  707MOL0     C93219  -0.874   5.831  10.712  1.3766  0.1870  0.4675
  707MOL0     C93220  -0.924   5.957  10.657 -0.1019 -0.3136  1.3054
  707MOL0     C93221  -1.052   6.015  10.702  0.4228  0.7410  0.0462
  707MOL0     O93222  -1.106   6.118  10.630  0.0284  0.2176 -0.1776
  707MOL0     C93223  -1.234   6.164  10.648 -0.3033 -0.7518 -0.2696
  707MOL0     C93224  -1.339   6.087  10.689 -0.4816  0.7575 -0.3318
  707MOL0     C93225  -1.446   6.152  10.736  0.3797 -0.4427  0.2304
  707MOL0     C93226  -1.463   6.285  10.732  1.0590 -0.9921 -0.3175
  707MOL0     O93227  -1.589   6.344  10.774  0.3410 -0.7056 -0.2231
  707MOL0     C93228  -1.604   6.491  10.761 -0.0722 -0.2672 -0.1924
  707MOL0     C93229  -1.736   6.531  10.833  0.1225 -0.1102  0.3171
  707MOL0     C93230  -1.733   6.687  10.833  0.1061  0.6243  0.2577
  707MOL0     C93231  -1.876   6.735  10.888  0.7202 -0.8336 -0.1796
  707MOL0     C93232  -1.892   6.888  10.905  0.5486  0.4357  0.3415
  707MOL0     C93233  -2.032   6.928  10.943  0.3619 -0.8180 -0.4296
  707MOL0     C93234  -2.030   7.072  10.988  0.3846 -0.0649 -1.0560
  707MOL0     C93235  -2.160   7.101  11.063 -0.3131 -0.9277  0.0505
  707MOL0    Cl93236  -2.150   7.262  11.140  0.3570 -0.1602 -0.3043
  707MOL0     C93237  -1.359   6.368  10.680 -0.0424  0.2710  0.3321
  707MOL0     C93238  -1.243   6.310  10.637 -0.1572 -0.3482 -0.6822
  707MOL0     O93239  -1.103   5.955  10.799 -0.2147  0.1032 -0.2935
  707MOL0     C93240  -0.841   6.034  10.571  0.4897  0.2271 -0.5308
  707MOL0     C93241  -0.709   5.995  10.550  0.5402 -0.2901  0.3046
  707MOL0     N93242  -0.082   5.539  10.731 -0.3338 -0.5375 -0.3952
  707MOL0     N93243  -0.023   5.426  10.701  0.3667 -0.5580 -0.5815
  707MOL0     C93244   1.236   5.295  10.855 -0.0536  0.5103  1.0721
  707MOL0     C93245   1.379   5.283  10.874  0.2570 -0.2237 -0.2705
  707MOL0     C93246   1.790   5.494  11.025  0.3379 -0.1583 -0.3440
  707MOL0     C93247   1.848   5.618  11.046 -0.3853 -0.1815  0.2028
  707MOL0     C93248   1.975   5.629  11.080 -0.4221 -0.1675  0.1481
  707MOL0     C93249   2.069   5.524  11.076  0.4355 -0.0846 -0.7204
  707MOL0     O93250   2.201   5.548  11.093 -0.7696  0.1205  0.5125
  707MOL0     C93251   2.287   5.431  11.107  0.0343 -0.7754  0.0016
  707MOL0     C93252   2.417   5.476  11.141 -0.3086  0.4505  0.1641
  707MOL0     C93253   2.510   5.360  11.207 -0.2779  0.0419 -0.9261
  707MOL0     C93254   2.487   5.349  11.355 -0.0995  0.6041 -0.1761
  707MOL0     C93255   2.543   5.476  11.417 -0.7713  0.8728  0.5740
  707MOL0     C93256   2.564   5.562  11.493 -0.0886 -0.3757 -0.6701
  707MOL0     C93257   2.011   5.397  11.048 -0.1475 -0.5558 -0.0704
  707MOL0     C93258   1.876   5.383  11.029  0.4278  0.5256 -0.2235
  707MOL0     H93259   1.433   5.619  10.880 -0.8015  0.7258 -3.3780
  707MOL0     H93260   1.187   5.629  10.869 -0.7674 -1.3963 -2.2184
  707MOL0     H93261   0.956   5.364  10.679  1.0813  0.9223 -1.9660
  707MOL0     H93262   0.994   5.541  10.676 -0.2136  0.6478  0.9769
  707MOL0     H93263   0.798   5.589  10.823  0.9038  2.1546 -2.5997
  707MOL0     H93264   0.771   5.425  10.842 -0.7787 -0.7207 -1.2446
  707MOL0     H93265   0.737   5.374  10.612 -1.3420 -0.4369  2.1047
  707MOL0     H93266   0.746   5.552  10.571 -0.6703  0.3837 -0.9992
  707MOL0     H93267   0.554   5.401  10.763 -2.0395 -0.8149 -0.6827
  707MOL0     H93268   0.564   5.577  10.714  0.2584 -0.0037 -0.0318
  707MOL0     H93269   0.531   5.361  10.506  1.0159 -0.2461  1.5537
  707MOL0     H93270   0.489   5.531  10.498  0.3794  0.0759 -1.8008
  707MOL0     H93271   0.294   5.498  10.653  2.8283 -0.3431  4.1238
  707MOL0     H93272   0.337   5.317  10.656 -2.3287  0.4887  0.8353
  707MOL0     H93273   0.255   5.481  10.413 -0.0504 -0.3057 -1.4457
  707MOL0     H93274   0.295   5.317  10.408 -0.8698  1.9677 -1.9188
  707MOL0     H93275   0.110   5.261  10.573 -1.8445  1.4308  2.1608
  707MOL0     H93276   0.055   5.325  10.421  0.8092 -1.9080 -0.5834
  707MOL0     H93277   0.049   5.624  10.445  2.7399  0.1587  0.1123
  707MOL0     H93278  -0.077   5.830  10.542 -1.1571  0.9397 -0.2215
  707MOL0     H93279  -0.033   5.850  10.709 -2.0789  0.2430  2.8013
  707MOL0     H93280  -0.262   5.914  10.641  1.0415  0.8533  0.9063
  707MOL0     H93281  -0.243   5.779  10.767  1.6448  1.5817  0.8599
  707MOL0     H93282  -0.316   5.728  10.467 -2.6632  1.5282 -0.2060
  707MOL0     H93283  -0.302   5.614  10.594  2.0153  0.1365  1.1052
  707MOL0     H93284  -0.478   5.732  10.726 -3.7729 -0.9641 -0.4158
  707MOL0     H93285  -0.529   5.656  10.570 -0.6680  0.0427  0.0625
  707MOL0     H93286  -0.718   5.692  10.704 -2.0739 -0.7162 -0.5381
  707MOL0     H93287  -0.932   5.763  10.773 -1.2121  0.3556 -1.6680
  707MOL0     H93288  -1.334   5.979  10.699 -0.6331  0.7528 -0.3086
  707MOL0     H93289  -1.528   6.093  10.775  1.6949  0.0703  4.2697
  707MOL0     H93290  -1.596   6.522  10.656  0.7456  0.9194  0.1984
  707MOL0     H93291  -1.532   6.547  10.822 -3.1107  1.7785  1.8159
  707MOL0     H93292  -1.755   6.495  10.935 -4.2238 -0.3194 -0.3623
  707MOL0     H93293  -1.812   6.501  10.760  0.3192  0.4645 -0.1253
  707MOL0     H93294  -1.709   6.725  10.733 -1.1297  2.3976  0.5977
  707MOL0     H93295  -1.661   6.729  10.904 -0.2965  2.6640 -0.4669
  707MOL0     H93296  -1.949   6.708  10.811  0.1830 -0.6846  0.2704
  707MOL0     H93297  -1.901   6.682  10.980 -2.1333 -1.9647 -1.4661
  707MOL0     H93298  -1.887   6.925  10.802 -0.9419  1.4157  0.5712
  707MOL0     H93299  -1.816   6.939  10.965 -0.5521 -0.3990  2.5520
  707MOL0     H93300  -2.075   6.862  11.019 -1.8131  2.0381  1.0239
  707MOL0     H93301  -2.093   6.915  10.853 -0.5419 -2.5671  0.3947
  707MOL0     H93302  -1.934   7.086  11.039  0.4336  0.2651 -1.2354
  707MOL0     H93303  -2.034   7.139  10.902 -1.8789  1.0425 -0.1719
  707MOL0     H93304  -2.181   7.032  11.145  0.7185 -0.7362  0.4924
  707MOL0     H93305  -2.244   7.106  10.993  0.7513 -1.4307 -1.3265
  707MOL0     H93306  -1.373   6.476  10.675  0.6835  0.3447 -0.1681
  707MOL0     H93307  -1.155   6.371  10.616 -0.1532 -0.1151 -0.0350
  707MOL0     H93308  -0.869   6.132  10.533  0.2875  0.2887 -0.2283
  707MOL0     H93309  -0.641   6.051  10.486  0.8202 -1.2292 -0.2352
  707MOL0     H93310   1.190   5.197  10.862  1.5691 -0.1699  3.4880
  707MOL0     H93311   1.426   5.186  10.884  0.2561 -0.1654  0.2946
  707MOL0     H93312   1.791   5.709  11.035  2.7244  2.0759  1.2843
  707MOL0     H93313   2.005   5.726  11.118 -2.6065  0.5405  0.2239
  707MOL0     H93314   2.304   5.380  11.012  1.1891  1.7269 -1.2498
  707MOL0     H93315   2.245   5.362  11.181 -1.5789  0.9483  0.7962
  707MOL0     H93316   2.463   5.505  11.046 -0.7370 -2.3036 -0.9928
  707MOL0     H93317   2.410   5.560  11.210 -1.2668 -2.0714  3.4082
  707MOL0     H93318   2.613   5.392  11.193 -0.5788  2.4525  1.5457
  707MOL0     H93319   2.489   5.259  11.169  1.0050 -3.2585  5.5663
  707MOL0     H93320   2.384   5.348  11.390  1.3139  0.5628  4.8431
  707MOL0     H93321   2.537   5.262  11.400  0.7051  1.8689  1.4787
  707MOL0     H93322   2.563   5.642  11.565  3.1809  0.6359 -1.5243
  707MOL0     H93323   2.068   5.305  11.042 -0.6999 -0.9135  0.1094
  707MOL0     H93324   1.835   5.289  10.993 -1.6476  1.5410 -0.6243
  708MOL0     O93325   7.134   0.088   7.650 -0.8882  0.1535  0.2424
  708MOL0     C93326   7.198   0.140   7.741 -0.4256  0.3155  0.1497
  708MOL0     O93327   7.143   0.210   7.846  0.1290 -0.3894  0.2775
  708MOL0     C93328   7.005   0.239   7.851  0.1674 -1.0077 -0.2203
  708MOL0     C93329   6.926   0.256   7.735  0.4594 -1.0750 -0.9523
  708MOL0     C93330   6.793   0.312   7.747 -0.4678 -0.7706 -0.0782
  708MOL0     C93331   6.733   0.350   7.861  0.2469 -0.2309 -1.6612
  708MOL0     O93332   6.608   0.417   7.862 -0.8958 -0.0828  0.5320
  708MOL0     C93333   6.513   0.343   7.944 -0.9493 -0.4083 -0.1972
  708MOL0     C93334   6.402   0.442   7.972  0.0963  0.3507 -0.7060
  708MOL0     C93335   6.287   0.379   8.058 -0.2358 -0.2793  1.0381
  708MOL0     C93336   6.153   0.458   8.069  0.4251 -0.1312 -0.0243
  708MOL0     C93337   6.042   0.379   8.140  0.0904 -0.3217  0.0642
  708MOL0     C93338   5.912   0.470   8.134 -1.3267  0.0332 -0.5714
  708MOL0     C93339   5.798   0.376   8.175 -0.1649  0.1332  1.0010
  708MOL0     C93340   5.670   0.461   8.197 -0.5069  0.4396  0.4207
  708MOL0     N93341   5.551   0.387   8.169  0.1665  1.0352  0.4562
  708MOL0     C93342   5.500   0.284   8.244 -0.0007  0.4969  0.3640
  708MOL0     C93343   5.386   0.246   8.181 -0.3896 -0.5598 -0.2724
  708MOL0     C93344   5.282   0.149   8.219  0.1168  0.8581  0.3726
  708MOL0     C93345   5.265   0.042   8.117 -0.3596 -0.0816  0.3601
  708MOL0     C93346   5.191  -0.091   8.140  0.2377 -1.0106 -1.0044
  708MOL0     C93347   5.237  -0.165   8.258 -0.7289 -0.0195 -0.0680
  708MOL0     O93348   5.189  -0.308   8.241  0.2236  0.1278  0.4219
  708MOL0     C93349   5.053  -0.342   8.256 -0.8836 -0.0735 -0.6138
  708MOL0     C93350   5.009  -0.459   8.191 -0.8700 -0.4762 -0.3758
  708MOL0     C93351   4.872  -0.481   8.182  0.1600 -0.1574  0.9256
  708MOL0     C93352   4.777  -0.418   8.264 -0.3677 -0.3619 -0.6905
  708MOL0     C93353   4.651  -0.476   8.291 -0.2121  0.1018  0.5409
  708MOL0     O93354   4.591  -0.546   8.180 -0.1884 -0.5720 -0.1359
  708MOL0     C93355   4.473  -0.611   8.203  0.5570 -0.2350 -0.2876
  708MOL0     C93356   4.472  -0.732   8.276  0.5520  0.7523 -0.2044
  708MOL0     C93357   4.353  -0.797   8.294  0.4912  0.2121  0.4061
  708MOL0     C93358   4.242  -0.762   8.223  0.2173 -0.4862  0.2128
  708MOL0     O93359   4.139  -0.845   8.228  0.2697 -0.2789 -0.0286
  708MOL0     C93360   4.011  -0.785   8.226 -0.8134 -0.2968 -1.1656
  708MOL0     C93361   3.911  -0.862   8.307  0.1758  0.2295 -0.2268
  708MOL0     C93362   3.886  -0.998   8.242 -0.5010  0.5845 -0.3363
  708MOL0     C93363   3.766  -1.081   8.292 -1.1180 -0.2311  0.1546
  708MOL0     C93364   3.765  -1.231   8.254  0.3941  0.3423  0.9871
  708MOL0     C93365   3.773  -1.242   8.099  0.4745  0.2142 -0.6911
  708MOL0     C93366   3.717  -1.379   8.064 -0.1441  1.0727  0.5535
  708MOL0     C93367   3.678  -1.386   7.913 -0.7995 -0.5488 -0.3986
  708MOL0    Cl93368   3.825  -1.384   7.815 -0.1463  0.2685  0.1912
  708MOL0     C93369   4.245  -0.651   8.134  0.3962  0.0439  0.0196
  708MOL0     C93370   4.359  -0.568   8.135 -0.0439  0.0122  0.2512
  708MOL0     O93371   4.603  -0.461   8.402  0.3218  0.1214 -0.6339
  708MOL0     C93372   4.831  -0.313   8.338 -0.7995 -1.0592  0.1158
  708MOL0     C93373   4.959  -0.275   8.336  0.8556 -0.2557  0.5044
  708MOL0     N93374   5.364   0.332   8.077  0.6964 -0.2494 -0.4226
  708MOL0     N93375   5.466   0.414   8.070 -0.2273 -0.7980 -0.0210
  708MOL0     C93376   6.817   0.332   7.983 -0.2832 -0.1811 -0.4751
  708MOL0     C93377   6.945   0.277   7.976 -0.3429  0.8512  0.1671
  708MOL0     C93378   7.339   0.130   7.742 -0.5299 -0.2219  0.3568
  708MOL0     C93379   7.411   0.160   7.861 -0.6569  0.3726 -0.4612
  708MOL0     C93380   7.553   0.164   7.858  0.6800 -0.3460 -0.0833
  708MOL0     C93381   7.619   0.118   7.742 -0.1020  0.2841 -0.5619
  708MOL0     O93382   7.754   0.120   7.751  0.2212 -0.7882 -0.0087
  708MOL0     C93383   7.826   0.193   7.657 -0.4729 -0.2496  0.0818
  708MOL0     C93384   7.937   0.118   7.596 -0.0125 -0.6402 -0.7851
  708MOL0     C93385   7.886   0.001   7.514  0.8061  1.1853 -0.5503
  708MOL0     C93386   8.011  -0.074   7.445 -0.3142 -0.0625  0.4652
  708MOL0     C93387   7.956  -0.153   7.337 -0.0133 -0.2053 -0.5701
  708MOL0     C93388   7.922  -0.228   7.247  0.5583  0.3784 -0.2891
  708MOL0     C93389   7.544   0.070   7.633 -0.5357 -1.0251 -1.4514
  708MOL0     C93390   7.406   0.082   7.632  0.3100  0.2624 -0.3761
  708MOL0     H93391   6.945   0.224   7.633 -4.9536 -2.5958 -1.8271
  708MOL0     H93392   6.733   0.323   7.657 -0.7489  1.9851  0.3657
  708MOL0     H93393   6.554   0.311   8.040  0.6140 -1.8140 -1.2820
  708MOL0     H93394   6.470   0.257   7.891 -1.2150  0.4090 -1.3424
  708MOL0     H93395   6.356   0.457   7.874  0.7898 -0.6952 -1.2006
  708MOL0     H93396   6.434   0.531   8.027  0.0955  1.6742 -2.7310
  708MOL0     H93397   6.326   0.360   8.158  1.0984 -1.1233  0.4019
  708MOL0     H93398   6.260   0.281   8.018  0.0746  0.0541 -0.0395
  708MOL0     H93399   6.171   0.554   8.118  0.4812  2.5413 -4.7522
  708MOL0     H93400   6.123   0.488   7.969  0.6924  1.9405  0.4712
  708MOL0     H93401   6.069   0.348   8.242  0.6682  0.1184  0.0513
  708MOL0     H93402   6.014   0.289   8.086 -0.9695 -0.3263  0.5902
  708MOL0     H93403   5.904   0.505   8.031  0.0827  0.1465 -0.6523
  708MOL0     H93404   5.928   0.558   8.197 -0.8698 -0.4263 -0.0351
  708MOL0     H93405   5.779   0.308   8.092 -0.4309 -0.2554  1.3774
  708MOL0     H93406   5.839   0.315   8.256 -2.2124 -3.2289 -0.3385
  708MOL0     H93407   5.671   0.561   8.152 -1.3686  0.9202  1.4276
  708MOL0     H93408   5.662   0.484   8.304  1.9316  2.7671  0.2112
  708MOL0     H93409   5.541   0.252   8.340  4.9024 -1.3984 -2.0120
  708MOL0     H93410   5.192   0.210   8.230  0.8529  2.4604 -1.8469
  708MOL0     H93411   5.309   0.092   8.309  0.6897  1.1606  0.3958
  708MOL0     H93412   5.368   0.017   8.090  0.1965  1.5962  0.7638
  708MOL0     H93413   5.212   0.092   8.035  1.2634 -0.4398 -0.9600
  708MOL0     H93414   5.084  -0.067   8.139  0.4455 -0.0593 -1.8040
  708MOL0     H93415   5.218  -0.142   8.047  2.5266  2.3624 -2.4006
  708MOL0     H93416   5.215  -0.105   8.347 -1.6114  5.0419 -3.2301
  708MOL0     H93417   5.346  -0.167   8.254 -0.7440  0.4224 -2.0462
  708MOL0     H93418   5.081  -0.522   8.141  1.4030  1.2886  0.4926
  708MOL0     H93419   4.851  -0.559   8.110  1.0177  1.6228 -1.3906
  708MOL0     H93420   4.556  -0.765   8.335 -0.8067  0.5087  1.6982
  708MOL0     H93421   4.339  -0.888   8.351  0.1444 -1.8287 -2.6821
  708MOL0     H93422   3.977  -0.767   8.123 -1.8006  2.3519 -0.4578
  708MOL0     H93423   4.016  -0.689   8.278  1.2344 -1.9395  2.0082
  708MOL0     H93424   3.824  -0.796   8.296  2.2130  2.9232 -1.6071
  708MOL0     H93425   3.945  -0.874   8.410 -1.9374  0.9373  0.6129
  708MOL0     H93426   3.969  -1.070   8.241 -0.6276  0.3991 -2.7807
  708MOL0     H93427   3.862  -0.987   8.136  1.7020  0.7161 -0.8820
  708MOL0     H93428   3.773  -1.071   8.400 -1.2808  0.8392  0.0833
  708MOL0     H93429   3.668  -1.039   8.269 -0.3468  2.6397  1.6137
  708MOL0     H93430   3.675  -1.278   8.294  0.4362 -1.0982 -0.5054
  708MOL0     H93431   3.853  -1.272   8.305  1.2281 -0.4650 -0.9849
  708MOL0     H93432   3.873  -1.225   8.059  0.5801 -1.0945 -1.0242
  708MOL0     H93433   3.696  -1.173   8.064  0.4593  1.6322  1.8820
  708MOL0     H93434   3.790  -1.456   8.088 -1.5747 -0.3460  0.5499
  708MOL0     H93435   3.620  -1.391   8.114 -0.6279 -0.4284 -0.6434
  708MOL0     H93436   3.612  -1.300   7.897  0.6899  1.2698  2.2997
  708MOL0     H93437   3.617  -1.475   7.899 -1.6297 -0.2565  1.0483
  708MOL0     H93438   4.168  -0.628   8.062 -1.1032 -2.0338  0.8360
  708MOL0     H93439   4.365  -0.479   8.073 -0.3909  1.4066  2.1139
  708MOL0     H93440   4.772  -0.262   8.413 -1.6771  0.9705 -1.8319
  708MOL0     H93441   4.986  -0.197   8.406  0.5046  0.8355 -0.5286
  708MOL0     H93442   6.781   0.364   8.081  1.8773  2.8180 -0.5156
  708MOL0     H93443   7.001   0.266   8.068 -0.5047 -0.6407  0.1102
  708MOL0     H93444   7.363   0.195   7.952 -2.6911 -2.7934 -0.1895
  708MOL0     H93445   7.613   0.196   7.942 -0.9035  2.6967  0.0172
  708MOL0     H93446   7.864   0.289   7.693  0.8634 -0.1696 -1.4671
  708MOL0     H93447   7.759   0.215   7.573 -3.2569  0.1344  2.2420
  708MOL0     H93448   7.992   0.185   7.529  1.7585  2.0604  3.0483
  708MOL0     H93449   7.991   0.083   7.684 -3.8527 -0.3463  1.9553
  708MOL0     H93450   7.825   0.040   7.432 -0.2943 -0.2394 -0.4310
  708MOL0     H93451   7.825  -0.068   7.572 -1.2017  2.6828 -0.7652
  708MOL0     H93452   8.087  -0.003   7.409  0.9548 -1.7011 -0.2053
  708MOL0     H93453   8.061  -0.141   7.516  0.7006  0.7411  0.5383
  708MOL0     H93454   7.886  -0.292   7.169 -0.5019 -0.3702  0.7657
  708MOL0     H93455   7.601   0.046   7.544  2.3948  1.2743 -0.3588
  708MOL0     H93456   7.363   0.042   7.540 -0.1047 -0.1503 -0.0105
  709MOL0     O93457   8.966   9.671   5.888  0.4871  0.4539 -0.3563
  709MOL0     C93458   9.028   9.576   5.928  0.4327  0.4180  0.7139
  709MOL0     O93459   8.975   9.462   5.963  0.1280 -0.0202  0.6007
  709MOL0     C93460   8.868   9.417   5.894  0.1051  0.2913  1.2748
  709MOL0     C93461   8.859   9.405   5.751  0.7872 -0.1836 -0.1166
  709MOL0     C93462   8.751   9.345   5.697 -0.9075  0.5879 -0.5853
  709MOL0     C93463   8.645   9.310   5.780  0.5489  0.1624  0.5212
  709MOL0     O93464   8.529   9.241   5.741 -0.6242 -0.2483  0.6159
  709MOL0     C93465   8.509   9.208   5.604 -0.5429 -0.1191 -0.6808
  709MOL0     C93466   8.359   9.174   5.581  0.3333  0.3280  0.0400
  709MOL0     C93467   8.319   9.056   5.664 -0.1580  0.7560 -0.1099
  709MOL0     C93468   8.183   9.005   5.628 -1.3377 -0.3046 -1.2483
  709MOL0     C93469   8.105   8.932   5.735  0.6051 -0.1207 -0.3398
  709MOL0     C93470   7.974   9.008   5.750 -0.6909  0.5551 -0.0896
  709MOL0     C93471   7.884   8.949   5.852  0.0294 -0.0144 -0.3041
  709MOL0     C93472   7.804   8.823   5.800  0.4966 -0.3578  0.3329
  709MOL0     N93473   7.741   8.757   5.923 -0.1977  0.4758  0.3208
  709MOL0     C93474   7.604   8.753   5.966 -0.5214  0.4706  0.1852
  709MOL0     C93475   7.599   8.686   6.076 -0.5739 -0.6975 -0.3881
  709MOL0     C93476   7.480   8.639   6.159 -1.2504  0.8687  0.1195
  709MOL0     C93477   7.368   8.573   6.070  0.7817  0.3078  0.2860
  709MOL0     C93478   7.247   8.548   6.146  0.0157  0.2326 -0.9741
  709MOL0     C93479   7.188   8.683   6.185  0.7628 -1.6791 -0.2483
  709MOL0     O93480   7.061   8.708   6.121  0.1254 -0.2552  0.1888
  709MOL0     C93481   6.946   8.637   6.145  0.6049  0.3006  0.9606
  709MOL0     C93482   6.919   8.535   6.234  0.8506  0.0404  0.1171
  709MOL0     C93483   6.798   8.474   6.244  0.0402  0.2512 -1.4974
  709MOL0     C93484   6.693   8.521   6.161  0.1953 -0.4114 -0.0888
  709MOL0     C93485   6.551   8.478   6.174  1.0256 -0.0708  0.0803
  709MOL0     O93486   6.463   8.517   6.077  0.2038  0.6338  1.1357
  709MOL0     C93487   6.336   8.460   6.064 -0.2797  0.2582 -0.4018
  709MOL0     C93488   6.307   8.323   6.089  0.0355 -0.0471  0.1446
  709MOL0     C93489   6.184   8.276   6.053 -0.3816 -0.4115 -0.6387
  709MOL0     C93490   6.079   8.350   5.999  0.7811 -0.5187 -0.1156
  709MOL0     O93491   5.954   8.283   5.984  0.0787 -0.8324 -0.8668
  709MOL0     C93492   5.841   8.362   6.009 -1.1448  0.0743 -0.9297
  709MOL0     C93493   5.717   8.292   5.956 -0.0169 -0.4294  0.2306
  709MOL0     C93494   5.592   8.332   6.034 -0.7252 -1.1564 -0.0802
  709MOL0     C93495   5.555   8.475   5.999  0.9435 -0.6431 -0.2490
  709MOL0     C93496   5.442   8.536   6.076  0.0863 -0.7565  0.3189
  709MOL0     C93497   5.319   8.442   6.051  0.2386  0.1596 -0.6732
  709MOL0     C93498   5.191   8.516   6.074 -0.3976  0.0530 -0.1993
  709MOL0     C93499   5.065   8.434   6.037  0.2747 -0.4603 -0.2934
  709MOL0    Cl93500   4.925   8.532   6.096 -0.1181 -0.0313  0.0783
  709MOL0     C93501   6.109   8.486   5.968 -0.6618 -0.8763 -0.2448
  709MOL0     C93502   6.235   8.544   5.996 -0.9298  0.7885 -0.5567
  709MOL0     O93503   6.513   8.419   6.277  0.1714 -0.2723  0.2828
  709MOL0     C93504   6.719   8.617   6.062  0.5579 -0.4669 -0.1742
  709MOL0     C93505   6.841   8.679   6.069 -0.0863  0.1916  0.4967
  709MOL0     N93506   7.730   8.655   6.106 -0.4459  0.6985  1.3401
  709MOL0     N93507   7.818   8.707   6.027  0.1548  0.1213 -0.2885
  709MOL0     C93508   8.638   9.342   5.917 -0.3703  0.8432  0.1023
  709MOL0     C93509   8.757   9.390   5.972  0.8292  0.5598  0.6459
  709MOL0     C93510   9.164   9.603   5.968 -0.7810 -0.0320  0.5339
  709MOL0     C93511   9.244   9.673   5.870  0.7100  0.0751  0.2448
  709MOL0     C93512   9.375   9.691   5.895  0.2470 -0.6809 -0.3206
  709MOL0     C93513   9.431   9.630   6.011 -0.4775 -0.8618 -0.8490
  709MOL0     O93514   9.563   9.630   6.046 -0.7411 -0.2358  0.4710
  709MOL0     C93515   9.651   9.714   5.968 -0.1909  0.0163  0.5030
  709MOL0     C93516   9.788   9.721   6.024 -0.1986  0.1949  0.0142
  709MOL0     C93517   9.798   9.798   6.156  0.0611  0.2597 -0.3633
  709MOL0     C93518   9.938   9.793   6.209  0.7039 -0.3746 -0.0455
  709MOL0     C93519  10.032   9.849   6.111  0.9009 -0.4960 -0.8004
  709MOL0     C93520  10.089   9.927   6.042 -0.5156 -0.1947  0.5428
  709MOL0     C93521   9.358   9.554   6.100  0.1711 -0.4790  0.8960
  709MOL0     C93522   9.222   9.529   6.077 -0.1468 -0.5257 -0.0243
  709MOL0     H93523   8.937   9.447   5.688  0.5459 -0.9563 -0.9484
  709MOL0     H93524   8.735   9.347   5.590 -1.4070  0.0426 -0.5293
  709MOL0     H93525   8.575   9.123   5.583  2.1605  2.0339 -1.5163
  709MOL0     H93526   8.532   9.293   5.539  0.0501  0.0851 -0.2157
  709MOL0     H93527   8.343   9.133   5.481  1.7730  2.2431 -1.0496
  709MOL0     H93528   8.288   9.257   5.585 -1.7058 -1.0542 -3.2241
  709MOL0     H93529   8.315   9.075   5.771 -0.0043  1.6171 -0.2479
  709MOL0     H93530   8.398   8.981   5.653  0.6553  1.0811  2.7552
  709MOL0     H93531   8.126   9.090   5.592  0.2953  1.2661 -0.2670
  709MOL0     H93532   8.195   8.947   5.536  1.9279 -0.8922 -0.5918
  709MOL0     H93533   8.156   8.920   5.831 -0.3495  0.2711  0.2305
  709MOL0     H93534   8.080   8.834   5.692  0.2266 -0.0836 -0.2063
  709MOL0     H93535   7.909   9.025   5.664 -2.3255 -3.0399  0.2234
  709MOL0     H93536   7.998   9.104   5.796 -0.1808  0.8912 -1.0425
  709MOL0     H93537   7.933   8.925   5.947 -2.7516  0.8141  1.4632
  709MOL0     H93538   7.807   9.025   5.873 -0.1336 -0.3324  0.2653
  709MOL0     H93539   7.865   8.747   5.751 -1.4893 -2.8875  1.5323
  709MOL0     H93540   7.728   8.857   5.729  1.6776  1.0486 -0.3079
  709MOL0     H93541   7.514   8.782   5.913 -2.3962 -1.9203  1.8597
  709MOL0     H93542   7.443   8.726   6.214 -2.4610  1.3341 -1.3615
  709MOL0     H93543   7.518   8.571   6.236  0.1202  3.3335  1.7691
  709MOL0     H93544   7.420   8.483   6.036  2.4362  0.4995  2.1458
  709MOL0     H93545   7.327   8.633   5.988 -1.9426 -0.7922  0.7409
  709MOL0     H93546   7.166   8.496   6.095 -0.9346  0.6851  0.0257
  709MOL0     H93547   7.276   8.492   6.236  0.0025  1.1578 -0.3762
  709MOL0     H93548   7.253   8.768   6.160  1.3541 -1.5629  1.5396
  709MOL0     H93549   7.172   8.696   6.293 -0.1328  0.5579 -0.5977
  709MOL0     H93550   7.002   8.514   6.300  1.0746  0.7146  0.0502
  709MOL0     H93551   6.781   8.397   6.318  2.5717  0.6695 -0.3791
  709MOL0     H93552   6.379   8.254   6.132  0.3075  0.1016 -0.0674
  709MOL0     H93553   6.170   8.170   6.071 -0.2811 -0.1827  0.9986
  709MOL0     H93554   5.850   8.455   5.952  1.3126 -0.8221 -2.1127
  709MOL0     H93555   5.835   8.386   6.116  0.0350  0.3764 -0.9173
  709MOL0     H93556   5.722   8.186   5.981  0.2003 -0.7037 -0.9182
  709MOL0     H93557   5.701   8.306   5.849  1.4244 -4.1950 -0.6291
  709MOL0     H93558   5.610   8.330   6.142  0.4699  0.9143 -0.1800
  709MOL0     H93559   5.511   8.262   6.010  1.5271 -3.4842 -1.3298
  709MOL0     H93560   5.639   8.538   6.030  0.8144 -0.7751  0.3854
  709MOL0     H93561   5.535   8.488   5.893  0.4814  1.8798  0.0838
  709MOL0     H93562   5.421   8.636   6.039  0.1216 -1.7594 -2.6440
  709MOL0     H93563   5.469   8.548   6.181  2.5401  3.2596 -0.5458
  709MOL0     H93564   5.316   8.353   6.114 -0.9580 -0.0016 -0.9298
  709MOL0     H93565   5.325   8.413   5.945  0.6632 -1.0138 -0.3460
  709MOL0     H93566   5.176   8.525   6.182 -2.0878  0.0834 -0.4078
  709MOL0     H93567   5.187   8.617   6.035  0.1032 -0.1917 -0.8888
  709MOL0     H93568   5.056   8.332   6.076  3.0346 -0.1945  1.2874
  709MOL0     H93569   5.074   8.433   5.928 -0.3248  0.0403 -0.3525
  709MOL0     H93570   6.035   8.556   5.931  2.7714  5.2601  3.0603
  709MOL0     H93571   6.264   8.647   5.978  2.1396  0.2683  0.8175
  709MOL0     H93572   6.645   8.657   5.994  0.5787 -0.3662 -0.1389
  709MOL0     H93573   6.859   8.745   5.985  1.7573 -1.1077 -0.1861
  709MOL0     H93574   8.558   9.298   5.975 -0.4155  1.6313  0.6459
  709MOL0     H93575   8.759   9.398   6.080  1.0362 -0.3306  0.7098
  709MOL0     H93576   9.198   9.714   5.780  0.5662  1.9103  1.1140
  709MOL0     H93577   9.426   9.764   5.833  1.3081 -0.7535  0.4442
  709MOL0     H93578   9.621   9.818   5.955  0.8939  0.4659  1.4588
  709MOL0     H93579   9.656   9.674   5.866 -0.1386 -0.7194  0.7872
  709MOL0     H93580   9.828   9.622   6.046  0.3779  0.7945  1.8782
  709MOL0     H93581   9.848   9.777   5.952 -0.3606  1.2669  0.6865
  709MOL0     H93582   9.730   9.741   6.220  0.7066 -1.0215 -0.7741
  709MOL0     H93583   9.764   9.901   6.143 -0.5648  0.0691 -0.2663
  709MOL0     H93584   9.942   9.851   6.302 -0.7456  0.0968 -0.2589
  709MOL0     H93585   9.974   9.695   6.243  0.5109 -0.0323  1.2258
  709MOL0     H93586  10.140  10.003   5.985  0.4876 -1.4005 -0.2206
  709MOL0     H93587   9.394   9.500   6.187  0.0328  0.0961  1.3128
  709MOL0     H93588   9.162   9.469   6.146 -0.1103  1.0233  1.4392
  710MOL0     O93589   0.558  11.002   8.589  0.0169  0.0235 -0.1024
  710MOL0     C93590   0.546  10.978   8.715 -0.1562 -0.2686  0.1322
  710MOL0     O93591   0.437  10.934   8.778 -0.0238 -0.3390  0.0090
  710MOL0     C93592   0.333  10.913   8.695 -0.3414  0.3447 -0.2842
  710MOL0     C93593   0.258  11.018   8.647  0.7084  0.0784 -0.1504
  710MOL0     C93594   0.132  10.997   8.595  0.2808  0.0577  0.8919
  710MOL0     C93595   0.080  10.870   8.583  0.3320  0.4577 -0.3039
  710MOL0     O93596  -0.041  10.854   8.516 -0.2367 -0.3674 -0.4847
  710MOL0     C93597  -0.061  10.926   8.397 -0.0500 -0.5465  0.9751
  710MOL0     C93598  -0.174  10.847   8.329 -0.1273  0.7226 -0.7905
  710MOL0     C93599  -0.186  10.890   8.177  0.4798 -0.5224 -0.8663
  710MOL0     C93600  -0.296  10.824   8.099 -0.2372 -0.3407 -0.0924
  710MOL0     C93601  -0.425  10.792   8.177 -0.2178 -0.0811  0.7850
  710MOL0     C93602  -0.535  10.754   8.078  0.3228 -0.4596 -0.0728
  710MOL0     C93603  -0.672  10.699   8.136 -1.1214 -0.2133  0.2237
  710MOL0     C93604  -0.723  10.803   8.240 -0.3638  0.0024  0.2011
  710MOL0     N93605  -0.862  10.794   8.273  0.2947 -0.0992 -0.6967
  710MOL0     C93606  -0.932  10.676   8.277 -0.4138 -0.5637  0.1049
  710MOL0     C93607  -1.050  10.696   8.329  0.8896  0.4381 -0.0717
  710MOL0     C93608  -1.151  10.587   8.364 -0.1932 -0.6643  0.6314
  710MOL0     C93609  -1.286  10.619   8.317 -0.0312  0.2216  0.5586
  710MOL0     C93610  -1.395  10.569   8.407 -0.8520  0.3706  0.6278
  710MOL0     C93611  -1.530  10.616   8.352  0.8491  0.9263  0.3260
  710MOL0     O93612  -1.643  10.559   8.425  0.6286 -0.3441  0.2537
  710MOL0     C93613  -1.771  10.610   8.406 -0.4965  0.3947 -0.5290
  710MOL0     C93614  -1.799  10.712   8.314 -0.1279  0.0854  0.4744
  710MOL0     C93615  -1.932  10.738   8.284 -0.2074 -0.0981 -0.5374
  710MOL0     C93616  -2.032  10.669   8.359 -0.0452  0.4510  0.5154
  710MOL0     C93617  -2.179  10.711   8.339 -0.4448 -0.0307  0.8618
  710MOL0     O93618  -2.261  10.666   8.437 -0.0324 -0.1017  0.0315
  710MOL0     C93619  -2.393  10.692   8.439  0.0538  0.2551  0.1166
  710MOL0     C93620  -2.472  10.770   8.347 -0.3407  0.3046  0.2139
  710MOL0     C93621  -2.606  10.810   8.369  0.3339  0.2045  0.7933
  710MOL0     C93622  -2.669  10.768   8.484  0.2764  0.3035 -0.7562
  710MOL0     O93623  -2.797  10.793   8.526  0.5168  0.2025 -0.1360
  710MOL0     C93624  -2.903  10.806   8.429  0.4871 -0.1008  0.8555
  710MOL0     C93625  -3.005  10.693   8.445 -0.1030  1.3864  0.1119
  710MOL0     C93626  -3.051  10.681   8.593  0.0435 -0.1732 -0.1073
  710MOL0     C93627  -3.205  10.643   8.593  0.2108 -0.3199  0.0483
  710MOL0     C93628  -3.230  10.497   8.568  0.3818  0.1228 -0.4688
  710MOL0     C93629  -3.378  10.456   8.587  0.1442  0.9521  0.3627
  710MOL0     C93630  -3.470  10.571   8.543  0.5109 -0.1327  0.2359
  710MOL0     C93631  -3.610  10.523   8.536 -0.6230 -0.0908 -0.2696
  710MOL0    Cl93632  -3.638  10.395   8.408 -0.3434  0.1560 -0.2942
  710MOL0     C93633  -2.591  10.685   8.568  0.5793  0.6765  0.4984
  710MOL0     C93634  -2.457  10.643   8.549 -1.1275  0.3698  0.2194
  710MOL0     O93635  -2.204  10.798   8.256  0.3327  0.3517  0.4964
  710MOL0     C93636  -2.004  10.564   8.447  0.1262  0.3204  1.3996
  710MOL0     C93637  -1.869  10.541   8.470  1.0897  0.8592 -0.0883
  710MOL0     N93638  -1.057  10.835   8.339  1.0413 -0.4399  0.7349
  710MOL0     N93639  -0.947  10.892   8.311  0.5037  0.3505  0.2824
  710MOL0     C93640   0.154  10.758   8.630 -0.4896 -0.2907  0.2374
  710MOL0     C93641   0.286  10.779   8.676  0.7859  0.4149  0.0177
  710MOL0     C93642   0.672  10.988   8.799  0.3655  0.1328  0.2628
  710MOL0     C93643   0.668  11.017   8.939 -0.0792 -0.0588 -0.2245
  710MOL0     C93644   0.793  11.033   9.009 -0.0730 -0.0038  0.2834
  710MOL0     C93645   0.912  11.011   8.948 -0.0694 -0.0341  0.1412
  710MOL0     O93646   1.029  11.019   9.016 -0.4196  0.2187 -0.2813
  710MOL0     C93647   1.062  11.151   9.070  1.2653  0.6270  0.2642
  710MOL0     C93648   1.199  11.136   9.148 -0.3036  0.5201 -0.2713
  710MOL0     C93649   1.310  11.143   9.040  0.2189 -1.0502 -0.1224
  710MOL0     C93650   1.447  11.134   9.106  0.0206 -0.1218  0.1519
  710MOL0     C93651   1.554  11.119   9.007 -0.6486 -0.1375  0.4393
  710MOL0     C93652   1.637  11.115   8.924  0.0296  0.2079 -0.7794
  710MOL0     C93653   0.909  10.984   8.818  0.2851  0.6434 -0.5534
  710MOL0     C93654   0.796  10.978   8.739  0.0187  0.5539  0.9537
  710MOL0     H93655   0.299  11.118   8.654 -0.8629  0.8016 -0.7965
  710MOL0     H93656   0.070  11.083   8.570  1.2941  0.6650  0.4117
  710MOL0     H93657   0.030  10.923   8.337  0.7105 -4.1398  2.0600
  710MOL0     H93658  -0.091  11.029   8.419  1.4303  0.2371 -0.4744
  710MOL0     H93659  -0.265  10.869   8.385  1.4758 -3.5677  4.2799
  710MOL0     H93660  -0.168  10.739   8.340 -5.0542  0.2898 -0.3725
  710MOL0     H93661  -0.090  10.867   8.131  0.3562 -2.1232 -0.3802
  710MOL0     H93662  -0.195  10.999   8.181  0.5742 -0.5487  0.6198
  710MOL0     H93663  -0.306  10.897   8.018  2.1298  1.2434  0.9046
  710MOL0     H93664  -0.262  10.727   8.061 -1.5184 -0.9379  0.2473
  710MOL0     H93665  -0.447  10.881   8.237  1.8481  0.0261  1.4597
  710MOL0     H93666  -0.407  10.707   8.243 -1.1011 -0.9116 -0.0181
  710MOL0     H93667  -0.491  10.677   8.014 -1.2391 -0.8488 -0.7202
  710MOL0     H93668  -0.545  10.844   8.017  0.7334 -0.0496  0.4526
  710MOL0     H93669  -0.736  10.682   8.049  0.6628 -0.5109 -1.0946
  710MOL0     H93670  -0.657  10.606   8.192  0.6228  0.7943  1.5286
  710MOL0     H93671  -0.718  10.905   8.199  3.1752 -0.4563 -0.8411
  710MOL0     H93672  -0.667  10.812   8.334  0.4589  0.1859 -0.2895
  710MOL0     H93673  -0.896  10.580   8.243  1.5325  0.6094 -1.3714
  710MOL0     H93674  -1.145  10.577   8.472  1.1678 -1.8412  0.4755
  710MOL0     H93675  -1.114  10.492   8.323  1.9548 -0.4234  1.8313
  710MOL0     H93676  -1.306  10.591   8.213 -2.5747  0.7465  0.8464
  710MOL0     H93677  -1.299  10.727   8.309 -0.4530  0.0365 -1.8687
  710MOL0     H93678  -1.401  10.460   8.422 -0.5958  0.4522  1.3659
  710MOL0     H93679  -1.388  10.613   8.507 -1.1293  0.5420  0.5734
  710MOL0     H93680  -1.547  10.606   8.244  4.6284  0.4262 -0.3926
  710MOL0     H93681  -1.532  10.724   8.362  0.4439  0.8779  0.7821
  710MOL0     H93682  -1.721  10.764   8.260  1.5651 -1.4781  1.3009
  710MOL0     H93683  -1.950  10.816   8.210 -3.0180  1.2730  1.4095
  710MOL0     H93684  -2.433  10.813   8.255 -1.0280  0.1957 -0.1361
  710MOL0     H93685  -2.641  10.882   8.295  1.6235  1.4871  1.3863
  710MOL0     H93686  -2.873  10.800   8.324 -1.8188 -3.6674  0.2330
  710MOL0     H93687  -2.960  10.899   8.432 -2.0501 -1.3715 -2.3078
  710MOL0     H93688  -2.964  10.601   8.402  1.7232  1.7694  0.9615
  710MOL0     H93689  -3.092  10.728   8.389 -1.1516  0.7602  1.2867
  710MOL0     H93690  -3.040  10.778   8.642 -0.8944 -1.0196  1.8660
  710MOL0     H93691  -2.986  10.606   8.638 -0.3469  0.9904  2.5823
  710MOL0     H93692  -3.255  10.669   8.687  1.2278 -0.7484  0.7278
  710MOL0     H93693  -3.261  10.700   8.518  0.5546 -2.9888 -2.3828
  710MOL0     H93694  -3.172  10.441   8.641 -0.4935 -2.0161 -1.3329
  710MOL0     H93695  -3.190  10.466   8.471 -0.0796 -3.5886  0.3658
  710MOL0     H93696  -3.400  10.421   8.689  0.4473  1.8196  0.7409
  710MOL0     H93697  -3.386  10.369   8.522  0.2561  1.2466 -0.0449
  710MOL0     H93698  -3.462  10.664   8.600  1.4171  1.3358 -2.1403
  710MOL0     H93699  -3.458  10.603   8.439 -2.4196  0.9571  0.1579
  710MOL0     H93700  -3.669  10.610   8.504  0.5989  0.9992  0.3587
  710MOL0     H93701  -3.644  10.479   8.629  0.1726 -3.2122 -1.3292
  710MOL0     H93702  -2.645  10.656   8.658  0.5488  1.3885  0.7179
  710MOL0     H93703  -2.404  10.583   8.622 -0.2948  0.0962 -0.5851
  710MOL0     H93704  -2.080  10.519   8.510  1.4857 -0.5186  2.5104
  710MOL0     H93705  -1.836  10.458   8.532  0.3583 -1.6768 -2.8978
  710MOL0     H93706   0.117  10.658   8.612  2.8598 -1.2481 -2.3254
  710MOL0     H93707   0.333  10.686   8.706 -2.1913 -1.3463 -0.3972
  710MOL0     H93708   0.575  11.028   8.995  1.0502 -3.3878  2.6704
  710MOL0     H93709   0.781  11.068   9.112 -1.3548  0.5041 -0.0189
  710MOL0     H93710   0.991  11.183   9.147  1.8660 -0.1661  1.1653
  710MOL0     H93711   1.077  11.230   8.995 -0.0328  0.4599 -0.2099
  710MOL0     H93712   1.213  11.215   9.222  3.5577  0.0480 -0.3133
  710MOL0     H93713   1.208  11.045   9.209  1.1039  1.1731  0.5312
  710MOL0     H93714   1.302  11.241   8.993  0.2395 -0.4826  1.0322
  710MOL0     H93715   1.298  11.054   8.976 -2.5582 -2.2268  1.8464
  710MOL0     H93716   1.476  11.223   9.163  1.6437 -0.6213  0.1560
  710MOL0     H93717   1.461  11.046   9.170  0.6239  0.0036  0.1972
  710MOL0     H93718   1.713  11.105   8.848  0.5524 -1.0603 -0.1197
  710MOL0     H93719   1.000  10.956   8.765  1.4473 -2.4949  2.6462
  710MOL0     H93720   0.813  10.955   8.634  2.6929 -0.5708  1.5623
  711MOL0     O93721   9.744  11.026   8.408  0.2440 -0.4954 -0.3045
  711MOL0     C93722   9.760  11.150   8.427 -0.2714  0.2694 -0.0310
  711MOL0     O93723   9.667  11.257   8.409  0.2061  0.2890 -0.5207
  711MOL0     C93724   9.543  11.236   8.355 -0.8163 -0.2322 -0.8493
  711MOL0     C93725   9.472  11.118   8.358  0.8861  0.6989 -0.6674
  711MOL0     C93726   9.335  11.118   8.313  0.0929  0.1800 -0.0617
  711MOL0     C93727   9.288  11.226   8.248 -0.8314  1.1116 -0.3249
  711MOL0     O93728   9.161  11.231   8.197 -0.2120 -0.5544 -1.0628
  711MOL0     C93729   9.059  11.137   8.245  0.5058 -1.0590 -0.1635
  711MOL0     C93730   9.011  11.159   8.389  0.4295 -0.0777 -0.9900
  711MOL0     C93731   8.860  11.188   8.400 -0.1981 -0.3287  0.9046
  711MOL0     C93732   8.807  11.174   8.540 -1.0521  0.2931  0.1216
  711MOL0     C93733   8.656  11.208   8.543  0.1425 -0.0660 -0.3334
  711MOL0     C93734   8.595  11.118   8.657  0.3125 -0.4424 -0.7105
  711MOL0     C93735   8.446  11.145   8.678  0.5419  0.2136  0.4639
  711MOL0     C93736   8.392  11.059   8.789 -0.2518 -0.9236 -0.4761
  711MOL0     N93737   8.271  11.089   8.855 -1.0789 -0.3217  0.2286
  711MOL0     C93738   8.251  11.199   8.921 -0.2112  0.4151  0.2337
  711MOL0     C93739   8.113  11.194   8.950 -0.2661  0.4899  0.1415
  711MOL0     C93740   8.037  11.319   8.998  0.2101  0.5560  0.6209
  711MOL0     C93741   7.917  11.273   9.081 -0.6093 -0.0581 -0.2703
  711MOL0     C93742   7.816  11.380   9.114  0.4815  0.5785 -0.5032
  711MOL0     C93743   7.854  11.455   9.247 -0.2814  0.6682 -0.1024
  711MOL0     O93744   7.756  11.457   9.350  0.6580  0.0209 -0.1369
  711MOL0     C93745   7.628  11.505   9.332  0.1455  0.2748  0.5535
  711MOL0     C93746   7.596  11.567   9.211 -0.2523 -0.6714  0.2086
  711MOL0     C93747   7.462  11.610   9.199 -0.1125 -0.0998 -0.0736
  711MOL0     C93748   7.367  11.595   9.297  0.0128 -0.1100  0.2162
  711MOL0     C93749   7.229  11.633   9.269  0.7546 -0.7003 -0.2698
  711MOL0     O93750   7.148  11.645   9.377  0.9430  0.2350 -0.0504
  711MOL0     C93751   7.012  11.669   9.373 -0.4804  0.2711  0.2554
  711MOL0     C93752   6.920  11.578   9.319 -0.0367 -0.4966 -0.1349
  711MOL0     C93753   6.780  11.610   9.325 -0.1823 -0.9190 -0.3907
  711MOL0     C93754   6.734  11.723   9.382  0.2454 -0.0560 -0.3886
  711MOL0     O93755   6.595  11.736   9.387 -0.0091  0.0952  0.2533
  711MOL0     C93756   6.536  11.848   9.437 -0.4318  0.4062 -0.6597
  711MOL0     C93757   6.485  11.805   9.579 -0.6459 -0.6270  0.5859
  711MOL0     C93758   6.358  11.712   9.579 -0.6069  0.1178  0.0646
  711MOL0     C93759   6.324  11.695   9.727  0.0752  1.0031  0.8690
  711MOL0     C93760   6.219  11.579   9.752 -0.0729  0.6345 -0.4870
  711MOL0     C93761   6.204  11.534   9.908  0.2334  0.0502 -0.0022
  711MOL0     C93762   6.117  11.403   9.908  0.0548  0.4299 -0.4801
  711MOL0     C93763   6.142  11.316  10.035 -0.8511  0.1625  0.1371
  711MOL0    Cl93764   6.007  11.215  10.070 -0.1828  0.3163  0.2080
  711MOL0     C93765   6.831  11.808   9.443  0.8279  0.2743  0.1567
  711MOL0     C93766   6.962  11.775   9.443 -1.1132 -0.0922  0.8117
  711MOL0     O93767   7.194  11.645   9.150 -0.4940 -0.5488 -0.5145
  711MOL0     C93768   7.401  11.532   9.414 -0.5450 -0.4656 -1.0000
  711MOL0     C93769   7.533  11.480   9.431 -0.1477  0.2848 -0.1354
  711MOL0     N93770   8.068  11.058   8.913  0.3714 -0.2772 -0.2691
  711MOL0     N93771   8.162  11.007   8.857 -1.0739 -0.0354  0.6317
  711MOL0     C93772   9.363  11.337   8.227  0.2040  0.2945 -0.5333
  711MOL0     C93773   9.497  11.339   8.279  0.0059 -0.2605 -0.0644
  711MOL0     C93774   9.895  11.194   8.470 -0.2539  0.6810 -0.1570
  711MOL0     C93775   9.936  11.332   8.470 -0.9192  0.0679 -0.4966
  711MOL0     C93776  10.069  11.375   8.476 -0.6679  0.6167 -0.1368
  711MOL0     C93777  10.170  11.274   8.489 -0.6769  0.7816  0.7186
  711MOL0     O93778  10.301  11.321   8.488 -0.0626  0.3002  0.5298
  711MOL0     C93779  10.407  11.239   8.438 -0.1978  0.2157 -0.1803
  711MOL0     C93780  10.421  11.215   8.278  0.1426 -0.0901  1.0950
  711MOL0     C93781  10.448  11.353   8.204 -0.3535  0.0874  0.5672
  711MOL0     C93782  10.425  11.352   8.052  1.1861  0.5336  0.0350
  711MOL0     C93783  10.487  11.471   7.992  0.5644 -0.2803  0.5278
  711MOL0     C93784  10.539  11.568   7.941  0.1331  0.0309  0.2629
  711MOL0     C93785  10.134  11.145   8.519 -0.1009  0.0081 -0.5246
  711MOL0     C93786   9.998  11.109   8.506 -0.7194 -0.3669  0.1703
  711MOL0     H93787   9.512  11.031   8.409  0.9401  1.6560  0.9961
  711MOL0     H93788   9.268  11.035   8.334 -1.5367  1.9249  2.1023
  711MOL0     H93789   9.092  11.033   8.235  0.2270 -1.0588 -1.1321
  711MOL0     H93790   8.969  11.138   8.182 -1.3031 -0.9979  2.2427
  711MOL0     H93791   9.065  11.232   8.450  0.6352 -0.5530 -0.5978
  711MOL0     H93792   9.016  11.060   8.437  0.8483 -0.2420 -1.3631
  711MOL0     H93793   8.807  11.118   8.335 -1.5306  1.9450 -0.5757
  711MOL0     H93794   8.839  11.283   8.352  1.0135 -1.0208 -1.1312
  711MOL0     H93795   8.822  11.065   8.545  2.4239  0.6925  1.7519
  711MOL0     H93796   8.874  11.224   8.611 -0.7531 -0.7681  0.6156
  711MOL0     H93797   8.606  11.182   8.449  0.7122 -1.1749 -0.3445
  711MOL0     H93798   8.641  11.311   8.577  0.5985  0.3504 -1.3748
  711MOL0     H93799   8.657  11.135   8.746 -0.8587 -2.1028  0.4927
  711MOL0     H93800   8.604  11.011   8.637 -1.6209 -0.4714 -1.5978
  711MOL0     H93801   8.435  11.253   8.692  0.0074  0.1839  0.2829
  711MOL0     H93802   8.387  11.123   8.589 -2.5683 -0.0023  2.4204
  711MOL0     H93803   8.461  11.043   8.873 -0.6046 -0.6598 -0.1342
  711MOL0     H93804   8.389  10.966   8.732  1.7488 -0.1535 -1.9806
  711MOL0     H93805   8.320  11.280   8.943 -2.8860  3.0041 -0.2747
  711MOL0     H93806   7.996  11.374   8.912 -0.9170  0.5153  1.1138
  711MOL0     H93807   8.104  11.382   9.056 -0.2362  0.5068  1.2042
  711MOL0     H93808   7.955  11.222   9.170 -0.1435  1.3336  0.3549
  711MOL0     H93809   7.872  11.194   9.020  1.0063  0.3973 -2.1487
  711MOL0     H93810   7.795  11.453   9.035 -0.6772 -0.8669 -1.6064
  711MOL0     H93811   7.730  11.312   9.113  1.6565 -0.9646 -2.0133
  711MOL0     H93812   7.880  11.557   9.219  0.0202 -0.1937 -3.4746
  711MOL0     H93813   7.943  11.422   9.302 -1.7572 -0.8916  1.4925
  711MOL0     H93814   7.664  11.599   9.133  0.0767 -0.2882  0.6436
  711MOL0     H93815   7.434  11.665   9.109  0.0572  2.1893  1.1925
  711MOL0     H93816   6.969  11.490   9.278  0.5182  0.1805 -0.9450
  711MOL0     H93817   6.706  11.551   9.273 -1.9534  2.1546 -1.6667
  711MOL0     H93818   6.448  11.869   9.375 -1.7460 -1.8012  0.3147
  711MOL0     H93819   6.604  11.934   9.440  0.4233 -0.2871  0.8641
  711MOL0     H93820   6.462  11.892   9.641 -4.3082  0.0357 -1.4160
  711MOL0     H93821   6.562  11.742   9.625 -0.8400  0.7219  2.8879
  711MOL0     H93822   6.380  11.613   9.536  0.3877  0.3691 -0.0158
  711MOL0     H93823   6.278  11.755   9.518 -1.6499  1.0243  2.0102
  711MOL0     H93824   6.412  11.677   9.790 -0.5613  1.8710  2.0391
  711MOL0     H93825   6.282  11.790   9.760  2.5720  1.7596  2.0941
  711MOL0     H93826   6.252  11.492   9.695  1.5032  0.9554 -0.1130
  711MOL0     H93827   6.122  11.611   9.711 -1.1717 -1.2184  0.5551
  711MOL0     H93828   6.167  11.620   9.965  0.4574  1.2477 -1.5978
  711MOL0     H93829   6.307  11.520   9.941  0.0310 -0.6239  0.3656
  711MOL0     H93830   6.016  11.442   9.891  0.9281  1.8742 -3.0270
  711MOL0     H93831   6.151  11.352   9.817  1.4499  0.9634 -0.2865
  711MOL0     H93832   6.156  11.384  10.120  0.1865 -1.7847  1.5884
  711MOL0     H93833   6.233  11.261  10.011 -1.1301 -0.2071 -0.0844
  711MOL0     H93834   6.795  11.900   9.487 -3.8661 -0.4920 -1.4252
  711MOL0     H93835   7.027  11.848   9.490 -0.7423  1.9815 -2.6101
  711MOL0     H93836   7.319  11.525   9.485  0.3444  0.1724  0.1256
  711MOL0     H93837   7.561  11.432   9.524 -0.1536 -2.2832 -1.3824
  711MOL0     H93838   9.320  11.407   8.156  2.6506  0.2547 -2.1669
  711MOL0     H93839   9.560  11.426   8.261 -0.0384 -0.6969 -2.7309
  711MOL0     H93840   9.848  11.390   8.445  0.4322  1.9973 -0.9716
  711MOL0     H93841  10.116  11.470   8.457  2.4462 -0.8231 -0.2402
  711MOL0     H93842  10.403  11.136   8.475 -0.4331  0.6312  0.9779
  711MOL0     H93843  10.503  11.283   8.464 -0.3058  1.2342 -1.4037
  711MOL0     H93844  10.502  11.146   8.255 -1.0914 -0.3612 -3.6684
  711MOL0     H93845  10.327  11.168   8.246  0.2221 -0.4648  1.4081
  711MOL0     H93846  10.554  11.366   8.227 -0.3902 -1.8823  2.1086
  711MOL0     H93847  10.387  11.437   8.241  0.3544  0.5949  0.6117
  711MOL0     H93848  10.472  11.261   8.012  3.1559  1.8983 -0.9224
  711MOL0     H93849  10.316  11.347   8.041  1.2462 -3.8765 -0.2661
  711MOL0     H93850  10.593  11.631   7.873  1.3971 -0.8393  0.4191
  711MOL0     H93851  10.203  11.062   8.533  0.9671  0.9658  0.0994
  711MOL0     H93852   9.978  11.002   8.504  2.6807 -1.1609 -2.4740
  712MOL0     O93853   4.630   7.094   7.246 -0.0302 -0.1686 -0.3546
  712MOL0     C93854   4.653   6.980   7.215  0.3000 -0.2802  0.3786
  712MOL0     O93855   4.562   6.887   7.169  0.4570 -0.1552  0.1300
  712MOL0     C93856   4.433   6.889   7.183 -0.5586  0.1961  0.8547
  712MOL0     C93857   4.361   6.935   7.290  0.0311  0.0007 -0.2873
  712MOL0     C93858   4.219   6.926   7.295 -0.4299 -1.0692 -0.6975
  712MOL0     C93859   4.148   6.889   7.176  0.3593  0.5307  0.7462
  712MOL0     O93860   4.010   6.876   7.162 -0.3583 -0.0687  0.3872
  712MOL0     C93861   3.928   6.952   7.244  0.0986 -0.2492  0.0908
  712MOL0     C93862   3.787   6.962   7.178  0.0247 -0.1522 -0.4684
  712MOL0     C93863   3.789   7.000   7.025 -0.1083 -0.2146 -0.1659
  712MOL0     C93864   3.683   7.110   6.986 -0.4646  0.4213 -0.8830
  712MOL0     C93865   3.578   7.048   6.894  0.9722  0.0324 -0.5185
  712MOL0     C93866   3.503   6.928   6.963 -0.1770 -0.0786 -0.0066
  712MOL0     C93867   3.385   6.874   6.878  0.0372  0.3381  1.0719
  712MOL0     C93868   3.263   6.939   6.940 -0.0558 -0.6070  0.2460
  712MOL0     N93869   3.137   6.906   6.870  0.8155 -0.3455  0.3425
  712MOL0     C93870   3.094   6.947   6.745  0.3811 -0.4760 -0.3451
  712MOL0     C93871   2.990   6.869   6.710 -0.8648  0.1796  0.8421
  712MOL0     C93872   2.903   6.875   6.587 -0.1585 -0.3788 -0.3734
  712MOL0     C93873   2.807   6.990   6.593  0.7152  0.4321  0.6759
  712MOL0     C93874   2.691   6.964   6.495  0.0317  0.0477 -0.7508
  712MOL0     C93875   2.590   7.087   6.492  0.0507  0.0641 -1.4301
  712MOL0     O93876   2.508   7.092   6.375 -0.6323  0.1273 -0.2654
  712MOL0     C93877   2.413   7.189   6.361 -0.5545  0.0253  0.1711
  712MOL0     C93878   2.415   7.314   6.433 -0.3389  0.2241 -0.2090
  712MOL0     C93879   2.310   7.411   6.407 -0.6051  0.5524 -0.3462
  712MOL0     C93880   2.227   7.406   6.298  0.2231 -0.1651  0.5006
  712MOL0     C93881   2.131   7.526   6.261 -0.5237  0.0825 -0.0855
  712MOL0     O93882   2.075   7.516   6.132 -0.4337 -0.0043 -0.4850
  712MOL0     C93883   1.972   7.589   6.096 -0.1723  0.5370 -0.0505
  712MOL0     C93884   1.982   7.688   6.004 -0.0415  0.5561 -0.3459
  712MOL0     C93885   1.862   7.748   5.951 -0.0017 -0.2265  0.0039
  712MOL0     C93886   1.732   7.717   5.999  0.8012 -0.9061 -0.2859
  712MOL0     O93887   1.624   7.789   5.954 -0.1360  0.3524  0.0533
  712MOL0     C93888   1.496   7.733   5.990  0.4089 -0.6421  0.2238
  712MOL0     C93889   1.390   7.783   5.886  0.0819 -0.2242  0.9758
  712MOL0     C93890   1.246   7.781   5.931  0.1867  0.0928 -0.1575
  712MOL0     C93891   1.153   7.825   5.817 -0.4082 -0.6130  0.5136
  712MOL0     C93892   1.011   7.873   5.859  0.5613  0.4646 -0.1235
  712MOL0     C93893   0.948   7.927   5.727 -0.0637 -0.0445  0.1552
  712MOL0     C93894   0.807   7.988   5.762  0.4176  0.8488  0.5207
  712MOL0     C93895   0.743   8.038   5.637  0.4930  0.4956  0.1650
  712MOL0    Cl93896   0.573   8.078   5.651  0.0090 -0.0383 -0.4120
  712MOL0     C93897   1.721   7.614   6.088  0.6117  0.3642 -0.3781
  712MOL0     C93898   1.841   7.557   6.140 -0.2544 -0.2187  0.3135
  712MOL0     O93899   2.099   7.609   6.350 -0.2364  0.2641  0.0848
  712MOL0     C93900   2.244   7.300   6.207  0.3118 -0.2661  0.0325
  712MOL0     C93901   2.333   7.190   6.243  1.3871 -0.9499  0.9261
  712MOL0     N93902   2.968   6.779   6.810 -0.0378  0.5069 -0.2886
  712MOL0     N93903   3.065   6.794   6.898 -0.1891  0.2326  0.4815
  712MOL0     C93904   4.219   6.850   7.066  0.4766 -0.1967 -0.5130
  712MOL0     C93905   4.359   6.849   7.075 -0.4205 -0.1784  0.3086
  712MOL0     C93906   4.792   6.930   7.217 -0.1197 -1.1612 -1.2241
  712MOL0     C93907   4.897   7.021   7.256 -0.1206  0.1990 -0.2852
  712MOL0     C93908   5.028   6.977   7.258 -0.5118 -0.5348 -0.0908
  712MOL0     C93909   5.058   6.848   7.218 -0.6174 -0.1758 -0.2603
  712MOL0     O93910   5.188   6.804   7.203 -0.1889  0.0270 -0.8069
  712MOL0     C93911   5.298   6.871   7.253 -0.2700  0.1604 -0.3742
  712MOL0     C93912   5.412   6.771   7.266 -0.3071 -0.7116 -0.3655
  712MOL0     C93913   5.491   6.736   7.137  0.2642  0.0956  0.2736
  712MOL0     C93914   5.620   6.649   7.172  0.0183 -0.1114  0.5253
  712MOL0     C93915   5.707   6.726   7.256 -0.8308 -0.2189  0.1742
  712MOL0     C93916   5.762   6.786   7.349 -0.5236  0.2534  0.8383
  712MOL0     C93917   4.958   6.765   7.176 -0.7168 -0.3556 -0.3081
  712MOL0     C93918   4.831   6.802   7.171 -0.1868 -0.4113  0.1540
  712MOL0     H93919   4.413   6.966   7.380 -3.1310  1.5880  1.1672
  712MOL0     H93920   4.179   6.928   7.396  0.2134  1.4339 -0.4361
  712MOL0     H93921   3.968   7.051   7.269  1.1470 -1.2294  2.6654
  712MOL0     H93922   3.910   6.907   7.342 -2.6860 -0.8452 -0.6029
  712MOL0     H93923   3.726   7.030   7.238  0.7622  1.8964 -1.9020
  712MOL0     H93924   3.744   6.862   7.186 -0.2157 -0.0616 -0.6011
  712MOL0     H93925   3.795   6.914   6.957 -0.0970  0.1903 -0.6854
  712MOL0     H93926   3.877   7.062   7.009  1.5907 -3.0263 -2.8209
  712MOL0     H93927   3.646   7.146   7.082  0.9810 -3.4080  1.3597
  712MOL0     H93928   3.734   7.194   6.937  0.5593  0.9838  1.0289
  712MOL0     H93929   3.615   7.013   6.797  0.3921 -1.8390 -0.0960
  712MOL0     H93930   3.498   7.122   6.880 -0.7957 -0.8029  3.7847
  712MOL0     H93931   3.459   6.965   7.056 -1.9089 -1.2851 -0.2993
  712MOL0     H93932   3.578   6.855   6.994  2.3982  2.1042 -0.7285
  712MOL0     H93933   3.387   6.898   6.771 -4.8828  1.4820  1.0111
  712MOL0     H93934   3.367   6.766   6.873  0.1374  0.3275  0.9274
  712MOL0     H93935   3.281   7.046   6.926 -0.1014 -0.8323 -1.8636
  712MOL0     H93936   3.256   6.910   7.045 -0.9971 -0.2836  0.2894
  712MOL0     H93937   3.136   7.024   6.682  0.1951 -0.8322 -0.9125
  712MOL0     H93938   2.846   6.781   6.589 -0.0843 -0.4085  0.7849
  712MOL0     H93939   2.965   6.875   6.497  1.9023  1.7346  0.9644
  712MOL0     H93940   2.862   7.080   6.563 -0.2719  0.5533 -0.8881
  712MOL0     H93941   2.769   7.000   6.695 -0.8977  2.3447 -0.0521
  712MOL0     H93942   2.727   6.940   6.394 -0.0481 -0.9800 -0.5503
  712MOL0     H93943   2.639   6.877   6.536  0.0250  0.5121  0.2477
  712MOL0     H93944   2.655   7.175   6.499 -1.0303  0.8004  0.0399
  712MOL0     H93945   2.524   7.085   6.579  2.6594 -0.1376  0.6737
  712MOL0     H93946   2.485   7.329   6.515  0.1451  1.7384 -0.8698
  712MOL0     H93947   2.318   7.494   6.477  2.7494 -1.3785  1.8551
  712MOL0     H93948   2.078   7.716   5.963 -0.0523 -0.4887 -1.1373
  712MOL0     H93949   1.862   7.825   5.874  0.8510 -0.6067 -0.3849
  712MOL0     H93950   1.466   7.762   6.091  0.5704 -1.1917  0.4336
  712MOL0     H93951   1.498   7.624   5.980  1.4649 -0.6905  0.7973
  712MOL0     H93952   1.403   7.713   5.803  1.6229  0.0297  0.9816
  712MOL0     H93953   1.411   7.887   5.863  0.9480 -0.3315  1.2635
  712MOL0     H93954   1.241   7.846   6.019 -0.1782 -1.7728  1.2707
  712MOL0     H93955   1.212   7.687   5.975 -2.1494  1.8886  2.2244
  712MOL0     H93956   1.214   7.892   5.756  0.9701  1.0178  3.4351
  712MOL0     H93957   1.133   7.745   5.746 -0.8919 -0.4441  0.4558
  712MOL0     H93958   1.021   7.958   5.927  2.1177  0.1955  0.0147
  712MOL0     H93959   0.956   7.789   5.902  2.8689 -0.8099  0.4809
  712MOL0     H93960   0.943   7.852   5.647  3.0601  0.9520 -1.1627
  712MOL0     H93961   1.008   8.001   5.674  1.0373 -0.5593  0.6461
  712MOL0     H93962   0.745   7.911   5.809  1.4312 -0.0621  0.4045
  712MOL0     H93963   0.827   8.073   5.829 -0.3211 -1.6729  4.2104
  712MOL0     H93964   0.757   7.959   5.563  3.2592  1.8588 -0.8864
  712MOL0     H93965   0.796   8.122   5.593 -1.8321  1.2140 -1.4613
  712MOL0     H93966   1.632   7.589   6.144  0.2521  1.5504 -0.4106
  712MOL0     H93967   1.838   7.485   6.221  0.5092 -0.7198 -0.0846
  712MOL0     H93968   2.171   7.292   6.127 -2.5322  0.3326  2.3898
  712MOL0     H93969   2.335   7.098   6.186  0.3672 -1.7993  2.2083
  712MOL0     H93970   4.162   6.808   6.984  0.7882 -2.4701  0.3576
  712MOL0     H93971   4.401   6.821   6.979 -2.3342  3.1718 -1.6670
  712MOL0     H93972   4.878   7.121   7.296  0.3690  0.4623 -0.7019
  712MOL0     H93973   5.107   7.047   7.283 -0.0673 -1.8191  2.4680
  712MOL0     H93974   5.268   6.913   7.349  1.6865  1.4983 -0.2657
  712MOL0     H93975   5.320   6.958   7.190 -1.1154 -1.3207 -2.8661
  712MOL0     H93976   5.479   6.804   7.346 -2.4723 -2.2515  2.2512
  712MOL0     H93977   5.367   6.678   7.301 -4.7244  1.1785 -0.3036
  712MOL0     H93978   5.523   6.827   7.086 -0.0666 -1.0268 -2.0782
  712MOL0     H93979   5.423   6.680   7.072 -5.1808 -0.0021  5.1949
  712MOL0     H93980   5.601   6.552   7.220 -0.1794 -0.5722 -0.4531
  712MOL0     H93981   5.656   6.618   7.073  0.1588 -0.0574  0.5587
  712MOL0     H93982   5.802   6.833   7.437 -3.4640  4.4464  0.1987
  712MOL0     H93983   4.980   6.670   7.129  2.5311  1.7372 -3.5733
  712MOL0     H93984   4.760   6.730   7.131 -0.3826  0.2896 -0.7750
  713MOL0     O93985  10.846   6.822   7.258 -0.4108 -0.3277  0.4234
  713MOL0     C93986  10.935   6.834   7.171  0.6040 -0.0413 -0.4468
  713MOL0     O93987  10.910   6.827   7.031  0.6024 -0.2877 -0.5179
  713MOL0     C93988  10.777   6.830   6.988  0.2993 -0.0190  0.2136
  713MOL0     C93989  10.745   6.752   6.870  0.1740  0.3613  0.1348
  713MOL0     C93990  10.607   6.743   6.830 -0.5405 -0.6135 -0.8259
  713MOL0     C93991  10.505   6.815   6.912 -0.0818  0.2433 -0.0466
  713MOL0     O93992  10.371   6.811   6.891  0.0829 -0.0338  0.2834
  713MOL0     C93993  10.327   6.758   6.768 -0.2829  0.3042  0.2703
  713MOL0     C93994  10.176   6.765   6.755  0.5995 -0.1072 -1.5800
  713MOL0     C93995  10.095   6.697   6.872 -0.6784 -0.2022  0.2306
  713MOL0     C93996   9.939   6.728   6.862 -1.0481  0.2141 -0.0819
  713MOL0     C93997   9.853   6.598   6.865  0.1052 -0.7852  0.3005
  713MOL0     C93998   9.703   6.625   6.892 -0.2223  0.8255  0.2148
  713MOL0     C93999   9.626   6.497   6.929 -0.6495  0.7214  0.2692
  713MOL0     C94000   9.481   6.535   6.949  1.3373 -0.0644 -0.2882
  713MOL0     N94001   9.396   6.414   6.941 -0.3006  0.2813 -0.1929
  713MOL0     C94002   9.393   6.316   7.041 -0.1193  0.6141 -0.3210
  713MOL0     C94003   9.310   6.223   6.997  0.1514  1.2316  0.2622
  713MOL0     C94004   9.284   6.090   7.062 -0.3115  0.4547  0.5402
  713MOL0     C94005   9.155   6.090   7.148 -0.8267  0.2851  0.4733
  713MOL0     C94006   9.120   5.951   7.191  0.5765 -0.7842  0.1164
  713MOL0     C94007   8.971   5.938   7.237 -0.6865 -0.4935  0.3237
  713MOL0     O94008   8.960   5.813   7.305  0.6339 -0.3694  0.4857
  713MOL0     C94009   8.838   5.746   7.319 -0.7447  0.1826  0.4129
  713MOL0     C94010   8.848   5.618   7.368 -0.1162  0.2369  0.1280
  713MOL0     C94011   8.730   5.546   7.371 -0.2606  0.3945  0.1970
  713MOL0     C94012   8.607   5.591   7.325 -0.5909 -0.7948  0.8350
  713MOL0     C94013   8.479   5.523   7.352 -0.2707  0.1332  0.7216
  713MOL0     O94014   8.487   5.406   7.420  0.0846 -0.5827 -0.2719
  713MOL0     C94015   8.372   5.336   7.429  0.7167  0.9146 -0.0028
  713MOL0     C94016   8.327   5.269   7.312 -0.1077  0.0086 -0.0830
  713MOL0     C94017   8.222   5.171   7.319 -0.5195 -0.1843 -0.0647
  713MOL0     C94018   8.136   5.173   7.426 -0.4839  0.6146  1.1740
  713MOL0     O94019   8.035   5.080   7.417 -0.1092 -0.2125 -0.2035
  713MOL0     C94020   7.971   5.052   7.542  0.0581 -0.0659  0.0887
  713MOL0     C94021   7.863   4.946   7.505 -0.6401  1.5810 -0.3697
  713MOL0     C94022   7.794   4.895   7.639 -0.4476 -0.7972 -0.3381
  713MOL0     C94023   7.650   4.855   7.608  0.0062  0.1611 -0.3270
  713MOL0     C94024   7.572   4.807   7.727 -0.1912  0.2450 -0.6966
  713MOL0     C94025   7.424   4.795   7.691  0.3115  0.4129  0.2025
  713MOL0     C94026   7.389   4.667   7.607 -0.1806  0.0737 -0.3480
  713MOL0     C94027   7.237   4.654   7.586  0.1788 -0.4976  0.6924
  713MOL0    Cl94028   7.196   4.534   7.459  0.3235 -0.1550 -0.0594
  713MOL0     C94029   8.175   5.251   7.539 -0.1207  1.3868 -0.1175
  713MOL0     C94030   8.291   5.330   7.538  0.3523 -1.2257 -0.2819
  713MOL0     O94031   8.377   5.574   7.314 -0.3670 -0.0830 -0.2979
  713MOL0     C94032   8.609   5.712   7.267  1.1016  0.3715 -0.8488
  713MOL0     C94033   8.720   5.785   7.267  0.3778 -0.5702 -0.0574
  713MOL0     N94034   9.279   6.252   6.860  0.0167 -0.7229 -0.4986
  713MOL0     N94035   9.337   6.366   6.830  0.1832 -0.0841  0.2655
  713MOL0     C94036  10.542   6.898   7.016  0.0753 -0.2599 -1.1458
  713MOL0     C94037  10.672   6.905   7.054 -0.8480  0.0596  0.2411
  713MOL0     C94038  11.078   6.850   7.209 -0.0341 -0.5353  0.7439
  713MOL0     C94039  11.170   6.836   7.096 -0.3476  0.2568 -0.4210
  713MOL0     C94040  11.312   6.845   7.120 -1.3479 -0.1988  0.1475
  713MOL0     C94041  11.359   6.875   7.248  0.8037  0.2582 -0.1183
  713MOL0     O94042  11.495   6.894   7.249  0.1164  0.2856  0.4538
  713MOL0     C94043  11.555   6.926   7.374 -0.5979 -0.1423 -0.5123
  713MOL0     C94044  11.696   6.990   7.352 -0.1041  0.0739 -0.9884
  713MOL0     C94045  11.679   7.128   7.297  0.0840 -0.6678  0.4028
  713MOL0     C94046  11.804   7.225   7.317  0.5982 -0.9841 -0.1259
  713MOL0     C94047  11.787   7.365   7.279  0.2053  0.2621 -0.3368
  713MOL0     C94048  11.748   7.462   7.228 -0.0215 -0.0348  0.2923
  713MOL0     C94049  11.269   6.886   7.351  1.1277 -0.3194 -0.7938
  713MOL0     C94050  11.130   6.877   7.333  0.0632 -0.0260  0.3991
  713MOL0     H94051  10.823   6.700   6.814 -0.8030 -1.2638  0.2144
  713MOL0     H94052  10.578   6.683   6.744  1.7406  0.1444 -2.1938
  713MOL0     H94053  10.356   6.653   6.758  2.4263  0.7909  1.9975
  713MOL0     H94054  10.362   6.806   6.676 -0.7714  0.2272  0.0400
  713MOL0     H94055  10.149   6.719   6.660 -1.3096 -2.4880 -0.0311
  713MOL0     H94056  10.139   6.868   6.755  1.5230  0.2786  0.4812
  713MOL0     H94057  10.141   6.738   6.963  0.3355 -2.2016  0.6774
  713MOL0     H94058  10.113   6.590   6.869 -2.2321 -0.7300  3.8626
  713MOL0     H94059   9.900   6.788   6.944 -0.1384  0.9358 -0.1552
  713MOL0     H94060   9.916   6.771   6.764 -1.0744  1.3091  0.3863
  713MOL0     H94061   9.883   6.534   6.948 -1.5445 -1.3289  0.5029
  713MOL0     H94062   9.867   6.547   6.769  2.5346  1.9766 -0.9685
  713MOL0     H94063   9.652   6.673   6.807  1.2924  0.5691 -0.8862
  713MOL0     H94064   9.691   6.710   6.960 -0.1021  2.6936 -1.9677
  713MOL0     H94065   9.628   6.422   6.850 -0.3003 -2.1791  2.8486
  713MOL0     H94066   9.658   6.448   7.021 -4.9167 -0.3119  1.4053
  713MOL0     H94067   9.452   6.607   6.872 -0.5141  1.0593  1.3819
  713MOL0     H94068   9.477   6.593   7.042  3.2537  0.0676 -0.2300
  713MOL0     H94069   9.444   6.317   7.137 -0.5945 -0.5480 -0.0292
  713MOL0     H94070   9.367   6.051   7.121 -0.4754 -1.2033 -0.2677
  713MOL0     H94071   9.276   6.028   6.972  2.0004  3.0875 -1.6798
  713MOL0     H94072   9.076   6.130   7.085  0.6364  2.8463  0.1261
  713MOL0     H94073   9.157   6.154   7.237 -1.8959  1.5768 -0.3889
  713MOL0     H94074   9.140   5.888   7.104 -0.7748  3.1555 -3.3695
  713MOL0     H94075   9.185   5.917   7.272  2.4713 -2.0985 -1.8493
  713MOL0     H94076   8.908   5.946   7.148  0.4339 -1.0913 -0.5430
  713MOL0     H94077   8.948   6.012   7.315 -0.1927  0.8800 -0.7871
  713MOL0     H94078   8.945   5.579   7.395 -0.6446 -1.5727 -0.4513
  713MOL0     H94079   8.744   5.449   7.419  1.4647  1.7464  2.5805
  713MOL0     H94080   8.372   5.276   7.213 -0.1933  3.7047  0.0079
  713MOL0     H94081   8.206   5.109   7.232  4.1498 -4.5838  1.7000
  713MOL0     H94082   7.924   5.144   7.578  0.0522  0.9127 -2.2443
  713MOL0     H94083   8.043   5.010   7.613 -0.0115 -0.8542 -0.2982
  713MOL0     H94084   7.910   4.858   7.460  1.8279  2.0136  1.1812
  713MOL0     H94085   7.797   4.989   7.429  0.0495  1.9995 -0.7337
  713MOL0     H94086   7.802   4.975   7.713 -2.1939  0.3282 -1.3114
  713MOL0     H94087   7.842   4.803   7.676 -2.7138 -2.1251 -0.4935
  713MOL0     H94088   7.599   4.945   7.571 -1.4091  0.3081  1.8144
  713MOL0     H94089   7.651   4.777   7.532 -1.3745 -2.5890  2.2824
  713MOL0     H94090   7.596   4.871   7.812 -2.7212 -0.2416  0.4855
  713MOL0     H94091   7.604   4.705   7.752  2.3171  1.1297  0.0327
  713MOL0     H94092   7.380   4.880   7.639 -1.7631 -0.6652  0.1126
  713MOL0     H94093   7.371   4.781   7.785 -3.1426 -2.1663 -1.8749
  713MOL0     H94094   7.449   4.669   7.515  0.8878 -2.0935  0.2180
  713MOL0     H94095   7.424   4.574   7.654  0.8518  0.6167 -0.0056
  713MOL0     H94096   7.209   4.751   7.543 -0.8408 -2.3264 -3.1685
  713MOL0     H94097   7.183   4.646   7.681 -2.1216 -2.4275 -0.6901
  713MOL0     H94098   8.132   5.245   7.639 -0.8674 -0.2695 -0.4990
  713MOL0     H94099   8.325   5.402   7.611 -0.5842  0.5416 -1.5158
  713MOL0     H94100   8.514   5.743   7.225 -0.3693 -1.2337  1.0805
  713MOL0     H94101   8.705   5.883   7.221 -0.5132 -0.0230  1.3459
  713MOL0     H94102  10.459   6.949   7.063  1.0006  0.9498 -0.7616
  713MOL0     H94103  10.691   6.966   7.141  0.3592 -0.2666  0.2156
  713MOL0     H94104  11.137   6.802   6.998  0.8309 -2.2414 -0.0231
  713MOL0     H94105  11.384   6.830   7.041 -2.5657 -4.6116 -0.3779
  713MOL0     H94106  11.571   6.833   7.430 -0.6070  1.1019  1.6527
  713MOL0     H94107  11.499   6.991   7.442  2.4994 -1.0194  3.2245
  713MOL0     H94108  11.755   7.002   7.444 -1.2455  1.4290 -0.3939
  713MOL0     H94109  11.754   6.924   7.287  0.6941  0.7338 -0.9680
  713MOL0     H94110  11.589   7.166   7.346 -0.5662 -1.0881 -0.4413
  713MOL0     H94111  11.661   7.124   7.189  1.6019  0.0364  0.1013
  713MOL0     H94112  11.840   7.222   7.420 -0.5622  1.1970  0.4306
  713MOL0     H94113  11.880   7.184   7.251  1.9433  2.1004 -0.6947
  713MOL0     H94114  11.719   7.558   7.189 -1.1183 -1.0594 -1.5634
  713MOL0     H94115  11.308   6.892   7.452 -0.7260  0.5302 -0.0872
  713MOL0     H94116  11.074   6.883   7.426 -0.2468  0.0690  0.2105
  714MOL0     O94117   6.902   3.388   1.252  0.4336  0.0276  0.5939
  714MOL0     C94118   6.972   3.288   1.283 -0.0443 -0.6611  0.3085
  714MOL0     O94119   6.923   3.162   1.312  0.2021 -0.0941 -0.3813
  714MOL0     C94120   6.795   3.130   1.284  0.1484 -0.9017 -0.4610
  714MOL0     C94121   6.735   3.043   1.372 -1.0178  0.0689 -0.8361
  714MOL0     C94122   6.609   2.990   1.349  0.1439 -1.5058 -1.5840
  714MOL0     C94123   6.542   3.027   1.228  0.4620 -0.2019 -0.7706
  714MOL0     O94124   6.416   2.984   1.196 -0.2822  0.5839 -0.9141
  714MOL0     C94125   6.320   2.976   1.302 -0.3994 -0.6133  0.7299
  714MOL0     C94126   6.194   2.915   1.223  0.0852  0.2655 -0.4514
  714MOL0     C94127   6.180   2.766   1.204  0.3141  0.3889 -0.1361
  714MOL0     C94128   6.049   2.707   1.142  0.1454  0.0835  0.3540
  714MOL0     C94129   6.054   2.549   1.140 -0.3121 -0.7544  0.5842
  714MOL0     C94130   6.048   2.480   1.275  0.4361 -0.3094 -0.6510
  714MOL0     C94131   5.956   2.521   1.395  0.1231  0.1217  0.5281
  714MOL0     C94132   5.802   2.504   1.351  0.0315 -0.1722 -0.3020
  714MOL0     N94133   5.771   2.370   1.325  0.3192  0.1377  0.1751
  714MOL0     C94134   5.733   2.281   1.426 -0.7389  0.0112  0.3274
  714MOL0     C94135   5.688   2.165   1.363 -0.0256 -0.0168  0.3195
  714MOL0     C94136   5.646   2.028   1.416 -0.3857 -0.2098 -0.0303
  714MOL0     C94137   5.629   1.921   1.300  0.4677 -0.3821  0.0757
  714MOL0     C94138   5.492   1.937   1.220 -0.2907 -0.2715  1.1916
  714MOL0     C94139   5.375   1.907   1.310  0.8222 -0.3786  0.4205
  714MOL0     O94140   5.381   1.776   1.374  0.0890  0.1075 -0.6634
  714MOL0     C94141   5.300   1.681   1.306 -0.3286  0.0469  0.7490
  714MOL0     C94142   5.163   1.669   1.331  0.0784  1.1392  0.3198
  714MOL0     C94143   5.090   1.558   1.274 -0.5366 -0.2030 -0.2902
  714MOL0     C94144   5.154   1.486   1.176  0.0627  0.2221  0.0563
  714MOL0     C94145   5.075   1.374   1.118  0.2532  0.4189 -0.7649
  714MOL0     O94146   4.939   1.362   1.136 -0.0108 -0.4179  0.0853
  714MOL0     C94147   4.865   1.258   1.089  0.2183  0.5855  0.7092
  714MOL0     C94148   4.889   1.192   0.967  0.0789  0.3352 -0.2484
  714MOL0     C94149   4.787   1.102   0.912  0.3094  0.2813  0.3368
  714MOL0     C94150   4.673   1.072   0.987 -0.3185 -0.0576  0.2015
  714MOL0     O94151   4.579   0.976   0.940  0.0871 -0.6008 -0.0329
  714MOL0     C94152   4.533   0.869   1.033  0.5334  0.2761 -0.2750
  714MOL0     C94153   4.485   0.750   0.956  0.8036 -0.2559 -0.7180
  714MOL0     C94154   4.580   0.644   0.908  0.5392 -0.3304  0.3458
  714MOL0     C94155   4.615   0.523   1.003  0.3855 -0.4522  0.3732
  714MOL0     C94156   4.689   0.414   0.931 -1.7015  0.1459  0.6977
  714MOL0     C94157   4.758   0.312   1.028  0.4966  0.0694  0.3175
  714MOL0     C94158   4.863   0.215   0.960 -0.0467  0.3592 -0.2811
  714MOL0     C94159   4.812   0.155   0.831 -0.3667 -0.1095 -0.4244
  714MOL0    Cl94160   4.930   0.021   0.786 -0.3080  0.3939  0.7009
  714MOL0     C94161   4.652   1.139   1.108 -0.1004 -0.3772  0.6539
  714MOL0     C94162   4.739   1.240   1.154  0.5166  0.2612 -0.2799
  714MOL0     O94163   5.149   1.287   1.073  0.5981 -1.3031  0.1827
  714MOL0     C94164   5.293   1.501   1.153  0.1669 -0.2817 -0.6625
  714MOL0     C94165   5.362   1.584   1.228  0.3650 -0.7561 -0.6779
  714MOL0     N94166   5.712   2.190   1.227  1.1711  0.7897  0.1279
  714MOL0     N94167   5.747   2.311   1.202 -0.3157 -0.0810 -0.9824
  714MOL0     C94168   6.602   3.102   1.133  0.2308  0.2503  0.2967
  714MOL0     C94169   6.720   3.163   1.168  0.2076 -0.5690 -0.3353
  714MOL0     C94170   7.114   3.290   1.312  0.3866 -0.8549 -0.5373
  714MOL0     C94171   7.186   3.184   1.367 -0.5652 -0.1472 -0.3285
  714MOL0     C94172   7.321   3.190   1.400 -0.3014  0.2919 -0.0436
  714MOL0     C94173   7.393   3.310   1.388 -0.3578 -0.1984 -0.5869
  714MOL0     O94174   7.524   3.342   1.410 -0.1573  0.0953 -0.1770
  714MOL0     C94175   7.594   3.249   1.486  0.0289  0.4540  0.5294
  714MOL0     C94176   7.541   3.220   1.627  0.4701  0.1803  0.0674
  714MOL0     C94177   7.558   3.341   1.712  0.0149  0.2860 -0.4375
  714MOL0     C94178   7.465   3.333   1.834 -0.2009 -0.0104 -0.1114
  714MOL0     C94179   7.508   3.436   1.937 -0.2915 -0.1404 -0.9195
  714MOL0     C94180   7.561   3.507   2.023 -0.2731 -0.9449 -0.8660
  714MOL0     C94181   7.315   3.410   1.349 -0.7528 -0.2861  0.2110
  714MOL0     C94182   7.185   3.412   1.307 -0.1787  0.6881  0.6584
  714MOL0     H94183   6.792   3.012   1.459  0.3061  0.7532 -1.4302
  714MOL0     H94184   6.555   2.953   1.436 -0.1094  2.0565 -0.0252
  714MOL0     H94185   6.303   3.081   1.327  1.0256  0.5018 -2.4660
  714MOL0     H94186   6.350   2.924   1.394  0.8551  0.6656  1.0853
  714MOL0     H94187   6.168   2.966   1.130 -2.9138 -0.1595  0.0352
  714MOL0     H94188   6.111   2.944   1.287  2.1176  1.5842  1.7373
  714MOL0     H94189   6.177   2.716   1.301 -1.3251  0.0775 -0.3258
  714MOL0     H94190   6.265   2.728   1.146 -1.0487 -5.2672  1.0349
  714MOL0     H94191   5.967   2.745   1.203 -0.4175 -1.0205  0.3144
  714MOL0     H94192   6.048   2.738   1.037 -1.9070  0.0254  0.3216
  714MOL0     H94193   6.148   2.519   1.093  0.2573 -0.2428  1.3694
  714MOL0     H94194   5.968   2.511   1.084 -0.2181 -1.6987  1.0742
  714MOL0     H94195   6.150   2.486   1.313 -0.0504 -0.9057  0.8410
  714MOL0     H94196   6.033   2.373   1.258  3.1194 -0.9183  0.3843
  714MOL0     H94197   5.981   2.478   1.492 -0.7447 -0.0700  0.6703
  714MOL0     H94198   5.975   2.627   1.414 -0.3123  0.1105  1.0482
  714MOL0     H94199   5.779   2.574   1.270  4.5161  1.6400 -0.3360
  714MOL0     H94200   5.749   2.524   1.444  1.4816  0.2520  0.4708
  714MOL0     H94201   5.714   2.297   1.532 -1.1290  1.1871  0.0964
  714MOL0     H94202   5.555   2.044   1.474 -1.0163 -0.0267 -1.0507
  714MOL0     H94203   5.699   1.980   1.499  0.3737  0.4051 -0.1453
  714MOL0     H94204   5.655   1.822   1.338  1.3239 -0.8716 -1.7118
  714MOL0     H94205   5.712   1.931   1.230  0.7919 -2.2041  0.1654
  714MOL0     H94206   5.487   2.034   1.169 -2.0590 -1.4673 -1.1559
  714MOL0     H94207   5.492   1.861   1.141 -0.0318  1.3714 -0.4707
  714MOL0     H94208   5.289   1.893   1.244 -0.4056 -1.6253  2.1699
  714MOL0     H94209   5.346   1.978   1.387  1.6231  2.6444 -1.8809
  714MOL0     H94210   5.119   1.752   1.384  1.1419  1.6921  0.3617
  714MOL0     H94211   4.984   1.555   1.294 -0.2415  2.2469  2.2029
  714MOL0     H94212   4.983   1.206   0.913  0.0373  4.3726  0.4187
  714MOL0     H94213   4.802   1.046   0.820  0.4461 -0.0880  0.5803
  714MOL0     H94214   4.445   0.910   1.084  0.8525  1.8743 -0.9524
  714MOL0     H94215   4.605   0.827   1.105  1.2572 -1.8141 -2.1055
  714MOL0     H94216   4.414   0.782   0.879 -3.2171 -3.1836  1.3666
  714MOL0     H94217   4.424   0.700   1.032 -0.9172 -0.0928 -1.9229
  714MOL0     H94218   4.671   0.700   0.882 -0.2975  0.6975 -0.4844
  714MOL0     H94219   4.539   0.604   0.815 -0.4595  2.7266 -0.6499
  714MOL0     H94220   4.670   0.562   1.089 -0.6086  1.5133  0.1700
  714MOL0     H94221   4.526   0.474   1.044  0.9533 -0.6586  1.3868
  714MOL0     H94222   4.762   0.475   0.875  0.3764 -1.9249  1.0087
  714MOL0     H94223   4.617   0.357   0.872 -0.6605 -1.3142  0.7806
  714MOL0     H94224   4.684   0.242   1.069 -0.2180  1.0911  0.8485
  714MOL0     H94225   4.805   0.368   1.109  1.0324  1.6584 -1.0308
  714MOL0     H94226   4.958   0.268   0.953 -0.5919  1.4874  0.6395
  714MOL0     H94227   4.871   0.131   1.031  1.6742 -0.1521 -1.0239
  714MOL0     H94228   4.811   0.231   0.752  0.6528  1.4609  1.0297
  714MOL0     H94229   4.709   0.120   0.844 -0.5210  1.1224  2.2888
  714MOL0     H94230   4.557   1.110   1.150  0.9616 -1.3420  2.5089
  714MOL0     H94231   4.721   1.304   1.239  0.2203  1.2285 -1.0448
  714MOL0     H94232   5.335   1.450   1.067  1.6841  0.7591 -0.5866
  714MOL0     H94233   5.469   1.597   1.216 -0.0378  2.0880 -2.0865
  714MOL0     H94234   6.551   3.111   1.038 -3.1956 -0.3445  1.9168
  714MOL0     H94235   6.760   3.245   1.108  0.2444  2.8494  3.8935
  714MOL0     H94236   7.141   3.088   1.389  0.5204 -0.1833  2.0616
  714MOL0     H94237   7.367   3.094   1.421 -2.6651 -0.8070  0.4882
  714MOL0     H94238   7.694   3.292   1.501 -1.0587  2.5211  2.4031
  714MOL0     H94239   7.583   3.158   1.426  0.8223  0.5516  0.2273
  714MOL0     H94240   7.434   3.196   1.630  0.4836  0.2100  1.6119
  714MOL0     H94241   7.577   3.124   1.664 -0.7952  0.3858  1.9442
  714MOL0     H94242   7.529   3.429   1.654  2.0052  1.5743  0.3920
  714MOL0     H94243   7.666   3.350   1.731 -0.3421 -0.0346  2.0681
  714MOL0     H94244   7.368   3.365   1.795 -1.1233 -2.9474 -0.5376
  714MOL0     H94245   7.468   3.229   1.869 -1.4655  0.1697  0.6235
  714MOL0     H94246   7.618   3.575   2.082 -2.3303  1.1835 -1.1657
  714MOL0     H94247   7.356   3.511   1.354 -0.5073 -0.3049 -1.1494
  714MOL0     H94248   7.135   3.505   1.284 -1.2579 -0.4599 -2.0613
  715MOL0     O94249   2.466   3.717   4.424 -0.0943 -0.3213  0.1393
  715MOL0     C94250   2.430   3.617   4.358 -0.1409  0.0641 -0.3256
  715MOL0     O94251   2.310   3.552   4.379 -0.4078  0.1565  0.3599
  715MOL0     C94252   2.222   3.579   4.487  0.7126  0.5273  0.3817
  715MOL0     C94253   2.104   3.510   4.482  0.1604 -0.1339  0.2403
  715MOL0     C94254   2.003   3.526   4.580 -0.7355  0.1580 -0.0724
  715MOL0     C94255   2.026   3.609   4.685 -0.0322 -0.3354 -0.5340
  715MOL0     O94256   1.939   3.632   4.787 -0.2013 -0.3936  0.1924
  715MOL0     C94257   1.805   3.565   4.784 -0.5029 -0.1432 -0.2680
  715MOL0     C94258   1.711   3.608   4.895 -1.3037  0.1922 -0.3559
  715MOL0     C94259   1.590   3.506   4.908 -0.1762 -0.4462 -0.3392
  715MOL0     C94260   1.523   3.458   4.780  0.1096 -0.3329  0.9921
  715MOL0     C94261   1.436   3.564   4.711 -0.8625 -0.5002  0.1117
  715MOL0     C94262   1.309   3.587   4.797 -0.5882 -0.5768  0.3316
  715MOL0     C94263   1.191   3.616   4.706 -0.5871 -0.2464  0.1137
  715MOL0     C94264   1.134   3.499   4.625  0.5502 -0.4616  0.1401
  715MOL0     N94265   1.056   3.407   4.704  0.8486 -0.3717  0.0558
  715MOL0     C94266   1.106   3.297   4.757 -0.6114  0.2699 -0.1210
  715MOL0     C94267   0.994   3.230   4.805  0.2711  0.3725  0.3875
  715MOL0     C94268   0.989   3.104   4.883  0.3224  1.1306 -0.5678
  715MOL0     C94269   0.881   2.996   4.833 -0.3513  0.4658  0.2013
  715MOL0     C94270   0.950   2.868   4.800  0.2309  0.0409  1.1278
  715MOL0     C94271   0.857   2.752   4.751 -0.3958 -0.7050  0.2814
  715MOL0     O94272   0.823   2.658   4.858  0.8349 -0.7590  0.6393
  715MOL0     C94273   0.759   2.709   4.970  0.3645  0.9256 -0.6936
  715MOL0     C94274   0.817   2.766   5.079  0.0520  0.2100  0.2912
  715MOL0     C94275   0.733   2.803   5.184 -0.5048 -0.3234 -0.6164
  715MOL0     C94276   0.602   2.772   5.188  0.3844 -0.6894 -0.0008
  715MOL0     C94277   0.521   2.801   5.308 -0.3417 -0.3332 -0.2890
  715MOL0     O94278   0.388   2.783   5.300  0.9879 -0.0505  0.2227
  715MOL0     C94279   0.294   2.775   5.402 -0.1266 -0.7259  0.0383
  715MOL0     C94280   0.168   2.724   5.368  0.0004 -0.0002  0.5221
  715MOL0     C94281   0.061   2.720   5.457  0.3900  0.1254  0.4204
  715MOL0     C94282   0.078   2.775   5.578 -0.2228 -0.0484 -0.7169
  715MOL0     O94283  -0.032   2.774   5.666 -0.1258 -0.1044  0.3489
  715MOL0     C94284  -0.164   2.799   5.613  0.0433 -0.9522  0.1817
  715MOL0     C94285  -0.174   2.941   5.544 -0.9112  0.9812  0.2403
  715MOL0     C94286  -0.310   2.970   5.499 -0.8912  0.7848  0.0089
  715MOL0     C94287  -0.355   2.901   5.367  1.5945 -0.5849 -0.8547
  715MOL0     C94288  -0.497   2.939   5.328 -0.6382  0.5402  0.0531
  715MOL0     C94289  -0.533   3.081   5.353 -0.8318  0.2122  0.7408
  715MOL0     C94290  -0.666   3.121   5.294  0.1498 -0.9741  0.2792
  715MOL0     C94291  -0.689   3.267   5.311 -0.4048  0.9291 -0.1191
  715MOL0    Cl94292  -0.733   3.315   5.483 -0.4829 -0.0114 -0.3327
  715MOL0     C94293   0.203   2.817   5.622 -0.5839 -0.4805 -0.3901
  715MOL0     C94294   0.310   2.832   5.530 -0.2041 -0.0570 -0.3026
  715MOL0     O94295   0.586   2.838   5.411  0.3506  0.5179  0.4111
  715MOL0     C94296   0.549   2.706   5.080  0.4544 -0.0145 -0.7729
  715MOL0     C94297   0.618   2.682   4.968 -0.9422 -0.1922  0.5149
  715MOL0     N94298   0.886   3.313   4.798 -0.4657  0.6776  0.1787
  715MOL0     N94299   0.917   3.414   4.723 -0.4848 -0.9148  0.0859
  715MOL0     C94300   2.144   3.683   4.690  1.1646 -0.7508  0.0537
  715MOL0     C94301   2.243   3.667   4.594  0.0336  0.4009 -0.0367
  715MOL0     C94302   2.529   3.546   4.272  0.7489 -0.1592  0.2732
  715MOL0     C94303   2.654   3.596   4.250  0.3704  0.3253  0.4029
  715MOL0     C94304   2.752   3.518   4.188 -0.3627 -0.7427  0.3017
  715MOL0     C94305   2.730   3.392   4.147 -0.2160  1.0363 -0.5571
  715MOL0     O94306   2.835   3.322   4.092 -0.1066 -0.2922  0.1921
  715MOL0     C94307   2.829   3.204   4.015 -0.2176  0.3417  0.1048
  715MOL0     C94308   2.745   3.216   3.886  0.6060 -0.2922 -0.2916
  715MOL0     C94309   2.821   3.293   3.777 -0.4667 -0.0289  0.0255
  715MOL0     C94310   2.735   3.321   3.660 -0.0507  0.4945  0.1632
  715MOL0     C94311   2.621   3.408   3.688  0.4240  0.2431  0.5840
  715MOL0     C94312   2.534   3.495   3.685 -0.1405  0.0240  0.3884
  715MOL0     C94313   2.603   3.347   4.163  0.3112 -0.3175  0.0887
  715MOL0     C94314   2.507   3.415   4.236 -0.8313  0.1877 -0.3475
  715MOL0     H94315   2.081   3.450   4.394 -0.1440  1.3696 -0.7479
  715MOL0     H94316   1.913   3.466   4.568  0.7029 -1.9614 -0.9700
  715MOL0     H94317   1.826   3.459   4.801 -2.4062 -0.5531 -0.2339
  715MOL0     H94318   1.755   3.581   4.688  0.3362  2.4962 -0.3522
  715MOL0     H94319   1.686   3.714   4.883  2.1394  1.1038 -0.4407
  715MOL0     H94320   1.761   3.607   4.992 -2.6891  3.8894  0.5843
  715MOL0     H94321   1.510   3.552   4.966 -2.8703 -0.7945 -3.4858
  715MOL0     H94322   1.627   3.417   4.960  0.6470 -1.5902 -2.7077
  715MOL0     H94323   1.588   3.416   4.703 -0.2860 -2.0429  1.5419
  715MOL0     H94324   1.446   3.386   4.811 -2.7333  1.2777 -1.8272
  715MOL0     H94325   1.405   3.533   4.610 -0.9391  0.4738 -0.1743
  715MOL0     H94326   1.490   3.659   4.705 -0.4480 -0.7071  0.5431
  715MOL0     H94327   1.321   3.667   4.872 -1.1651  1.8653 -2.0363
  715MOL0     H94328   1.280   3.496   4.851 -0.8290  0.6841  2.4403
  715MOL0     H94329   1.112   3.642   4.778 -0.0909 -0.7147  0.8391
  715MOL0     H94330   1.215   3.704   4.645 -2.3312  0.3888  0.2727
  715MOL0     H94331   1.216   3.441   4.581 -0.8728 -1.5320 -1.2155
  715MOL0     H94332   1.081   3.542   4.540  2.3049 -1.8311 -1.7666
  715MOL0     H94333   1.212   3.277   4.752 -0.2010  1.7156  1.8235
  715MOL0     H94334   0.974   3.114   4.991 -1.3132 -5.8595  0.3501
  715MOL0     H94335   1.090   3.062   4.874 -0.6259 -0.9327 -3.0956
  715MOL0     H94336   0.828   3.036   4.746  2.2081  1.0139 -1.1840
  715MOL0     H94337   0.806   2.976   4.911 -0.6978  1.6744  0.1982
  715MOL0     H94338   1.017   2.898   4.719  0.7955 -1.4015  1.0481
  715MOL0     H94339   1.015   2.835   4.881  1.4565 -0.3328  0.0241
  715MOL0     H94340   0.908   2.702   4.668  3.0990  2.8429 -0.0330
  715MOL0     H94341   0.768   2.792   4.700  0.5188  0.4819 -0.4444
  715MOL0     H94342   0.915   2.811   5.067  2.0255 -3.6574  0.3638
  715MOL0     H94343   0.774   2.858   5.268 -1.7919 -0.6580  0.2695
  715MOL0     H94344   0.150   2.696   5.265  1.2330  1.8639 -0.2522
  715MOL0     H94345  -0.031   2.671   5.426  0.2307  0.4482  0.3790
  715MOL0     H94346  -0.236   2.786   5.694 -0.2813 -0.1550  0.0314
  715MOL0     H94347  -0.189   2.725   5.536  1.3630 -0.6610 -0.5562
  715MOL0     H94348  -0.105   2.949   5.460 -1.0959  2.0398  0.1744
  715MOL0     H94349  -0.140   3.017   5.616 -0.7182  0.2223  0.9612
  715MOL0     H94350  -0.309   3.078   5.481  0.7069  0.4662 -2.2878
  715MOL0     H94351  -0.371   2.938   5.584 -1.2149 -1.5669 -1.0272
  715MOL0     H94352  -0.288   2.912   5.281  0.0820 -1.0590 -2.1516
  715MOL0     H94353  -0.359   2.793   5.381  1.1577 -0.3105  1.5989
  715MOL0     H94354  -0.568   2.879   5.385 -1.9606  1.5335 -0.4824
  715MOL0     H94355  -0.500   2.905   5.224  1.6243  1.2877 -0.3000
  715MOL0     H94356  -0.455   3.150   5.320 -1.3452  1.5060  2.1256
  715MOL0     H94357  -0.544   3.092   5.461  0.2910 -1.4427  1.0671
  715MOL0     H94358  -0.653   3.114   5.185  2.6775 -0.4006  0.4794
  715MOL0     H94359  -0.740   3.051   5.333 -0.7159 -0.3956 -0.3045
  715MOL0     H94360  -0.776   3.300   5.252 -0.3228  0.8881 -0.2629
  715MOL0     H94361  -0.596   3.321   5.294 -0.4393  0.8772 -0.4847
  715MOL0     H94362   0.218   2.853   5.724 -2.6661  0.9168 -0.5125
  715MOL0     H94363   0.397   2.889   5.559 -0.2647 -0.5910  1.0150
  715MOL0     H94364   0.447   2.669   5.088 -0.1667  1.7218 -0.3172
  715MOL0     H94365   0.593   2.628   4.877 -0.2964 -3.1648  1.9714
  715MOL0     H94366   2.148   3.762   4.764 -2.5804 -0.1320 -0.1959
  715MOL0     H94367   2.333   3.725   4.612  0.8230 -0.5236 -0.9191
  715MOL0     H94368   2.686   3.697   4.273 -2.0350  1.3961 -0.5684
  715MOL0     H94369   2.842   3.576   4.171 -1.2704  0.5662 -0.1766
  715MOL0     H94370   2.788   3.118   4.069  0.8456 -2.2840 -2.9745
  715MOL0     H94371   2.931   3.170   3.991  0.1746  0.4112  1.5794
  715MOL0     H94372   2.739   3.115   3.845 -1.8372  0.9221 -3.3585
  715MOL0     H94373   2.640   3.240   3.904 -0.6259 -3.6285 -2.1252
  715MOL0     H94374   2.899   3.221   3.751 -0.6296 -0.0305 -0.4636
  715MOL0     H94375   2.861   3.386   3.819 -0.1906 -0.6942  1.2799
  715MOL0     H94376   2.789   3.386   3.590  1.7782 -1.8920 -0.7811
  715MOL0     H94377   2.705   3.229   3.609  0.0563 -0.4134  1.6826
  715MOL0     H94378   2.458   3.568   3.700 -0.5453 -0.5956  1.4538
  715MOL0     H94379   2.586   3.241   4.145  1.1142 -0.7475  1.7089
  715MOL0     H94380   2.414   3.360   4.249 -0.2572 -0.5752  0.6538
  716MOL0     O94381   7.128   7.346   7.341  0.0757 -0.0758 -0.3696
  716MOL0     C94382   7.189   7.273   7.265  0.3445  1.0376 -0.5569
  716MOL0     O94383   7.170   7.133   7.247 -0.8905 -0.5927 -0.1478
  716MOL0     C94384   7.055   7.077   7.291  0.8450 -0.0718  0.1566
  716MOL0     C94385   7.062   6.945   7.334  0.1882 -0.0414  0.3526
  716MOL0     C94386   6.940   6.877   7.368  0.1309 -0.1393  0.6324
  716MOL0     C94387   6.811   6.939   7.338 -0.1902 -0.3632 -1.1187
  716MOL0     O94388   6.695   6.873   7.363  0.2180 -0.2439 -0.4149
  716MOL0     C94389   6.693   6.748   7.430  0.6065 -0.0853 -0.0713
  716MOL0     C94390   6.696   6.631   7.331 -1.2043  0.6855 -0.0051
  716MOL0     C94391   6.573   6.620   7.253  0.3157  0.4547  0.3040
  716MOL0     C94392   6.475   6.543   7.348  0.4498  0.4465  0.9887
  716MOL0     C94393   6.338   6.563   7.290  0.2638  0.5713 -0.3023
  716MOL0     C94394   6.250   6.455   7.359  0.7714  0.4075  0.2426
  716MOL0     C94395   6.102   6.469   7.312  0.1411 -0.1535  0.0027
  716MOL0     C94396   6.020   6.352   7.387  0.2486 -0.7544  0.6947
  716MOL0     N94397   5.875   6.359   7.340  0.4103  0.1258  0.3030
  716MOL0     C94398   5.768   6.362   7.429  1.0044  0.0487  0.0534
  716MOL0     C94399   5.666   6.313   7.361  0.1841 -0.1744 -0.0291
  716MOL0     C94400   5.532   6.289   7.408  0.4793 -0.2361 -0.4136
  716MOL0     C94401   5.443   6.413   7.406 -0.3924 -0.1067 -0.6954
  716MOL0     C94402   5.312   6.383   7.470 -0.3703  0.1002  0.6925
  716MOL0     C94403   5.234   6.511   7.489  0.0789  0.2862 -0.3265
  716MOL0     O94404   5.129   6.493   7.589  0.3951 -0.1670  0.0348
  716MOL0     C94405   5.014   6.567   7.591  0.6290 -0.7796 -0.9841
  716MOL0     C94406   4.919   6.530   7.689  0.4095  0.0604 -0.1961
  716MOL0     C94407   4.798   6.596   7.701  0.7524 -0.5254 -0.1026
  716MOL0     C94408   4.779   6.713   7.625  0.2831  0.1563  0.4161
  716MOL0     C94409   4.647   6.784   7.616 -0.1508  0.0187  0.1939
  716MOL0     O94410   4.549   6.753   7.711 -0.2069 -0.3620 -0.0735
  716MOL0     C94411   4.443   6.837   7.721 -0.7250  0.4873  0.2869
  716MOL0     C94412   4.339   6.796   7.652  0.1916 -0.4212 -0.3598
  716MOL0     C94413   4.218   6.861   7.677 -0.2147  0.3171  0.1934
  716MOL0     C94414   4.196   6.972   7.765  0.1344  0.9286  0.2514
  716MOL0     O94415   4.082   7.040   7.794  0.5250  0.6853 -1.0647
  716MOL0     C94416   3.962   6.974   7.754  0.3752  0.3290  0.0656
  716MOL0     C94417   3.831   7.051   7.789 -0.2027 -0.1350 -0.1856
  716MOL0     C94418   3.790   7.021   7.932  0.3326  0.5231  0.1413
  716MOL0     C94419   3.653   7.088   7.974 -1.1694 -0.0511 -0.2133
  716MOL0     C94420   3.624   7.101   8.123 -0.1350 -0.1933  1.0547
  716MOL0     C94421   3.484   7.159   8.143 -0.2453  0.1346  0.0732
  716MOL0     C94422   3.376   7.090   8.058 -0.5118  0.3621 -0.6224
  716MOL0     C94423   3.240   7.108   8.114  0.2945 -0.0955 -0.7137
  716MOL0    Cl94424   3.231   7.063   8.286 -0.2197  0.6253 -0.2457
  716MOL0     C94425   4.311   7.024   7.809 -1.5947 -0.6549 -0.0165
  716MOL0     C94426   4.434   6.951   7.799  0.6239 -0.0114 -0.4686
  716MOL0     O94427   4.637   6.866   7.524  0.4027 -0.8649 -0.7764
  716MOL0     C94428   4.883   6.763   7.540  0.0724 -0.5779 -0.4236
  716MOL0     C94429   5.003   6.690   7.519 -0.7726  0.0257 -0.2415
  716MOL0     N94430   5.704   6.288   7.230 -0.1740  0.7729 -0.1659
  716MOL0     N94431   5.830   6.305   7.225 -0.1532  0.7713 -0.4788
  716MOL0     C94432   6.813   7.078   7.297 -0.2662  0.4759 -0.4062
  716MOL0     C94433   6.931   7.144   7.271 -0.3075 -0.6514 -0.2470
  716MOL0     C94434   7.303   7.325   7.190 -1.1397 -0.7463 -0.4335
  716MOL0     C94435   7.386   7.238   7.114 -0.5063 -0.4193 -0.6321
  716MOL0     C94436   7.484   7.285   7.030 -0.1654  0.4104  0.1588
  716MOL0     C94437   7.515   7.424   7.027  0.2967 -1.5353 -0.7826
  716MOL0     O94438   7.623   7.470   6.952 -0.3565 -0.4976  0.3154
  716MOL0     C94439   7.690   7.602   6.973  0.5334  0.3638  0.5496
  716MOL0     C94440   7.775   7.610   7.104 -0.4694 -1.0845  0.0617
  716MOL0     C94441   7.917   7.607   7.081  0.2793 -0.1325 -0.7609
  716MOL0     C94442   7.980   7.598   7.217  0.5962  0.4078 -0.6166
  716MOL0     C94443   8.124   7.622   7.206  0.5040  0.0618 -0.7386
  716MOL0     C94444   8.241   7.648   7.181 -0.4055  0.0782 -0.4326
  716MOL0     C94445   7.433   7.516   7.102 -0.8990 -0.0989 -0.2844
  716MOL0     C94446   7.330   7.461   7.176 -1.2288  0.1997  0.6690
  716MOL0     H94447   7.156   6.896   7.353  1.0395  1.1671 -0.5591
  716MOL0     H94448   6.956   6.777   7.405  3.1068 -0.6183 -1.5760
  716MOL0     H94449   6.592   6.750   7.471  0.6420  1.7669 -0.0134
  716MOL0     H94450   6.765   6.734   7.511  0.6760 -2.0074 -0.4025
  716MOL0     H94451   6.708   6.546   7.398  0.7396  1.6335  0.9217
  716MOL0     H94452   6.782   6.635   7.263 -1.6812 -0.2591 -0.6948
  716MOL0     H94453   6.596   6.577   7.155 -1.5328  4.3219 -2.0638
  716MOL0     H94454   6.536   6.719   7.226 -1.8626  0.2063  2.0678
  716MOL0     H94455   6.505   6.438   7.357  1.1157  0.3936 -1.2150
  716MOL0     H94456   6.470   6.587   7.448 -1.3865  1.0642  0.6648
  716MOL0     H94457   6.333   6.534   7.184  0.6600  2.5479 -0.8993
  716MOL0     H94458   6.308   6.668   7.295 -1.4604  0.1098 -0.2560
  716MOL0     H94459   6.253   6.451   7.469 -5.1816 -2.6375  0.6653
  716MOL0     H94460   6.278   6.355   7.323 -0.5226  0.4224 -0.8638
  716MOL0     H94461   6.058   6.560   7.353  0.8655 -0.7020  2.1275
  716MOL0     H94462   6.076   6.471   7.206 -1.0216 -0.7298  0.2614
  716MOL0     H94463   6.020   6.381   7.492 -0.9908  1.4830  0.1550
  716MOL0     H94464   6.063   6.254   7.365 -0.4721 -1.3223  1.7189
  716MOL0     H94465   5.770   6.383   7.535  0.6911  1.9100 -0.2704
  716MOL0     H94466   5.526   6.256   7.512  1.3951  0.0442 -0.2678
  716MOL0     H94467   5.482   6.212   7.349  1.4931  0.2792 -1.9887
  716MOL0     H94468   5.431   6.455   7.305 -0.5733 -0.7278 -0.9329
  716MOL0     H94469   5.496   6.484   7.470 -0.6542  1.1176 -1.7930
  716MOL0     H94470   5.256   6.313   7.407 -2.2413  2.3162 -0.2695
  716MOL0     H94471   5.326   6.340   7.569  2.3697  0.6684  0.6340
  716MOL0     H94472   5.186   6.541   7.396  0.2751 -0.9128 -0.8340
  716MOL0     H94473   5.298   6.594   7.521  1.3696 -0.3454 -1.2220
  716MOL0     H94474   4.945   6.436   7.737  0.2384 -0.4705 -1.1113
  716MOL0     H94475   4.721   6.550   7.763  0.7718  1.5132  1.5655
  716MOL0     H94476   4.332   6.700   7.601 -0.8982 -0.8165  0.4780
  716MOL0     H94477   4.133   6.811   7.631 -0.4328 -1.3077  2.2095
  716MOL0     H94478   3.952   6.877   7.803 -0.5677 -1.3104 -3.1556
  716MOL0     H94479   3.964   6.968   7.645 -1.0451  0.7881 -0.0041
  716MOL0     H94480   3.748   7.007   7.732 -3.3699 -3.1190  5.7124
  716MOL0     H94481   3.837   7.157   7.766  0.4001 -0.8392 -3.7361
  716MOL0     H94482   3.871   7.061   7.994 -0.4438  0.4399  1.2339
  716MOL0     H94483   3.795   6.915   7.957  3.7197  0.4871 -0.2402
  716MOL0     H94484   3.652   7.186   7.926 -2.4046  0.4371  0.7530
  716MOL0     H94485   3.577   7.021   7.931  0.3896 -1.7183 -0.4732
  716MOL0     H94486   3.686   7.179   8.168 -0.0528  0.7504 -0.5945
  716MOL0     H94487   3.637   7.004   8.172  4.6666  0.3948  1.4142
  716MOL0     H94488   3.489   7.265   8.116  1.5795  0.0724  0.0158
  716MOL0     H94489   3.470   7.168   8.251  1.8935  2.7599  0.2474
  716MOL0     H94490   3.385   7.115   7.952 -1.3958 -1.9043 -1.2929
  716MOL0     H94491   3.401   6.984   8.070  1.5921  0.7022 -1.4956
  716MOL0     H94492   3.175   7.045   8.052  1.1475  0.0708 -1.8161
  716MOL0     H94493   3.208   7.212   8.099  2.0890  0.4156 -1.2648
  716MOL0     H94494   4.300   7.113   7.872 -0.7663 -0.4973 -0.0912
  716MOL0     H94495   4.517   7.004   7.845 -0.6692  0.3134  1.6450
  716MOL0     H94496   4.878   6.858   7.488 -0.4750  0.3386  1.2466
  716MOL0     H94497   5.080   6.734   7.456  2.0710 -0.9027  2.3717
  716MOL0     H94498   6.713   7.121   7.293  0.1848  2.1526  2.9968
  716MOL0     H94499   6.931   7.245   7.233  3.2864 -0.9372 -1.3691
  716MOL0     H94500   7.360   7.133   7.124 -2.3209 -0.2191 -2.6103
  716MOL0     H94501   7.540   7.213   6.972  0.0703  0.7399 -0.0210
  716MOL0     H94502   7.610   7.676   6.972 -1.8970 -2.0218 -1.9457
  716MOL0     H94503   7.758   7.620   6.889  0.3623  1.2969  0.6105
  716MOL0     H94504   7.747   7.708   7.145  3.2924 -0.9459  2.7387
  716MOL0     H94505   7.735   7.538   7.175 -1.9905  1.3508  1.8255
  716MOL0     H94506   7.959   7.686   7.017 -1.9959  1.7146 -0.0909
  716MOL0     H94507   7.925   7.517   7.019 -0.7199 -0.8719  0.1604
  716MOL0     H94508   7.936   7.672   7.285 -1.1048 -0.2323 -0.9943
  716MOL0     H94509   7.974   7.501   7.266  2.0639 -0.4401 -2.0036
  716MOL0     H94510   8.339   7.687   7.161 -1.2822  2.1735 -0.9047
  716MOL0     H94511   7.447   7.624   7.095 -2.4155  0.1488  0.0849
  716MOL0     H94512   7.272   7.540   7.223  1.3271  1.6818  1.4821
  717MOL0     O94513   0.272   4.322   3.563  0.3178  0.2920 -0.2139
  717MOL0     C94514   0.284   4.281   3.445 -0.0130 -0.5347  0.4806
  717MOL0     O94515   0.180   4.237   3.373 -0.7661 -0.0905 -0.1470
  717MOL0     C94516   0.051   4.235   3.410 -0.1574  0.0702  0.4225
  717MOL0     C94517   0.002   4.236   3.545  0.2817  0.0593 -0.0829
  717MOL0     C94518  -0.142   4.241   3.570 -0.3110 -0.9051  0.3693
  717MOL0     C94519  -0.225   4.204   3.462  0.3986  0.6422  0.1695
  717MOL0     O94520  -0.350   4.198   3.481 -0.1898  0.0801 -0.1530
  717MOL0     C94521  -0.413   4.312   3.430  0.0732  0.7646  0.0805
  717MOL0     C94522  -0.548   4.336   3.506 -0.2745 -0.4398  0.2481
  717MOL0     C94523  -0.637   4.432   3.421  0.5833  0.0934 -0.7762
  717MOL0     C94524  -0.780   4.437   3.459  0.5413 -0.2848 -0.3966
  717MOL0     C94525  -0.810   4.501   3.596 -0.3095  0.0300 -0.6276
  717MOL0     C94526  -0.968   4.516   3.618 -0.9167 -0.4886 -0.0097
  717MOL0     C94527  -1.015   4.576   3.747 -0.6571  0.7417 -0.6839
  717MOL0     C94528  -1.165   4.548   3.779  0.4040  0.0800  0.5110
  717MOL0     N94529  -1.214   4.623   3.896  0.3190  0.6891  0.3016
  717MOL0     C94530  -1.322   4.706   3.878  0.9290 -0.0568  0.3809
  717MOL0     C94531  -1.339   4.760   4.007 -0.3737  0.4108  0.7434
  717MOL0     C94532  -1.433   4.856   4.056  0.4254  0.8324  0.3891
  717MOL0     C94533  -1.534   4.811   4.160  0.1600 -0.1427  0.2864
  717MOL0     C94534  -1.617   4.689   4.106 -0.0914 -0.0339 -0.7502
  717MOL0     C94535  -1.694   4.720   3.973 -0.4504  0.2657  0.3237
  717MOL0     O94536  -1.763   4.607   3.929  0.6135 -0.0701 -0.5352
  717MOL0     C94537  -1.884   4.582   3.985  0.2982 -0.2159  0.0883
  717MOL0     C94538  -1.900   4.452   4.024 -0.1217  0.1102  0.3620
  717MOL0     C94539  -2.021   4.409   4.068  0.4671 -0.7791 -0.4926
  717MOL0     C94540  -2.126   4.490   4.100  0.2463 -1.0461 -0.3639
  717MOL0     C94541  -2.260   4.450   4.157  0.9881  0.1210  0.9641
  717MOL0     O94542  -2.354   4.554   4.191 -0.4034  0.3452  0.2892
  717MOL0     C94543  -2.485   4.519   4.193  0.3941  0.2350  0.7284
  717MOL0     C94544  -2.536   4.449   4.086 -0.1132  0.1752  0.0838
  717MOL0     C94545  -2.683   4.424   4.068 -0.3214  0.4571  1.2319
  717MOL0     C94546  -2.764   4.485   4.160 -0.6242  0.0142  0.2855
  717MOL0     O94547  -2.902   4.458   4.148 -0.6752 -0.0566 -0.0940
  717MOL0     C94548  -2.996   4.516   4.239 -0.4080 -0.9000  0.0534
  717MOL0     C94549  -3.109   4.412   4.268 -0.1957 -0.3486 -0.3417
  717MOL0     C94550  -3.079   4.320   4.386 -0.1666  0.1769 -0.5210
  717MOL0     C94551  -3.183   4.196   4.385 -0.7472  1.6066  0.0136
  717MOL0     C94552  -3.132   4.079   4.292  0.0099 -0.4054 -0.4541
  717MOL0     C94553  -3.232   3.964   4.263 -0.1726  0.6151  0.5217
  717MOL0     C94554  -3.233   3.862   4.382 -0.1639  0.0127 -0.5152
  717MOL0     C94555  -3.360   3.778   4.391  0.7256 -1.4387  0.7824
  717MOL0    Cl94556  -3.498   3.888   4.433 -0.0603 -0.5824  0.1325
  717MOL0     C94557  -2.717   4.574   4.257  0.4176 -0.9250 -0.2253
  717MOL0     C94558  -2.576   4.582   4.281  0.5266  0.4868 -0.0833
  717MOL0     O94559  -2.282   4.331   4.172 -0.3954  0.6561  0.1836
  717MOL0     C94560  -2.115   4.624   4.047 -0.5901 -0.0174  0.2546
  717MOL0     C94561  -1.992   4.676   3.992 -0.3572 -0.1347 -0.3185
  717MOL0     N94562  -1.247   4.705   4.089  0.3359 -0.3784 -0.4390
  717MOL0     N94563  -1.183   4.612   4.023  0.6248 -0.5145 -0.5100
  717MOL0     C94564  -0.176   4.193   3.334  0.0086 -0.0118 -0.3986
  717MOL0     C94565  -0.039   4.204   3.311 -0.6515 -0.5216 -0.2633
  717MOL0     C94566   0.419   4.243   3.394  0.6236 -0.0014  0.9759
  717MOL0     C94567   0.536   4.268   3.462 -0.1167  0.1188 -0.3974
  717MOL0     C94568   0.662   4.219   3.412 -0.0838 -0.1800  0.6432
  717MOL0     C94569   0.669   4.164   3.282 -0.1244 -0.2238 -0.9631
  717MOL0     O94570   0.792   4.134   3.224 -0.0436  0.0724 -0.1960
  717MOL0     C94571   0.903   4.121   3.314 -0.4700  0.4769 -0.1823
  717MOL0     C94572   1.017   4.061   3.227 -0.7480 -0.3224  1.0209
  717MOL0     C94573   1.077   4.162   3.124  0.0661 -0.5501  1.0495
  717MOL0     C94574   1.202   4.237   3.179  1.3693  0.9291 -0.8629
  717MOL0     C94575   1.325   4.170   3.143 -0.6537 -0.0525  0.2736
  717MOL0     C94576   1.431   4.107   3.126 -0.2786  0.1482  0.2392
  717MOL0     C94577   0.551   4.158   3.209 -0.6545 -0.4249 -0.5397
  717MOL0     C94578   0.430   4.184   3.267  0.3862  0.5228  0.0084
  717MOL0     H94579   0.070   4.252   3.629  2.4195 -1.3455 -1.4468
  717MOL0     H94580  -0.189   4.272   3.662  0.1042  1.4169 -0.1481
  717MOL0     H94581  -0.442   4.298   3.325  0.2688 -0.1649  0.1432
  717MOL0     H94582  -0.359   4.407   3.434 -1.6300  1.9332 -2.1783
  717MOL0     H94583  -0.526   4.399   3.593  1.3421  0.9856 -1.1331
  717MOL0     H94584  -0.589   4.238   3.533 -0.4743 -0.4865 -0.2145
  717MOL0     H94585  -0.641   4.401   3.316  0.6279 -0.9687 -0.4758
  717MOL0     H94586  -0.594   4.532   3.430  1.0197 -0.2294  1.3821
  717MOL0     H94587  -0.832   4.494   3.381  1.1507 -1.3458 -1.6120
  717MOL0     H94588  -0.834   4.343   3.445  2.7360 -2.0139  2.0028
  717MOL0     H94589  -0.763   4.597   3.620  1.3351 -1.8900  5.7776
  717MOL0     H94590  -0.771   4.441   3.678 -0.0215  1.1283  0.0684
  717MOL0     H94591  -1.014   4.417   3.606  2.8710 -2.1907 -2.2065
  717MOL0     H94592  -0.998   4.581   3.536  0.5728 -2.3441 -2.1312
  717MOL0     H94593  -0.950   4.531   3.823  1.0458  2.0403 -1.3061
  717MOL0     H94594  -0.999   4.684   3.752 -2.0231  0.9226  0.2502
  717MOL0     H94595  -1.187   4.441   3.793 -2.9741  0.4446 -0.9544
  717MOL0     H94596  -1.226   4.570   3.691  0.5388 -3.3807 -0.6067
  717MOL0     H94597  -1.377   4.734   3.789  0.6869  2.7301  1.3073
  717MOL0     H94598  -1.487   4.896   3.970  2.3334  2.0116 -0.3308
  717MOL0     H94599  -1.384   4.942   4.102  1.7904  0.3476 -0.1017
  717MOL0     H94600  -1.616   4.881   4.178 -0.5252 -0.7587 -0.3961
  717MOL0     H94601  -1.487   4.796   4.257  1.3931  2.0783  0.1187
  717MOL0     H94602  -1.546   4.607   4.093 -0.1508  0.1846 -2.9364
  717MOL0     H94603  -1.685   4.641   4.176 -0.6812 -1.7124 -2.3842
  717MOL0     H94604  -1.628   4.745   3.890 -3.6805 -1.4990 -3.0689
  717MOL0     H94605  -1.761   4.806   3.982 -2.0029 -0.4825 -2.7120
  717MOL0     H94606  -1.818   4.381   4.028 -1.2951 -1.2576  2.5969
  717MOL0     H94607  -2.020   4.305   4.098  2.5338 -0.5968  0.2762
  717MOL0     H94608  -2.464   4.413   4.014  0.7619 -1.2054  1.5824
  717MOL0     H94609  -2.716   4.360   3.987 -1.4822 -0.9888  2.7522
  717MOL0     H94610  -3.037   4.610   4.201  0.8381 -0.7672 -1.0351
  717MOL0     H94611  -2.959   4.536   4.340 -3.5716 -0.2571  1.1781
  717MOL0     H94612  -3.114   4.355   4.174  0.0897  0.3735 -0.8029
  717MOL0     H94613  -3.203   4.461   4.294  0.2679  0.4932 -0.2231
  717MOL0     H94614  -3.088   4.374   4.480  1.6201  0.5959 -0.5512
  717MOL0     H94615  -2.974   4.290   4.385 -0.9472 -4.1362  4.1325
  717MOL0     H94616  -3.190   4.152   4.485  0.1014  2.5260  0.4912
  717MOL0     H94617  -3.283   4.233   4.362 -1.3363  1.3625  1.9786
  717MOL0     H94618  -3.045   4.031   4.337 -0.6854 -0.2178  1.1617
  717MOL0     H94619  -3.099   4.132   4.202 -0.9329  1.8526  0.4518
  717MOL0     H94620  -3.215   3.906   4.172 -1.0142 -0.5151  1.0626
  717MOL0     H94621  -3.332   4.003   4.247 -1.0443 -1.8904 -0.5749
  717MOL0     H94622  -3.150   3.794   4.360 -1.7048 -0.8298 -4.7140
  717MOL0     H94623  -3.213   3.911   4.478 -4.4743 -1.4112  1.3632
  717MOL0     H94624  -3.353   3.703   4.471 -0.6807 -2.3865  0.0680
  717MOL0     H94625  -3.387   3.745   4.290 -0.7330  1.3032  0.1879
  717MOL0     H94626  -2.781   4.626   4.328  1.1702  2.8823 -2.0314
  717MOL0     H94627  -2.545   4.655   4.355 -1.4965  0.4893  0.8257
  717MOL0     H94628  -2.196   4.695   4.043 -1.5371 -1.0700 -3.9417
  717MOL0     H94629  -1.976   4.774   3.948  1.0705  0.5712  1.6259
  717MOL0     H94630  -0.244   4.177   3.250 -2.1051  3.1206  0.5134
  717MOL0     H94631  -0.004   4.203   3.208 -1.1054  0.7839 -0.4413
  717MOL0     H94632   0.512   4.316   3.556 -3.2411  2.0952 -2.0381
  717MOL0     H94633   0.751   4.209   3.474  1.9029 -2.8559 -2.3261
  717MOL0     H94634   0.885   4.053   3.398  2.0907  2.6421  2.3166
  717MOL0     H94635   0.935   4.220   3.347 -2.2721  0.7624  0.7920
  717MOL0     H94636   1.094   4.014   3.289  0.5462 -0.4799 -0.6014
  717MOL0     H94637   0.976   3.977   3.170 -1.8771 -1.1830  3.0230
  717MOL0     H94638   0.999   4.236   3.105 -0.8055 -1.2487  1.8785
  717MOL0     H94639   1.098   4.108   3.031 -1.9440 -2.6751  1.7396
  717MOL0     H94640   1.202   4.339   3.140  0.0150  3.5924  4.9141
  717MOL0     H94641   1.185   4.241   3.287 -0.4648 -3.2916 -0.8095
  717MOL0     H94642   1.523   4.054   3.110 -0.1997  0.8879 -2.1334
  717MOL0     H94643   0.561   4.146   3.102  3.4831  0.6668 -0.4388
  717MOL0     H94644   0.341   4.143   3.220  1.4773 -1.7492 -0.1651
  718MOL0     O94645   5.953   6.323   1.633 -0.2155  0.3305 -1.0337
  718MOL0     C94646   5.948   6.197   1.630  1.1998  0.0059  1.0286
  718MOL0     O94647   5.866   6.128   1.707  0.2029  0.1584  0.8167
  718MOL0     C94648   5.778   6.200   1.784  0.0925 -0.4488 -0.3830
  718MOL0     C94649   5.644   6.178   1.769 -0.1430 -0.1689 -0.0637
  718MOL0     C94650   5.539   6.236   1.843  0.0333 -0.3203  0.0591
  718MOL0     C94651   5.570   6.319   1.952 -0.4195  0.5157  0.5223
  718MOL0     O94652   5.473   6.392   2.020 -0.1374 -0.8613  0.8438
  718MOL0     C94653   5.341   6.332   2.032 -0.7377 -0.5974 -0.8739
  718MOL0     C94654   5.243   6.437   2.057  0.1639 -0.3869  1.6246
  718MOL0     C94655   5.207   6.527   1.929 -0.1321  0.9248 -0.6545
  718MOL0     C94656   5.179   6.456   1.800 -1.2943 -0.3213  0.6169
  718MOL0     C94657   5.142   6.556   1.691 -0.6466  0.8810  0.2221
  718MOL0     C94658   5.205   6.520   1.549 -0.1339 -0.2375 -0.3629
  718MOL0     C94659   5.163   6.380   1.509 -0.2470  0.5605 -0.2770
  718MOL0     C94660   5.211   6.329   1.368  0.0341  0.5712  0.4519
  718MOL0     N94661   5.165   6.427   1.268  1.1330 -0.2095  0.5322
  718MOL0     C94662   5.236   6.523   1.201 -0.9779 -0.1076 -0.6353
  718MOL0     C94663   5.164   6.546   1.083  0.3720 -0.0213  0.4362
  718MOL0     C94664   5.195   6.660   0.987  0.5340  0.5917  0.3682
  718MOL0     C94665   5.331   6.632   0.920  0.2205 -0.0807 -0.0263
  718MOL0     C94666   5.358   6.717   0.798  0.1340 -1.0361  0.2402
  718MOL0     C94667   5.503   6.713   0.751  0.1337 -1.0475  0.3977
  718MOL0     O94668   5.542   6.582   0.734 -0.4513  0.0949  0.3042
  718MOL0     C94669   5.629   6.564   0.630 -0.2840  0.7075 -0.0734
  718MOL0     C94670   5.613   6.437   0.571 -0.5881 -0.6159 -0.2545
  718MOL0     C94671   5.702   6.408   0.462 -0.0887  0.9034  0.0004
  718MOL0     C94672   5.792   6.497   0.411 -0.4199 -0.1712  0.1331
  718MOL0     C94673   5.882   6.466   0.296  0.4151  0.1958 -1.0783
  718MOL0     O94674   6.015   6.507   0.313  0.6109 -0.4027 -0.2218
  718MOL0     C94675   6.114   6.478   0.224 -0.5780 -0.6962 -0.1235
  718MOL0     C94676   6.240   6.541   0.251 -0.2660 -0.3261 -0.4372
  718MOL0     C94677   6.359   6.522   0.175 -0.7936 -0.3878 -0.5150
  718MOL0     C94678   6.354   6.438   0.066 -0.1227  0.2357  0.3801
  718MOL0     O94679   6.447   6.424  -0.034  0.0543 -0.7153  0.0134
  718MOL0     C94680   6.583   6.406   0.019  0.2180  0.1771  0.6295
  718MOL0     C94681   6.664   6.380  -0.113  0.5601  0.3238  0.1223
  718MOL0     C94682   6.606   6.290  -0.212  0.0294  0.1415 -0.5144
  718MOL0     C94683   6.569   6.147  -0.154 -0.6037 -0.1968 -0.4948
  718MOL0     C94684   6.512   6.060  -0.269  0.3473  0.0577 -0.1439
  718MOL0     C94685   6.368   6.111  -0.313  0.0764  1.4300  0.2076
  718MOL0     C94686   6.255   6.017  -0.284  0.6970 -0.0783  0.1914
  718MOL0     C94687   6.143   6.072  -0.377 -0.7552 -0.2860 -0.7313
  718MOL0    Cl94688   6.060   6.221  -0.314  0.4342 -0.3225 -0.0552
  718MOL0     C94689   6.228   6.366   0.039  1.0980  0.5447 -1.1103
  718MOL0     C94690   6.115   6.390   0.122  0.3853  0.1825  0.4421
  718MOL0     O94691   5.838   6.419   0.198 -0.1969 -0.1490 -0.0535
  718MOL0     C94692   5.805   6.617   0.479 -0.5415  0.0872 -0.1093
  718MOL0     C94693   5.727   6.648   0.583  0.0383 -1.1334 -0.3897
  718MOL0     N94694   5.052   6.464   1.087  0.7821 -0.5689  0.0009
  718MOL0     N94695   5.056   6.397   1.193  0.0426  0.2890  0.0537
  718MOL0     C94696   5.710   6.337   1.978  0.0087 -0.1581 -0.4133
  718MOL0     C94697   5.807   6.283   1.894 -0.2909  0.2725  0.3742
  718MOL0     C94698   6.039   6.113   1.543  0.0327 -0.7434 -0.2200
  718MOL0     C94699   6.114   6.168   1.441  0.2285  0.2470  0.5639
  718MOL0     C94700   6.191   6.082   1.363 -0.9631 -0.5323  0.2642
  718MOL0     C94701   6.199   5.950   1.388  0.0230  0.3247  0.2528
  718MOL0     O94702   6.275   5.853   1.332 -0.2273 -0.3824  0.0267
  718MOL0     C94703   6.356   5.885   1.213  0.0580 -0.7889  0.3160
  718MOL0     C94704   6.476   5.798   1.195 -0.7868 -0.8652 -1.0667
  718MOL0     C94705   6.573   5.762   1.312 -0.1359  0.2051 -0.1806
  718MOL0     C94706   6.603   5.887   1.393 -0.1574  0.4523  0.9036
  718MOL0     C94707   6.687   5.995   1.340  0.2716 -0.4677 -0.1404
  718MOL0     C94708   6.757   6.082   1.294 -0.7646  0.2315 -0.1591
  718MOL0     C94709   6.118   5.895   1.484 -0.0725  1.1690  0.4066
  718MOL0     C94710   6.037   5.972   1.560  0.4431 -0.1878 -0.1721
  718MOL0     H94711   5.626   6.121   1.679  0.5730  2.0796 -1.7176
  718MOL0     H94712   5.437   6.233   1.807 -0.6382  1.7820  1.5992
  718MOL0     H94713   5.337   6.266   2.119  1.0436 -0.4167 -0.6103
  718MOL0     H94714   5.305   6.268   1.951  0.3341 -2.4110  0.0262
  718MOL0     H94715   5.270   6.496   2.145 -1.4662  0.7483  1.4079
  718MOL0     H94716   5.151   6.386   2.087  1.7152 -2.4778  3.1558
  718MOL0     H94717   5.293   6.595   1.922  0.4708  0.5937  2.2184
  718MOL0     H94718   5.119   6.588   1.952 -2.0953 -0.8009 -3.1302
  718MOL0     H94719   5.270   6.404   1.770 -1.8579 -1.7095  1.2482
  718MOL0     H94720   5.107   6.374   1.807  0.0764 -1.5651  0.4458
  718MOL0     H94721   5.171   6.660   1.708 -0.6438  0.5240  2.7954
  718MOL0     H94722   5.033   6.545   1.697 -0.5162  0.4729  3.4026
  718MOL0     H94723   5.312   6.540   1.550 -0.1994  0.1275  0.0024
  718MOL0     H94724   5.160   6.596   1.485  1.3000  0.2260 -0.8393
  718MOL0     H94725   5.197   6.312   1.587  0.5837  1.3108  0.0253
  718MOL0     H94726   5.055   6.364   1.520 -0.1565 -1.1551 -1.4732
  718MOL0     H94727   5.166   6.234   1.338 -1.3198  2.2019 -3.3947
  718MOL0     H94728   5.320   6.323   1.362  0.1607  2.9910 -1.3795
  718MOL0     H94729   5.334   6.561   1.228 -0.6329 -1.1258 -0.4096
  718MOL0     H94730   5.194   6.757   1.038 -1.8475  2.4459 -2.8392
  718MOL0     H94731   5.118   6.659   0.909  1.6331 -0.0384 -0.7355
  718MOL0     H94732   5.345   6.527   0.890  4.3162  0.1496  0.4073
  718MOL0     H94733   5.397   6.647   1.006  1.2313 -2.9773 -0.1642
  718MOL0     H94734   5.295   6.691   0.713  1.7155 -1.7174 -0.7703
  718MOL0     H94735   5.333   6.822   0.815  4.1142  0.0389  0.5911
  718MOL0     H94736   5.568   6.752   0.830 -0.7934  0.0083  0.6600
  718MOL0     H94737   5.518   6.778   0.664  2.5504  0.3886  1.7758
  718MOL0     H94738   5.529   6.369   0.578  0.1146 -1.9026 -2.8914
  718MOL0     H94739   5.701   6.316   0.404  3.2520  1.5765 -1.3295
  718MOL0     H94740   6.239   6.614   0.331 -0.4496  1.5769 -2.0896
  718MOL0     H94741   6.453   6.575   0.189 -1.1286  0.0254  0.2493
  718MOL0     H94742   6.592   6.319   0.086 -0.5058 -1.1791 -0.9572
  718MOL0     H94743   6.623   6.496   0.066 -2.0735  1.0157  1.0732
  718MOL0     H94744   6.753   6.323  -0.083 -0.4395 -1.7771 -0.6785
  718MOL0     H94745   6.674   6.469  -0.176  0.2174  0.1444 -0.1871
  718MOL0     H94746   6.676   6.263  -0.292 -0.0630 -0.1600 -0.4933
  718MOL0     H94747   6.517   6.337  -0.254 -1.4622  0.1159  2.3949
  718MOL0     H94748   6.662   6.102  -0.117 -1.0996 -1.0827 -0.3033
  718MOL0     H94749   6.495   6.154  -0.074 -1.1235 -2.9539 -0.6383
  718MOL0     H94750   6.496   5.959  -0.229 -1.5916  0.2434 -0.3554
  718MOL0     H94751   6.580   6.053  -0.355 -2.5293  2.0136 -2.8238
  718MOL0     H94752   6.368   6.119  -0.422  1.8312 -3.8641 -0.4915
  718MOL0     H94753   6.340   6.207  -0.268 -3.9365 -0.1481  1.5315
  718MOL0     H94754   6.281   5.917  -0.320 -0.5388 -0.6166  0.7750
  718MOL0     H94755   6.228   6.024  -0.179  3.4810  4.6398  0.8776
  718MOL0     H94756   6.064   5.997  -0.382 -0.2955 -0.7617 -1.0186
  718MOL0     H94757   6.185   6.087  -0.477  0.6404  1.4537  0.0684
  718MOL0     H94758   6.215   6.291  -0.039 -1.3034 -1.3843  0.9771
  718MOL0     H94759   6.032   6.322   0.110 -0.2171  1.1313 -1.0431
  718MOL0     H94760   5.881   6.684   0.442 -0.0545 -0.1132  0.5077
  718MOL0     H94761   5.750   6.738   0.638 -0.2094 -1.9773  1.1567
  718MOL0     H94762   5.738   6.392   2.067 -1.3857  0.2173 -0.1875
  718MOL0     H94763   5.912   6.310   1.906 -0.2300  0.5410 -0.6215
  718MOL0     H94764   6.100   6.268   1.402  3.6550  0.1191 -1.4538
  718MOL0     H94765   6.252   6.124   1.283 -1.9184 -0.4172 -0.4141
  718MOL0     H94766   6.393   5.988   1.215  0.9501 -1.0845 -0.1686
  718MOL0     H94767   6.303   5.886   1.117 -0.7103  0.5185  0.7367
  718MOL0     H94768   6.449   5.706   1.142  0.8783 -2.2300  0.3106
  718MOL0     H94769   6.542   5.856   1.130  0.2646  4.7673  4.1122
  718MOL0     H94770   6.668   5.716   1.284  0.5317  3.2535 -3.6793
  718MOL0     H94771   6.523   5.688   1.374 -1.0930  0.4691 -0.6191
  718MOL0     H94772   6.508   5.922   1.436 -0.2361  0.2794  0.8724
  718MOL0     H94773   6.661   5.862   1.482 -0.8669  2.5714  2.0418
  718MOL0     H94774   6.825   6.161   1.269 -0.2045  0.7713  2.7457
  718MOL0     H94775   6.141   5.795   1.518  0.0179  0.8508 -0.5460
  718MOL0     H94776   5.990   5.923   1.644  1.8537 -0.1837  0.6573
  719MOL0     O94777   0.670   3.560   4.387  0.7341 -0.4758  0.0465
  719MOL0     C94778   0.766   3.629   4.429  0.1565 -0.2776 -1.2349
  719MOL0     O94779   0.763   3.710   4.546  0.1666 -0.3772 -0.5595
  719MOL0     C94780   0.642   3.714   4.608 -0.4215 -0.0636 -0.6348
  719MOL0     C94781   0.627   3.620   4.715 -0.1256  0.7289  0.4182
  719MOL0     C94782   0.522   3.636   4.803  0.8364 -0.4600 -0.2411
  719MOL0     C94783   0.438   3.753   4.800  0.0713  0.3030  0.2520
  719MOL0     O94784   0.337   3.773   4.893  0.0174 -0.7346  0.5294
  719MOL0     C94785   0.306   3.910   4.921 -0.4095  0.0542 -0.1485
  719MOL0     C94786   0.252   3.933   5.063  0.2562 -0.3960  1.6354
  719MOL0     C94787   0.116   3.880   5.078  0.1591  0.1573 -0.0496
  719MOL0     C94788   0.055   3.877   5.213  0.0589  0.3827 -0.5709
  719MOL0     C94789  -0.098   3.889   5.216  0.4187  0.4234  0.8742
  719MOL0     C94790  -0.141   3.970   5.338 -0.7913  0.2114  0.0517
  719MOL0     C94791  -0.097   3.907   5.469 -0.4423 -0.2932 -0.8127
  719MOL0     C94792  -0.217   3.877   5.578  0.0057 -0.0465 -0.2354
  719MOL0     N94793  -0.157   3.892   5.708  0.2456  0.3481  0.1203
  719MOL0     C94794  -0.200   3.963   5.817  0.9033  0.8092 -0.4105
  719MOL0     C94795  -0.105   3.920   5.914  0.9216 -0.1753  0.0663
  719MOL0     C94796  -0.124   3.952   6.058 -0.6400  0.1502 -0.6680
  719MOL0     C94797  -0.209   3.852   6.115  0.2668 -0.3717 -0.2163
  719MOL0     C94798  -0.238   3.836   6.259 -0.3359  0.2047 -0.3050
  719MOL0     C94799  -0.307   3.697   6.279  0.4640 -0.0083  0.2179
  719MOL0     O94800  -0.446   3.700   6.252  0.1190  0.5248 -0.4150
  719MOL0     C94801  -0.539   3.754   6.341  0.9592  0.9582  0.4226
  719MOL0     C94802  -0.512   3.816   6.469  0.6262  1.2285 -0.4046
  719MOL0     C94803  -0.612   3.872   6.541  0.9143 -0.6794  0.3475
  719MOL0     C94804  -0.748   3.880   6.491  0.4923 -0.2704 -0.2426
  719MOL0     C94805  -0.853   3.948   6.574  0.3610  0.6646  0.5809
  719MOL0     O94806  -0.954   4.011   6.497 -1.4244 -0.3061 -0.5231
  719MOL0     C94807  -1.057   4.069   6.566 -0.1856  0.0100 -0.5486
  719MOL0     C94808  -1.043   4.156   6.676  1.0652  1.2305  0.2406
  719MOL0     C94809  -1.157   4.222   6.728 -0.4141 -0.3761  0.5778
  719MOL0     C94810  -1.289   4.174   6.696 -0.1692 -0.8514 -0.2186
  719MOL0     O94811  -1.409   4.230   6.749  0.3937  0.2892 -0.0168
  719MOL0     C94812  -1.409   4.369   6.785 -0.6773  0.8291  0.2894
  719MOL0     C94813  -1.421   4.375   6.936 -0.5042  0.8747  0.1624
  719MOL0     C94814  -1.529   4.294   7.005 -0.3174  0.1706 -0.8971
  719MOL0     C94815  -1.527   4.313   7.162  0.7337  0.7065  0.1244
  719MOL0     C94816  -1.627   4.211   7.235 -0.5000  0.3549 -0.4180
  719MOL0     C94817  -1.774   4.251   7.199  0.5171  0.5765  0.4392
  719MOL0     C94818  -1.882   4.186   7.295 -0.0785 -0.1958 -0.2298
  719MOL0     C94819  -1.878   4.031   7.283  0.1722  0.4225  0.1613
  719MOL0    Cl94820  -1.993   3.947   7.386 -0.0157  0.1241 -0.0517
  719MOL0     C94821  -1.300   4.079   6.602  0.5789 -0.1271  0.4210
  719MOL0     C94822  -1.184   4.031   6.538 -0.2573  0.5344  0.3732
  719MOL0     O94823  -0.855   3.935   6.697  0.7511  0.5504 -0.2580
  719MOL0     C94824  -0.773   3.811   6.370  0.5696  0.7405  0.9328
  719MOL0     C94825  -0.674   3.754   6.302  0.3648  0.2786  0.9731
  719MOL0     N94826  -0.004   3.844   5.858 -0.0655 -0.6823  0.1637
  719MOL0     N94827  -0.043   3.826   5.737  0.1335  0.2076  0.4153
  719MOL0     C94828   0.444   3.833   4.685  1.0519  0.3184  0.4082
  719MOL0     C94829   0.545   3.812   4.595  0.0202 -0.1341 -0.1888
  719MOL0     C94830   0.886   3.631   4.342  0.3355  0.2918 -0.0210
  719MOL0     C94831   0.901   3.551   4.228 -0.8388  0.6825  0.8953
  719MOL0     C94832   1.025   3.550   4.158  0.0500  0.2584  0.4383
  719MOL0     C94833   1.119   3.641   4.185 -0.8052  0.4542 -0.5902
  719MOL0     O94834   1.240   3.628   4.118 -0.6986  0.9267  0.5169
  719MOL0     C94835   1.335   3.544   4.189  0.0203  0.2248 -0.3892
  719MOL0     C94836   1.475   3.584   4.161 -0.1795 -0.5721  0.3347
  719MOL0     C94837   1.567   3.477   4.200 -0.5445  0.4943  0.3476
  719MOL0     C94838   1.588   3.476   4.346  0.8749 -0.4862  0.0748
  719MOL0     C94839   1.699   3.385   4.381  0.2507 -0.9473 -0.1795
  719MOL0     C94840   1.794   3.314   4.373 -0.6643  1.2055  1.2122
  719MOL0     C94841   1.101   3.730   4.285 -0.2818 -0.3731 -0.0219
  719MOL0     C94842   0.987   3.725   4.366 -0.3575  0.6779 -0.3373
  719MOL0     H94843   0.707   3.549   4.732 -2.1982 -1.6238  0.8699
  719MOL0     H94844   0.508   3.569   4.887  4.1446  2.6268  3.1597
  719MOL0     H94845   0.231   3.935   4.846  0.1118 -2.6241 -1.7212
  719MOL0     H94846   0.392   3.977   4.908  0.0082 -0.6745 -1.3246
  719MOL0     H94847   0.240   4.041   5.077  0.3232 -0.3670  1.4721
  719MOL0     H94848   0.328   3.910   5.138  0.8286 -1.4064  0.7739
  719MOL0     H94849   0.111   3.776   5.042 -0.0159  0.6270 -1.4630
  719MOL0     H94850   0.060   3.932   5.000  2.6943  2.1101 -0.6843
  719MOL0     H94851   0.091   3.791   5.270  0.3228  0.1091 -1.1384
  719MOL0     H94852   0.084   3.973   5.257 -0.9028  1.3594 -1.9755
  719MOL0     H94853  -0.130   3.785   5.218 -0.3001  0.5982 -0.3384
  719MOL0     H94854  -0.136   3.938   5.126  0.3920 -0.1700  0.5555
  719MOL0     H94855  -0.250   3.983   5.337 -0.8051  0.0754 -0.0469
  719MOL0     H94856  -0.102   4.072   5.329  0.2398 -0.3232 -2.3788
  719MOL0     H94857  -0.044   3.812   5.457 -1.3625 -1.3691  2.6267
  719MOL0     H94858  -0.028   3.982   5.507  0.1777  0.0276 -2.4662
  719MOL0     H94859  -0.238   3.771   5.557  0.5543 -0.5839  1.7264
  719MOL0     H94860  -0.298   3.950   5.566 -0.9187 -0.6755  1.7582
  719MOL0     H94861  -0.285   4.030   5.828 -1.4320 -2.0023  0.0493
  719MOL0     H94862  -0.170   4.051   6.055 -0.4233  0.3017  0.5420
  719MOL0     H94863  -0.037   3.955   6.125 -1.1793 -3.1375  0.3699
  719MOL0     H94864  -0.162   3.758   6.086  0.9408  0.4107 -1.7764
  719MOL0     H94865  -0.308   3.854   6.068  0.4730 -4.1483 -1.0973
  719MOL0     H94866  -0.150   3.839   6.325 -1.3052  3.0725  1.0295
  719MOL0     H94867  -0.303   3.917   6.293  0.3114 -0.2263  2.1210
  719MOL0     H94868  -0.301   3.679   6.387  0.8341 -0.2180  0.1623
  719MOL0     H94869  -0.253   3.617   6.228  1.5859 -1.3050  3.2195
  719MOL0     H94870  -0.414   3.808   6.515  0.4582 -0.1537 -0.2460
  719MOL0     H94871  -0.589   3.918   6.637  0.8190 -0.2883  0.1844
  719MOL0     H94872  -0.939   4.180   6.697  1.0886  0.3768  1.1786
  719MOL0     H94873  -1.138   4.307   6.792 -2.8367 -0.2407  1.2018
  719MOL0     H94874  -1.489   4.424   6.736  0.6165  1.2731 -1.4294
  719MOL0     H94875  -1.320   4.425   6.755  1.8326 -1.9894  1.8385
  719MOL0     H94876  -1.420   4.481   6.964  0.6891  1.4214 -1.7448
  719MOL0     H94877  -1.327   4.340   6.982 -0.6476 -0.1830 -0.3181
  719MOL0     H94878  -1.525   4.192   6.966 -0.1757  0.0889 -0.6687
  719MOL0     H94879  -1.623   4.327   6.962  0.0202 -0.4458 -2.1669
  719MOL0     H94880  -1.422   4.314   7.191  0.7048 -0.2907  0.2827
  719MOL0     H94881  -1.560   4.415   7.184  2.6945  1.4145 -0.1078
  719MOL0     H94882  -1.614   4.220   7.343 -0.8967 -1.4843 -0.1921
  719MOL0     H94883  -1.604   4.111   7.197 -0.3443  0.2104  0.0583
  719MOL0     H94884  -1.795   4.214   7.098 -0.2114  0.9920  0.4308
  719MOL0     H94885  -1.790   4.359   7.191 -1.4262  0.1873 -2.3653
  719MOL0     H94886  -1.874   4.220   7.398 -1.2718  1.9799 -0.7854
  719MOL0     H94887  -1.976   4.226   7.256 -0.6921 -1.0646  0.3144
  719MOL0     H94888  -1.777   3.990   7.296 -0.3214 -1.3751 -1.2998
  719MOL0     H94889  -1.895   4.007   7.178  0.4802  3.5246 -0.7155
  719MOL0     H94890  -1.399   4.049   6.569 -0.1371  2.5058 -0.0964
  719MOL0     H94891  -1.198   3.948   6.469  1.6323  0.9109 -0.5126
  719MOL0     H94892  -0.874   3.817   6.332  0.4984  4.0285  1.3414
  719MOL0     H94893  -0.703   3.716   6.204  0.0368 -1.9130  1.8615
  719MOL0     H94894   0.366   3.907   4.677 -0.2335 -1.1365 -1.2729
  719MOL0     H94895   0.539   3.875   4.507 -1.5894 -1.8904 -1.4205
  719MOL0     H94896   0.823   3.480   4.204 -0.8427  1.8736 -3.5488
  719MOL0     H94897   1.028   3.488   4.069 -1.0758 -2.1202  1.9638
  719MOL0     H94898   1.325   3.441   4.153 -0.3982  0.4575 -0.9678
  719MOL0     H94899   1.303   3.546   4.293 -0.9631  3.3576 -0.6419
  719MOL0     H94900   1.485   3.596   4.053  2.6193  0.3258  0.6117
  719MOL0     H94901   1.503   3.680   4.206  1.6203 -0.7872 -0.2464
  719MOL0     H94902   1.662   3.497   4.149 -0.8807  0.6323 -0.2373
  719MOL0     H94903   1.533   3.378   4.169  0.3196 -0.5843  2.6521
  719MOL0     H94904   1.610   3.576   4.385  0.9954 -0.8949  1.1049
  719MOL0     H94905   1.497   3.440   4.396  1.5485  0.2550  1.9221
  719MOL0     H94906   1.885   3.258   4.361 -3.1017 -2.9364  0.3046
  719MOL0     H94907   1.177   3.806   4.302 -1.9169  1.3241 -0.0275
  719MOL0     H94908   0.981   3.793   4.450 -0.5051 -0.5939  0.7166
  720MOL0     O94909   8.701   4.676   4.660 -0.8994 -0.5599 -0.9631
  720MOL0     C94910   8.693   4.787   4.609  0.3140 -0.1887 -0.4664
  720MOL0     O94911   8.589   4.840   4.550  0.0242  0.1203  0.0600
  720MOL0     C94912   8.466   4.793   4.539  0.7430 -0.0953  0.3198
  720MOL0     C94913   8.408   4.686   4.606  0.8226  0.0671  0.1006
  720MOL0     C94914   8.272   4.650   4.597  0.2495  0.0182  0.1612
  720MOL0     C94915   8.191   4.715   4.499  0.3164 -0.2061  0.5022
  720MOL0     O94916   8.055   4.688   4.480  0.0437 -0.0000 -0.2306
  720MOL0     C94917   7.983   4.618   4.582 -0.1115  0.1554 -0.1729
  720MOL0     C94918   7.932   4.723   4.690 -0.2707  0.0686 -0.7021
  720MOL0     C94919   7.825   4.662   4.784  0.3785 -0.0390 -0.0690
  720MOL0     C94920   7.807   4.740   4.909  0.4336  0.0255 -0.7715
  720MOL0     C94921   7.702   4.665   4.995 -0.0908 -0.5820 -0.5778
  720MOL0     C94922   7.654   4.750   5.118 -0.6864 -0.8327  0.2086
  720MOL0     C94923   7.549   4.699   5.213  0.5187 -0.1543  0.9143
  720MOL0     C94924   7.503   4.796   5.317 -0.2166 -0.3079 -0.3156
  720MOL0     N94925   7.439   4.729   5.431  0.5429  0.7472  0.6975
  720MOL0     C94926   7.307   4.696   5.421  0.5432  0.2630  0.0015
  720MOL0     C94927   7.286   4.620   5.538 -0.5637 -0.1617  0.1315
  720MOL0     C94928   7.147   4.575   5.583 -0.1991 -0.0354 -0.1197
  720MOL0     C94929   7.067   4.698   5.631 -0.6345  0.8921  0.1598
  720MOL0     C94930   6.924   4.667   5.676 -0.6220  0.4083 -1.4419
  720MOL0     C94931   6.836   4.782   5.702 -0.8763 -0.5268  0.0993
  720MOL0     O94932   6.814   4.804   5.843  0.2899 -0.3758 -0.0133
  720MOL0     C94933   6.717   4.905   5.876  0.0615  0.2604 -0.1782
  720MOL0     C94934   6.644   4.872   5.987  0.1085 -0.6526 -0.2686
  720MOL0     C94935   6.539   4.948   6.020 -0.4249 -0.5820  0.2331
  720MOL0     C94936   6.508   5.072   5.960  0.6407 -1.0067 -0.1446
  720MOL0     C94937   6.390   5.146   6.003 -0.1935  0.2014  0.3724
  720MOL0     O94938   6.321   5.097   6.113 -0.1824  0.7814  0.4436
  720MOL0     C94939   6.213   5.175   6.160  0.6147 -0.5454 -0.7452
  720MOL0     C94940   6.225   5.222   6.289  0.2380 -0.8929 -0.0334
  720MOL0     C94941   6.127   5.304   6.350  0.1504 -0.0896  0.3317
  720MOL0     C94942   6.009   5.322   6.278 -0.0486 -0.1948  0.0090
  720MOL0     O94943   5.908   5.387   6.346  0.5819 -0.5388  0.6368
  720MOL0     C94944   5.780   5.322   6.345  0.3440  1.1271 -0.4980
  720MOL0     C94945   5.699   5.355   6.469 -0.4298  0.0876  0.1755
  720MOL0     C94946   5.707   5.502   6.500 -0.0738 -0.1075 -1.4890
  720MOL0     C94947   5.619   5.551   6.616 -0.8715  0.2461 -0.0077
  720MOL0     C94948   5.605   5.700   6.632  0.2183 -0.6560  0.4242
  720MOL0     C94949   5.493   5.762   6.529 -0.4451 -0.4097  0.0683
  720MOL0     C94950   5.424   5.888   6.578  0.2866  0.1003 -0.5887
  720MOL0     C94951   5.307   5.856   6.669 -0.5782  0.1284  0.4941
  720MOL0    Cl94952   5.218   5.997   6.720  0.0630 -0.3758 -0.1780
  720MOL0     C94953   5.992   5.275   6.145 -0.3245  0.3934 -0.7952
  720MOL0     C94954   6.088   5.194   6.093  0.3100  0.0320 -0.4511
  720MOL0     O94955   6.347   5.236   5.929  0.4789  0.3101  0.1526
  720MOL0     C94956   6.588   5.107   5.850  0.1296 -0.3126 -0.1026
  720MOL0     C94957   6.685   5.020   5.804 -0.4388  0.2361 -0.3190
  720MOL0     N94958   7.405   4.619   5.614  0.7630 -0.4609 -0.3413
  720MOL0     N94959   7.498   4.685   5.549  0.6961 -0.4722 -0.3227
  720MOL0     C94960   8.252   4.807   4.415 -0.1313  0.1719  0.7326
  720MOL0     C94961   8.389   4.853   4.431  0.9428 -0.4894 -0.6239
  720MOL0     C94962   8.804   4.878   4.623  0.1165 -0.5568  0.4505
  720MOL0     C94963   8.928   4.829   4.674 -0.6239 -0.7340 -0.9874
  720MOL0     C94964   9.037   4.924   4.661 -0.0035 -0.5492  0.1910
  720MOL0     C94965   9.024   5.049   4.604  0.4600 -0.4606  0.0634
  720MOL0     O94966   9.118   5.136   4.586 -0.0731  0.6979  0.1322
  720MOL0     C94967   9.204   5.151   4.699 -0.0197 -0.1017 -0.6744
  720MOL0     C94968   9.148   5.257   4.802  0.5930  0.2036 -0.0115
  720MOL0     C94969   9.149   5.393   4.736  0.7226 -0.0881 -0.8262
  720MOL0     C94970   9.281   5.466   4.750  0.3158  0.1440  0.5856
  720MOL0     C94971   9.282   5.584   4.671  0.3338  0.4671  0.2184
  720MOL0     C94972   9.282   5.674   4.594 -0.8635  0.8899  0.8754
  720MOL0     C94973   8.901   5.092   4.556 -0.3263 -0.2870 -0.7207
  720MOL0     C94974   8.790   5.008   4.572 -0.5267  0.0130 -0.1948
  720MOL0     H94975   8.468   4.626   4.674 -0.7266 -3.8822 -1.7262
  720MOL0     H94976   8.238   4.565   4.655 -1.8913  1.0081  0.4509
  720MOL0     H94977   8.033   4.533   4.630 -1.5016  0.5541  2.1373
  720MOL0     H94978   7.892   4.583   4.533 -1.0931  0.3558  1.4435
  720MOL0     H94979   7.907   4.813   4.633  0.8411  2.7812  2.6743
  720MOL0     H94980   8.013   4.764   4.751 -1.8976  1.5529  0.5806
  720MOL0     H94981   7.854   4.560   4.810 -2.8444 -1.6027 -1.9381
  720MOL0     H94982   7.737   4.656   4.719 -1.1849 -0.4095  1.9746
  720MOL0     H94983   7.900   4.741   4.966  1.0078  0.0186 -1.6760
  720MOL0     H94984   7.761   4.838   4.891  2.8678  1.1703 -1.2139
  720MOL0     H94985   7.734   4.569   5.036 -2.7013 -1.8292 -1.1935
  720MOL0     H94986   7.617   4.638   4.932 -1.0587  0.4488  0.2419
  720MOL0     H94987   7.615   4.846   5.081  0.5208  0.3062  1.7412
  720MOL0     H94988   7.736   4.766   5.189 -1.1691  1.8658  0.2870
  720MOL0     H94989   7.463   4.674   5.151  1.9748 -3.2889 -0.0991
  720MOL0     H94990   7.577   4.607   5.266  1.2145 -0.3653  0.2087
  720MOL0     H94991   7.435   4.874   5.281  0.3492  1.1191  1.4929
  720MOL0     H94992   7.596   4.845   5.349  0.8440 -1.5196 -1.4156
  720MOL0     H94993   7.245   4.720   5.335  3.4682 -4.3194 -3.9551
  720MOL0     H94994   7.155   4.499   5.661 -5.1533 -1.1194 -0.3634
  720MOL0     H94995   7.101   4.530   5.494  0.8429  0.6677 -1.0514
  720MOL0     H94996   7.072   4.773   5.552 -1.1036  3.7697  2.6661
  720MOL0     H94997   7.121   4.737   5.718  0.8944 -0.2070 -0.2499
  720MOL0     H94998   6.869   4.602   5.607 -2.0202 -1.7460  1.4983
  720MOL0     H94999   6.937   4.635   5.780  4.5098  4.6683 -0.3042
  720MOL0     H95000   6.741   4.759   5.654  0.3699 -2.1871 -1.7551
  720MOL0     H95001   6.881   4.876   5.668 -1.5883  0.1097  0.8842
  720MOL0     H95002   6.669   4.782   6.042  3.1116  0.5151  0.4950
  720MOL0     H95003   6.472   4.914   6.098 -1.1105 -0.1976 -0.1739
  720MOL0     H95004   6.322   5.205   6.336  1.2182  1.2657 -1.1112
  720MOL0     H95005   6.139   5.352   6.447 -1.8106  1.6009 -0.1804
  720MOL0     H95006   5.793   5.214   6.350 -3.0582  0.6607  1.4389
  720MOL0     H95007   5.721   5.334   6.254 -1.2100  1.1761  0.4823
  720MOL0     H95008   5.744   5.303   6.554  2.4350 -0.9632 -1.8126
  720MOL0     H95009   5.593   5.331   6.456 -0.3755  0.2302 -0.5583
  720MOL0     H95010   5.675   5.568   6.418 -2.4901  0.3136 -0.3032
  720MOL0     H95011   5.803   5.537   6.539 -0.3835  0.4773 -1.2304
  720MOL0     H95012   5.525   5.495   6.618  1.1941 -3.5895 -0.4961
  720MOL0     H95013   5.668   5.520   6.708  0.7100  2.5962  0.0250
  720MOL0     H95014   5.698   5.756   6.625  0.1873  0.1659  4.3016
  720MOL0     H95015   5.564   5.719   6.731 -2.3315 -0.0928 -0.6612
  720MOL0     H95016   5.419   5.684   6.506  0.7472 -2.0795  1.5898
  720MOL0     H95017   5.543   5.786   6.435  0.7351  0.7146  0.9538
  720MOL0     H95018   5.490   5.960   6.627  1.1918 -0.3543 -1.0997
  720MOL0     H95019   5.381   5.938   6.491 -1.2534 -0.6515 -0.2905
  720MOL0     H95020   5.350   5.803   6.754  2.5013  2.4079  0.5189
  720MOL0     H95021   5.224   5.792   6.635 -0.9526  0.3683  0.9474
  720MOL0     H95022   5.899   5.286   6.090  0.4659  1.0053 -2.0590
  720MOL0     H95023   6.072   5.140   6.001 -1.7106 -1.0547  0.4665
  720MOL0     H95024   6.568   5.193   5.787 -0.1853  0.6189  1.2120
  720MOL0     H95025   6.724   5.047   5.706 -1.6735  0.8700 -0.6521
  720MOL0     H95026   8.195   4.852   4.334 -0.6019 -1.0028  0.3943
  720MOL0     H95027   8.434   4.923   4.361  2.1486 -3.9652 -3.6084
  720MOL0     H95028   8.947   4.735   4.724 -1.2678 -0.0927  0.5148
  720MOL0     H95029   9.129   4.893   4.709  1.0046  0.7327 -0.8576
  720MOL0     H95030   9.304   5.181   4.664 -0.7914  1.3202 -1.7495
  720MOL0     H95031   9.214   5.054   4.749 -0.7821 -2.4039 -4.4825
  720MOL0     H95032   9.051   5.241   4.850  1.5385  0.3559  2.0091
  720MOL0     H95033   9.216   5.252   4.887 -2.1272  1.1929  2.3748
  720MOL0     H95034   9.070   5.449   4.787 -0.5098 -0.8397 -1.8517
  720MOL0     H95035   9.133   5.394   4.628  0.9645  3.0069 -0.9370
  720MOL0     H95036   9.298   5.476   4.857 -2.5686 -1.1472  1.2703
  720MOL0     H95037   9.371   5.416   4.711  1.5912  2.7765 -0.0243
  720MOL0     H95038   9.270   5.767   4.542  0.0265  1.3759  1.5123
  720MOL0     H95039   8.891   5.198   4.534  0.2292  0.2989  1.6450
  720MOL0     H95040   8.693   5.055   4.563 -0.6375  0.1221  1.3486
  721MOL0     O95041   9.194   1.216   8.532 -0.2046  0.3591 -0.0146
  721MOL0     C95042   9.212   1.339   8.532  1.5335  0.4184 -0.8044
  721MOL0     O95043   9.117   1.428   8.557  0.2179 -0.6652 -0.1568
  721MOL0     C95044   8.988   1.398   8.587 -0.0492  0.0259  0.0817
  721MOL0     C95045   8.898   1.492   8.539  0.6599 -0.3689  0.6841
  721MOL0     C95046   8.760   1.468   8.557 -0.1509  0.5183 -0.2833
  721MOL0     C95047   8.718   1.371   8.641 -0.5877  0.9194 -0.2155
  721MOL0     O95048   8.588   1.345   8.673  0.4790 -1.0083 -0.5802
  721MOL0     C95049   8.491   1.353   8.570 -1.1904 -0.7852  0.9236
  721MOL0     C95050   8.357   1.388   8.628  0.8980  0.2061  0.4976
  721MOL0     C95051   8.238   1.349   8.525 -0.1612 -0.2416  0.3419
  721MOL0     C95052   8.105   1.398   8.579 -0.5965 -0.1203 -0.6379
  721MOL0     C95053   7.977   1.366   8.510 -1.4193 -0.6323  0.3755
  721MOL0     C95054   7.953   1.450   8.389 -0.6031 -0.2205  0.2323
  721MOL0     C95055   7.843   1.381   8.303 -0.0495  0.1673  0.1270
  721MOL0     C95056   7.764   1.476   8.213  0.1048  0.1995 -1.0174
  721MOL0     N95057   7.650   1.404   8.163  0.6923 -0.3385  0.8427
  721MOL0     C95058   7.532   1.381   8.233 -0.7857  0.4555 -1.0325
  721MOL0     C95059   7.467   1.296   8.159 -0.2271 -0.1506 -0.2005
  721MOL0     C95060   7.320   1.262   8.184 -0.2496  0.1606  0.8371
  721MOL0     C95061   7.289   1.115   8.152 -0.6979  0.2582  1.0481
  721MOL0     C95062   7.169   1.053   8.227  0.1354 -0.1786 -0.1513
  721MOL0     C95063   7.031   1.119   8.189  0.3564 -0.6156 -0.2230
  721MOL0     O95064   7.020   1.231   8.283 -0.3848  0.0531 -0.0507
  721MOL0     C95065   6.926   1.232   8.384 -0.2206  0.1304  0.8133
  721MOL0     C95066   6.837   1.336   8.381 -0.2902 -0.7247  0.0287
  721MOL0     C95067   6.734   1.346   8.481  0.0038  0.3400 -0.3804
  721MOL0     C95068   6.719   1.233   8.568  0.2901  0.8367  0.0919
  721MOL0     C95069   6.604   1.233   8.670 -0.6663  0.2442  1.2674
  721MOL0     O95070   6.533   1.343   8.671  0.5569 -0.3709  0.0076
  721MOL0     C95071   6.437   1.364   8.770 -0.8792  0.2974  0.0743
  721MOL0     C95072   6.299   1.407   8.743 -0.3383  1.1273  0.4965
  721MOL0     C95073   6.213   1.418   8.856  0.9563 -0.2914 -0.4126
  721MOL0     C95074   6.256   1.402   8.991  0.3105  0.7386  0.3645
  721MOL0     O95075   6.170   1.399   9.096 -0.1388 -0.6539  0.2547
  721MOL0     C95076   6.224   1.442   9.220  0.1265  0.6512 -1.2055
  721MOL0     C95077   6.098   1.468   9.317 -0.2278  0.3557  0.4297
  721MOL0     C95078   6.017   1.596   9.294  0.2696  0.3933  0.1050
  721MOL0     C95079   5.881   1.582   9.347  0.3713  0.1236  0.2265
  721MOL0     C95080   5.795   1.707   9.361 -0.3992 -0.4335 -0.0935
  721MOL0     C95081   5.673   1.709   9.255  0.2612  0.0547  0.1786
  721MOL0     C95082   5.547   1.649   9.313  0.3720 -0.0042  0.7740
  721MOL0     C95083   5.445   1.642   9.203  0.1429  0.7745 -0.5251
  721MOL0    Cl95084   5.326   1.512   9.247  0.1190 -0.1624  0.2263
  721MOL0     C95085   6.398   1.369   9.012 -1.2104  0.1467 -0.3770
  721MOL0     C95086   6.488   1.354   8.906 -0.8734 -0.0544  0.3721
  721MOL0     O95087   6.592   1.135   8.734  0.3381  0.0975  0.5310
  721MOL0     C95088   6.807   1.115   8.553  0.1590  0.5468  0.2549
  721MOL0     C95089   6.899   1.117   8.455 -0.3574 -0.2669  0.1693
  721MOL0     N95090   7.543   1.259   8.047  0.8244  0.5736 -0.7749
  721MOL0     N95091   7.654   1.323   8.051  0.7694  0.4306 -0.5244
  721MOL0     C95092   8.811   1.293   8.707 -0.2487 -0.3815 -0.3571
  721MOL0     C95093   8.946   1.304   8.681  0.5289  0.5218 -0.0440
  721MOL0     C95094   9.342   1.402   8.499  0.5137  0.4028  0.6477
  721MOL0     C95095   9.367   1.542   8.501 -0.0017  0.5564  0.3509
  721MOL0     C95096   9.501   1.591   8.492  0.3790 -0.5634 -0.0816
  721MOL0     C95097   9.610   1.502   8.469  0.0607  0.1756  0.1017
  721MOL0     O95098   9.736   1.551   8.455  0.3770 -0.2435 -0.6216
  721MOL0     C95099   9.852   1.471   8.470  0.6564  0.0385  0.3363
  721MOL0     C95100   9.978   1.554   8.476 -0.5677 -0.6001  0.0845
  721MOL0     C95101  10.101   1.461   8.488  0.5102  0.3080 -1.1086
  721MOL0     C95102  10.237   1.530   8.468 -1.0572  0.4281 -0.3374
  721MOL0     C95103  10.344   1.449   8.512 -1.0230 -0.4057  0.5150
  721MOL0     C95104  10.419   1.365   8.552 -1.0437 -0.7833 -0.2075
  721MOL0     C95105   9.582   1.365   8.458 -0.2439 -0.1096 -0.1292
  721MOL0     C95106   9.458   1.311   8.472  0.5568  0.2487  0.6292
  721MOL0     H95107   8.913   1.578   8.474  1.4872  0.9420  2.5163
  721MOL0     H95108   8.689   1.531   8.505 -1.0830 -1.1310 -1.0766
  721MOL0     H95109   8.495   1.257   8.518 -1.9674 -1.2709  1.7331
  721MOL0     H95110   8.514   1.432   8.498 -2.8387 -1.8447 -0.8462
  721MOL0     H95111   8.350   1.492   8.662  1.8852  0.8312 -1.0868
  721MOL0     H95112   8.334   1.316   8.707 -2.0309 -0.6889 -1.0356
  721MOL0     H95113   8.231   1.240   8.513 -2.2339 -0.1542  0.4553
  721MOL0     H95114   8.254   1.394   8.427  0.1001 -1.3869 -0.1589
  721MOL0     H95115   8.099   1.347   8.676  0.6720 -0.8973 -0.9379
  721MOL0     H95116   8.110   1.507   8.590 -5.6650  0.2749 -0.1560
  721MOL0     H95117   7.888   1.388   8.570 -1.3452  1.3567 -0.1845
  721MOL0     H95118   7.978   1.256   8.513  0.1000 -0.6281  0.6877
  721MOL0     H95119   8.048   1.461   8.337 -0.1080 -2.6397  0.5000
  721MOL0     H95120   7.934   1.553   8.420  2.6018  1.6173 -3.1161
  721MOL0     H95121   7.897   1.308   8.242  0.0611 -0.0046  0.4248
  721MOL0     H95122   7.777   1.324   8.369  1.8370 -0.1898  1.8129
  721MOL0     H95123   7.834   1.507   8.135  0.4596  2.3211  0.0789
  721MOL0     H95124   7.734   1.565   8.269  2.4147 -0.1522  0.9412
  721MOL0     H95125   7.515   1.431   8.328  0.2406 -0.7569 -0.1785
  721MOL0     H95126   7.258   1.321   8.116 -3.4428 -3.5184  0.1792
  721MOL0     H95127   7.295   1.281   8.289  0.8554 -0.2905  1.1997
  721MOL0     H95128   7.379   1.060   8.181 -0.4972 -0.2754 -0.4774
  721MOL0     H95129   7.287   1.093   8.045  1.2450 -0.1308  1.0644
  721MOL0     H95130   7.158   0.949   8.198 -2.8280  0.1740 -0.5625
  721MOL0     H95131   7.192   1.059   8.334  1.2641  1.1206 -0.4271
  721MOL0     H95132   6.946   1.053   8.209  1.2224 -1.9757 -0.8666
  721MOL0     H95133   7.035   1.151   8.084 -0.4810 -0.6083 -0.2554
  721MOL0     H95134   6.858   1.417   8.311  1.0867  0.6743  1.9584
  721MOL0     H95135   6.675   1.437   8.484  0.5802  0.6875  1.0395
  721MOL0     H95136   6.279   1.410   8.637  1.0843 -0.4140  0.1375
  721MOL0     H95137   6.107   1.439   8.842  1.5119  1.0934 -3.2490
  721MOL0     H95138   6.272   1.539   9.231 -0.8378  1.2941 -2.3563
  721MOL0     H95139   6.286   1.371   9.275 -1.5336  0.7977  0.9947
  721MOL0     H95140   6.140   1.473   9.418  1.2509 -0.1934 -0.1325
  721MOL0     H95141   6.030   1.382   9.316 -0.4989  0.5665  0.5915
  721MOL0     H95142   6.016   1.626   9.189 -1.3220  1.3761  0.3753
  721MOL0     H95143   6.068   1.679   9.345  0.0400  2.0744 -2.2594
  721MOL0     H95144   5.831   1.506   9.287  0.7479 -1.6252  2.0385
  721MOL0     H95145   5.889   1.545   9.450  2.5289  1.3267  0.5715
  721MOL0     H95146   5.859   1.795   9.348  0.4066 -0.7729  1.3469
  721MOL0     H95147   5.759   1.733   9.461  2.1425  2.3113  0.2596
  721MOL0     H95148   5.716   1.657   9.169  0.0859  1.7489 -0.9857
  721MOL0     H95149   5.663   1.815   9.228  0.6160 -0.2668 -1.2991
  721MOL0     H95150   5.575   1.546   9.337 -1.7265 -0.6163  0.8376
  721MOL0     H95151   5.511   1.685   9.410 -2.6210  0.2664 -0.3256
  721MOL0     H95152   5.485   1.602   9.110 -1.4621 -0.1431 -0.8595
  721MOL0     H95153   5.397   1.739   9.183 -4.3268 -1.0794  0.0164
  721MOL0     H95154   6.434   1.359   9.114 -3.7645 -1.7123  0.4405
  721MOL0     H95155   6.587   1.317   8.930 -1.1238 -0.8188  0.2810
  721MOL0     H95156   6.793   1.018   8.599  3.2937 -0.5399 -0.7957
  721MOL0     H95157   6.945   1.021   8.436 -1.8077 -0.6074 -1.9198
  721MOL0     H95158   8.783   1.220   8.783  0.0364  2.4263  2.6479
  721MOL0     H95159   9.018   1.239   8.731 -1.1435 -1.6787 -0.3292
  721MOL0     H95160   9.290   1.614   8.527 -0.7694 -1.2665  3.7115
  721MOL0     H95161   9.509   1.699   8.490 -2.4030 -0.2446  0.8709
  721MOL0     H95162   9.867   1.415   8.378 -0.0338 -1.9759  1.3841
  721MOL0     H95163   9.839   1.407   8.558  0.8557 -1.8151 -0.9133
  721MOL0     H95164   9.988   1.612   8.384  2.3488  0.1068  0.7289
  721MOL0     H95165   9.984   1.617   8.566  1.3117  0.3289 -0.6312
  721MOL0     H95166  10.084   1.374   8.424  0.2211 -0.5745  0.1414
  721MOL0     H95167  10.095   1.423   8.590  0.8333 -4.3295 -2.6032
  721MOL0     H95168  10.245   1.550   8.360 -0.5436 -2.8643 -1.0175
  721MOL0     H95169  10.238   1.626   8.521 -0.4695  0.1849  0.0923
  721MOL0     H95170  10.490   1.297   8.594  0.1499  0.2323 -0.5275
  721MOL0     H95171   9.661   1.293   8.438  0.5210  0.7229 -0.1405
  721MOL0     H95172   9.455   1.203   8.474  0.4378  0.2540  2.7211
  722MOL0     O95173   1.647  11.242   6.973 -0.2978 -1.4914  0.9514
  722MOL0     C95174   1.707  11.283   7.076  0.1704  0.7924  1.0372
  722MOL0     O95175   1.676  11.245   7.204  1.0841  0.5104 -0.3810
  722MOL0     C95176   1.582  11.145   7.237  0.0373 -0.9493 -0.7812
  722MOL0     C95177   1.456  11.186   7.289  0.3849 -0.7248  0.2124
  722MOL0     C95178   1.357  11.092   7.317 -0.0579  0.3914 -0.3237
  722MOL0     C95179   1.387  10.952   7.312 -0.9125 -0.7997  0.4210
  722MOL0     O95180   1.311  10.846   7.346  0.4205 -0.3191  0.5398
  722MOL0     C95181   1.180  10.880   7.395  0.7972  0.2740  0.2416
  722MOL0     C95182   1.117  10.739   7.436  0.8438 -0.1436 -0.2522
  722MOL0     C95183   0.966  10.747   7.400 -0.7847 -0.2033 -0.5810
  722MOL0     C95184   0.902  10.611   7.415  0.5132  0.2664 -0.4704
  722MOL0     C95185   0.743  10.618   7.438 -0.2294 -0.7970 -0.0866
  722MOL0     C95186   0.681  10.701   7.328  0.2762  0.0114  0.1349
  722MOL0     C95187   0.528  10.707   7.356 -0.5599 -0.1411  0.3070
  722MOL0     C95188   0.445  10.582   7.310  0.3770 -0.4625  0.7106
  722MOL0     N95189   0.303  10.607   7.335  0.4070  0.1159  0.3931
  722MOL0     C95190   0.211  10.645   7.236 -0.0214  0.2268  0.0616
  722MOL0     C95191   0.096  10.622   7.307 -0.2989  0.6567  0.1519
  722MOL0     C95192  -0.041  10.634   7.237 -0.0056  0.2678 -0.2327
  722MOL0     C95193  -0.155  10.568   7.322 -0.1517 -0.3686 -0.1463
  722MOL0     C95194  -0.282  10.634   7.278  0.1229  0.3242 -0.6932
  722MOL0     C95195  -0.405  10.608   7.365 -0.3024  0.2171 -0.1292
  722MOL0     O95196  -0.515  10.664   7.292  0.4465 -0.9536 -0.2075
  722MOL0     C95197  -0.645  10.636   7.335 -0.1233  0.3312  0.5675
  722MOL0     C95198  -0.756  10.640   7.249 -0.0515  0.8202 -0.3709
  722MOL0     C95199  -0.885  10.606   7.288 -0.0890 -0.4138 -0.0447
  722MOL0     C95200  -0.909  10.561   7.418  0.1720 -0.3885 -0.1440
  722MOL0     C95201  -1.049  10.523   7.459 -0.3303 -0.6299 -0.8629
  722MOL0     O95202  -1.140  10.512   7.357  0.3393 -1.1293 -0.1626
  722MOL0     C95203  -1.268  10.475   7.402 -0.0980  0.4396  0.1724
  722MOL0     C95204  -1.415  10.553   7.273 -0.0473  0.6638  0.7323
  722MOL0     C95205  -1.620  10.495   7.298 -0.0522  0.5415 -0.8227
  722MOL0     C95206  -1.667  10.356   7.461  0.7587  0.1741 -0.0722
  722MOL0     O95207  -1.798  10.320   7.465  0.2518 -0.1948  0.0911
  722MOL0     C95208  -1.848  10.228   7.566 -0.6453 -0.7563 -0.6286
  722MOL0     C95209  -1.993  10.240   7.612 -0.0025 -0.8398 -0.2114
  722MOL0     C95210  -2.009  10.171   7.754  0.8020  0.0451 -0.3819
  722MOL0     C95211  -2.071  10.033   7.754  0.3334  1.1067 -0.3572
  722MOL0     C95212  -2.201  10.025   7.677  0.0112 -0.0288 -0.3173
  722MOL0     C95213  -2.310  10.099   7.754  0.0082  0.2419 -0.1533
  722MOL0     C95214  -2.444  10.031   7.718  0.3881  0.2847 -0.4320
  722MOL0     C95215  -2.567  10.112   7.746 -0.4681 -0.0642  0.1217
  722MOL0    Cl95216  -2.612  10.219   7.609 -0.2066  0.0625 -0.0386
  722MOL0     C95217  -1.514  10.281   7.589 -0.3774  1.0065 -0.0338
  722MOL0     C95218  -1.317  10.341   7.557  0.7433  1.1140  0.0387
  722MOL0     O95219  -1.074  10.516   7.582 -0.1407 -0.0955 -0.1837
  722MOL0     C95220  -0.802  10.569   7.505 -0.7817  0.4845 -0.4313
  722MOL0     C95221  -0.666  10.599   7.468  0.3271  1.2703 -1.0880
  722MOL0     N95222   0.130  10.602   7.445 -0.7497  0.3440 -0.1703
  722MOL0     N95223   0.258  10.601   7.464 -0.5589  0.2813 -0.2793
  722MOL0     C95224   1.522  10.919   7.275  0.0363 -0.7787 -0.0037
  722MOL0     C95225   1.618  11.012   7.234  0.2773  0.3211  1.0328
  722MOL0     C95226   1.811  11.391   7.056 -0.6072 -0.4310 -0.4942
  722MOL0     C95227   1.897  11.427   7.165 -0.1649  0.5753  0.1699
  722MOL0     C95228   1.997  11.533   7.149  0.1902  0.0686  0.3596
  722MOL0     C95229   2.013  11.582   7.019  0.2448 -0.1760 -0.2563
  722MOL0     O95230   2.110  11.676   6.992 -0.2672  0.2566  0.0996
  722MOL0     C95231   2.237  11.614   6.964 -0.7587 -0.2981  0.0100
  722MOL0     C95232   2.323  11.656   7.087  0.2845 -1.3748  0.2135
  722MOL0     C95233   2.464  11.690   7.032  0.7780  1.2996  0.1414
  722MOL0     C95234   2.568  11.687   7.150 -0.2674 -0.8615 -0.6093
  722MOL0     C95235   2.696  11.728   7.085 -0.3465  0.1617 -0.2965
  722MOL0     C95236   2.808  11.741   7.042 -0.9441 -0.0394 -0.2850
  722MOL0     C95237   1.916  11.563   6.919 -0.2803  0.0326 -0.6281
  722MOL0     C95238   1.822  11.455   6.933 -1.3779  0.0523 -0.3980
  722MOL0     H95239   1.439  11.290   7.316  0.8610 -1.2412  2.8200
  722MOL0     H95240   1.265  11.128   7.363  1.1459  2.3263  0.7043
  722MOL0     H95241   1.127  10.935   7.317  1.6309  0.9624  0.1468
  722MOL0     H95242   1.171  10.939   7.487 -1.4190  0.6140 -0.1473
  722MOL0     H95243   1.119  10.704   7.539 -2.8593 -2.2100 -0.7109
  722MOL0     H95244   1.173  10.664   7.378  2.9541  0.0846  1.3902
  722MOL0     H95245   0.958  10.786   7.298  0.3420  1.1988 -0.1596
  722MOL0     H95246   0.915  10.815   7.469 -1.8893 -2.4775  0.9515
  722MOL0     H95247   0.923  10.551   7.326  1.2404 -2.1525  1.1931
  722MOL0     H95248   0.944  10.556   7.501 -1.1756 -2.7516 -1.4209
  722MOL0     H95249   0.726  10.665   7.535  4.6241 -0.4241  0.8322
  722MOL0     H95250   0.696  10.519   7.434 -0.5105 -0.6569 -0.4145
  722MOL0     H95251   0.696  10.659   7.227 -0.3812 -1.5377  0.6415
  722MOL0     H95252   0.717  10.804   7.333  1.3788 -0.3395 -0.1480
  722MOL0     H95253   0.518  10.734   7.461  3.0632  0.2845  0.6722
  722MOL0     H95254   0.492  10.793   7.298 -0.5013 -1.5877 -2.0041
  722MOL0     H95255   0.456  10.484   7.359 -2.5030 -1.7169 -0.8873
  722MOL0     H95256   0.461  10.570   7.202 -2.2755  0.5279  0.1270
  722MOL0     H95257   0.242  10.663   7.134  1.2571 -1.5797  0.0740
  722MOL0     H95258  -0.028  10.600   7.134 -1.1963 -0.4968 -0.1548
  722MOL0     H95259  -0.068  10.739   7.224 -2.8665 -0.2868  0.6241
  722MOL0     H95260  -0.145  10.586   7.429  1.2346 -0.1713 -0.2883
  722MOL0     H95261  -0.148  10.460   7.305  1.1035 -0.6698  1.9492
  722MOL0     H95262  -0.266  10.741   7.264 -0.3252  0.0891 -3.9102
  722MOL0     H95263  -0.309  10.602   7.177 -0.9210  0.4046 -0.4482
  722MOL0     H95264  -0.390  10.664   7.458  0.0588 -0.1188  0.0130
  722MOL0     H95265  -0.417  10.502   7.387 -2.5897  0.4335  0.0029
  722MOL0     H95266  -0.739  10.668   7.145 -3.1467  1.9427 -0.6825
  722MOL0     H95267  -0.966  10.633   7.222  0.1845 -1.7384 -0.9712
  722MOL0     H95268  -1.390  10.618   7.191 -1.2033  0.2987  0.0674
  722MOL0     H95269  -1.695  10.522   7.225 -1.4713 -2.8959 -0.8455
  722MOL0     H95270  -1.792  10.245   7.658 -4.0896 -1.9621  1.9059
  722MOL0     H95271  -1.842  10.122   7.539 -0.7165 -0.1852 -3.1054
  722MOL0     H95272  -2.064  10.211   7.535 -0.8029 -2.1197  0.9598
  722MOL0     H95273  -1.999  10.349   7.621  2.9428 -0.6587  0.6023
  722MOL0     H95274  -2.079  10.238   7.806 -1.0829 -0.5790 -2.0375
  722MOL0     H95275  -1.915  10.174   7.811  1.2670  2.0715 -1.1591
  722MOL0     H95276  -2.002   9.956   7.716 -2.4966 -2.0182  0.3104
  722MOL0     H95277  -2.100  10.001   7.855 -0.2475  3.1475  0.1634
  722MOL0     H95278  -2.228   9.919   7.675 -0.1686 -0.0216  0.7581
  722MOL0     H95279  -2.185  10.051   7.573 -1.9829 -1.1913 -0.9758
  722MOL0     H95280  -2.302  10.203   7.722  0.3754  1.0604  2.3423
  722MOL0     H95281  -2.287  10.098   7.861 -0.0734  3.3295 -0.0177
  722MOL0     H95282  -2.430   9.995   7.616  1.2947 -0.8006  0.0482
  722MOL0     H95283  -2.452   9.939   7.777  2.7234  1.0862  1.2888
  722MOL0     H95284  -2.546  10.164   7.840  3.6991  0.5574 -0.9714
  722MOL0     H95285  -2.644  10.035   7.759 -0.1332 -0.3782  0.2774
  722MOL0     H95286  -1.532  10.207   7.666 -1.2439  1.5393  0.2913
  722MOL0     H95287  -1.241  10.297   7.621  0.8615  2.5020  0.8902
  722MOL0     H95288  -0.809  10.532   7.607 -0.4885 -1.7249 -1.1696
  722MOL0     H95289  -0.597  10.608   7.551 -2.2930 -2.9126  1.8770
  722MOL0     H95290   1.550  10.814   7.275 -1.8688 -1.3291  0.7264
  722MOL0     H95291   1.706  10.978   7.179 -0.7703 -0.2575 -0.3475
  722MOL0     H95292   1.883  11.364   7.252  2.1192  2.3254  1.9373
  722MOL0     H95293   2.070  11.558   7.225 -0.3361  3.4155 -0.0677
  722MOL0     H95294   2.283  11.666   6.879 -0.6264  4.5776  2.6830
  722MOL0     H95295   2.238  11.505   6.950  0.2681 -0.5904  1.9816
  722MOL0     H95296   2.278  11.740   7.140 -1.3039 -2.2377  0.2908
  722MOL0     H95297   2.333  11.575   7.158  1.4236 -1.7148 -0.3155
  722MOL0     H95298   2.452  11.788   6.984 -3.2985 -0.0563 -2.1406
  722MOL0     H95299   2.503  11.621   6.958  2.2583  3.0235 -0.7699
  722MOL0     H95300   2.543  11.762   7.226  0.2673 -1.5307  0.2421
  722MOL0     H95301   2.570  11.593   7.206  3.6942 -0.1820  0.7171
  722MOL0     H95302   2.908  11.755   7.008  1.1458  0.6010  5.1242
  722MOL0     H95303   1.923  11.627   6.831  2.6329 -0.0736 -0.5665
  722MOL0     H95304   1.750  11.447   6.852 -1.8725  3.5178 -0.4544
  723MOL0     O95305   9.080   7.902   9.769  0.6361 -0.4460 -0.1281
  723MOL0     C95306   9.067   7.788   9.811 -0.4055  0.3487  1.1395
  723MOL0     O95307   9.173   7.708   9.836 -0.3557 -0.5047  0.1911
  723MOL0     C95308   9.303   7.751   9.822  0.4531  0.1035 -0.2485
  723MOL0     C95309   9.393   7.646   9.860 -0.7870  0.3459  0.6616
  723MOL0     C95310   9.535   7.661   9.865 -0.5125 -0.1012  0.5742
  723MOL0     C95311   9.590   7.777   9.824  0.9793 -0.9528 -0.1085
  723MOL0     O95312   9.729   7.791   9.809 -0.0383  0.1923  0.5170
  723MOL0     C95313   9.806   7.759   9.931  0.3596  0.4851  0.6269
  723MOL0     C95314   9.947   7.807   9.909 -0.2819 -0.3818 -0.4962
  723MOL0     C95315  10.033   7.774  10.027 -0.3503  0.1511 -0.2009
  723MOL0     C95316  10.169   7.812   9.985 -1.1889  0.1788  0.8166
  723MOL0     C95317  10.266   7.792  10.103 -0.2177  0.2060  0.0120
  723MOL0     C95318  10.418   7.820  10.076 -0.6037  0.6003 -0.4657
  723MOL0     C95319  10.512   7.763  10.184 -0.6761  0.7651 -0.0512
  723MOL0     C95320  10.550   7.622  10.132 -0.1181  0.4126  0.5780
  723MOL0     N95321  10.672   7.578  10.210  0.1499 -0.4088  0.2157
  723MOL0     C95322  10.664   7.527  10.332  0.0509 -0.8524 -0.0480
  723MOL0     C95323  10.795   7.505  10.357  0.1124 -0.2008 -0.4978
  723MOL0     C95324  10.864   7.428  10.472  0.2756  0.0727 -0.2440
  723MOL0     C95325  10.813   7.283  10.480 -0.0585 -0.3655 -0.8177
  723MOL0     C95326  10.861   7.197  10.608  0.6305  0.4565 -0.1676
  723MOL0     C95327  10.736   7.124  10.662 -0.9208 -0.0216 -0.1670
  723MOL0     O95328  10.623   7.205  10.694  0.7662 -0.0811  0.4831
  723MOL0     C95329  10.507   7.149  10.657  0.7890 -0.1154  0.2521
  723MOL0     C95330  10.478   7.020  10.692 -0.2372  0.5656  0.1281
  723MOL0     C95331  10.353   6.961  10.668  0.5943  0.1746 -0.0083
  723MOL0     C95332  10.248   7.043  10.625  1.5199 -0.3735 -0.0760
  723MOL0     C95333  10.105   6.996  10.621  0.3730 -0.0172  0.4683
  723MOL0     O95334  10.003   7.085  10.622  0.7340  0.1273  0.0649
  723MOL0     C95335   9.864   7.051  10.597  0.4785 -0.4961  0.9019
  723MOL0     C95336   9.783   7.163  10.597  0.8708  0.1204  0.1747
  723MOL0     C95337   9.651   7.170  10.565  0.5456  0.3414  0.7220
  723MOL0     C95338   9.597   7.048  10.520 -0.2907  0.0649  0.5482
  723MOL0     O95339   9.471   7.032  10.471 -0.4722  0.1270 -0.1867
  723MOL0     C95340   9.369   7.124  10.498 -0.4891  0.4117  0.1790
  723MOL0     C95341   9.234   7.088  10.423 -1.0122 -1.0467 -0.0604
  723MOL0     C95342   9.145   7.010  10.522  0.0714 -1.1119  0.1444
  723MOL0     C95343   9.083   7.100  10.637  0.3739  0.0094 -0.0138
  723MOL0     C95344   8.948   7.063  10.712 -0.1379  0.1358 -0.0704
  723MOL0     C95345   8.830   7.048  10.615  0.5200 -0.0633 -0.4690
  723MOL0     C95346   8.689   7.053  10.684  0.4949  0.0257  0.3344
  723MOL0     C95347   8.636   6.918  10.734  0.5162  0.0838 -0.0197
  723MOL0    Cl95348   8.500   6.926  10.845  0.6863 -0.6514 -0.3799
  723MOL0     C95349   9.669   6.926  10.530  0.0064 -0.5610  0.5514
  723MOL0     C95350   9.806   6.932  10.563  0.9065 -0.1992  0.9609
  723MOL0     O95351  10.096   6.878  10.617 -0.9405 -0.0307 -0.4324
  723MOL0     C95352  10.269   7.180  10.600  0.0544 -0.3325  0.0174
  723MOL0     C95353  10.400   7.238  10.618  0.6872  0.0110  0.6649
  723MOL0     N95354  10.869   7.568  10.261  0.7755  1.2233  0.4959
  723MOL0     N95355  10.794   7.607  10.175  0.2539 -0.4591  0.7346
  723MOL0     C95356   9.505   7.874   9.778  0.7308  0.3148 -0.5646
  723MOL0     C95357   9.360   7.865   9.780 -0.7755 -0.0910  0.2894
  723MOL0     C95358   8.935   7.747   9.864  0.1796  0.6147  0.0038
  723MOL0     C95359   8.911   7.613   9.911 -0.7707 -1.4477  0.1697
  723MOL0     C95360   8.780   7.589   9.952 -0.6611  0.9228 -0.2164
  723MOL0     C95361   8.676   7.669   9.957  0.1882  0.4863  0.5365
  723MOL0     O95362   8.552   7.645  10.001 -0.2881  0.1103  0.2390
  723MOL0     C95363   8.517   7.509  10.031 -0.7393  0.2995  0.3779
  723MOL0     C95364   8.365   7.504  10.041  0.0723  0.6814  0.1804
  723MOL0     C95365   8.316   7.552  10.176  0.3571  0.1188  0.5490
  723MOL0     C95366   8.177   7.617  10.161 -1.6966 -0.0303 -0.0184
  723MOL0     C95367   8.071   7.521  10.124 -0.4942 -1.1855 -0.9691
  723MOL0     C95368   7.980   7.455  10.097 -0.1245 -0.3959  0.3854
  723MOL0     C95369   8.703   7.796   9.906  0.6894  1.2010  0.2832
  723MOL0     C95370   8.830   7.842   9.866 -0.6111 -0.2218 -0.2442
  723MOL0     H95371   9.349   7.549   9.879  1.0850 -1.5982 -3.5037
  723MOL0     H95372   9.606   7.584   9.892  2.8294  1.7993 -2.0927
  723MOL0     H95373   9.807   7.651   9.946 -1.5426  0.4256  0.5250
  723MOL0     H95374   9.752   7.815  10.008 -2.0864 -0.7349 -0.0925
  723MOL0     H95375   9.946   7.916   9.896 -0.3047 -0.2027  0.8958
  723MOL0     H95376   9.999   7.763   9.823  1.6075  2.1699 -0.7864
  723MOL0     H95377  10.036   7.668  10.053 -2.0879  0.4366  1.4023
  723MOL0     H95378  10.002   7.842  10.107  0.8500  0.4592  0.0253
  723MOL0     H95379  10.199   7.743   9.905  0.4024 -3.0505  3.9172
  723MOL0     H95380  10.168   7.917   9.956  0.1848  0.1548  0.6129
  723MOL0     H95381  10.252   7.695  10.152  2.9241 -0.3883 -0.0712
  723MOL0     H95382  10.240   7.870  10.175  1.3940 -0.6638  1.6343
  723MOL0     H95383  10.422   7.929  10.080 -2.9819  0.7184  2.7496
  723MOL0     H95384  10.450   7.778   9.980 -0.6464  2.1500 -1.2004
  723MOL0     H95385  10.601   7.827  10.180  0.0068 -0.1882 -3.7130
  723MOL0     H95386  10.481   7.766  10.289  2.8075  4.3998  1.1370
  723MOL0     H95387  10.589   7.618  10.030  0.4342  2.3298  0.6793
  723MOL0     H95388  10.473   7.545  10.147  1.5787 -1.3171  0.8690
  723MOL0     H95389  10.573   7.510  10.388 -0.9021  0.0024 -1.2971
  723MOL0     H95390  10.844   7.476  10.568  1.3660  2.5886 -1.1752
  723MOL0     H95391  10.972   7.412  10.465 -0.1250 -3.6914 -0.0306
  723MOL0     H95392  10.842   7.227  10.391  0.6480 -0.4778 -0.5207
  723MOL0     H95393  10.704   7.292  10.485 -0.0883 -1.1734  2.7328
  723MOL0     H95394  10.941   7.125  10.595 -0.4807 -1.2580  1.9452
  723MOL0     H95395  10.899   7.260  10.688  1.1979 -0.7476  0.5383
  723MOL0     H95396  10.759   7.077  10.758  1.0708  3.6188  1.3735
  723MOL0     H95397  10.713   7.048  10.587 -0.4092 -0.0454 -0.3060
  723MOL0     H95398  10.554   6.955  10.733  0.5851  0.9314 -0.7703
  723MOL0     H95399  10.336   6.860  10.704  0.1624  0.5954  1.0267
  723MOL0     H95400   9.827   7.257  10.629  1.0467 -0.0998  0.5846
  723MOL0     H95401   9.603   7.267  10.569 -2.5636 -1.1093  2.3040
  723MOL0     H95402   9.403   7.223  10.465 -2.6833  0.8815 -0.8536
  723MOL0     H95403   9.352   7.133  10.606  0.4269  1.3200  0.2666
  723MOL0     H95404   9.261   7.029  10.334  2.7033  1.9728 -1.2235
  723MOL0     H95405   9.190   7.184  10.397  2.4427  0.5201 -0.6591
  723MOL0     H95406   9.204   6.932  10.571  0.5615  0.0362  1.4726
  723MOL0     H95407   9.061   6.964  10.470 -0.4988  1.2564 -1.1933
  723MOL0     H95408   9.162   7.118  10.710 -1.2491 -2.3317  2.5162
  723MOL0     H95409   9.053   7.189  10.582  0.8506 -0.4690 -1.0847
  723MOL0     H95410   8.919   7.137  10.787  0.3718 -0.2140  0.4846
  723MOL0     H95411   8.965   6.971  10.769 -1.5967 -1.9399 -2.7486
  723MOL0     H95412   8.833   6.947  10.574  2.6087  0.2998 -1.3431
  723MOL0     H95413   8.834   7.121  10.533  0.7928  2.0208  1.2979
  723MOL0     H95414   8.685   7.113  10.775 -1.2801 -1.5533  1.3756
  723MOL0     H95415   8.609   7.093  10.621  1.3205  0.0930 -0.7076
  723MOL0     H95416   8.715   6.863  10.786  0.6063  0.2934  0.0653
  723MOL0     H95417   8.590   6.854  10.658 -0.4270  0.1787  0.4526
  723MOL0     H95418   9.623   6.834  10.493  1.1756 -1.7893  2.0043
  723MOL0     H95419   9.860   6.838  10.555 -0.3857 -0.9798  1.0233
  723MOL0     H95420  10.185   7.249  10.586  0.8027  0.4123 -0.9257
  723MOL0     H95421  10.402   7.346  10.619  2.8437  0.0508 -0.8806
  723MOL0     H95422   9.541   7.964   9.729  1.6750 -0.6132 -1.6514
  723MOL0     H95423   9.300   7.941   9.729 -1.3718 -0.1103  0.9553
  723MOL0     H95424   8.987   7.536   9.907  1.4662  0.4763  2.3383
  723MOL0     H95425   8.780   7.487   9.989  4.4976  0.2670 -1.2420
  723MOL0     H95426   8.569   7.475  10.121  1.5090  1.1630 -0.5379
  723MOL0     H95427   8.556   7.436   9.960  0.6276  0.7100  0.6719
  723MOL0     H95428   8.333   7.565   9.956  1.9633  0.1364 -0.9904
  723MOL0     H95429   8.334   7.399  10.032 -0.1719  0.6963  0.8028
  723MOL0     H95430   8.388   7.621  10.220  1.5760  1.3617 -3.0413
  723MOL0     H95431   8.309   7.464  10.240  0.3019 -0.8120 -0.7138
  723MOL0     H95432   8.148   7.663  10.256  1.2162  0.4400  0.7450
  723MOL0     H95433   8.188   7.696  10.086  0.5296  0.5456  0.8468
  723MOL0     H95434   7.902   7.393  10.057 -1.0858  1.2797 -0.4432
  723MOL0     H95435   8.621   7.867   9.901  0.3403  0.7806 -0.0384
  723MOL0     H95436   8.843   7.943   9.829 -1.3010 -0.4996 -1.2873
  724MOL0     O95437   2.251   0.487   3.598 -0.1632  0.6455 -0.6952
  724MOL0     C95438   2.292   0.602   3.622  0.4134  0.4108  1.1728
  724MOL0     O95439   2.220   0.696   3.680 -0.4499 -0.2079  0.1506
  724MOL0     C95440   2.084   0.681   3.706  0.2108  0.1314  0.5035
  724MOL0     C95441   2.001   0.791   3.686  0.8865 -0.0846 -0.4078
  724MOL0     C95442   1.866   0.777   3.706  1.1484  1.0379  0.1478
  724MOL0     C95443   1.810   0.656   3.761 -0.2579  0.6507 -0.1025
  724MOL0     O95444   1.675   0.638   3.787 -0.0177  0.0469 -0.6063
  724MOL0     C95445   1.590   0.749   3.825  0.3002  0.6327  0.5451
  724MOL0     C95446   1.437   0.699   3.828  0.2700  1.1567  0.7241
  724MOL0     C95447   1.348   0.796   3.904 -0.3378  0.2959 -0.7434
  724MOL0     C95448   1.212   0.747   3.888 -1.6672 -0.2804  0.2839
  724MOL0     C95449   1.111   0.837   3.973  0.9821  1.2052 -0.1556
  724MOL0     C95450   0.975   0.822   3.907  0.2940 -0.8809 -0.4708
  724MOL0     C95451   0.891   0.933   3.966  0.8077  0.3504  0.5308
  724MOL0     C95452   0.768   0.962   3.870  0.3301  0.0969  1.2358
  724MOL0     N95453   0.687   1.074   3.922 -0.0931  0.0798 -0.7253
  724MOL0     C95454   0.571   1.061   3.992  1.1821 -0.3774 -0.0607
  724MOL0     C95455   0.531   1.192   4.011  0.2341  0.6979 -0.0555
  724MOL0     C95456   0.411   1.232   4.085 -0.3593  0.7072  0.4451
  724MOL0     C95457   0.297   1.276   4.000 -0.1623 -0.1417 -0.2931
  724MOL0     C95458   0.197   1.348   4.097 -0.3418  0.3120  0.2280
  724MOL0     C95459   0.076   1.401   4.022  0.1167  0.0072  0.1861
  724MOL0     O95460   0.017   1.292   3.961  0.4071 -0.3939 -0.1106
  724MOL0     C95461  -0.119   1.277   3.927 -0.2584  0.4509  0.1718
  724MOL0     C95462  -0.179   1.151   3.897 -0.0502 -0.4937  0.0425
  724MOL0     C95463  -0.317   1.144   3.859 -0.5524 -0.2714 -0.0747
  724MOL0     C95464  -0.395   1.262   3.852 -0.8514  0.0224 -0.2346
  724MOL0     C95465  -0.542   1.251   3.839 -0.2799 -0.6553  0.4932
  724MOL0     O95466  -0.592   1.128   3.839  0.4207  0.3964  0.3248
  724MOL0     C95467  -0.722   1.092   3.824 -0.5153 -0.2552  0.0175
  724MOL0     C95468  -0.770   0.980   3.897 -0.3646 -0.2302 -0.2334
  724MOL0     C95469  -0.909   0.957   3.896  0.8586 -0.0666  0.3769
  724MOL0     C95470  -1.000   1.035   3.816 -0.1310 -1.2211 -0.3259
  724MOL0     O95471  -1.134   0.990   3.824 -1.2049 -0.5135  0.4490
  724MOL0     C95472  -1.222   1.067   3.751  0.6154 -0.3225  0.6255
  724MOL0     C95473  -1.369   1.000   3.729  0.3002  0.8990 -0.6151
  724MOL0     C95474  -1.430   0.939   3.858 -0.8934  0.4375 -0.7219
  724MOL0     C95475  -1.571   0.891   3.841  0.0451 -0.0038  0.6459
  724MOL0     C95476  -1.667   1.006   3.828 -0.6314 -0.7421  0.0723
  724MOL0     C95477  -1.812   0.942   3.804  0.4899 -0.0422 -0.2390
  724MOL0     C95478  -1.920   1.036   3.848  0.5213  0.4733  0.0609
  724MOL0     C95479  -2.059   0.984   3.816 -0.2544  0.1316  0.0568
  724MOL0    Cl95480  -2.197   1.104   3.807 -0.6813 -0.3821 -0.0017
  724MOL0     C95481  -0.944   1.143   3.741  1.0531  0.4407  0.1306
  724MOL0     C95482  -0.806   1.165   3.742  0.2313 -0.3224  0.4153
  724MOL0     O95483  -0.605   1.355   3.822 -0.0027 -0.2902  0.1537
  724MOL0     C95484  -0.337   1.386   3.891 -0.1417 -0.2068 -0.0254
  724MOL0     C95485  -0.199   1.392   3.923  0.1513  0.8882  0.3918
  724MOL0     N95486   0.626   1.272   3.966  0.7555 -0.0483 -0.0412
  724MOL0     N95487   0.718   1.204   3.907 -0.4434  0.5279 -0.1214
  724MOL0     C95488   1.894   0.553   3.787 -0.2351  0.2818 -0.2155
  724MOL0     C95489   2.028   0.561   3.756 -0.0684 -0.0648 -0.6552
  724MOL0     C95490   2.416   0.648   3.560 -0.9979  0.7468  0.1188
  724MOL0     C95491   2.518   0.560   3.516 -0.2484 -0.1762 -0.7517
  724MOL0     C95492   2.633   0.606   3.451 -0.0354  0.5190 -0.7722
  724MOL0     C95493   2.649   0.738   3.423  0.1831 -0.4110  0.7024
  724MOL0     O95494   2.762   0.761   3.348  0.0882 -0.7116  0.6246
  724MOL0     C95495   2.823   0.898   3.335 -0.3315 -0.2455 -0.0282
  724MOL0     C95496   2.930   0.910   3.449  0.3391 -0.6655 -0.0426
  724MOL0     C95497   2.951   1.052   3.506 -0.0801 -0.0078  0.9301
  724MOL0     C95498   2.837   1.095   3.610 -0.1727  0.1080  0.7076
  724MOL0     C95499   2.895   1.186   3.709 -0.1194 -0.7466 -0.6370
  724MOL0     C95500   2.946   1.230   3.804  0.0915 -0.4687 -1.7929
  724MOL0     C95501   2.560   0.828   3.486 -0.1712 -0.6310  1.1366
  724MOL0     C95502   2.435   0.784   3.537  0.0709 -0.4033  0.2648
  724MOL0     H95503   2.034   0.887   3.646 -1.4036  1.0855  0.3380
  724MOL0     H95504   1.805   0.847   3.650  0.4703 -0.7819 -1.5132
  724MOL0     H95505   1.588   0.825   3.747 -0.6029  0.3929  0.3180
  724MOL0     H95506   1.620   0.779   3.926  3.0277  1.4717 -0.4326
  724MOL0     H95507   1.434   0.599   3.872  1.2603  0.7092 -0.1862
  724MOL0     H95508   1.402   0.686   3.725  3.0226 -0.3302 -0.1220
  724MOL0     H95509   1.362   0.893   3.857  0.7682 -0.0575 -1.1842
  724MOL0     H95510   1.378   0.808   4.009  0.8134  0.2089 -1.0505
  724MOL0     H95511   1.170   0.756   3.787  0.2396 -2.6557 -0.7995
  724MOL0     H95512   1.215   0.643   3.921  0.5218 -0.3308  0.0565
  724MOL0     H95513   1.139   0.943   3.977 -0.3079  1.5364  0.7191
  724MOL0     H95514   1.108   0.791   4.072  1.3602 -4.0472 -2.2175
  724MOL0     H95515   0.920   0.729   3.924 -1.6950  0.2125 -0.6480
  724MOL0     H95516   0.983   0.853   3.803  3.0426  2.5196  0.5453
  724MOL0     H95517   0.858   0.906   4.067  0.7341  0.5696  0.5653
  724MOL0     H95518   0.944   1.028   3.979 -0.6971  1.0664  1.7890
  724MOL0     H95519   0.708   0.874   3.850 -1.6995  1.6066  0.3675
  724MOL0     H95520   0.811   1.010   3.781  0.3395 -1.0941  0.5768
  724MOL0     H95521   0.508   0.975   4.014 -1.6367  0.9051 -2.4627
  724MOL0     H95522   0.449   1.319   4.138  1.4736  0.0670  0.2559
  724MOL0     H95523   0.374   1.150   4.148 -0.4357  1.8488  1.9484
  724MOL0     H95524   0.262   1.186   3.948  1.5225 -1.0202  0.0207
  724MOL0     H95525   0.343   1.348   3.932  1.4119  1.0838  1.9624
  724MOL0     H95526   0.168   1.292   4.186  1.2614  0.3471  0.7909
  724MOL0     H95527   0.267   1.420   4.140  1.0555  1.2020 -3.1642
  724MOL0     H95528   0.127   1.465   3.949  1.6280 -0.9799  0.3438
  724MOL0     H95529   0.004   1.457   4.083  1.3310  1.5175  0.2823
  724MOL0     H95530  -0.122   1.059   3.886  1.7690  0.3129  2.0383
  724MOL0     H95531  -0.346   1.043   3.832  1.9517 -0.5513 -2.0738
  724MOL0     H95532  -0.707   0.914   3.956 -0.1965  0.2383  0.1228
  724MOL0     H95533  -0.961   0.879   3.950 -2.0606 -0.5795 -2.7891
  724MOL0     H95534  -1.192   1.084   3.647 -2.9154 -1.0179 -0.6679
  724MOL0     H95535  -1.257   1.159   3.799 -6.8864 -0.2669 -3.3337
  724MOL0     H95536  -1.378   0.925   3.649 -1.0117 -0.5919  0.8605
  724MOL0     H95537  -1.436   1.080   3.698 -1.0107 -0.3104 -0.9879
  724MOL0     H95538  -1.436   1.024   3.927 -1.7752  0.1845 -0.4740
  724MOL0     H95539  -1.363   0.867   3.905  2.0733  4.1810  1.3826
  724MOL0     H95540  -1.569   0.830   3.750  2.7982 -1.2283  1.4193
  724MOL0     H95541  -1.597   0.832   3.929  2.2292 -0.3275  1.1507
  724MOL0     H95542  -1.636   1.082   3.756 -0.5870  0.9203  1.7496
  724MOL0     H95543  -1.676   1.060   3.923 -0.1229 -1.7243  0.6985
  724MOL0     H95544  -1.815   0.854   3.869 -0.1178  1.7780  2.3673
  724MOL0     H95545  -1.820   0.916   3.698 -1.7591 -0.7300  0.0481
  724MOL0     H95546  -1.920   1.055   3.956 -0.0606  0.4111  0.0798
  724MOL0     H95547  -1.902   1.134   3.804  1.1156  0.5199  0.4068
  724MOL0     H95548  -2.090   0.908   3.888 -2.6585 -1.1279 -2.1411
  724MOL0     H95549  -2.048   0.935   3.718 -0.7386  2.6822 -1.3788
  724MOL0     H95550  -1.008   1.202   3.676  0.2214 -2.9484 -2.3522
  724MOL0     H95551  -0.770   1.240   3.673 -0.3573  0.6801  1.1728
  724MOL0     H95552  -0.391   1.478   3.911 -1.7467 -1.5825  2.4900
  724MOL0     H95553  -0.150   1.488   3.934  4.3290 -1.1073  1.3110
  724MOL0     H95554   1.880   0.457   3.836 -0.1394  0.7066  0.6688
  724MOL0     H95555   2.093   0.481   3.789 -0.3266  0.5047  1.4030
  724MOL0     H95556   2.501   0.456   3.542  0.2489 -0.1728 -0.3872
  724MOL0     H95557   2.708   0.531   3.427  0.6759  0.6602  0.8913
  724MOL0     H95558   2.740   0.969   3.338  1.5571  2.0994 -0.5064
  724MOL0     H95559   2.887   0.896   3.247  0.2412 -1.0787  0.3868
  724MOL0     H95560   2.888   0.854   3.533  0.2231 -1.5139 -0.6503
  724MOL0     H95561   3.033   0.879   3.425  0.6062 -0.9255  1.3381
  724MOL0     H95562   2.946   1.114   3.415 -1.9928 -1.0965  0.2430
  724MOL0     H95563   3.049   1.063   3.553  0.4589 -0.5023 -0.0465
  724MOL0     H95564   2.765   1.148   3.549  0.1325 -0.2069  0.0600
  724MOL0     H95565   2.791   1.013   3.665  0.5465 -2.0145 -1.6480
  724MOL0     H95566   2.984   1.276   3.893 -1.0811  2.3410 -2.6319
  724MOL0     H95567   2.565   0.936   3.483  0.0533 -0.6532 -1.2935
  724MOL0     H95568   2.363   0.858   3.573  0.2216  0.2557 -0.7740
  725MOL0     O95569   0.654   0.186   6.160 -0.1836 -0.7535  0.4568
  725MOL0     C95570   0.722   0.126   6.082 -0.6658  0.4352  0.8458
  725MOL0     O95571   0.674   0.046   5.984 -1.2312 -0.3222 -0.6450
  725MOL0     C95572   0.534   0.035   5.960  0.6425  0.7681  0.4508
  725MOL0     C95573   0.479   0.127   5.870 -0.2213  0.0332 -0.7993
  725MOL0     C95574   0.353   0.108   5.814 -0.9342 -0.8814 -0.7229
  725MOL0     C95575   0.269   0.013   5.874  0.1551  0.0197  0.1115
  725MOL0     O95576   0.138   0.007   5.831  0.3776  0.1087  0.4574
  725MOL0     C95577   0.050   0.081   5.912  0.4952  0.9996 -0.3393
  725MOL0     C95578  -0.096   0.054   5.881  0.0798 -0.0401 -0.0649
  725MOL0     C95579  -0.140   0.087   5.732 -0.2081  0.1381  0.2159
  725MOL0     C95580  -0.286   0.133   5.733 -0.7080  0.7078  0.1111
  725MOL0     C95581  -0.337   0.115   5.592 -0.0650  0.6609  0.6617
  725MOL0     C95582  -0.256   0.185   5.482 -0.3181  0.3722  0.1441
  725MOL0     C95583  -0.315   0.176   5.349  0.0175 -0.3631  0.5169
  725MOL0     C95584  -0.296   0.039   5.283 -0.1421  0.7833  0.4028
  725MOL0     N95585  -0.336   0.036   5.139 -0.4506 -0.0779  0.3936
  725MOL0     C95586  -0.424   0.122   5.076 -0.1193 -0.7036 -0.5633
  725MOL0     C95587  -0.446   0.083   4.957  0.6014  0.6513  0.3120
  725MOL0     C95588  -0.529   0.164   4.863  0.1345  0.2092  0.8030
  725MOL0     C95589  -0.680   0.131   4.846  0.2292  0.8592 -0.0327
  725MOL0     C95590  -0.694   0.009   4.762 -0.5334  0.1977 -1.0294
  725MOL0     C95591  -0.848  -0.022   4.740  0.4613  0.3741 -1.0116
  725MOL0     O95592  -0.917  -0.067   4.865 -0.0672 -0.0338  0.6864
  725MOL0     C95593  -1.050  -0.108   4.851 -0.3545 -0.7268  0.5924
  725MOL0     C95594  -1.113  -0.155   4.966  0.7037 -0.0229 -0.1326
  725MOL0     C95595  -1.250  -0.190   4.962  0.2911 -0.3923 -0.0861
  725MOL0     C95596  -1.324  -0.176   4.839 -0.0130  0.4912 -0.0318
  725MOL0     C95597  -1.465  -0.221   4.830 -0.0063  0.1462 -0.1510
  725MOL0     O95598  -1.519  -0.282   4.941  0.7040  0.0393 -0.8336
  725MOL0     C95599  -1.657  -0.302   4.927  0.1837 -0.1665 -0.3492
  725MOL0     C95600  -1.744  -0.224   5.004  0.5144  0.8983 -0.2943
  725MOL0     C95601  -1.880  -0.228   4.989  0.0233 -0.5283  1.0376
  725MOL0     C95602  -1.938  -0.316   4.893 -0.3477  0.0285 -0.5664
  725MOL0     O95603  -2.075  -0.311   4.868 -0.1545  0.8425  0.4577
  725MOL0     C95604  -2.131  -0.375   4.753  0.4349 -0.9422 -0.4797
  725MOL0     C95605  -2.255  -0.281   4.726  0.2668 -0.0893  0.1709
  725MOL0     C95606  -2.340  -0.330   4.614  0.2405  0.1900  0.6941
  725MOL0     C95607  -2.397  -0.465   4.632 -0.0744 -1.2949 -0.3370
  725MOL0     C95608  -2.491  -0.508   4.520  0.4311 -0.5896  0.1897
  725MOL0     C95609  -2.606  -0.587   4.579  0.3604 -0.7745 -0.9435
  725MOL0     C95610  -2.685  -0.677   4.490 -0.6286 -0.3101 -0.6504
  725MOL0     C95611  -2.768  -0.766   4.580 -1.2923  0.5293  0.3561
  725MOL0    Cl95612  -2.894  -0.689   4.675 -0.1424 -0.2867 -0.1256
  725MOL0     C95613  -1.854  -0.408   4.832 -0.6395  0.3358 -0.0465
  725MOL0     C95614  -1.717  -0.397   4.843  0.0488 -1.0374  0.3304
  725MOL0     O95615  -1.518  -0.208   4.724  0.0272  0.5432  0.9675
  725MOL0     C95616  -1.262  -0.121   4.721 -0.7639 -0.1901 -0.6018
  725MOL0     C95617  -1.127  -0.090   4.732  0.5949  0.3725  1.0845
  725MOL0     N95618  -0.404  -0.043   4.950  0.3731  0.0022 -0.6280
  725MOL0     N95619  -0.322  -0.063   5.048 -0.3215  0.2298 -0.2592
  725MOL0     C95620   0.322  -0.071   5.968 -0.2511  0.2929 -1.0842
  725MOL0     C95621   0.451  -0.065   6.007 -0.5497  0.1367 -0.7337
  725MOL0     C95622   0.867   0.117   6.105 -0.2182  0.3172 -0.2733
  725MOL0     C95623   0.925   0.198   6.203 -0.5508  0.0872  0.7489
  725MOL0     C95624   1.056   0.176   6.228  0.1116 -1.0422  0.0602
  725MOL0     C95625   1.140   0.098   6.153 -0.2785  0.5498 -0.2385
  725MOL0     O95626   1.272   0.089   6.191  0.1914 -0.0641  0.6163
  725MOL0     C95627   1.368   0.074   6.084 -0.2322  0.6164  0.3182
  725MOL0     C95628   1.513   0.109   6.120  0.7396  0.0045 -0.2609
  725MOL0     C95629   1.628   0.038   6.040  1.0937 -0.1548 -0.5381
  725MOL0     C95630   1.654   0.120   5.908 -0.1119  0.5658  0.2779
  725MOL0     C95631   1.537   0.117   5.817 -0.8241  0.2035  0.2337
  725MOL0     C95632   1.449   0.087   5.742  0.3470 -0.0511 -0.0815
  725MOL0     C95633   1.093   0.030   6.040  0.4433  0.5424  0.2791
  725MOL0     C95634   0.954   0.040   6.018  0.8546  0.4637 -0.3724
  725MOL0     H95635   0.554   0.203   5.849  0.7193 -0.4991  0.4364
  725MOL0     H95636   0.310   0.168   5.735 -1.3075  1.0051  0.8230
  725MOL0     H95637   0.059   0.190   5.901  0.7291  1.0628  0.4078
  725MOL0     H95638   0.067   0.048   6.015  2.8384 -0.3922 -1.0919
  725MOL0     H95639  -0.150   0.125   5.945  2.7996  2.2084 -0.0717
  725MOL0     H95640  -0.136  -0.042   5.915  1.5942 -0.6191  0.1350
  725MOL0     H95641  -0.113   0.001   5.671  1.3094 -1.2028  2.5854
  725MOL0     H95642  -0.074   0.165   5.693 -1.1814  0.0940 -1.6021
  725MOL0     H95643  -0.342   0.087   5.814  1.8522  2.9518  3.3981
  725MOL0     H95644  -0.284   0.242   5.749 -3.3243  0.8439 -0.0477
  725MOL0     H95645  -0.439   0.154   5.591 -0.4262 -0.2500  0.4598
  725MOL0     H95646  -0.339   0.007   5.570 -2.9644  0.6162  0.8574
  725MOL0     H95647  -0.156   0.140   5.477 -0.5524 -0.1215 -0.2237
  725MOL0     H95648  -0.230   0.287   5.511  2.2806 -0.0624 -0.3657
  725MOL0     H95649  -0.422   0.181   5.372  0.0431  2.3808  0.4513
  725MOL0     H95650  -0.294   0.251   5.272  0.8927 -1.3513 -0.2396
  725MOL0     H95651  -0.340  -0.044   5.339 -2.1887  1.9648  0.6439
  725MOL0     H95652  -0.191   0.009   5.292 -0.1683  0.7387  0.5763
  725MOL0     H95653  -0.438   0.223   5.112 -0.4990 -0.5761 -1.0481
  725MOL0     H95654  -0.481   0.155   4.764  2.9857 -0.0656  2.1091
  725MOL0     H95655  -0.539   0.261   4.911  1.8289 -1.1338  4.2043
  725MOL0     H95656  -0.739   0.214   4.808  1.9679  1.7386 -0.9302
  725MOL0     H95657  -0.712   0.113   4.950  1.8831 -3.6464 -0.0460
  725MOL0     H95658  -0.647   0.035   4.667  0.6969 -0.6133 -0.6783
  725MOL0     H95659  -0.640  -0.079   4.798 -2.5685 -0.7557 -0.1501
  725MOL0     H95660  -0.850  -0.102   4.665  0.6185 -0.3080 -0.3056
  725MOL0     H95661  -0.897   0.070   4.706 -2.1294 -2.1544 -5.0106
  725MOL0     H95662  -1.054  -0.162   5.057  2.3362  4.1301 -0.6597
  725MOL0     H95663  -1.286  -0.227   5.057  2.0526 -0.1208  0.7190
  725MOL0     H95664  -1.715  -0.137   5.062  2.7868  2.0638 -2.9343
  725MOL0     H95665  -1.951  -0.158   5.031 -2.8094 -2.0365 -0.8585
  725MOL0     H95666  -2.167  -0.476   4.772 -4.8622  0.7440  0.1168
  725MOL0     H95667  -2.061  -0.381   4.668  0.7091 -0.8628 -0.2603
  725MOL0     H95668  -2.218  -0.179   4.709 -2.2844  1.3818  2.5668
  725MOL0     H95669  -2.320  -0.261   4.812  1.6829  1.5505  0.9412
  725MOL0     H95670  -2.278  -0.324   4.524 -0.9248 -1.0344 -0.2310
  725MOL0     H95671  -2.425  -0.267   4.590 -1.3208 -1.6048  1.2905
  725MOL0     H95672  -2.314  -0.537   4.632  1.7164  0.6654  0.2783
  725MOL0     H95673  -2.453  -0.469   4.726 -2.2347  2.0272 -1.3204
  725MOL0     H95674  -2.433  -0.564   4.446 -0.6776  1.7402 -2.6629
  725MOL0     H95675  -2.520  -0.418   4.465  2.2778 -1.1738 -1.8812
  725MOL0     H95676  -2.677  -0.514   4.618  2.2358  1.7711 -2.0128
  725MOL0     H95677  -2.558  -0.638   4.663 -0.7884  0.8765  0.8009
  725MOL0     H95678  -2.748  -0.617   4.423 -2.0478  1.9108  2.4018
  725MOL0     H95679  -2.614  -0.733   4.430 -0.6344 -0.0825 -0.8735
  725MOL0     H95680  -2.693  -0.820   4.638  0.0387  1.7457 -0.1842
  725MOL0     H95681  -2.819  -0.839   4.515  1.4967 -1.4423  0.1682
  725MOL0     H95682  -1.881  -0.490   4.766 -2.1307  3.2214 -3.3435
  725MOL0     H95683  -1.649  -0.450   4.777 -1.4459 -2.5147 -0.1093
  725MOL0     H95684  -1.303  -0.114   4.620 -2.4696 -2.7725 -0.1792
  725MOL0     H95685  -1.085  -0.040   4.646  1.6139 -1.9391  0.1616
  725MOL0     H95686   0.252  -0.141   6.011 -0.7012  3.5281  4.5070
  725MOL0     H95687   0.496  -0.129   6.082 -2.9201 -1.5568 -0.6343
  725MOL0     H95688   0.877   0.269   6.270 -1.1601 -0.0397  0.4558
  725MOL0     H95689   1.093   0.238   6.309  0.8134 -0.3882 -0.7442
  725MOL0     H95690   1.341   0.131   5.995 -1.4814 -1.5662 -0.7907
  725MOL0     H95691   1.380  -0.033   6.066  1.6420  0.0425  4.0480
  725MOL0     H95692   1.525   0.218   6.120  2.3655 -0.1571 -0.0385
  725MOL0     H95693   1.514   0.076   6.224  0.2742 -0.1951 -0.3171
  725MOL0     H95694   1.592  -0.061   6.009  0.1231  0.8672 -2.8286
  725MOL0     H95695   1.721   0.041   6.098 -0.9172 -0.5225  3.0260
  725MOL0     H95696   1.669   0.228   5.924  2.4099  0.5059 -1.1733
  725MOL0     H95697   1.738   0.089   5.845 -1.5673 -1.3049 -0.8443
  725MOL0     H95698   1.372   0.046   5.679  1.4848 -0.8588 -0.9838
  725MOL0     H95699   1.165  -0.035   5.991 -0.3111  1.8536 -2.8024
  725MOL0     H95700   0.907  -0.013   5.936  1.2993 -1.1906  0.4016
  726MOL0     O95701   8.361   9.087  10.193  0.6797  0.0923 -0.0601
  726MOL0     C95702   8.419   9.148  10.103  1.0050 -0.4851 -0.0719
  726MOL0     O95703   8.356   9.208   9.995  0.1997  0.2873 -0.8703
  726MOL0     C95704   8.213   9.209   9.981  0.0419  0.0214  0.1013
  726MOL0     C95705   8.140   9.095  10.015  0.1214 -0.2356  0.5385
  726MOL0     C95706   7.999   9.087   9.988  0.2094 -0.6131  0.1207
  726MOL0     C95707   7.942   9.197   9.924  0.5297 -0.2438 -0.9264
  726MOL0     O95708   7.804   9.191   9.894 -0.9271 -0.3068  0.4917
  726MOL0     C95709   7.779   9.090   9.790 -0.2099  0.4078 -0.3394
  726MOL0     C95710   7.658   9.105   9.689 -0.7855  0.1302  0.3986
  726MOL0     C95711   7.546   9.161   9.776 -0.0541 -1.0122 -0.0585
  726MOL0     C95712   7.429   9.164   9.681  0.2809  0.0722  0.3584
  726MOL0     C95713   7.302   9.200   9.757  0.6426 -0.7033  0.3577
  726MOL0     C95714   7.173   9.157   9.695 -0.1313  0.3622  0.0534
  726MOL0     C95715   7.153   9.190   9.549  0.4192  0.3993  0.3307
  726MOL0     C95716   7.133   9.339   9.521  0.1729 -0.0342 -0.0699
  726MOL0     N95717   6.999   9.385   9.548 -0.0136  0.0016 -0.1261
  726MOL0     C95718   6.954   9.479   9.634 -0.1527 -0.1829 -0.0190
  726MOL0     C95719   6.824   9.494   9.610  0.7120  0.3107 -0.7869
  726MOL0     C95720   6.733   9.600   9.654 -0.2053 -0.5626 -0.0455
  726MOL0     C95721   6.645   9.548   9.773  0.1967 -0.2343 -0.5554
  726MOL0     C95722   6.551   9.426   9.731 -0.2232 -0.3758  0.2700
  726MOL0     C95723   6.417   9.445   9.811  0.0466  0.8671  1.2412
  726MOL0     O95724   6.437   9.417   9.952 -0.1127  0.2807 -0.0220
  726MOL0     C95725   6.322   9.422  10.031  0.5780 -0.8688 -1.0316
  726MOL0     C95726   6.186   9.433   9.990  0.7278 -0.2260 -1.5675
  726MOL0     C95727   6.086   9.441  10.086  0.3441 -1.1474 -0.5442
  726MOL0     C95728   6.106   9.426  10.220 -0.3644 -0.0345 -0.6963
  726MOL0     C95729   6.007   9.424  10.327 -0.7362 -0.7584 -0.3427
  726MOL0     O95730   5.886   9.478  10.301  0.1441  0.0743  0.7241
  726MOL0     C95731   5.774   9.479  10.381 -0.9264  0.1255 -0.7958
  726MOL0     C95732   5.658   9.519  10.312  0.1892  1.0511  0.4909
  726MOL0     C95733   5.533   9.525  10.383  0.9149  0.5962  0.1109
  726MOL0     C95734   5.514   9.473  10.504 -0.0999  0.7003 -0.4567
  726MOL0     O95735   5.390   9.446  10.560  0.3728  0.0249 -0.0576
  726MOL0     C95736   5.371   9.486  10.694  0.4799 -0.1636 -0.7041
  726MOL0     C95737   5.260   9.393  10.763 -0.7110 -0.0836  0.3498
  726MOL0     C95738   5.117   9.400  10.716  0.6321  0.1055  1.0411
  726MOL0     C95739   5.017   9.334  10.813 -0.3901  0.1659  0.9315
  726MOL0     C95740   4.876   9.394  10.788 -0.3869  0.1734  0.8292
  726MOL0     C95741   4.795   9.371  10.910 -0.2654  0.2146 -0.7483
  726MOL0     C95742   4.650   9.408  10.868  1.0110  0.4501 -0.6137
  726MOL0     C95743   4.553   9.362  10.980  0.1300 -0.4522 -0.4309
  726MOL0    Cl95744   4.540   9.470  11.103  0.5948  0.1526 -0.1434
  726MOL0     C95745   5.635   9.432  10.573 -0.1461  0.1687  0.4437
  726MOL0     C95746   5.763   9.431  10.517  0.1598 -0.1488  0.3078
  726MOL0     O95747   6.045   9.384  10.443 -0.1905  0.0864  0.3454
  726MOL0     C95748   6.242   9.406  10.256  0.1854  0.5928  0.2704
  726MOL0     C95749   6.347   9.409  10.164 -0.1035  0.8466 -0.7359
  726MOL0     N95750   6.784   9.406   9.511 -0.1085  0.2039 -0.3210
  726MOL0     N95751   6.889   9.341   9.476 -0.5092  0.6066 -0.6074
  726MOL0     C95752   8.010   9.321   9.906  0.2823  0.0063  0.3327
  726MOL0     C95753   8.143   9.324   9.933 -0.6548 -1.0703 -0.0948
  726MOL0     C95754   8.560   9.141  10.090 -1.2617 -0.2347 -0.6492
  726MOL0     C95755   8.638   9.079  10.192  1.2233 -0.9360 -0.1768
  726MOL0     C95756   8.778   9.075  10.193  0.4419 -0.2092  0.3444
  726MOL0     C95757   8.848   9.138  10.079 -0.5000  0.9711 -0.4730
  726MOL0     O95758   8.982   9.129  10.065  0.1099 -0.0506  0.4566
  726MOL0     C95759   9.041   9.179   9.944  0.1500  0.3775  0.2901
  726MOL0     C95760   9.199   9.163   9.954 -0.2827  0.3989 -0.1892
  726MOL0     C95761   9.269   9.023   9.933  0.3732 -0.4606  0.5960
  726MOL0     C95762   9.357   9.034   9.806  0.1088 -0.7788  0.0186
  726MOL0     C95763   9.463   9.139   9.809 -0.2063  0.0947  1.0203
  726MOL0     C95764   9.546   9.221   9.815 -0.1241  0.6086 -0.1614
  726MOL0     C95765   8.763   9.186   9.976  0.1404  0.0206  1.0617
  726MOL0     C95766   8.628   9.193   9.983  0.3259  0.1125  0.7173
  726MOL0     H95767   8.186   9.003  10.048  0.7893 -0.3249 -0.5828
  726MOL0     H95768   7.940   8.998  10.007  0.4457 -0.7305  0.3150
  726MOL0     H95769   7.762   8.996   9.844 -0.6874  0.4229 -0.4644
  726MOL0     H95770   7.869   9.083   9.728  2.7115  1.0450  3.4314
  726MOL0     H95771   7.651   9.004   9.648 -1.5412 -0.6914  2.4393
  726MOL0     H95772   7.678   9.170   9.603  2.2138 -1.4564 -0.2566
  726MOL0     H95773   7.574   9.258   9.819  2.1200 -0.9698 -1.4397
  726MOL0     H95774   7.519   9.089   9.854 -2.1519  1.0082  1.2272
  726MOL0     H95775   7.457   9.243   9.611 -1.0259 -0.7921 -1.2020
  726MOL0     H95776   7.418   9.064   9.638  4.2186 -0.3393 -0.0777
  726MOL0     H95777   7.293   9.308   9.769 -2.0395 -0.4920 -2.4520
  726MOL0     H95778   7.301   9.143   9.851 -1.4439 -1.1965  0.0906
  726MOL0     H95779   7.091   9.210   9.745 -0.6534  1.0213 -1.4030
  726MOL0     H95780   7.152   9.052   9.718 -0.6450 -0.5157 -3.7349
  726MOL0     H95781   7.248   9.155   9.506  1.0565 -2.7569  3.8319
  726MOL0     H95782   7.072   9.130   9.508 -0.2094  1.4105  0.0496
  726MOL0     H95783   7.156   9.346   9.415 -3.0027 -1.6460 -0.9710
  726MOL0     H95784   7.204   9.392   9.585  0.3795  0.8968 -1.0509
  726MOL0     H95785   7.009   9.544   9.701  0.1009 -0.1956 -0.2148
  726MOL0     H95786   6.679   9.662   9.582 -1.0371  2.5050  2.9233
  726MOL0     H95787   6.801   9.672   9.702  0.0697 -0.3322 -0.7750
  726MOL0     H95788   6.569   9.624   9.794  0.0846 -0.2897 -0.7576
  726MOL0     H95789   6.705   9.523   9.861 -2.7000 -0.4151  1.5116
  726MOL0     H95790   6.513   9.434   9.629  0.5453  0.2730  0.0188
  726MOL0     H95791   6.608   9.334   9.746  0.3932  0.3551  3.0700
  726MOL0     H95792   6.347   9.368   9.780 -1.8156  1.8304  2.8162
  726MOL0     H95793   6.367   9.541   9.799  0.2786  1.1144  2.1360
  726MOL0     H95794   6.156   9.427   9.886 -0.7458 -1.1855 -1.1325
  726MOL0     H95795   5.983   9.459  10.058  0.2726 -2.1253 -0.9413
  726MOL0     H95796   5.667   9.548  10.208  1.9372 -3.8254 -1.0107
  726MOL0     H95797   5.450   9.574  10.333  0.7266 -0.4741 -0.6706
  726MOL0     H95798   5.339   9.591  10.692  1.4421  0.1746  0.5923
  726MOL0     H95799   5.466   9.490  10.748 -0.7058 -0.7803  1.5635
  726MOL0     H95800   5.257   9.417  10.870  0.3834 -0.2673  0.4313
  726MOL0     H95801   5.294   9.289  10.760  4.3498  1.3241 -1.5488
  726MOL0     H95802   5.124   9.359  10.615 -1.7509  0.4357  0.6946
  726MOL0     H95803   5.092   9.506  10.711  1.6212  0.3023 -0.4529
  726MOL0     H95804   5.013   9.225  10.816  2.3405 -0.0075  0.6848
  726MOL0     H95805   5.038   9.364  10.917 -0.6705  0.1873  0.9827
  726MOL0     H95806   4.839   9.351  10.695  0.7681 -0.0207  0.4401
  726MOL0     H95807   4.886   9.503  10.781 -4.5211  0.7075  0.5737
  726MOL0     H95808   4.836   9.433  10.991 -3.0326 -0.7870  1.5613
  726MOL0     H95809   4.796   9.269  10.948 -1.5494  0.0515 -1.0897
  726MOL0     H95810   4.647   9.517  10.860 -0.0159  0.4130 -0.8827
  726MOL0     H95811   4.635   9.360  10.770  2.2417 -1.5178  0.0963
  726MOL0     H95812   4.584   9.266  11.023 -1.5936 -1.3295 -1.0352
  726MOL0     H95813   4.453   9.336  10.942  0.1978 -2.3343  0.5525
  726MOL0     H95814   5.627   9.402  10.677 -0.1247  0.5392  0.5538
  726MOL0     H95815   5.852   9.403  10.572 -0.8530 -3.6087  0.3853
  726MOL0     H95816   6.283   9.386  10.354 -2.0055 -0.5748  0.9969
  726MOL0     H95817   6.451   9.397  10.193 -0.0018 -0.8356 -1.7008
  726MOL0     H95818   7.954   9.409   9.877 -0.2981 -0.6324 -0.5658
  726MOL0     H95819   8.193   9.418   9.910 -4.6684  1.3203  0.0238
  726MOL0     H95820   8.588   9.040  10.280 -1.6409 -0.5364 -1.5365
  726MOL0     H95821   8.837   9.032  10.273  0.0599  1.5155  1.6394
  726MOL0     H95822   9.015   9.284   9.926 -2.2742 -0.1262  0.4219
  726MOL0     H95823   8.992   9.118   9.867 -0.0425  0.0349  0.6763
  726MOL0     H95824   9.233   9.234   9.878  0.6723 -0.1374 -0.2694
  726MOL0     H95825   9.229   9.205  10.051  0.2755 -2.3897  0.9182
  726MOL0     H95826   9.195   8.943   9.927  3.2940 -3.6981  3.4264
  726MOL0     H95827   9.343   9.007  10.012  1.0465 -0.1392  0.0414
  726MOL0     H95828   9.409   8.938   9.801  0.0629 -0.8937  1.3577
  726MOL0     H95829   9.301   9.057   9.715  1.5241  0.8391 -0.4941
  726MOL0     H95830   9.617   9.300   9.828  1.9099 -0.4131 -3.5566
  726MOL0     H95831   8.798   9.226   9.881  1.5420  0.1062  1.5834
  726MOL0     H95832   8.566   9.220   9.899 -0.4277  1.1433  1.5743
  727MOL0     O95833   0.068   4.324   8.339 -0.2547 -0.9096 -0.0756
  727MOL0     C95834   0.079   4.279   8.452  0.0622 -0.0457  0.1237
  727MOL0     O95835  -0.016   4.243   8.541  0.1434 -0.5887  0.6121
  727MOL0     C95836  -0.152   4.258   8.531  0.0423 -1.8263  0.5401
  727MOL0     C95837  -0.206   4.353   8.430  0.3337  0.0226  0.3300
  727MOL0     C95838  -0.347   4.373   8.414 -1.2242  0.1330  0.0030
  727MOL0     C95839  -0.428   4.303   8.501  0.7368 -0.1072  0.8482
  727MOL0     O95840  -0.560   4.319   8.483 -0.0922 -0.4499  0.1484
  727MOL0     C95841  -0.629   4.199   8.428  0.5587 -1.2801 -0.5684
  727MOL0     C95842  -0.784   4.209   8.447  0.8302  0.0701  0.5996
  727MOL0     C95843  -0.822   4.194   8.604  0.0626 -0.1848 -0.1030
  727MOL0     C95844  -0.972   4.227   8.620  0.2770  0.3240  0.3765
  727MOL0     C95845  -1.010   4.370   8.596  0.3702 -1.0397  0.1800
  727MOL0     C95846  -1.159   4.386   8.613  0.6030 -0.2232 -0.6993
  727MOL0     C95847  -1.215   4.376   8.756  0.1931 -0.7498  0.5133
  727MOL0     C95848  -1.331   4.475   8.791 -0.9706 -0.5112 -0.5286
  727MOL0     N95849  -1.452   4.450   8.712 -0.3980  0.5579 -0.6028
  727MOL0     C95850  -1.543   4.543   8.698  0.3523  0.1286  0.2797
  727MOL0     C95851  -1.641   4.493   8.618 -0.0534 -0.3257  0.6246
  727MOL0     C95852  -1.761   4.566   8.581 -0.8592 -0.5042  0.6264
  727MOL0     C95853  -1.890   4.489   8.589 -1.4722 -0.2519 -0.7294
  727MOL0     C95854  -1.933   4.448   8.734  0.5195 -0.5293 -0.8360
  727MOL0     C95855  -1.979   4.566   8.821  0.1156  0.3936  0.4298
  727MOL0     O95856  -2.079   4.510   8.903 -0.3261 -0.2791 -0.8913
  727MOL0     C95857  -2.150   4.594   8.991 -0.2540 -0.5030  1.0146
  727MOL0     C95858  -2.277   4.542   9.022 -0.3650 -0.1932 -0.2613
  727MOL0     C95859  -2.375   4.617   9.095 -0.0236  0.0915 -1.2658
  727MOL0     C95860  -2.338   4.741   9.145 -0.0306  0.4197 -0.3089
  727MOL0     C95861  -2.420   4.826   9.237 -0.2930 -0.6918 -1.1420
  727MOL0     O95862  -2.367   4.947   9.281 -0.3987 -0.3259  1.0237
  727MOL0     C95863  -2.434   5.043   9.356 -0.1559  1.1709  0.3526
  727MOL0     C95864  -2.385   5.077   9.480  0.6333 -0.4795 -0.3173
  727MOL0     C95865  -2.447   5.170   9.565  0.1896  0.2899  0.5964
  727MOL0     C95866  -2.572   5.225   9.530  0.2063 -0.3242 -0.0838
  727MOL0     O95867  -2.633   5.293   9.634  0.5193  0.0027  0.3473
  727MOL0     C95868  -2.758   5.351   9.601  0.7830  0.1631  0.1168
  727MOL0     C95869  -2.801   5.466   9.699  0.2517  0.1226  0.1766
  727MOL0     C95870  -2.939   5.531   9.669 -0.2932 -0.0783 -0.0929
  727MOL0     C95871  -2.935   5.682   9.641  0.4333 -0.5196 -0.5868
  727MOL0     C95872  -3.071   5.758   9.676 -0.1163  0.6377  0.1920
  727MOL0     C95873  -3.181   5.707   9.584 -0.1303  1.5343 -0.1568
  727MOL0     C95874  -3.310   5.795   9.587 -0.5697 -0.5941 -0.3412
  727MOL0     C95875  -3.389   5.768   9.716 -0.7592  0.0757  0.2371
  727MOL0    Cl95876  -3.509   5.891   9.713  0.6553 -0.1374  0.1963
  727MOL0     C95877  -2.625   5.187   9.403  0.2171 -0.2387  0.1837
  727MOL0     C95878  -2.559   5.097   9.317 -1.0669  1.6109 -0.2289
  727MOL0     O95879  -2.530   4.785   9.276 -0.4631 -0.5800 -0.0770
  727MOL0     C95880  -2.215   4.803   9.107 -0.0170  0.8342  0.3500
  727MOL0     C95881  -2.128   4.734   9.023 -1.7708  0.3174  1.2211
  727MOL0     N95882  -1.604   4.362   8.591 -0.8513  0.4577  0.5834
  727MOL0     N95883  -1.489   4.336   8.650  0.1296  0.2300  0.1113
  727MOL0     C95884  -0.373   4.219   8.592  0.5273  0.2235  0.0906
  727MOL0     C95885  -0.239   4.188   8.608  0.8683 -0.1719 -0.1658
  727MOL0     C95886   0.221   4.275   8.503 -0.4059 -0.3513  1.2697
  727MOL0     C95887   0.327   4.331   8.429 -1.1220 -0.4359 -0.8177
  727MOL0     C95888   0.452   4.324   8.480 -0.6090 -0.0328  0.3251
  727MOL0     C95889   0.481   4.248   8.605  0.2033  0.6456  0.3729
  727MOL0     O95890   0.608   4.244   8.663  1.1468 -0.4985  0.4977
  727MOL0     C95891   0.719   4.292   8.585 -0.5982 -0.8318  0.6905
  727MOL0     C95892   0.844   4.243   8.659 -0.4864 -0.1850 -0.3323
  727MOL0     C95893   0.971   4.284   8.587  0.1741  0.4161 -0.9820
  727MOL0     C95894   1.094   4.248   8.681  0.5731  0.7173 -0.1513
  727MOL0     C95895   1.089   4.108   8.719 -0.7597  0.7487  0.2065
  727MOL0     C95896   1.080   3.994   8.762 -0.2142 -0.0661 -0.3876
  727MOL0     C95897   0.375   4.198   8.670  0.1776  0.4143 -0.4809
  727MOL0     C95898   0.246   4.217   8.624 -0.6515  0.3117 -0.0521
  727MOL0     H95899  -0.143   4.412   8.365  0.7227  1.0894  1.6384
  727MOL0     H95900  -0.377   4.446   8.340  0.8370 -0.3038 -1.3417
  727MOL0     H95901  -0.593   4.108   8.477  1.4951 -0.8569 -0.4511
  727MOL0     H95902  -0.605   4.184   8.322  2.4933 -0.8898 -0.2263
  727MOL0     H95903  -0.831   4.129   8.388 -0.1416  2.5316 -2.1886
  727MOL0     H95904  -0.820   4.299   8.398 -0.5713 -1.7139 -1.8851
  727MOL0     H95905  -0.766   4.260   8.671  0.5904 -0.2611 -0.4555
  727MOL0     H95906  -0.796   4.092   8.632 -0.3021 -0.1772  0.2640
  727MOL0     H95907  -1.019   4.164   8.544  0.2545  0.0680  0.6001
  727MOL0     H95908  -1.011   4.193   8.716  1.4401  2.2434  1.6160
  727MOL0     H95909  -0.985   4.396   8.493  0.3182  1.6821  0.7775
  727MOL0     H95910  -0.954   4.438   8.661 -0.1791  0.0563 -0.4785
  727MOL0     H95911  -1.202   4.306   8.553  1.4661 -1.1646 -0.0854
  727MOL0     H95912  -1.205   4.478   8.574 -2.2224 -0.4005  1.8677
  727MOL0     H95913  -1.241   4.271   8.775 -0.2194 -0.2916  2.6736
  727MOL0     H95914  -1.140   4.393   8.834 -1.2852 -1.7182  2.2125
  727MOL0     H95915  -1.301   4.580   8.785 -2.0637 -0.0790  0.9914
  727MOL0     H95916  -1.355   4.467   8.897  0.8138  1.6702  0.1191
  727MOL0     H95917  -1.552   4.645   8.736  0.4219  0.0607  0.4784
  727MOL0     H95918  -1.755   4.593   8.476  1.0276  1.8795  1.2678
  727MOL0     H95919  -1.775   4.654   8.644 -2.1181 -2.2691  3.0110
  727MOL0     H95920  -1.880   4.398   8.529  2.2032 -0.8882  0.6227
  727MOL0     H95921  -1.972   4.554   8.555 -0.6487  1.1148 -0.1825
  727MOL0     H95922  -2.025   4.390   8.731  0.0577  0.1082  0.3569
  727MOL0     H95923  -1.851   4.391   8.780  0.8121  0.4500 -0.1259
  727MOL0     H95924  -2.027   4.645   8.762 -1.9614  0.9784  2.7167
  727MOL0     H95925  -1.898   4.611   8.879  0.8025 -1.1512  0.7397
  727MOL0     H95926  -2.290   4.438   8.993  1.6524  0.1030 -2.4948
  727MOL0     H95927  -2.467   4.563   9.119 -0.9817  3.0651  2.8654
  727MOL0     H95928  -2.290   5.039   9.517 -0.2303 -0.0448  2.6454
  727MOL0     H95929  -2.412   5.204   9.662  0.0735  1.6016  0.1987
  727MOL0     H95930  -2.836   5.275   9.596  0.8775  0.1069 -0.5695
  727MOL0     H95931  -2.759   5.393   9.500 -1.4628  0.7959  0.3433
  727MOL0     H95932  -2.727   5.546   9.689  0.7260 -0.5341 -2.3721
  727MOL0     H95933  -2.806   5.415   9.796  0.8404 -1.7288 -0.7085
  727MOL0     H95934  -3.009   5.513   9.751 -1.6219  0.7507 -1.0101
  727MOL0     H95935  -2.980   5.488   9.577 -1.0205 -0.4921  0.4104
  727MOL0     H95936  -2.858   5.713   9.712  1.7305 -1.1236 -1.6795
  727MOL0     H95937  -2.899   5.707   9.541  3.1308  0.2216  0.4878
  727MOL0     H95938  -3.058   5.866   9.662  0.9681  0.1876 -3.4175
  727MOL0     H95939  -3.104   5.736   9.778 -0.1221 -0.2235  0.0045
  727MOL0     H95940  -3.200   5.605   9.618  2.8267  1.3740  1.2551
  727MOL0     H95941  -3.145   5.708   9.480  1.8895  1.0917  0.4999
  727MOL0     H95942  -3.267   5.894   9.576 -1.2602 -0.4866 -2.4575
  727MOL0     H95943  -3.379   5.792   9.502  0.6182  0.3693 -1.3796
  727MOL0     H95944  -3.336   5.766   9.812 -2.0268 -0.1514  0.9578
  727MOL0     H95945  -3.433   5.668   9.708  3.5311 -1.9531 -1.2987
  727MOL0     H95946  -2.725   5.213   9.370  0.3398 -0.2448 -0.1998
  727MOL0     H95947  -2.612   5.062   9.229 -0.4224  0.1475 -0.0757
  727MOL0     H95948  -2.179   4.901   9.138 -0.5979  0.8239  1.0942
  727MOL0     H95949  -2.032   4.761   8.981 -3.1416  3.2034 -0.3070
  727MOL0     H95950  -0.447   4.175   8.658  0.2991  1.0336  0.3905
  727MOL0     H95951  -0.192   4.127   8.685  0.8236 -1.6527 -1.2692
  727MOL0     H95952   0.306   4.400   8.348  3.0931  0.4585 -1.3525
  727MOL0     H95953   0.537   4.379   8.440  1.3522 -2.9586  0.1331
  727MOL0     H95954   0.725   4.400   8.570 -1.3364 -0.9448 -0.5070
  727MOL0     H95955   0.718   4.250   8.484 -0.2229 -0.8343  0.6859
  727MOL0     H95956   0.833   4.273   8.764  0.5099  0.0674 -0.2888
  727MOL0     H95957   0.843   4.134   8.649 -2.5616 -0.1733 -0.7208
  727MOL0     H95958   0.967   4.393   8.578  0.6992  0.6572  1.1194
  727MOL0     H95959   0.986   4.244   8.486  0.2457 -1.1897 -0.3690
  727MOL0     H95960   1.184   4.286   8.632 -0.0590  3.3033  0.5530
  727MOL0     H95961   1.099   4.317   8.766  2.3506  0.4995 -0.0377
  727MOL0     H95962   1.065   3.896   8.804 -0.7457  0.0609 -0.2681
  727MOL0     H95963   0.396   4.152   8.766  0.0617 -1.6986 -1.3990
  727MOL0     H95964   0.169   4.188   8.695 -1.6760 -0.7294 -1.5385
  728MOL0     O95965   3.818   8.952  10.307  0.3460 -0.0912  0.0635
  728MOL0     C95966   3.904   8.870  10.295 -0.2412  0.1746 -0.3065
  728MOL0     O95967   3.893   8.738  10.332 -1.0214 -0.1461 -0.1258
  728MOL0     C95968   3.772   8.688  10.363  0.4861  0.2091 -0.3213
  728MOL0     C95969   3.667   8.678  10.283  0.0878  0.1028  0.0168
  728MOL0     C95970   3.547   8.632  10.333  0.7100  0.1868  0.0175
  728MOL0     C95971   3.537   8.584  10.469 -0.2962 -0.0397 -0.4167
  728MOL0     O95972   3.424   8.529  10.532 -0.2086 -0.7742  0.4157
  728MOL0     C95973   3.314   8.531  10.447 -0.0580  0.2702 -0.2071
  728MOL0     C95974   3.189   8.488  10.528 -0.2238 -0.4045 -0.1873
  728MOL0     C95975   3.143   8.556  10.665  0.0306  0.2453  0.8563
  728MOL0     C95976   3.111   8.707  10.648 -0.3756  0.0918  0.3787
  728MOL0     C95977   3.189   8.793  10.754  0.2128  0.0923  0.2555
  728MOL0     C95978   3.339   8.810  10.727  0.0418  0.0460 -0.8417
  728MOL0     C95979   3.400   8.862  10.857 -0.5548  0.0290  0.7784
  728MOL0     C95980   3.551   8.885  10.831 -1.2310 -0.5800 -0.9956
  728MOL0     N95981   3.584   9.008  10.758  0.0606 -0.4487 -0.4064
  728MOL0     C95982   3.621   9.016  10.627 -0.4885 -1.0012  0.7181
  728MOL0     C95983   3.618   9.150  10.600  0.6127  0.3225 -0.8563
  728MOL0     C95984   3.648   9.209  10.462 -0.1484 -0.4916 -0.1138
  728MOL0     C95985   3.649   9.358  10.468  0.0884  0.8708  0.2577
  728MOL0     C95986   3.653   9.426  10.332 -0.2189 -0.1565  0.3832
  728MOL0     C95987   3.782   9.402  10.261  0.6076 -0.2728  0.6294
  728MOL0     O95988   3.901   9.473  10.296 -0.4735  0.4673  0.0648
  728MOL0     C95989   4.016   9.462  10.218 -0.0968 -0.3588 -0.4496
  728MOL0     C95990   4.102   9.577  10.229 -0.7519  0.5906  0.7724
  728MOL0     C95991   4.228   9.574  10.161  0.0015 -0.2055 -1.0121
  728MOL0     C95992   4.262   9.462  10.073 -0.7601 -0.1943 -0.8698
  728MOL0     C95993   4.386   9.463   9.996 -0.7022 -0.2244  0.4030
  728MOL0     O95994   4.494   9.531  10.047 -0.4174 -0.4297 -0.2428
  728MOL0     C95995   4.613   9.516   9.984 -0.8099 -0.9853  0.0445
  728MOL0     C95996   4.712   9.428  10.027 -0.7233  0.2876  0.5084
  728MOL0     C95997   4.828   9.403   9.955 -0.6366 -0.3683 -0.1861
  728MOL0     C95998   4.848   9.473   9.835  0.6625 -0.2392  0.5862
  728MOL0     O95999   4.951   9.442   9.755 -0.1940  0.0700  0.1733
  728MOL0     C96000   4.979   9.305   9.720 -0.9074 -0.1753 -0.1987
  728MOL0     C96001   5.119   9.292   9.659  1.0381 -1.2149  0.1468
  728MOL0     C96002   5.226   9.352   9.750 -0.8757 -0.7093  0.4804
  728MOL0     C96003   5.364   9.378   9.687 -0.1173 -1.1685 -0.3243
  728MOL0     C96004   5.430   9.239   9.682  0.7416 -0.4552  0.5734
  728MOL0     C96005   5.569   9.244   9.617 -0.4247  0.2944  0.2182
  728MOL0     C96006   5.585   9.289   9.478 -0.3217 -0.4936 -0.4978
  728MOL0     C96007   5.522   9.202   9.368  0.5633 -0.0035  0.2666
  728MOL0    Cl96008   5.530   9.016   9.366 -0.3840  0.1524  0.2377
  728MOL0     C96009   4.759   9.577   9.794  0.2719 -0.7651 -0.5718
  728MOL0     C96010   4.634   9.590   9.865 -0.4386 -0.1987 -1.2840
  728MOL0     O96011   4.392   9.403   9.888  0.7212  0.4758  0.8471
  728MOL0     C96012   4.167   9.360  10.061  1.0038 -0.6396 -0.0527
  728MOL0     C96013   4.048   9.359  10.133  0.4190 -0.7454  0.3246
  728MOL0     N96014   3.587   9.223  10.720  0.3417 -0.0719  0.0980
  728MOL0     N96015   3.560   9.133  10.814  0.7574 -0.2154  0.2772
  728MOL0     C96016   3.654   8.590  10.546 -0.1607  0.0150 -0.1053
  728MOL0     C96017   3.770   8.646  10.494 -0.5972  0.2917 -0.2293
  728MOL0     C96018   4.036   8.911  10.246 -0.0562 -0.3271 -0.5600
  728MOL0     C96019   4.083   9.035  10.292  0.1280  1.3875  0.5968
  728MOL0     C96020   4.213   9.064  10.244 -0.1448 -0.0853 -0.3705
  728MOL0     C96021   4.290   8.985  10.156 -0.1359 -0.0946  0.7237
  728MOL0     O96022   4.406   9.031  10.101  0.1504 -0.0129 -0.6619
  728MOL0     C96023   4.445   8.997   9.968  0.4390  0.7842 -0.2079
  728MOL0     C96024   4.581   8.919   9.970  0.3791  0.7212  0.1691
  728MOL0     C96025   4.690   8.981   9.884 -0.0392 -0.2227 -0.0068
  728MOL0     C96026   4.817   8.896   9.878  0.9465 -0.5351  0.0909
  728MOL0     C96027   4.904   8.934   9.767  0.8327 -0.5844  0.1602
  728MOL0     C96028   4.981   8.944   9.676 -0.2959 -0.7150 -0.3932
  728MOL0     C96029   4.243   8.857  10.127  1.2446 -0.0010  0.5411
  728MOL0     C96030   4.119   8.821  10.170 -0.4940 -0.1075  0.8315
  728MOL0     H96031   3.667   8.716  10.181  1.2258 -0.0081 -0.0413
  728MOL0     H96032   3.456   8.622  10.273  0.3368 -0.3312  0.6597
  728MOL0     H96033   3.332   8.477  10.354  0.4162  0.6855 -0.3595
  728MOL0     H96034   3.297   8.634  10.416  3.9714  1.0611 -0.3020
  728MOL0     H96035   3.202   8.382  10.554  1.9261 -0.7014 -2.1927
  728MOL0     H96036   3.102   8.491  10.462 -1.1421 -3.3779  0.7175
  728MOL0     H96037   3.217   8.543  10.745  0.1736 -1.2223  0.5036
  728MOL0     H96038   3.054   8.502  10.697  0.4770 -0.2424  1.2901
  728MOL0     H96039   3.113   8.747  10.546 -1.8190 -0.2754  0.1853
  728MOL0     H96040   3.004   8.712  10.670 -0.7584 -1.5417 -0.9383
  728MOL0     H96041   3.183   8.743  10.851  0.6868  0.2009  0.3438
  728MOL0     H96042   3.142   8.892  10.750 -0.4460 -0.2082  0.4954
  728MOL0     H96043   3.357   8.876  10.641 -1.4985  1.2628 -0.2762
  728MOL0     H96044   3.373   8.709  10.704 -1.4636 -1.2191  2.0770
  728MOL0     H96045   3.353   8.956  10.889 -0.5204  1.5188 -3.0309
  728MOL0     H96046   3.392   8.783  10.932 -0.7420 -4.0750 -3.1422
  728MOL0     H96047   3.585   8.794  10.781  1.1493 -0.9339  1.0313
  728MOL0     H96048   3.607   8.877  10.925 -0.0396  0.1981 -1.6036
  728MOL0     H96049   3.621   8.941  10.549 -1.6669 -0.5096  0.2202
  728MOL0     H96050   3.561   9.183  10.401 -1.5059  0.6453  1.2544
  728MOL0     H96051   3.746   9.177  10.425 -0.4181 -0.7108 -0.6513
  728MOL0     H96052   3.736   9.387  10.528  0.1585  0.1185  0.5286
  728MOL0     H96053   3.559   9.394  10.518 -1.3019  2.0849 -2.8560
  728MOL0     H96054   3.564   9.405  10.270 -0.9016 -0.6410  1.4889
  728MOL0     H96055   3.649   9.534  10.342  2.7946  0.1445 -0.6135
  728MOL0     H96056   3.767   9.426  10.155 -0.1395 -2.1456  0.2876
  728MOL0     H96057   3.791   9.294  10.257 -1.2157 -0.5966  2.9421
  728MOL0     H96058   4.060   9.656  10.291 -0.5939  0.9716  0.3958
  728MOL0     H96059   4.293   9.660  10.171 -0.9041  0.4113 -0.3174
  728MOL0     H96060   4.697   9.365  10.114 -1.9764 -1.1771 -0.7275
  728MOL0     H96061   4.895   9.337  10.009  1.5602 -0.8567 -3.2684
  728MOL0     H96062   4.912   9.258   9.648 -0.7964 -1.9610  0.8135
  728MOL0     H96063   4.985   9.243   9.810  1.9951 -0.2420 -0.3404
  728MOL0     H96064   5.124   9.333   9.558  2.4967 -2.9485 -0.5511
  728MOL0     H96065   5.155   9.193   9.628  1.4393 -0.6381 -1.3200
  728MOL0     H96066   5.238   9.294   9.842 -0.8826 -0.3695  0.6968
  728MOL0     H96067   5.203   9.453   9.785 -0.4995  0.0197 -1.3123
  728MOL0     H96068   5.358   9.432   9.592 -1.1571 -2.1871 -0.8662
  728MOL0     H96069   5.429   9.432   9.757  0.0371 -1.3092 -0.3563
  728MOL0     H96070   5.363   9.187   9.613 -0.9522  0.8038  1.1992
  728MOL0     H96071   5.430   9.189   9.779 -1.2558  2.1780  2.0672
  728MOL0     H96072   5.617   9.146   9.629 -0.2071  0.3181 -0.4056
  728MOL0     H96073   5.624   9.319   9.674  2.1725  0.0406 -1.7645
  728MOL0     H96074   5.542   9.389   9.479 -0.4495 -0.5306 -1.7587
  728MOL0     H96075   5.689   9.298   9.444 -0.4855 -0.0843 -0.8913
  728MOL0     H96076   5.545   9.234   9.266 -0.2362  3.1722  0.9936
  728MOL0     H96077   5.417   9.232   9.376 -0.7482 -2.9772 -2.8325
  728MOL0     H96078   4.768   9.630   9.699 -0.9212  2.2383  0.8654
  728MOL0     H96079   4.539   9.635   9.840 -0.1286  1.8163  0.8655
  728MOL0     H96080   4.179   9.278   9.991  3.6055 -0.0324 -0.4203
  728MOL0     H96081   3.997   9.265  10.116  1.8366 -1.2283 -1.5770
  728MOL0     H96082   3.647   8.572  10.653 -1.1658  0.0077 -0.1677
  728MOL0     H96083   3.848   8.667  10.567 -1.3824 -2.1133  1.4295
  728MOL0     H96084   4.016   9.096  10.352 -0.6828  0.4383  0.6742
  728MOL0     H96085   4.239   9.164  10.277 -2.8570  0.7957 -0.5839
  728MOL0     H96086   4.474   9.090   9.918  3.9832  1.1436  2.1368
  728MOL0     H96087   4.365   8.941   9.918  1.5510  1.5538 -3.0395
  728MOL0     H96088   4.608   8.902  10.075 -2.7300 -5.4302  0.4468
  728MOL0     H96089   4.570   8.815   9.940 -1.5988  1.6791 -2.8409
  728MOL0     H96090   4.712   9.083   9.917 -2.4212 -0.1061  1.4735
  728MOL0     H96091   4.646   8.982   9.784 -0.7291 -0.2830  0.2911
  728MOL0     H96092   4.872   8.911   9.972 -3.4355 -1.5272  3.1129
  728MOL0     H96093   4.782   8.792   9.884 -0.3436 -0.2466 -1.6426
  728MOL0     H96094   5.049   8.956   9.594 -1.4997  0.7098 -1.2249
  728MOL0     H96095   4.308   8.791  10.070  3.0023 -1.5315  3.9839
  728MOL0     H96096   4.072   8.727  10.141 -2.7249  1.6037 -1.5692
  729MOL0     O96097   4.389   3.729   7.370  0.8452  0.2214 -0.0086
  729MOL0     C96098   4.507   3.735   7.379 -0.0292 -0.2697 -1.9801
  729MOL0     O96099   4.583   3.689   7.490  0.3395 -0.0526 -0.0903
  729MOL0     C96100   4.525   3.609   7.589 -0.3954  0.4635  0.6244
  729MOL0     C96101   4.415   3.528   7.559 -0.0823  1.0963 -0.2545
  729MOL0     C96102   4.365   3.447   7.666 -0.1815 -1.4304  0.4847
  729MOL0     C96103   4.404   3.468   7.795 -1.3618  0.5115 -0.5017
  729MOL0     O96104   4.335   3.412   7.901 -0.2675 -0.2280  0.6554
  729MOL0     C96105   4.270   3.521   7.971  0.1136  0.0629  0.0524
  729MOL0     C96106   4.162   3.476   8.068  0.3167  0.2926  1.1588
  729MOL0     C96107   4.057   3.374   8.023  1.2325 -0.3434  0.8680
  729MOL0     C96108   3.965   3.429   7.908  0.5905  0.2790 -0.9870
  729MOL0     C96109   3.834   3.367   7.917  0.5133  0.5222 -0.0663
  729MOL0     C96110   3.751   3.399   8.043 -0.5524 -0.1391 -0.8850
  729MOL0     C96111   3.596   3.381   8.007  0.0532 -0.0862 -0.5728
  729MOL0     C96112   3.540   3.513   7.970 -0.2881 -1.1774 -0.5587
  729MOL0     N96113   3.414   3.494   7.890 -0.4517  0.2228 -0.3209
  729MOL0     C96114   3.310   3.410   7.934 -0.3322  0.4955  0.0485
  729MOL0     C96115   3.212   3.439   7.848 -0.4737 -0.7063  0.2841
  729MOL0     C96116   3.063   3.391   7.838  0.2400  1.0862  0.7741
  729MOL0     C96117   3.062   3.243   7.802  0.2291  0.6508  0.8300
  729MOL0     C96118   2.913   3.190   7.779 -0.9445 -0.6119 -0.1464
  729MOL0     C96119   2.822   3.226   7.892  0.1532 -0.4110 -0.1493
  729MOL0     O96120   2.691   3.171   7.861 -0.4010  0.6567  0.3725
  729MOL0     C96121   2.580   3.216   7.936 -0.3940 -1.2397 -0.2449
  729MOL0     C96122   2.577   3.341   8.011  0.1281 -0.0392  0.6790
  729MOL0     C96123   2.452   3.389   8.056  0.3529 -0.3336 -0.1178
  729MOL0     C96124   2.335   3.314   8.032 -0.8424  0.2645  0.1736
  729MOL0     C96125   2.210   3.359   8.094 -0.6533 -0.4423 -0.1536
  729MOL0     O96126   2.097   3.278   8.067 -0.1049  0.4373 -0.0627
  729MOL0     C96127   1.969   3.310   8.114 -0.5728  0.0491 -0.1773
  729MOL0     C96128   1.884   3.213   8.163 -0.0215 -0.1991 -1.3476
  729MOL0     C96129   1.751   3.239   8.201 -0.2149 -1.0517  0.1507
  729MOL0     C96130   1.692   3.369   8.177 -0.9877 -0.1048  0.5211
  729MOL0     O96131   1.565   3.398   8.209 -0.6251  0.5361  0.1265
  729MOL0     C96132   1.457   3.298   8.182  0.2278  0.4983 -0.1341
  729MOL0     C96133   1.323   3.366   8.218  0.0831  0.3135  0.3365
  729MOL0     C96134   1.215   3.264   8.240  0.2163 -0.4114  0.4703
  729MOL0     C96135   1.089   3.341   8.260  0.4220 -0.0364  0.3889
  729MOL0     C96136   0.974   3.243   8.279  0.2117 -0.4257  0.3349
  729MOL0     C96137   0.841   3.308   8.288  0.2778  0.0942  0.0082
  729MOL0     C96138   0.739   3.223   8.359 -0.3758  0.1884 -0.8628
  729MOL0     C96139   0.649   3.144   8.261  0.3779  0.3556 -0.1523
  729MOL0    Cl96140   0.560   3.018   8.353  0.3044  0.2778 -0.0774
  729MOL0     C96141   1.776   3.468   8.136 -0.2350  1.0631 -0.6016
  729MOL0     C96142   1.912   3.439   8.103 -0.5142  0.1371  0.2132
  729MOL0     O96143   2.215   3.450   8.176 -0.0512 -0.1440  0.3365
  729MOL0     C96144   2.338   3.197   7.961  0.3965 -1.2278 -0.3068
  729MOL0     C96145   2.460   3.153   7.917  0.9500  0.0702  0.4936
  729MOL0     N96146   3.256   3.534   7.757 -0.5056  0.0915  0.1100
  729MOL0     N96147   3.382   3.563   7.780  0.3079 -0.1906  0.0396
  729MOL0     C96148   4.522   3.547   7.820 -0.2533  0.8633 -0.1686
  729MOL0     C96149   4.587   3.617   7.709  0.3299  0.8519  0.1679
  729MOL0     C96150   4.589   3.781   7.269  0.0711  0.3061  0.1791
  729MOL0     C96151   4.726   3.790   7.282  0.7660 -0.8515  0.4210
  729MOL0     C96152   4.805   3.822   7.168 -0.4110 -1.0962  0.8479
  729MOL0     C96153   4.753   3.842   7.038  0.9059 -0.1809  0.0832
  729MOL0     O96154   4.835   3.850   6.935 -0.3287  0.3914  0.0027
  729MOL0     C96155   4.798   3.912   6.820 -0.2766 -0.6847  0.2758
  729MOL0     C96156   4.919   3.940   6.731  0.2010  0.4531 -0.6042
  729MOL0     C96157   4.887   3.913   6.588  0.0619  0.2870 -0.7069
  729MOL0     C96158   5.008   3.904   6.495  0.3728 -0.1492  0.4016
  729MOL0     C96159   5.103   4.014   6.521 -0.0597 -0.8413 -0.2298
  729MOL0     C96160   5.206   4.075   6.542  0.4585  0.3621 -0.4186
  729MOL0     C96161   4.612   3.844   7.037 -0.7844 -0.2290  0.4028
  729MOL0     C96162   4.531   3.821   7.146  0.5262 -0.5104  0.4541
  729MOL0     H96163   4.396   3.509   7.454  0.1429  2.2868 -0.5278
  729MOL0     H96164   4.275   3.388   7.652  0.9125 -2.8402 -1.0250
  729MOL0     H96165   4.228   3.590   7.898  0.4758  2.2166  1.7831
  729MOL0     H96166   4.350   3.565   8.031  2.2175 -0.0736 -2.4491
  729MOL0     H96167   4.112   3.566   8.106 -1.9828 -0.1647 -0.5882
  729MOL0     H96168   4.214   3.424   8.149 -0.1280 -3.5128 -0.8014
  729MOL0     H96169   3.995   3.345   8.108 -0.6845  0.1068 -0.3111
  729MOL0     H96170   4.099   3.282   7.982 -0.9069  0.0707 -2.6611
  729MOL0     H96171   3.963   3.538   7.895 -2.4566  0.1911 -1.8733
  729MOL0     H96172   4.006   3.398   7.811 -1.6301 -3.0694 -0.9907
  729MOL0     H96173   3.840   3.258   7.917  0.2948  0.4960 -1.1218
  729MOL0     H96174   3.773   3.418   7.841 -1.5108  1.9231  2.3490
  729MOL0     H96175   3.769   3.500   8.081  0.4599 -0.1512 -1.3281
  729MOL0     H96176   3.781   3.335   8.127 -1.6073 -0.4142 -0.6957
  729MOL0     H96177   3.578   3.299   7.937 -1.1408 -2.0953  1.9098
  729MOL0     H96178   3.540   3.345   8.094 -0.2637  3.9074  1.1096
  729MOL0     H96179   3.612   3.581   7.925 -0.3630 -1.8123 -1.6653
  729MOL0     H96180   3.505   3.559   8.063 -2.0214 -2.1940 -0.6536
  729MOL0     H96181   3.299   3.348   8.023  1.6477  0.3930  0.2579
  729MOL0     H96182   3.001   3.440   7.762 -1.7475 -0.4014  1.3772
  729MOL0     H96183   3.020   3.408   7.937  0.8380 -0.9059  1.4101
  729MOL0     H96184   3.113   3.175   7.871 -1.0527 -1.2986 -0.0485
  729MOL0     H96185   3.119   3.231   7.709 -0.6604  1.6939  0.1347
  729MOL0     H96186   2.867   3.249   7.699 -0.3688  1.2091  0.8045
  729MOL0     H96187   2.918   3.082   7.763 -1.9379 -0.9726  1.6656
  729MOL0     H96188   2.815   3.335   7.890  1.1627 -0.3268  0.0833
  729MOL0     H96189   2.851   3.186   7.989 -2.7254  3.1163  2.4198
  729MOL0     H96190   2.660   3.406   8.035 -1.2832  2.4954 -0.8684
  729MOL0     H96191   2.462   3.473   8.123 -4.0064  1.2260 -1.0908
  729MOL0     H96192   1.932   3.116   8.169  2.1483  0.8334 -0.8885
  729MOL0     H96193   1.694   3.154   8.237 -0.7645 -0.0713  1.6772
  729MOL0     H96194   1.458   3.219   8.257  2.6181 -1.1975 -1.8024
  729MOL0     H96195   1.468   3.264   8.078 -0.8282 -3.9813  1.0269
  729MOL0     H96196   1.295   3.430   8.133 -0.0355  0.0314  0.1619
  729MOL0     H96197   1.329   3.430   8.307 -0.6083  0.3104  0.3889
  729MOL0     H96198   1.238   3.210   8.332  1.4504  1.4361  1.3284
  729MOL0     H96199   1.212   3.200   8.151 -2.5198  2.3407 -1.6345
  729MOL0     H96200   1.088   3.399   8.353 -0.6214 -1.0770  1.0567
  729MOL0     H96201   1.063   3.398   8.170  4.6098  1.5177 -0.0337
  729MOL0     H96202   0.994   3.184   8.369 -1.5022 -1.4493  0.0910
  729MOL0     H96203   0.971   3.181   8.189  0.7515  0.3702 -0.2473
  729MOL0     H96204   0.804   3.328   8.187 -5.2095 -0.4151  1.5802
  729MOL0     H96205   0.854   3.405   8.337  1.5169  1.0090 -2.0204
  729MOL0     H96206   0.788   3.157   8.430  2.0382 -0.1138 -2.6742
  729MOL0     H96207   0.662   3.281   8.411  0.2884 -0.9531  1.5119
  729MOL0     H96208   0.707   3.100   8.180 -0.0358  0.2346 -0.3812
  729MOL0     H96209   0.577   3.210   8.212  3.7467  5.6627  1.1586
  729MOL0     H96210   1.729   3.560   8.104 -2.0983  0.9387  1.5498
  729MOL0     H96211   1.976   3.509   8.050 -0.8373  0.9612  0.8810
  729MOL0     H96212   2.253   3.132   7.944 -0.4710  0.1017 -1.3458
  729MOL0     H96213   2.448   3.065   7.855 -1.6812 -0.5208  1.7227
  729MOL0     H96214   4.550   3.573   7.921 -1.9638  0.9725  0.3006
  729MOL0     H96215   4.664   3.685   7.743 -0.3808  0.8503  1.9269
  729MOL0     H96216   4.760   3.761   7.381 -2.1924 -3.2217  0.8809
  729MOL0     H96217   4.913   3.813   7.171 -0.3442 -1.2830 -1.0293
  729MOL0     H96218   4.769   4.017   6.830  3.1481  0.6487 -1.9346
  729MOL0     H96219   4.713   3.859   6.776 -2.8808  2.7931  0.6898
  729MOL0     H96220   4.964   4.039   6.744  3.3117 -1.0213  0.9384
  729MOL0     H96221   5.001   3.877   6.766 -0.2394 -0.2806 -0.8712
  729MOL0     H96222   4.809   3.981   6.553  0.6975  1.8076  0.6944
  729MOL0     H96223   4.845   3.811   6.587  2.6954 -0.9632  1.7572
  729MOL0     H96224   5.050   3.804   6.512 -0.4345 -0.4486  0.6615
  729MOL0     H96225   4.973   3.908   6.392 -1.0832 -2.2041  0.7682
  729MOL0     H96226   5.285   4.145   6.561 -0.4875  0.9268  1.8348
  729MOL0     H96227   4.567   3.867   6.941 -1.2427 -3.4244 -0.2807
  729MOL0     H96228   4.429   3.839   7.115  1.5747  1.0279 -2.4353
  730MOL0     O96229   1.712   6.875   8.102  0.4686  0.3571 -0.0016
  730MOL0     C96230   1.725   6.750   8.096 -0.1850 -0.4337  0.7049
  730MOL0     O96231   1.620   6.659   8.109  0.4626 -0.5988 -0.6455
  730MOL0     C96232   1.504   6.712   8.142  0.3174  0.4725  0.1482
  730MOL0     C96233   1.422   6.785   8.049  0.1408  0.5079 -0.7112
  730MOL0     C96234   1.297   6.839   8.086  0.9883 -0.6422  0.2346
  730MOL0     C96235   1.239   6.809   8.209 -0.8167 -0.7273  0.1535
  730MOL0     O96236   1.114   6.855   8.227 -0.1076  0.3055 -0.0608
  730MOL0     C96237   1.043   6.801   8.337  0.1736 -0.8169  0.6415
  730MOL0     C96238   0.918   6.886   8.353 -0.7865  0.8568  0.1729
  730MOL0     C96239   0.849   6.856   8.480 -0.0969 -0.1871 -0.2202
  730MOL0     C96240   0.740   6.947   8.511  0.8030  0.6178 -0.7332
  730MOL0     C96241   0.657   6.895   8.621  0.4682  0.3179  0.3194
  730MOL0     C96242   0.540   6.995   8.668  0.0700  0.6744  0.5417
  730MOL0     C96243   0.482   6.958   8.800 -1.0220 -0.3534 -0.6048
  730MOL0     C96244   0.397   7.072   8.843 -0.5113 -0.2837  0.0537
  730MOL0     N96245   0.343   7.047   8.983  0.4634 -0.0603 -0.1931
  730MOL0     C96246   0.260   6.932   8.997 -0.7592  0.7852 -0.4129
  730MOL0     C96247   0.258   6.916   9.125  0.1851  0.0152 -0.2085
  730MOL0     C96248   0.189   6.806   9.202 -0.6502  0.0206  0.4533
  730MOL0     C96249   0.037   6.805   9.213  0.0595  0.6751  1.1188
  730MOL0     C96250  -0.012   6.935   9.288  0.2962  0.0372  0.3484
  730MOL0     C96251  -0.153   6.984   9.237 -0.4341  0.4551  0.0221
  730MOL0     O96252  -0.208   7.071   9.338 -0.3436 -0.3764  0.2037
  730MOL0     C96253  -0.340   7.108   9.319  1.4358 -0.8513  0.3525
  730MOL0     C96254  -0.418   7.078   9.203 -0.7802  0.0900 -1.0214
  730MOL0     C96255  -0.546   7.132   9.179 -0.2228  0.3046  0.0373
  730MOL0     C96256  -0.599   7.230   9.271 -0.3409  0.1242  0.3298
  730MOL0     C96257  -0.730   7.293   9.252  0.6425  0.1298 -0.1608
  730MOL0     O96258  -0.772   7.380   9.352 -0.3374  0.0951 -0.1158
  730MOL0     C96259  -0.898   7.430   9.345 -0.3786  0.5730 -0.2627
  730MOL0     C96260  -1.002   7.367   9.409 -0.0053  1.1776 -0.3962
  730MOL0     C96261  -1.133   7.419   9.390 -0.3543 -0.2247  0.5664
  730MOL0     C96262  -1.151   7.550   9.326  0.0720  1.4763  0.1225
  730MOL0     O96263  -1.269   7.621   9.330 -0.2691 -0.7561 -0.1963
  730MOL0     C96264  -1.377   7.569   9.417  0.8376  0.5369 -0.9415
  730MOL0     C96265  -1.502   7.653   9.387  0.2712 -0.3687  0.4253
  730MOL0     C96266  -1.634   7.626   9.471  0.0668  0.4083 -0.1740
  730MOL0     C96267  -1.745   7.733   9.433  0.0455  0.0517  0.1990
  730MOL0     C96268  -1.882   7.664   9.411  0.5023 -0.4664  0.2532
  730MOL0     C96269  -1.978   7.781   9.379 -0.2630 -0.6689 -0.1277
  730MOL0     C96270  -2.126   7.736   9.407  0.2452  1.6297  0.1902
  730MOL0     C96271  -2.221   7.852   9.393 -0.5448 -0.0673  0.3204
  730MOL0    Cl96272  -2.205   7.931   9.241 -0.5072  0.0109 -0.2853
  730MOL0     C96273  -1.036   7.613   9.270  0.0797 -0.3058 -0.6439
  730MOL0     C96274  -0.907   7.553   9.278  0.6061  0.2987 -0.4984
  730MOL0     O96275  -0.800   7.250   9.161  0.7139  0.3593  0.6818
  730MOL0     C96276  -0.523   7.265   9.388 -0.0081 -0.8466  0.2286
  730MOL0     C96277  -0.399   7.201   9.407  0.4974 -0.5874  0.4283
  730MOL0     N96278   0.347   7.010   9.191  0.0406 -0.0319 -0.2905
  730MOL0     N96279   0.385   7.096   9.105 -0.1286 -0.4464  0.2025
  730MOL0     C96280   1.318   6.731   8.297 -0.0341 -0.3310  0.3864
  730MOL0     C96281   1.446   6.687   8.262  1.2418  0.3716  0.2408
  730MOL0     C96282   1.843   6.695   8.032  0.4096  0.1932  0.2653
  730MOL0     C96283   1.953   6.787   8.012  0.9959 -0.0053 -0.1152
  730MOL0     C96284   2.070   6.730   7.953  0.0825 -0.4899 -0.0613
  730MOL0     C96285   2.084   6.597   7.920 -0.3501 -0.3566 -0.1164
  730MOL0     O96286   2.211   6.540   7.888  0.6442  0.2740 -0.3197
  730MOL0     C96287   2.238   6.401   7.858  0.3632 -0.1825  0.9426
  730MOL0     C96288   2.384   6.392   7.829  0.7859  0.1180 -0.4381
  730MOL0     C96289   2.419   6.362   7.688 -1.0665  0.4591 -0.7191
  730MOL0     C96290   2.564   6.308   7.685 -0.2874 -0.4866 -0.1407
  730MOL0     C96291   2.661   6.412   7.717  0.4621  0.0716  0.0280
  730MOL0     C96292   2.731   6.507   7.711 -0.3155  0.0552 -0.3641
  730MOL0     C96293   1.978   6.513   7.937 -0.2679 -1.0275  0.7348
  730MOL0     C96294   1.860   6.560   7.995 -0.1721  0.5947 -0.3092
  730MOL0     H96295   1.468   6.807   7.953 -1.7247  3.6409 -1.0328
  730MOL0     H96296   1.238   6.903   8.020  2.2841 -2.1380 -2.5088
  730MOL0     H96297   1.104   6.803   8.428 -0.5056 -0.8272  1.1085
  730MOL0     H96298   1.017   6.695   8.330  0.5930 -0.9362  0.8485
  730MOL0     H96299   0.864   6.883   8.258 -1.0741  4.3359  0.1179
  730MOL0     H96300   0.941   6.992   8.364  2.2640  0.2748  0.2761
  730MOL0     H96301   0.926   6.864   8.557  0.1992 -1.1830 -0.3892
  730MOL0     H96302   0.822   6.753   8.505 -2.2137  0.4431  0.3064
  730MOL0     H96303   0.757   7.055   8.519  2.6336  0.2391  1.5450
  730MOL0     H96304   0.668   6.929   8.430  1.0636 -2.0794 -0.4516
  730MOL0     H96305   0.724   6.865   8.702 -0.5199 -3.7605 -0.1957
  730MOL0     H96306   0.604   6.803   8.595 -0.2700  0.8983 -0.2845
  730MOL0     H96307   0.453   6.999   8.602  0.5543  0.6414 -0.1095
  730MOL0     H96308   0.587   7.094   8.665 -2.1116  1.7578 -2.0082
  730MOL0     H96309   0.423   6.866   8.792  0.2792 -1.1549 -1.4331
  730MOL0     H96310   0.567   6.945   8.869 -2.0394 -1.4153  0.5042
  730MOL0     H96311   0.307   7.090   8.783 -1.5330  2.0650  2.0884
  730MOL0     H96312   0.450   7.168   8.848  2.2045 -1.6263 -0.7331
  730MOL0     H96313   0.219   6.869   8.918 -0.8340  3.3546 -2.5790
  730MOL0     H96314   0.231   6.819   9.302  2.7374  0.6534 -0.9243
  730MOL0     H96315   0.228   6.711   9.166 -0.5499  0.4219 -0.5215
  730MOL0     H96316   0.011   6.714   9.269 -1.2606  2.3194  3.3979
  730MOL0     H96317  -0.019   6.812   9.119 -1.4739 -1.3158  1.8018
  730MOL0     H96318  -0.027   6.913   9.394 -2.9701 -0.4790 -0.1450
  730MOL0     H96319   0.056   7.021   9.282 -2.5942  2.3805 -0.8842
  730MOL0     H96320  -0.215   6.894   9.229  0.1443 -0.1933  2.1647
  730MOL0     H96321  -0.138   7.038   9.143  0.6233 -0.4232 -0.3433
  730MOL0     H96322  -0.382   7.014   9.123  2.1440  1.0961 -0.6266
  730MOL0     H96323  -0.602   7.116   9.088  0.8340  0.3832 -0.6405
  730MOL0     H96324  -0.989   7.273   9.462  0.0651  0.5155 -1.5400
  730MOL0     H96325  -1.217   7.357   9.420  1.4885 -2.4087  1.5165
  730MOL0     H96326  -1.356   7.580   9.523  2.4773  2.9992 -1.4554
  730MOL0     H96327  -1.392   7.461   9.405  0.3274  0.4753  0.1448
  730MOL0     H96328  -1.525   7.624   9.284 -1.1602 -0.0275  0.6215
  730MOL0     H96329  -1.487   7.761   9.388  0.6221 -0.0517 -5.5514
  730MOL0     H96330  -1.613   7.638   9.578 -2.3766 -0.5935  0.4917
  730MOL0     H96331  -1.673   7.524   9.458 -3.3041  1.1999  2.3511
  730MOL0     H96332  -1.751   7.803   9.517  1.4966  1.3401 -0.7215
  730MOL0     H96333  -1.714   7.796   9.349  2.2658 -0.8338  0.2911
  730MOL0     H96334  -1.910   7.612   9.503  3.1638 -1.4727  0.5951
  730MOL0     H96335  -1.883   7.596   9.325 -2.4291 -2.1580  1.4960
  730MOL0     H96336  -1.970   7.802   9.272  2.9591 -1.4331 -0.1551
  730MOL0     H96337  -1.951   7.872   9.432  0.4163 -1.3713  0.7772
  730MOL0     H96338  -2.149   7.666   9.326  3.0788  0.4184  0.3294
  730MOL0     H96339  -2.135   7.687   9.505  5.7501  3.0217  1.7325
  730MOL0     H96340  -2.188   7.920   9.473  1.2226 -0.9943  0.4433
  730MOL0     H96341  -2.325   7.821   9.406 -1.3463  2.6959  1.3055
  730MOL0     H96342  -1.049   7.706   9.215 -3.3807 -0.9884 -1.2041
  730MOL0     H96343  -0.820   7.602   9.236 -1.4964  0.6362 -5.0998
  730MOL0     H96344  -0.561   7.334   9.462 -1.2616  0.2780 -1.3883
  730MOL0     H96345  -0.343   7.231   9.494 -2.3386  4.5108  0.8883
  730MOL0     H96346   1.278   6.703   8.394  1.4834  1.4965  1.6188
  730MOL0     H96347   1.509   6.626   8.326  2.1295  0.6069 -0.4057
  730MOL0     H96348   1.945   6.891   8.041  3.5862 -0.4729  2.8371
  730MOL0     H96349   2.146   6.804   7.928 -0.3955  0.3315  0.8435
  730MOL0     H96350   2.182   6.380   7.766  1.8148  1.2260 -0.3372
  730MOL0     H96351   2.205   6.340   7.942 -4.3197  1.2261  0.3712
  730MOL0     H96352   2.433   6.483   7.864 -1.9943  0.3644  3.6334
  730MOL0     H96353   2.430   6.313   7.889 -1.2568 -1.4277 -0.8017
  730MOL0     H96354   2.422   6.458   7.637  2.6665  2.3291  2.4794
  730MOL0     H96355   2.360   6.288   7.633 -0.3578 -0.0335 -0.8398
  730MOL0     H96356   2.576   6.225   7.755  2.1440 -0.5850 -0.5824
  730MOL0     H96357   2.585   6.257   7.591  2.2139 -0.6493  0.4269
  730MOL0     H96358   2.781   6.599   7.729 -0.1922  0.0214 -0.5395
  730MOL0     H96359   1.982   6.409   7.908 -0.4213 -0.2374 -2.4822
  730MOL0     H96360   1.780   6.486   8.002  1.2612 -0.9950  0.0250
  731MOL0     O96361   7.770   1.263   1.634 -0.1690  0.4924  0.1177
  731MOL0     C96362   7.881   1.300   1.675  0.6331 -0.6654  0.3983
  731MOL0     O96363   7.912   1.411   1.759  0.0371  0.2610 -0.1504
  731MOL0     C96364   7.808   1.491   1.822  0.0350  0.1695 -0.2393
  731MOL0     C96365   7.683   1.518   1.760  0.4841 -0.6304 -0.1819
  731MOL0     C96366   7.586   1.591   1.828 -0.3570 -0.7897 -0.1608
  731MOL0     C96367   7.611   1.632   1.961 -0.0691  0.3519  0.6412
  731MOL0     O96368   7.528   1.708   2.035 -0.3125  0.4043  0.3726
  731MOL0     C96369   7.395   1.739   1.996 -0.2857  0.3366 -0.2093
  731MOL0     C96370   7.309   1.805   2.109 -0.3050 -0.5892  0.1586
  731MOL0     C96371   7.316   1.716   2.244 -0.2266 -0.4558  0.3079
  731MOL0     C96372   7.205   1.752   2.340 -0.3709  0.6248 -1.3586
  731MOL0     C96373   7.187   1.888   2.396 -0.2474 -1.1432 -0.6766
  731MOL0     C96374   7.054   1.898   2.472  0.0057  0.2917  0.0125
  731MOL0     C96375   7.016   2.042   2.490 -0.2075  0.4417 -0.4534
  731MOL0     C96376   6.888   2.073   2.564  0.1872 -0.5413 -0.2521
  731MOL0     N96377   6.802   2.164   2.490 -0.0583 -0.1155 -0.4581
  731MOL0     C96378   6.771   2.292   2.527 -0.5716  0.4120  0.0554
  731MOL0     C96379   6.648   2.314   2.463 -0.5166  0.7635  0.8781
  731MOL0     C96380   6.559   2.431   2.473  1.1131 -1.6676  0.2739
  731MOL0     C96381   6.615   2.555   2.401 -0.4713  0.0612  0.6217
  731MOL0     C96382   6.552   2.690   2.439  1.0975  0.4170 -0.3305
  731MOL0     C96383   6.402   2.701   2.432 -0.1201 -0.0737 -1.2259
  731MOL0     O96384   6.358   2.671   2.305  0.7193 -0.4609  0.1719
  731MOL0     C96385   6.226   2.646   2.283 -0.7259 -0.0610 -0.5374
  731MOL0     C96386   6.129   2.732   2.327  0.1143 -0.1193 -0.2178
  731MOL0     C96387   5.994   2.701   2.307  0.0537  0.1095 -0.6459
  731MOL0     C96388   5.950   2.573   2.252  0.3655 -0.0676 -0.2067
  731MOL0     C96389   5.817   2.528   2.233  0.2177 -0.8244  0.5883
  731MOL0     O96390   5.794   2.392   2.214  0.0896  0.2000 -0.1805
  731MOL0     C96391   5.667   2.342   2.221  0.8465 -0.2706 -0.6164
  731MOL0     C96392   5.654   2.220   2.277 -0.0348 -0.0686  0.9892
  731MOL0     C96393   5.528   2.163   2.275 -0.1381  0.1790  0.1150
  731MOL0     C96394   5.412   2.225   2.228  0.1668  0.4615  0.4207
  731MOL0     O96395   5.303   2.144   2.252 -0.2088  0.0525  1.0912
  731MOL0     C96396   5.185   2.167   2.170 -0.0421  0.5898  0.6624
  731MOL0     C96397   5.149   2.031   2.113 -0.4331 -0.5241  1.7086
  731MOL0     C96398   5.251   1.992   2.015 -0.3147  0.6235  0.6144
  731MOL0     C96399   5.215   1.866   1.941 -0.0028 -0.4548 -0.6161
  731MOL0     C96400   5.332   1.831   1.841  1.2014 -0.5621 -0.6413
  731MOL0     C96401   5.287   1.728   1.739 -0.1915  0.9561 -0.2047
  731MOL0     C96402   5.222   1.594   1.789  0.3252 -1.0056 -0.1946
  731MOL0     C96403   5.328   1.512   1.864 -0.7305 -0.1236 -0.2481
  731MOL0    Cl96404   5.259   1.348   1.901  0.2960 -0.1730 -0.4651
  731MOL0     C96405   5.427   2.341   2.153 -0.5370  0.3846 -0.0704
  731MOL0     C96406   5.554   2.397   2.152 -0.5044 -0.0513  0.3469
  731MOL0     O96407   5.733   2.615   2.248 -0.4840 -0.1289 -0.0341
  731MOL0     C96408   6.053   2.484   2.211 -0.1437  0.0054  0.1331
  731MOL0     C96409   6.183   2.534   2.210  0.0057  0.4356 -0.5289
  731MOL0     N96410   6.620   2.202   2.390 -0.0519 -0.4321 -0.0397
  731MOL0     N96411   6.709   2.118   2.403  0.8578 -0.3101  0.2172
  731MOL0     C96412   7.730   1.593   2.026  0.4224  0.0641 -0.0737
  731MOL0     C96413   7.830   1.529   1.955 -0.9785  0.3014 -0.6772
  731MOL0     C96414   7.990   1.212   1.647 -0.6451 -0.7717 -0.3803
  731MOL0     C96415   8.119   1.241   1.692 -0.0624  0.0895 -0.1361
  731MOL0     C96416   8.230   1.161   1.673  0.0148 -0.3489 -0.9276
  731MOL0     C96417   8.214   1.034   1.603  0.3391 -1.0840  0.2045
  731MOL0     O96418   8.334   0.969   1.570  0.2537 -0.4189 -0.3204
  731MOL0     C96419   8.324   0.875   1.464  0.2975 -0.1702 -0.0447
  731MOL0     C96420   8.297   0.940   1.329 -0.5683 -0.4471 -0.4995
  731MOL0     C96421   8.428   0.941   1.258  0.6224 -0.8485 -0.6650
  731MOL0     C96422   8.419   0.991   1.105  0.6147 -0.2223 -0.5732
  731MOL0     C96423   8.539   0.974   1.017  1.1569 -0.2062 -0.4441
  731MOL0     C96424   8.633   0.965   0.941 -0.6052 -0.4073  0.1722
  731MOL0     C96425   8.083   1.003   1.561 -0.6848  1.0883  0.2727
  731MOL0     C96426   7.980   1.088   1.586 -0.2649 -0.3693 -0.1572
  731MOL0     H96427   7.677   1.476   1.660  3.1246 -1.9391  0.1022
  731MOL0     H96428   7.489   1.607   1.783 -1.4264 -0.6236  2.0612
  731MOL0     H96429   7.347   1.650   1.954 -0.2482 -0.5563  1.5618
  731MOL0     H96430   7.402   1.813   1.916 -1.5398 -1.8820 -2.5172
  731MOL0     H96431   7.216   1.809   2.051  1.7642 -2.3576 -3.6508
  731MOL0     H96432   7.346   1.907   2.127  1.8764 -1.1515 -0.7902
  731MOL0     H96433   7.415   1.740   2.284  0.0906 -2.0409  0.5474
  731MOL0     H96434   7.321   1.608   2.226  0.1608 -0.3237 -0.3762
  731MOL0     H96435   7.115   1.718   2.288  0.2375 -0.3081 -1.8274
  731MOL0     H96436   7.224   1.682   2.421 -0.9989 -0.3372 -2.0205
  731MOL0     H96437   7.172   1.962   2.317  0.5180  0.1236  0.3145
  731MOL0     H96438   7.274   1.911   2.459  0.2595 -2.0280 -1.0411
  731MOL0     H96439   7.080   1.862   2.572  1.2200  0.3268 -0.2759
  731MOL0     H96440   6.969   1.835   2.445 -1.6312  1.3479  2.3491
  731MOL0     H96441   7.098   2.103   2.530 -0.3564  2.6593 -3.2354
  731MOL0     H96442   6.998   2.075   2.388 -1.1058  3.6985  0.6414
  731MOL0     H96443   6.911   2.111   2.664 -0.9858 -0.7782  0.1153
  731MOL0     H96444   6.828   1.983   2.575 -0.0516 -0.3693 -0.1232
  731MOL0     H96445   6.813   2.351   2.607 -2.9077  1.5683  0.5347
  731MOL0     H96446   6.553   2.458   2.579 -0.0923  2.6940 -0.7243
  731MOL0     H96447   6.464   2.403   2.427  1.4818 -0.7554 -1.1110
  731MOL0     H96448   6.622   2.556   2.292 -0.4639  1.2161  0.6256
  731MOL0     H96449   6.719   2.555   2.434  0.2466 -1.1601 -1.4195
  731MOL0     H96450   6.583   2.728   2.536 -0.0257  1.7252 -0.4623
  731MOL0     H96451   6.590   2.755   2.360 -0.4035  1.3474 -0.3132
  731MOL0     H96452   6.372   2.803   2.458  2.9865  1.3901 -2.7600
  731MOL0     H96453   6.365   2.623   2.499 -0.8157  0.1354 -1.3579
  731MOL0     H96454   6.156   2.824   2.377 -1.7134  0.6334 -0.5363
  731MOL0     H96455   5.921   2.773   2.343  1.5969  1.2043  0.4351
  731MOL0     H96456   5.743   2.173   2.317 -0.3181  0.7416  2.6863
  731MOL0     H96457   5.535   2.068   2.326  1.2330  1.0405  1.6194
  731MOL0     H96458   5.200   2.224   2.078 -2.9126 -3.1313 -2.4483
  731MOL0     H96459   5.099   2.201   2.229 -1.1159 -0.7823 -0.0437
  731MOL0     H96460   5.054   2.036   2.060  0.7667 -0.5055 -0.5540
  731MOL0     H96461   5.146   1.949   2.186 -1.5266 -0.1069  2.1520
  731MOL0     H96462   5.345   1.980   2.069  1.7323 -2.5797 -3.1537
  731MOL0     H96463   5.266   2.073   1.943  2.7981 -0.8104 -0.4884
  731MOL0     H96464   5.197   1.785   2.012 -0.6440 -2.0927 -2.5550
  731MOL0     H96465   5.117   1.881   1.895 -0.9210  2.8312  2.0616
  731MOL0     H96466   5.412   1.787   1.900 -0.5648 -3.8500 -0.4973
  731MOL0     H96467   5.365   1.927   1.798 -1.6284  0.8725  0.1477
  731MOL0     H96468   5.384   1.703   1.695  0.0526  2.1213 -0.3786
  731MOL0     H96469   5.217   1.778   1.672 -1.6498 -0.5376  0.1553
  731MOL0     H96470   5.139   1.612   1.858  0.0360 -3.0552  0.0475
  731MOL0     H96471   5.187   1.536   1.703 -0.5974 -1.9690  0.7968
  731MOL0     H96472   5.357   1.554   1.961 -1.5869 -2.0011  0.8811
  731MOL0     H96473   5.415   1.489   1.801 -0.0584  1.5429  0.0150
  731MOL0     H96474   5.344   2.387   2.099 -0.5440  1.0636  0.5050
  731MOL0     H96475   5.571   2.486   2.093  1.5966 -0.2219  0.6198
  731MOL0     H96476   6.047   2.392   2.154  2.8339 -2.3490  3.2354
  731MOL0     H96477   6.260   2.465   2.179  0.3630  0.3709  0.4646
  731MOL0     H96478   7.751   1.624   2.128 -2.4796 -1.0194  0.9470
  731MOL0     H96479   7.923   1.493   1.998 -1.4611 -0.2850 -0.1013
  731MOL0     H96480   8.144   1.328   1.752 -2.8290  0.3519  0.8026
  731MOL0     H96481   8.328   1.192   1.705  0.0355 -1.2970  0.0011
  731MOL0     H96482   8.233   0.818   1.483 -0.6574  1.8380  1.8013
  731MOL0     H96483   8.405   0.802   1.472  0.1786 -0.1513  1.8671
  731MOL0     H96484   8.214   0.895   1.273 -0.7732 -1.0268  0.2427
  731MOL0     H96485   8.255   1.041   1.336 -0.2142 -0.3431  0.1512
  731MOL0     H96486   8.469   0.841   1.273 -0.0081 -0.8416  1.3796
  731MOL0     H96487   8.494   1.006   1.316  0.0508 -0.7441 -0.1150
  731MOL0     H96488   8.339   0.935   1.056 -2.4857  1.5705  2.0203
  731MOL0     H96489   8.381   1.092   1.123 -1.3331 -1.4555  3.3679
  731MOL0     H96490   8.711   0.948   0.869 -0.3547 -0.5677  0.4833
  731MOL0     H96491   8.058   0.915   1.502  0.8074  1.7669 -1.4633
  731MOL0     H96492   7.877   1.067   1.556 -1.9184  4.4006  1.2872
  732MOL0     O96493   0.722   5.429   6.165  0.3283 -0.3528 -0.5128
  732MOL0     C96494   0.785   5.500   6.244  0.1505 -0.1028  0.1121
  732MOL0     O96495   0.732   5.580   6.346  0.4977 -0.3771  0.3802
  732MOL0     C96496   0.601   5.610   6.335 -0.2924  0.0497  0.5868
  732MOL0     C96497   0.536   5.599   6.457  0.0401  0.2979 -0.0761
  732MOL0     C96498   0.393   5.616   6.463  0.0831  0.8781 -0.4558
  732MOL0     C96499   0.316   5.635   6.350 -0.1668 -0.1339  0.3967
  732MOL0     O96500   0.182   5.648   6.353  0.0231 -0.6248  0.0163
  732MOL0     C96501   0.113   5.540   6.411 -0.2429  0.1451 -0.8499
  732MOL0     C96502  -0.030   5.534   6.360  0.0148 -1.4583  0.9634
  732MOL0     C96503  -0.117   5.649   6.401  0.8506 -0.1437 -0.5040
  732MOL0     C96504  -0.257   5.615   6.343 -0.6750 -0.7758  0.4388
  732MOL0     C96505  -0.343   5.736   6.331  0.3293  0.1051 -0.3787
  732MOL0     C96506  -0.481   5.688   6.290  0.6496 -0.7929 -0.5329
  732MOL0     C96507  -0.566   5.795   6.215  0.2993  0.2020  0.4095
  732MOL0     C96508  -0.714   5.757   6.214 -0.2376 -0.2416 -0.4112
  732MOL0     N96509  -0.789   5.870   6.176  0.4094 -0.5192  0.1850
  732MOL0     C96510  -0.843   5.894   6.055  0.2332  0.0502  0.1280
  732MOL0     C96511  -0.939   5.993   6.059 -0.2044  0.7380 -0.0401
  732MOL0     C96512  -1.020   6.054   5.949  0.4261 -1.0948  0.0670
  732MOL0     C96513  -1.130   5.957   5.913  0.3368 -0.2167 -0.3709
  732MOL0     C96514  -1.234   6.012   5.816  0.4252 -0.1599 -1.2925
  732MOL0     C96515  -1.309   5.897   5.764  0.7989 -0.0779 -0.4052
  732MOL0     O96516  -1.428   5.960   5.716  0.3797 -0.0377  0.2707
  732MOL0     C96517  -1.525   5.873   5.657  0.2007 -0.5916 -0.1659
  732MOL0     C96518  -1.526   5.737   5.673  0.3512 -0.4154 -0.4327
  732MOL0     C96519  -1.632   5.666   5.617 -0.1766  0.4971  0.1388
  732MOL0     C96520  -1.738   5.733   5.544 -0.0495  0.1353  0.3404
  732MOL0     C96521  -1.847   5.644   5.482  0.9109 -0.0013  0.0043
  732MOL0     O96522  -1.918   5.689   5.368  0.6863  0.1810  0.4941
  732MOL0     C96523  -2.046   5.641   5.345 -0.3830 -0.5699 -0.2285
  732MOL0     C96524  -2.147   5.697   5.416 -0.4136 -0.1509  0.7346
  732MOL0     C96525  -2.279   5.671   5.377  0.0268 -0.0478  0.0423
  732MOL0     C96526  -2.324   5.584   5.268 -1.5836 -0.3100  0.0598
  732MOL0     O96527  -2.455   5.577   5.233  0.2037  0.3415 -0.1545
  732MOL0     C96528  -2.485   5.456   5.151  0.6209 -0.4771 -0.2731
  732MOL0     C96529  -2.640   5.450   5.170 -0.1960 -0.2042 -0.4290
  732MOL0     C96530  -2.702   5.341   5.086 -0.3281  0.1673  0.2516
  732MOL0     C96531  -2.704   5.370   4.934  0.4747 -0.6280  0.3556
  732MOL0     C96532  -2.791   5.261   4.867 -0.4468 -0.1630 -0.3477
  732MOL0     C96533  -2.938   5.260   4.894  0.1327 -0.6493 -0.1038
  732MOL0     C96534  -2.999   5.146   4.803  0.1961  0.3048 -0.1780
  732MOL0     C96535  -3.061   5.206   4.680 -0.3637 -0.6580 -0.5540
  732MOL0    Cl96536  -3.126   5.075   4.574  0.0480  0.1816 -0.0860
  732MOL0     C96537  -2.211   5.527   5.201 -0.3424 -0.1161  0.6257
  732MOL0     C96538  -2.073   5.556   5.240  0.3021  0.1444 -0.1430
  732MOL0     O96539  -1.891   5.565   5.568  0.8604  0.2658  0.2927
  732MOL0     C96540  -1.737   5.871   5.536 -0.0555  0.2788 -0.4756
  732MOL0     C96541  -1.627   5.943   5.586  0.0809  0.2219  0.2127
  732MOL0     N96542  -0.939   6.026   6.197 -0.1029 -0.5171  0.6484
  732MOL0     N96543  -0.849   5.961   6.262 -0.2879  0.0230 -0.1417
  732MOL0     C96544   0.387   5.651   6.231  0.3654 -0.0745  0.9787
  732MOL0     C96545   0.529   5.638   6.214  0.9981  0.6987 -0.1020
  732MOL0     C96546   0.931   5.489   6.229  0.2921 -0.2358 -0.3207
  732MOL0     C96547   0.997   5.404   6.138 -0.7820  0.1767  0.2493
  732MOL0     C96548   1.136   5.411   6.125 -0.3926 -0.0888  0.6848
  732MOL0     C96549   1.217   5.497   6.203 -0.3167  0.7866  0.0290
  732MOL0     O96550   1.353   5.507   6.178  0.1042  0.0308  0.0203
  732MOL0     C96551   1.421   5.401   6.100 -0.3697 -0.1506 -0.1526
  732MOL0     C96552   1.573   5.430   6.109 -0.3460 -0.3443  0.3492
  732MOL0     C96553   1.599   5.568   6.036  0.1617 -0.1720 -0.0093
  732MOL0     C96554   1.745   5.612   6.039  0.8564 -0.3768  0.1993
  732MOL0     C96555   1.793   5.627   6.178  0.1489  0.9591  0.0760
  732MOL0     C96556   1.834   5.653   6.282  0.3452  0.8231 -0.2794
  732MOL0     C96557   1.158   5.558   6.313 -0.1573  1.2864  0.3444
  732MOL0     C96558   1.017   5.547   6.322 -0.5425  0.2409  0.0222
  732MOL0     H96559   0.591   5.560   6.543 -2.0275 -3.5783 -0.2472
  732MOL0     H96560   0.347   5.618   6.561  0.3051 -0.1034 -0.3213
  732MOL0     H96561   0.123   5.539   6.520  4.6974  2.7224 -0.9647
  732MOL0     H96562   0.165   5.445   6.395  0.2955 -0.5945  3.8226
  732MOL0     H96563  -0.065   5.438   6.400  1.9238 -1.9752  1.4634
  732MOL0     H96564  -0.029   5.534   6.251  1.5715 -1.5611  0.9537
  732MOL0     H96565  -0.084   5.744   6.357  0.2333 -0.1185 -0.9313
  732MOL0     H96566  -0.121   5.656   6.510 -2.1384  0.8524 -0.5827
  732MOL0     H96567  -0.246   5.574   6.242  1.8452  2.1102 -0.5947
  732MOL0     H96568  -0.310   5.552   6.415 -0.9451  0.6496  1.5391
  732MOL0     H96569  -0.309   5.807   6.256 -0.3416 -0.2107 -0.9910
  732MOL0     H96570  -0.354   5.792   6.424 -0.7797 -2.4729  1.1670
  732MOL0     H96571  -0.530   5.658   6.383 -1.4156  1.0840 -0.9285
  732MOL0     H96572  -0.477   5.594   6.235  1.3454 -1.2674  0.3065
  732MOL0     H96573  -0.564   5.886   6.276 -1.8461 -0.2758  1.3001
  732MOL0     H96574  -0.533   5.804   6.111  0.0627 -0.8029  0.2337
  732MOL0     H96575  -0.732   5.736   6.320 -0.2066 -1.8571 -0.6928
  732MOL0     H96576  -0.736   5.667   6.156  0.3026 -1.1107  0.6839
  732MOL0     H96577  -0.819   5.846   5.961  1.5780  0.5451  0.2039
  732MOL0     H96578  -0.964   6.060   5.855  1.2278 -1.2847  0.5282
  732MOL0     H96579  -1.056   6.150   5.987  0.6417 -0.5112 -1.1496
  732MOL0     H96580  -1.179   5.938   6.009 -1.5665 -0.1372 -1.2780
  732MOL0     H96581  -1.080   5.868   5.875 -0.6982  0.1576 -2.7707
  732MOL0     H96582  -1.293   6.089   5.867 -0.6797 -0.9637 -1.3215
  732MOL0     H96583  -1.182   6.054   5.729  0.0078 -1.3080 -2.1109
  732MOL0     H96584  -1.334   5.829   5.845 -0.3395  0.1842 -0.5227
  732MOL0     H96585  -1.250   5.837   5.693 -0.5413 -0.8933 -0.8718
  732MOL0     H96586  -1.458   5.686   5.741 -1.6792 -0.0065  2.0228
  732MOL0     H96587  -1.640   5.558   5.625  0.7061  0.3194 -1.0495
  732MOL0     H96588  -2.116   5.764   5.496  3.0952 -2.8831  1.8867
  732MOL0     H96589  -2.353   5.716   5.441  2.6089  1.3645  2.2473
  732MOL0     H96590  -2.452   5.362   5.196 -1.2417 -1.6355 -1.2109
  732MOL0     H96591  -2.457   5.452   5.046 -0.4744  1.5239 -0.7012
  732MOL0     H96592  -2.678   5.549   5.142  0.0864 -0.3241 -1.2590
  732MOL0     H96593  -2.670   5.424   5.272  0.3872 -2.6677 -0.8343
  732MOL0     H96594  -2.801   5.324   5.128 -0.2254 -0.1947  0.3591
  732MOL0     H96595  -2.644   5.253   5.118  0.0689  0.0635 -0.7358
  732MOL0     H96596  -2.761   5.462   4.919 -3.6702 -2.8133  1.1578
  732MOL0     H96597  -2.604   5.366   4.890 -0.1426 -0.9743 -1.0596
  732MOL0     H96598  -2.759   5.157   4.874  0.0984 -0.1509 -2.0918
  732MOL0     H96599  -2.792   5.285   4.760 -1.6893  1.3633 -0.0260
  732MOL0     H96600  -2.981   5.357   4.869 -0.2234 -0.7225  0.2094
  732MOL0     H96601  -2.972   5.243   4.997  1.9596  0.0382  0.6618
  732MOL0     H96602  -2.919   5.076   4.779  1.2478  0.5820  2.3009
  732MOL0     H96603  -3.082   5.100   4.858  0.5314  1.2664  1.1784
  732MOL0     H96604  -2.980   5.255   4.626 -0.3959 -1.8298 -1.7115
  732MOL0     H96605  -3.141   5.273   4.711  0.4279  1.0899 -2.1249
  732MOL0     H96606  -2.215   5.446   5.129  0.2324 -0.9692  1.5257
  732MOL0     H96607  -1.995   5.500   5.189 -0.5604 -0.2433 -1.0629
  732MOL0     H96608  -1.810   5.926   5.477 -1.7945  2.2239  3.1487
  732MOL0     H96609  -1.622   6.051   5.570  0.1515  0.1477 -0.2843
  732MOL0     H96610   0.334   5.670   6.138  0.6015 -0.1417  0.8279
  732MOL0     H96611   0.576   5.641   6.117  1.1209  0.0701 -0.0655
  732MOL0     H96612   0.941   5.328   6.084 -0.7712 -0.2145  0.7867
  732MOL0     H96613   1.168   5.358   6.036  0.8619  1.6578  0.0349
  732MOL0     H96614   1.391   5.405   5.995 -1.0127  0.2188  0.0401
  732MOL0     H96615   1.403   5.303   6.147 -0.4248  0.9691  2.3572
  732MOL0     H96616   1.607   5.432   6.212  0.9356 -0.9568 -0.0388
  732MOL0     H96617   1.634   5.358   6.054 -0.2421  1.5537 -2.2071
  732MOL0     H96618   1.539   5.646   6.084 -1.2498  0.2301 -2.2674
  732MOL0     H96619   1.558   5.583   5.935  0.2737  3.3049  0.3243
  732MOL0     H96620   1.819   5.545   5.996  1.6392 -1.9011  3.6656
  732MOL0     H96621   1.748   5.712   5.994 -2.1975  0.0628  0.7562
  732MOL0     H96622   1.870   5.667   6.382  0.6251 -0.9724 -0.1064
  732MOL0     H96623   1.209   5.604   6.397 -0.3954  0.6045  0.8631
  732MOL0     H96624   0.982   5.606   6.406  1.6140  1.2177  0.2822
  733MOL0     O96625   0.511   1.436   4.373 -0.3338  0.3028 -0.5194
  733MOL0     C96626   0.611   1.461   4.434  0.4935  0.6166  0.7976
  733MOL0     O96627   0.608   1.532   4.551 -0.6690  0.4834  0.8107
  733MOL0     C96628   0.493   1.588   4.601  0.0718  0.2918 -0.3598
  733MOL0     C96629   0.489   1.725   4.631 -0.0825 -0.0933 -0.4870
  733MOL0     C96630   0.380   1.788   4.677  0.2964 -0.6939  0.2878
  733MOL0     C96631   0.258   1.715   4.705 -0.4552  1.3171  0.3069
  733MOL0     O96632   0.140   1.758   4.763  0.2397  0.4335  0.0735
  733MOL0     C96633   0.113   1.896   4.760  0.7816  0.0311  0.2668
  733MOL0     C96634  -0.037   1.917   4.776  0.0749  0.0631  0.9230
  733MOL0     C96635  -0.124   1.852   4.667  0.9188  1.2074 -0.0812
  733MOL0     C96636  -0.131   1.939   4.553  0.1295  0.5292 -0.9034
  733MOL0     C96637  -0.248   2.024   4.548  1.1986  0.1037 -0.1011
  733MOL0     C96638  -0.251   2.114   4.425 -0.5611 -1.0848 -0.4867
  733MOL0     C96639  -0.369   2.208   4.427  0.4061 -0.6099 -0.3091
  733MOL0     C96640  -0.476   2.148   4.336  0.3882  0.1786 -0.2744
  733MOL0     N96641  -0.585   2.254   4.311 -0.4822  0.9661  0.2483
  733MOL0     C96642  -0.648   2.337   4.403  0.2301 -1.3521 -0.4354
  733MOL0     C96643  -0.741   2.405   4.331  1.2477  0.1929 -0.0723
  733MOL0     C96644  -0.831   2.507   4.388  0.2918 -0.1587 -0.1854
  733MOL0     C96645  -0.970   2.460   4.376  0.9716  0.6406  0.9315
  733MOL0     C96646  -1.029   2.429   4.508  0.9225  0.2273 -0.2139
  733MOL0     C96647  -1.178   2.379   4.505 -0.0293 -0.2396  0.3326
  733MOL0     O96648  -1.210   2.300   4.620 -0.5683  0.6889  0.4672
  733MOL0     C96649  -1.340   2.261   4.650 -0.5771  0.1624  0.1696
  733MOL0     C96650  -1.440   2.271   4.562 -0.0195 -1.2809  0.2410
  733MOL0     C96651  -1.567   2.221   4.589  0.6911 -0.1750 -1.4318
  733MOL0     C96652  -1.604   2.176   4.714  0.9171 -0.5841  0.1197
  733MOL0     C96653  -1.747   2.165   4.746 -0.0353 -0.4257  0.4016
  733MOL0     O96654  -1.835   2.175   4.656 -0.3379 -0.3330  0.0988
  733MOL0     C96655  -1.966   2.159   4.674  0.4689  0.1929 -0.1769
  733MOL0     C96656  -2.017   2.047   4.742  0.5737 -0.4812  0.1379
  733MOL0     C96657  -2.154   2.033   4.775  0.1766 -0.4938 -0.1912
  733MOL0     C96658  -2.249   2.127   4.722 -1.0246  0.7467  0.2786
  733MOL0     O96659  -2.387   2.113   4.744  0.4062 -0.0635  0.5039
  733MOL0     C96660  -2.421   2.098   4.880  0.5007 -0.6714 -0.1867
  733MOL0     C96661  -2.575   2.084   4.908  0.5886 -0.1734  0.5164
  733MOL0     C96662  -2.632   1.960   4.835  1.2746  0.1546  0.0043
  733MOL0     C96663  -2.784   1.938   4.835  0.3683 -0.2385 -0.6540
  733MOL0     C96664  -2.855   2.057   4.769 -0.3253 -0.0216 -0.9526
  733MOL0     C96665  -2.997   2.072   4.811  0.6304 -0.0872  0.3504
  733MOL0     C96666  -3.071   2.188   4.732 -0.0549 -0.1351 -1.2955
  733MOL0     C96667  -3.208   2.138   4.674 -0.2080  0.3691 -0.8715
  733MOL0    Cl96668  -3.309   2.093   4.808  0.0928  0.1366 -0.5199
  733MOL0     C96669  -2.198   2.235   4.649 -0.3916  0.3674  1.2097
  733MOL0     C96670  -2.059   2.244   4.622  0.7437 -0.2849 -0.0925
  733MOL0     O96671  -1.772   2.147   4.866 -0.8092 -0.4084  0.8540
  733MOL0     C96672  -1.499   2.174   4.809 -0.3657 -0.0429 -0.5494
  733MOL0     C96673  -1.370   2.194   4.773 -0.5302 -0.3515 -0.7223
  733MOL0     N96674  -0.740   2.372   4.196 -0.2393 -0.0012 -0.1515
  733MOL0     N96675  -0.644   2.287   4.189  0.0338 -0.0752  0.4065
  733MOL0     C96676   0.266   1.575   4.682 -0.0686 -0.0190  1.0429
  733MOL0     C96677   0.381   1.514   4.629 -0.7721  0.2334 -0.0963
  733MOL0     C96678   0.734   1.399   4.379  0.0028 -0.2793 -0.8442
  733MOL0     C96679   0.857   1.451   4.414 -0.3794 -0.8783 -0.5523
  733MOL0     C96680   0.970   1.407   4.351  0.6577  0.0207 -0.4842
  733MOL0     C96681   0.960   1.301   4.250  0.2203 -0.5197  0.2893
  733MOL0     O96682   1.067   1.266   4.173  0.5288 -0.3239 -0.2214
  733MOL0     C96683   1.180   1.354   4.160  0.7642 -0.0295 -0.2707
  733MOL0     C96684   1.284   1.282   4.078 -0.3122  0.2260  0.6275
  733MOL0     C96685   1.414   1.350   4.053  0.5197 -0.2872 -0.0184
  733MOL0     C96686   1.493   1.280   3.941 -0.3237  0.4534  0.6058
  733MOL0     C96687   1.611   1.358   3.898  1.2319 -0.0181  0.0048
  733MOL0     C96688   1.693   1.408   3.828  0.1112  0.2139 -0.2031
  733MOL0     C96689   0.838   1.231   4.233 -0.3236  0.0861 -0.4498
  733MOL0     C96690   0.722   1.284   4.298 -0.1208 -0.8710 -0.7334
  733MOL0     H96691   0.574   1.786   4.601  0.9667 -0.5697  1.3964
  733MOL0     H96692   0.386   1.896   4.682  3.3123 -0.7587 -0.1251
  733MOL0     H96693   0.150   1.943   4.668 -3.0652 -1.8981 -2.5084
  733MOL0     H96694   0.161   1.953   4.841  1.8620  1.1807 -1.1091
  733MOL0     H96695  -0.060   2.024   4.772  0.0151  0.0309 -2.3919
  733MOL0     H96696  -0.061   1.882   4.877  1.5901 -3.8957  0.1310
  733MOL0     H96697  -0.229   1.832   4.690  1.2402 -1.3787 -0.5463
  733MOL0     H96698  -0.085   1.754   4.639  0.4114  1.2610 -1.0210
  733MOL0     H96699  -0.035   1.993   4.551  0.8751 -0.6917  0.2189
  733MOL0     H96700  -0.133   1.874   4.465 -1.2392  0.5354 -0.8959
  733MOL0     H96701  -0.242   2.086   4.638  0.5449 -1.7361  1.2660
  733MOL0     H96702  -0.342   1.968   4.548  2.0448 -1.3687 -0.3776
  733MOL0     H96703  -0.247   2.068   4.326 -5.4187  0.4837 -1.7125
  733MOL0     H96704  -0.162   2.177   4.439 -1.5913  0.0847  1.1610
  733MOL0     H96705  -0.403   2.232   4.528  0.6072 -0.1841 -0.3382
  733MOL0     H96706  -0.353   2.308   4.384  1.4459 -0.3258  0.6782
  733MOL0     H96707  -0.517   2.067   4.396  3.0872  0.2562  1.8898
  733MOL0     H96708  -0.436   2.118   4.239  1.1057  1.0599 -0.2744
  733MOL0     H96709  -0.617   2.343   4.507  0.9817  0.5309 -0.7298
  733MOL0     H96710  -0.825   2.601   4.333 -2.0885 -1.8460 -3.6603
  733MOL0     H96711  -0.811   2.534   4.492 -0.4129 -0.0983 -0.0625
  733MOL0     H96712  -0.983   2.376   4.306 -3.4939  1.4223  0.4863
  733MOL0     H96713  -1.029   2.539   4.327  0.1886 -1.8148 -2.5273
  733MOL0     H96714  -0.977   2.353   4.566 -1.2186 -0.6702  0.6321
  733MOL0     H96715  -1.039   2.524   4.562 -0.3262 -0.0569  0.0863
  733MOL0     H96716  -1.212   2.327   4.414  1.6846 -0.9933  0.0798
  733MOL0     H96717  -1.243   2.467   4.508 -0.1207 -0.1079 -2.4169
  733MOL0     H96718  -1.426   2.316   4.464 -1.4011  1.2955  1.1541
  733MOL0     H96719  -1.634   2.249   4.508  0.5111  3.3974 -0.1877
  733MOL0     H96720  -1.955   1.979   4.798 -0.9293 -1.7665  0.3276
  733MOL0     H96721  -2.179   1.941   4.827  1.8516 -0.6808  0.3567
  733MOL0     H96722  -2.392   2.193   4.925  0.4301 -2.0056  2.8580
  733MOL0     H96723  -2.374   2.016   4.934 -1.5268 -1.6556  0.2111
  733MOL0     H96724  -2.622   2.179   4.881 -0.5295  0.0122  2.9011
  733MOL0     H96725  -2.585   2.068   5.016  1.1329 -0.4093  0.5334
  733MOL0     H96726  -2.587   1.880   4.894 -0.3944 -0.2863  0.7479
  733MOL0     H96727  -2.591   1.966   4.734  0.2521  1.1356 -0.3700
  733MOL0     H96728  -2.805   1.851   4.774  2.6569 -0.3122 -1.4319
  733MOL0     H96729  -2.823   1.928   4.937  3.5323 -0.2302  0.6868
  733MOL0     H96730  -2.842   2.050   4.661  2.7417  1.0241 -0.7666
  733MOL0     H96731  -2.815   2.153   4.804  0.6224 -2.1443  5.0412
  733MOL0     H96732  -3.001   2.087   4.919 -0.6525 -0.2906  0.3554
  733MOL0     H96733  -3.047   1.979   4.783 -0.9641  1.2992 -1.8049
  733MOL0     H96734  -3.081   2.279   4.793 -0.3035 -1.4690  0.7577
  733MOL0     H96735  -3.013   2.215   4.644  0.4539 -1.9665 -1.5574
  733MOL0     H96736  -3.186   2.053   4.608 -1.6513 -2.1541  1.6453
  733MOL0     H96737  -3.255   2.219   4.618 -3.4908 -0.7930 -0.0447
  733MOL0     H96738  -2.269   2.308   4.610 -0.8221 -0.4094  0.5259
  733MOL0     H96739  -2.017   2.322   4.560  0.5090 -1.0807 -1.2757
  733MOL0     H96740  -1.515   2.137   4.910 -0.4976  2.8824  0.5992
  733MOL0     H96741  -1.289   2.175   4.843  0.8577 -0.9954 -2.4214
  733MOL0     H96742   0.179   1.517   4.710  1.6092 -2.8262  0.7532
  733MOL0     H96743   0.389   1.408   4.607 -2.7466  0.0481 -0.0985
  733MOL0     H96744   0.870   1.540   4.475  0.2972 -0.2504 -1.5777
  733MOL0     H96745   1.053   1.473   4.377 -1.2417  1.8051  1.4534
  733MOL0     H96746   1.212   1.380   4.261 -1.9597 -1.4922  1.0728
  733MOL0     H96747   1.171   1.452   4.113  1.1097  0.1783  0.0903
  733MOL0     H96748   1.309   1.189   4.130 -1.5367  0.2131  1.2337
  733MOL0     H96749   1.231   1.257   3.986 -0.9117  0.2453  0.9611
  733MOL0     H96750   1.472   1.365   4.145 -0.0290 -1.6513  0.5744
  733MOL0     H96751   1.400   1.455   4.026 -0.0338  0.0122  1.3190
  733MOL0     H96752   1.519   1.178   3.968 -0.0982  0.6883  1.2996
  733MOL0     H96753   1.433   1.272   3.850 -1.5759 -1.1121  1.5243
  733MOL0     H96754   1.763   1.465   3.770  0.9856  0.8099  1.3472
  733MOL0     H96755   0.829   1.141   4.174 -0.6496  0.8015 -1.5243
  733MOL0     H96756   0.622   1.243   4.285 -0.1187 -0.5010 -2.1073
  734MOL0     O96757   4.236   5.375   7.239  0.0838  0.5822 -0.0794
  734MOL0     C96758   4.311   5.468   7.229 -0.1447 -0.2411  0.3708
  734MOL0     O96759   4.266   5.597   7.212 -0.3689 -0.2144 -0.0578
  734MOL0     C96760   4.132   5.625   7.219  0.1761  0.5880 -0.0102
  734MOL0     C96761   4.085   5.707   7.117  0.7796 -0.2771 -0.0612
  734MOL0     C96762   3.952   5.760   7.111 -0.0993  0.3559 -0.3768
  734MOL0     C96763   3.866   5.730   7.212  0.1254 -0.3562 -0.0792
  734MOL0     O96764   3.731   5.761   7.222 -0.3849 -0.3292 -0.5218
  734MOL0     C96765   3.663   5.790   7.109  0.2546 -0.1240  0.3433
  734MOL0     C96766   3.513   5.799   7.143  1.2412  1.1261 -0.3431
  734MOL0     C96767   3.469   5.922   7.215 -0.0806  0.6446  0.7713
  734MOL0     C96768   3.332   5.904   7.266 -0.2232 -0.1760  0.3336
  734MOL0     C96769   3.287   6.026   7.347 -0.0668 -0.2080  0.5260
  734MOL0     C96770   3.149   6.006   7.396  0.3612  0.1290 -0.6819
  734MOL0     C96771   3.106   6.126   7.472  0.1776 -0.5923 -0.9354
  734MOL0     C96772   2.989   6.109   7.575 -0.2305  0.4911  0.0944
  734MOL0     N96773   2.858   6.079   7.524  0.0362  0.5126 -0.0657
  734MOL0     C96774   2.801   6.153   7.424  0.0029  0.4068  0.6688
  734MOL0     C96775   2.692   6.081   7.391  0.0439  0.3503 -0.5960
  734MOL0     C96776   2.606   6.103   7.278 -0.4656  0.2727  0.1461
  734MOL0     C96777   2.613   5.991   7.169 -0.2655 -0.2323 -0.5964
  734MOL0     C96778   2.525   5.857   7.204  0.1684  0.2615  0.0828
  734MOL0     C96779   2.397   5.878   7.270  0.6004 -0.1097 -0.8229
  734MOL0     O96780   2.320   5.966   7.186  0.0039  0.3520  0.1937
  734MOL0     C96781   2.212   6.026   7.238 -0.7781 -0.2647  0.4795
  734MOL0     C96782   2.157   6.005   7.365 -0.3100 -0.4395 -0.5687
  734MOL0     C96783   2.037   6.063   7.406 -0.2982 -0.1449  0.2901
  734MOL0     C96784   1.972   6.154   7.328  0.5543 -0.8149 -0.0178
  734MOL0     C96785   1.850   6.232   7.371  0.2547 -0.4437  0.9201
  734MOL0     O96786   1.812   6.216   7.498 -0.5561 -0.2107 -0.6654
  734MOL0     C96787   1.693   6.272   7.530  0.4056 -0.9571 -0.3121
  734MOL0     C96788   1.566   6.221   7.496  0.4860  0.0455 -0.5374
  734MOL0     C96789   1.446   6.280   7.531 -0.3638  0.8846  0.3936
  734MOL0     C96790   1.452   6.396   7.611  0.4333  0.1959 -0.6006
  734MOL0     O96791   1.328   6.454   7.630  0.6684 -0.1529  0.6590
  734MOL0     C96792   1.309   6.592   7.580  0.1438  0.4262  0.1342
  734MOL0     C96793   1.167   6.608   7.522 -0.7834  0.4318  1.0040
  734MOL0     C96794   1.139   6.493   7.417  0.1199 -0.3538 -0.1355
  734MOL0     C96795   1.006   6.529   7.366 -0.1032 -0.3797  0.0168
  734MOL0     C96796   0.941   6.433   7.266 -0.0093  0.0267 -0.9972
  734MOL0     C96797   1.035   6.429   7.141 -0.3649  0.0681 -0.0673
  734MOL0     C96798   0.981   6.326   7.041 -0.3230  0.0804  0.9602
  734MOL0     C96799   0.864   6.387   6.951 -0.6553 -0.5553 -0.6773
  734MOL0    Cl96800   0.896   6.536   6.866  0.3271  0.0326 -0.3426
  734MOL0     C96801   1.573   6.448   7.660 -1.0329 -0.0193  0.0172
  734MOL0     C96802   1.692   6.393   7.611  0.4013 -0.0176 -1.6350
  734MOL0     O96803   1.795   6.301   7.290 -0.4078  0.7765 -0.0799
  734MOL0     C96804   2.025   6.182   7.203 -0.3181  0.5925 -0.2891
  734MOL0     C96805   2.140   6.112   7.158 -0.6534  1.0268 -0.2406
  734MOL0     N96806   2.681   5.975   7.479  0.2545  0.4781  0.4639
  734MOL0     N96807   2.782   5.974   7.560  0.6274 -0.1763 -0.5369
  734MOL0     C96808   3.921   5.660   7.324 -0.2033 -0.4010  1.2667
  734MOL0     C96809   4.053   5.612   7.327  1.1164  0.4646 -0.2245
  734MOL0     C96810   4.448   5.439   7.194 -0.5274 -0.1082  0.3702
  734MOL0     C96811   4.542   5.544   7.189 -0.7344  0.4196 -0.0779
  734MOL0     C96812   4.674   5.522   7.154 -0.0614  0.6035 -0.7522
  734MOL0     C96813   4.716   5.395   7.109 -0.1738  0.6256 -0.6697
  734MOL0     O96814   4.840   5.399   7.047  0.2655 -0.1564  0.1458
  734MOL0     C96815   4.899   5.274   7.027 -0.6044 -0.5332 -0.1747
  734MOL0     C96816   5.034   5.285   6.976 -0.6472  0.3247  1.4359
  734MOL0     C96817   5.142   5.323   7.073  0.4094 -0.1414 -0.1804
  734MOL0     C96818   5.277   5.304   7.020  0.0374 -0.4142  1.4880
  734MOL0     C96819   5.308   5.401   6.917 -0.4698  0.5154  0.5046
  734MOL0     C96820   5.329   5.483   6.829 -0.5707 -0.8996 -0.1844
  734MOL0     C96821   4.629   5.286   7.109 -0.7269 -0.5176 -0.0696
  734MOL0     C96822   4.496   5.309   7.153 -0.7464  0.6408 -0.6532
  734MOL0     H96823   4.144   5.753   7.039 -1.7309 -0.8181 -2.4105
  734MOL0     H96824   3.916   5.818   7.026 -1.5706  1.8157  1.1370
  734MOL0     H96825   3.671   5.713   7.031  0.2366  1.3804 -1.1899
  734MOL0     H96826   3.686   5.891   7.075  0.3187 -0.5078 -0.7977
  734MOL0     H96827   3.484   5.707   7.194  0.7971  1.9901  1.0176
  734MOL0     H96828   3.454   5.790   7.051 -1.9231 -1.3825  1.7041
  734MOL0     H96829   3.489   6.008   7.149 -0.8285  1.3742  1.4721
  734MOL0     H96830   3.531   5.932   7.305  1.7068 -1.3547 -0.1441
  734MOL0     H96831   3.272   5.891   7.176  0.9415  0.6375 -0.5888
  734MOL0     H96832   3.336   5.817   7.333  0.8884 -2.1265 -2.1248
  734MOL0     H96833   3.298   6.102   7.269  0.9057 -1.0396 -0.1747
  734MOL0     H96834   3.357   6.047   7.428 -0.7122 -1.2389  1.3713
  734MOL0     H96835   3.147   5.916   7.457 -0.3406  1.4018  1.2656
  734MOL0     H96836   3.079   5.982   7.315 -1.0289  0.2084  0.4445
  734MOL0     H96837   3.187   6.170   7.532  1.3769 -2.2553 -1.2762
  734MOL0     H96838   3.068   6.201   7.402 -1.5868 -2.6416 -2.2943
  734MOL0     H96839   2.980   6.193   7.645 -0.5746  0.1944  0.4078
  734MOL0     H96840   3.004   6.025   7.643  0.0033  0.7695  0.3937
  734MOL0     H96841   2.855   6.238   7.384  3.5965 -1.7410  0.4539
  734MOL0     H96842   2.651   6.193   7.235 -0.3261  0.2933  0.3389
  734MOL0     H96843   2.501   6.124   7.303 -2.3611 -4.5181 -2.4884
  734MOL0     H96844   2.716   5.957   7.163 -1.2092 -3.1382 -2.2419
  734MOL0     H96845   2.576   6.034   7.076 -1.3666 -0.5052 -0.3011
  734MOL0     H96846   2.517   5.798   7.112  0.7175  1.1300 -0.5377
  734MOL0     H96847   2.589   5.803   7.275  0.2408  0.0147 -0.1710
  734MOL0     H96848   2.418   5.927   7.365 -0.5820 -1.1281 -0.0162
  734MOL0     H96849   2.351   5.781   7.286  1.2710 -0.8726 -3.1325
  734MOL0     H96850   2.199   5.928   7.428  0.8311  1.5527  1.2371
  734MOL0     H96851   1.996   6.025   7.498 -1.0727 -0.2237 -0.0845
  734MOL0     H96852   1.561   6.125   7.447  1.4082 -0.2019 -0.1694
  734MOL0     H96853   1.353   6.237   7.495  1.6597 -2.5533 -1.2668
  734MOL0     H96854   1.384   6.612   7.502 -2.1347 -2.1884 -3.0136
  734MOL0     H96855   1.321   6.674   7.651  0.3401  2.0560 -1.6658
  734MOL0     H96856   1.165   6.708   7.479  0.3677  0.6303  1.3630
  734MOL0     H96857   1.101   6.597   7.608  1.1569 -1.0557  2.4040
  734MOL0     H96858   1.158   6.395   7.463  1.3645  1.6535  4.1603
  734MOL0     H96859   1.207   6.510   7.333 -1.5836 -1.3124 -1.7890
  734MOL0     H96860   0.941   6.534   7.454  1.4352  4.5668  1.1811
  734MOL0     H96861   1.009   6.627   7.316  2.3197  0.7089  2.1084
  734MOL0     H96862   0.845   6.481   7.247 -3.0827 -2.9795  4.3600
  734MOL0     H96863   0.927   6.331   7.303 -0.7413 -0.5292 -2.7218
  734MOL0     H96864   1.133   6.389   7.169 -0.0895  0.1352 -0.9178
  734MOL0     H96865   1.046   6.530   7.101  1.6821 -0.2972 -0.5372
  734MOL0     H96866   1.073   6.294   6.992  1.2900  2.1013  2.5138
  734MOL0     H96867   0.937   6.235   7.081 -1.7629 -0.4113 -1.5157
  734MOL0     H96868   0.781   6.408   7.018  0.6631  0.0271  0.8337
  734MOL0     H96869   0.831   6.314   6.876 -3.2849 -0.8340  0.6470
  734MOL0     H96870   1.556   6.536   7.721 -1.8463 -0.3563  0.2991
  734MOL0     H96871   1.782   6.440   7.650 -0.2386 -1.2114  1.5589
  734MOL0     H96872   1.976   6.251   7.136 -2.0138 -2.2453 -2.2104
  734MOL0     H96873   2.177   6.125   7.057  0.3959  3.3730  0.3862
  734MOL0     H96874   3.862   5.635   7.412 -1.3893  3.6189  1.8334
  734MOL0     H96875   4.114   5.559   7.400  2.1414  0.0829 -1.3189
  734MOL0     H96876   4.514   5.643   7.223 -0.8454  0.9521 -1.6661
  734MOL0     H96877   4.743   5.604   7.138  1.5053 -0.6968 -0.8618
  734MOL0     H96878   4.838   5.216   6.957  0.1807  1.6802 -2.8418
  734MOL0     H96879   4.898   5.221   7.123 -4.1604 -0.5625 -0.1029
  734MOL0     H96880   5.056   5.187   6.931  1.6740  1.3241  0.2324
  734MOL0     H96881   5.031   5.358   6.895 -2.2538 -0.4427  0.7715
  734MOL0     H96882   5.132   5.267   7.167  2.0054 -0.1083  0.0242
  734MOL0     H96883   5.137   5.426   7.109  1.7700  0.5122 -1.7732
  734MOL0     H96884   5.353   5.294   7.099 -0.4380 -2.4731  1.7462
  734MOL0     H96885   5.282   5.209   6.967  1.9112  0.2810  0.3181
  734MOL0     H96886   5.349   5.557   6.755 -0.5722 -1.0752 -0.3628
  734MOL0     H96887   4.648   5.182   7.083 -0.1825 -0.5599  0.4560
  734MOL0     H96888   4.430   5.226   7.174 -2.4893  2.2428  0.4964
  735MOL0     O96889   0.952   0.347   0.856  0.1035  0.0751 -0.1150
  735MOL0     C96890   1.026   0.367   0.949 -1.1664  0.9430  0.9212
  735MOL0     O96891   0.992   0.412   1.069  0.0408 -0.3866  0.0608
  735MOL0     C96892   0.859   0.390   1.101 -0.5415 -0.2261  1.0033
  735MOL0     C96893   0.771   0.500   1.113  0.8735  0.3133  0.7634
  735MOL0     C96894   0.638   0.478   1.157 -0.6626 -0.9525  0.8020
  735MOL0     C96895   0.593   0.348   1.176 -0.0239 -1.4612 -0.0128
  735MOL0     O96896   0.460   0.356   1.214  0.1193  0.7650  0.1299
  735MOL0     C96897   0.389   0.228   1.247  0.0097  0.3280  0.1425
  735MOL0     C96898   0.264   0.273   1.313  0.3943 -0.2157  0.4310
  735MOL0     C96899   0.283   0.357   1.434  0.3418 -0.2438 -1.0639
  735MOL0     C96900   0.149   0.393   1.501  0.1160 -0.1084 -0.3454
  735MOL0     C96901   0.160   0.471   1.633  0.4524 -0.2961  0.7588
  735MOL0     C96902   0.223   0.613   1.626  0.1297  1.4193  0.3389
  735MOL0     C96903   0.211   0.678   1.754  0.0793  0.5041  0.5043
  735MOL0     C96904   0.347   0.688   1.831  0.3290 -0.1371  0.7153
  735MOL0     N96905   0.326   0.736   1.969 -0.3779 -0.0852  0.4491
  735MOL0     C96906   0.323   0.874   2.007  0.3561  0.0918  0.2250
  735MOL0     C96907   0.320   0.868   2.142 -0.1206 -0.9197 -0.6592
  735MOL0     C96908   0.313   0.993   2.240 -0.1486  0.0404  0.4631
  735MOL0     C96909   0.381   1.120   2.190 -0.0545  0.3395  0.0781
  735MOL0     C96910   0.535   1.094   2.201  0.2545  0.1363 -0.2349
  735MOL0     C96911   0.622   1.225   2.165  0.4046  0.2020 -0.0913
  735MOL0     O96912   0.622   1.220   2.026  1.2813  0.4114  0.3619
  735MOL0     C96913   0.738   1.239   1.963 -0.0958 -0.6571  0.7747
  735MOL0     C96914   0.790   1.370   1.948 -0.4178  0.1796 -0.0763
  735MOL0     C96915   0.912   1.381   1.894 -0.1803 -0.2596 -0.1118
  735MOL0     C96916   1.000   1.270   1.864 -0.4061  0.3526 -0.5834
  735MOL0     C96917   1.123   1.283   1.782 -0.9841 -0.4614 -0.3604
  735MOL0     O96918   1.157   1.168   1.711 -0.4485  0.6117  0.6274
  735MOL0     C96919   1.271   1.143   1.634 -0.2544 -0.6273 -0.4768
  735MOL0     C96920   1.399   1.192   1.656 -0.5061  0.1206 -0.5574
  735MOL0     C96921   1.506   1.160   1.574 -0.1009 -0.0488 -0.0190
  735MOL0     C96922   1.483   1.077   1.462  0.6036 -0.2601  0.9439
  735MOL0     O96923   1.579   1.032   1.380  0.2964  0.4598  0.2653
  735MOL0     C96924   1.687   1.121   1.355  0.3269  0.0372  0.6093
  735MOL0     C96925   1.762   1.069   1.229 -0.0754  0.5906 -0.0519
  735MOL0     C96926   1.894   1.141   1.208  0.4278 -0.3546  0.5450
  735MOL0     C96927   1.893   1.292   1.198 -0.7968 -0.0031 -0.8420
  735MOL0     C96928   2.033   1.348   1.147  0.2755  0.2297 -0.9613
  735MOL0     C96929   2.018   1.499   1.118 -0.7292  0.7447  0.0144
  735MOL0     C96930   2.152   1.579   1.105  0.3382  0.3231 -1.1043
  735MOL0     C96931   2.275   1.510   1.050  1.4234  0.2056  0.0207
  735MOL0    Cl96932   2.218   1.455   0.882  0.8821 -0.7435  0.1399
  735MOL0     C96933   1.360   1.016   1.453 -0.0432  0.3039  0.2121
  735MOL0     C96934   1.252   1.054   1.529 -1.2541  0.0442 -0.5057
  735MOL0     O96935   1.178   1.392   1.762 -0.3244  0.8554  0.1931
  735MOL0     C96936   0.948   1.138   1.890 -0.3166  0.2265  0.6462
  735MOL0     C96937   0.817   1.132   1.936 -0.0762 -0.1350 -0.4188
  735MOL0     N96938   0.310   0.734   2.175  0.0677  0.2974  0.4484
  735MOL0     N96939   0.323   0.654   2.078 -0.2280  0.1322  0.4295
  735MOL0     C96940   0.674   0.244   1.147  0.4289  0.6582 -1.3189
  735MOL0     C96941   0.808   0.261   1.116  0.5275 -0.6522 -0.1747
  735MOL0     C96942   1.170   0.339   0.931 -0.6497  0.2380 -0.6411
  735MOL0     C96943   1.233   0.307   0.807 -0.2065 -0.0381 -0.6585
  735MOL0     C96944   1.366   0.276   0.800  0.9350 -0.2122 -0.3785
  735MOL0     C96945   1.449   0.280   0.910  0.1683 -0.2427  0.2771
  735MOL0     O96946   1.577   0.226   0.900  0.4401  0.2123  0.4618
  735MOL0     C96947   1.660   0.276   0.795 -0.0528  0.5004 -0.7401
  735MOL0     C96948   1.738   0.392   0.839 -0.8369  0.2466  0.5044
  735MOL0     C96949   1.857   0.333   0.919  0.1279 -0.2331  0.1900
  735MOL0     C96950   1.981   0.413   0.942 -0.6344  0.2381  0.0892
  735MOL0     C96951   2.080   0.337   1.018 -0.6034 -0.3271  0.4758
  735MOL0     C96952   2.153   0.280   1.095  0.0006 -0.2082 -0.0188
  735MOL0     C96953   1.398   0.308   1.035 -0.0214  0.6345  1.0070
  735MOL0     C96954   1.261   0.343   1.043  0.3841 -0.8893 -0.3648
  735MOL0     H96955   0.807   0.599   1.090 -0.6327  0.3897 -1.6463
  735MOL0     H96956   0.584   0.568   1.184  3.4390  1.5438  1.6202
  735MOL0     H96957   0.455   0.161   1.305  1.5665 -0.6134 -2.5080
  735MOL0     H96958   0.370   0.170   1.156  2.5460  0.2658 -0.4225
  735MOL0     H96959   0.214   0.179   1.336  1.5953 -1.6475 -2.4422
  735MOL0     H96960   0.203   0.331   1.243  1.0293  2.1412  1.7189
  735MOL0     H96961   0.320   0.454   1.398  3.0186 -1.2858 -1.3141
  735MOL0     H96962   0.355   0.308   1.500 -1.4328 -0.6547  0.6601
  735MOL0     H96963   0.071   0.437   1.438 -4.2912  0.4316  4.8337
  735MOL0     H96964   0.099   0.302   1.537 -0.4322 -0.7298 -2.5327
  735MOL0     H96965   0.210   0.400   1.700 -0.7082 -3.1023 -1.1393
  735MOL0     H96966   0.058   0.467   1.674  0.7400 -0.9598  1.4329
  735MOL0     H96967   0.172   0.675   1.552 -1.6953 -1.4621 -1.0260
  735MOL0     H96968   0.319   0.607   1.574 -0.2273 -0.8362 -0.1608
  735MOL0     H96969   0.192   0.782   1.727 -2.1264 -0.1188 -0.5144
  735MOL0     H96970   0.139   0.636   1.824  3.0931 -3.5438  1.5599
  735MOL0     H96971   0.416   0.754   1.779 -0.7189  0.7406  0.3986
  735MOL0     H96972   0.393   0.589   1.839 -2.2362 -1.2982  2.6552
  735MOL0     H96973   0.325   0.965   1.947  3.0936 -1.0261 -1.5378
  735MOL0     H96974   0.358   0.965   2.336 -1.7560 -0.2089  1.1780
  735MOL0     H96975   0.210   1.020   2.267  0.5183 -0.2192  3.7208
  735MOL0     H96976   0.343   1.203   2.250  1.4548  0.8268  0.3988
  735MOL0     H96977   0.353   1.129   2.085 -0.1647  1.6835  0.2033
  735MOL0     H96978   0.566   1.071   2.304 -0.4104  0.1438 -0.0287
  735MOL0     H96979   0.573   1.003   2.153  1.8326 -0.8358  2.6172
  735MOL0     H96980   0.719   1.219   2.215  0.9722  0.1047 -1.1932
  735MOL0     H96981   0.574   1.316   2.202 -1.0442 -0.4713 -0.2517
  735MOL0     H96982   0.731   1.454   1.983  1.0310  1.0154  0.4592
  735MOL0     H96983   0.944   1.484   1.902 -0.5331 -0.2726  2.2229
  735MOL0     H96984   1.396   1.253   1.746 -2.9804 -1.3333  0.4278
  735MOL0     H96985   1.605   1.204   1.582 -1.0789  1.9949  1.4215
  735MOL0     H96986   1.754   1.134   1.440 -0.2227  1.8006  0.8145
  735MOL0     H96987   1.651   1.223   1.337  0.2075 -0.3951 -2.1506
  735MOL0     H96988   1.693   1.077   1.144 -0.9744 -3.9154  0.0351
  735MOL0     H96989   1.782   0.962   1.238 -3.6425 -0.1600  0.6850
  735MOL0     H96990   1.926   1.107   1.109  3.0865 -1.5710  1.7149
  735MOL0     H96991   1.970   1.119   1.284  3.7533  2.3793 -1.6325
  735MOL0     H96992   1.820   1.324   1.122 -1.7861  0.0706  0.1143
  735MOL0     H96993   1.886   1.346   1.293 -0.0516 -0.2701 -0.6313
  735MOL0     H96994   2.053   1.309   1.047 -1.2551  2.3336 -2.1716
  735MOL0     H96995   2.109   1.338   1.225 -1.1395  4.5555  1.3233
  735MOL0     H96996   1.963   1.544   1.201  0.0143 -2.5629  2.5607
  735MOL0     H96997   1.966   1.516   1.023 -1.5621  1.4136  0.5748
  735MOL0     H96998   2.114   1.661   1.043 -1.4690 -0.6192 -1.3143
  735MOL0     H96999   2.182   1.620   1.202 -0.5022  1.8464 -1.4505
  735MOL0     H97000   2.311   1.427   1.112  1.7121  1.1375  1.1169
  735MOL0     H97001   2.355   1.584   1.047  2.8340 -0.9887  3.3394
  735MOL0     H97002   1.350   0.935   1.381  1.2811  1.3588 -1.2055
  735MOL0     H97003   1.153   1.013   1.511 -1.7851  0.4187  1.3270
  735MOL0     H97004   0.992   1.046   1.852  0.9637  0.9589  0.2994
  735MOL0     H97005   0.774   1.033   1.951 -1.0316  0.5734  1.9013
  735MOL0     H97006   0.641   0.142   1.161  0.3259  1.0184  1.7301
  735MOL0     H97007   0.860   0.173   1.079 -0.8260 -0.6512 -2.2589
  735MOL0     H97008   1.165   0.298   0.722  0.1520  0.4618 -1.0011
  735MOL0     H97009   1.406   0.226   0.712 -0.2350 -0.1844 -0.9386
  735MOL0     H97010   1.595   0.306   0.712  0.4939  0.0706 -1.3291
  735MOL0     H97011   1.726   0.194   0.766 -0.7967 -0.4101  0.0697
  735MOL0     H97012   1.767   0.442   0.746 -2.6756 -1.5873 -1.1808
  735MOL0     H97013   1.681   0.460   0.903 -2.8204 -0.4648 -0.4205
  735MOL0     H97014   1.887   0.249   0.856  0.1603 -2.2979  2.7916
  735MOL0     H97015   1.825   0.295   1.016 -0.8356 -2.2554 -0.8670
  735MOL0     H97016   2.004   0.446   0.841 -1.0430 -1.0158 -0.4401
  735MOL0     H97017   1.960   0.501   1.004 -0.2826 -0.7180  1.6286
  735MOL0     H97018   2.214   0.227   1.166  2.6224  3.7575  1.0154
  735MOL0     H97019   1.458   0.302   1.126  1.0276 -1.4571  0.2448
  735MOL0     H97020   1.210   0.358   1.137 -3.2612  0.6312 -2.3900
  736MOL0     O97021   3.978   9.592   7.534 -0.2437  0.7927  0.2175
  736MOL0     C97022   4.048   9.494   7.571 -0.3499  0.6446  0.3502
  736MOL0     O97023   4.006   9.375   7.615  0.7855 -0.7920 -0.1764
  736MOL0     C97024   3.873   9.332   7.621 -0.1754  0.3348 -0.3116
  736MOL0     C97025   3.863   9.231   7.713 -0.1571  0.2318  0.1975
  736MOL0     C97026   3.741   9.170   7.737 -0.0718  0.4682  0.6510
  736MOL0     C97027   3.629   9.207   7.669  0.4212  0.8555  1.2590
  736MOL0     O97028   3.513   9.135   7.697 -0.3730  0.4808 -0.4755
  736MOL0     C97029   3.421   9.225   7.750  0.5756  0.9168 -0.2560
  736MOL0     C97030   3.282   9.160   7.774 -0.0838  0.0907  0.1381
  736MOL0     C97031   3.214   9.149   7.640 -0.5681 -0.2194  0.2758
  736MOL0     C97032   3.086   9.063   7.663 -0.9214 -0.3384  0.7704
  736MOL0     C97033   2.995   9.061   7.542  0.5580  0.0089  0.0612
  736MOL0     C97034   3.060   8.986   7.427 -1.3311 -0.7303 -0.3833
  736MOL0     C97035   2.954   8.934   7.325  0.5387  0.6212  0.2901
  736MOL0     C97036   2.858   8.821   7.378  0.1951  0.1196 -0.5641
  736MOL0     N97037   2.790   8.762   7.267 -0.3748  0.5109 -0.0838
  736MOL0     C97038   2.677   8.827   7.219  0.3184  0.6082  0.1554
  736MOL0     C97039   2.621   8.718   7.153  0.0065 -0.5440 -0.2607
  736MOL0     C97040   2.521   8.733   7.035 -0.1836 -0.5479  0.4785
  736MOL0     C97041   2.572   8.825   6.920  0.2767 -0.2912 -0.0183
  736MOL0     C97042   2.489   8.825   6.795 -0.0091 -0.4886 -0.7517
  736MOL0     C97043   2.348   8.884   6.807 -0.2179  0.0668 -0.5765
  736MOL0     O97044   2.263   8.789   6.735 -0.0474 -0.6474  0.6184
  736MOL0     C97045   2.130   8.805   6.743 -0.0074  0.0146  1.1851
  736MOL0     C97046   2.061   8.690   6.733  0.6186  0.1889 -0.5898
  736MOL0     C97047   1.914   8.695   6.746 -0.6073 -0.2664  1.1014
  736MOL0     C97048   1.845   8.813   6.769  0.0086 -0.7921  0.7663
  736MOL0     C97049   1.701   8.815   6.790  0.1877  0.8850 -0.5070
  736MOL0     O97050   1.641   8.939   6.766  0.2030  0.1630  0.5534
  736MOL0     C97051   1.511   8.953   6.794  0.5809  1.2776  0.6739
  736MOL0     C97052   1.456   9.039   6.891  0.3979  0.0599  0.1131
  736MOL0     C97053   1.320   9.043   6.907 -0.0725 -0.1002 -0.1044
  736MOL0     C97054   1.237   8.964   6.831 -0.6799  0.2062 -0.6589
  736MOL0     O97055   1.106   8.958   6.868  0.0569  0.2340 -0.6846
  736MOL0     C97056   1.021   8.861   6.822  0.7381 -0.3876  0.6833
  736MOL0     C97057   0.889   8.850   6.898 -0.2439 -0.3475 -0.2744
  736MOL0     C97058   0.815   8.977   6.902  0.3493  0.0136  0.0793
  736MOL0     C97059   0.683   8.965   7.002  0.4463  0.5762 -0.2911
  736MOL0     C97060   0.597   9.085   7.009  1.4936  1.0268  0.5533
  736MOL0     C97061   0.657   9.211   7.061  0.3946  0.8520 -0.5109
  736MOL0     C97062   0.555   9.315   7.107 -0.2874  0.7632  0.1766
  736MOL0     C97063   0.625   9.445   7.155  0.4337  0.4401  0.2993
  736MOL0    Cl97064   0.709   9.418   7.301 -0.2261 -0.0363  0.2202
  736MOL0     C97065   1.288   8.875   6.737 -0.6067  0.5113  0.1766
  736MOL0     C97066   1.428   8.874   6.716  0.5314  0.8607 -0.0136
  736MOL0     O97067   1.649   8.707   6.817 -0.7153  0.0853 -0.6627
  736MOL0     C97068   1.919   8.934   6.772  0.2600 -0.0900 -0.0798
  736MOL0     C97069   2.062   8.922   6.770  0.5404  0.3614 -0.4531
  736MOL0     N97070   2.691   8.595   7.180 -0.1385 -0.3355 -0.0150
  736MOL0     N97071   2.796   8.625   7.244 -0.1196 -0.2017 -0.7970
  736MOL0     C97072   3.635   9.304   7.574 -0.4128 -0.4743  0.1591
  736MOL0     C97073   3.756   9.366   7.545 -0.8232 -0.1356 -0.2742
  736MOL0     C97074   4.190   9.511   7.575 -0.4218  0.4260 -0.6396
  736MOL0     C97075   4.253   9.632   7.553 -1.0451 -0.4937  0.1690
  736MOL0     C97076   4.395   9.644   7.574  0.6212  0.5037  0.1569
  736MOL0     C97077   4.488   9.533   7.607  0.9950 -0.1010 -0.0429
  736MOL0     O97078   4.624   9.538   7.626 -0.3967 -0.4119  0.3742
  736MOL0     C97079   4.688   9.663   7.621  0.1457  1.3163  0.3601
  736MOL0     C97080   4.661   9.748   7.745 -0.2444 -0.1996  0.0789
  736MOL0     C97081   4.680   9.677   7.879  0.5784  0.3664  0.6225
  736MOL0     C97082   4.649   9.762   8.006 -0.1859 -0.7846 -0.0250
  736MOL0     C97083   4.680   9.899   7.997  0.1334 -0.1668  0.2419
  736MOL0     C97084   4.717  10.010   7.999  0.3061 -0.8716 -0.0729
  736MOL0     C97085   4.421   9.410   7.609 -0.9980 -0.2778  0.4895
  736MOL0     C97086   4.281   9.403   7.609  0.0883 -0.0371  0.4619
  736MOL0     H97087   3.956   9.204   7.762 -0.2175 -0.7167 -0.1943
  736MOL0     H97088   3.742   9.086   7.807 -3.0092  1.0529  1.5365
  736MOL0     H97089   3.403   9.318   7.697 -3.0967  0.4181 -0.1466
  736MOL0     H97090   3.460   9.261   7.846  0.5024  0.4602 -0.0514
  736MOL0     H97091   3.220   9.216   7.845  1.2982  1.5605  0.2430
  736MOL0     H97092   3.300   9.059   7.810 -3.7508 -0.1798  1.7102
  736MOL0     H97093   3.272   9.107   7.557 -1.3887 -0.2879 -0.2794
  736MOL0     H97094   3.175   9.245   7.604 -0.5282 -0.3814 -0.2153
  736MOL0     H97095   3.105   8.961   7.699  0.4118  1.0598  4.5147
  736MOL0     H97096   3.026   9.108   7.743  0.1838  0.1151  1.3735
  736MOL0     H97097   2.967   9.164   7.519  1.2703  0.9977  3.1239
  736MOL0     H97098   2.904   9.015   7.580 -0.9301  2.7785  0.0664
  736MOL0     H97099   3.116   8.904   7.472  1.1742  1.7335  1.3326
  736MOL0     H97100   3.138   9.044   7.376 -2.7829 -1.6419 -3.9597
  736MOL0     H97101   2.895   9.015   7.282 -1.8915 -0.2260  1.8514
  736MOL0     H97102   3.015   8.891   7.245  1.6775 -2.0688  2.4269
  736MOL0     H97103   2.781   8.863   7.443  2.3503 -3.5958  5.1943
  736MOL0     H97104   2.916   8.743   7.429  3.0694  2.2603 -0.3483
  736MOL0     H97105   2.673   8.934   7.203  0.8948  0.5942 -0.1239
  736MOL0     H97106   2.437   8.774   7.092  0.1990 -1.6700  1.9421
  736MOL0     H97107   2.482   8.639   6.994  1.6029 -0.3514 -1.8828
  736MOL0     H97108   2.670   8.789   6.886 -0.8975 -4.2374  0.2858
  736MOL0     H97109   2.579   8.923   6.968 -1.3421 -0.4400  0.5886
  736MOL0     H97110   2.539   8.884   6.717 -0.8704  1.7844  0.3128
  736MOL0     H97111   2.493   8.719   6.771  3.9514 -0.4996 -0.6063
  736MOL0     H97112   2.356   8.983   6.762 -1.6798 -0.5828 -2.3420
  736MOL0     H97113   2.313   8.886   6.911  0.3862 -3.4953 -0.1612
  736MOL0     H97114   2.098   8.591   6.710 -2.0337 -1.2085  0.6776
  736MOL0     H97115   1.855   8.605   6.758 -2.4561  1.0223  2.1454
  736MOL0     H97116   1.529   9.098   6.945  0.6921 -1.4168  1.4276
  736MOL0     H97117   1.285   9.115   6.980  2.1544  1.0265 -0.0593
  736MOL0     H97118   1.073   8.771   6.858 -2.8877 -2.4212  1.3593
  736MOL0     H97119   1.004   8.870   6.714  0.6193 -1.9093  0.5502
  736MOL0     H97120   0.904   8.828   7.004  1.7186  0.7569 -0.2669
  736MOL0     H97121   0.821   8.780   6.848  1.4380 -4.0238  2.1102
  736MOL0     H97122   0.791   9.008   6.800 -3.1831 -2.6668 -0.0909
  736MOL0     H97123   0.878   9.057   6.943 -0.8664  0.4496  1.1762
  736MOL0     H97124   0.621   8.878   6.977  1.0500 -1.3841  3.9751
  736MOL0     H97125   0.729   8.940   7.098  1.0821 -0.0464 -0.7536
  736MOL0     H97126   0.518   9.052   7.077  0.3229 -0.2408 -1.3312
  736MOL0     H97127   0.541   9.097   6.916 -3.3227 -4.3212  2.1610
  736MOL0     H97128   0.718   9.259   6.985  1.8059  0.7653  0.5276
  736MOL0     H97129   0.722   9.183   7.145 -0.0366  1.2726 -0.0289
  736MOL0     H97130   0.484   9.337   7.026 -2.0725 -2.2999  0.7682
  736MOL0     H97131   0.492   9.274   7.186  1.4086  1.6324  2.0517
  736MOL0     H97132   0.546   9.514   7.187  0.1310 -0.4841  1.6545
  736MOL0     H97133   0.686   9.487   7.075 -1.1647  0.3503 -1.0420
  736MOL0     H97134   1.232   8.806   6.674  1.4801 -0.2812 -0.9000
  736MOL0     H97135   1.482   8.827   6.634  0.5841 -1.0096  1.0372
  736MOL0     H97136   1.865   9.027   6.787  1.6563  0.7007  0.1900
  736MOL0     H97137   2.122   9.012   6.786  3.7526 -1.6192 -0.4699
  736MOL0     H97138   3.551   9.330   7.509  1.4625 -2.3586 -3.2933
  736MOL0     H97139   3.777   9.442   7.470  0.2937  1.9069  1.9649
  736MOL0     H97140   4.203   9.717   7.506 -1.7476 -1.6642 -1.2911
  736MOL0     H97141   4.440   9.743   7.576  3.3704 -0.6567  1.2506
  736MOL0     H97142   4.678   9.721   7.529  2.7550 -0.4388 -1.1308
  736MOL0     H97143   4.795   9.645   7.624 -0.4757 -4.2538 -1.0273
  736MOL0     H97144   4.727   9.835   7.741 -1.0856  0.4034 -1.4366
  736MOL0     H97145   4.561   9.790   7.739  0.2284  0.7938 -1.4500
  736MOL0     H97146   4.781   9.636   7.879  0.8529  1.0419  0.8942
  736MOL0     H97147   4.612   9.590   7.875  2.5782 -1.2290 -1.3310
  736MOL0     H97148   4.543   9.741   8.022 -0.2162 -0.3530  0.3442
  736MOL0     H97149   4.703   9.719   8.091  0.1536 -1.3895 -0.5397
  736MOL0     H97150   4.730  10.117   7.997  1.0333 -0.9381 -2.9052
  736MOL0     H97151   4.485   9.322   7.614  0.7674  1.0050  2.4661
  736MOL0     H97152   4.243   9.306   7.641 -0.6489  0.6963  1.9483
  737MOL0     O97153   8.644   0.632   8.612 -0.3694 -0.6812 -0.3434
  737MOL0     C97154   8.639   0.750   8.646  0.2027 -0.1662 -0.0973
  737MOL0     O97155   8.742   0.835   8.644 -0.1558  0.1828  0.3714
  737MOL0     C97156   8.860   0.825   8.575 -0.1257 -0.1024 -0.6024
  737MOL0     C97157   8.878   0.737   8.467  0.8774  0.5253  0.0961
  737MOL0     C97158   9.004   0.731   8.408  0.3102 -0.8699  1.1267
  737MOL0     C97159   9.106   0.824   8.451  0.2651 -0.2219  0.4834
  737MOL0     O97160   9.220   0.794   8.382 -0.1572 -0.4075 -0.4945
  737MOL0     C97161   9.324   0.890   8.394  0.2844  0.5931 -0.5544
  737MOL0     C97162   9.417   0.871   8.284  0.3103 -0.3977  0.1757
  737MOL0     C97163   9.538   0.965   8.296  0.3913  0.1868 -0.1198
  737MOL0     C97164   9.658   0.945   8.202 -0.7487 -0.0994  1.2155
  737MOL0     C97165   9.769   1.048   8.195  0.4093  0.0842  0.2465
  737MOL0     C97166   9.833   1.094   8.326 -0.2172  0.0350 -0.7339
  737MOL0     C97167   9.933   0.985   8.376 -0.3839  0.0195 -0.9500
  737MOL0     C97168   9.988   1.025   8.512  0.3532 -0.0371 -1.8203
  737MOL0     N97169   9.884   1.053   8.623 -0.2097  0.5048  0.8175
  737MOL0     C97170   9.806   0.949   8.666  0.0543  0.0538  0.6901
  737MOL0     C97171   9.700   1.010   8.724 -0.3407 -0.4541 -0.2610
  737MOL0     C97172   9.586   0.935   8.768 -0.0405  1.1361  0.5954
  737MOL0     C97173   9.478   1.004   8.852 -0.4510 -0.5364 -0.4649
  737MOL0     C97174   9.389   1.100   8.766  0.0857 -0.5255  0.9799
  737MOL0     C97175   9.277   1.148   8.858 -0.2719  0.3774 -0.4374
  737MOL0     O97176   9.169   1.059   8.868  0.1719  0.5453 -0.6981
  737MOL0     C97177   9.062   1.093   8.951 -0.0706 -0.3703 -1.0403
  737MOL0     C97178   9.043   1.219   9.005  0.3172 -0.4522 -0.4875
  737MOL0     C97179   8.921   1.257   9.063  0.3278  1.0501  0.3128
  737MOL0     C97180   8.816   1.162   9.064 -0.5772 -0.6133  0.0210
  737MOL0     C97181   8.685   1.212   9.107 -0.1744  1.2956 -0.2614
  737MOL0     O97182   8.584   1.143   9.052 -0.4335 -0.3171  0.6921
  737MOL0     C97183   8.464   1.204   9.045  0.6295 -0.1152  0.0601
  737MOL0     C97184   8.359   1.160   9.123 -0.1066 -0.0895 -0.3009
  737MOL0     C97185   8.232   1.216   9.119  0.6231  1.1592  0.5375
  737MOL0     C97186   8.202   1.335   9.053  0.0662 -0.1981  0.0954
  737MOL0     O97187   8.077   1.391   9.034  0.2817 -1.2387  0.2238
  737MOL0     C97188   7.970   1.363   9.123  0.5217 -0.9467  0.4949
  737MOL0     C97189   7.850   1.439   9.058 -0.6408 -0.0180  0.5870
  737MOL0     C97190   7.723   1.413   9.136  0.5632 -0.4959  0.2859
  737MOL0     C97191   7.722   1.476   9.269 -0.2448 -0.5361 -0.5366
  737MOL0     C97192   7.582   1.458   9.331  0.2829 -0.1406  0.6285
  737MOL0     C97193   7.570   1.532   9.461 -0.0153  0.1066  0.5986
  737MOL0     C97194   7.433   1.514   9.509 -0.5015 -0.8337  0.1656
  737MOL0     C97195   7.433   1.546   9.658 -0.6911  0.1286 -0.7854
  737MOL0    Cl97196   7.508   1.700   9.710 -0.3293 -0.1088 -0.4111
  737MOL0     C97197   8.312   1.382   8.975 -0.1810 -0.9445  0.2805
  737MOL0     C97198   8.446   1.327   8.971 -0.1494 -0.3095 -0.4027
  737MOL0     O97199   8.665   1.315   9.172  0.0040  0.3211  0.6372
  737MOL0     C97200   8.839   1.027   9.022 -0.1860  0.5687  0.4936
  737MOL0     C97201   8.960   0.995   8.965  0.5371  0.2549  0.3580
  737MOL0     N97202   9.717   1.153   8.722  0.3415 -0.5981  1.1136
  737MOL0     N97203   9.832   1.172   8.663  0.0646  0.0701 -0.4963
  737MOL0     C97204   9.088   0.903   8.560 -0.0539 -1.3366  0.6371
  737MOL0     C97205   8.971   0.900   8.627  0.7279 -0.4956  0.6198
  737MOL0     C97206   8.506   0.809   8.692 -0.6467  0.6897  0.4056
  737MOL0     C97207   8.395   0.717   8.705  0.0723 -0.5562  0.3623
  737MOL0     C97208   8.271   0.778   8.734  0.8128  0.0432  1.0078
  737MOL0     C97209   8.263   0.919   8.749 -0.1542 -0.7348  0.8797
  737MOL0     O97210   8.145   0.978   8.779 -0.4776  0.2946  0.3676
  737MOL0     C97211   8.046   0.972   8.665  0.5179 -0.5845 -0.1474
  737MOL0     C97212   7.904   0.989   8.697  0.2267 -0.4442  0.2621
  737MOL0     C97213   7.874   1.109   8.774 -0.7575  0.1404 -0.4917
  737MOL0     C97214   7.772   1.091   8.889 -0.4854 -0.1075  0.1470
  737MOL0     C97215   7.649   1.035   8.835  0.9543  0.6028  0.4547
  737MOL0     C97216   7.551   0.970   8.784  0.0907 -0.4400  0.0139
  737MOL0     C97217   8.377   1.001   8.744 -0.1159 -0.6185 -0.5320
  737MOL0     C97218   8.503   0.947   8.716 -0.1933  0.3142 -0.8828
  737MOL0     H97219   8.804   0.665   8.431  0.2906  1.0144  0.3081
  737MOL0     H97220   9.013   0.657   8.329 -2.6512 -1.6286  1.3794
  737MOL0     H97221   9.375   0.890   8.490 -1.1323 -1.4485  0.2671
  737MOL0     H97222   9.271   0.984   8.376 -1.1014  0.0922  0.7101
  737MOL0     H97223   9.369   0.897   8.189 -1.1544 -0.2494  0.9314
  737MOL0     H97224   9.445   0.765   8.280 -0.3769 -0.5895  0.3152
  737MOL0     H97225   9.590   0.961   8.393 -0.3029  0.2104  0.2597
  737MOL0     H97226   9.510   1.070   8.293  3.6970  1.2799  1.8356
  737MOL0     H97227   9.691   0.842   8.216 -3.6631 -1.8243 -2.6429
  737MOL0     H97228   9.627   0.940   8.097 -0.3613  0.9702  1.0319
  737MOL0     H97229   9.727   1.141   8.156 -0.1378 -0.4818 -0.5306
  737MOL0     H97230   9.845   1.025   8.120 -1.3016  2.3199 -2.3267
  737MOL0     H97231   9.752   1.109   8.398  0.6540 -0.6456  0.4243
  737MOL0     H97232   9.894   1.183   8.313  0.5670 -0.3470  0.2540
  737MOL0     H97233   9.882   0.891   8.397  1.4857 -1.3259 -2.1666
  737MOL0     H97234  10.017   0.973   8.308  0.6571  1.6590 -0.0221
  737MOL0     H97235  10.047   1.116   8.502  1.1968 -0.4052 -0.5647
  737MOL0     H97236  10.052   0.945   8.553  0.4142  0.6632 -0.4704
  737MOL0     H97237   9.806   0.842   8.649 -8.2480 -0.3624 -1.0884
  737MOL0     H97238   9.615   0.855   8.836 -0.3624  0.4751 -0.0371
  737MOL0     H97239   9.548   0.886   8.679  0.9144  1.1323  0.1846
  737MOL0     H97240   9.517   1.059   8.938  0.7802  1.8836 -2.4621
  737MOL0     H97241   9.412   0.924   8.888  1.4597 -2.3507 -0.7640
  737MOL0     H97242   9.446   1.189   8.739 -0.8246 -0.5441 -1.1682
  737MOL0     H97243   9.349   1.049   8.678  2.4027 -0.5886 -0.0819
  737MOL0     H97244   9.253   1.246   8.816 -0.9381  1.7863  2.8506
  737MOL0     H97245   9.314   1.168   8.959  1.3703 -0.1142 -0.9143
  737MOL0     H97246   9.111   1.302   8.988  0.3303  0.4723  3.2043
  737MOL0     H97247   8.897   1.355   9.104 -3.9927  0.3132 -0.0188
  737MOL0     H97248   8.374   1.067   9.178  2.1210 -0.0649 -0.7787
  737MOL0     H97249   8.154   1.148   9.151  3.1768 -1.8691  0.7822
  737MOL0     H97250   7.984   1.416   9.217 -2.5233 -0.8140  0.9777
  737MOL0     H97251   7.942   1.258   9.128  0.6186 -0.9817  0.3214
  737MOL0     H97252   7.840   1.413   8.952  2.6472 -4.5555  1.0574
  737MOL0     H97253   7.886   1.542   9.061  2.9496 -1.1360  0.7280
  737MOL0     H97254   7.699   1.306   9.134 -0.6867 -0.2649 -2.9793
  737MOL0     H97255   7.649   1.468   9.078  3.0169  1.7822 -0.8809
  737MOL0     H97256   7.791   1.419   9.332  1.8460 -0.7451 -2.8595
  737MOL0     H97257   7.749   1.581   9.282 -1.2066 -0.6322  5.0321
  737MOL0     H97258   7.551   1.355   9.352  0.8003 -0.7616 -1.4697
  737MOL0     H97259   7.500   1.488   9.266 -0.4951 -2.1271  0.6358
  737MOL0     H97260   7.590   1.637   9.438  0.0581 -0.2453 -1.0838
  737MOL0     H97261   7.635   1.474   9.527 -0.1288 -0.9192 -0.1617
  737MOL0     H97262   7.365   1.579   9.453 -0.4413  0.3697  1.4306
  737MOL0     H97263   7.402   1.410   9.493 -1.5061 -0.1031 -3.6719
  737MOL0     H97264   7.487   1.465   9.708 -1.8707 -3.1653 -4.3520
  737MOL0     H97265   7.327   1.535   9.683 -0.9759 -1.0465 -2.2999
  737MOL0     H97266   8.305   1.473   8.916 -0.6333 -1.4213 -0.4120
  737MOL0     H97267   8.529   1.357   8.907 -0.9050 -0.1278 -1.3247
  737MOL0     H97268   8.758   0.954   9.027  3.1978 -3.5702  0.5725
  737MOL0     H97269   8.974   0.898   8.917 -2.0338 -0.8296  1.6155
  737MOL0     H97270   9.169   0.965   8.597 -2.2106  0.2492  3.0670
  737MOL0     H97271   8.960   0.970   8.709  1.5405  0.2517  0.1000
  737MOL0     H97272   8.387   0.615   8.666  1.6801 -1.2387  1.6707
  737MOL0     H97273   8.172   0.735   8.741  0.1230  1.3678  0.0154
  737MOL0     H97274   8.059   0.874   8.619  1.0170 -1.5587  1.9402
  737MOL0     H97275   8.069   1.050   8.592 -3.1474  2.1010  1.2592
  737MOL0     H97276   7.851   0.979   8.601  1.6271 -0.1666 -0.5701
  737MOL0     H97277   7.879   0.903   8.759 -0.0433 -0.4119  0.2017
  737MOL0     H97278   7.829   1.184   8.707 -0.8086  0.4283 -0.1373
  737MOL0     H97279   7.965   1.154   8.814  0.4898  0.0208 -2.9783
  737MOL0     H97280   7.813   1.030   8.970  2.0942  2.0578  0.6043
  737MOL0     H97281   7.755   1.193   8.924  0.1333  0.1015 -0.1560
  737MOL0     H97282   7.463   0.924   8.743 -1.5524  1.9240  0.6338
  737MOL0     H97283   8.382   1.107   8.765 -1.2986 -1.0391  2.2072
  737MOL0     H97284   8.594   1.007   8.713  2.1470 -2.5275  3.3021
  738MOL0     O97285   6.139   9.030  10.297 -0.5937 -0.2433 -0.2073
  738MOL0     C97286   6.253   9.055  10.260 -0.3222  1.2107  0.5556
  738MOL0     O97287   6.362   9.089  10.345  0.3058 -0.1468  0.7227
  738MOL0     C97288   6.354   9.116  10.483 -0.4470 -1.0152  1.0967
  738MOL0     C97289   6.229   9.125  10.549 -0.3809  0.1453 -0.2844
  738MOL0     C97290   6.228   9.150  10.688  0.5023  0.6470  0.4062
  738MOL0     C97291   6.349   9.175  10.754 -0.1483 -0.0281  0.4890
  738MOL0     O97292   6.334   9.207  10.886 -0.1049  0.1187  0.3852
  738MOL0     C97293   6.454   9.238  10.960  0.2693  0.9027  0.3049
  738MOL0     C97294   6.408   9.273  11.102 -0.0507  1.1874  1.0658
  738MOL0     C97295   6.535   9.310  11.180  0.8215  1.0724 -0.2002
  738MOL0     C97296   6.493   9.369  11.324 -0.4847  0.7505 -0.2564
  738MOL0     C97297   6.425   9.269  11.415 -0.3054 -0.3475 -0.1865
  738MOL0     C97298   6.536   9.170  11.465 -0.9807  0.1494 -0.6437
  738MOL0     C97299   6.510   9.091  11.594 -0.1513  0.5268  1.0170
  738MOL0     C97300   6.437   8.959  11.572 -0.0199  0.2875 -0.3169
  738MOL0     N97301   6.295   8.960  11.604  0.4868  1.1222 -0.6168
  738MOL0     C97302   6.231   8.898  11.715  0.1722 -0.1111 -0.6986
  738MOL0     C97303   6.099   8.908  11.698  0.2167 -0.7803  0.5099
  738MOL0     C97304   6.001   8.856  11.806  0.5238  0.1206 -0.0319
  738MOL0     C97305   5.881   8.792  11.729 -0.3604  0.3804 -0.3260
  738MOL0     C97306   5.774   8.751  11.819 -0.0719  0.2453 -0.1718
  738MOL0     C97307   5.685   8.870  11.863  0.5156 -1.0819 -0.3264
  738MOL0     O97308   5.598   8.851  11.980 -1.0627 -0.1692  0.1133
  738MOL0     C97309   5.465   8.826  11.962  1.0097 -0.3232 -0.0819
  738MOL0     C97310   5.417   8.742  11.871 -0.2556  0.1070  0.7251
  738MOL0     C97311   5.284   8.714  11.862  0.6533  0.6543  0.4225
  738MOL0     C97312   5.179   8.770  11.938 -0.0351 -0.3042  0.1563
  738MOL0     C97313   5.032   8.737  11.934 -0.3408  0.1056  0.0428
  738MOL0     O97314   4.959   8.767  12.049 -0.3191 -0.6607  0.3181
  738MOL0     C97315   4.832   8.719  12.066  0.0234 -0.1091 -0.2410
  738MOL0     C97316   4.805   8.590  12.108 -0.2925  0.0521  0.0619
  738MOL0     C97317   4.672   8.545  12.127 -1.1479 -0.3200  1.3597
  738MOL0     C97318   4.559   8.631  12.094 -0.6291 -0.2770 -0.2421
  738MOL0     O97319   4.434   8.575  12.109 -0.4116  0.1761 -0.0725
  738MOL0     C97320   4.324   8.667  12.087  0.2002 -0.0142  0.5498
  738MOL0     C97321   4.187   8.615  12.138 -0.9631 -0.7055 -0.7364
  738MOL0     C97322   4.201   8.612  12.297  0.1592  0.0613  0.0703
  738MOL0     C97323   4.078   8.585  12.376 -1.0544  0.2626  0.5778
  738MOL0     C97324   4.050   8.436  12.393 -0.1280 -1.0896  0.1477
  738MOL0     C97325   3.899   8.425  12.440 -0.0183 -0.3659  0.6375
  738MOL0     C97326   3.861   8.281  12.457  0.6665 -0.4512 -0.6849
  738MOL0     C97327   3.788   8.220  12.332 -0.2306  0.5485  0.4892
  738MOL0    Cl97328   3.616   8.270  12.342  0.0847  0.1700 -0.1404
  738MOL0     C97329   4.587   8.769  12.062 -0.7236  0.5535 -0.3307
  738MOL0     C97330   4.722   8.804  12.046  0.8188  0.1832  0.5933
  738MOL0     O97331   4.987   8.685  11.832 -0.5774  0.2506 -0.0529
  738MOL0     C97332   5.236   8.848  12.041  0.0048 -0.5898  0.6882
  738MOL0     C97333   5.371   8.877  12.052  0.4976 -0.0615 -0.3039
  738MOL0     N97334   6.081   8.985  11.582 -0.7613  0.1948  0.0606
  738MOL0     N97335   6.192   9.015  11.532  0.8322  0.4815 -0.2962
  738MOL0     C97336   6.472   9.177  10.678  0.6525  0.7880 -0.9343
  738MOL0     C97337   6.478   9.133  10.548  0.3534 -0.0371 -0.1079
  738MOL0     C97338   6.293   9.055  10.123 -0.6660 -0.3017  1.0974
  738MOL0     C97339   6.205   9.020  10.019 -0.7442  0.1715 -0.2835
  738MOL0     C97340   6.239   9.015   9.888 -0.0479  0.8428 -0.0503
  738MOL0     C97341   6.371   9.038   9.844  0.3362  0.3561 -0.4116
  738MOL0     O97342   6.422   9.018   9.717 -0.7924 -0.3177  0.4749
  738MOL0     C97343   6.357   9.076   9.600  0.8054 -0.4921  0.0152
  738MOL0     C97344   6.438   9.036   9.472  0.3291  0.7117 -0.2603
  738MOL0     C97345   6.582   9.087   9.459 -0.2431 -0.8170 -0.1267
  738MOL0     C97346   6.691   9.022   9.558  0.2988  0.1582 -0.0894
  738MOL0     C97347   6.717   8.877   9.538  1.0110  0.3440  0.4492
  738MOL0     C97348   6.747   8.758   9.517  0.3762 -0.2930  0.4992
  738MOL0     C97349   6.465   9.084   9.940  0.1349 -0.0077 -1.2278
  738MOL0     C97350   6.427   9.083  10.080 -0.3930  0.1047 -0.0083
  738MOL0     H97351   6.130   9.111  10.507 -0.2411  2.7771 -1.7041
  738MOL0     H97352   6.133   9.171  10.735 -0.3723  2.5268 -1.9730
  738MOL0     H97353   6.514   9.318  10.915  0.1232  0.3047 -1.0027
  738MOL0     H97354   6.516   9.148  10.952  0.5281  1.2854 -3.2747
  738MOL0     H97355   6.363   9.188  11.153 -0.5091  0.3153 -0.7083
  738MOL0     H97356   6.338   9.357  11.093 -1.5359 -0.0855  0.2912
  738MOL0     H97357   6.592   9.378  11.117 -0.6236 -0.2087 -3.1036
  738MOL0     H97358   6.600   9.223  11.194  3.6391  2.6443 -2.4023
  738MOL0     H97359   6.587   9.401  11.370  0.2933 -2.8497  0.9961
  738MOL0     H97360   6.432   9.460  11.317  0.0243  1.2357  1.2278
  738MOL0     H97361   6.352   9.222  11.350 -2.8855  0.9582  1.5919
  738MOL0     H97362   6.367   9.311  11.498  0.3719 -0.4153  0.3358
  738MOL0     H97363   6.627   9.228  11.483 -1.1753  0.0810  0.6228
  738MOL0     H97364   6.558   9.091  11.391 -0.6802 -1.2279  0.8582
  738MOL0     H97365   6.613   9.070  11.625  0.5721  1.8169 -0.3800
  738MOL0     H97366   6.465   9.141  11.680 -2.1868 -2.6298  1.9524
  738MOL0     H97367   6.483   8.885  11.638  0.8433  1.7798  0.8182
  738MOL0     H97368   6.454   8.930  11.468 -0.4489 -1.2793  0.0297
  738MOL0     H97369   6.288   8.858  11.798  2.1126  2.2197 -0.7997
  738MOL0     H97370   5.962   8.941  11.862 -1.0737 -0.6953  0.1324
  738MOL0     H97371   6.056   8.799  11.882  2.3858  1.3194 -0.4125
  738MOL0     H97372   5.917   8.707  11.671 -0.7743  0.2246 -0.3598
  738MOL0     H97373   5.831   8.852  11.652 -2.8186 -0.8466  0.2118
  738MOL0     H97374   5.703   8.680  11.774  0.5357 -0.5335  0.0742
  738MOL0     H97375   5.829   8.701  11.900  0.4378  2.1215  0.6880
  738MOL0     H97376   5.634   8.911  11.776  2.5336  0.4277 -0.8669
  738MOL0     H97377   5.753   8.949  11.896  1.5177 -2.0649  0.0472
  738MOL0     H97378   5.492   8.693  11.809  0.8206  1.5376  0.8500
  738MOL0     H97379   5.263   8.648  11.778 -1.4701 -0.6826  1.9031
  738MOL0     H97380   4.886   8.520  12.126 -1.2962 -0.4747  3.0798
  738MOL0     H97381   4.649   8.445  12.160 -0.7746 -0.5163  1.0290
  738MOL0     H97382   4.325   8.686  11.980 -1.5300  0.2648  0.5527
  738MOL0     H97383   4.348   8.761  12.138  0.1792  0.0381  0.4646
  738MOL0     H97384   4.156   8.515  12.107 -2.2365 -1.0688  1.4523
  738MOL0     H97385   4.106   8.680  12.105 -1.1016 -0.7360 -0.4638
  738MOL0     H97386   4.236   8.712  12.324  2.5533 -0.6695 -0.0938
  738MOL0     H97387   4.276   8.536  12.321  1.3083  1.0794 -0.1423
  738MOL0     H97388   4.086   8.620  12.479  4.3814 -1.1606  0.9730
  738MOL0     H97389   3.993   8.640  12.335 -0.5447 -0.1039 -1.0657
  738MOL0     H97390   4.117   8.397  12.470 -3.3953 -0.1722  3.8160
  738MOL0     H97391   4.069   8.392  12.295 -2.5011  1.1350 -1.4493
  738MOL0     H97392   3.840   8.474  12.361  1.0805 -0.2433 -0.1323
  738MOL0     H97393   3.873   8.477  12.532  0.2421  0.0820  0.4628
  738MOL0     H97394   3.948   8.231  12.500 -0.8775 -0.8673  2.1810
  738MOL0     H97395   3.789   8.274  12.539 -0.4569  1.8164 -1.3963
  738MOL0     H97396   3.798   8.112  12.326 -1.9757  0.3782  0.0699
  738MOL0     H97397   3.833   8.259  12.240 -2.1988 -0.7031 -1.1099
  738MOL0     H97398   4.506   8.840  12.047 -0.8744  0.4421 -0.0554
  738MOL0     H97399   4.739   8.906  12.016 -1.2050  0.4870  0.3343
  738MOL0     H97400   5.176   8.915  12.101  0.0084  1.0756 -1.0806
  738MOL0     H97401   5.390   8.941  12.138 -1.1837  2.9784 -2.0413
  738MOL0     H97402   6.565   9.202  10.728 -0.5836  2.1062  0.8194
  738MOL0     H97403   6.578   9.135  10.506  0.1686 -4.2756 -1.2882
  738MOL0     H97404   6.105   9.010  10.060 -0.9131  3.0192  0.2195
  738MOL0     H97405   6.171   8.980   9.811  0.7409  0.1901 -0.4575
  738MOL0     H97406   6.337   9.181   9.623 -3.3535 -2.0773  5.9201
  738MOL0     H97407   6.259   9.029   9.588  0.1880  0.4823  1.1043
  738MOL0     H97408   6.442   8.927   9.461 -0.5729  0.7144 -0.6946
  738MOL0     H97409   6.384   9.073   9.384 -1.6559 -1.2787  0.0103
  738MOL0     H97410   6.573   9.194   9.481  3.2631 -0.6767  1.2719
  738MOL0     H97411   6.618   9.078   9.357  0.0012 -1.0349 -0.0208
  738MOL0     H97412   6.789   9.066   9.535  0.0238  1.5523  1.2751
  738MOL0     H97413   6.663   9.041   9.662  3.1265 -0.8606  0.9637
  738MOL0     H97414   6.786   8.659   9.508  0.6092 -0.2597  1.0445
  738MOL0     H97415   6.569   9.108   9.916 -0.2060  1.8170 -1.0190
  738MOL0     H97416   6.502   9.115  10.152  0.3064  1.1973 -1.1828
  739MOL0     O97417   6.033   1.382   1.452  0.0809 -0.1294 -0.8283
  739MOL0     C97418   6.014   1.374   1.575 -0.9588 -0.4720 -0.3117
  739MOL0     O97419   6.079   1.457   1.672  0.1930  0.2954 -0.3204
  739MOL0     C97420   6.185   1.534   1.641 -0.4293  0.1358  0.5742
  739MOL0     C97421   6.199   1.616   1.523  0.1132 -1.3793  0.5415
  739MOL0     C97422   6.318   1.676   1.495  0.1277 -0.3881 -0.1019
  739MOL0     C97423   6.432   1.666   1.584 -1.6966  0.4128  0.4829
  739MOL0     O97424   6.544   1.733   1.565 -0.3183  0.5442  0.0552
  739MOL0     C97425   6.559   1.833   1.467 -0.0741 -0.0939 -0.1557
  739MOL0     C97426   6.695   1.891   1.478  0.1843 -0.7025  0.5034
  739MOL0     C97427   6.741   1.927   1.619  0.2431 -0.8500 -0.8819
  739MOL0     C97428   6.864   2.006   1.626 -0.1547 -0.6151  0.6633
  739MOL0     C97429   6.931   2.021   1.764 -0.2781  0.7515  0.4028
  739MOL0     C97430   7.050   2.115   1.777 -0.7711 -0.2065 -0.9191
  739MOL0     C97431   7.134   2.098   1.901  0.1829  0.0671  1.0641
  739MOL0     C97432   7.070   2.103   2.047 -0.0638  0.7486  0.3451
  739MOL0     N97433   6.962   2.010   2.061  0.3632  0.7880 -0.6388
  739MOL0     C97434   6.832   2.049   2.085 -0.0223 -0.4310  0.7941
  739MOL0     C97435   6.760   1.928   2.092  0.1233  0.1000  0.2821
  739MOL0     C97436   6.614   1.916   2.138  0.3935 -0.5108 -0.9255
  739MOL0     C97437   6.526   1.810   2.077 -0.6364  0.5751 -0.1961
  739MOL0     C97438   6.385   1.825   2.128 -0.4296 -0.0472  1.3813
  739MOL0     C97439   6.312   1.694   2.094  0.6215  0.1136 -0.3405
  739MOL0     O97440   6.182   1.702   2.150  0.2143 -0.0225 -0.5654
  739MOL0     C97441   6.118   1.583   2.193  0.5988  0.5564  0.4997
  739MOL0     C97442   5.979   1.569   2.156 -0.7565 -0.6354 -0.4585
  739MOL0     C97443   5.903   1.450   2.175  0.2390 -0.2466  0.2877
  739MOL0     C97444   5.967   1.346   2.242  0.5003  0.0416 -0.2262
  739MOL0     C97445   5.891   1.224   2.274 -0.1953 -0.4438  1.0769
  739MOL0     O97446   5.953   1.129   2.348  0.9215 -0.7732  0.2648
  739MOL0     C97447   5.869   1.027   2.382  0.1953 -0.2823 -0.7006
  739MOL0     C97448   5.924   0.905   2.382  0.6146  0.4479  0.2252
  739MOL0     C97449   5.855   0.794   2.424 -0.2050 -0.1316 -0.3900
  739MOL0     C97450   5.724   0.798   2.469  1.1807 -0.4798 -0.9369
  739MOL0     O97451   5.661   0.678   2.503 -0.5736  0.5604 -0.2471
  739MOL0     C97452   5.543   0.671   2.583 -0.5593  0.6260  0.2361
  739MOL0     C97453   5.595   0.694   2.727 -0.0474  0.3418  0.5524
  739MOL0     C97454   5.495   0.649   2.836  0.4876 -0.6473  0.3780
  739MOL0     C97455   5.569   0.662   2.968 -0.8143  0.5695 -0.1728
  739MOL0     C97456   5.476   0.699   3.082  0.0277 -0.5393 -0.9677
  739MOL0     C97457   5.532   0.661   3.223  0.2005  0.0794  0.2862
  739MOL0     C97458   5.666   0.715   3.264 -0.1309 -0.7071  0.4573
  739MOL0     C97459   5.725   0.637   3.387  0.1123 -0.7906  0.3739
  739MOL0    Cl97460   5.778   0.469   3.351  0.4587  0.5594 -0.4569
  739MOL0     C97461   5.672   0.935   2.487  0.1085  0.2888 -0.4419
  739MOL0     C97462   5.747   1.050   2.441 -0.1226 -0.2033  0.5611
  739MOL0     O97463   5.776   1.211   2.226  0.2677 -0.1935 -0.2462
  739MOL0     C97464   6.101   1.357   2.286  0.0728  0.1534 -0.1800
  739MOL0     C97465   6.176   1.473   2.256 -0.7602 -0.3856  0.0590
  739MOL0     N97466   6.851   1.822   2.079  0.4640  0.1103 -0.2369
  739MOL0     N97467   6.967   1.875   2.060  0.0590  0.8432  0.4319
  739MOL0     C97468   6.420   1.584   1.701 -0.7473 -0.6621  0.2079
  739MOL0     C97469   6.295   1.529   1.727  0.3460  0.5743 -0.2632
  739MOL0     C97470   5.922   1.271   1.632 -0.7722  0.2546 -0.9742
  739MOL0     C97471   5.912   1.263   1.772 -0.6660  0.0938 -0.2736
  739MOL0     C97472   5.838   1.159   1.838 -0.0148 -0.6782 -0.0588
  739MOL0     C97473   5.755   1.075   1.761  0.0677 -0.7353  0.4774
  739MOL0     O97474   5.669   0.981   1.804  0.2829  0.0922  0.8182
  739MOL0     C97475   5.619   0.976   1.938 -0.5381  0.3295  0.1374
  739MOL0     C97476   5.513   1.078   1.956  0.1623 -0.9303 -0.6118
  739MOL0     C97477   5.419   1.054   2.073  0.5518 -0.1355  0.0472
  739MOL0     C97478   5.481   1.079   2.210 -0.6038  0.9472  0.7859
  739MOL0     C97479   5.389   1.099   2.328  0.5632  0.1640 -0.2010
  739MOL0     C97480   5.297   1.075   2.411  0.5406  0.1391 -0.3505
  739MOL0     C97481   5.783   1.074   1.625  0.4527  0.4308  1.0144
  739MOL0     C97482   5.868   1.171   1.558 -0.1411  0.2098  0.8189
  739MOL0     H97483   6.111   1.636   1.462  0.0166  1.0143  1.3575
  739MOL0     H97484   6.311   1.738   1.407 -1.0027 -0.8792 -0.3861
  739MOL0     H97485   6.490   1.916   1.482  1.1956  0.6177  2.4767
  739MOL0     H97486   6.539   1.777   1.375 -3.2535 -1.1452  1.0309
  739MOL0     H97487   6.707   1.981   1.417 -0.0424  0.5110  2.1885
  739MOL0     H97488   6.757   1.807   1.445  0.1745 -0.1050 -1.1103
  739MOL0     H97489   6.762   1.835   1.674  1.5598 -1.1527 -1.8573
  739MOL0     H97490   6.668   1.988   1.674 -0.2512 -1.1779 -1.1629
  739MOL0     H97491   6.932   1.945   1.567  2.4532  2.3577  0.3016
  739MOL0     H97492   6.848   2.104   1.580  1.1754 -0.6418  0.0968
  739MOL0     H97493   6.965   1.924   1.801  2.1028  2.2182  2.3605
  739MOL0     H97494   6.858   2.055   1.838 -2.9278  0.5986 -1.9767
  739MOL0     H97495   7.014   2.218   1.785 -2.2209 -0.7215 -0.3590
  739MOL0     H97496   7.112   2.116   1.687  1.3726  2.5963  0.4265
  739MOL0     H97497   7.184   2.001   1.910  2.2952  1.1834  2.1706
  739MOL0     H97498   7.213   2.174   1.894 -0.2437  0.4132 -0.3520
  739MOL0     H97499   7.037   2.203   2.075  0.1938  1.0236 -0.3165
  739MOL0     H97500   7.148   2.074   2.118 -0.1904  1.1517  0.6498
  739MOL0     H97501   6.796   2.149   2.108  2.8113  0.5245  1.4909
  739MOL0     H97502   6.571   2.014   2.118 -1.7907 -1.4962 -1.2810
  739MOL0     H97503   6.635   1.895   2.243  2.7994 -2.2404 -1.6359
  739MOL0     H97504   6.571   1.716   2.113  0.5967  1.9074  1.9428
  739MOL0     H97505   6.532   1.818   1.968  2.7533  0.4698 -0.1275
  739MOL0     H97506   6.386   1.833   2.237  1.7622  1.4676  1.3110
  739MOL0     H97507   6.341   1.915   2.084 -1.4930 -0.4171  1.6654
  739MOL0     H97508   6.367   1.609   2.135 -1.4797 -1.4375 -0.5620
  739MOL0     H97509   6.304   1.690   1.985 -0.0077 -1.5211 -0.2500
  739MOL0     H97510   5.930   1.649   2.101 -0.1794 -1.8700 -2.8987
  739MOL0     H97511   5.797   1.445   2.155  0.3005 -1.4876  0.2113
  739MOL0     H97512   6.026   0.906   2.344  0.4814  1.9196 -0.1561
  739MOL0     H97513   5.896   0.696   2.402  3.1796  1.0532 -0.0303
  739MOL0     H97514   5.488   0.577   2.579  1.6996 -0.7532 -0.2363
  739MOL0     H97515   5.476   0.752   2.553 -0.8788  0.1616 -0.2955
  739MOL0     H97516   5.629   0.797   2.741 -2.3394  0.8252  3.4010
  739MOL0     H97517   5.682   0.630   2.745  0.3897  0.3962 -1.2139
  739MOL0     H97518   5.462   0.545   2.824 -2.6993  0.4850 -2.2450
  739MOL0     H97519   5.421   0.729   2.829  0.0849 -0.7702  2.4696
  739MOL0     H97520   5.618   0.566   2.987 -0.2226  0.8747 -0.1433
  739MOL0     H97521   5.652   0.732   2.958  0.3048 -0.3031  2.1878
  739MOL0     H97522   5.385   0.640   3.069  1.5847 -2.6997 -3.2376
  739MOL0     H97523   5.446   0.804   3.084  1.7384  0.0249 -2.3411
  739MOL0     H97524   5.530   0.551   3.223 -1.4517  0.0903  0.1495
  739MOL0     H97525   5.463   0.693   3.301 -0.6286 -0.3278 -0.2601
  739MOL0     H97526   5.741   0.715   3.184 -0.7441  1.0711 -0.1637
  739MOL0     H97527   5.653   0.821   3.287 -3.1346  0.0054 -3.4167
  739MOL0     H97528   5.646   0.640   3.462 -1.1339  2.4991 -0.8882
  739MOL0     H97529   5.815   0.685   3.426 -0.3960  1.4887 -1.0254
  739MOL0     H97530   5.579   0.964   2.533 -0.6985 -0.1418 -1.7343
  739MOL0     H97531   5.703   1.148   2.445 -0.2238  0.2121 -4.5029
  739MOL0     H97532   6.159   1.277   2.331  1.2647  2.2269  2.1971
  739MOL0     H97533   6.279   1.487   2.290  0.3193  0.0207 -3.0255
  739MOL0     H97534   6.496   1.566   1.776  0.3899  0.2479 -0.6874
  739MOL0     H97535   6.276   1.462   1.810 -0.5016 -1.0338 -1.6648
  739MOL0     H97536   5.957   1.341   1.833  0.8230  0.5727 -1.9223
  739MOL0     H97537   5.838   1.151   1.946  0.6022  1.1009  0.0931
  739MOL0     H97538   5.699   0.973   2.013 -0.1210 -2.2327 -0.3236
  739MOL0     H97539   5.571   0.878   1.945 -0.0702  0.1164  0.4218
  739MOL0     H97540   5.568   1.172   1.962 -0.9601 -0.2644 -0.2658
  739MOL0     H97541   5.441   1.087   1.874 -0.2926  1.6799 -0.0022
  739MOL0     H97542   5.367   0.959   2.065 -2.5871  1.4262  0.4638
  739MOL0     H97543   5.338   1.127   2.063 -0.1739 -0.8504  0.6393
  739MOL0     H97544   5.552   0.997   2.222 -1.2777  0.1091 -0.6513
  739MOL0     H97545   5.534   1.175   2.211 -0.2679  0.8033 -0.7614
  739MOL0     H97546   5.214   1.072   2.479 -1.8896 -0.4253 -3.1671
  739MOL0     H97547   5.746   0.993   1.563 -0.4342  0.5420  1.3824
  739MOL0     H97548   5.900   1.169   1.454 -1.8880 -1.8499  0.2511
  740MOL0     O97549   9.034   9.869   3.755 -0.8293  0.0026  0.3857
  740MOL0     C97550   9.063   9.839   3.636  0.3078  0.1034 -0.7330
  740MOL0     O97551   8.965   9.791   3.544 -0.4154 -0.2058  0.0936
  740MOL0     C97552   8.848   9.759   3.609 -0.3063 -0.8350  0.2649
  740MOL0     C97553   8.727   9.827   3.600 -0.3474  0.0769 -0.5352
  740MOL0     C97554   8.610   9.784   3.661 -0.4393 -0.4130  0.5905
  740MOL0     C97555   8.599   9.667   3.742  0.0575 -0.5615 -0.1089
  740MOL0     O97556   8.488   9.631   3.802  0.3034  0.2896  0.3411
  740MOL0     C97557   8.368   9.642   3.722 -0.1075 -0.2211  0.6186
  740MOL0     C97558   8.278   9.738   3.789  0.0488 -0.7961 -0.1573
  740MOL0     C97559   8.134   9.762   3.721  0.0435  0.7670  0.5668
  740MOL0     C97560   8.051   9.639   3.708  0.6950  0.8165 -0.0707
  740MOL0     C97561   7.903   9.674   3.672  0.2372 -0.9273 -0.1917
  740MOL0     C97562   7.816   9.540   3.679 -0.5678  0.1999  0.0206
  740MOL0     C97563   7.682   9.575   3.619  0.4565 -1.5018 -0.9529
  740MOL0     C97564   7.601   9.444   3.620  0.6838  0.0822 -0.4054
  740MOL0     N97565   7.476   9.467   3.558  0.9268  0.7383 -0.4737
  740MOL0     C97566   7.437   9.462   3.426  0.3493 -0.4544  0.8363
  740MOL0     C97567   7.299   9.493   3.420 -0.1292 -0.3734 -0.1579
  740MOL0     C97568   7.230   9.491   3.293  0.1433  0.1886  0.6494
  740MOL0     C97569   7.149   9.359   3.261  0.4750  0.1161 -0.7798
  740MOL0     C97570   7.081   9.335   3.128  0.7840  0.1434  1.0394
  740MOL0     C97571   7.183   9.327   3.028  0.1366  0.3789  0.0289
  740MOL0     O97572   7.154   9.242   2.917 -0.4241 -0.2107 -0.0652
  740MOL0     C97573   7.251   9.235   2.821 -0.1907 -1.0857 -0.0569
  740MOL0     C97574   7.369   9.312   2.814  0.3800  0.0417  0.6324
  740MOL0     C97575   7.446   9.318   2.697 -0.3649  0.1448  0.6346
  740MOL0     C97576   7.413   9.222   2.596 -0.2471 -0.3069  0.3234
  740MOL0     C97577   7.507   9.214   2.481 -0.1583  0.3056  0.9771
  740MOL0     O97578   7.629   9.284   2.485  0.9593  0.0695 -0.2544
  740MOL0     C97579   7.742   9.265   2.411 -0.4553 -0.4088  0.8272
  740MOL0     C97580   7.841   9.361   2.403 -0.0368 -0.4619  0.1130
  740MOL0     C97581   7.959   9.342   2.329 -1.2723 -0.2280  0.1192
  740MOL0     C97582   7.995   9.218   2.275  0.5488  0.5527 -0.5468
  740MOL0     O97583   8.123   9.211   2.222  0.2291 -0.1154 -0.0531
  740MOL0     C97584   8.166   9.071   2.206  0.0012  0.3060  0.2697
  740MOL0     C97585   8.314   9.065   2.179 -0.9683 -0.7602 -0.8542
  740MOL0     C97586   8.348   9.154   2.058  0.3056  0.4906  0.3544
  740MOL0     C97587   8.489   9.136   2.014 -0.0445 -0.4342 -1.3399
  740MOL0     C97588   8.505   9.203   1.875 -0.3809 -0.3075  0.0818
  740MOL0     C97589   8.655   9.215   1.839 -0.0458  0.1448 -0.6969
  740MOL0     C97590   8.725   9.081   1.811 -0.2149 -0.3800 -0.6996
  740MOL0     C97591   8.877   9.093   1.794  0.3729 -0.4274 -0.0610
  740MOL0    Cl97592   8.921   9.204   1.661 -0.2390 -0.9358  0.0453
  740MOL0     C97593   7.889   9.118   2.275  0.6851  1.1450  0.0812
  740MOL0     C97594   7.774   9.140   2.346 -0.0935 -0.2488  0.1352
  740MOL0     O97595   7.475   9.138   2.393  1.0263  0.0291 -0.0275
  740MOL0     C97596   7.302   9.137   2.605  0.2178 -0.1726  0.6981
  740MOL0     C97597   7.216   9.145   2.715 -0.5999 -0.1142  0.0317
  740MOL0     N97598   7.259   9.524   3.551 -0.4997 -0.2305 -0.4140
  740MOL0     N97599   7.358   9.497   3.625 -0.1550  0.0683  0.4282
  740MOL0     C97600   8.723   9.603   3.755  0.0872  0.4491  0.6379
  740MOL0     C97601   8.845   9.648   3.691 -0.0728 -0.2138 -0.0018
  740MOL0     C97602   9.201   9.866   3.591 -0.3492 -0.4290  0.2254
  740MOL0     C97603   9.242   9.841   3.453  0.1172 -0.1073  0.2492
  740MOL0     C97604   9.369   9.874   3.409 -0.0079  0.5281 -0.9481
  740MOL0     C97605   9.462   9.924   3.499  0.1455  0.8810 -0.3724
  740MOL0     O97606   9.582   9.956   3.444 -0.3530  0.4702  0.4444
  740MOL0     C97607   9.676  10.037   3.510 -0.8109  0.6506  0.5629
  740MOL0     C97608   9.779  10.069   3.399  0.0048  0.2192  0.2938
  740MOL0     C97609   9.844   9.959   3.310  0.3038 -0.1358  0.5969
  740MOL0     C97610   9.906   9.837   3.375  0.5992  0.4443  0.3102
  740MOL0     C97611  10.012   9.891   3.461 -0.0752  0.0572  0.0471
  740MOL0     C97612  10.106   9.949   3.519  0.6490  0.3827  0.1401
  740MOL0     C97613   9.420   9.947   3.632  0.4339 -0.8575  0.9669
  740MOL0     C97614   9.291   9.913   3.685 -0.7654 -0.3397 -0.3534
  740MOL0     H97615   8.733   9.918   3.541 -0.8913  1.9205  2.1062
  740MOL0     H97616   8.529   9.853   3.638 -0.9713  1.0678  5.6668
  740MOL0     H97617   8.307   9.551   3.731 -2.4782  1.4537  3.5067
  740MOL0     H97618   8.378   9.679   3.620 -2.6963  0.4332  0.5181
  740MOL0     H97619   8.328   9.835   3.784  0.6466 -1.0195  1.1327
  740MOL0     H97620   8.254   9.715   3.894  1.8069 -1.7746  0.0677
  740MOL0     H97621   8.159   9.799   3.621  0.8233  0.6470  0.7102
  740MOL0     H97622   8.084   9.844   3.774  0.6427  1.5385 -0.0343
  740MOL0     H97623   8.091   9.575   3.628 -0.2388  0.3718 -0.2039
  740MOL0     H97624   8.053   9.579   3.800 -0.3711  1.7667  0.6023
  740MOL0     H97625   7.906   9.712   3.569  0.9089  0.6769  0.3885
  740MOL0     H97626   7.861   9.750   3.738 -0.7341  0.2775 -2.0962
  740MOL0     H97627   7.817   9.504   3.782 -0.7621  1.7010  0.5745
  740MOL0     H97628   7.862   9.458   3.624  1.4377  0.0296  1.8401
  740MOL0     H97629   7.622   9.655   3.664  0.8755 -1.2283 -0.8704
  740MOL0     H97630   7.692   9.604   3.514 -1.6308  1.5003 -0.4775
  740MOL0     H97631   7.583   9.412   3.723 -0.4918  0.4093 -0.4976
  740MOL0     H97632   7.670   9.368   3.581  2.8754  0.1632  2.8904
  740MOL0     H97633   7.508   9.437   3.348 -0.1332 -1.9161  0.8360
  740MOL0     H97634   7.311   9.496   3.220 -0.2576 -1.0507  0.0907
  740MOL0     H97635   7.165   9.578   3.282 -0.3946 -0.4590 -1.6983
  740MOL0     H97636   7.068   9.341   3.332 -1.3087  1.3819 -2.3820
  740MOL0     H97637   7.216   9.273   3.274 -2.1973 -2.2660 -1.6044
  740MOL0     H97638   7.027   9.240   3.126  1.4616 -0.2808 -1.5184
  740MOL0     H97639   7.006   9.408   3.095 -0.4048 -1.8164 -0.8170
  740MOL0     H97640   7.277   9.285   3.064  0.3549  1.1795  0.4344
  740MOL0     H97641   7.192   9.425   2.981 -0.2669  0.8858  0.9628
  740MOL0     H97642   7.405   9.373   2.896 -0.2660 -1.3934  2.0462
  740MOL0     H97643   7.520   9.396   2.685 -2.9524  2.7125  0.3303
  740MOL0     H97644   7.825   9.452   2.462 -1.0175 -0.4976 -0.0779
  740MOL0     H97645   8.030   9.423   2.341 -1.0701 -0.7274  3.1377
  740MOL0     H97646   8.116   9.024   2.121 -2.3736  0.0209  1.7087
  740MOL0     H97647   8.135   9.008   2.291  1.9198 -2.0178 -0.6262
  740MOL0     H97648   8.340   8.959   2.166  2.5788 -0.1146 -0.0471
  740MOL0     H97649   8.372   9.099   2.265 -0.7242 -3.6733  0.2558
  740MOL0     H97650   8.339   9.258   2.093 -1.7343  0.4525  0.0548
  740MOL0     H97651   8.284   9.133   1.972 -0.5165  0.4437  0.9675
  740MOL0     H97652   8.554   9.181   2.089  1.5428 -2.8688 -1.1498
  740MOL0     H97653   8.510   9.029   2.008 -0.0440 -0.4634 -0.8367
  740MOL0     H97654   8.450   9.298   1.874 -0.5828 -0.4005  1.3345
  740MOL0     H97655   8.444   9.143   1.807 -1.5221 -1.1432  1.7892
  740MOL0     H97656   8.704   9.272   1.918  1.3529 -0.5188 -1.0648
  740MOL0     H97657   8.653   9.266   1.742 -1.2951 -1.0121 -1.3018
  740MOL0     H97658   8.711   9.015   1.897  0.6766 -0.2019 -0.4095
  740MOL0     H97659   8.674   9.029   1.730 -0.9585  0.5620 -0.8535
  740MOL0     H97660   8.924   8.994   1.797  0.2112 -0.5438 -1.0058
  740MOL0     H97661   8.912   9.145   1.884 -0.4641  0.1877 -0.0870
  740MOL0     H97662   7.916   9.022   2.231  0.6683  0.1698  2.0931
  740MOL0     H97663   7.710   9.052   2.343  0.0433 -0.6751  4.1302
  740MOL0     H97664   7.273   9.071   2.524 -0.5964  1.5270 -0.4744
  740MOL0     H97665   7.128   9.082   2.724 -1.2798  0.9049  0.6775
  740MOL0     H97666   8.733   9.514   3.816 -0.7701  1.2767  2.0333
  740MOL0     H97667   8.937   9.593   3.709  2.0768  2.5908 -1.5934
  740MOL0     H97668   9.168   9.816   3.378 -0.4251 -4.1379  1.8616
  740MOL0     H97669   9.403   9.873   3.306  1.5844 -0.6285 -0.4555
  740MOL0     H97670   9.718   9.985   3.595 -1.6602  2.6633  2.3144
  740MOL0     H97671   9.630  10.133   3.537  2.5365  3.1639 -1.6848
  740MOL0     H97672   9.737  10.134   3.322  2.3523 -1.6005 -2.7400
  740MOL0     H97673   9.849  10.131   3.455 -2.4205  2.9517  0.5057
  740MOL0     H97674   9.921  10.012   3.253 -0.4749 -0.3995 -0.7633
  740MOL0     H97675   9.771   9.925   3.236 -1.1283  0.9280  1.5004
  740MOL0     H97676   9.829   9.797   3.442 -0.2368  4.6677  2.2090
  740MOL0     H97677   9.951   9.760   3.311 -0.7945 -1.6307  1.6941
  740MOL0     H97678  10.182   9.993   3.580 -1.9279  0.9471  3.1899
  740MOL0     H97679   9.483  10.006   3.698 -0.4351  0.0589  1.0147
  740MOL0     H97680   9.277   9.938   3.790 -3.2783  2.8400 -1.2892
  741MOL0     O97681   2.003   2.333   8.208 -0.7936  0.8291  0.1131
  741MOL0     C97682   2.054   2.418   8.135  0.0361  1.2772 -0.0950
  741MOL0     O97683   2.184   2.440   8.118 -0.7557  0.3468  0.2330
  741MOL0     C97684   2.282   2.392   8.210  0.3151 -0.5838  0.0643
  741MOL0     C97685   2.309   2.259   8.237 -0.2307 -0.6605  0.1474
  741MOL0     C97686   2.413   2.227   8.317 -0.1422  0.0558 -1.2635
  741MOL0     C97687   2.497   2.321   8.373  0.2588 -0.4628  0.2131
  741MOL0     O97688   2.623   2.307   8.431 -0.0425 -0.0389  0.1428
  741MOL0     C97689   2.649   2.217   8.541 -0.1104  0.9360 -0.6100
  741MOL0     C97690   2.656   2.277   8.676 -0.6831  0.8439 -0.0535
  741MOL0     C97691   2.700   2.162   8.774 -0.3200 -0.4040  0.3272
  741MOL0     C97692   2.704   2.197   8.913 -0.1904 -0.6766 -0.4458
  741MOL0     C97693   2.577   2.158   8.982 -0.2349 -0.2112  0.5030
  741MOL0     C97694   2.596   2.158   9.132  0.1872  0.4495 -1.6761
  741MOL0     C97695   2.475   2.100   9.212  0.3117 -0.2909  1.0535
  741MOL0     C97696   2.475   1.955   9.240  0.2356  0.2428 -0.6007
  741MOL0     N97697   2.347   1.908   9.297 -0.1398  1.2919 -0.3275
  741MOL0     C97698   2.284   1.952   9.411  0.1879  0.1952 -0.5439
  741MOL0     C97699   2.173   1.881   9.420 -0.1165  0.4148 -0.7809
  741MOL0     C97700   2.085   1.879   9.541  1.0103  0.9830  0.3667
  741MOL0     C97701   1.937   1.856   9.500  0.3456 -1.1334 -0.3859
  741MOL0     C97702   1.920   1.707   9.457 -0.0355 -0.5020 -0.2032
  741MOL0     C97703   1.775   1.669   9.477 -0.1002  0.0016  0.3037
  741MOL0     O97704   1.691   1.739   9.388  1.0171 -0.2814 -0.6850
  741MOL0     C97705   1.555   1.749   9.422  0.0957  1.3108  0.3139
  741MOL0     C97706   1.488   1.672   9.516 -0.3406 -0.7187 -0.0184
  741MOL0     C97707   1.351   1.683   9.538 -0.5263  0.1456 -0.4747
  741MOL0     C97708   1.275   1.771   9.455 -0.2677  0.3314  0.6553
  741MOL0     C97709   1.126   1.772   9.468 -0.5009  0.9054 -0.6192
  741MOL0     O97710   1.080   1.715   9.590 -0.4951  1.2205  0.1521
  741MOL0     C97711   0.948   1.749   9.626  0.8979 -0.0161  0.3415
  741MOL0     C97712   0.929   1.858   9.715  0.0955 -0.3808  0.4015
  741MOL0     C97713   0.796   1.902   9.728 -0.0373 -0.0870  0.7655
  741MOL0     C97714   0.689   1.831   9.684 -0.3155  0.3370  0.6769
  741MOL0     O97715   0.555   1.871   9.707 -0.0451  0.1931  0.8281
  741MOL0     C97716   0.449   1.806   9.632 -0.0779 -0.3034 -0.0690
  741MOL0     C97717   0.312   1.883   9.666 -1.4719  0.7312  1.2488
  741MOL0     C97718   0.322   2.038   9.673 -0.8744  0.1259 -1.1079
  741MOL0     C97719   0.179   2.084   9.681 -0.7341  0.2196 -0.1448
  741MOL0     C97720   0.164   2.234   9.704 -0.4505 -0.8658 -0.4190
  741MOL0     C97721   0.012   2.275   9.726 -0.1526 -0.5588  0.0115
  741MOL0     C97722  -0.046   2.200   9.852 -0.5299  0.0372 -0.2592
  741MOL0     C97723  -0.168   2.274   9.909  0.1562  0.1388  0.1633
  741MOL0    Cl97724  -0.243   2.184  10.055 -0.5179 -0.0602  0.1468
  741MOL0     C97725   0.714   1.710   9.611  0.1829  0.0128 -0.4305
  741MOL0     C97726   0.844   1.673   9.585 -0.2570  0.1535  0.2783
  741MOL0     O97727   1.055   1.835   9.382  0.4827  0.3121  0.0080
  741MOL0     C97728   1.340   1.844   9.358  0.1256  0.2005  0.1013
  741MOL0     C97729   1.478   1.831   9.343 -0.5579  0.5780 -0.6424
  741MOL0     N97730   2.175   1.787   9.316  0.5714 -0.2682 -0.0433
  741MOL0     N97731   2.272   1.805   9.238  0.7354 -0.1421  0.4088
  741MOL0     C97732   2.484   2.451   8.329  0.3028 -0.3380 -1.2404
  741MOL0     C97733   2.378   2.492   8.246 -0.2248 -0.0855 -0.2419
  741MOL0     C97734   1.957   2.495   8.047 -0.0041  0.0024 -0.9246
  741MOL0     C97735   1.821   2.529   8.080  0.4452  0.1808  0.7826
  741MOL0     C97736   1.744   2.624   8.009  0.3692 -0.3702  0.3672
  741MOL0     C97737   1.788   2.662   7.884  0.5876  0.1820  0.1226
  741MOL0     O97738   1.711   2.754   7.817 -0.1330 -0.3594  0.0575
  741MOL0     C97739   1.639   2.692   7.716 -0.0878 -0.2702 -0.4487
  741MOL0     C97740   1.669   2.760   7.584 -0.7916  0.0809  0.3191
  741MOL0     C97741   1.571   2.714   7.469 -1.3619 -0.4926  0.2179
  741MOL0     C97742   1.586   2.798   7.339  0.2634  0.6309  0.5315
  741MOL0     C97743   1.711   2.793   7.269 -1.3325 -0.0000 -0.7511
  741MOL0     C97744   1.825   2.762   7.233  0.5419  0.5207  0.4411
  741MOL0     C97745   1.921   2.631   7.839 -0.2067 -0.1684 -0.2370
  741MOL0     C97746   2.002   2.555   7.924  0.4826  0.9202 -0.0433
  741MOL0     H97747   2.251   2.188   8.178 -3.2754  1.5755  0.1858
  741MOL0     H97748   2.444   2.126   8.340 -0.2457  0.6235  1.8792
  741MOL0     H97749   2.745   2.168   8.521 -0.0658  0.1068  1.4309
  741MOL0     H97750   2.569   2.143   8.545  0.2837  0.5569  1.3142
  741MOL0     H97751   2.558   2.315   8.707 -2.0928 -0.4673 -2.5303
  741MOL0     H97752   2.725   2.361   8.668 -0.3294  0.4855 -0.8895
  741MOL0     H97753   2.798   2.123   8.743 -1.3087 -0.9165 -2.4274
  741MOL0     H97754   2.622   2.087   8.760 -2.8496  1.2136  4.1184
  741MOL0     H97755   2.788   2.142   8.956 -0.3296 -0.9019 -0.4616
  741MOL0     H97756   2.718   2.304   8.932 -3.1068 -0.0184 -1.4852
  741MOL0     H97757   2.541   2.067   8.932  0.7833 -0.0635 -0.5377
  741MOL0     H97758   2.504   2.239   8.974  0.0246 -0.1514 -2.5544
  741MOL0     H97759   2.597   2.261   9.169 -1.4979 -0.5775  1.5749
  741MOL0     H97760   2.692   2.113   9.157  0.7168  2.4027  0.1164
  741MOL0     H97761   2.462   2.139   9.313 -0.8300 -0.4440  0.9813
  741MOL0     H97762   2.388   2.121   9.149  0.4272 -2.9066 -0.1229
  741MOL0     H97763   2.561   1.936   9.305  0.7448 -0.6799 -1.5068
  741MOL0     H97764   2.491   1.901   9.146  0.3753 -1.6631  0.4893
  741MOL0     H97765   2.316   2.033   9.477  0.8640 -1.9253  1.8928
  741MOL0     H97766   2.096   1.963   9.610 -0.3554  2.3386 -0.9707
  741MOL0     H97767   2.113   1.790   9.598 -0.3482 -0.4836 -1.1355
  741MOL0     H97768   1.921   1.925   9.417  2.0216  0.1442  0.3035
  741MOL0     H97769   1.865   1.881   9.579  0.3995 -0.9235 -0.4045
  741MOL0     H97770   1.929   1.701   9.348 -1.5366 -0.6332 -0.3474
  741MOL0     H97771   1.993   1.638   9.500 -0.5408 -0.7123  0.3274
  741MOL0     H97772   1.746   1.676   9.582 -3.2738 -1.0358 -0.3672
  741MOL0     H97773   1.751   1.565   9.451 -2.5736  0.8578 -1.2130
  741MOL0     H97774   1.543   1.602   9.578  0.5440  1.2737  1.5442
  741MOL0     H97775   1.297   1.624   9.611 -0.5635  0.1437 -0.5032
  741MOL0     H97776   1.009   1.912   9.764  0.7730 -1.9557  1.0956
  741MOL0     H97777   0.780   2.000   9.772 -1.4058  0.2245 -0.3501
  741MOL0     H97778   0.438   1.706   9.675  2.5851 -1.2563 -1.3557
  741MOL0     H97779   0.464   1.798   9.524  0.2901 -1.7151  0.0613
  741MOL0     H97780   0.283   1.824   9.753 -0.9732 -2.3965 -0.5614
  741MOL0     H97781   0.245   1.851   9.585  0.9105  0.6635 -0.8249
  741MOL0     H97782   0.371   2.085   9.586 -0.5871  2.4574  0.2156
  741MOL0     H97783   0.387   2.061   9.758 -1.4420  0.6867 -0.8190
  741MOL0     H97784   0.124   2.066   9.588  0.7832  1.3360 -1.3123
  741MOL0     H97785   0.143   2.026   9.766 -0.1623 -0.6646 -0.4881
  741MOL0     H97786   0.210   2.285   9.619 -3.3602 -0.2117 -1.7342
  741MOL0     H97787   0.221   2.260   9.794 -1.4072  3.0239 -0.7524
  741MOL0     H97788  -0.030   2.257   9.627  0.4686 -2.1048 -0.0016
  741MOL0     H97789   0.016   2.381   9.753  0.3455 -0.8848  1.3235
  741MOL0     H97790  -0.074   2.095   9.838  0.4437 -0.6896  2.5014
  741MOL0     H97791   0.037   2.205   9.924  2.5425  0.5335 -3.5460
  741MOL0     H97792  -0.243   2.272   9.829  1.0505 -1.5913 -0.6759
  741MOL0     H97793  -0.142   2.380   9.922  1.6669 -0.0491 -1.0199
  741MOL0     H97794   0.636   1.641   9.582 -0.1037 -0.7347  1.9344
  741MOL0     H97795   0.869   1.587   9.523  3.9572  0.3757  1.3714
  741MOL0     H97796   1.292   1.904   9.281 -1.1085  0.2583  0.9063
  741MOL0     H97797   1.536   1.879   9.264 -0.4225 -0.5211 -1.2350
  741MOL0     H97798   2.561   2.526   8.344  0.2149 -0.3415 -0.7499
  741MOL0     H97799   2.371   2.586   8.192  2.0285 -0.3949 -1.1554
  741MOL0     H97800   1.776   2.487   8.169 -1.2171 -0.2548 -0.2278
  741MOL0     H97801   1.652   2.670   8.043 -0.2476  0.5772 -2.3473
  741MOL0     H97802   1.534   2.711   7.744 -0.1609 -1.4414  0.1448
  741MOL0     H97803   1.643   2.585   7.695 -0.2634 -0.4766  0.4929
  741MOL0     H97804   1.641   2.866   7.589  0.3444  0.4249 -0.2898
  741MOL0     H97805   1.773   2.745   7.552 -1.5627 -2.7751 -1.2300
  741MOL0     H97806   1.471   2.735   7.509 -0.7765  1.9540  0.5811
  741MOL0     H97807   1.576   2.609   7.441  0.3602 -0.0137 -1.5004
  741MOL0     H97808   1.516   2.752   7.268  0.5412 -1.5143  1.5858
  741MOL0     H97809   1.561   2.903   7.359  0.9822  0.8966  0.0676
  741MOL0     H97810   1.908   2.714   7.185 -0.9989 -0.3357 -1.5142
  741MOL0     H97811   1.967   2.682   7.756 -0.6435 -0.0297 -0.3969
  741MOL0     H97812   2.110   2.556   7.914  0.6373 -0.0989  1.2570
  742MOL0     O97813   4.261   0.815   7.905  0.1577 -0.4390 -0.5644
  742MOL0     C97814   4.246   0.865   7.794  0.6748  0.4794 -0.0647
  742MOL0     O97815   4.121   0.860   7.722 -0.3044  0.5782  0.1452
  742MOL0     C97816   4.010   0.801   7.789  0.1229  0.7616 -0.6181
  742MOL0     C97817   4.006   0.684   7.872 -0.5640 -0.5419 -0.4923
  742MOL0     C97818   3.893   0.639   7.936 -0.1120 -0.1287  0.1398
  742MOL0     C97819   3.775   0.699   7.911  0.5645 -0.1167  0.3725
  742MOL0     O97820   3.655   0.647   7.970  0.1296 -0.4531 -0.4135
  742MOL0     C97821   3.531   0.670   7.904 -0.8397  0.6690  0.3186
  742MOL0     C97822   3.417   0.609   7.982  0.1264  0.6425 -0.2598
  742MOL0     C97823   3.268   0.642   7.930 -0.3727  0.1486  0.0447
  742MOL0     C97824   3.149   0.571   8.004 -1.2302 -0.5455  0.5872
  742MOL0     C97825   3.128   0.602   8.150  0.4844  0.1408 -0.3980
  742MOL0     C97826   3.013   0.524   8.226 -0.3393  0.3147  0.0347
  742MOL0     C97827   3.010   0.551   8.373  0.6769  0.8522  0.2489
  742MOL0     C97828   2.924   0.438   8.436 -0.5008 -0.2466  0.4257
  742MOL0     N97829   2.779   0.457   8.405 -0.9431 -0.1332 -0.5665
  742MOL0     C97830   2.705   0.388   8.314 -0.8290  0.4128  0.7396
  742MOL0     C97831   2.576   0.428   8.339  0.6069 -0.2833 -0.1136
  742MOL0     C97832   2.446   0.395   8.264  0.3425  0.2101  0.5267
  742MOL0     C97833   2.460   0.423   8.106  0.4814 -0.1003  0.6823
  742MOL0     C97834   2.326   0.447   8.036  1.2451  0.7127  0.2678
  742MOL0     C97835   2.271   0.574   8.084  0.6033 -0.1990  1.5982
  742MOL0     O97836   2.152   0.615   8.009 -0.0748 -0.4373 -0.0054
  742MOL0     C97837   2.034   0.541   8.035 -1.1975  0.9550 -0.2688
  742MOL0     C97838   2.009   0.455   8.147  0.2713 -0.1837  0.4048
  742MOL0     C97839   1.888   0.389   8.163 -0.5150 -0.9159 -1.3856
  742MOL0     C97840   1.784   0.408   8.074  0.0184 -0.3230 -0.2818
  742MOL0     C97841   1.644   0.348   8.092  0.1200 -0.4315 -0.0345
  742MOL0     O97842   1.546   0.388   8.012 -0.0954 -0.2876  0.0363
  742MOL0     C97843   1.427   0.321   8.004 -0.4727  0.1460  0.5706
  742MOL0     C97844   1.390   0.279   7.880  0.3354 -0.0806 -0.1008
  742MOL0     C97845   1.280   0.208   7.851  0.5313  0.9807  0.1214
  742MOL0     C97846   1.195   0.166   7.964  0.5170  0.3078  1.0281
  742MOL0     O97847   1.076   0.101   7.920 -1.4736 -0.2701  0.4790
  742MOL0     C97848   0.991   0.055   8.024 -0.4848 -0.2154  0.7505
  742MOL0     C97849   0.852   0.015   7.977  0.5289 -0.1348  0.5337
  742MOL0     C97850   0.753  -0.021   8.096 -0.2213 -1.9803  0.3224
  742MOL0     C97851   0.609   0.003   8.034 -0.8655 -0.1425 -0.2685
  742MOL0     C97852   0.500  -0.006   8.138  0.0568  0.0837  0.3181
  742MOL0     C97853   0.364  -0.036   8.068  0.3645  0.2202  0.2744
  742MOL0     C97854   0.239  -0.029   8.165 -0.7499  0.8786 -0.6873
  742MOL0     C97855   0.107  -0.074   8.104  0.2478 -0.8779  0.4612
  742MOL0    Cl97856  -0.041  -0.053   8.204  0.0304  0.2709 -0.2958
  742MOL0     C97857   1.230   0.211   8.094 -1.2073  0.5322  0.1471
  742MOL0     C97858   1.344   0.286   8.112 -0.5497 -0.6324  0.0138
  742MOL0     O97859   1.638   0.262   8.177  0.9612  0.0594  0.3747
  742MOL0     C97860   1.808   0.488   7.964 -0.1487  0.1376  0.3549
  742MOL0     C97861   1.932   0.555   7.946 -0.2417  0.1303 -0.3147
  742MOL0     N97862   2.580   0.522   8.445 -0.7514  0.0247  1.2495
  742MOL0     N97863   2.702   0.539   8.479  0.3952  0.1083  0.1078
  742MOL0     C97864   3.773   0.808   7.814  0.2785  0.6748 -0.0288
  742MOL0     C97865   3.885   0.862   7.761 -0.4356  0.1612 -0.3059
  742MOL0     C97866   4.363   0.930   7.731  0.1340  0.6651  0.7321
  742MOL0     C97867   4.464   0.997   7.806 -0.2255  1.2867 -0.4903
  742MOL0     C97868   4.588   1.046   7.763  0.3715 -0.0826  0.0517
  742MOL0     C97869   4.612   1.031   7.626  0.8647 -0.2221 -0.8271
  742MOL0     O97870   4.723   1.087   7.588 -0.5695  0.7154  0.1476
  742MOL0     C97871   4.775   1.065   7.460 -0.2953 -0.2624  0.1319
  742MOL0     C97872   4.915   1.129   7.442 -0.1666  0.0856  0.8527
  742MOL0     C97873   4.987   1.100   7.303  0.3071  0.4109  0.6567
  742MOL0     C97874   4.928   1.174   7.175  0.1715  0.6591 -0.0660
  742MOL0     C97875   4.960   1.107   7.048 -0.9259  0.7880 -0.3975
  742MOL0     C97876   4.972   1.058   6.944 -0.5463  0.4651 -0.0564
  742MOL0     C97877   4.524   0.965   7.543  1.6884  0.4982  0.1348
  742MOL0     C97878   4.400   0.909   7.598  0.1159 -0.0829  0.5329
  742MOL0     H97879   4.096   0.623   7.877 -0.5437 -0.4643  0.1192
  742MOL0     H97880   3.878   0.547   7.990 -2.3154  0.4520  0.6195
  742MOL0     H97881   3.530   0.631   7.802 -3.7744 -0.0131  0.5259
  742MOL0     H97882   3.509   0.777   7.900 -1.5611  0.4849 -1.1353
  742MOL0     H97883   3.418   0.647   8.085 -0.1453  2.5161 -0.9040
  742MOL0     H97884   3.430   0.501   7.981 -1.5672  0.4197 -1.0905
  742MOL0     H97885   3.260   0.618   7.824 -1.3428  1.7478 -0.2679
  742MOL0     H97886   3.250   0.749   7.945 -0.0898  0.3379 -0.9320
  742MOL0     H97887   3.066   0.606   7.943  1.0772  1.2943 -1.7791
  742MOL0     H97888   3.151   0.463   7.987 -3.0599 -0.6217  0.7078
  742MOL0     H97889   3.112   0.710   8.159 -1.3669 -0.2461  1.9560
  742MOL0     H97890   3.224   0.577   8.196 -0.7493 -0.5627  1.9533
  742MOL0     H97891   3.019   0.415   8.217 -1.6404 -0.0325  2.5630
  742MOL0     H97892   2.921   0.557   8.176  0.5845  0.5833 -1.5784
  742MOL0     H97893   3.110   0.539   8.417  0.8623 -2.2162 -0.7579
  742MOL0     H97894   2.968   0.649   8.398 -2.0403 -0.1764  0.0519
  742MOL0     H97895   2.940   0.430   8.544  1.3192  1.4939  0.3441
  742MOL0     H97896   2.961   0.341   8.400  1.2164 -0.0090  1.4563
  742MOL0     H97897   2.734   0.319   8.236  3.2531  4.2713 -1.6680
  742MOL0     H97898   2.361   0.444   8.313  0.6662 -1.3824  2.8257
  742MOL0     H97899   2.422   0.289   8.277 -0.6457  0.3311 -0.1839
  742MOL0     H97900   2.523   0.343   8.067  3.1328  3.3357 -2.8022
  742MOL0     H97901   2.525   0.511   8.094  2.1920 -0.9984  2.7036
  742MOL0     H97902   2.356   0.452   7.931 -0.1476 -2.0472 -0.3661
  742MOL0     H97903   2.257   0.362   8.043  2.3421 -0.2626 -0.3880
  742MOL0     H97904   2.345   0.652   8.066  0.5700 -0.3173  0.8949
  742MOL0     H97905   2.255   0.568   8.192  0.4837 -2.5529  1.5006
  742MOL0     H97906   2.084   0.454   8.225  0.8553 -1.2754 -0.1510
  742MOL0     H97907   1.866   0.328   8.249  1.4682  1.0102  0.6288
  742MOL0     H97908   1.454   0.318   7.802  1.6914 -0.1903  0.9249
  742MOL0     H97909   1.262   0.178   7.749  0.9411  2.6768 -0.4830
  742MOL0     H97910   0.977   0.144   8.086 -0.7775 -0.8568  1.6205
  742MOL0     H97911   1.032  -0.024   8.088 -1.1651 -0.5619  0.7759
  742MOL0     H97912   0.855  -0.074   7.915  0.7187 -1.1213  1.9131
  742MOL0     H97913   0.822   0.099   7.914 -1.4665  0.7663  2.5063
  742MOL0     H97914   0.772   0.042   8.183  0.4985 -2.7353  0.7220
  742MOL0     H97915   0.767  -0.126   8.125 -0.9258 -2.3973 -0.7649
  742MOL0     H97916   0.606   0.101   7.986  1.4681  0.3411  0.4380
  742MOL0     H97917   0.585  -0.071   7.957  0.3978 -0.1327 -0.6893
  742MOL0     H97918   0.491   0.088   8.193 -1.9414  2.6089 -3.8240
  742MOL0     H97919   0.518  -0.097   8.196  0.0429 -1.6230 -2.2075
  742MOL0     H97920   0.361  -0.126   8.006  0.3600  1.6429 -1.8917
  742MOL0     H97921   0.340   0.037   7.991 -2.1742 -1.2428 -0.4625
  742MOL0     H97922   0.256  -0.100   8.246 -0.9754 -1.4055 -2.5155
  742MOL0     H97923   0.240   0.075   8.198 -1.0726  0.2029  1.5772
  742MOL0     H97924   0.113  -0.183   8.089 -1.2242 -1.3813  2.8898
  742MOL0     H97925   0.081  -0.039   8.004 -3.2607 -1.4164  1.0557
  742MOL0     H97926   1.171   0.173   8.177  0.4927 -2.6796  0.0554
  742MOL0     H97927   1.388   0.312   8.207  0.3918 -1.3781 -0.2023
  742MOL0     H97928   1.739   0.504   7.881  0.9122 -2.2463 -1.0935
  742MOL0     H97929   1.932   0.620   7.859 -0.5219  1.6525  0.7800
  742MOL0     H97930   3.676   0.850   7.788  0.4236  2.6957  2.3538
  742MOL0     H97931   3.876   0.951   7.700 -1.3640  1.0319  1.0505
  742MOL0     H97932   4.455   0.986   7.913  3.0815 -5.7825 -0.4244
  742MOL0     H97933   4.660   1.100   7.823  1.6689  0.5679 -2.0072
  742MOL0     H97934   4.716   1.097   7.374  1.9973  0.2344 -1.3380
  742MOL0     H97935   4.789   0.957   7.456  1.0155 -0.0807 -2.6150
  742MOL0     H97936   4.912   1.235   7.468 -0.5874 -0.1096  1.6376
  742MOL0     H97937   4.985   1.075   7.507 -0.3477 -0.2845  0.7437
  742MOL0     H97938   4.983   0.991   7.291  2.4738  0.3654 -0.0220
  742MOL0     H97939   5.087   1.132   7.331 -0.3202  0.5374  3.0224
  742MOL0     H97940   4.818   1.178   7.179  0.2417  2.8928  1.1856
  742MOL0     H97941   4.960   1.278   7.183 -3.3167  1.9274 -0.6728
  742MOL0     H97942   4.983   1.019   6.845 -0.7649  2.7352 -1.0231
  742MOL0     H97943   4.546   0.959   7.437  0.9652  1.0777 -0.0538
  742MOL0     H97944   4.335   0.854   7.531 -0.6146 -1.1231  2.0419
  743MOL0     O97945   2.649   8.723   2.465 -0.2385  0.5772  0.8282
  743MOL0     C97946   2.672   8.832   2.412  0.4377 -0.5136  0.4492
  743MOL0     O97947   2.576   8.931   2.378  0.0207 -0.3357 -0.1699
  743MOL0     C97948   2.445   8.914   2.423 -0.2402 -0.4990  0.7425
  743MOL0     C97949   2.348   8.970   2.336 -0.1110 -0.5082 -0.4869
  743MOL0     C97950   2.212   8.968   2.366 -0.8532  0.3871 -0.3933
  743MOL0     C97951   2.173   8.911   2.483  0.0187  1.2131  0.5968
  743MOL0     O97952   2.047   8.918   2.532  1.0036 -0.4824  0.0986
  743MOL0     C97953   1.946   8.930   2.434 -0.2933 -0.4748  0.3535
  743MOL0     C97954   1.813   8.872   2.491 -0.4418  0.1271  0.4468
  743MOL0     C97955   1.752   8.963   2.599 -0.9129 -0.1203  0.1681
  743MOL0     C97956   1.640   8.893   2.680 -0.0679 -0.0260  0.7478
  743MOL0     C97957   1.539   9.003   2.735 -0.0767  0.0945  0.4965
  743MOL0     C97958   1.593   9.084   2.852  0.0824 -0.7431  0.1098
  743MOL0     C97959   1.502   9.204   2.888 -0.4533  0.1979  0.9410
  743MOL0     C97960   1.499   9.234   3.036 -0.1560  0.0449  0.1917
  743MOL0     N97961   1.633   9.246   3.103  0.3449  0.0780 -0.4588
  743MOL0     C97962   1.729   9.344   3.063  0.4878  0.2525  0.0605
  743MOL0     C97963   1.844   9.324   3.142 -0.0783  0.5924  0.1337
  743MOL0     C97964   1.961   9.423   3.149  0.3485 -0.8821 -0.0068
  743MOL0     C97965   1.901   9.556   3.201  0.2399 -0.8883 -0.0958
  743MOL0     C97966   1.999   9.675   3.192  0.6559 -0.1208 -0.2616
  743MOL0     C97967   2.130   9.641   3.253  0.0055 -0.0057  0.8257
  743MOL0     O97968   2.211   9.759   3.273  0.1260  0.2517 -0.2335
  743MOL0     C97969   2.347   9.731   3.285  0.1674 -1.1940 -0.5959
  743MOL0     C97970   2.408   9.610   3.305 -0.9684  0.4415 -0.5375
  743MOL0     C97971   2.548   9.596   3.312  0.2261 -0.9480  0.1832
  743MOL0     C97972   2.624   9.713   3.301 -1.2293  0.7070 -0.7026
  743MOL0     C97973   2.770   9.702   3.314  0.2652  0.5175 -1.0662
  743MOL0     O97974   2.836   9.817   3.295  0.0237 -0.3986  0.1781
  743MOL0     C97975   2.972   9.811   3.326  0.3302 -0.2938 -0.1299
  743MOL0     C97976   3.020   9.779   3.451 -0.2977 -0.1028 -0.1184
  743MOL0     C97977   3.159   9.767   3.470 -0.3551  0.2714  0.2723
  743MOL0     C97978   3.257   9.808   3.378 -0.1870 -0.1131  0.7833
  743MOL0     O97979   3.395   9.811   3.388 -0.1186  0.1301 -0.0544
  743MOL0     C97980   3.445   9.774   3.519 -0.7395 -0.4557 -0.8072
  743MOL0     C97981   3.457   9.907   3.603 -0.2636  0.7008 -0.7094
  743MOL0     C97982   3.539  10.011   3.537 -0.3721 -0.1213 -0.1010
  743MOL0     C97983   3.678   9.964   3.482  0.7078 -0.5938 -0.3524
  743MOL0     C97984   3.784  10.076   3.454  0.0729 -0.4172 -0.4592
  743MOL0     C97985   3.903  10.034   3.382 -0.9022  0.2270  0.9756
  743MOL0     C97986   3.873  10.005   3.237  0.1734 -0.7120  0.5105
  743MOL0     C97987   3.999   9.951   3.165  0.1203  0.7191 -0.8473
  743MOL0    Cl97988   4.133  10.057   3.189 -0.2621 -0.1175 -0.1588
  743MOL0     C97989   3.210   9.851   3.252  0.6069 -0.7562 -1.1539
  743MOL0     C97990   3.073   9.843   3.227  0.4121  0.4456 -0.9537
  743MOL0     O97991   2.821   9.589   3.340  0.2451  0.7152  0.2155
  743MOL0     C97992   2.569   9.830   3.274  0.7599  0.9641  0.7352
  743MOL0     C97993   2.432   9.835   3.271 -0.5538 -0.1173 -0.2967
  743MOL0     N97994   1.817   9.211   3.224 -0.7328 -0.6104 -1.1793
  743MOL0     N97995   1.697   9.168   3.193  1.0793  0.0881 -0.1631
  743MOL0     C97996   2.270   8.858   2.570  0.1829  0.8987  0.0133
  743MOL0     C97997   2.402   8.866   2.546  0.5021 -0.6498  0.0168
  743MOL0     C97998   2.814   8.865   2.398  0.5470 -0.4541 -0.1592
  743MOL0     C97999   2.917   8.791   2.461  0.4123  0.2109  0.9319
  743MOL0     C98000   3.051   8.833   2.449 -0.3314 -0.2107 -0.3682
  743MOL0     C98001   3.092   8.957   2.383  0.1553  0.6790 -0.8465
  743MOL0     O98002   3.227   8.988   2.390 -0.0277 -0.0342  0.7916
  743MOL0     C98003   3.284   9.093   2.314 -0.1592 -0.4306 -0.0366
  743MOL0     C98004   3.414   9.120   2.386  0.0691  0.7838 -0.2963
  743MOL0     C98005   3.502   8.990   2.404 -0.7831  0.1676  0.8815
  743MOL0     C98006   3.635   9.030   2.488  0.3109 -0.3624  0.0049
  743MOL0     C98007   3.716   9.137   2.409 -0.1143  0.8612  0.5659
  743MOL0     C98008   3.775   9.221   2.347 -0.3988 -0.7669  0.3150
  743MOL0     C98009   2.990   9.035   2.326 -0.1471 -0.1163  0.1308
  743MOL0     C98010   2.861   8.978   2.329  0.4808 -0.2451  0.3846
  743MOL0     H98011   2.389   8.999   2.240 -0.7968 -1.9478 -1.2476
  743MOL0     H98012   2.138   9.014   2.301 -2.1023  1.2190  1.4896
  743MOL0     H98013   1.963   8.872   2.343 -0.0684 -2.1107  1.3868
  743MOL0     H98014   1.936   9.036   2.409 -0.9562 -1.1790 -2.7779
  743MOL0     H98015   1.821   8.766   2.514 -0.9442  0.2099  1.0595
  743MOL0     H98016   1.746   8.873   2.405 -0.3413  1.1143  0.3613
  743MOL0     H98017   1.708   9.043   2.540  0.2528 -0.1918 -0.8444
  743MOL0     H98018   1.827   8.996   2.672 -0.7998 -1.6019  0.7599
  743MOL0     H98019   1.581   8.826   2.617 -0.7652  2.0450 -0.9221
  743MOL0     H98020   1.688   8.846   2.767  1.3055  0.5814  0.3429
  743MOL0     H98021   1.453   8.953   2.781  0.3294  0.0479  1.2283
  743MOL0     H98022   1.508   9.072   2.656  0.4092  0.9713  1.0641
  743MOL0     H98023   1.693   9.115   2.822 -0.4947  0.1627 -0.9398
  743MOL0     H98024   1.600   9.024   2.944  0.4278 -0.3970  0.3086
  743MOL0     H98025   1.535   9.290   2.830 -0.3476  0.8023  1.8765
  743MOL0     H98026   1.400   9.179   2.856 -0.1999 -3.2538  2.3673
  743MOL0     H98027   1.453   9.155   3.097  0.6348 -3.6688 -3.5568
  743MOL0     H98028   1.449   9.331   3.047 -3.0532 -1.0120 -2.1205
  743MOL0     H98029   1.715   9.424   2.991  1.0316 -0.1537 -0.5033
  743MOL0     H98030   2.018   9.422   3.056  0.4376  1.2630 -0.0131
  743MOL0     H98031   2.024   9.383   3.229 -1.0775 -2.5875  0.3405
  743MOL0     H98032   1.878   9.559   3.308 -0.1958  1.3093 -0.2078
  743MOL0     H98033   1.813   9.587   3.145 -2.0146 -1.4674  2.8664
  743MOL0     H98034   2.023   9.690   3.087  1.3510 -1.1167 -0.2650
  743MOL0     H98035   1.968   9.768   3.241  1.9493 -0.3480  1.0985
  743MOL0     H98036   2.172   9.569   3.182  1.7823  0.5047  1.3199
  743MOL0     H98037   2.112   9.593   3.350 -1.6237 -0.7486  0.1972
  743MOL0     H98038   2.352   9.517   3.314  1.2576 -1.0027 -0.8877
  743MOL0     H98039   2.586   9.495   3.318 -0.2510 -1.3080 -1.9521
  743MOL0     H98040   2.951   9.771   3.534  0.9961 -1.2012  0.8686
  743MOL0     H98041   3.182   9.736   3.571  0.7908 -0.3655 -0.1750
  743MOL0     H98042   3.543   9.729   3.506  0.4385  1.1849  1.7126
  743MOL0     H98043   3.382   9.703   3.574 -0.3466 -0.2211 -0.0394
  743MOL0     H98044   3.505   9.879   3.697 -1.2603  0.1039 -0.3613
  743MOL0     H98045   3.356   9.946   3.619  0.5832  2.2760  1.2389
  743MOL0     H98046   3.560  10.077   3.621 -1.8576  0.0495  0.1530
  743MOL0     H98047   3.472  10.066   3.470 -0.9238 -1.2980 -0.5471
  743MOL0     H98048   3.711   9.886   3.551 -2.5832  0.3335  2.5536
  743MOL0     H98049   3.648   9.909   3.392 -0.7313 -0.3670 -0.0313
  743MOL0     H98050   3.826  10.088   3.555  0.4037 -2.0593 -0.3712
  743MOL0     H98051   3.744  10.170   3.417 -1.3872 -0.1305  1.6456
  743MOL0     H98052   3.947   9.954   3.442  0.3557 -0.7279 -1.1130
  743MOL0     H98053   3.974  10.117   3.386  0.7147 -1.0046 -0.6636
  743MOL0     H98054   3.806   9.919   3.230 -0.9269  0.1973 -0.9356
  743MOL0     H98055   3.827  10.088   3.181  1.8706 -0.0929 -0.0228
  743MOL0     H98056   3.974   9.934   3.060 -0.0787 -0.7118 -0.5888
  743MOL0     H98057   4.020   9.851   3.204  0.6216 -0.1102 -3.1192
  743MOL0     H98058   3.282   9.887   3.179 -0.5607  0.7044 -1.6436
  743MOL0     H98059   3.022   9.867   3.135 -1.9429  3.4850  0.9447
  743MOL0     H98060   2.624   9.922   3.255  1.6626  0.1337 -0.8553
  743MOL0     H98061   2.393   9.936   3.265 -0.0992  0.3587  2.9777
  743MOL0     H98062   2.233   8.815   2.662  0.7769 -2.1661 -1.0627
  743MOL0     H98063   2.471   8.844   2.626  1.3516  0.9068 -0.2428
  743MOL0     H98064   2.888   8.694   2.498  1.4931 -0.6094 -0.2591
  743MOL0     H98065   3.129   8.767   2.485 -0.2502 -2.1028 -3.6268
  743MOL0     H98066   3.217   9.180   2.308  0.6431  0.1440 -0.8895
  743MOL0     H98067   3.315   9.045   2.221  1.1317 -1.8827  1.1060
  743MOL0     H98068   3.476   9.183   2.321 -1.2527  1.0076 -1.3965
  743MOL0     H98069   3.387   9.169   2.480 -2.1516  0.7073 -0.8377
  743MOL0     H98070   3.526   8.942   2.308  0.0946  1.4366  0.4378
  743MOL0     H98071   3.440   8.934   2.474 -1.6046 -0.4475 -0.2974
  743MOL0     H98072   3.605   9.067   2.586  0.2112 -1.0308  0.2273
  743MOL0     H98073   3.692   8.940   2.513  0.6618  0.3243  1.7643
  743MOL0     H98074   3.838   9.303   2.317 -0.3219  0.1962  2.8160
  743MOL0     H98075   3.007   9.132   2.282  3.4859  1.0480  3.5619
  743MOL0     H98076   2.784   9.041   2.284 -0.0383 -1.5234 -0.5616
  744MOL0     O98077  10.176  10.984   0.627  0.3922 -0.7956 -0.2348
  744MOL0     C98078  10.193  10.894   0.544  0.0044 -0.6063  0.1375
  744MOL0     O98079  10.106  10.862   0.446 -0.4016  0.6732 -0.8683
  744MOL0     C98080   9.969  10.895   0.460 -0.2571  0.0257  0.1695
  744MOL0     C98081   9.899  10.863   0.571  0.7330 -0.3715 -0.3612
  744MOL0     C98082   9.762  10.898   0.578 -0.5667  0.0514 -0.4911
  744MOL0     C98083   9.708  10.975   0.479  1.2425 -0.6809 -0.9219
  744MOL0     O98084   9.582  11.023   0.492  0.2729 -0.2639 -0.1454
  744MOL0     C98085   9.479  10.939   0.533 -0.2507  0.0184  0.1798
  744MOL0     C98086   9.341  10.996   0.486 -0.8921  0.4706 -0.2901
  744MOL0     C98087   9.243  10.907   0.538  1.4581  0.4746 -0.4404
  744MOL0     C98088   9.125  10.971   0.474  1.0595 -1.0104 -0.1590
  744MOL0     C98089   8.994  10.899   0.498 -0.8998 -0.4292  0.1982
  744MOL0     C98090   8.864  10.967   0.475  0.9216 -0.7560  0.0218
  744MOL0     C98091   8.755  10.862   0.498 -0.2903 -0.1559 -0.2928
  744MOL0     C98092   8.723  10.794   0.367 -0.7880 -0.2114 -0.5435
  744MOL0     N98093   8.611  10.698   0.360  0.5433 -0.3217 -0.1067
  744MOL0     C98094   8.483  10.724   0.347  0.0834 -0.2883 -0.1327
  744MOL0     C98095   8.411  10.619   0.381 -0.0769 -0.3779  0.0453
  744MOL0     C98096   8.256  10.621   0.380 -1.1256  0.7729  0.2695
  744MOL0     C98097   8.180  10.637   0.513 -0.2204  0.3163  0.9558
  744MOL0     C98098   8.130  10.501   0.554 -0.0706  0.1807  0.1249
  744MOL0     C98099   7.999  10.444   0.491  0.0722 -0.2555  0.1509
  744MOL0     O98100   7.899  10.543   0.511 -0.6197  0.0304  0.1154
  744MOL0     C98101   7.859  10.621   0.405 -1.1591 -1.4664  0.7246
  744MOL0     C98102   7.902  10.613   0.269  0.2094 -0.1974 -0.2205
  744MOL0     C98103   7.839  10.688   0.172 -0.4832  0.2530  0.6233
  744MOL0     C98104   7.730  10.781   0.204  0.6140 -0.7594  0.9491
  744MOL0     C98105   7.657  10.864   0.101  0.9781 -0.3616 -0.2745
  744MOL0     O98106   7.652  10.813  -0.022  0.7956  0.4317 -0.2401
  744MOL0     C98107   7.606  10.886  -0.123 -0.6023 -0.0047 -0.3811
  744MOL0     C98108   7.473  10.869  -0.170 -0.3762  0.2097  0.4242
  744MOL0     C98109   7.419  10.947  -0.277 -0.1841 -0.2077 -1.0893
  744MOL0     C98110   7.497  11.053  -0.326 -0.5158  0.4220  0.2074
  744MOL0     O98111   7.444  11.134  -0.416 -0.0866 -0.2174  0.8967
  744MOL0     C98112   7.480  11.274  -0.414  0.7222 -0.4578 -0.2283
  744MOL0     C98113   7.396  11.343  -0.520  0.1610  0.2190  0.2266
  744MOL0     C98114   7.264  11.405  -0.458  0.6900  0.2483 -1.2106
  744MOL0     C98115   7.156  11.294  -0.416  0.1394  0.1888 -0.2580
  744MOL0     C98116   7.044  11.354  -0.341 -0.6275  0.4008 -0.7005
  744MOL0     C98117   6.925  11.253  -0.337  0.4032 -0.6532  0.5897
  744MOL0     C98118   6.813  11.315  -0.259 -1.0432  0.3766 -0.0526
  744MOL0     C98119   6.708  11.216  -0.241  0.0421  0.3354  0.1139
  744MOL0    Cl98120   6.565  11.291  -0.163  0.1824  0.1393 -0.2411
  744MOL0     C98121   7.629  11.074  -0.277  0.1252  0.5425  0.7958
  744MOL0     C98122   7.688  10.981  -0.188 -0.1916 -0.7975 -0.6876
  744MOL0     O98123   7.582  10.946   0.139 -0.2768  0.1434  0.0954
  744MOL0     C98124   7.704  10.788   0.340 -0.2323 -1.2083 -0.3586
  744MOL0     C98125   7.765  10.711   0.436 -0.7607 -0.4056 -1.0111
  744MOL0     N98126   8.502  10.521   0.427  0.4758  0.7656 -0.4505
  744MOL0     N98127   8.619  10.575   0.409 -0.0844  0.0607  0.8529
  744MOL0     C98128   9.786  11.031   0.382  0.3992  0.2323 -0.3295
  744MOL0     C98129   9.916  10.989   0.369 -0.4649 -0.5417  1.2579
  744MOL0     C98130  10.333  10.832   0.551 -0.5267 -1.0313  0.5798
  744MOL0     C98131  10.424  10.869   0.655 -0.4432 -0.5407  0.1179
  744MOL0     C98132  10.541  10.799   0.678 -0.1459 -0.7232  0.6952
  744MOL0     C98133  10.582  10.685   0.598  0.3990  0.7847 -0.2247
  744MOL0     O98134  10.696  10.627   0.647 -0.1769  0.7193 -0.8824
  744MOL0     C98135  10.777  10.542   0.563 -0.1973  0.2244  0.2719
  744MOL0     C98136  10.855  10.441   0.645  1.0315  0.2218  0.0852
  744MOL0     C98137  10.926  10.349   0.558  0.9646  1.0133  0.8666
  744MOL0     C98138  11.075  10.361   0.569 -0.4198 -0.3808  0.3062
  744MOL0     C98139  11.136  10.232   0.517  0.7344 -0.7369  0.6008
  744MOL0     C98140  11.198  10.133   0.483  0.1745  0.9321  0.2030
  744MOL0     C98141  10.490  10.655   0.492 -1.0495 -0.5438  0.5711
  744MOL0     C98142  10.372  10.723   0.471  0.8641 -0.2799 -0.1397
  744MOL0     H98143   9.939  10.812   0.659  1.6900 -1.1100 -1.2013
  744MOL0     H98144   9.703  10.866   0.663  0.8801  2.9403  1.7731
  744MOL0     H98145   9.473  10.918   0.640  0.3431 -0.9676  0.0352
  744MOL0     H98146   9.491  10.843   0.481 -1.3461  2.0706 -4.2867
  744MOL0     H98147   9.345  10.996   0.377  2.7892  0.1680 -0.2571
  744MOL0     H98148   9.326  11.100   0.516  0.0743  0.3835  0.5410
  744MOL0     H98149   9.232  10.911   0.647 -4.4272  0.2524 -0.7292
  744MOL0     H98150   9.248  10.806   0.497 -3.9138 -0.4972  0.5823
  744MOL0     H98151   9.111  11.069   0.521  0.9506 -2.3499  2.8365
  744MOL0     H98152   9.139  10.973   0.366  0.3777  2.1265 -0.2808
  744MOL0     H98153   9.003  10.868   0.603 -1.0799  2.0780  1.0214
  744MOL0     H98154   9.001  10.806   0.440  0.3843  0.0830 -0.5089
  744MOL0     H98155   8.851  11.015   0.377 -2.0312  0.8858  1.0691
  744MOL0     H98156   8.859  11.044   0.552 -1.0532 -1.6170  0.8266
  744MOL0     H98157   8.775  10.791   0.579  2.9854  0.5757 -0.3310
  744MOL0     H98158   8.669  10.922   0.529 -0.1731 -0.1925  0.1122
  744MOL0     H98159   8.808  10.738   0.327 -0.2289 -2.5660  3.3365
  744MOL0     H98160   8.705  10.879   0.302  2.3766  0.7137 -0.3511
  744MOL0     H98161   8.451  10.820   0.309 -3.4012 -0.3677  2.1678
  744MOL0     H98162   8.214  10.534   0.327  2.5403 -0.7143 -0.5084
  744MOL0     H98163   8.227  10.707   0.319 -0.9215 -0.1157 -1.1459
  744MOL0     H98164   8.096  10.706   0.514 -0.7881 -0.3429  0.1291
  744MOL0     H98165   8.242  10.682   0.591  0.7439 -2.4694  1.9344
  744MOL0     H98166   8.211  10.430   0.533 -0.0455  0.0091  0.7788
  744MOL0     H98167   8.116  10.496   0.663 -3.5045  0.4744 -0.2196
  744MOL0     H98168   7.967  10.355   0.547 -2.5386  1.4417  1.5583
  744MOL0     H98169   8.017  10.403   0.392 -0.3871 -0.9461  0.3408
  744MOL0     H98170   7.979  10.541   0.245  0.5470  1.0319 -3.3480
  744MOL0     H98171   7.870  10.699   0.069  0.3856 -2.2322  0.5674
  744MOL0     H98172   7.411  10.795  -0.121 -0.2754 -0.5497 -0.5536
  744MOL0     H98173   7.323  10.934  -0.326 -1.5675  2.4418  0.6578
  744MOL0     H98174   7.586  11.282  -0.438  0.8063 -0.6575  0.0763
  744MOL0     H98175   7.462  11.313  -0.314  2.5873 -0.3189  0.0804
  744MOL0     H98176   7.384  11.285  -0.612  0.7195  3.0705 -1.7784
  744MOL0     H98177   7.458  11.427  -0.552  2.9999 -2.1483 -1.0220
  744MOL0     H98178   7.225  11.478  -0.529  1.0815  0.5629 -1.1085
  744MOL0     H98179   7.301  11.447  -0.363 -1.0375 -0.7284 -0.0584
  744MOL0     H98180   7.118  11.241  -0.503 -0.2393 -0.4472  0.2836
  744MOL0     H98181   7.210  11.224  -0.351  0.0992  0.1214 -0.2973
  744MOL0     H98182   6.997  11.436  -0.396 -0.3993 -0.0689 -1.6153
  744MOL0     H98183   7.066  11.374  -0.236 -0.0353 -0.8602 -0.5718
  744MOL0     H98184   6.955  11.166  -0.277 -0.5328  0.2358  2.4432
  744MOL0     H98185   6.893  11.229  -0.439 -2.3708  1.4140  0.8623
  744MOL0     H98186   6.851  11.342  -0.160 -0.8151  1.0744 -0.3248
  744MOL0     H98187   6.781  11.397  -0.323  0.7159 -0.6294 -2.3895
  744MOL0     H98188   6.749  11.135  -0.181 -0.4761 -1.2985 -1.6470
  744MOL0     H98189   6.682  11.170  -0.336  2.2991 -2.1578  0.5991
  744MOL0     H98190   7.700  11.136  -0.330 -0.6648  1.3432  0.6640
  744MOL0     H98191   7.793  10.998  -0.163 -0.2632 -0.1752 -0.7952
  744MOL0     H98192   7.632  10.864   0.370  1.3324  0.5752 -0.9600
  744MOL0     H98193   7.744  10.728   0.541 -0.2685 -1.9699 -0.6427
  744MOL0     H98194   9.731  11.098   0.316 -2.7674 -1.1796  0.6524
  744MOL0     H98195   9.976  11.021   0.283 -2.0636 -2.0796 -0.5198
  744MOL0     H98196  10.399  10.955   0.717  1.4533  1.9026 -2.2566
  744MOL0     H98197  10.615  10.838   0.748  0.7137 -1.4129  0.1893
  744MOL0     H98198  10.844  10.604   0.503 -0.2555 -2.1449 -2.4734
  744MOL0     H98199  10.717  10.490   0.487 -2.9784  2.5323  0.6717
  744MOL0     H98200  10.923  10.493   0.712  2.5160 -2.7090  1.0263
  744MOL0     H98201  10.782  10.391   0.710 -0.1797  1.7808 -0.0202
  744MOL0     H98202  10.888  10.353   0.456 -0.2533 -0.2610  1.2409
  744MOL0     H98203  10.894  10.252   0.596  0.0476  0.6496 -0.7458
  744MOL0     H98204  11.099  10.446   0.505 -1.4837  1.6608  2.4669
  744MOL0     H98205  11.104  10.376   0.673  0.9169  1.3205 -0.2663
  744MOL0     H98206  11.254  10.047   0.452  1.4247  2.2258 -1.3395
  744MOL0     H98207  10.513  10.569   0.430  1.5983 -1.0631  2.1251
  744MOL0     H98208  10.308  10.703   0.385  1.8322 -0.2215 -0.8902
  745MOL0     O98209   7.463   9.253   7.240  0.7815  0.8353  0.5419
  745MOL0     C98210   7.363   9.296   7.187 -0.4549  0.4912  0.1706
  745MOL0     O98211   7.233   9.267   7.226  0.3207 -0.0883  0.7803
  745MOL0     C98212   7.189   9.226   7.350  0.0239  1.2001 -0.1744
  745MOL0     C98213   7.052   9.212   7.351 -0.4089  0.1452 -0.5070
  745MOL0     C98214   6.991   9.177   7.469 -0.1523  0.6251 -0.3124
  745MOL0     C98215   7.063   9.153   7.586 -0.1304 -0.6486  0.1391
  745MOL0     O98216   7.004   9.128   7.708 -0.8912 -0.0837  0.1385
  745MOL0     C98217   6.871   9.074   7.713  0.3475  0.6773  0.4770
  745MOL0     C98218   6.774   9.195   7.740 -0.3842  0.5827  0.1089
  745MOL0     C98219   6.630   9.156   7.723  0.9909 -1.1693  0.4869
  745MOL0     C98220   6.575   9.060   7.832  1.1492 -0.0996  0.0055
  745MOL0     C98221   6.423   9.040   7.822 -0.2092 -0.3030 -0.4901
  745MOL0     C98222   6.374   8.929   7.913 -0.3198 -0.0093  0.1741
  745MOL0     C98223   6.231   8.941   7.951  0.5049  0.2399 -0.7323
  745MOL0     C98224   6.160   9.076   7.947 -0.1740  0.1024 -0.4171
  745MOL0     N98225   6.010   9.053   7.968 -0.8317 -0.2450  0.4821
  745MOL0     C98226   5.928   9.118   8.066  0.2164 -0.2148 -0.2437
  745MOL0     C98227   5.802   9.068   8.036 -0.8622  0.2398 -0.3871
  745MOL0     C98228   5.671   9.106   8.110  0.5167  0.7193  0.3197
  745MOL0     C98229   5.693   9.115   8.262 -0.5642 -0.3328  0.3935
  745MOL0     C98230   5.564   9.130   8.334  1.2151  0.5465  0.0164
  745MOL0     C98231   5.492   9.267   8.308 -0.3205  0.2685  0.0746
  745MOL0     O98232   5.428   9.313   8.426  0.2412  0.3303 -0.1369
  745MOL0     C98233   5.307   9.274   8.458  0.2352 -0.4227 -0.3074
  745MOL0     C98234   5.237   9.156   8.414 -0.2863 -0.4904  0.4471
  745MOL0     C98235   5.105   9.130   8.444  1.1072 -0.4427  0.7244
  745MOL0     C98236   5.035   9.211   8.536  0.1813 -0.6767 -0.5247
  745MOL0     C98237   4.894   9.196   8.568  0.2122  0.0138 -1.1376
  745MOL0     O98238   4.844   9.228   8.694  0.1479  0.4206 -0.1452
  745MOL0     C98239   4.708   9.211   8.708 -0.2536 -0.9154  0.8701
  745MOL0     C98240   4.654   9.149   8.827 -0.3912  0.0986  0.3244
  745MOL0     C98241   4.522   9.136   8.855 -0.2000  0.0654 -0.3787
  745MOL0     C98242   4.426   9.204   8.775 -1.1080  0.9453  0.0039
  745MOL0     O98243   4.299   9.223   8.817  0.5372 -0.6660 -0.0120
  745MOL0     C98244   4.206   9.265   8.709  0.3116  0.2886  0.4439
  745MOL0     C98245   4.062   9.214   8.725 -0.4756 -0.2602 -0.3454
  745MOL0     C98246   4.004   9.289   8.840  0.1908  0.1350 -0.2361
  745MOL0     C98247   3.851   9.294   8.846  0.6255  0.1103  0.2701
  745MOL0     C98248   3.778   9.385   8.948 -0.1338 -0.2222  0.1235
  745MOL0     C98249   3.632   9.412   8.924  0.0846 -0.9470  0.0311
  745MOL0     C98250   3.571   9.517   9.024 -0.4707 -0.4391 -0.1831
  745MOL0     C98251   3.440   9.571   8.970  0.6236 -0.2200 -0.3620
  745MOL0    Cl98252   3.318   9.441   8.971 -0.0711  0.1796 -0.4136
  745MOL0     C98253   4.475   9.272   8.659  0.2588 -0.0022 -0.7590
  745MOL0     C98254   4.611   9.278   8.623 -0.6182 -0.1821 -0.3524
  745MOL0     O98255   4.822   9.155   8.477 -0.7298 -0.4940 -0.1097
  745MOL0     C98256   5.102   9.324   8.591 -0.1300 -0.3860  0.2402
  745MOL0     C98257   5.236   9.352   8.551 -0.2846  0.7594 -0.4562
  745MOL0     N98258   5.805   8.980   7.928  0.3126  0.3013  0.0298
  745MOL0     N98259   5.925   8.978   7.885  0.2836 -1.0379  0.4354
  745MOL0     C98260   7.199   9.155   7.578 -0.6863 -0.3079  0.5485
  745MOL0     C98261   7.265   9.199   7.460 -0.2418 -0.3419 -0.7920
  745MOL0     C98262   7.371   9.373   7.067  0.1203 -0.6416  0.2711
  745MOL0     C98263   7.262   9.455   7.028 -0.3325  0.0287  0.5514
  745MOL0     C98264   7.272   9.547   6.928 -0.6995 -0.8490  0.0545
  745MOL0     C98265   7.391   9.565   6.871 -0.4727  1.0146 -1.8292
  745MOL0     O98266   7.402   9.655   6.773  0.4717 -0.0149  0.3665
  745MOL0     C98267   7.482   9.769   6.805  0.2159 -0.4730 -0.0778
  745MOL0     C98268   7.486   9.862   6.680 -0.1838 -0.2076  0.1507
  745MOL0     C98269   7.358   9.916   6.625  0.1491 -0.7395 -0.4582
  745MOL0     C98270   7.292   9.837   6.516  0.7909 -0.6657 -0.6408
  745MOL0     C98271   7.371   9.835   6.395  0.0028  0.3853 -0.3998
  745MOL0     C98272   7.424   9.837   6.291 -0.3135  0.3818  1.0291
  745MOL0     C98273   7.502   9.487   6.908  0.1985 -0.2145 -0.1619
  745MOL0     C98274   7.495   9.388   7.002  1.2481 -0.4735 -0.5211
  745MOL0     H98275   6.995   9.242   7.264  1.2594  0.2925 -1.5920
  745MOL0     H98276   6.882   9.175   7.469 -0.1617 -1.1181 -1.2318
  745MOL0     H98277   6.859   9.007   7.799  1.3961  1.2458  1.0960
  745MOL0     H98278   6.851   9.015   7.623  1.3726 -1.1487  1.3874
  745MOL0     H98279   6.795   9.273   7.666 -1.5563  1.5342  0.7290
  745MOL0     H98280   6.792   9.228   7.843  0.3371  1.0420 -0.1605
  745MOL0     H98281   6.610   9.110   7.625  0.5245  1.1629 -0.5853
  745MOL0     H98282   6.579   9.252   7.730 -0.6729 -2.0779  1.3931
  745MOL0     H98283   6.628   8.965   7.825  1.0339 -0.0645 -1.6231
  745MOL0     H98284   6.598   9.113   7.925 -0.7532  4.6548 -1.8848
  745MOL0     H98285   6.407   9.002   7.721 -0.2954  1.4300 -1.1596
  745MOL0     H98286   6.376   9.134   7.851 -0.0598 -0.4054  0.0973
  745MOL0     H98287   6.437   8.940   8.002  2.2665  2.0127 -1.7380
  745MOL0     H98288   6.396   8.834   7.863  1.7948  1.7264 -2.4940
  745MOL0     H98289   6.184   8.865   7.887  2.2017 -0.6906 -0.9503
  745MOL0     H98290   6.220   8.914   8.056 -1.9234  2.9247 -0.1855
  745MOL0     H98291   6.173   9.127   7.851 -0.7302  2.8962  0.8672
  745MOL0     H98292   6.202   9.137   8.029  1.2208  0.1989 -1.1623
  745MOL0     H98293   5.966   9.189   8.139  4.4296  0.0977 -2.3854
  745MOL0     H98294   5.618   9.011   8.097  6.0056 -2.5825 -0.9235
  745MOL0     H98295   5.619   9.187   8.058 -1.7590 -0.5230  0.5368
  745MOL0     H98296   5.771   9.188   8.285  1.2140 -1.8014 -0.6783
  745MOL0     H98297   5.736   9.025   8.307  0.1709 -0.2264 -0.0843
  745MOL0     H98298   5.499   9.055   8.290  1.4442  0.7029 -0.6005
  745MOL0     H98299   5.569   9.107   8.441 -3.4999  4.4885  1.4597
  745MOL0     H98300   5.427   9.263   8.220  0.6952 -0.2467 -0.6861
  745MOL0     H98301   5.577   9.330   8.281 -0.6255  1.3145  1.4549
  745MOL0     H98302   5.274   9.091   8.335 -0.2747  2.6043 -2.2934
  745MOL0     H98303   5.052   9.045   8.403  0.5366  0.1574  0.2022
  745MOL0     H98304   4.730   9.101   8.888 -0.8922 -0.9972  0.1237
  745MOL0     H98305   4.490   9.086   8.946  1.0547  0.2642  0.1939
  745MOL0     H98306   4.228   9.205   8.621 -2.6768 -4.9301  2.7966
  745MOL0     H98307   4.205   9.373   8.689  1.1802 -0.0628 -1.7486
  745MOL0     H98308   4.052   9.105   8.728 -5.7344 -0.0140 -0.1503
  745MOL0     H98309   4.011   9.249   8.635  0.3284  1.8456 -0.0569
  745MOL0     H98310   4.023   9.393   8.811 -0.6723 -0.3614 -2.8731
  745MOL0     H98311   4.044   9.263   8.938 -1.7968 -2.1682  0.0606
  745MOL0     H98312   3.814   9.324   8.747  0.4347 -0.8178  0.0540
  745MOL0     H98313   3.806   9.195   8.861 -2.0056  0.9158 -1.4744
  745MOL0     H98314   3.827   9.483   8.951 -1.7768  0.6411  0.8753
  745MOL0     H98315   3.792   9.347   9.050  2.2927 -0.6082 -0.3036
  745MOL0     H98316   3.586   9.313   8.914  4.2107 -2.8804 -2.4265
  745MOL0     H98317   3.622   9.452   8.822 -0.1430 -1.7438 -0.2729
  745MOL0     H98318   3.555   9.487   9.128 -0.5926 -1.0655 -0.3775
  745MOL0     H98319   3.637   9.604   9.026  0.0057 -0.7517 -1.2943
  745MOL0     H98320   3.447   9.609   8.867  0.6637  0.9359  0.0555
  745MOL0     H98321   3.409   9.656   9.030  1.7197 -0.1173  0.0787
  745MOL0     H98322   4.407   9.334   8.601  0.0658 -1.0481 -1.6694
  745MOL0     H98323   4.645   9.342   8.542  2.2687 -1.3792 -0.2135
  745MOL0     H98324   5.055   9.390   8.663 -0.0564 -0.9031  0.7710
  745MOL0     H98325   5.294   9.423   8.610 -1.0136  0.6332  0.4304
  745MOL0     H98326   7.251   9.145   7.672 -1.2349 -0.3558  0.8512
  745MOL0     H98327   7.374   9.197   7.454 -0.3215 -1.7510 -2.7102
  745MOL0     H98328   7.160   9.451   7.067 -0.9810 -1.4923 -1.1427
  745MOL0     H98329   7.184   9.607   6.906 -1.5334 -2.8058 -2.5061
  745MOL0     H98330   7.580   9.736   6.839 -1.3894 -4.2910  1.3709
  745MOL0     H98331   7.435   9.834   6.879  0.4263  2.0727 -2.0140
  745MOL0     H98332   7.555   9.941   6.712 -0.6851 -0.1856  1.2215
  745MOL0     H98333   7.543   9.817   6.598 -0.3982  2.2214 -1.4449
  745MOL0     H98334   7.376  10.020   6.595  0.5278 -0.4567  0.6748
  745MOL0     H98335   7.286   9.927   6.708  0.1045  0.3209 -0.6157
  745MOL0     H98336   7.278   9.733   6.548  0.8583 -0.0019  1.7474
  745MOL0     H98337   7.190   9.870   6.497 -0.5128 -2.6307  2.2496
  745MOL0     H98338   7.465   9.840   6.192 -0.0519  2.7018  1.1507
  745MOL0     H98339   7.603   9.509   6.875  0.5266 -2.0752 -0.5128
  745MOL0     H98340   7.575   9.320   7.027 -1.5926 -4.0093 -0.2320
  746MOL0     O98341  10.029   4.228   7.618 -0.7144  0.5165 -0.2113
  746MOL0     C98342   9.989   4.241   7.734  0.2036 -0.1459  0.5691
  746MOL0     O98343  10.061   4.287   7.839  0.0488 -0.1586 -0.0346
  746MOL0     C98344  10.199   4.293   7.839  0.0848  0.0136 -0.3317
  746MOL0     C98345  10.287   4.179   7.830  0.9808 -1.2533 -0.0058
  746MOL0     C98346  10.424   4.190   7.817  0.3408 -0.0178  0.1392
  746MOL0     C98347  10.487   4.318   7.812 -0.0933 -0.4082 -0.4242
  746MOL0     O98348  10.611   4.354   7.793 -0.3616  0.0091  0.4174
  746MOL0     C98349  10.699   4.295   7.879 -0.2656 -0.4654  0.3404
  746MOL0     C98350  10.824   4.363   7.871  0.0131 -0.1121  0.9496
  746MOL0     C98351  10.928   4.319   7.982  0.2258 -0.1785 -0.0494
  746MOL0     C98352  11.059   4.367   7.935 -0.3619 -0.1579  0.4113
  746MOL0     C98353  11.157   4.324   8.042 -0.2553 -0.1734 -1.6550
  746MOL0     C98354  11.290   4.372   7.991  0.5549  1.3638  0.3529
  746MOL0     C98355  11.343   4.254   7.912  0.3053  0.1325  0.7962
  746MOL0     C98356  11.483   4.262   7.876 -1.8224  0.0062 -0.8240
  746MOL0     N98357  11.524   4.393   7.829 -0.0476 -0.2678 -0.1700
  746MOL0     C98358  11.615   4.478   7.886 -0.3242 -0.4165  0.4813
  746MOL0     C98359  11.663   4.558   7.782  0.0161 -0.7433 -0.0595
  746MOL0     C98360  11.785   4.651   7.803  0.0464 -0.8536 -0.6727
  746MOL0     C98361  11.760   4.763   7.918 -0.7827  0.8466  0.1292
  746MOL0     C98362  11.898   4.826   7.962 -1.0284 -0.1388 -0.1015
  746MOL0     C98363  11.879   4.928   8.079  0.6158 -0.4083  0.8566
  746MOL0     O98364  11.843   4.853   8.196  0.8183 -0.0807 -0.2957
  746MOL0     C98365  11.942   4.840   8.289  0.7341  1.0866 -0.0152
  746MOL0     C98366  11.987   4.951   8.365  0.7408 -0.5547 -0.5401
  746MOL0     C98367  12.091   4.923   8.459  0.5659  0.1355  0.0862
  746MOL0     C98368  12.149   4.796   8.473  0.2963 -0.6182 -0.6674
  746MOL0     C98369  12.258   4.778   8.577 -0.1545  1.5861 -0.3736
  746MOL0     O98370  12.284   4.649   8.621 -0.3867 -1.2724  0.4150
  746MOL0     C98371  12.401   4.650   8.699  0.1072  1.0561  0.2081
  746MOL0     C98372  12.532   4.598   8.655 -0.3027  0.8598  0.3859
  746MOL0     C98373  12.651   4.619   8.722 -0.2820  0.2865  0.3058
  746MOL0     C98374  12.644   4.684   8.847  0.2162 -0.8371  0.0129
  746MOL0     O98375  12.749   4.720   8.919  0.0351 -0.9958  0.3557
  746MOL0     C98376  12.884   4.687   8.885  0.7201 -0.4561  0.2989
  746MOL0     C98377  12.957   4.730   9.012 -0.9119 -0.6241  0.4506
  746MOL0     C98378  13.105   4.676   8.996 -0.1940  0.0120  0.0185
  746MOL0     C98379  13.189   4.717   9.112  0.1409 -0.0699  0.2857
  746MOL0     C98380  13.311   4.639   9.130 -0.2008  0.0110  0.2794
  746MOL0     C98381  13.410   4.654   9.016  0.6682  0.2187  0.4176
  746MOL0     C98382  13.547   4.589   9.065 -0.2005  0.3337  0.0205
  746MOL0     C98383  13.655   4.612   8.967  0.0502  0.2396 -0.0467
  746MOL0    Cl98384  13.707   4.784   8.985  0.0596  0.5612  0.3182
  746MOL0     C98385  12.521   4.734   8.893  0.0695  0.3002  0.3091
  746MOL0     C98386  12.399   4.714   8.825 -0.3872  0.5008 -0.2761
  746MOL0     O98387  12.318   4.876   8.605 -0.6881  0.6775  0.1128
  746MOL0     C98388  12.100   4.691   8.398  1.0771 -0.5224 -0.1403
  746MOL0     C98389  11.995   4.709   8.308  1.1201 -0.3468 -0.5569
  746MOL0     N98390  11.601   4.507   7.669  0.3410 -0.1054 -0.2074
  746MOL0     N98391  11.528   4.414   7.696 -0.4811 -0.0446 -0.3288
  746MOL0     C98392  10.398   4.426   7.816  0.8053  0.4373  0.2008
  746MOL0     C98393  10.261   4.418   7.833  0.7714  0.1390 -0.5376
  746MOL0     C98394   9.850   4.193   7.760  0.2761 -0.6066  0.6600
  746MOL0     C98395   9.798   4.175   7.892  0.3257  0.0744 -1.3195
  746MOL0     C98396   9.667   4.128   7.907  0.0993 -0.0346  0.6293
  746MOL0     C98397   9.596   4.083   7.792  0.1059  0.4035  0.5634
  746MOL0     O98398   9.473   4.031   7.812  0.1015 -0.4756 -0.7727
  746MOL0     C98399   9.387   4.010   7.698 -0.0704 -0.6110  0.6398
  746MOL0     C98400   9.241   3.991   7.735  0.1016 -0.8636 -0.3465
  746MOL0     C98401   9.195   4.061   7.867 -0.4192 -0.2411 -0.7109
  746MOL0     C98402   9.204   4.208   7.860 -0.1464  0.0236  0.1680
  746MOL0     C98403   9.110   4.263   7.766 -0.2697 -0.4074 -0.1970
  746MOL0     C98404   9.045   4.320   7.679 -0.1916  0.2396  0.3393
  746MOL0     C98405   9.655   4.089   7.661  0.0871  0.6552 -0.2194
  746MOL0     C98406   9.780   4.152   7.653 -0.0434  0.9323  0.0163
  746MOL0     H98407  10.239   4.082   7.839 -0.7009 -0.3402  1.5256
  746MOL0     H98408  10.489   4.104   7.803 -0.5865 -0.7145  0.0400
  746MOL0     H98409  10.721   4.192   7.852  0.2194 -0.6513  1.3926
  746MOL0     H98410  10.666   4.304   7.983 -1.3525 -0.7662  0.0266
  746MOL0     H98411  10.797   4.469   7.875 -1.5711 -0.2082 -2.7354
  746MOL0     H98412  10.857   4.344   7.768 -0.7641  1.0401  0.4739
  746MOL0     H98413  10.949   4.213   7.999 -3.0760 -0.7577  1.3149
  746MOL0     H98414  10.897   4.368   8.075  2.2771 -0.7301  0.9845
  746MOL0     H98415  11.086   4.322   7.838 -1.5367  0.7934 -0.3925
  746MOL0     H98416  11.071   4.475   7.923 -1.4982 -0.1590 -1.0714
  746MOL0     H98417  11.149   4.216   8.053  0.3202 -0.0626  0.2019
  746MOL0     H98418  11.127   4.375   8.134 -1.3128  1.1569 -2.6879
  746MOL0     H98419  11.358   4.385   8.076  2.4957  1.6970 -1.1775
  746MOL0     H98420  11.278   4.463   7.932  0.9798  2.5363  1.9984
  746MOL0     H98421  11.333   4.160   7.966  0.0516 -0.7807 -0.7916
  746MOL0     H98422  11.286   4.235   7.820  2.6946  0.1174 -0.7814
  746MOL0     H98423  11.512   4.184   7.805  2.9465 -0.8652  1.6558
  746MOL0     H98424  11.553   4.240   7.957 -2.5611  3.8364  1.0948
  746MOL0     H98425  11.659   4.471   7.985  0.0040  0.5271  0.4146
  746MOL0     H98426  11.788   4.706   7.708 -1.3954  0.9075  0.2415
  746MOL0     H98427  11.861   4.582   7.841 -0.5897 -1.7525 -1.0042
  746MOL0     H98428  11.715   4.715   8.005  0.0967  1.3117  0.8555
  746MOL0     H98429  11.702   4.845   7.876  0.7887  2.0838  0.2949
  746MOL0     H98430  11.965   4.750   8.004 -0.1762  1.2534  1.1702
  746MOL0     H98431  11.944   4.873   7.874 -3.3706 -1.5813 -2.2207
  746MOL0     H98432  11.799   4.999   8.056  1.6989  1.1494  1.7241
  746MOL0     H98433  11.965   4.994   8.090  0.5024 -0.1540  0.2351
  746MOL0     H98434  11.938   5.047   8.357  0.4903 -0.6514 -0.1974
  746MOL0     H98435  12.121   5.004   8.525 -0.2780 -0.2538  0.9641
  746MOL0     H98436  12.545   4.545   8.561 -0.0062  1.3189  0.1684
  746MOL0     H98437  12.741   4.576   8.679 -1.3838 -1.3240 -0.4969
  746MOL0     H98438  12.917   4.738   8.794 -1.8880 -0.6768 -0.8654
  746MOL0     H98439  12.886   4.579   8.871 -2.2498 -0.4638 -0.7462
  746MOL0     H98440  12.899   4.698   9.099 -1.0677  0.8349  0.9265
  746MOL0     H98441  12.962   4.840   9.016  2.2334 -0.7245  2.1737
  746MOL0     H98442  13.142   4.706   8.898 -0.6066  2.3507  0.5177
  746MOL0     H98443  13.108   4.566   8.995  1.6976  0.0064  1.5279
  746MOL0     H98444  13.203   4.825   9.110  0.1928 -0.0860 -0.3404
  746MOL0     H98445  13.143   4.688   9.207  1.2193 -1.5463  0.3899
  746MOL0     H98446  13.274   4.537   9.144 -1.5086  0.6869  2.0784
  746MOL0     H98447  13.354   4.675   9.223  0.0799  1.1399 -0.2677
  746MOL0     H98448  13.418   4.755   8.974 -0.8873 -0.7620 -2.5568
  746MOL0     H98449  13.380   4.604   8.923  0.6349  0.8703  0.0672
  746MOL0     H98450  13.577   4.631   9.161  1.0304  1.7447 -0.9410
  746MOL0     H98451  13.525   4.483   9.086  0.3420  0.3329  0.5989
  746MOL0     H98452  13.616   4.600   8.866 -0.9973  0.3271  0.3313
  746MOL0     H98453  13.736   4.540   8.977 -0.0444  0.2869  1.3635
  746MOL0     H98454  12.524   4.772   8.995  0.5790  1.1372 -0.0010
  746MOL0     H98455  12.303   4.754   8.857 -1.1485 -1.0448 -0.5377
  746MOL0     H98456  12.149   4.595   8.402 -0.2132 -1.1750  2.3344
  746MOL0     H98457  11.978   4.629   8.237  3.4034  0.9986 -2.7984
  746MOL0     H98458  10.445   4.523   7.809  0.0064  1.0848  2.8211
  746MOL0     H98459  10.218   4.517   7.834  2.5024  0.9270  0.8863
  746MOL0     H98460   9.846   4.198   7.987 -1.0231  0.6659 -0.7660
  746MOL0     H98461   9.633   4.121   8.009 -2.1571  0.5542 -0.0270
  746MOL0     H98462   9.423   3.921   7.647 -0.2390 -1.5903  2.1620
  746MOL0     H98463   9.398   4.096   7.631 -2.0734  0.4586  1.6030
  746MOL0     H98464   9.175   4.025   7.655 -0.5043  0.3625  0.6248
  746MOL0     H98465   9.215   3.886   7.747  0.0268 -0.6766  1.4816
  746MOL0     H98466   9.249   4.020   7.953 -1.9269  0.3485  0.5809
  746MOL0     H98467   9.092   4.030   7.892  0.0181 -1.4148 -0.2993
  746MOL0     H98468   9.176   4.251   7.956  1.2760 -1.0505  1.1157
  746MOL0     H98469   9.306   4.243   7.846  0.6015 -1.7155  0.9647
  746MOL0     H98470   8.996   4.382   7.607  1.0410 -1.1499 -1.8009
  746MOL0     H98471   9.610   4.041   7.574 -0.4746  3.2999 -1.5003
  746MOL0     H98472   9.808   4.153   7.548 -0.5837 -0.2175 -0.1576
  747MOL0     O98473   9.851   3.819   8.325  0.0070  0.1042  0.2341
  747MOL0     C98474   9.885   3.919   8.258  0.7944 -0.3615  0.2026
  747MOL0     O98475   9.810   4.030   8.234  0.5080  0.0439 -0.3973
  747MOL0     C98476   9.683   4.038   8.293 -0.3018  0.7457  0.4869
  747MOL0     C98477   9.673   4.111   8.405 -0.1896  0.4392  0.0521
  747MOL0     C98478   9.547   4.133   8.468  0.1834  0.4387 -0.9368
  747MOL0     C98479   9.427   4.085   8.398 -0.7371 -0.1095 -0.9223
  747MOL0     O98480   9.304   4.123   8.452  0.2836  0.0517  0.0968
  747MOL0     C98481   9.173   4.083   8.394 -0.0268  0.6522 -0.1162
  747MOL0     C98482   9.064   4.149   8.480 -0.0088  0.6413  0.2214
  747MOL0     C98483   9.092   4.295   8.495  0.2968 -1.5459  0.0524
  747MOL0     C98484   9.002   4.377   8.590 -0.6592  0.7540  0.4670
  747MOL0     C98485   9.033   4.521   8.584  0.6530 -0.5593 -0.1400
  747MOL0     C98486   8.938   4.601   8.670 -0.4340 -0.0434  0.3718
  747MOL0     C98487   8.963   4.753   8.660 -0.1616 -0.6109  0.5155
  747MOL0     C98488   8.953   4.822   8.518 -0.5171 -0.9902 -0.4465
  747MOL0     N98489   8.994   4.965   8.523 -0.2912  0.4790  0.1484
  747MOL0     C98490   9.121   5.007   8.524  0.7317 -0.2053  0.3764
  747MOL0     C98491   9.115   5.121   8.591  0.0409 -0.1014 -0.9940
  747MOL0     C98492   9.230   5.204   8.634 -0.2046 -0.1634 -0.1288
  747MOL0     C98493   9.374   5.193   8.569  0.5510  0.4011  0.3142
  747MOL0     C98494   9.485   5.263   8.650  0.3199  1.1436  0.4245
  747MOL0     C98495   9.616   5.241   8.573  0.1298  0.0186 -0.0257
  747MOL0     O98496   9.725   5.272   8.661 -0.0406  0.1094  0.1540
  747MOL0     C98497   9.851   5.300   8.613 -0.5442  0.0805 -0.4581
  747MOL0     C98498   9.948   5.305   8.709  0.0435  0.9658 -0.0754
  747MOL0     C98499  10.084   5.305   8.680 -0.6441 -0.3070  0.0874
  747MOL0     C98500  10.130   5.290   8.551 -0.4992 -0.5646 -0.1418
  747MOL0     C98501  10.271   5.272   8.519 -0.0183 -0.2097  0.1583
  747MOL0     O98502  10.353   5.313   8.621  0.0757  0.3650  0.3724
  747MOL0     C98503  10.488   5.308   8.594  0.2255  0.6918  0.0718
  747MOL0     C98504  10.570   5.212   8.649  0.1367 -0.3307  0.4457
  747MOL0     C98505  10.698   5.178   8.612 -0.9799 -0.0228  0.6017
  747MOL0     C98506  10.757   5.260   8.512 -0.2165 -0.1208  0.7134
  747MOL0     O98507  10.884   5.235   8.464  0.2263 -0.5892  0.0544
  747MOL0     C98508  10.960   5.122   8.507 -0.7976 -0.0155 -0.2711
  747MOL0     C98509  11.107   5.114   8.433  0.4281 -0.4954 -0.5716
  747MOL0     C98510  11.193   5.238   8.432 -0.1103 -0.7963 -0.2958
  747MOL0     C98511  11.325   5.211   8.350  0.0732  0.3095 -0.1562
  747MOL0     C98512  11.395   5.344   8.332 -0.1971  0.8349  0.2377
  747MOL0     C98513  11.537   5.323   8.278 -0.9670  0.0086 -0.2822
  747MOL0     C98514  11.614   5.458   8.295 -0.4441 -0.0018 -0.2486
  747MOL0     C98515  11.714   5.459   8.185 -0.3359 -0.1158  0.1124
  747MOL0    Cl98516  11.827   5.330   8.233 -0.1612 -0.2606  0.8496
  747MOL0     C98517  10.672   5.368   8.458  0.0155  0.2411  0.4636
  747MOL0     C98518  10.541   5.391   8.497 -0.4588  0.3723 -0.6064
  747MOL0     O98519  10.310   5.241   8.409  0.2982  0.4602 -0.6611
  747MOL0     C98520  10.030   5.290   8.449  0.0129  0.9912  0.0151
  747MOL0     C98521   9.889   5.287   8.483  0.3141  0.5826 -0.1780
  747MOL0     N98522   8.981   5.160   8.623 -0.2142  0.6969 -0.0387
  747MOL0     N98523   8.914   5.057   8.584 -0.3239 -0.5647  0.0684
  747MOL0     C98524   9.452   4.001   8.291  0.5594  0.4240  0.1403
  747MOL0     C98525   9.574   3.978   8.238 -0.1252  0.8605 -0.4300
  747MOL0     C98526  10.015   3.919   8.191 -0.6080  0.0901  0.9925
  747MOL0     C98527  10.093   4.031   8.187  0.0100  0.8806 -0.6966
  747MOL0     C98528  10.221   4.036   8.117 -0.3735 -0.0559 -0.7861
  747MOL0     C98529  10.270   3.920   8.065 -0.3807  0.6601  0.3010
  747MOL0     O98530  10.400   3.932   8.019  0.2773  0.7302 -0.0427
  747MOL0     C98531  10.482   3.810   8.009  0.9553 -0.8784 -0.9010
  747MOL0     C98532  10.626   3.839   7.972  0.0303 -1.9859  0.7089
  747MOL0     C98533  10.705   3.908   8.082 -0.3023  0.3157 -0.4538
  747MOL0     C98534  10.853   3.934   8.050  0.1908 -0.0962 -0.1159
  747MOL0     C98535  10.940   3.972   8.166 -0.1112  0.4438  1.2468
  747MOL0     C98536  11.006   3.987   8.264 -0.5561  0.5729  0.4134
  747MOL0     C98537  10.196   3.802   8.074 -0.0999 -0.8609  0.4308
  747MOL0     C98538  10.065   3.800   8.131 -0.2254  0.0004  0.0947
  747MOL0     H98539   9.763   4.156   8.446 -0.7125  0.3939  1.2890
  747MOL0     H98540   9.533   4.187   8.561  0.5725  1.3654 -1.4088
  747MOL0     H98541   9.161   3.975   8.401  0.1429  0.6730  0.6187
  747MOL0     H98542   9.174   4.105   8.287  2.3621  0.3900 -0.2013
  747MOL0     H98543   9.061   4.106   8.581 -1.5956  2.0864  0.8393
  747MOL0     H98544   8.968   4.128   8.433  1.7845  1.5626 -4.3662
  747MOL0     H98545   9.090   4.340   8.395  0.2424  1.5803  1.3446
  747MOL0     H98546   9.191   4.309   8.540  0.5689  0.8091 -1.1219
  747MOL0     H98547   8.900   4.362   8.555 -0.3612 -1.4234  0.3812
  747MOL0     H98548   9.005   4.342   8.694 -1.8556  0.3262  0.3687
  747MOL0     H98549   9.017   4.554   8.481  3.8693  3.0232  0.2600
  747MOL0     H98550   9.137   4.542   8.611  1.3160  0.7437 -3.2521
  747MOL0     H98551   8.936   4.559   8.771  2.2613 -1.8400 -0.1980
  747MOL0     H98552   8.843   4.585   8.617  0.7071 -0.5436 -1.6708
  747MOL0     H98553   8.885   4.806   8.716  1.0328  3.4742 -1.3209
  747MOL0     H98554   9.054   4.774   8.717 -0.0628 -0.5622  0.3420
  747MOL0     H98555   8.847   4.828   8.491 -0.8795  0.0488  1.0570
  747MOL0     H98556   9.016   4.773   8.443  1.6071 -1.6745  1.6672
  747MOL0     H98557   9.212   4.958   8.493  0.4732 -1.7348  1.8764
  747MOL0     H98558   9.239   5.189   8.742  2.1265 -0.5866 -0.3277
  747MOL0     H98559   9.194   5.307   8.629 -0.8603 -0.4045 -0.4000
  747MOL0     H98560   9.377   5.225   8.464 -0.8750  2.3417  0.8032
  747MOL0     H98561   9.391   5.085   8.564 -0.2331  0.3256 -1.6665
  747MOL0     H98562   9.480   5.373   8.652  0.7649  1.1601  1.6546
  747MOL0     H98563   9.483   5.228   8.754 -0.1955  4.2376  1.5944
  747MOL0     H98564   9.616   5.303   8.483 -2.0452  0.5319  0.2726
  747MOL0     H98565   9.622   5.139   8.533  0.7988 -0.3686  1.0044
  747MOL0     H98566   9.910   5.291   8.810  2.5748  1.7526  1.0807
  747MOL0     H98567  10.144   5.302   8.770  0.2140  0.5284 -0.4347
  747MOL0     H98568  10.516   5.148   8.719 -0.9591 -1.5226 -1.4113
  747MOL0     H98569  10.751   5.095   8.657  1.0860  0.9517  0.0878
  747MOL0     H98570  10.903   5.031   8.482  2.0276 -2.1226  0.4439
  747MOL0     H98571  10.969   5.122   8.616 -0.2780  2.0379 -0.2815
  747MOL0     H98572  11.093   5.080   8.330 -1.7360 -2.3678  0.2398
  747MOL0     H98573  11.161   5.038   8.490  0.5314  1.5018  2.1881
  747MOL0     H98574  11.210   5.274   8.534 -0.9383  0.2040 -0.4935
  747MOL0     H98575  11.145   5.326   8.388  0.3954 -0.2931  0.1551
  747MOL0     H98576  11.376   5.135   8.409 -1.8139 -0.4867  0.5483
  747MOL0     H98577  11.304   5.165   8.253 -1.3645  2.3674 -0.8892
  747MOL0     H98578  11.407   5.401   8.425  1.1274  1.3959 -0.2487
  747MOL0     H98579  11.351   5.405   8.252 -0.3170  0.2822 -0.1201
  747MOL0     H98580  11.529   5.285   8.176 -0.6704 -1.5070  0.2297
  747MOL0     H98581  11.575   5.243   8.342  0.7623 -1.8305 -3.3627
  747MOL0     H98582  11.548   5.545   8.291 -1.3209 -0.6792 -0.9390
  747MOL0     H98583  11.684   5.472   8.378 -0.1387  0.9262 -0.6508
  747MOL0     H98584  11.770   5.552   8.175  1.5115 -1.3745 -2.6865
  747MOL0     H98585  11.667   5.441   8.087  1.4635 -1.1451 -0.6117
  747MOL0     H98586  10.723   5.420   8.377  0.3057  1.0394  1.1457
  747MOL0     H98587  10.468   5.456   8.448 -0.0965  2.2687  1.1804
  747MOL0     H98588  10.052   5.263   8.346 -0.4339 -0.7187  0.3241
  747MOL0     H98589   9.824   5.267   8.398  2.5609 -0.2500 -1.8107
  747MOL0     H98590   9.367   3.961   8.237  1.0293  1.0306 -1.0774
  747MOL0     H98591   9.581   3.911   8.152 -1.2849 -2.3007  1.7655
  747MOL0     H98592  10.044   4.121   8.224 -2.7917 -0.8057 -0.0155
  747MOL0     H98593  10.284   4.124   8.110 -2.2351  1.2773 -1.7430
  747MOL0     H98594  10.436   3.746   7.932 -1.5715  1.8303 -1.8202
  747MOL0     H98595  10.478   3.751   8.101 -1.5922 -2.1731 -1.7440
  747MOL0     H98596  10.676   3.743   7.956  0.8018 -1.4313 -0.2761
  747MOL0     H98597  10.635   3.887   7.875 -0.1220  0.0717  1.6630
  747MOL0     H98598  10.709   3.825   8.154  4.8042  0.0141 -0.7351
  747MOL0     H98599  10.659   3.997   8.126 -1.9872  0.1277 -1.7213
  747MOL0     H98600  10.892   3.844   8.001  0.6205  1.7699 -3.4515
  747MOL0     H98601  10.864   4.015   7.979  3.0722  0.1636  0.4839
  747MOL0     H98602  11.061   4.009   8.353  1.9623  1.0005 -1.1563
  747MOL0     H98603  10.230   3.706   8.038  0.1094 -1.0506  1.1125
  747MOL0     H98604  10.010   3.707   8.127 -0.5792  0.2452 -1.5357
  748MOL0     O98605   0.441  10.969   9.289 -0.6423  0.0372  0.0529
  748MOL0     C98606   0.464  10.851   9.264 -0.5097 -0.3242 -0.5412
  748MOL0     O98607   0.371  10.762   9.226  0.1348 -0.5200  0.6968
  748MOL0     C98608   0.244  10.815   9.199  0.0542 -0.5523  0.7347
  748MOL0     C98609   0.210  10.859   9.069 -0.1897  0.3663  0.0168
  748MOL0     C98610   0.083  10.904   9.050 -0.0138  0.2933  0.8377
  748MOL0     C98611  -0.011  10.906   9.156 -0.2137 -0.0588 -0.0724
  748MOL0     O98612  -0.142  10.961   9.145  0.4721  0.4821  0.7291
  748MOL0     C98613  -0.213  10.971   9.017 -0.4213  0.2980 -0.5370
  748MOL0     C98614  -0.245  10.840   8.954 -0.4915  0.0631  0.1451
  748MOL0     C98615  -0.324  10.745   9.051 -0.2627 -0.6390  0.5451
  748MOL0     C98616  -0.331  10.599   8.999 -0.8245 -0.3963 -0.4604
  748MOL0     C98617  -0.194  10.529   8.986  0.8524  0.4754 -0.6615
  748MOL0     C98618  -0.100  10.536   9.103 -0.1380 -0.6166 -0.0690
  748MOL0     C98619   0.005  10.423   9.078  0.2468 -0.5368  0.2774
  748MOL0     C98620   0.104  10.480   8.973  0.0765  0.5522  0.5764
  748MOL0     N98621   0.208  10.374   8.959 -0.3742  0.2290 -0.2715
  748MOL0     C98622   0.331  10.368   9.020  0.5312  0.9818 -0.1418
  748MOL0     C98623   0.387  10.246   8.982 -0.6285 -0.9384  0.0150
  748MOL0     C98624   0.519  10.184   9.028 -0.3095 -0.4739  0.0855
  748MOL0     C98625   0.643  10.266   9.003 -0.2583  0.2472 -0.4962
  748MOL0     C98626   0.767  10.182   9.033 -0.2606  0.2242 -0.0457
  748MOL0     C98627   0.895  10.257   9.058  0.2638  0.2622  0.4127
  748MOL0     O98628   0.991  10.156   9.042 -1.3212 -0.2387  0.8755
  748MOL0     C98629   1.123  10.188   9.061 -0.2517  0.5185  0.0814
  748MOL0     C98630   1.171  10.319   9.065 -0.6069 -0.0993  0.2394
  748MOL0     C98631   1.305  10.338   9.074 -0.7437  0.7852  0.1256
  748MOL0     C98632   1.394  10.232   9.112 -0.3258  0.1141 -0.3232
  748MOL0     C98633   1.542  10.263   9.130  0.4178  0.4624  0.3070
  748MOL0     O98634   1.616  10.159   9.194  0.4360 -0.2355  0.4569
  748MOL0     C98635   1.747  10.153   9.149  0.1520 -0.7311 -0.4185
  748MOL0     C98636   1.852  10.173   9.235 -0.0020  0.1131  0.1306
  748MOL0     C98637   1.982  10.158   9.192 -0.6526  0.1155  0.8106
  748MOL0     C98638   2.015  10.121   9.063 -1.0045 -0.0215 -0.3954
  748MOL0     O98639   2.139  10.089   9.018 -0.2006  0.3814 -0.0782
  748MOL0     C98640   2.259  10.149   9.068 -0.1984  1.1954 -0.2108
  748MOL0     C98641   2.387  10.060   9.016  0.3704 -0.4826  1.0192
  748MOL0     C98642   2.491  10.152   8.946  0.8028  0.3959 -0.1819
  748MOL0     C98643   2.568  10.064   8.850 -0.9734 -0.0329 -0.6376
  748MOL0     C98644   2.676  10.152   8.778  0.4430 -0.2083  0.6677
  748MOL0     C98645   2.726  10.077   8.656 -0.4296  0.4328  0.0775
  748MOL0     C98646   2.870  10.131   8.615  0.0243 -0.5653 -0.5819
  748MOL0     C98647   2.933  10.046   8.498 -0.2677 -1.5132  0.3440
  748MOL0    Cl98648   3.082  10.133   8.451  0.2317 -0.1266 -0.1645
  748MOL0     C98649   1.909  10.109   8.971 -0.0544 -0.1687  0.4009
  748MOL0     C98650   1.776  10.122   9.016 -0.1466 -0.9607  0.6067
  748MOL0     O98651   1.590  10.370   9.082  0.7196 -0.5329  0.1429
  748MOL0     C98652   1.348  10.109   9.115  2.1209 -0.0741  0.5456
  748MOL0     C98653   1.213  10.086   9.086  0.4674  0.3551  0.2377
  748MOL0     N98654   0.285  10.183   8.906 -0.5261  0.3394  0.0072
  748MOL0     N98655   0.187  10.262   8.889 -0.0740 -0.6551  0.1821
  748MOL0     C98656   0.034  10.883   9.286  0.9522  0.6891 -0.1107
  748MOL0     C98657   0.162  10.841   9.312  0.2496 -0.0828  0.2978
  748MOL0     C98658   0.609  10.801   9.264  0.1924 -0.5436 -0.0622
  748MOL0     C98659   0.708  10.874   9.330  0.3255  0.5410  0.2855
  748MOL0     C98660   0.844  10.838   9.327  0.1884  0.4059  1.1985
  748MOL0     C98661   0.884  10.717   9.275 -0.1931  0.7661  0.4911
  748MOL0     O98662   1.005  10.666   9.257 -0.8115  0.1959 -0.1630
  748MOL0     C98663   1.116  10.759   9.284  1.1722 -0.3087 -0.7062
  748MOL0     C98664   1.236  10.694   9.236  0.0543 -0.3922  0.7010
  748MOL0     C98665   1.350  10.795   9.230 -0.3017  0.3542  1.2763
  748MOL0     C98666   1.487  10.747   9.168 -0.5814  0.1876 -0.0714
  748MOL0     C98667   1.551  10.669   9.272  0.7913  1.0575  0.4154
  748MOL0     C98668   1.610  10.590   9.356  0.2378 -0.5768  0.1908
  748MOL0     C98669   0.784  10.644   9.208 -1.5017  0.0573  0.3277
  748MOL0     C98670   0.651  10.680   9.197  0.4813 -0.0374 -0.9036
  748MOL0     H98671   0.284  10.845   8.990 -0.9980 -0.5200 -0.6051
  748MOL0     H98672   0.052  10.932   8.950  0.4388  0.2992  0.6953
  748MOL0     H98673  -0.143  11.023   8.951  2.9024 -3.4326 -0.3417
  748MOL0     H98674  -0.301  11.036   9.027  1.4358  2.7730  0.8930
  748MOL0     H98675  -0.155  10.787   8.921 -0.5211  0.9850 -1.4971
  748MOL0     H98676  -0.310  10.858   8.868  0.6576 -0.2300 -0.8074
  748MOL0     H98677  -0.426  10.778   9.069 -0.8985 -0.9410 -2.0774
  748MOL0     H98678  -0.279  10.752   9.150 -2.6649 -2.0041  1.8162
  748MOL0     H98679  -0.388  10.549   9.078 -0.7136  1.2496  0.7131
  748MOL0     H98680  -0.381  10.595   8.902 -2.4897 -0.2963  0.3564
  748MOL0     H98681  -0.144  10.578   8.902  2.9993 -0.8278 -0.2084
  748MOL0     H98682  -0.235  10.430   8.965 -3.0338  0.8601  3.3943
  748MOL0     H98683  -0.153  10.521   9.197 -1.1253 -0.3742 -0.5808
  748MOL0     H98684  -0.055  10.635   9.101  0.3001 -0.8030 -2.7214
  748MOL0     H98685   0.064  10.407   9.169  1.1091  1.4259  0.1137
  748MOL0     H98686  -0.039  10.330   9.040  4.3386 -0.9736 -4.4539
  748MOL0     H98687   0.149  10.578   8.992 -0.3812  1.2727 -1.7869
  748MOL0     H98688   0.061  10.494   8.873 -1.5307 -1.4184  0.9307
  748MOL0     H98689   0.374  10.435   9.094  0.5138  0.5091  0.3013
  748MOL0     H98690   0.540  10.095   8.968  1.1919  0.2415 -0.4943
  748MOL0     H98691   0.512  10.157   9.134 -1.3527  1.8552  0.6843
  748MOL0     H98692   0.630  10.356   9.064 -1.1875 -1.4679  1.9771
  748MOL0     H98693   0.656  10.289   8.897 -1.4251 -2.2112 -1.2418
  748MOL0     H98694   0.750  10.115   9.118 -3.7084 -0.7996 -1.4011
  748MOL0     H98695   0.789  10.121   8.945  2.8954  3.4851 -1.8168
  748MOL0     H98696   0.898  10.314   9.151 -1.3796 -0.8797  1.2192
  748MOL0     H98697   0.915  10.330   8.979 -0.6011  0.5561  0.4575
  748MOL0     H98698   1.114  10.407   9.038  2.4212  2.4588  1.6073
  748MOL0     H98699   1.343  10.438   9.061 -1.7793  1.5610  2.5209
  748MOL0     H98700   1.832  10.198   9.339  1.9634 -0.3890  0.6771
  748MOL0     H98701   2.060  10.151   9.267  0.5229 -2.3401 -0.5234
  748MOL0     H98702   2.255  10.142   9.177 -0.5860  2.1767 -0.1475
  748MOL0     H98703   2.266  10.255   9.042  0.0585  1.1455 -0.3582
  748MOL0     H98704   2.353   9.979   8.950  1.0442 -0.2520  0.3668
  748MOL0     H98705   2.437  10.004   9.096  0.8979  0.1331  1.1265
  748MOL0     H98706   2.542  10.199   9.030 -1.8421  1.2259  1.0927
  748MOL0     H98707   2.442  10.232   8.889 -0.6190 -1.0404 -1.0468
  748MOL0     H98708   2.614   9.984   8.908  0.0070 -0.6553 -2.2185
  748MOL0     H98709   2.504  10.038   8.765 -0.3809 -0.4024 -0.9802
  748MOL0     H98710   2.755  10.184   8.847 -2.3421  3.9730  2.3798
  748MOL0     H98711   2.629  10.242   8.736 -0.2560 -0.9562 -0.1963
  748MOL0     H98712   2.654  10.074   8.574 -0.7179  0.0592  0.3399
  748MOL0     H98713   2.746   9.974   8.684 -2.5330  0.0823  0.5001
  748MOL0     H98714   2.866  10.238   8.591  2.4453  0.0939  1.5242
  748MOL0     H98715   2.942  10.129   8.697 -1.3707  2.4153  0.8804
  748MOL0     H98716   2.862  10.023   8.418  0.2135 -1.3642 -0.1337
  748MOL0     H98717   2.968   9.948   8.533 -0.7562 -0.5880  3.8371
  748MOL0     H98718   1.920  10.071   8.870  0.8452  1.0003  0.0343
  748MOL0     H98719   1.691  10.102   8.952  0.6568 -0.3729 -0.7020
  748MOL0     H98720   1.406  10.021   9.142  0.8402 -0.4570  2.2269
  748MOL0     H98721   1.162   9.991   9.080 -2.3783  1.4986  3.1717
  748MOL0     H98722  -0.039  10.904   9.363 -0.0054 -2.3878 -0.0380
  748MOL0     H98723   0.198  10.814   9.410  2.2039 -1.4420 -0.7344
  748MOL0     H98724   0.686  10.968   9.379 -0.8490  0.9485 -0.9578
  748MOL0     H98725   0.926  10.900   9.364  3.0052 -2.2466 -0.1145
  748MOL0     H98726   1.114  10.785   9.391 -0.7194 -0.0831 -0.7544
  748MOL0     H98727   1.081  10.848   9.231 -2.9581  0.2766  2.4565
  748MOL0     H98728   1.258  10.598   9.283  0.2301 -1.1569 -0.8995
  748MOL0     H98729   1.216  10.673   9.131 -2.1997  0.1363  0.9728
  748MOL0     H98730   1.367  10.834   9.331  1.7468  0.4917  0.9202
  748MOL0     H98731   1.315  10.874   9.162  2.0810  1.7715  1.5855
  748MOL0     H98732   1.454  10.674   9.093  1.2418  1.1057 -1.8794
  748MOL0     H98733   1.552  10.825   9.128 -0.7790 -0.7742 -2.4916
  748MOL0     H98734   1.643  10.518   9.428 -1.5408 -0.3622  1.2833
  748MOL0     H98735   0.815  10.563   9.141 -1.4846  1.1654 -1.0471
  748MOL0     H98736   0.582  10.618   9.141 -0.6559  0.1586  0.2232
  749MOL0     O98737   8.145   1.728  10.353 -0.0498 -0.1255  0.4536
  749MOL0     C98738   8.092   1.836  10.374  0.0826 -0.7584 -0.2080
  749MOL0     O98739   8.006   1.861  10.475  0.3438 -0.1320 -0.1008
  749MOL0     C98740   7.996   1.770  10.570 -0.0189 -0.5012 -0.2807
  749MOL0     C98741   8.090   1.731  10.666 -0.2238 -0.9358 -0.5573
  749MOL0     C98742   8.058   1.630  10.765  1.0138  0.4488  0.3307
  749MOL0     C98743   7.930   1.573  10.758  0.9622 -0.2172 -0.0588
  749MOL0     O98744   7.892   1.471  10.832  0.6089  0.6556 -0.1039
  749MOL0     C98745   7.884   1.499  10.967  0.3325 -0.0726  0.0991
  749MOL0     C98746   7.746   1.569  11.008 -0.1354  0.7122 -0.9719
  749MOL0     C98747   7.626   1.481  10.982 -0.7954  0.1510 -0.0787
  749MOL0     C98748   7.504   1.552  11.020  0.8552  0.7451 -0.2420
  749MOL0     C98749   7.379   1.468  10.990  0.1187 -0.2998  0.5613
  749MOL0     C98750   7.245   1.540  11.027  0.1633  0.7643  0.6346
  749MOL0     C98751   7.128   1.432  11.027  1.3663 -0.9890  0.4754
  749MOL0     C98752   6.986   1.507  11.030 -0.2519  0.5349  0.1829
  749MOL0     N98753   6.872   1.415  11.069  0.6808  0.4031 -0.0549
  749MOL0     C98754   6.780   1.431  11.161 -0.0212 -0.1181 -0.3372
  749MOL0     C98755   6.693   1.335  11.152  0.1220  0.3347 -0.0682
  749MOL0     C98756   6.597   1.306  11.261 -0.4989  0.5891  0.1685
  749MOL0     C98757   6.462   1.261  11.192 -0.5130 -0.4578  0.4110
  749MOL0     C98758   6.372   1.192  11.301 -0.7638  0.4842  0.4572
  749MOL0     C98759   6.332   1.288  11.414 -0.1566 -0.1916 -0.4066
  749MOL0     O98760   6.231   1.381  11.370 -0.7045  0.1379  0.3066
  749MOL0     C98761   6.102   1.333  11.381 -0.0986 -0.2838  0.6862
  749MOL0     C98762   6.006   1.426  11.349  0.5544 -0.4379 -0.0168
  749MOL0     C98763   5.871   1.399  11.348 -0.1333  0.2470  0.4875
  749MOL0     C98764   5.822   1.266  11.375 -0.2131 -0.4598 -0.6913
  749MOL0     C98765   5.679   1.237  11.349  0.4643 -0.9244 -0.2825
  749MOL0     O98766   5.631   1.123  11.410  0.2092 -0.3559  0.1729
  749MOL0     C98767   5.499   1.096  11.395 -0.6147  0.3521 -0.0369
  749MOL0     C98768   5.461   1.009  11.291 -0.5737 -0.9831  1.0971
  749MOL0     C98769   5.328   0.987  11.263 -0.1842  0.0508 -0.5238
  749MOL0     C98770   5.229   1.036  11.337  0.4260  0.0275  0.1785
  749MOL0     O98771   5.101   0.991  11.301 -0.3459 -0.0184 -0.1994
  749MOL0     C98772   4.985   1.002  11.389 -0.1304  0.9954  0.2873
  749MOL0     C98773   4.986   0.939  11.529 -0.3206  0.1721 -0.9160
  749MOL0     C98774   4.849   0.953  11.598 -0.0058 -0.7146 -0.0691
  749MOL0     C98775   4.859   0.898  11.742  1.0802  0.1619  0.4879
  749MOL0     C98776   4.736   0.915  11.831  0.2066  0.1374 -0.9155
  749MOL0     C98777   4.619   0.833  11.788  0.5593 -0.6411 -0.8850
  749MOL0     C98778   4.494   0.868  11.862 -0.5186 -0.2655  0.9698
  749MOL0     C98779   4.406   0.740  11.875  1.2923  0.2661  0.2358
  749MOL0    Cl98780   4.349   0.663  11.724 -0.5155  0.2905 -0.0206
  749MOL0     C98781   5.267   1.118  11.448  0.5028  0.7220  0.6482
  749MOL0     C98782   5.403   1.148  11.478 -0.2250  0.6036 -0.4983
  749MOL0     O98783   5.609   1.324  11.282 -0.5316  0.5095  0.1503
  749MOL0     C98784   5.913   1.176  11.416  0.8979  0.0299  0.3979
  749MOL0     C98785   6.056   1.205  11.421  1.1488 -0.6851 -0.0284
  749MOL0     N98786   6.726   1.251  11.049 -0.3643  0.5972  0.5658
  749MOL0     N98787   6.834   1.308  10.998  0.5120  0.6577  0.2258
  749MOL0     C98788   7.843   1.602  10.658  0.4075 -0.0041  0.2741
  749MOL0     C98789   7.865   1.709  10.567  0.1689 -0.3720  1.0180
  749MOL0     C98790   8.123   1.960  10.284 -0.0109  0.4731  0.4589
  749MOL0     C98791   8.044   2.077  10.295  0.1119  0.4906 -0.3719
  749MOL0     C98792   8.085   2.193  10.210  0.1468 -0.4078 -0.6576
  749MOL0     C98793   8.201   2.185  10.134  0.4005 -0.3249 -0.4914
  749MOL0     O98794   8.237   2.309  10.077 -0.0683 -0.0266 -0.5862
  749MOL0     C98795   8.315   2.308   9.953 -0.5193  0.3216 -1.0913
  749MOL0     C98796   8.365   2.445   9.906 -0.0089  1.1647 -0.9983
  749MOL0     C98797   8.434   2.426   9.774 -0.3435  0.3508 -0.3915
  749MOL0     C98798   8.462   2.561   9.705 -0.5757  0.2437 -0.2356
  749MOL0     C98799   8.349   2.613   9.627  0.0330  0.2818  0.1402
  749MOL0     C98800   8.249   2.629   9.570 -0.1320  0.2193  0.0423
  749MOL0     C98801   8.273   2.066  10.131 -0.3388  0.5333 -0.6034
  749MOL0     C98802   8.242   1.960  10.207  0.1702  0.5156  0.0706
  749MOL0     H98803   8.191   1.773  10.666 -1.4944  2.6228  2.0584
  749MOL0     H98804   8.130   1.597  10.839  0.5822 -1.5061 -0.0557
  749MOL0     H98805   7.966   1.546  11.021 -0.2207  0.1128  0.7962
  749MOL0     H98806   7.873   1.397  11.004 -1.3672  0.2024  0.4387
  749MOL0     H98807   7.727   1.660  10.950 -2.0380  0.3855 -0.9264
  749MOL0     H98808   7.747   1.600  11.113  1.9441  0.6577 -0.9179
  749MOL0     H98809   7.637   1.386  11.035  0.5246  0.6872  0.6467
  749MOL0     H98810   7.626   1.455  10.876  0.6176 -1.4953  0.2922
  749MOL0     H98811   7.516   1.560  11.128  2.5629  3.3435 -0.5405
  749MOL0     H98812   7.502   1.649  10.968 -0.9847  0.5915 -0.5236
  749MOL0     H98813   7.375   1.370  11.038 -3.7196 -1.1793 -1.2145
  749MOL0     H98814   7.379   1.459  10.881 -1.7710  0.6155  0.4473
  749MOL0     H98815   7.212   1.606  10.946  1.7808  3.6578  2.1638
  749MOL0     H98816   7.247   1.587  11.126 -2.1652  1.5681  0.3489
  749MOL0     H98817   7.122   1.373  10.935 -0.5553 -2.1682  1.3021
  749MOL0     H98818   7.126   1.355  11.105 -0.7875  0.1651  1.6495
  749MOL0     H98819   6.962   1.560  10.938 -0.9578 -1.4244 -0.8139
  749MOL0     H98820   6.991   1.581  11.111 -0.6530  0.3662  0.3654
  749MOL0     H98821   6.780   1.508  11.237  0.5961  0.4456 -0.8886
  749MOL0     H98822   6.589   1.400  11.317 -1.7648  1.0896 -0.8150
  749MOL0     H98823   6.636   1.229  11.329 -1.5151  0.6651  0.8609
  749MOL0     H98824   6.484   1.187  11.115 -0.0376 -0.9010  0.9647
  749MOL0     H98825   6.408   1.346  11.149 -0.7969 -0.1979  1.2634
  749MOL0     H98826   6.284   1.142  11.259 -0.5781 -2.1567  2.9256
  749MOL0     H98827   6.421   1.103  11.341  0.4166  0.3218 -1.2901
  749MOL0     H98828   6.425   1.339  11.440 -1.1066  1.0949  0.6361
  749MOL0     H98829   6.306   1.235  11.506  1.0481 -1.2260 -0.6319
  749MOL0     H98830   6.041   1.526  11.323  0.7636  0.2283  2.6105
  749MOL0     H98831   5.794   1.471  11.323  0.3656  0.4269 -0.6244
  749MOL0     H98832   5.532   0.962  11.224 -1.4362  0.4350 -0.8984
  749MOL0     H98833   5.299   0.924  11.180 -0.1924 -0.9614  0.2276
  749MOL0     H98834   4.896   0.977  11.332  0.5326 -2.8843  0.6921
  749MOL0     H98835   4.982   1.109  11.412  0.7973  1.0376  0.2583
  749MOL0     H98836   5.068   0.978  11.590 -0.8145  2.1971 -1.4885
  749MOL0     H98837   5.002   0.832  11.512  0.5955 -0.2219  1.8741
  749MOL0     H98838   4.785   0.881  11.546 -1.6235  1.0202 -0.6084
  749MOL0     H98839   4.801   1.051  11.590 -2.0259 -1.5003  1.5584
  749MOL0     H98840   4.883   0.794  11.722  0.6195 -0.6373  3.5739
  749MOL0     H98841   4.947   0.939  11.792  1.8943 -2.6577  1.5372
  749MOL0     H98842   4.717   1.023  11.829 -0.9870  0.0397 -5.4525
  749MOL0     H98843   4.772   0.888  11.930 -1.8184 -1.5982 -0.5856
  749MOL0     H98844   4.646   0.727  11.790 -0.8904 -1.2185 -4.1799
  749MOL0     H98845   4.592   0.856  11.684  2.3578  0.6821 -1.1073
  749MOL0     H98846   4.531   0.915  11.954  2.4786  0.1848 -0.3442
  749MOL0     H98847   4.442   0.946  11.804  0.6779  0.3896  0.7290
  749MOL0     H98848   4.319   0.762  11.938  1.2711 -0.7774  0.5894
  749MOL0     H98849   4.460   0.662  11.931  0.4202 -1.6053 -1.4066
  749MOL0     H98850   5.188   1.150  11.516 -0.2904 -1.2398  0.7030
  749MOL0     H98851   5.443   1.206  11.560  0.8059 -0.0394 -0.5255
  749MOL0     H98852   5.872   1.076  11.419 -0.5944  0.4225 -2.9334
  749MOL0     H98853   6.126   1.126  11.446  2.8604  1.0048  0.8214
  749MOL0     H98854   7.740   1.567  10.650  0.2112  0.4272  0.8249
  749MOL0     H98855   7.785   1.743  10.501  0.9060  2.9317  1.6746
  749MOL0     H98856   7.955   2.083  10.355  2.3762 -0.7829  3.4585
  749MOL0     H98857   8.032   2.288  10.216  1.7208  0.4984 -0.6682
  749MOL0     H98858   8.263   2.256   9.872  0.2674 -0.6903 -0.9593
  749MOL0     H98859   8.402   2.246   9.975 -2.2633 -1.6146  0.8426
  749MOL0     H98860   8.283   2.514   9.885 -1.6081 -0.5228 -0.5995
  749MOL0     H98861   8.433   2.478   9.985 -0.4109 -1.8100  0.7515
  749MOL0     H98862   8.375   2.361   9.709 -0.6118  0.9124 -0.7230
  749MOL0     H98863   8.526   2.370   9.796 -2.1065 -2.2582  0.8442
  749MOL0     H98864   8.471   2.628   9.792 -2.2949  0.0704  0.1139
  749MOL0     H98865   8.552   2.544   9.647 -0.3045  2.3478 -0.5216
  749MOL0     H98866   8.155   2.649   9.522  1.6050  4.3184 -2.2036
  749MOL0     H98867   8.370   2.064  10.082 -0.2055 -0.1427 -0.3311
  749MOL0     H98868   8.314   1.878  10.210  0.0194  0.3159  4.5633
  750MOL0     O98869   9.330   6.713   3.626 -0.2838  0.3671  0.5775
  750MOL0     C98870   9.288   6.760   3.724  0.0254  0.3927 -0.5363
  750MOL0     O98871   9.346   6.751   3.849 -0.0601  0.5804 -0.3107
  750MOL0     C98872   9.477   6.698   3.859 -0.3212  0.6673 -0.4824
  750MOL0     C98873   9.507   6.631   3.982  0.5210  0.0168  0.0247
  750MOL0     C98874   9.638   6.568   4.007 -0.5382  0.3210  0.9796
  750MOL0     C98875   9.743   6.595   3.916 -0.3519  0.2106 -0.1140
  750MOL0     O98876   9.874   6.548   3.941  1.2019  0.5816 -0.7499
  750MOL0     C98877   9.988   6.633   3.912  0.4275  0.2061  0.9651
  750MOL0     C98878  10.116   6.555   3.943 -0.4899 -0.5645 -0.9845
  750MOL0     C98879  10.151   6.542   4.098 -0.2423  0.0568 -0.2141
  750MOL0     C98880  10.278   6.458   4.126 -0.0938  0.4328  1.1582
  750MOL0     C98881  10.308   6.447   4.275 -0.6336  0.6604 -0.2731
  750MOL0     C98882  10.455   6.454   4.305 -0.0030 -0.2545 -0.1391
  750MOL0     C98883  10.522   6.318   4.311 -0.5827  0.1420  0.0997
  750MOL0     C98884  10.477   6.226   4.435  0.3583 -0.4871  0.6157
  750MOL0     N98885  10.573   6.121   4.455  0.7379 -0.1213 -0.0823
  750MOL0     C98886  10.657   6.111   4.564  0.0370 -0.9887 -0.0572
  750MOL0     C98887  10.730   6.000   4.544  0.2834 -0.4313 -0.4653
  750MOL0     C98888  10.819   5.959   4.654 -0.3736  0.7164  0.0412
  750MOL0     C98889  10.943   5.886   4.596  1.0678  0.3366  0.1761
  750MOL0     C98890  11.022   5.825   4.712 -0.4036 -0.6551 -0.1432
  750MOL0     C98891  11.123   5.727   4.648  0.6160  0.5249  0.7962
  750MOL0     O98892  11.205   5.660   4.751  1.4853  0.4454  0.0239
  750MOL0     C98893  11.314   5.587   4.718 -0.2711  1.3600 -0.4715
  750MOL0     C98894  11.354   5.505   4.823 -0.7579 -0.9371  0.2902
  750MOL0     C98895  11.482   5.446   4.822  0.9883 -0.1606  0.3017
  750MOL0     C98896  11.557   5.445   4.699  0.9878 -0.0897  0.0644
  750MOL0     C98897  11.687   5.387   4.699 -0.1034 -0.4082 -0.4972
  750MOL0     O98898  11.743   5.340   4.820  0.2324 -0.0240 -0.0436
  750MOL0     C98899  11.864   5.280   4.836 -0.2802 -0.7847 -0.7081
  750MOL0     C98900  11.937   5.215   4.737  0.1698 -0.6232  0.1045
  750MOL0     C98901  12.068   5.172   4.757 -0.3192  0.1810 -0.3705
  750MOL0     C98902  12.122   5.164   4.888 -0.3532 -0.0671  0.0120
  750MOL0     O98903  12.245   5.123   4.930 -0.2171 -0.0310 -0.5829
  750MOL0     C98904  12.309   5.035   4.836  0.3387 -0.1609 -0.4266
  750MOL0     C98905  12.428   4.970   4.906 -0.6187 -0.0904 -1.0545
  750MOL0     C98906  12.486   4.853   4.815 -0.0129  0.0446  0.1337
  750MOL0     C98907  12.605   4.790   4.892  0.4456 -0.1759  0.8639
  750MOL0     C98908  12.690   4.686   4.807 -0.0301 -0.8506  0.1489
  750MOL0     C98909  12.607   4.560   4.769  0.6314 -0.8958  0.2002
  750MOL0     C98910  12.531   4.494   4.887 -0.9189  0.1387 -0.9817
  750MOL0     C98911  12.462   4.364   4.851  0.4985  0.2342  0.5042
  750MOL0    Cl98912  12.374   4.319   5.007  0.0746  0.0143 -0.0176
  750MOL0     C98913  12.040   5.212   4.992  0.4503 -0.5882 -0.3565
  750MOL0     C98914  11.913   5.269   4.967 -0.3627 -0.2787 -0.1357
  750MOL0     O98915  11.747   5.383   4.590 -0.5751  0.8337 -0.0810
  750MOL0     C98916  11.512   5.514   4.589  0.5818 -0.1060  0.6034
  750MOL0     C98917  11.389   5.591   4.595  0.2780  0.4161 -0.6374
  750MOL0     N98918  10.709   5.952   4.422 -0.2382 -0.0814  0.7942
  750MOL0     N98919  10.606   6.020   4.364  0.2975  0.2220  0.0956
  750MOL0     C98920   9.705   6.661   3.797  0.3647  1.0462  0.5848
  750MOL0     C98921   9.583   6.701   3.766 -0.0781 -0.1213  1.4531
  750MOL0     C98922   9.161   6.824   3.711 -0.3662 -0.8612  0.3291
  750MOL0     C98923   9.097   6.821   3.586 -1.0448  0.6301 -0.0550
  750MOL0     C98924   8.964   6.861   3.574 -0.1371  0.5308 -0.3957
  750MOL0     C98925   8.888   6.903   3.683 -0.1304 -0.8103 -0.4726
  750MOL0     O98926   8.752   6.918   3.670 -0.5987 -0.2683 -0.0522
  750MOL0     C98927   8.674   6.953   3.786  0.0444  0.7701  0.0599
  750MOL0     C98928   8.534   6.991   3.737  0.8784  0.2978 -0.6068
  750MOL0     C98929   8.432   6.877   3.717 -0.6748  0.4330 -0.8836
  750MOL0     C98930   8.350   6.851   3.840 -0.7528  1.5293 -0.6683
  750MOL0     C98931   8.261   6.950   3.876 -0.0102 -0.5965 -0.2494
  750MOL0     C98932   8.197   7.051   3.891 -0.9458  0.9955 -0.0723
  750MOL0     C98933   8.956   6.924   3.809  0.2459  0.0019 -0.5079
  750MOL0     C98934   9.094   6.885   3.822 -0.8832 -0.4628  0.0260
  750MOL0     H98935   9.425   6.631   4.053  0.4527 -0.3155 -0.0497
  750MOL0     H98936   9.664   6.523   4.102 -0.7636 -1.6805  0.1441
  750MOL0     H98937   9.979   6.729   3.964  0.8683 -0.6608  2.7426
  750MOL0     H98938   9.991   6.663   3.807 -1.6879  3.2763  1.6450
  750MOL0     H98939  10.201   6.614   3.908 -1.0640  0.6488 -0.3751
  750MOL0     H98940  10.111   6.463   3.883 -3.9027 -0.3081 -1.2956
  750MOL0     H98941  10.066   6.485   4.137  0.0721 -0.9777 -1.0054
  750MOL0     H98942  10.151   6.637   4.153 -0.7327 -1.8661  3.4335
  750MOL0     H98943  10.262   6.352   4.102  0.5822  0.9303 -2.0513
  750MOL0     H98944  10.360   6.498   4.066 -1.4276  1.7156  0.1094
  750MOL0     H98945  10.262   6.359   4.321  0.2153  0.9605  1.2245
  750MOL0     H98946  10.264   6.539   4.314  1.9352  0.7543  2.7914
  750MOL0     H98947  10.461   6.499   4.404  1.4558  1.0090 -0.7677
  750MOL0     H98948  10.508   6.521   4.237 -1.7197 -1.4580 -2.8292
  750MOL0     H98949  10.502   6.274   4.213  0.1590 -0.8015  0.3610
  750MOL0     H98950  10.631   6.323   4.314 -0.2992 -2.4695 -2.1457
  750MOL0     H98951  10.382   6.177   4.411  0.4344 -0.5596  0.4669
  750MOL0     H98952  10.471   6.285   4.527 -1.3780  3.6864 -1.8850
  750MOL0     H98953  10.663   6.173   4.653  2.3337  0.0629 -0.8726
  750MOL0     H98954  10.765   5.892   4.722  2.5190 -2.4822 -0.5574
  750MOL0     H98955  10.854   6.052   4.700  0.2299  0.9104 -0.8008
  750MOL0     H98956  11.008   5.947   4.533  1.8296  0.4374  1.0338
  750MOL0     H98957  10.912   5.800   4.536  1.6866 -2.1334  3.1142
  750MOL0     H98958  11.084   5.899   4.764 -2.9919 -1.1314  4.0787
  750MOL0     H98959  10.960   5.778   4.789 -0.5415 -1.1559 -0.5529
  750MOL0     H98960  11.187   5.783   4.579  2.6650 -3.5361 -0.9224
  750MOL0     H98961  11.068   5.651   4.591 -0.2710  0.2424  1.9797
  750MOL0     H98962  11.301   5.504   4.918  0.2822 -0.3303  0.9011
  750MOL0     H98963  11.511   5.406   4.919  0.6795  1.2054  0.9764
  750MOL0     H98964  11.899   5.192   4.638  2.7657 -0.2761 -1.0451
  750MOL0     H98965  12.129   5.140   4.673 -1.5372  1.2978 -1.7478
  750MOL0     H98966  12.355   5.085   4.751  2.8794 -3.2827 -1.0909
  750MOL0     H98967  12.254   4.951   4.792  0.2392 -0.5303  0.3860
  750MOL0     H98968  12.411   4.926   5.005 -0.3673 -0.7623 -1.3064
  750MOL0     H98969  12.500   5.052   4.911 -1.4341  0.6820 -1.5229
  750MOL0     H98970  12.525   4.891   4.720  0.5592  2.1763  1.1667
  750MOL0     H98971  12.404   4.781   4.807 -0.3174  0.3117  0.8119
  750MOL0     H98972  12.676   4.870   4.912  0.5475 -0.3885  1.3650
  750MOL0     H98973  12.574   4.741   4.984 -0.6102 -0.3925  0.4083
  750MOL0     H98974  12.779   4.660   4.865  0.1399 -0.6624 -0.0287
  750MOL0     H98975  12.728   4.727   4.713  1.6428 -1.3799  0.5704
  750MOL0     H98976  12.685   4.496   4.727  2.2573 -0.1334  1.9271
  750MOL0     H98977  12.538   4.592   4.690  0.8755  0.1232  0.3834
  750MOL0     H98978  12.604   4.490   4.967 -1.9892  1.0988  0.0917
  750MOL0     H98979  12.445   4.558   4.913  0.2577  0.9640  1.0889
  750MOL0     H98980  12.534   4.283   4.842 -0.3032 -0.5028  0.6046
  750MOL0     H98981  12.387   4.381   4.773  0.3268  1.9689  1.0093
  750MOL0     H98982  12.083   5.222   5.091 -1.5484  2.8252  0.3457
  750MOL0     H98983  11.852   5.317   5.043 -1.4906  1.0542 -1.7938
  750MOL0     H98984  11.578   5.517   4.503 -1.6364 -1.2836 -1.2278
  750MOL0     H98985  11.356   5.667   4.526 -3.7382  0.9825  1.5925
  750MOL0     H98986   9.789   6.678   3.730  2.1870 -4.2366  1.0779
  750MOL0     H98987   9.568   6.757   3.674  2.6162 -1.2027  0.2710
  750MOL0     H98988   9.139   6.773   3.499 -0.3296 -1.6610  1.4657
  750MOL0     H98989   8.932   6.857   3.471  2.3244 -2.8289 -1.2019
  750MOL0     H98990   8.711   7.037   3.845 -1.1819 -0.3741  2.6034
  750MOL0     H98991   8.675   6.868   3.854  0.9176  0.9816  0.3315
  750MOL0     H98992   8.494   7.069   3.803 -0.7667 -0.2455 -0.9005
  750MOL0     H98993   8.549   7.030   3.636 -2.1744 -0.7411 -1.5768
  750MOL0     H98994   8.493   6.788   3.702 -0.4427  0.4262  0.0402
  750MOL0     H98995   8.366   6.896   3.632  0.9644 -1.1960 -2.6264
  750MOL0     H98996   8.295   6.757   3.851  0.9089  0.8381  4.4798
  750MOL0     H98997   8.419   6.840   3.925 -0.9236 -0.5322 -0.7466
  750MOL0     H98998   8.130   7.132   3.913 -3.3149 -1.3868  2.4150
  750MOL0     H98999   8.908   6.970   3.895 -1.1700  1.3701 -1.9647
  750MOL0     H99000   9.146   6.900   3.916 -1.1318  0.3500  0.0425
  751MOL0     O99001   7.579   4.600   8.845 -0.3185  0.0043  0.0669
  751MOL0     C99002   7.501   4.580   8.754  0.4326  0.3635 -1.3026
  751MOL0     O99003   7.532   4.559   8.621  0.1748 -0.5424 -0.5291
  751MOL0     C99004   7.651   4.601   8.570 -0.2548  0.1456 -1.0259
  751MOL0     C99005   7.741   4.492   8.526 -0.0008 -0.1636 -0.2398
  751MOL0     C99006   7.862   4.526   8.462 -0.0560  0.0069 -0.0239
  751MOL0     C99007   7.906   4.660   8.467  0.4742  0.0506 -0.0067
  751MOL0     O99008   8.025   4.702   8.423 -1.0394 -0.2143  1.1084
  751MOL0     C99009   8.118   4.713   8.531 -0.6084  1.0905  0.2135
  751MOL0     C99010   8.265   4.693   8.478 -0.0330 -0.1209 -0.7304
  751MOL0     C99011   8.362   4.690   8.594 -0.3463 -0.3455  0.0253
  751MOL0     C99012   8.514   4.679   8.543  0.5395 -0.1334 -0.0599
  751MOL0     C99013   8.556   4.540   8.464  0.1116 -0.3477 -1.2329
  751MOL0     C99014   8.549   4.419   8.554  0.0314  1.1720 -0.9325
  751MOL0     C99015   8.598   4.298   8.485  0.1057 -0.6921  0.8481
  751MOL0     C99016   8.623   4.179   8.576 -0.3803  0.1796  0.0810
  751MOL0     N99017   8.612   4.050   8.510  0.0794 -0.2053 -0.7397
  751MOL0     C99018   8.712   3.955   8.499  0.4384 -0.5381 -0.2173
  751MOL0     C99019   8.657   3.852   8.431 -0.1205 -0.1904  0.5098
  751MOL0     C99020   8.711   3.723   8.410  0.1962  0.4277 -0.5203
  751MOL0     C99021   8.812   3.733   8.292 -0.4761 -0.1974  0.4343
  751MOL0     C99022   8.954   3.720   8.347  0.8018 -0.4739  0.3483
  751MOL0     C99023   9.054   3.725   8.241  0.1950  0.3196 -0.3560
  751MOL0     O99024   9.190   3.719   8.298  0.5595 -0.2818  0.0266
  751MOL0     C99025   9.286   3.713   8.202 -0.1182  0.5642 -0.0112
  751MOL0     C99026   9.268   3.734   8.070 -0.0720 -0.4853  0.3575
  751MOL0     C99027   9.370   3.734   7.979 -0.4435 -0.5692  0.2412
  751MOL0     C99028   9.496   3.695   8.017  0.2209  0.1801 -0.4015
  751MOL0     C99029   9.613   3.682   7.924  1.1408  0.3852 -0.1865
  751MOL0     O99030   9.730   3.631   7.970 -0.2273 -0.4312  0.3799
  751MOL0     C99031   9.840   3.666   7.881  0.1738  0.1370 -0.1111
  751MOL0     C99032   9.861   3.808   7.853  0.2947  0.7920  0.3996
  751MOL0     C99033   9.958   3.840   7.764 -0.1093  0.0425  1.4584
  751MOL0     C99034  10.040   3.743   7.709  0.1399  0.2528 -0.0345
  751MOL0     O99035  10.152   3.775   7.638 -0.4874 -0.0128  0.9614
  751MOL0     C99036  10.152   3.888   7.547 -0.3417  0.2369 -0.0789
  751MOL0     C99037  10.290   3.884   7.478  0.2744  0.6030  1.4940
  751MOL0     C99038  10.374   3.983   7.557 -0.7327 -1.3470  0.5104
  751MOL0     C99039  10.530   3.976   7.537  0.8679  0.0802  0.6897
  751MOL0     C99040  10.581   4.079   7.429  0.1547 -0.0017  0.2669
  751MOL0     C99041  10.593   4.224   7.487 -0.0350  0.1029 -0.0655
  751MOL0     C99042  10.735   4.279   7.479  0.0441  0.8686 -0.7132
  751MOL0     C99043  10.745   4.433   7.482  0.0029 -1.2102 -0.4177
  751MOL0    Cl99044  10.905   4.475   7.542 -0.4358 -0.6079 -0.0907
  751MOL0     C99045  10.031   3.607   7.743  0.7114  0.7038 -0.3000
  751MOL0     C99046   9.925   3.569   7.834 -0.7554 -0.3665  0.8656
  751MOL0     O99047   9.592   3.710   7.809  0.4264 -0.0624  0.4846
  751MOL0     C99048   9.518   3.663   8.158 -0.4381 -0.0086  0.4559
  751MOL0     C99049   9.407   3.676   8.248 -0.6114 -0.1988  0.6347
  751MOL0     N99050   8.534   3.896   8.389 -0.5890  0.3641 -0.4874
  751MOL0     N99051   8.500   4.008   8.451  0.1176  0.7351 -0.0062
  751MOL0     C99052   7.826   4.754   8.532  0.3515 -0.3197  0.5376
  751MOL0     C99053   7.698   4.730   8.576 -0.0475 -0.3454  0.6407
  751MOL0     C99054   7.357   4.558   8.802  0.4318 -0.0022  0.0742
  751MOL0     C99055   7.266   4.500   8.712  0.9256 -0.5868 -0.6522
  751MOL0     C99056   7.128   4.494   8.757  0.0561  0.1659 -0.7693
  751MOL0     C99057   7.093   4.555   8.876  0.1559 -0.3957  0.1020
  751MOL0     O99058   6.959   4.547   8.903  0.5195 -0.0847  0.1730
  751MOL0     C99059   6.902   4.640   8.998  0.4262  0.1038 -0.5541
  751MOL0     C99060   6.774   4.685   8.925  0.5647 -0.4192  0.1996
  751MOL0     C99061   6.815   4.767   8.803 -0.1861 -1.0270  0.1489
  751MOL0     C99062   6.693   4.792   8.714 -0.4371 -0.4750 -0.1711
  751MOL0     C99063   6.722   4.869   8.594  0.3169  0.2248 -0.1181
  751MOL0     C99064   6.742   4.944   8.503  0.5839 -0.1592 -0.4460
  751MOL0     C99065   7.185   4.618   8.960 -1.2328  0.2217 -0.1059
  751MOL0     C99066   7.317   4.614   8.922 -0.1051  0.4922 -0.8666
  751MOL0     H99067   7.707   4.390   8.545 -0.5721  0.0676  0.0336
  751MOL0     H99068   7.943   4.466   8.420  0.4918  1.0360 -0.4707
  751MOL0     H99069   8.098   4.635   8.605  1.0896 -1.5304 -1.9018
  751MOL0     H99070   8.104   4.809   8.582  0.1519  0.2850  2.0045
  751MOL0     H99071   8.298   4.762   8.399  2.5653  0.1534  0.4928
  751MOL0     H99072   8.283   4.596   8.430  3.0550  0.7065 -1.5146
  751MOL0     H99073   8.338   4.614   8.670 -1.5787  1.0451  1.0844
  751MOL0     H99074   8.338   4.783   8.647 -3.4049  0.0626 -1.8186
  751MOL0     H99075   8.527   4.759   8.469  0.8698 -0.0949  0.0362
  751MOL0     H99076   8.591   4.713   8.613 -0.3131 -0.8587  1.2681
  751MOL0     H99077   8.662   4.547   8.436  0.3619 -0.8347 -0.4495
  751MOL0     H99078   8.501   4.511   8.374  1.8957  0.1994 -2.5680
  751MOL0     H99079   8.445   4.398   8.577  0.6055  0.4783  1.2299
  751MOL0     H99080   8.606   4.444   8.644 -1.7293 -0.1629  0.6227
  751MOL0     H99081   8.515   4.266   8.421  1.7674 -2.2351 -0.6652
  751MOL0     H99082   8.684   4.329   8.426 -0.2698 -1.1160  0.0516
  751MOL0     H99083   8.553   4.187   8.660  2.7995 -0.0946  2.9586
  751MOL0     H99084   8.722   4.178   8.621  0.4363  0.1684 -1.6443
  751MOL0     H99085   8.808   3.948   8.549 -0.8032  0.4805  2.5577
  751MOL0     H99086   8.632   3.653   8.381  1.5308 -1.3122 -0.1535
  751MOL0     H99087   8.767   3.678   8.492  0.1761 -1.2599 -1.3869
  751MOL0     H99088   8.806   3.816   8.221 -0.4774 -0.6093 -0.0542
  751MOL0     H99089   8.793   3.644   8.230 -1.5415  0.7901 -0.7240
  751MOL0     H99090   8.974   3.797   8.421  3.4386 -0.7689  0.0327
  751MOL0     H99091   8.955   3.621   8.394  1.8940 -1.0508 -0.8108
  751MOL0     H99092   9.053   3.822   8.190  0.0165 -0.3284 -1.6481
  751MOL0     H99093   9.034   3.642   8.172 -2.8939  0.0407  0.7267
  751MOL0     H99094   9.172   3.757   8.025  0.1897  0.1171  0.0973
  751MOL0     H99095   9.362   3.750   7.872  0.2166  2.1062  0.5166
  751MOL0     H99096   9.806   3.890   7.898 -1.7115  1.2017 -2.5445
  751MOL0     H99097   9.983   3.946   7.761  3.2322 -0.6292 -1.5256
  751MOL0     H99098  10.125   3.980   7.599 -1.9649 -0.0879 -0.2873
  751MOL0     H99099  10.074   3.876   7.472 -1.7291 -0.6222  1.4233
  751MOL0     H99100  10.281   3.915   7.374  2.9126  0.9433  1.2921
  751MOL0     H99101  10.333   3.783   7.478  0.6012  0.6803 -0.8328
  751MOL0     H99102  10.352   3.968   7.663 -2.2212 -1.1880  0.2487
  751MOL0     H99103  10.338   4.083   7.531  1.4233 -0.9776 -1.3882
  751MOL0     H99104  10.580   3.996   7.632 -0.1901 -3.3077  2.1330
  751MOL0     H99105  10.563   3.877   7.503  1.9739  0.0563  1.7556
  751MOL0     H99106  10.517   4.074   7.340  3.0460  1.3274 -2.0693
  751MOL0     H99107  10.677   4.038   7.396 -1.3970 -1.9570 -2.2357
  751MOL0     H99108  10.557   4.221   7.590  0.6876  3.1875  0.3593
  751MOL0     H99109  10.522   4.291   7.438 -0.1820  0.4996  0.6728
  751MOL0     H99110  10.785   4.240   7.568  0.6759  0.4330 -1.2507
  751MOL0     H99111  10.789   4.245   7.390  1.2975  3.8421 -1.2253
  751MOL0     H99112  10.670   4.479   7.547  0.2446  3.6223 -3.1050
  751MOL0     H99113  10.745   4.479   7.383  1.7081  2.7521  1.2262
  751MOL0     H99114  10.089   3.529   7.693 -1.3129 -2.2146  1.6020
  751MOL0     H99115   9.913   3.466   7.867  1.4165 -1.2623 -0.8925
  751MOL0     H99116   9.616   3.623   8.182  0.8269 -0.2357 -4.0870
  751MOL0     H99117   9.418   3.651   8.353  1.0620 -3.0717 -0.1122
  751MOL0     H99118   7.864   4.856   8.535 -2.3247  0.7737  0.4545
  751MOL0     H99119   7.654   4.819   8.621 -3.3746 -1.0445 -0.8909
  751MOL0     H99120   7.289   4.451   8.619  1.4963 -0.6051 -0.5025
  751MOL0     H99121   7.038   4.454   8.712 -0.0704 -1.0748  0.5278
  751MOL0     H99122   6.968   4.726   9.011  0.0514  0.3523 -0.2713
  751MOL0     H99123   6.866   4.598   9.092  0.8934 -0.2451 -0.5247
  751MOL0     H99124   6.715   4.594   8.910  0.9173 -1.0687  2.4236
  751MOL0     H99125   6.711   4.753   8.984  1.1452  0.1497  0.1818
  751MOL0     H99126   6.889   4.719   8.739  0.0807 -0.3238 -0.0758
  751MOL0     H99127   6.857   4.865   8.829  0.9221 -1.4790  0.1030
  751MOL0     H99128   6.640   4.698   8.691  0.1363 -1.7709  3.2342
  751MOL0     H99129   6.628   4.855   8.775  0.5701  0.7585 -0.3344
  751MOL0     H99130   6.740   5.024   8.432  2.8948  1.6400  1.3633
  751MOL0     H99131   7.165   4.673   9.051  1.0590  2.4557 -0.8219
  751MOL0     H99132   7.392   4.653   8.991  0.4301 -3.8037  1.3183
  752MOL0     O99133   8.981   3.697   9.115  0.9811  0.1262  0.5928
  752MOL0     C99134   9.083   3.716   9.054  0.3262 -0.5587 -0.2751
  752MOL0     O99135   9.100   3.823   8.968 -1.2770  0.2198  0.2447
  752MOL0     C99136   9.009   3.927   8.973  0.4144  0.2303  0.2854
  752MOL0     C99137   8.955   3.994   9.091  0.2196  0.6580 -0.1702
  752MOL0     C99138   8.884   4.109   9.070  0.0120  0.0246  0.5956
  752MOL0     C99139   8.871   4.176   8.940  0.4045 -0.5786  0.8751
  752MOL0     O99140   8.805   4.296   8.921  0.1383 -0.7607 -0.3017
  752MOL0     C99141   8.706   4.339   9.009  0.3136  0.1818 -0.1775
  752MOL0     C99142   8.654   4.471   8.945  0.1296  0.2684  0.4202
  752MOL0     C99143   8.561   4.538   9.039  0.9504 -0.8506 -0.7661
  752MOL0     C99144   8.501   4.670   8.987  0.3163 -1.2143  0.4105
  752MOL0     C99145   8.602   4.778   8.929 -0.4233  0.1118 -0.5205
  752MOL0     C99146   8.534   4.915   8.884  0.4756  0.0908 -0.3728
  752MOL0     C99147   8.620   5.037   8.887 -1.0864 -0.0993 -0.2769
  752MOL0     C99148   8.539   5.166   8.886 -0.1071 -0.2480 -0.9443
  752MOL0     N99149   8.613   5.284   8.944  0.8771  0.4004  0.4172
  752MOL0     C99150   8.713   5.353   8.880 -0.7129  0.7253  0.5024
  752MOL0     C99151   8.778   5.415   8.977 -0.0443 -0.2236 -0.3485
  752MOL0     C99152   8.914   5.476   8.982  0.4836  0.6655 -0.4860
  752MOL0     C99153   9.021   5.372   8.967  0.1711 -0.1873  0.4863
  752MOL0     C99154   9.018   5.273   9.074 -0.2110 -0.8149  0.4076
  752MOL0     C99155   9.147   5.204   9.110  0.0657 -0.2847  0.2485
  752MOL0     O99156   9.199   5.133   8.998 -0.0017  0.0359  0.4370
  752MOL0     C99157   9.322   5.072   9.007  1.2714 -0.0825 -0.0989
  752MOL0     C99158   9.348   4.989   8.896  0.0177 -0.7918 -0.1423
  752MOL0     C99159   9.475   4.940   8.887  0.3820  0.1697  0.4851
  752MOL0     C99160   9.580   4.963   8.981 -0.2066  0.7229  0.3141
  752MOL0     C99161   9.707   4.889   8.981 -0.6236  0.7755 -0.3650
  752MOL0     O99162   9.803   4.893   9.089 -1.5946 -0.2881  0.6092
  752MOL0     C99163   9.926   4.836   9.061 -0.3197 -1.1800 -0.6101
  752MOL0     C99164   9.978   4.752   9.160  0.1277  0.2468  0.4617
  752MOL0     C99165  10.113   4.716   9.152 -0.3323  0.0180  1.5106
  752MOL0     C99166  10.196   4.756   9.041 -0.4515  0.6465 -0.4418
  752MOL0     O99167  10.320   4.701   9.015  1.1671 -0.3845  0.0474
  752MOL0     C99168  10.390   4.653   9.130 -0.5196  0.2219 -0.4032
  752MOL0     C99169  10.531   4.637   9.083  1.1371  0.0390 -0.5356
  752MOL0     C99170  10.544   4.521   8.991 -0.4372  0.1551  0.1365
  752MOL0     C99171  10.683   4.479   8.960 -0.2375 -0.3552  0.0191
  752MOL0     C99172  10.742   4.379   9.057  0.4725  0.2455 -0.0439
  752MOL0     C99173  10.895   4.391   9.082  1.2001  0.7956  0.5914
  752MOL0     C99174  10.969   4.401   8.949 -0.8854  0.7698  0.1140
  752MOL0     C99175  11.129   4.381   8.965  0.2406 -0.1819  0.3819
  752MOL0    Cl99176  11.186   4.466   9.118 -0.1137 -0.4190  0.5648
  752MOL0     C99177  10.149   4.851   8.947  1.1569  0.0356 -1.1834
  752MOL0     C99178  10.011   4.884   8.951 -0.2097  0.1655  0.5075
  752MOL0     O99179   9.714   4.817   8.883 -0.3420 -0.1835 -0.3599
  752MOL0     C99180   9.544   5.034   9.095  0.1771  0.4005  0.3558
  752MOL0     C99181   9.419   5.093   9.102  0.8523  0.2340 -0.9227
  752MOL0     N99182   8.708   5.403   9.103 -0.5094  0.6070  0.0599
  752MOL0     N99183   8.611   5.318   9.078 -0.2702  0.1275  0.4058
  752MOL0     C99184   8.919   4.107   8.828  0.6901 -0.4098  0.0101
  752MOL0     C99185   8.981   3.983   8.845  0.0105 -0.0210  0.4187
  752MOL0     C99186   9.190   3.628   9.088  0.1245  0.0929  0.4801
  752MOL0     C99187   9.317   3.658   9.040 -0.3702  0.0932 -0.7909
  752MOL0     C99188   9.428   3.586   9.094  0.5148 -0.4420  0.2427
  752MOL0     C99189   9.419   3.482   9.191  0.5046  0.8068 -0.6467
  752MOL0     O99190   9.535   3.425   9.237 -0.1049  0.6813 -0.4582
  752MOL0     C99191   9.531   3.352   9.354  0.5321 -0.0298 -0.1128
  752MOL0     C99192   9.522   3.201   9.316  0.4197 -0.4703  0.4143
  752MOL0     C99193   9.515   3.104   9.444  0.0957 -0.3370 -0.2507
  752MOL0     C99194   9.452   2.969   9.415 -0.0044 -0.1992  0.4899
  752MOL0     C99195   9.512   2.881   9.323 -0.2008 -0.0271 -0.5231
  752MOL0     C99196   9.569   2.808   9.241  0.2437  0.1025 -0.0205
  752MOL0     C99197   9.288   3.445   9.226 -0.0109 -0.0591  0.5148
  752MOL0     C99198   9.176   3.517   9.177  0.2386  0.1152 -0.1232
  752MOL0     H99199   8.989   3.958   9.187  2.6637  1.3457 -0.7184
  752MOL0     H99200   8.858   4.164   9.159  0.1901 -1.7523  1.8015
  752MOL0     H99201   8.741   4.357   9.111 -2.5308 -3.1529  1.6029
  752MOL0     H99202   8.627   4.263   9.014  1.1687 -0.6659  1.1038
  752MOL0     H99203   8.617   4.460   8.843  3.0024  1.3434 -0.8605
  752MOL0     H99204   8.746   4.524   8.918 -0.3111 -0.1975 -2.3572
  752MOL0     H99205   8.608   4.554   9.137 -5.7047 -0.0631  2.8455
  752MOL0     H99206   8.483   4.474   9.080  0.3904  0.8955  1.1101
  752MOL0     H99207   8.438   4.649   8.900 -1.3845  0.8001  1.0698
  752MOL0     H99208   8.436   4.708   9.066 -0.6160  1.0961 -1.3406
  752MOL0     H99209   8.651   4.737   8.840 -1.7910  0.6339 -1.5426
  752MOL0     H99210   8.675   4.805   9.007  2.4064 -0.3246 -2.8403
  752MOL0     H99211   8.460   4.932   8.962  2.0654  1.3209  0.9275
  752MOL0     H99212   8.503   4.909   8.779  2.1236 -0.5841 -0.8584
  752MOL0     H99213   8.683   5.027   8.976  0.3269 -1.6918 -1.3749
  752MOL0     H99214   8.694   5.042   8.807  1.2148  0.4426  1.7719
  752MOL0     H99215   8.456   5.150   8.956 -0.8778 -0.9542 -2.0088
  752MOL0     H99216   8.497   5.186   8.787  3.0584 -1.5657 -2.7071
  752MOL0     H99217   8.753   5.342   8.780 -0.5847  0.6999  0.5562
  752MOL0     H99218   8.920   5.533   9.076  2.0533  0.5785 -0.5100
  752MOL0     H99219   8.916   5.545   8.897 -0.1451 -0.0998 -1.1422
  752MOL0     H99220   9.120   5.416   8.960  0.1198 -0.0302  0.7465
  752MOL0     H99221   9.000   5.316   8.875 -3.9421  0.0252  1.1063
  752MOL0     H99222   8.974   5.325   9.159  3.3043  3.2274  0.0729
  752MOL0     H99223   8.943   5.201   9.040 -1.9491  1.4162 -0.7817
  752MOL0     H99224   9.122   5.141   9.195  2.0185 -0.0327  1.0745
  752MOL0     H99225   9.214   5.281   9.151 -0.3070 -0.0396  0.4023
  752MOL0     H99226   9.269   4.968   8.826 -0.3881 -2.0407  0.6642
  752MOL0     H99227   9.488   4.887   8.793 -1.2869 -0.4653  0.5733
  752MOL0     H99228   9.918   4.721   9.246  1.0319  0.9371  1.3709
  752MOL0     H99229  10.163   4.650   9.222 -1.3041 -1.0838  1.2126
  752MOL0     H99230  10.360   4.552   9.160  3.0282 -0.5221  1.0849
  752MOL0     H99231  10.389   4.713   9.221 -1.3474 -3.4530  2.2182
  752MOL0     H99232  10.591   4.606   9.169 -0.2047  1.1051  0.8221
  752MOL0     H99233  10.569   4.730   9.038  1.4305  0.0908 -0.1933
  752MOL0     H99234  10.502   4.549   8.894  0.0387  1.2565  0.2376
  752MOL0     H99235  10.491   4.436   9.037  2.2741 -1.5744  0.3066
  752MOL0     H99236  10.682   4.437   8.859 -2.1357 -2.7214  0.9203
  752MOL0     H99237  10.739   4.573   8.965 -2.6456  1.1511  1.3598
  752MOL0     H99238  10.725   4.275   9.030  3.4231 -0.0868 -1.0608
  752MOL0     H99239  10.693   4.379   9.155  2.7110 -2.8236  1.2388
  752MOL0     H99240  10.935   4.308   9.141  0.4838 -0.4466 -0.6067
  752MOL0     H99241  10.930   4.476   9.141  1.9820  0.2003  1.0036
  752MOL0     H99242  10.933   4.328   8.876  1.1411 -0.9682  0.7258
  752MOL0     H99243  10.940   4.494   8.900 -1.9868  0.2777 -0.1911
  752MOL0     H99244  11.176   4.442   8.887 -1.3454  1.1203  0.3784
  752MOL0     H99245  11.162   4.278   8.978  0.7706 -0.1182 -0.3619
  752MOL0     H99246  10.196   4.893   8.858 -0.0192 -1.3151 -2.4916
  752MOL0     H99247   9.971   4.944   8.870  1.7588 -0.1895 -0.7874
  752MOL0     H99248   9.606   5.040   9.184 -3.3078  2.4541  2.8736
  752MOL0     H99249   9.377   5.134   9.194 -2.0175 -2.0168 -1.0873
  752MOL0     H99250   8.897   4.153   8.732  1.5521  2.1198  0.9345
  752MOL0     H99251   9.030   3.941   8.758 -0.9758 -1.1911  0.3962
  752MOL0     H99252   9.332   3.741   8.972 -2.4870  1.6991  0.5754
  752MOL0     H99253   9.528   3.612   9.060  0.7295 -1.4199  0.1088
  752MOL0     H99254   9.455   3.382   9.427 -1.6355 -0.8922 -1.8961
  752MOL0     H99255   9.627   3.361   9.407  0.0123 -1.4402  1.1303
  752MOL0     H99256   9.427   3.192   9.263  1.4034 -1.2373 -1.2881
  752MOL0     H99257   9.611   3.179   9.257  1.2580  5.5312 -1.2880
  752MOL0     H99258   9.461   3.159   9.522  0.8450 -1.9049  1.4489
  752MOL0     H99259   9.615   3.090   9.485 -0.2089  1.6529  1.3835
  752MOL0     H99260   9.445   2.913   9.509  0.8779  1.6054  1.6838
  752MOL0     H99261   9.349   2.992   9.385  0.1018  2.5561  1.9068
  752MOL0     H99262   9.623   2.742   9.176  2.0966 -0.6728  2.1373
  752MOL0     H99263   9.254   3.371   9.299  1.8163  0.4066  1.9016
  752MOL0     H99264   9.074   3.502   9.211 -0.6440  2.8211 -1.2862
  753MOL0     O99265   9.264   0.940   0.463 -0.4276  0.0849 -0.2379
  753MOL0     C99266   9.143   0.926   0.458 -0.6488 -0.1758 -0.2436
  753MOL0     O99267   9.070   0.854   0.363 -0.0968  0.0704 -0.3011
  753MOL0     C99268   9.142   0.799   0.255 -0.1045  0.2196  0.6576
  753MOL0     C99269   9.058   0.803   0.136  0.2269 -0.2447 -0.0034
  753MOL0     C99270   9.118   0.766   0.011 -0.1959  0.9392  0.0780
  753MOL0     C99271   9.256   0.730   0.005 -0.2935 -0.2676 -0.9624
  753MOL0     O99272   9.345   0.701  -0.097 -0.4493 -0.3639 -0.2797
  753MOL0     C99273   9.283   0.672  -0.223 -1.1869  0.3927  0.2836
  753MOL0     C99274   9.401   0.652  -0.320  0.4274 -0.1930 -0.4591
  753MOL0     C99275   9.477   0.520  -0.299 -0.5412  0.2844  0.6677
  753MOL0     C99276   9.599   0.525  -0.393  0.4562 -0.3282  0.2665
  753MOL0     C99277   9.673   0.391  -0.420  0.2270  1.2106  0.7450
  753MOL0     C99278   9.759   0.400  -0.555  0.2705  0.4731 -0.3493
  753MOL0     C99279   9.831   0.266  -0.576 -1.0982  0.0754  0.1818
  753MOL0     C99280   9.930   0.265  -0.700 -0.7091  0.9295  0.5653
  753MOL0     N99281   9.973   0.129  -0.720 -0.2750  0.1184  0.3447
  753MOL0     C99282  10.006   0.035  -0.622 -0.0165 -0.8053 -0.1546
  753MOL0     C99283  10.055  -0.065  -0.689 -0.2567  0.8552 -0.4314
  753MOL0     C99284  10.103  -0.202  -0.638  0.6610 -0.8016  0.8248
  753MOL0     C99285  10.014  -0.255  -0.523  0.2658 -0.2908  0.3890
  753MOL0     C99286  10.023  -0.407  -0.526 -0.3593  0.4947 -0.0705
  753MOL0     C99287   9.977  -0.474  -0.395  0.1458 -0.6441  0.4607
  753MOL0     O99288   9.859  -0.434  -0.327  0.3196  0.2604  0.3425
  753MOL0     C99289   9.739  -0.450  -0.396 -0.0007 -0.0710  0.4862
  753MOL0     C99290   9.721  -0.528  -0.514  0.6698  0.3650  0.2794
  753MOL0     C99291   9.593  -0.541  -0.569 -1.2987 -0.1865 -0.5954
  753MOL0     C99292   9.481  -0.484  -0.504 -0.3933 -0.6747  0.8070
  753MOL0     C99293   9.344  -0.497  -0.568 -0.2675 -0.4649 -0.1366
  753MOL0     O99294   9.328  -0.591  -0.673 -0.4709  0.2001 -0.1848
  753MOL0     C99295   9.213  -0.583  -0.744 -0.2856 -0.2536 -0.1527
  753MOL0     C99296   9.097  -0.649  -0.701  0.4589  0.3023 -0.5967
  753MOL0     C99297   8.972  -0.627  -0.758 -0.1446 -0.5192  0.3971
  753MOL0     C99298   8.957  -0.532  -0.862 -0.2554 -0.0082 -0.2120
  753MOL0     O99299   8.832  -0.502  -0.906 -0.0672 -0.2935  0.2015
  753MOL0     C99300   8.741  -0.441  -0.808  0.5030  0.1379  1.1194
  753MOL0     C99301   8.657  -0.324  -0.873 -0.3143 -0.0398 -0.2883
  753MOL0     C99302   8.525  -0.365  -0.945 -0.1799  0.2326 -0.2816
  753MOL0     C99303   8.450  -0.229  -0.964 -0.6318  0.8190  0.1228
  753MOL0     C99304   8.322  -0.256  -1.050 -0.5069 -0.2022 -0.2742
  753MOL0     C99305   8.275  -0.133  -1.128  1.6160 -0.6757 -0.0258
  753MOL0     C99306   8.370  -0.086  -1.234  0.0020 -0.1525  0.8364
  753MOL0     C99307   8.354   0.056  -1.284 -0.1827  0.3222  0.3216
  753MOL0    Cl99308   8.228   0.089  -1.411  0.0628 -0.1361 -0.1960
  753MOL0     C99309   9.073  -0.461  -0.903 -0.1275 -0.8512  0.0140
  753MOL0     C99310   9.195  -0.495  -0.848  0.7186 -0.4213  0.4918
  753MOL0     O99311   9.260  -0.411  -0.538  0.5974  0.0134  0.7656
  753MOL0     C99312   9.498  -0.416  -0.383  0.1764 -0.1792  0.1395
  753MOL0     C99313   9.628  -0.399  -0.335 -0.6412 -0.2253  0.9067
  753MOL0     N99314  10.033  -0.045  -0.825 -0.4519 -1.1249 -0.0176
  753MOL0     N99315   9.989   0.075  -0.843  0.3443 -0.0213 -0.4734
  753MOL0     C99316   9.337   0.731   0.122  0.2799 -0.1347 -0.1993
  753MOL0     C99317   9.274   0.755   0.246  0.3050  0.1399  1.0526
  753MOL0     C99318   9.076   1.020   0.544  0.4613 -0.2815 -1.2059
  753MOL0     C99319   8.978   1.099   0.496 -0.4097  0.2884  0.3420
  753MOL0     C99320   8.908   1.188   0.577 -0.2246  0.2173  0.4932
  753MOL0     C99321   8.928   1.184   0.717 -0.3551  0.4186 -0.2183
  753MOL0     O99322   8.841   1.238   0.806 -0.1224 -0.4564  0.2553
  753MOL0     C99323   8.774   1.366   0.779 -0.3440  0.0463 -0.5080
  753MOL0     C99324   8.685   1.402   0.889  0.1073  0.0404 -0.5376
  753MOL0     C99325   8.633   1.547   0.875 -1.0613  0.4452  0.0661
  753MOL0     C99326   8.589   1.609   1.014  0.4903 -0.3445 -0.2069
  753MOL0     C99327   8.464   1.676   0.969 -0.5535 -0.0999  0.4476
  753MOL0     C99328   8.370   1.748   0.946  0.6127 -0.8908 -0.0297
  753MOL0     C99329   9.014   1.099   0.769 -0.0693  0.1474  0.0164
  753MOL0     C99330   9.099   1.025   0.687 -0.0523 -0.4287 -0.5419
  753MOL0     H99331   8.953   0.831   0.135 -0.0442 -1.1136  1.2659
  753MOL0     H99332   9.067   0.768  -0.085  0.8016 -2.5266 -0.6764
  753MOL0     H99333   9.224   0.759  -0.252  2.5444  3.2029  0.2969
  753MOL0     H99334   9.227   0.579  -0.238  1.5832 -1.0053 -2.5435
  753MOL0     H99335   9.460   0.740  -0.291 -1.3515 -0.0857  3.5090
  753MOL0     H99336   9.364   0.656  -0.423 -2.0029 -0.2605  0.3469
  753MOL0     H99337   9.410   0.436  -0.319  1.4789 -1.4322  0.7669
  753MOL0     H99338   9.510   0.508  -0.195  1.9141  0.3107 -0.0554
  753MOL0     H99339   9.570   0.560  -0.492 -1.3536 -1.9592  0.1563
  753MOL0     H99340   9.671   0.601  -0.362  0.0059  0.1123  0.2287
  753MOL0     H99341   9.596   0.317  -0.444  2.4014 -1.4440  1.3824
  753MOL0     H99342   9.739   0.357  -0.340 -1.5117  3.7182  3.4868
  753MOL0     H99343   9.827   0.485  -0.557  0.6236  0.2041 -0.0326
  753MOL0     H99344   9.694   0.415  -0.642 -0.7029  0.4394  0.3441
  753MOL0     H99345   9.887   0.240  -0.485  3.6284  0.0903 -2.4201
  753MOL0     H99346   9.756   0.192  -0.606  0.1081 -1.1991  0.2328
  753MOL0     H99347  10.016   0.331  -0.682 -0.3743  0.3393  1.1734
  753MOL0     H99348   9.878   0.298  -0.791 -0.7167  0.7011  0.4855
  753MOL0     H99349  10.022   0.055  -0.516 -1.7574  2.0765 -0.3330
  753MOL0     H99350  10.209  -0.196  -0.610  0.4749  0.4417  1.3281
  753MOL0     H99351  10.095  -0.275  -0.720  0.7529 -1.8950  1.7555
  753MOL0     H99352   9.910  -0.220  -0.532  0.8210  1.2267 -0.3432
  753MOL0     H99353  10.043  -0.214  -0.425  0.4172 -0.9291  0.6159
  753MOL0     H99354   9.974  -0.443  -0.617  0.9808 -0.7554 -0.3330
  753MOL0     H99355  10.128  -0.434  -0.519 -0.2116  1.4152  3.7298
  753MOL0     H99356  10.050  -0.448  -0.318 -1.4986  1.0295  1.5223
  753MOL0     H99357   9.977  -0.579  -0.425  0.2138 -0.3242 -0.6702
  753MOL0     H99358   9.805  -0.571  -0.567 -1.1963 -0.7743 -1.9454
  753MOL0     H99359   9.569  -0.600  -0.657 -3.3338 -0.2470 -0.0371
  753MOL0     H99360   9.112  -0.716  -0.617  2.6751  0.8231 -0.5326
  753MOL0     H99361   8.889  -0.678  -0.713 -0.6597 -0.0138  0.0375
  753MOL0     H99362   8.806  -0.395  -0.733  2.0428 -0.2210  0.0558
  753MOL0     H99363   8.678  -0.512  -0.753 -0.3638 -0.4196 -0.5291
  753MOL0     H99364   8.720  -0.265  -0.941 -2.9271 -0.0205 -2.9332
  753MOL0     H99365   8.624  -0.253  -0.797 -0.8470 -0.0526 -0.4991
  753MOL0     H99366   8.455  -0.422  -0.883 -1.9820  5.3424  3.0354
  753MOL0     H99367   8.538  -0.431  -1.032 -2.3200 -0.8847  0.1628
  753MOL0     H99368   8.442  -0.196  -0.859  2.1473  1.7371  0.1190
  753MOL0     H99369   8.514  -0.155  -1.012  0.7695 -0.1553  0.4312
  753MOL0     H99370   8.235  -0.299  -0.998 -1.8261  0.1711 -2.0558
  753MOL0     H99371   8.340  -0.326  -1.133  1.0724 -0.3086  0.1433
  753MOL0     H99372   8.253  -0.057  -1.052 -0.4740 -0.7880 -0.4601
  753MOL0     H99373   8.181  -0.145  -1.183  2.2403  0.8010 -1.5027
  753MOL0     H99374   8.472  -0.097  -1.196  0.3182  0.2873  0.1164
  753MOL0     H99375   8.360  -0.144  -1.326  2.0356  2.2174 -0.9929
  753MOL0     H99376   8.446   0.095  -1.328 -0.0306 -2.5594 -2.2476
  753MOL0     H99377   8.332   0.121  -1.199 -0.8433 -0.6592  0.9228
  753MOL0     H99378   9.079  -0.381  -0.976  0.8806 -1.5898 -0.7440
  753MOL0     H99379   9.282  -0.435  -0.875 -1.1987  2.3806  0.0523
  753MOL0     H99380   9.424  -0.362  -0.323 -0.5008 -1.9275  0.9622
  753MOL0     H99381   9.639  -0.339  -0.245  0.4245  0.1599  0.5387
  753MOL0     H99382   9.437   0.689   0.118 -0.0839 -0.9798 -0.9263
  753MOL0     H99383   9.335   0.744   0.335 -0.3425 -1.2516  1.3651
  753MOL0     H99384   8.958   1.119   0.391  1.8030  1.1806  0.0261
  753MOL0     H99385   8.859   1.278   0.539  4.1343  2.4502 -0.5957
  753MOL0     H99386   8.707   1.358   0.692 -1.2778 -0.3280  0.2205
  753MOL0     H99387   8.844   1.444   0.747 -0.2568 -0.1503 -0.7950
  753MOL0     H99388   8.595   1.341   0.882  0.5340 -0.4264 -2.6891
  753MOL0     H99389   8.724   1.393   0.991 -0.8492  0.0269 -0.1620
  753MOL0     H99390   8.550   1.528   0.806  1.3326  0.0801 -2.9122
  753MOL0     H99391   8.704   1.607   0.818 -2.4416  0.5946 -1.5787
  753MOL0     H99392   8.562   1.533   1.088  1.7702  0.3608  1.0116
  753MOL0     H99393   8.662   1.669   1.067  4.1100 -3.4794 -1.1972
  753MOL0     H99394   8.294   1.818   0.917  0.6848 -0.5482  0.5832
  753MOL0     H99395   9.029   1.102   0.876  0.0981  1.0625 -0.0270
  753MOL0     H99396   9.170   0.961   0.738  2.8319  2.3513 -0.7674
  754MOL0     O99397   6.736   6.046   8.172  0.2032  0.0012 -0.3281
  754MOL0     C99398   6.752   5.948   8.243  0.1506  0.3279 -0.4104
  754MOL0     O99399   6.871   5.912   8.301 -0.8053  0.1339 -0.4786
  754MOL0     C99400   6.982   5.992   8.278 -1.0255 -0.0198 -0.0727
  754MOL0     C99401   7.063   6.030   8.384 -0.5698  0.8987 -0.3934
  754MOL0     C99402   7.183   6.099   8.369 -0.4558  0.2632 -0.5568
  754MOL0     C99403   7.234   6.140   8.242  0.1969  0.3767  0.6089
  754MOL0     O99404   7.349   6.203   8.226 -0.5718  0.1410 -0.2098
  754MOL0     C99405   7.385   6.298   8.326  0.0966 -0.9484  0.0574
  754MOL0     C99406   7.487   6.385   8.264 -0.1926  0.4263  0.0643
  754MOL0     C99407   7.605   6.374   8.349 -0.0465  0.3086 -0.4875
  754MOL0     C99408   7.711   6.468   8.301 -0.1188 -0.9412  0.7807
  754MOL0     C99409   7.852   6.412   8.341  0.1644 -0.4614  0.4071
  754MOL0     C99410   7.965   6.508   8.315 -0.0205 -0.5373 -0.8419
  754MOL0     C99411   8.088   6.451   8.392  0.8277  0.3707  0.7981
  754MOL0     C99412   8.221   6.505   8.334  0.2351  0.2467  0.7425
  754MOL0     N99413   8.234   6.650   8.331 -0.0785 -0.8379  0.1015
  754MOL0     C99414   8.204   6.738   8.429 -0.3421 -0.5452 -0.2129
  754MOL0     C99415   8.178   6.851   8.373  0.2111  0.2433 -0.0426
  754MOL0     C99416   8.138   6.984   8.438  0.7310  0.9307  0.3869
  754MOL0     C99417   7.983   7.004   8.435 -0.2471 -0.3197  0.5870
  754MOL0     C99418   7.921   6.921   8.539  0.1609  0.5421  0.0328
  754MOL0     C99419   7.764   6.917   8.540  0.1431  0.9266 -0.3299
  754MOL0     O99420   7.732   6.838   8.427 -0.4786 -0.4806  0.1245
  754MOL0     C99421   7.602   6.793   8.411  0.4029 -0.6422  0.0159
  754MOL0     C99422   7.538   6.809   8.289  0.8208  0.1650  0.3056
  754MOL0     C99423   7.404   6.761   8.272  0.2614 -0.6497  0.2375
  754MOL0     C99424   7.339   6.696   8.378 -0.3019 -1.0142  0.3050
  754MOL0     C99425   7.205   6.647   8.366  0.3397 -1.0346 -0.6568
  754MOL0     O99426   7.170   6.550   8.454 -0.0384  0.6719  0.3366
  754MOL0     C99427   7.044   6.501   8.466  0.3566 -0.0046 -0.1105
  754MOL0     C99428   6.953   6.559   8.559  0.2679 -0.0191 -0.1512
  754MOL0     C99429   6.824   6.520   8.554  0.4416  0.0371 -0.0197
  754MOL0     C99430   6.777   6.409   8.478 -0.1024 -0.1881  1.0149
  754MOL0     O99431   6.653   6.371   8.490 -0.2394  0.1616  1.2184
  754MOL0     C99432   6.591   6.295   8.383  0.0915 -0.5331 -0.6204
  754MOL0     C99433   6.443   6.274   8.418 -0.0770  0.6053 -0.1105
  754MOL0     C99434   6.419   6.206   8.548 -0.0252 -0.5413 -0.0921
  754MOL0     C99435   6.280   6.161   8.558 -0.6834  0.1711 -0.0127
  754MOL0     C99436   6.253   6.132   8.704 -0.2108 -0.2521 -0.2245
  754MOL0     C99437   6.106   6.147   8.728  0.0865  1.2073 -0.5157
  754MOL0     C99438   6.090   6.126   8.880 -0.1703  0.8096  0.3714
  754MOL0     C99439   5.954   6.080   8.921  0.1884  0.7301  0.4508
  754MOL0    Cl99440   5.946   6.004   9.082 -0.1999  0.2661  0.1550
  754MOL0     C99441   6.868   6.356   8.391 -0.1265 -0.5224 -0.1854
  754MOL0     C99442   7.003   6.395   8.385 -0.1875  0.9293  0.8147
  754MOL0     O99443   7.137   6.686   8.269 -0.3564 -0.1493 -0.2008
  754MOL0     C99444   7.398   6.703   8.506  0.0528  0.2163 -0.8084
  754MOL0     C99445   7.531   6.743   8.521 -0.5078 -0.3367 -0.7325
  754MOL0     N99446   8.203   6.840   8.238  0.7547 -0.8344  0.2679
  754MOL0     N99447   8.243   6.718   8.212  0.1381 -0.0739  0.0102
  754MOL0     C99448   7.153   6.111   8.138  0.2859 -0.7322 -0.0752
  754MOL0     C99449   7.030   6.038   8.153 -0.9527  0.6376  0.1380
  754MOL0     C99450   6.631   5.877   8.279  0.3082 -0.6673 -0.3763
  754MOL0     C99451   6.629   5.785   8.388 -0.1993  0.3098  0.4392
  754MOL0     C99452   6.510   5.711   8.400  0.0010  1.1741 -0.0903
  754MOL0     C99453   6.408   5.709   8.310  0.0125  0.4591  0.6856
  754MOL0     O99454   6.300   5.618   8.304  0.2112 -1.3694 -0.5060
  754MOL0     C99455   6.304   5.506   8.391  0.2445  1.1424 -0.8224
  754MOL0     C99456   6.184   5.408   8.382  0.4857 -0.3414 -0.4253
  754MOL0     C99457   6.187   5.341   8.239 -0.4395  0.2345 -0.1869
  754MOL0     C99458   6.077   5.240   8.210  0.1349 -0.2901  0.1216
  754MOL0     C99459   6.099   5.117   8.298  0.3581 -0.5333 -1.4878
  754MOL0     C99460   6.124   5.023   8.364 -0.0237  0.1109 -0.0518
  754MOL0     C99461   6.401   5.813   8.216  0.4069  0.4070 -0.1669
  754MOL0     C99462   6.513   5.889   8.184 -1.1354  1.0222 -1.0400
  754MOL0     H99463   7.028   6.001   8.482 -2.7545  1.8487 -0.8210
  754MOL0     H99464   7.227   6.116   8.467 -2.0619  2.2585 -0.1170
  754MOL0     H99465   7.408   6.244   8.418 -0.5849  0.3379  1.0068
  754MOL0     H99466   7.301   6.359   8.361  0.8926  0.2115 -0.0056
  754MOL0     H99467   7.452   6.488   8.272 -2.4299 -0.3796  1.6306
  754MOL0     H99468   7.494   6.353   8.160  1.6458  1.3038 -0.1113
  754MOL0     H99469   7.633   6.268   8.347  0.7938  0.5349 -1.3114
  754MOL0     H99470   7.595   6.405   8.454  2.7210  1.6303 -0.5479
  754MOL0     H99471   7.723   6.481   8.193  0.1024  1.2800  1.0217
  754MOL0     H99472   7.694   6.565   8.350  1.7383 -0.1659 -0.0275
  754MOL0     H99473   7.876   6.320   8.286 -0.8328  0.3977 -1.5572
  754MOL0     H99474   7.840   6.398   8.449  1.4013 -0.1390  0.6033
  754MOL0     H99475   7.952   6.604   8.366  2.0707 -0.4965 -0.3158
  754MOL0     H99476   7.987   6.521   8.209  0.9612 -1.6793 -0.7912
  754MOL0     H99477   8.079   6.468   8.499 -1.0131  0.9749  0.5754
  754MOL0     H99478   8.092   6.344   8.369  1.2957  0.6911 -0.7357
  754MOL0     H99479   8.222   6.471   8.230 -1.0650  2.1482  0.0516
  754MOL0     H99480   8.307   6.460   8.386  0.8005  0.4383 -0.0189
  754MOL0     H99481   8.184   6.728   8.535  0.0133 -1.1131 -0.1982
  754MOL0     H99482   8.187   7.060   8.378 -0.3166 -0.0048 -1.7624
  754MOL0     H99483   8.180   6.996   8.539  0.0751 -3.4395  1.4074
  754MOL0     H99484   7.931   6.991   8.340 -1.9436  0.5393  1.3465
  754MOL0     H99485   7.961   7.110   8.453  1.8686  0.1256  0.7860
  754MOL0     H99486   7.963   6.821   8.532  0.0984  0.4216  1.1185
  754MOL0     H99487   7.949   6.974   8.630 -0.5965  0.7738  0.1441
  754MOL0     H99488   7.723   7.019   8.537 -2.6279  0.0038  1.9540
  754MOL0     H99489   7.733   6.875   8.636  1.9575 -2.6452 -1.1230
  754MOL0     H99490   7.597   6.849   8.207  2.6834  1.2260  2.0929
  754MOL0     H99491   7.346   6.771   8.180 -1.2334 -0.3739  1.1823
  754MOL0     H99492   6.964   6.640   8.631  3.1749  0.1995 -0.7293
  754MOL0     H99493   6.763   6.568   8.631 -1.0002  0.8981 -1.6349
  754MOL0     H99494   6.636   6.196   8.376 -2.5405 -1.9138  0.7122
  754MOL0     H99495   6.606   6.356   8.294  3.7477 -0.5780 -0.1962
  754MOL0     H99496   6.401   6.221   8.332 -2.6773  3.6486 -0.9154
  754MOL0     H99497   6.395   6.372   8.421  0.5675  0.9078  2.0594
  754MOL0     H99498   6.450   6.275   8.626  1.4881  0.0027 -1.1257
  754MOL0     H99499   6.478   6.114   8.561 -0.1686 -0.5050  0.8739
  754MOL0     H99500   6.215   6.241   8.522  1.7492  1.9103 -0.8269
  754MOL0     H99501   6.269   6.079   8.486  2.6095  0.9231 -1.5706
  754MOL0     H99502   6.297   6.217   8.757  2.3764 -1.1470 -0.8178
  754MOL0     H99503   6.290   6.036   8.739 -2.2367 -0.8471  0.4644
  754MOL0     H99504   6.062   6.061   8.677  1.7735  2.0904 -3.6562
  754MOL0     H99505   6.066   6.238   8.682  3.8325  0.8746 -5.2012
  754MOL0     H99506   6.164   6.051   8.911  2.3766  3.3244  0.7696
  754MOL0     H99507   6.120   6.221   8.924  1.4533 -0.0264  1.1853
  754MOL0     H99508   5.922   5.999   8.855  0.1878 -0.1220  1.4719
  754MOL0     H99509   5.874   6.153   8.905 -0.8719 -0.5116 -0.1115
  754MOL0     H99510   6.841   6.280   8.318  3.1716 -1.3437 -0.6754
  754MOL0     H99511   7.081   6.359   8.319 -0.2708  1.0815  0.6352
  754MOL0     H99512   7.353   6.667   8.598 -1.3925  0.3300 -1.4452
  754MOL0     H99513   7.576   6.721   8.617 -0.8989  1.5916 -0.0668
  754MOL0     H99514   7.191   6.139   8.040 -2.4903  2.9800 -0.2840
  754MOL0     H99515   6.967   6.016   8.068 -1.0106 -1.8777  0.7593
  754MOL0     H99516   6.714   5.775   8.455  0.5298  0.5057 -0.4291
  754MOL0     H99517   6.502   5.644   8.486 -2.7875  0.0085 -1.1178
  754MOL0     H99518   6.312   5.539   8.495 -0.4508  1.4130 -0.8489
  754MOL0     H99519   6.389   5.445   8.358 -1.3990 -0.2274 -2.7675
  754MOL0     H99520   6.194   5.339   8.466  1.8460  0.5603  0.1863
  754MOL0     H99521   6.091   5.464   8.391  0.4829  0.5107 -3.9361
  754MOL0     H99522   6.279   5.286   8.217  0.2185  1.5193 -0.7014
  754MOL0     H99523   6.172   5.425   8.171  0.0818 -0.6375 -1.4093
  754MOL0     H99524   5.986   5.294   8.238  1.9055  2.2273  1.5565
  754MOL0     H99525   6.070   5.232   8.102 -2.4413 -0.8895  0.2701
  754MOL0     H99526   6.148   4.935   8.422  1.6478 -0.4676 -1.5304
  754MOL0     H99527   6.306   5.809   8.164  1.2558 -0.2577 -1.7833
  754MOL0     H99528   6.512   5.956   8.099 -1.0122  1.8274 -0.4104
  755MOL0     O99529   5.372   2.272  10.113  0.2581 -0.3321 -0.3351
  755MOL0     C99530   5.399   2.266   9.994 -0.0601 -0.4674 -0.2625
  755MOL0     O99531   5.311   2.246   9.889  0.3314  0.1952  0.7733
  755MOL0     C99532   5.176   2.245   9.915  0.6117 -0.1264 -0.1383
  755MOL0     C99533   5.110   2.186  10.027 -0.3125 -0.5453  0.2066
  755MOL0     C99534   4.972   2.175  10.027 -0.2554 -0.9127 -0.7431
  755MOL0     C99535   4.893   2.199   9.913  0.6711  0.1918 -0.0938
  755MOL0     O99536   4.758   2.184   9.902 -0.2894 -0.5017  0.2530
  755MOL0     C99537   4.693   2.128  10.013 -1.0346 -0.6655 -1.0574
  755MOL0     C99538   4.543   2.096   9.991  0.5176  0.8658  1.1669
  755MOL0     C99539   4.526   1.992   9.882  0.5862  0.2723 -0.6522
  755MOL0     C99540   4.369   1.967   9.871  0.5738  0.1640 -0.5217
  755MOL0     C99541   4.339   1.839   9.803 -0.7945  0.1987  0.0057
  755MOL0     C99542   4.194   1.817   9.753  0.4119  1.2209 -0.4246
  755MOL0     C99543   4.097   1.813   9.873  0.4051 -0.0780 -0.4428
  755MOL0     C99544   4.030   1.944   9.912 -0.3184  0.2353  1.0457
  755MOL0     N99545   3.941   2.001   9.812 -1.0833  0.5934 -0.1106
  755MOL0     C99546   3.817   1.953   9.775 -0.2917  0.0103  1.0829
  755MOL0     C99547   3.762   2.053   9.698 -1.8216 -0.2129  0.3954
  755MOL0     C99548   3.645   2.043   9.615  0.4272 -1.6395  0.5409
  755MOL0     C99549   3.603   2.179   9.550 -0.4390  0.4435 -0.0337
  755MOL0     C99550   3.476   2.173   9.469 -0.5759  0.0112 -0.0136
  755MOL0     C99551   3.356   2.134   9.562  0.4158 -0.6773  0.0846
  755MOL0     O99552   3.234   2.169   9.490 -0.0097  0.0593 -0.2908
  755MOL0     C99553   3.116   2.145   9.552  0.3302  0.1395 -0.3884
  755MOL0     C99554   3.095   2.139   9.685  0.0676  0.2899 -0.2200
  755MOL0     C99555   2.974   2.109   9.745  0.7166  0.3694  0.5539
  755MOL0     C99556   2.856   2.092   9.667 -0.1436 -0.2092  0.3061
  755MOL0     C99557   2.729   2.063   9.724  0.3850  0.3134 -0.1481
  755MOL0     O99558   2.622   2.105   9.662  0.5794  0.3200  1.0747
  755MOL0     C99559   2.495   2.082   9.713 -0.4280 -0.3777  0.4891
  755MOL0     C99560   2.454   1.949   9.740 -0.3614 -0.0642  0.0604
  755MOL0     C99561   2.332   1.931   9.799  0.3978 -0.4211 -0.5769
  755MOL0     C99562   2.253   2.036   9.855 -0.0891 -1.0930  0.4647
  755MOL0     O99563   2.135   2.001   9.922 -0.5035  0.6673  0.5553
  755MOL0     C99564   2.059   2.094   9.999 -0.1906 -0.1729  0.1782
  755MOL0     C99565   2.145   2.157  10.119 -0.7843 -0.1408  1.1745
  755MOL0     C99566   2.095   2.132  10.258 -0.0949  0.3912 -0.4569
  755MOL0     C99567   2.143   1.998  10.312  0.0397 -0.2899 -0.6389
  755MOL0     C99568   2.083   1.864  10.254 -0.0620 -0.9989  0.7912
  755MOL0     C99569   2.087   1.744  10.349 -0.4790 -0.0734  0.3972
  755MOL0     C99570   2.038   1.632  10.266 -0.1072  0.9078  0.0653
  755MOL0     C99571   2.043   1.500  10.348 -0.0324 -0.4999  0.5969
  755MOL0    Cl99572   1.924   1.485  10.477  0.1322  0.2736  0.1397
  755MOL0     C99573   2.290   2.169   9.818 -0.1264 -0.3341  0.0525
  755MOL0     C99574   2.405   2.191   9.741  0.3254 -0.9407 -0.8186
  755MOL0     O99575   2.731   2.007   9.833 -0.6189  0.2842  0.0068
  755MOL0     C99576   2.873   2.111   9.530  0.1699 -0.1623 -0.2628
  755MOL0     C99577   3.000   2.141   9.470 -0.0311 -0.3055  0.2330
  755MOL0     N99578   3.853   2.163   9.690  0.0612  0.7339 -0.0262
  755MOL0     N99579   3.961   2.133   9.757 -0.1113  0.1873  0.2120
  755MOL0     C99580   4.958   2.262   9.805  0.6574  0.5371 -0.4207
  755MOL0     C99581   5.094   2.281   9.802  0.9494  0.9291  0.5468
  755MOL0     C99582   5.536   2.281   9.949  0.0791  0.0426 -1.2986
  755MOL0     C99583   5.616   2.357  10.023 -0.1260 -0.3427  0.1682
  755MOL0     C99584   5.745   2.380   9.993  0.3197  0.2810  0.8539
  755MOL0     C99585   5.800   2.341   9.870  0.3057  0.0406 -0.2327
  755MOL0     O99586   5.921   2.388   9.831  0.6575  0.2393  0.6056
  755MOL0     C99587   5.992   2.321   9.726  1.2948  0.0812 -0.2353
  755MOL0     C99588   6.126   2.388   9.735  0.1935 -0.3058  0.1601
  755MOL0     C99589   6.233   2.339   9.649 -0.0636  0.0707  0.0683
  755MOL0     C99590   6.270   2.200   9.693  0.8082  0.1040 -0.5728
  755MOL0     C99591   6.409   2.161   9.661 -0.1417  0.1004 -0.6254
  755MOL0     C99592   6.528   2.131   9.635  0.1474 -0.0481 -0.0094
  755MOL0     C99593   5.712   2.272   9.778  0.5636  0.2774 -0.3963
  755MOL0     C99594   5.586   2.238   9.828 -0.6042  0.6446  0.1550
  755MOL0     H99595   5.168   2.163  10.116 -1.3306 -0.2003  0.9746
  755MOL0     H99596   4.917   2.142  10.114  0.0192 -3.5158 -1.4802
  755MOL0     H99597   4.688   2.203  10.092 -1.6611 -0.6340 -1.1215
  755MOL0     H99598   4.751   2.052  10.065  0.3660  2.8601  3.0904
  755MOL0     H99599   4.487   2.188   9.976 -1.3607 -0.3175  0.4923
  755MOL0     H99600   4.520   2.045  10.085  1.0303  0.1345  0.9087
  755MOL0     H99601   4.586   1.903   9.903  0.9185 -0.2110 -3.3397
  755MOL0     H99602   4.566   2.022   9.785 -1.4910 -1.0506 -2.0000
  755MOL0     H99603   4.317   1.959   9.967  0.0720 -1.6473 -0.9127
  755MOL0     H99604   4.308   2.046   9.827 -1.2996 -0.7348  0.3605
  755MOL0     H99605   4.375   1.760   9.869  1.1679  0.4233 -0.7413
  755MOL0     H99606   4.396   1.838   9.709  0.3062 -1.0949  0.6600
  755MOL0     H99607   4.188   1.723   9.698  0.0999  0.4995  0.7955
  755MOL0     H99608   4.171   1.897   9.682  4.2744  1.3010 -1.7961
  755MOL0     H99609   4.021   1.742   9.841 -0.1134  0.6485 -0.8650
  755MOL0     H99610   4.150   1.770   9.958 -1.8964 -0.1992  0.9908
  755MOL0     H99611   4.110   2.016   9.930  0.7456 -0.6021 -0.2258
  755MOL0     H99612   3.989   1.925  10.012  3.5354 -1.2212  2.5191
  755MOL0     H99613   3.777   1.853   9.786  0.3812 -0.4701 -0.5198
  755MOL0     H99614   3.562   2.004   9.676  1.0494 -3.9791  0.0100
  755MOL0     H99615   3.645   1.973   9.530 -3.4315 -1.2927  0.0470
  755MOL0     H99616   3.679   2.196   9.474 -0.3561  0.5445  0.0711
  755MOL0     H99617   3.609   2.262   9.621  1.5363  0.5698 -0.3085
  755MOL0     H99618   3.478   2.277   9.434  3.3474 -0.4691 -1.7781
  755MOL0     H99619   3.488   2.114   9.378  0.2062 -0.5291  0.4220
  755MOL0     H99620   3.354   2.198   9.650 -3.3416  0.7852 -0.8588
  755MOL0     H99621   3.363   2.029   9.590  0.9479 -1.4277 -2.5388
  755MOL0     H99622   3.186   2.150   9.744  0.6807 -1.1650 -0.8498
  755MOL0     H99623   2.960   2.109   9.853 -3.1750  1.4805  0.2111
  755MOL0     H99624   2.522   1.872   9.704  2.4686  1.3220  2.0680
  755MOL0     H99625   2.311   1.825   9.809 -1.9815  0.1264  1.0661
  755MOL0     H99626   1.966   2.055  10.040  0.4590 -2.1735 -0.1311
  755MOL0     H99627   2.030   2.176   9.932  2.1640  0.2784 -0.3975
  755MOL0     H99628   2.143   2.263  10.093  2.5408 -0.6026 -1.7606
  755MOL0     H99629   2.251   2.130  10.112 -0.9360 -1.0162  2.0565
  755MOL0     H99630   1.987   2.148  10.266 -0.4696 -2.0854  0.4434
  755MOL0     H99631   2.146   2.207  10.320 -0.0584 -1.1864  1.5404
  755MOL0     H99632   2.251   1.988  10.328 -0.1267  2.1196  3.6991
  755MOL0     H99633   2.093   1.993  10.409  0.2813  1.9291 -0.3422
  755MOL0     H99634   2.149   1.846  10.169 -0.7714 -1.9029  0.4036
  755MOL0     H99635   1.982   1.876  10.213  0.9598  0.3181 -1.5551
  755MOL0     H99636   2.019   1.765  10.432  1.4535  1.9464  1.5676
  755MOL0     H99637   2.183   1.730  10.399 -0.9572 -3.0986  0.6869
  755MOL0     H99638   1.939   1.653  10.226  0.7324  2.8209 -1.1457
  755MOL0     H99639   2.109   1.618  10.184  2.7019  3.0955  1.9266
  755MOL0     H99640   2.141   1.487  10.394  0.6980  1.3370 -0.3409
  755MOL0     H99641   2.022   1.417  10.280 -1.7124 -0.9366  1.5800
  755MOL0     H99642   2.231   2.257   9.843  0.4337  0.0444  0.0596
  755MOL0     H99643   2.441   2.292   9.721  0.4535 -0.1697  2.7140
  755MOL0     H99644   2.791   2.104   9.460 -1.0524 -4.7403  1.3087
  755MOL0     H99645   2.997   2.158   9.363 -1.0107 -3.3077 -0.3182
  755MOL0     H99646   4.893   2.294   9.724 -1.7800 -4.3291 -0.7830
  755MOL0     H99647   5.148   2.322   9.717  1.8809 -2.5697 -0.7247
  755MOL0     H99648   5.591   2.405  10.118 -0.2716 -1.2870  0.6115
  755MOL0     H99649   5.806   2.442  10.057  2.7252  1.1816 -2.0750
  755MOL0     H99650   5.951   2.335   9.625  0.0815 -1.0512  0.0688
  755MOL0     H99651   6.006   2.215   9.747 -0.6532 -0.0150  0.8273
  755MOL0     H99652   6.104   2.491   9.705 -1.7208 -0.7695 -0.1253
  755MOL0     H99653   6.160   2.397   9.839  3.8268 -0.0177 -0.9106
  755MOL0     H99654   6.322   2.398   9.675  0.4245 -0.1981 -0.9603
  755MOL0     H99655   6.215   2.341   9.542  0.0290 -0.3119  0.0463
  755MOL0     H99656   6.263   2.187   9.801 -1.8100  2.9085 -0.2552
  755MOL0     H99657   6.193   2.130   9.660  0.5318 -1.0243  2.2051
  755MOL0     H99658   6.627   2.094   9.618  0.5442 -0.0387  2.0381
  755MOL0     H99659   5.739   2.248   9.675 -1.4688 -1.5839 -0.5660
  755MOL0     H99660   5.517   2.181   9.768 -0.6742  0.6437  0.2348
  756MOL0     O99661   2.803   1.387   7.019  0.0334 -0.1937 -0.6135
  756MOL0     C99662   2.826   1.404   7.135  0.9467 -0.1025 -0.2737
  756MOL0     O99663   2.731   1.395   7.236  0.0535 -0.0560 -0.3804
  756MOL0     C99664   2.600   1.354   7.220  0.8297 -0.8358 -0.2698
  756MOL0     C99665   2.522   1.344   7.099 -0.3679  0.3739 -0.0240
  756MOL0     C99666   2.384   1.313   7.111 -0.1913 -0.1282  0.6751
  756MOL0     C99667   2.314   1.301   7.227 -0.4215  0.1861 -0.0006
  756MOL0     O99668   2.185   1.265   7.229 -0.2539  0.7900  0.1695
  756MOL0     C99669   2.130   1.204   7.112  1.1795  0.1033 -0.2422
  756MOL0     C99670   1.995   1.150   7.154  0.2593  0.9914 -0.1356
  756MOL0     C99671   1.940   1.076   7.027  0.0359 -1.0825 -0.5317
  756MOL0     C99672   1.795   1.017   7.038  1.0072  0.1075 -0.0775
  756MOL0     C99673   1.764   0.923   6.922 -0.7927  0.0562  0.5760
  756MOL0     C99674   1.771   0.993   6.784  0.9011  0.0123 -0.8770
  756MOL0     C99675   1.652   1.089   6.757  0.1502  0.1982  0.2611
  756MOL0     C99676   1.537   1.031   6.666 -0.1170  0.5171 -0.3869
  756MOL0     N99677   1.460   0.924   6.728  0.2050 -0.2173  0.6020
  756MOL0     C99678   1.416   0.932   6.857 -0.1525  0.0326 -0.0287
  756MOL0     C99679   1.379   0.806   6.884  0.3998 -0.3192 -0.0853
  756MOL0     C99680   1.354   0.771   7.031 -0.0592 -0.7851  0.2355
  756MOL0     C99681   1.251   0.657   7.039 -0.7485 -0.1172  0.8255
  756MOL0     C99682   1.108   0.701   7.007 -0.0494  0.2682  0.0332
  756MOL0     C99683   1.023   0.571   7.000  0.3228 -0.0788  0.3651
  756MOL0     O99684   0.983   0.514   7.127  1.0358  0.1301 -0.8835
  756MOL0     C99685   0.845   0.517   7.155 -0.3040  0.5294 -0.0361
  756MOL0     C99686   0.793   0.575   7.272  0.1570 -0.3424 -0.0183
  756MOL0     C99687   0.660   0.556   7.311  0.1286 -0.0983 -0.3322
  756MOL0     C99688   0.570   0.488   7.227 -0.2308  0.7252  0.2393
  756MOL0     C99689   0.422   0.468   7.254  0.1883 -0.4510  0.1369
  756MOL0     O99690   0.347   0.364   7.195 -0.0053  0.6411  0.6645
  756MOL0     C99691   0.222   0.327   7.234 -0.1257  0.1367 -0.5285
  756MOL0     C99692   0.163   0.241   7.141  0.6218 -0.0015 -0.1547
  756MOL0     C99693   0.025   0.199   7.167 -0.5617  0.1654  0.1076
  756MOL0     C99694  -0.064   0.254   7.264 -0.3555  0.1756 -0.6548
  756MOL0     O99695  -0.199   0.222   7.282 -0.1962  0.4661  0.1311
  756MOL0     C99696  -0.272   0.169   7.174 -0.0659 -0.5241  0.2077
  756MOL0     C99697  -0.409   0.224   7.157 -0.0181  0.1117  0.4924
  756MOL0     C99698  -0.501   0.176   7.270  0.1592 -0.5116  0.8655
  756MOL0     C99699  -0.648   0.218   7.254  0.2851  0.0611  0.4696
  756MOL0     C99700  -0.733   0.159   7.367  0.0750  0.3691 -0.8359
  756MOL0     C99701  -0.887   0.190   7.358  0.0613 -0.1700  0.0156
  756MOL0     C99702  -0.971   0.107   7.450 -0.2385  0.0702 -1.1490
  756MOL0     C99703  -0.920   0.134   7.598  0.4600 -0.2120 -0.2865
  756MOL0    Cl99704  -1.039   0.091   7.732 -0.1300 -0.0819  0.1090
  756MOL0     C99705   0.007   0.333   7.360 -0.5880  1.0367  0.1950
  756MOL0     C99706   0.144   0.365   7.344 -0.4577 -0.3692 -0.1378
  756MOL0     O99707   0.379   0.555   7.324 -0.2009  0.0139 -0.9258
  756MOL0     C99708   0.627   0.419   7.117  0.2733 -0.3374 -0.5251
  756MOL0     C99709   0.759   0.438   7.085  0.2279  1.2152 -0.4375
  756MOL0     N99710   1.393   0.731   6.766  0.1134  0.3705  0.4703
  756MOL0     N99711   1.432   0.807   6.673 -0.2475 -0.0286  0.5634
  756MOL0     C99712   2.390   1.316   7.346 -0.2142 -0.1497 -0.0937
  756MOL0     C99713   2.525   1.342   7.337 -0.2186  0.0052 -0.4550
  756MOL0     C99714   2.967   1.443   7.167  0.1680 -0.6708  0.7060
  756MOL0     C99715   3.044   1.492   7.058 -0.5998  0.4043 -0.5849
  756MOL0     C99716   3.173   1.549   7.085  0.4222  0.0162 -1.2163
  756MOL0     C99717   3.212   1.570   7.216  0.4399 -0.5467 -0.0986
  756MOL0     O99718   3.336   1.617   7.251 -0.0663 -0.2874  0.0146
  756MOL0     C99719   3.456   1.589   7.170 -0.0505 -0.1498 -0.2458
  756MOL0     C99720   3.577   1.599   7.263 -0.4498 -0.5055  0.4485
  756MOL0     C99721   3.701   1.536   7.187  0.2380 -1.0605  0.5731
  756MOL0     C99722   3.828   1.542   7.273 -0.0128  0.3293  0.0500
  756MOL0     C99723   3.939   1.502   7.193  0.2521  0.3088 -0.1253
  756MOL0     C99724   4.041   1.484   7.127  0.1691 -0.4107  0.2887
  756MOL0     C99725   3.122   1.532   7.321 -0.4011 -0.8580 -0.0165
  756MOL0     C99726   3.007   1.461   7.297  0.2149  0.3105  0.4102
  756MOL0     H99727   2.560   1.353   6.998  0.5299  0.4661  0.3156
  756MOL0     H99728   2.328   1.294   7.020  2.5852  0.0953 -1.2139
  756MOL0     H99729   2.196   1.131   7.065  0.6321  0.2495 -1.2621
  756MOL0     H99730   2.109   1.284   7.040  0.6997  0.1060 -0.1034
  756MOL0     H99731   1.917   1.227   7.160 -1.1348  0.1590 -4.1494
  756MOL0     H99732   2.003   1.082   7.239 -0.7029  2.1217  0.9091
  756MOL0     H99733   2.005   0.998   6.985 -0.9930 -1.7691 -0.8925
  756MOL0     H99734   1.942   1.148   6.945 -2.1160  1.0353  1.1273
  756MOL0     H99735   1.782   0.955   7.128  2.9500 -1.1116 -0.5807
  756MOL0     H99736   1.715   1.091   7.047  0.2788 -0.6000 -0.5669
  756MOL0     H99737   1.674   0.863   6.938 -1.4774 -0.5760 -4.2992
  756MOL0     H99738   1.843   0.847   6.923 -0.3087  0.5567  1.0761
  756MOL0     H99739   1.767   0.923   6.701 -1.8669 -0.3955 -0.5020
  756MOL0     H99740   1.861   1.056   6.783  1.0858 -0.1896  0.6920
  756MOL0     H99741   1.623   1.112   6.860 -0.0857  1.0161  0.0154
  756MOL0     H99742   1.696   1.178   6.712  0.4072  0.4841  1.0557
  756MOL0     H99743   1.583   1.001   6.571 -1.0462 -0.8554 -0.4324
  756MOL0     H99744   1.474   1.119   6.650  2.0473  2.5420  1.4551
  756MOL0     H99745   1.436   1.012   6.927 -1.8242  0.4687 -0.0185
  756MOL0     H99746   1.313   0.860   7.080 -2.2292 -0.6573 -1.6276
  756MOL0     H99747   1.452   0.751   7.075 -0.3053 -2.6302  0.0224
  756MOL0     H99748   1.254   0.626   7.145 -1.0486  0.3492  0.9711
  756MOL0     H99749   1.285   0.584   6.965 -2.8375  0.8602 -1.2184
  756MOL0     H99750   1.076   0.770   7.085  0.5181 -2.4896  2.9105
  756MOL0     H99751   1.099   0.745   6.907 -0.1720 -1.6163 -0.8293
  756MOL0     H99752   1.072   0.500   6.934  0.2849 -0.1386  0.4011
  756MOL0     H99753   0.930   0.596   6.947  1.6185  2.0737 -1.0675
  756MOL0     H99754   0.865   0.623   7.337 -0.4653  0.0161  0.4196
  756MOL0     H99755   0.621   0.599   7.403  3.7757 -1.6439  2.1749
  756MOL0     H99756   0.228   0.202   7.062 -3.4029 -3.5184 -2.1379
  756MOL0     H99757  -0.008   0.123   7.096 -0.5506  0.1872  0.0787
  756MOL0     H99758  -0.281   0.062   7.195  2.1198 -0.8476 -0.3310
  756MOL0     H99759  -0.214   0.184   7.082 -1.0759  0.0762 -0.3546
  756MOL0     H99760  -0.433   0.194   7.055  3.6916 -0.3064 -0.4115
  756MOL0     H99761  -0.394   0.331   7.171 -1.7166  1.0216 -3.4517
  756MOL0     H99762  -0.464   0.224   7.361  1.3585 -0.0772  0.1835
  756MOL0     H99763  -0.496   0.071   7.302 -1.8095 -0.6219  0.9310
  756MOL0     H99764  -0.660   0.327   7.249 -1.3323 -0.1074  0.0699
  756MOL0     H99765  -0.678   0.178   7.156  1.1611  2.0663 -0.6807
  756MOL0     H99766  -0.694   0.205   7.458 -1.8934 -0.7550  0.6498
  756MOL0     H99767  -0.724   0.050   7.367  1.0078  0.4325 -0.2367
  756MOL0     H99768  -0.935   0.192   7.259  0.8647  0.5045 -0.3728
  756MOL0     H99769  -0.902   0.292   7.394 -2.3329  0.6743 -2.9202
  756MOL0     H99770  -1.075   0.134   7.429  0.1427 -0.4420 -4.0248
  756MOL0     H99771  -0.945   0.001   7.439 -0.0720  0.3411 -4.1090
  756MOL0     H99772  -0.912   0.242   7.605 -1.5742  0.0847 -1.4852
  756MOL0     H99773  -0.826   0.080   7.608  1.4947  1.4080 -0.9286
  756MOL0     H99774  -0.064   0.364   7.436 -1.1316 -0.4362  0.3124
  756MOL0     H99775   0.181   0.427   7.424  0.3235 -1.8414  0.6912
  756MOL0     H99776   0.550   0.366   7.062 -2.3898  2.2244  0.5120
  756MOL0     H99777   0.785   0.402   6.985  0.6440  3.7581 -1.3047
  756MOL0     H99778   2.345   1.313   7.444  0.3243 -3.0956  0.1560
  756MOL0     H99779   2.586   1.343   7.427 -1.8591  0.7486  0.6966
  756MOL0     H99780   3.032   1.469   6.953  3.2186 -1.4303 -0.7605
  756MOL0     H99781   3.238   1.564   6.999  2.1655  0.0180  0.0563
  756MOL0     H99782   3.473   1.663   7.092  0.8131  1.3309  1.2836
  756MOL0     H99783   3.448   1.492   7.120  1.3925 -0.3922 -0.0473
  756MOL0     H99784   3.585   1.703   7.294 -1.9549 -0.3047  0.2692
  756MOL0     H99785   3.548   1.537   7.348 -1.1802 -0.6103  0.1378
  756MOL0     H99786   3.715   1.587   7.091 -1.8589  1.9901  1.7129
  756MOL0     H99787   3.680   1.433   7.156 -3.2877  0.1229 -1.5499
  756MOL0     H99788   3.859   1.643   7.301 -2.6851  1.5814 -1.2145
  756MOL0     H99789   3.808   1.482   7.363  0.3591  0.7764  0.4355
  756MOL0     H99790   4.134   1.471   7.074  0.3620  1.5048  0.0681
  756MOL0     H99791   3.156   1.520   7.424  0.6623 -2.2914 -0.5036
  756MOL0     H99792   2.953   1.413   7.378  0.7614 -1.0017  0.0234
  757MOL0     O99793  11.235   0.616   1.179  0.0527  0.5158  0.5251
  757MOL0     C99794  11.357   0.645   1.175  0.9149  0.6800 -0.8014
  757MOL0     O99795  11.410   0.746   1.242 -0.3676 -0.8686 -0.5790
  757MOL0     C99796  11.351   0.825   1.346  0.3606 -0.7108  0.5684
  757MOL0     C99797  11.357   0.964   1.339 -0.2511 -0.5147 -0.2076
  757MOL0     C99798  11.300   1.033   1.444  0.0620  0.0131  0.4530
  757MOL0     C99799  11.213   0.977   1.530 -0.6395  0.1677  0.6788
  757MOL0     O99800  11.139   1.039   1.616  0.7330 -0.2397  0.3010
  757MOL0     C99801  11.092   1.177   1.590 -0.1964 -0.0102 -0.9390
  757MOL0     C99802  11.000   1.178   1.466 -0.1602 -0.2720  0.2733
  757MOL0     C99803  10.935   1.312   1.446  0.6982 -0.1072 -0.6025
  757MOL0     C99804  10.817   1.287   1.346 -1.3386 -0.5210  0.3037
  757MOL0     C99805  10.757   1.419   1.291  0.5894  0.0515  0.6085
  757MOL0     C99806  10.628   1.390   1.213 -1.0794 -0.9643 -0.1284
  757MOL0     C99807  10.539   1.521   1.198  0.1018 -0.0294  0.4050
  757MOL0     C99808  10.412   1.523   1.114 -0.1424 -0.2008 -0.2793
  757MOL0     N99809  10.339   1.394   1.127 -0.2318  0.2380 -0.6628
  757MOL0     C99810  10.365   1.273   1.065  1.2509  1.5550 -0.8389
  757MOL0     C99811  10.281   1.183   1.108  0.0556 -0.5454  0.7365
  757MOL0     C99812  10.280   1.035   1.072 -0.4087 -0.1737  0.1774
  757MOL0     C99813  10.326   0.967   1.186 -0.1671 -0.0037 -0.0217
  757MOL0     C99814  10.475   0.988   1.218 -0.1495 -0.2455  0.2185
  757MOL0     C99815  10.574   0.925   1.113  0.0417 -0.2474  0.1548
  757MOL0     O99816  10.708   0.965   1.140  0.2011  0.4359  0.1873
  757MOL0     C99817  10.821   0.919   1.076 -0.1351 -0.0580  0.4794
  757MOL0     C99818  10.826   0.825   0.978  0.1498 -0.4654  1.0648
  757MOL0     C99819  10.943   0.782   0.919 -0.4089 -0.2355  0.1531
  757MOL0     C99820  11.066   0.832   0.958 -0.1235  0.5488 -1.0433
  757MOL0     C99821  11.194   0.783   0.896 -0.3353 -0.2274 -0.9846
  757MOL0     O99822  11.184   0.690   0.796 -0.5637  0.1609  0.3095
  757MOL0     C99823  11.285   0.632   0.723  0.8080 -0.5744 -0.2449
  757MOL0     C99824  11.239   0.544   0.626  0.8801 -0.1803 -0.0797
  757MOL0     C99825  11.325   0.473   0.545 -0.3395  0.0866  0.0908
  757MOL0     C99826  11.469   0.486   0.548  0.4910  0.0553 -0.0725
  757MOL0     O99827  11.561   0.399   0.494 -0.6627  0.1376 -0.6694
  757MOL0     C99828  11.506   0.292   0.412  0.2842 -0.4597 -0.5372
  757MOL0     C99829  11.606   0.188   0.381  0.0940 -0.5272 -0.3106
  757MOL0     C99830  11.725   0.230   0.299 -0.3225 -0.5237  0.0528
  757MOL0     C99831  11.833   0.132   0.255  0.5730  0.2410  0.6510
  757MOL0     C99832  11.933   0.215   0.166  0.7839  0.8001 -0.3529
  757MOL0     C99833  12.077   0.179   0.203  0.6365  0.9023  0.4687
  757MOL0     C99834  12.170   0.238   0.097 -0.0299 -0.6196 -0.4343
  757MOL0     C99835  12.305   0.275   0.158  0.1062 -0.3702 -0.0039
  757MOL0    Cl99836  12.436   0.246   0.038 -0.4412 -0.1418  0.4139
  757MOL0     C99837  11.512   0.588   0.636 -0.5761 -0.4631 -0.8972
  757MOL0     C99838  11.423   0.660   0.727 -0.0274 -0.2848  0.3179
  757MOL0     O99839  11.299   0.833   0.926  0.3552 -0.1720 -0.8282
  757MOL0     C99840  11.068   0.923   1.068  0.4254  0.1644  0.4595
  757MOL0     C99841  10.939   0.964   1.122 -1.0168 -0.5882  0.5538
  757MOL0     N99842  10.191   1.244   1.190  0.4943 -0.0430 -0.4508
  757MOL0     N99843  10.234   1.364   1.213 -1.3535 -0.4156 -0.8775
  757MOL0     C99844  11.199   0.842   1.535 -0.4683 -0.7557 -0.0237
  757MOL0     C99845  11.266   0.772   1.442  0.4324 -0.5573 -0.7230
  757MOL0     C99846  11.434   0.565   1.078  0.3938 -0.2439 -0.1908
  757MOL0     C99847  11.380   0.464   0.998 -0.5003  0.1673 -0.1882
  757MOL0     C99848  11.474   0.402   0.913  0.6004 -0.7061 -0.0662
  757MOL0     C99849  11.609   0.439   0.903 -0.5393  0.1062 -0.4181
  757MOL0     O99850  11.687   0.360   0.821  0.1957  0.2800  0.4489
  757MOL0     C99851  11.812   0.413   0.784 -0.8762  0.1040 -0.0028
  757MOL0     C99852  11.863   0.342   0.662  0.3975 -0.3034  0.2210
  757MOL0     C99853  12.010   0.363   0.633 -0.5899 -0.8150 -0.2662
  757MOL0     C99854  12.036   0.446   0.507  0.7278  0.2280 -0.1563
  757MOL0     C99855  12.180   0.434   0.479  0.5613 -0.4689 -0.1479
  757MOL0     C99856  12.298   0.433   0.461 -0.8511  0.6005 -0.3056
  757MOL0     C99857  11.654   0.554   0.973  0.6522 -0.8680  0.5174
  757MOL0     C99858  11.568   0.613   1.064 -1.0372 -0.3198 -0.4259
  757MOL0     H99859  11.432   1.017   1.281 -0.7372  2.0623  1.3827
  757MOL0     H99860  11.311   1.141   1.448  0.5949 -0.0507  0.8658
  757MOL0     H99861  11.170   1.252   1.576 -1.3812  1.3719 -0.4378
  757MOL0     H99862  11.027   1.204   1.674 -1.7487 -0.8194 -1.8153
  757MOL0     H99863  10.924   1.099   1.471 -0.4356  0.0585  1.9815
  757MOL0     H99864  11.062   1.156   1.378  0.9765  1.0902  0.7026
  757MOL0     H99865  11.002   1.395   1.419 -0.6937  1.3914  0.3256
  757MOL0     H99866  10.884   1.332   1.541 -1.0810 -0.7212 -1.4073
  757MOL0     H99867  10.856   1.227   1.264 -0.4237  0.1253  0.2478
  757MOL0     H99868  10.729   1.237   1.388 -0.2364 -1.5166  1.4987
  757MOL0     H99869  10.834   1.478   1.239  1.2769  1.5226  3.1210
  757MOL0     H99870  10.726   1.477   1.379 -0.9285 -0.9945  0.8017
  757MOL0     H99871  10.576   1.308   1.262  0.6409 -1.6457  0.6135
  757MOL0     H99872  10.648   1.361   1.109 -2.4381  2.8919 -1.6701
  757MOL0     H99873  10.518   1.550   1.301  0.7980 -0.9329  0.8210
  757MOL0     H99874  10.593   1.604   1.152 -2.2923  0.6649 -1.3057
  757MOL0     H99875  10.448   1.535   1.011  0.4535 -1.1461 -0.1933
  757MOL0     H99876  10.354   1.614   1.134 -0.4910 -0.5326  0.2207
  757MOL0     H99877  10.458   1.244   1.016 -0.1657 -0.2633 -2.6218
  757MOL0     H99878  10.344   1.010   0.986 -0.1401  4.3409 -1.2044
  757MOL0     H99879  10.180   1.002   1.040  0.2153 -2.1113  0.0804
  757MOL0     H99880  10.310   0.862   1.160  2.1815  0.2998 -3.2043
  757MOL0     H99881  10.262   1.001   1.269  1.7570  1.3555  0.9789
  757MOL0     H99882  10.502   1.093   1.232 -0.9620  0.6664 -3.7711
  757MOL0     H99883  10.498   0.942   1.315  0.0520  0.8309  0.6883
  757MOL0     H99884  10.556   0.945   1.007  2.4159 -0.9766 -0.4427
  757MOL0     H99885  10.570   0.816   1.122  1.4140 -0.3722 -0.5224
  757MOL0     H99886  10.732   0.779   0.947 -0.6015  0.7428  1.4681
  757MOL0     H99887  10.924   0.702   0.848  1.3666 -2.0348  1.5592
  757MOL0     H99888  11.134   0.518   0.626  0.4642  1.3240  1.2664
  757MOL0     H99889  11.278   0.400   0.480 -0.5074 -0.4211  0.7685
  757MOL0     H99890  11.468   0.338   0.320 -0.3245  0.9195  0.3699
  757MOL0     H99891  11.426   0.240   0.465  0.8894  0.4798  1.3954
  757MOL0     H99892  11.557   0.117   0.314 -2.4341 -0.2764  1.1606
  757MOL0     H99893  11.639   0.127   0.466  0.9504 -3.1499 -2.3556
  757MOL0     H99894  11.781   0.307   0.352  1.2679 -1.5813 -0.0104
  757MOL0     H99895  11.683   0.276   0.209 -2.1777 -2.9535 -0.4422
  757MOL0     H99896  11.879   0.081   0.341 -0.9319 -1.0670  0.7187
  757MOL0     H99897  11.789   0.062   0.184 -1.0320 -0.9197  2.6972
  757MOL0     H99898  11.909   0.321   0.172  0.9103  1.3101 -5.1283
  757MOL0     H99899  11.911   0.186   0.063 -0.6520  0.4511  0.0381
  757MOL0     H99900  12.092   0.071   0.213 -1.0664  0.6758  0.8409
  757MOL0     H99901  12.088   0.224   0.303 -1.8333 -1.9013  2.1683
  757MOL0     H99902  12.177   0.158   0.022 -0.7743 -1.3001  0.2092
  757MOL0     H99903  12.129   0.327   0.049 -2.1363 -0.4131  1.6202
  757MOL0     H99904  12.328   0.224   0.252 -1.5611 -4.8285 -1.7146
  757MOL0     H99905  12.284   0.379   0.184 -1.3666 -0.9950  1.5259
  757MOL0     H99906  11.617   0.606   0.655 -0.6125  0.7925 -1.7548
  757MOL0     H99907  11.473   0.731   0.792 -1.2781 -0.0889  1.1049
  757MOL0     H99908  11.158   0.966   1.108  2.0743  0.0142 -2.7168
  757MOL0     H99909  10.940   1.037   1.202  1.0609 -1.4070  1.3543
  757MOL0     H99910  11.122   0.796   1.596 -1.2678 -2.0871 -1.9499
  757MOL0     H99911  11.254   0.664   1.443  3.8900 -1.0517 -0.0746
  757MOL0     H99912  11.281   0.422   1.008 -0.6339  0.4728 -0.2012
  757MOL0     H99913  11.439   0.317   0.856 -1.9719  0.6016 -0.5563
  757MOL0     H99914  11.882   0.403   0.868 -1.1225  0.0719  0.2005
  757MOL0     H99915  11.798   0.519   0.760 -2.3366 -0.2028 -0.6201
  757MOL0     H99916  11.850   0.235   0.684 -2.0585  0.0899  0.9703
  757MOL0     H99917  11.806   0.382   0.578  1.0553 -0.0662 -0.1243
  757MOL0     H99918  12.058   0.265   0.626 -0.9456 -0.9559 -0.7463
  757MOL0     H99919  12.047   0.430   0.712 -1.8087 -1.3184  0.7698
  757MOL0     H99920  11.979   0.402   0.425  0.7321 -0.6421  0.2924
  757MOL0     H99921  12.002   0.549   0.519  0.5462  0.2430 -0.7801
  757MOL0     H99922  12.404   0.438   0.453 -0.6270 -1.8741  0.3928
  757MOL0     H99923  11.758   0.586   0.974  0.8919 -1.4924  3.0872
  757MOL0     H99924  11.614   0.684   1.132  0.0294 -1.4651  0.0900
  758MOL0     O99925   3.726   3.081   1.522 -0.3780 -0.1576  0.0142
  758MOL0     C99926   3.756   3.196   1.481 -0.2194  0.4213  0.4745
  758MOL0     O99927   3.683   3.272   1.406 -0.2318  0.1310  0.5433
  758MOL0     C99928   3.546   3.250   1.408 -0.4678  0.0734  0.8466
  758MOL0     C99929   3.481   3.123   1.393 -0.4193 -0.4201  0.3890
  758MOL0     C99930   3.343   3.121   1.385  0.5623 -0.8377 -0.4441
  758MOL0     C99931   3.264   3.232   1.407  1.4714 -0.3426 -0.0628
  758MOL0     O99932   3.125   3.229   1.410  0.2894 -0.1166 -0.0871
  758MOL0     C99933   3.059   3.125   1.336  0.6989  0.0114 -0.2210
  758MOL0     C99934   2.904   3.135   1.338 -0.3213 -0.0641 -0.4584
  758MOL0     C99935   2.870   3.266   1.272  0.2271 -0.0243 -0.4813
  758MOL0     C99936   2.713   3.270   1.258  0.4407  0.5488  0.3555
  758MOL0     C99937   2.665   3.396   1.171 -0.1332  0.9930 -0.8368
  758MOL0     C99938   2.511   3.389   1.143 -0.6412 -0.0949 -0.3126
  758MOL0     C99939   2.444   3.521   1.098 -0.2918  0.5432 -0.2081
  758MOL0     C99940   2.312   3.490   1.035  0.7828 -0.7084  0.0984
  758MOL0     N99941   2.221   3.401   1.108  0.0251  0.2639  0.4394
  758MOL0     C99942   2.126   3.319   1.050  0.3503 -0.0686 -0.7619
  758MOL0     C99943   2.069   3.253   1.154 -0.5046  0.7691  0.1451
  758MOL0     C99944   1.977   3.132   1.144  0.1352 -0.3809  1.1252
  758MOL0     C99945   1.851   3.179   1.079  0.4942 -0.0684  0.8585
  758MOL0     C99946   1.745   3.065   1.077 -0.5274 -0.1106  0.9045
  758MOL0     C99947   1.606   3.107   1.017  0.2864 -0.2736  0.3683
  758MOL0     O99948   1.620   3.148   0.874 -0.8019 -0.9897  0.4736
  758MOL0     C99949   1.510   3.196   0.817 -0.5029  0.0078  0.3161
  758MOL0     C99950   1.531   3.203   0.680 -0.8684 -0.2003 -1.1569
  758MOL0     C99951   1.421   3.242   0.594 -0.0571 -0.8097 -0.1268
  758MOL0     C99952   1.301   3.286   0.649 -0.6371  0.3939  0.1214
  758MOL0     C99953   1.195   3.346   0.566 -1.0541 -0.2222  0.3313
  758MOL0     O99954   1.074   3.377   0.632 -0.2420  0.8319  0.1215
  758MOL0     C99955   0.959   3.411   0.564 -0.8874 -0.0414 -1.0195
  758MOL0     C99956   0.856   3.475   0.644 -0.5173  0.8038 -0.8781
  758MOL0     C99957   0.731   3.509   0.592 -0.3330  0.3991  0.5737
  758MOL0     C99958   0.691   3.459   0.456 -0.5998  0.2083 -1.1055
  758MOL0     O99959   0.575   3.473   0.387 -0.4922 -0.7033 -0.1975
  758MOL0     C99960   0.490   3.573   0.438  0.4589  0.5784 -0.3374
  758MOL0     C99961   0.347   3.570   0.369 -0.0346 -0.0316  0.6783
  758MOL0     C99962   0.372   3.587   0.212 -1.1612  0.0497  0.0333
  758MOL0     C99963   0.244   3.636   0.138 -0.3636  0.2918 -0.1870
  758MOL0     C99964   0.149   3.521   0.106  0.5736  0.8416  0.3431
  758MOL0     C99965   0.199   3.413   0.010 -0.2661  0.0072 -0.0510
  758MOL0     C99966   0.084   3.300   0.003  0.2157  0.5786 -0.1881
  758MOL0     C99967   0.116   3.173  -0.087  1.0964 -1.0636  0.5739
  758MOL0    Cl99968  -0.018   3.068  -0.122  0.2800 -0.0236  0.0344
  758MOL0     C99969   0.791   3.388   0.393  0.1791  0.0963  0.2615
  758MOL0     C99970   0.919   3.369   0.442 -0.2173 -0.3032 -0.6100
  758MOL0     O99971   1.212   3.356   0.445 -0.2136  0.8747  0.0642
  758MOL0     C99972   1.290   3.284   0.790  1.1633  0.1523 -0.3849
  758MOL0     C99973   1.390   3.225   0.871 -0.0378  0.4751 -0.8183
  758MOL0     N99974   2.128   3.296   1.269  0.8110 -0.1124 -0.5007
  758MOL0     N99975   2.206   3.392   1.242  0.0696 -0.7333  0.3883
  758MOL0     C99976   3.329   3.364   1.425 -0.3026 -0.2403  0.1173
  758MOL0     C99977   3.470   3.368   1.420  0.4248  0.6890  0.3997
  758MOL0     C99978   3.892   3.232   1.504  0.5208  0.3610  0.5861
  758MOL0     C99979   3.951   3.330   1.425  0.0609  0.4599  0.6543
  758MOL0     C99980   4.082   3.358   1.440 -0.5284  0.2950  0.2518
  758MOL0     C99981   4.167   3.288   1.527 -0.1812 -0.5484  0.4687
  758MOL0     O99982   4.300   3.333   1.557 -0.0972 -0.2290 -0.1368
  758MOL0     C99983   4.347   3.451   1.502 -0.9887 -0.2842 -0.3030
  758MOL0     C99984   4.425   3.419   1.374 -0.5603  0.2909 -0.0540
  758MOL0     C99985   4.510   3.542   1.318  0.4232  0.3003  0.4758
  758MOL0     C99986   4.664   3.522   1.344 -0.0694 -0.1503  0.2364
  758MOL0     C99987   4.706   3.567   1.477  0.3412  0.4354  0.8525
  758MOL0     C99988   4.761   3.604   1.583  0.9894  1.4760  0.5671
  758MOL0     C99989   4.109   3.177   1.589  0.2087  0.0156 -0.6733
  758MOL0     C99990   3.971   3.151   1.584  0.6145  0.7371  0.0872
  758MOL0     H99991   3.540   3.035   1.371  0.8346 -0.2864  2.7611
  758MOL0     H99992   3.299   3.024   1.364 -1.0567  0.0690 -1.5151
  758MOL0     H99993   3.068   3.028   1.386 -0.3131 -1.5602 -2.8913
  758MOL0     H99994   3.089   3.120   1.231  3.2078 -2.8969  0.4829
  758MOL0     H99995   2.870   3.125   1.441 -0.8384 -3.5619 -0.8494
  758MOL0     H99996   2.862   3.051   1.282  2.0391 -0.9546 -0.9978
  758MOL0     H99997   2.913   3.294   1.175  0.6488 -0.3439 -0.3880
  758MOL0     H99998   2.900   3.350   1.335  2.3920  2.8987 -4.8471
  758MOL0     H99999   2.688   3.171   1.218  1.4632 -0.1687  1.3995
  758MOL0     H    0   2.677   3.282   1.361 -0.1671 -0.6513  0.3024
  758MOL0     H    1   2.721   3.393   1.078 -0.2284  1.9416 -0.9335
  758MOL0     H    2   2.696   3.495   1.207 -0.6232  0.5587  0.9062
  758MOL0     H    3   2.460   3.365   1.237 -0.9746  2.5786  0.2695
  758MOL0     H    4   2.489   3.304   1.079 -0.3679 -0.8021  0.5072
  758MOL0     H    5   2.421   3.574   1.191 -0.1722 -1.5344  1.0484
  758MOL0     H    6   2.504   3.586   1.033  1.8106 -0.4517  0.6504
  758MOL0     H    7   2.319   3.468   0.928 -2.3003  1.2351 -0.6306
  758MOL0     H    8   2.251   3.581   1.033  0.1202 -1.1083 -3.0289
  758MOL0     H    9   2.104   3.309   0.944  1.6127  3.6145 -1.5096
  758MOL0     H   10   1.961   3.069   1.232 -0.4089 -2.7032 -0.5376
  758MOL0     H   11   2.026   3.065   1.073  0.4068  0.9754 -0.0173
  758MOL0     H   12   1.867   3.212   0.976 -0.7594  0.8325  0.9324
  758MOL0     H   13   1.803   3.256   1.141  1.4619  0.4857  0.9469
  758MOL0     H   14   1.784   2.986   1.011  2.0788  2.8587 -1.4028
  758MOL0     H   15   1.739   3.034   1.182 -0.1815 -0.1855  0.9035
  758MOL0     H   16   1.560   3.187   1.076  0.2037 -0.6709  0.8580
  758MOL0     H   17   1.537   3.023   1.028 -1.7817  1.3257  0.2041
  758MOL0     H   18   1.629   3.171   0.647 -0.4472  2.0915 -2.3098
  758MOL0     H   19   1.455   3.242   0.491 -1.2598 -2.9177 -0.5850
  758MOL0     H   20   0.889   3.504   0.744 -0.6916  1.2357 -0.9427
  758MOL0     H   21   0.656   3.557   0.655 -0.4789 -2.3564  2.6921
  758MOL0     H   22   0.532   3.672   0.416 -1.0288  0.9548 -1.7483
  758MOL0     H   23   0.470   3.554   0.543  2.1912 -2.3610 -0.4315
  758MOL0     H   24   0.277   3.648   0.400 -1.3125 -1.3752  1.2566
  758MOL0     H   25   0.286   3.481   0.384 -0.2827  0.3146  1.8449
  758MOL0     H   26   0.416   3.497   0.167  0.9222  0.6961  0.6595
  758MOL0     H   27   0.453   3.658   0.192  0.2852 -1.2137  1.1011
  758MOL0     H   28   0.195   3.716   0.194  1.3448  0.7490  0.7199
  758MOL0     H   29   0.269   3.682   0.042 -1.6474 -1.9803 -1.7027
  758MOL0     H   30   0.050   3.558   0.074  0.9050 -0.4453 -2.5342
  758MOL0     H   31   0.123   3.465   0.196 -0.7528 -0.9052 -1.0531
  758MOL0     H   32   0.290   3.383   0.062 -0.5983  1.6049  1.5345
  758MOL0     H   33   0.226   3.441  -0.092 -0.6740  1.2057  0.1564
  758MOL0     H   34   0.066   3.257   0.102 -0.1959 -2.2143 -1.3644
  758MOL0     H   35  -0.004   3.354  -0.034  1.1383  2.1639 -0.1416
  758MOL0     H   36   0.191   3.112  -0.036  2.7590  0.1762 -0.2818
  758MOL0     H   37   0.162   3.209  -0.179  2.6146  1.7223  2.2793
  758MOL0     H   38   0.759   3.336   0.303 -0.7489 -0.1826  0.7452
  758MOL0     H   39   0.979   3.296   0.389  1.0591 -0.4029  0.8875
  758MOL0     H   40   1.201   3.317   0.841  0.6662  0.6445 -1.5414
  758MOL0     H   41   1.371   3.209   0.977  0.8422 -2.4268 -0.9976
  758MOL0     H   42   3.271   3.455   1.423  0.3704  0.1919 -0.0449
  758MOL0     H   43   3.524   3.460   1.404  2.2107 -0.3683  0.1041
  758MOL0     H   44   3.909   3.399   1.353 -3.7379 -3.3172 -1.1747
  758MOL0     H   45   4.116   3.438   1.376  0.1795  0.6932  1.0981
  758MOL0     H   46   4.409   3.505   1.574 -0.2470 -1.9578  0.3702
  758MOL0     H   47   4.270   3.528   1.492 -0.4318  0.0436 -2.6631
  758MOL0     H   48   4.490   3.331   1.363  1.8320  2.1330 -1.7819
  758MOL0     H   49   4.354   3.401   1.293 -1.2388 -0.8199  0.7551
  758MOL0     H   50   4.470   3.638   1.350 -2.7107 -0.1656 -1.5903
  758MOL0     H   51   4.495   3.534   1.210 -2.9594 -0.5321  0.8753
  758MOL0     H   52   4.702   3.420   1.333  1.8676  0.3319  1.8104
  758MOL0     H   53   4.718   3.576   1.265 -0.6978 -1.1903 -0.9426
  758MOL0     H   54   4.794   3.619   1.684  0.6180 -1.3544  1.1905
  758MOL0     H   55   4.168   3.117   1.658  1.2102  2.0313  0.3231
  758MOL0     H   56   3.936   3.075   1.652  0.0770 -0.8863 -1.9183
  759MOL0     O   57   4.847   7.771   9.866 -0.0224 -0.5908  0.3751
  759MOL0     C   58   4.942   7.770   9.941  0.3043 -0.6852  0.5341
  759MOL0     O   59   4.936   7.782  10.072  1.1463  0.5552 -0.0704
  759MOL0     C   60   4.814   7.774  10.126  0.2170 -0.0634  0.8967
  759MOL0     C   61   4.745   7.657  10.128  0.3780  0.0546  1.3684
  759MOL0     C   62   4.613   7.660  10.170  0.3259 -0.6695 -0.4779
  759MOL0     C   63   4.539   7.785  10.201 -0.2771  0.5958 -0.7481
  759MOL0     O   64   4.404   7.761  10.226 -0.1918 -0.5340  0.2523
  759MOL0     C   65   4.331   7.883  10.265 -0.1734  0.6175 -0.2853
  759MOL0     C   66   4.192   7.871  10.306 -0.1079 -0.3596  0.1278
  759MOL0     C   67   4.102   7.837  10.183  0.5818  0.2853 -0.2160
  759MOL0     C   68   3.966   7.891  10.218  0.5867  1.3324  1.5672
  759MOL0     C   69   3.852   7.861  10.113 -0.7073  1.0622 -0.6543
  759MOL0     C   70   3.834   7.708  10.096 -0.3226 -0.4094  0.2542
  759MOL0     C   71   3.700   7.667  10.045  0.3468  0.3934 -0.1035
  759MOL0     C   72   3.583   7.684  10.144  0.3157 -0.1033  0.0082
  759MOL0     N   73   3.451   7.644  10.099 -0.1754 -0.3470 -0.0779
  759MOL0     C   74   3.397   7.518  10.112  0.2280  0.2648 -0.1258
  759MOL0     C   75   3.276   7.521  10.054  0.3570  0.0042 -0.7717
  759MOL0     C   76   3.187   7.403  10.041 -1.2450  1.2606  0.3542
  759MOL0     C   77   3.254   7.260  10.062 -0.0409  0.0273  0.0060
  759MOL0     C   78   3.160   7.136  10.052 -0.2558 -0.6171  0.6847
  759MOL0     C   79   3.073   7.107  10.175  0.2799 -0.1554 -0.3223
  759MOL0     O   80   3.009   7.225  10.213  0.0011 -0.2150  0.8151
  759MOL0     C   81   2.910   7.233  10.299  0.0099  0.2862  0.1169
  759MOL0     C   82   2.838   7.358  10.304  0.2796 -0.2939  0.3008
  759MOL0     C   83   2.720   7.369  10.386  0.3997  1.2903  0.1198
  759MOL0     C   84   2.664   7.260  10.461 -1.0607 -0.5757 -0.2450
  759MOL0     C   85   2.529   7.284  10.533 -0.2050 -0.3612 -0.5804
  759MOL0     O   86   2.486   7.205  10.641 -0.1258 -0.6719  0.0234
  759MOL0     C   87   2.374   7.247  10.712 -0.0958 -0.8730  0.7448
  759MOL0     C   88   2.358   7.382  10.745 -0.3365  0.1435 -0.2941
  759MOL0     C   89   2.241   7.424  10.822  0.4281  0.1180 -0.1578
  759MOL0     C   90   2.150   7.325  10.866  0.2174 -0.3517 -0.3931
  759MOL0     O   91   2.048   7.358  10.952 -0.4861 -0.2899 -0.2145
  759MOL0     C   92   2.077   7.391  11.091  0.7841 -0.6964  0.1324
  759MOL0     C   93   2.157   7.290  11.167 -0.3047  1.0358  0.0111
  759MOL0     C   94   2.303   7.284  11.132  0.5572 -0.3771  0.8535
  759MOL0     C   95   2.380   7.295  11.266 -0.1746  0.4852  1.0813
  759MOL0     C   96   2.538   7.290  11.251  0.1551  1.1295 -0.3642
  759MOL0     C   97   2.589   7.162  11.190  0.0108  0.7918  0.0969
  759MOL0     C   98   2.739   7.178  11.180  0.3996 -0.7449 -0.8242
  759MOL0     C   99   2.796   7.076  11.078 -0.4026 -0.4704  0.3815
  759MOL0    Cl  100   2.755   6.906  11.140 -0.0262  0.0681  0.2358
  759MOL0     C  101   2.177   7.192  10.837  0.4923  0.3057  0.4583
  759MOL0     C  102   2.285   7.151  10.757 -0.2846 -0.1524  0.3305
  759MOL0     O  103   2.472   7.383  10.491  1.0740  0.3062 -0.2361
  759MOL0     C  104   2.743   7.142  10.458  0.1060 -1.0554  0.4730
  759MOL0     C  105   2.861   7.124  10.372  0.0009 -0.3828 -0.0417
  759MOL0     N  106   3.261   7.660  10.021  0.8606 -0.6532  0.7361
  759MOL0     N  107   3.364   7.726  10.047  0.2872 -0.6547 -0.7429
  759MOL0     C  108   4.618   7.897  10.208  0.6917 -0.1279 -0.2179
  759MOL0     C  109   4.750   7.890  10.168 -0.4194 -0.8208 -0.1098
  759MOL0     C  110   5.079   7.773   9.879  0.0565 -0.5495  0.2865
  759MOL0     C  111   5.100   7.816   9.747  0.0101  0.3697 -0.4961
  759MOL0     C  112   5.238   7.809   9.695 -0.9774  0.1597  0.0422
  759MOL0     C  113   5.349   7.766   9.771 -0.8295 -0.2944 -0.1485
  759MOL0     O  114   5.473   7.753   9.714 -0.2729  0.5009 -0.2023
  759MOL0     C  115   5.584   7.666   9.762 -0.1567  0.4224 -0.7422
  759MOL0     C  116   5.707   7.701   9.685 -1.0234  0.9225 -0.1769
  759MOL0     C  117   5.700   7.667   9.535  0.6789  0.2937 -0.6316
  759MOL0     C  118   5.830   7.698   9.463 -0.5253  0.5658  0.6067
  759MOL0     C  119   5.935   7.612   9.519  0.7360  0.2261  0.0177
  759MOL0     C  120   6.005   7.532   9.575  0.1642 -0.3135 -0.1804
  759MOL0     C  121   5.319   7.726   9.902  0.4766 -0.2278  0.2625
  759MOL0     C  122   5.188   7.717   9.954  0.6889 -0.6233  0.5172
  759MOL0     H  123   4.781   7.562  10.091 -3.8292 -0.8357 -1.1017
  759MOL0     H  124   4.557   7.567  10.168  1.8858 -1.6739  0.1851
  759MOL0     H  125   4.324   7.955  10.184  2.6790  3.3729  1.6755
  759MOL0     H  126   4.394   7.929  10.342  0.2046 -0.3228 -0.0160
  759MOL0     H  127   4.161   7.966  10.350 -3.5141 -0.9109 -0.7693
  759MOL0     H  128   4.191   7.791  10.380  4.3699 -0.5763  0.2163
  759MOL0     H  129   4.105   7.732  10.153 -1.1326  0.3254 -0.6377
  759MOL0     H  130   4.137   7.889  10.093  1.1173  1.0433  0.4257
  759MOL0     H  131   3.925   7.863  10.315  1.2094  0.7497  1.6725
  759MOL0     H  132   3.983   7.999  10.229 -1.0522  2.0647 -1.7768
  759MOL0     H  133   3.862   7.906  10.013 -1.4980  0.4973 -0.9977
  759MOL0     H  134   3.760   7.903  10.155 -2.2696 -1.1329 -1.6781
  759MOL0     H  135   3.844   7.661  10.194  1.3430 -0.0855  0.2747
  759MOL0     H  136   3.909   7.676  10.022  1.1433  0.6647  1.2073
  759MOL0     H  137   3.674   7.722   9.954  1.0810 -0.6536 -0.9728
  759MOL0     H  138   3.695   7.562  10.013 -1.7311  0.2320  0.6329
  759MOL0     H  139   3.570   7.789  10.174 -1.3470 -0.5512  1.0411
  759MOL0     H  140   3.608   7.624  10.233  2.0542  0.4701 -0.0548
  759MOL0     H  141   3.455   7.427  10.127  0.0619  0.5047  2.3105
  759MOL0     H  142   3.158   7.403   9.935 -2.3051  0.7744  0.6217
  759MOL0     H  143   3.099   7.426  10.102 -2.1109 -2.0322  0.5165
  759MOL0     H  144   3.293   7.250  10.164 -0.8306 -0.7072  0.2444
  759MOL0     H  145   3.335   7.237   9.993  0.9570  0.7871  0.8813
  759MOL0     H  146   3.090   7.158   9.971 -0.1160 -1.5994  0.2826
  759MOL0     H  147   3.217   7.045  10.030  0.3115 -0.7017  2.4118
  759MOL0     H  148   3.126   7.077  10.266  0.9366  1.3147 -0.1937
  759MOL0     H  149   3.004   7.031  10.138 -1.2919  0.6311  0.8356
  759MOL0     H  150   2.868   7.435  10.234  0.9549 -0.4924  0.3631
  759MOL0     H  151   2.662   7.461  10.377 -0.9376  0.3249 -1.7042
  759MOL0     H  152   2.426   7.459  10.712  0.0579 -0.2014 -0.2882
  759MOL0     H  153   2.222   7.525  10.856  0.7631  0.7083 -1.6065
  759MOL0     H  154   1.980   7.399  11.141 -1.8474 -3.5921 -3.9173
  759MOL0     H  155   2.119   7.491  11.078 -3.6678  1.1920 -1.1937
  759MOL0     H  156   2.110   7.192  11.155  3.0571 -0.7104 -0.3312
  759MOL0     H  157   2.135   7.316  11.271 -3.9014 -1.2616 -0.0189
  759MOL0     H  158   2.339   7.370  11.075  2.4744 -0.1191  2.3114
  759MOL0     H  159   2.324   7.189  11.081  3.7817 -0.0224  1.2545
  759MOL0     H  160   2.360   7.388  11.319 -3.0862 -0.7111  2.2828
  759MOL0     H  161   2.351   7.208  11.326 -1.3128 -0.7814 -1.1349
  759MOL0     H  162   2.576   7.289  11.354 -0.4894  2.6614 -0.0782
  759MOL0     H  163   2.564   7.379  11.192 -0.4043 -0.0928 -2.5498
  759MOL0     H  164   2.558   7.142  11.087 -0.6665 -1.2306  0.6335
  759MOL0     H  165   2.556   7.078  11.252  0.3680  0.4046 -0.2330
  759MOL0     H  166   2.776   7.274  11.143 -1.1711  0.1422 -0.2007
  759MOL0     H  167   2.790   7.158  11.274 -1.4160 -0.0207  0.3662
  759MOL0     H  168   2.904   7.079  11.097 -0.8828 -3.7584  5.1433
  759MOL0     H  169   2.774   7.100  10.973  1.6307 -0.6085 -0.1259
  759MOL0     H  170   2.107   7.122  10.881 -1.4742  1.5901 -0.5037
  759MOL0     H  171   2.307   7.046  10.740  1.7049  0.3008 -0.2261
  759MOL0     H  172   2.703   7.058  10.514 -1.0494 -0.7972  0.0825
  759MOL0     H  173   2.917   7.031  10.385  0.9736 -0.0561 -1.6712
  759MOL0     H  174   4.577   7.989  10.249  0.9808  0.4344 -1.1655
  759MOL0     H  175   4.808   7.982  10.170 -2.0205  0.2889 -1.9164
  759MOL0     H  176   5.029   7.865   9.681  1.1497  0.4611 -1.7143
  759MOL0     H  177   5.260   7.836   9.592  3.4146  1.5435  1.1331
  759MOL0     H  178   5.551   7.562   9.757 -3.5582  1.2255  1.3972
  759MOL0     H  179   5.604   7.683   9.869  0.3934 -1.0477 -0.5840
  759MOL0     H  180   5.740   7.803   9.709  0.4352  0.4637 -0.0867
  759MOL0     H  181   5.775   7.634   9.739 -1.8051  0.5293  0.3445
  759MOL0     H  182   5.619   7.724   9.488  1.1563  2.9114  1.4395
  759MOL0     H  183   5.667   7.566   9.513  0.5415  0.2492 -0.2328
  759MOL0     H  184   5.814   7.672   9.358 -0.1634 -0.0840  0.7112
  759MOL0     H  185   5.865   7.801   9.475  0.2057  0.6408 -1.7108
  759MOL0     H  186   6.079   7.471   9.622 -2.2347  0.3894  5.1331
  759MOL0     H  187   5.395   7.694   9.973  0.5803 -1.9094 -0.5455
  759MOL0     H  188   5.166   7.671  10.050  1.9781 -4.9082 -1.0437
  760MOL0     O  189   8.367   4.053   8.045 -0.3423  0.1384 -0.2401
  760MOL0     C  190   8.291   3.955   8.036 -0.1321  0.0704 -0.6497
  760MOL0     O  191   8.160   3.956   8.072  0.1446  0.3359 -0.4099
  760MOL0     C  192   8.104   4.078   8.087  0.0020  0.8154 -0.2047
  760MOL0     C  193   8.052   4.144   7.975  0.6519 -0.0404  0.4511
  760MOL0     C  194   8.007   4.272   7.985  0.5892 -0.3521  0.9521
  760MOL0     C  195   8.002   4.342   8.115 -0.3106  0.2637 -0.0422
  760MOL0     O  196   7.947   4.464   8.137 -0.5360 -0.2028 -0.2617
  760MOL0     C  197   7.858   4.496   8.034 -0.0411  0.3142 -0.3247
  760MOL0     C  198   7.791   4.624   8.076 -0.4015 -0.0789  0.4699
  760MOL0     C  199   7.886   4.748   8.085 -0.7754 -0.2184 -0.1312
  760MOL0     C  200   7.804   4.876   8.113  0.0203 -0.0811 -0.4560
  760MOL0     C  201   7.903   4.998   8.114  0.5205 -0.2865 -0.0521
  760MOL0     C  202   7.986   5.016   7.982  0.4642  0.0815 -1.1280
  760MOL0     C  203   8.066   5.146   7.984  0.0538  0.8375 -0.2617
  760MOL0     C  204   8.185   5.131   8.083  1.3295  0.0290 -0.1555
  760MOL0     N  205   8.273   5.018   8.047 -0.5961 -0.0116  0.5483
  760MOL0     C  206   8.269   4.892   8.094 -0.4560 -0.6210 -0.6954
  760MOL0     C  207   8.333   4.822   8.006  0.1880  0.6086  0.1396
  760MOL0     C  208   8.327   4.668   7.993  0.7720 -0.5547 -0.5206
  760MOL0     C  209   8.327   4.601   7.862  0.7695 -0.2315  0.1475
  760MOL0     C  210   8.340   4.454   7.867 -0.1204 -0.2398 -0.9232
  760MOL0     C  211   8.481   4.410   7.905  1.1513  0.0366 -0.0440
  760MOL0     O  212   8.572   4.420   7.795 -0.6613  0.5698 -0.1901
  760MOL0     C  213   8.584   4.324   7.698  0.4802 -0.0739  0.5301
  760MOL0     C  214   8.663   4.363   7.589  0.6030  0.5541  0.4857
  760MOL0     C  215   8.682   4.274   7.480 -0.2565 -0.9527  0.7131
  760MOL0     C  216   8.615   4.156   7.475  0.6197  0.3380  0.2464
  760MOL0     C  217   8.637   4.069   7.357  0.2476  0.4430  0.4052
  760MOL0     O  218   8.562   3.959   7.347  0.1112 -1.0248 -0.5180
  760MOL0     C  219   8.602   3.855   7.274 -0.2189 -0.5724 -0.0231
  760MOL0     C  220   8.538   3.823   7.153  0.4963  0.0437 -0.3031
  760MOL0     C  221   8.585   3.724   7.066 -0.0827  0.3834 -0.9186
  760MOL0     C  222   8.679   3.634   7.110  0.0164  0.6320 -1.3952
  760MOL0     O  223   8.713   3.527   7.027  0.7704 -0.3258  0.3142
  760MOL0     C  224   8.837   3.465   7.039  0.6092 -0.3444 -0.1135
  760MOL0     C  225   8.845   3.357   6.925  0.2491  0.4668  0.0427
  760MOL0     C  226   8.986   3.287   6.941  0.5353 -0.3348  0.0177
  760MOL0     C  227   8.998   3.173   6.842  0.5909  0.4084  0.0997
  760MOL0     C  228   9.080   3.056   6.901 -0.0867  0.4586  0.5514
  760MOL0     C  229   9.227   3.098   6.921 -0.5453  0.3016 -1.6770
  760MOL0     C  230   9.332   2.982   6.911  0.0637 -0.1658  0.0289
  760MOL0     C  231   9.318   2.854   6.997  0.0178 -0.0906 -0.3991
  760MOL0    Cl  232   9.177   2.772   6.919 -0.6086  0.1792 -0.1591
  760MOL0     C  233   8.727   3.651   7.240 -0.8792 -0.8501  0.0616
  760MOL0     C  234   8.688   3.760   7.324 -0.6372  0.1621  0.5480
  760MOL0     O  235   8.744   4.094   7.296  0.0895 -0.1105  0.8221
  760MOL0     C  236   8.524   4.122   7.578  0.2010  0.3082  0.6485
  760MOL0     C  237   8.504   4.207   7.692 -0.0797  0.0202 -0.1151
  760MOL0     N  238   8.399   4.902   7.920  0.3191 -0.1790 -0.2416
  760MOL0     N  239   8.374   5.025   7.955  0.3608 -0.0853  0.7837
  760MOL0     C  240   8.063   4.272   8.222  0.6276 -0.0170  0.2179
  760MOL0     C  241   8.120   4.142   8.208  0.1437  0.0187  0.7711
  760MOL0     C  242   8.345   3.833   7.976  0.8693 -0.9710 -0.6699
  760MOL0     C  243   8.481   3.806   7.992  0.4769  0.0041  0.7842
  760MOL0     C  244   8.538   3.707   7.916  0.6214 -0.1992  0.4971
  760MOL0     C  245   8.464   3.621   7.842 -0.7618 -0.1629  0.8879
  760MOL0     O  246   8.520   3.520   7.765 -0.1984 -0.6094 -0.1182
  760MOL0     C  247   8.640   3.444   7.802 -0.4526 -0.8312 -0.5772
  760MOL0     C  248   8.660   3.339   7.693  0.8025  0.7170  0.2595
  760MOL0     C  249   8.766   3.228   7.735  0.8388  0.3435  0.1365
  760MOL0     C  250   8.910   3.278   7.724 -0.4370  0.2822  0.0376
  760MOL0     C  251   9.011   3.166   7.721 -0.0671 -0.8140 -0.1310
  760MOL0     C  252   9.101   3.086   7.729 -0.9169 -0.7737 -0.1572
  760MOL0     C  253   8.326   3.638   7.843  0.1056  0.1872  0.1585
  760MOL0     C  254   8.263   3.748   7.899  0.3605 -0.3227 -0.6779
  760MOL0     H  255   8.047   4.089   7.881 -2.9423  1.2089 -0.2258
  760MOL0     H  256   7.975   4.312   7.890  3.1611 -2.4908 -0.9602
  760MOL0     H  257   7.779   4.429   8.000 -1.4961  2.1022 -0.6584
  760MOL0     H  258   7.910   4.512   7.939  2.3561 -2.1616  0.4660
  760MOL0     H  259   7.747   4.607   8.174 -0.6017  0.2293  0.4361
  760MOL0     H  260   7.714   4.647   8.001  1.2987 -0.1398 -1.3742
  760MOL0     H  261   7.925   4.758   7.983 -1.0701 -0.6349 -0.2863
  760MOL0     H  262   7.952   4.726   8.169 -2.2065 -1.2374  0.7910
  760MOL0     H  263   7.730   4.883   8.033 -2.0263 -2.0977  1.1338
  760MOL0     H  264   7.763   4.862   8.214  3.6157 -0.0032  1.1907
  760MOL0     H  265   7.976   4.979   8.193 -0.1562 -2.6467  0.0831
  760MOL0     H  266   7.855   5.096   8.127  0.7440 -0.0236 -1.1050
  760MOL0     H  267   7.910   5.019   7.903 -1.5135  1.6887  0.7090
  760MOL0     H  268   8.055   4.932   7.966 -0.0574 -0.3659 -1.0450
  760MOL0     H  269   8.106   5.148   7.882  0.8237  0.1357  0.0210
  760MOL0     H  270   7.994   5.222   8.017  1.6507  1.4577  1.9879
  760MOL0     H  271   8.169   5.140   8.191  3.9389 -0.0190  0.3062
  760MOL0     H  272   8.257   5.213   8.070  0.3603  1.2773  1.8798
  760MOL0     H  273   8.205   4.846   8.168  1.4570 -0.5926  1.0800
  760MOL0     H  274   8.230   4.646   8.038  0.4514 -2.2443 -1.9286
  760MOL0     H  275   8.418   4.636   8.045  1.6080  0.0144 -1.5899
  760MOL0     H  276   8.388   4.642   7.781 -0.8953 -1.4274 -1.8231
  760MOL0     H  277   8.222   4.612   7.834 -0.5365  2.3486  5.0306
  760MOL0     H  278   8.285   4.426   7.957  0.4909  0.3639 -0.3473
  760MOL0     H  279   8.312   4.405   7.773 -1.2870  2.0465 -1.8385
  760MOL0     H  280   8.465   4.306   7.933 -0.7822  0.3842  0.3161
  760MOL0     H  281   8.510   4.455   8.000 -4.2099 -1.7943  2.8902
  760MOL0     H  282   8.724   4.453   7.594  2.1097 -0.3304 -0.9612
  760MOL0     H  283   8.752   4.311   7.406 -3.0774  0.2880 -1.5247
  760MOL0     H  284   8.462   3.893   7.122  0.1227  1.3622  3.2131
  760MOL0     H  285   8.540   3.708   6.968  0.0532 -1.1608 -0.7524
  760MOL0     H  286   8.840   3.403   7.128 -0.7732 -1.8349 -1.0515
  760MOL0     H  287   8.917   3.539   7.043 -1.6075  2.1643  2.6599
  760MOL0     H  288   8.827   3.389   6.822 -4.3267 -2.7074 -0.4718
  760MOL0     H  289   8.764   3.284   6.939  1.6995 -1.5231 -1.4587
  760MOL0     H  290   9.013   3.259   7.043  0.7546  2.8525  0.9537
  760MOL0     H  291   9.063   3.359   6.911  0.6309 -0.7414 -0.7508
  760MOL0     H  292   8.897   3.141   6.817 -0.0567  2.3386  0.0896
  760MOL0     H  293   9.038   3.190   6.741  0.2738 -2.1766 -0.5347
  760MOL0     H  294   9.067   2.976   6.827  4.1458 -1.7271  1.8436
  760MOL0     H  295   9.026   3.030   6.992  1.7214  1.4635  1.9639
  760MOL0     H  296   9.243   3.162   7.008 -0.3761 -0.0517 -1.4462
  760MOL0     H  297   9.246   3.163   6.835 -1.1841 -0.2331 -2.2303
  760MOL0     H  298   9.354   2.951   6.808  0.6248  1.8684 -0.5153
  760MOL0     H  299   9.421   3.027   6.956 -0.2065 -2.3746  3.0569
  760MOL0     H  300   9.303   2.879   7.102 -1.2309 -1.3233 -0.2516
  760MOL0     H  301   9.412   2.797   6.994 -0.1210 -0.7049  3.0618
  760MOL0     H  302   8.786   3.573   7.287 -0.5297  0.3316  1.6598
  760MOL0     H  303   8.734   3.773   7.422 -3.7158  1.1650  2.0050
  760MOL0     H  304   8.478   4.023   7.580  4.6758 -2.0515  1.2747
  760MOL0     H  305   8.427   4.175   7.761  0.2241  2.6038  1.5711
  760MOL0     H  306   8.074   4.311   8.323  0.1944  0.5644  0.0481
  760MOL0     H  307   8.171   4.098   8.292  2.5611  0.0577 -0.5837
  760MOL0     H  308   8.537   3.862   8.066  1.5191  0.3051 -0.1925
  760MOL0     H  309   8.647   3.709   7.923  0.9361  2.3264 -2.6111
  760MOL0     H  310   8.628   3.384   7.892 -1.5204 -1.0485 -0.8526
  760MOL0     H  311   8.726   3.511   7.810  0.2315 -1.7928  0.3655
  760MOL0     H  312   8.562   3.296   7.668  1.4285 -0.2629 -0.6125
  760MOL0     H  313   8.696   3.386   7.602  0.5938 -0.4547 -0.4507
  760MOL0     H  314   8.751   3.147   7.663  1.5881 -0.0244  0.3891
  760MOL0     H  315   8.741   3.192   7.835  0.2081 -1.0937 -0.5200
  760MOL0     H  316   8.913   3.336   7.631  1.4158  1.9306  1.0436
  760MOL0     H  317   8.939   3.355   7.796  0.8201  0.9015 -1.0813
  760MOL0     H  318   9.174   3.008   7.736  1.5124  1.4421  0.7793
  760MOL0     H  319   8.270   3.559   7.793 -0.4256  2.2250 -2.7342
  760MOL0     H  320   8.155   3.756   7.894  0.0234 -3.0167  0.6027
  761MOL0     O  321   9.565   1.146   5.810  0.1739  0.0812 -0.3277
  761MOL0     C  322   9.649   1.223   5.754 -0.0833  0.8329 -0.1724
  761MOL0     O  323   9.644   1.357   5.731 -0.2798 -0.1225 -0.5434
  761MOL0     C  324   9.528   1.420   5.741 -0.6167 -0.4550 -0.5246
  761MOL0     C  325   9.497   1.505   5.849 -0.5530 -0.5508 -0.9953
  761MOL0     C  326   9.366   1.555   5.864 -0.4189  1.0505 -0.1741
  761MOL0     C  327   9.273   1.546   5.753 -0.4756  0.6308  0.4892
  761MOL0     O  328   9.141   1.587   5.744  0.5279 -0.0979 -0.8361
  761MOL0     C  329   9.071   1.640   5.859  0.2884  0.9375 -0.2019
  761MOL0     C  330   8.921   1.614   5.829 -0.2490  0.4466 -0.1157
  761MOL0     C  331   8.839   1.640   5.948 -0.3998 -0.2352  0.6205
  761MOL0     C  332   8.687   1.661   5.925 -0.9003  0.0665  1.1871
  761MOL0     C  333   8.609   1.669   6.050  0.4995  0.1423  0.1568
  761MOL0     C  334   8.591   1.532   6.123  0.5321 -0.4461  0.3761
  761MOL0     C  335   8.483   1.517   6.234  0.7226 -0.8372 -0.1889
  761MOL0     C  336   8.331   1.552   6.179 -0.5863 -0.2822  0.5252
  761MOL0     N  337   8.251   1.573   6.298 -0.0062 -0.1314 -0.5194
  761MOL0     C  338   8.206   1.468   6.368 -0.3638  0.2458  0.6334
  761MOL0     C  339   8.138   1.538   6.469 -0.9058  0.3679 -0.2189
  761MOL0     C  340   8.046   1.485   6.571  0.1721 -0.2751 -0.2177
  761MOL0     C  341   7.937   1.579   6.617  0.6523 -0.0142 -0.1062
  761MOL0     C  342   7.847   1.513   6.726 -0.5612  0.0547  0.1066
  761MOL0     C  343   7.727   1.603   6.764  0.0170 -0.0442  0.0257
  761MOL0     O  344   7.641   1.534   6.854  0.2473  0.4819 -0.2770
  761MOL0     C  345   7.526   1.593   6.889 -0.1419 -0.0059 -1.0482
  761MOL0     C  346   7.498   1.724   6.855 -0.4541 -0.1519 -0.2640
  761MOL0     C  347   7.385   1.783   6.919  0.0295  0.1688  1.0169
  761MOL0     C  348   7.296   1.713   7.005  0.1255  0.6990  0.8815
  761MOL0     C  349   7.178   1.778   7.068  0.1858  0.0787  0.4484
  761MOL0     O  350   7.138   1.725   7.179  0.0595  0.1122 -0.4314
  761MOL0     C  351   7.004   1.755   7.216  0.1522  0.2980 -0.5996
  761MOL0     C  352   6.978   1.777   7.350  0.5490  0.2974 -0.7144
  761MOL0     C  353   6.842   1.776   7.403 -0.4909  0.1008 -0.3468
  761MOL0     C  354   6.732   1.753   7.314 -1.0596 -0.3774  0.1408
  761MOL0     O  355   6.595   1.750   7.340 -0.0859 -0.7414  0.9471
  761MOL0     C  356   6.551   1.734   7.470  0.3676 -0.0463  0.3444
  761MOL0     C  357   6.391   1.743   7.475  1.0334  0.1274 -0.5619
  761MOL0     C  358   6.324   1.759   7.615  0.3007 -0.0270  0.8278
  761MOL0     C  359   6.186   1.828   7.600 -0.5187  0.1983  0.6280
  761MOL0     C  360   6.130   1.851   7.743  0.5194  0.4144 -0.1014
  761MOL0     C  361   5.992   1.904   7.728 -0.6582 -1.4206 -0.1441
  761MOL0     C  362   5.975   2.041   7.669  0.7511  0.2109  0.6089
  761MOL0     C  363   6.042   2.161   7.734  0.1586  1.0932 -0.2419
  761MOL0    Cl  364   6.026   2.139   7.913  0.1714 -0.4554 -0.3329
  761MOL0     C  365   6.765   1.738   7.180  0.0645  0.6047 -0.5611
  761MOL0     C  366   6.898   1.739   7.132  0.9871  0.0553  0.4264
  761MOL0     O  367   7.130   1.870   7.007 -0.4013  0.0341  0.6891
  761MOL0     C  368   7.328   1.573   7.028  0.5927  0.0463 -0.2261
  761MOL0     C  369   7.441   1.520   6.971  0.2664  0.0532  0.0709
  761MOL0     N  370   8.154   1.672   6.450 -0.5621 -0.0394  0.3964
  761MOL0     N  371   8.221   1.696   6.344  0.1148 -0.1411  0.7879
  761MOL0     C  372   9.309   1.466   5.647  0.1745 -0.2036 -0.0010
  761MOL0     C  373   9.436   1.405   5.644 -0.3181  0.0221 -0.3806
  761MOL0     C  374   9.775   1.161   5.707  0.8137 -0.4045 -0.6199
  761MOL0     C  375   9.786   1.019   5.695 -0.6248 -0.3129  0.0754
  761MOL0     C  376   9.908   0.966   5.647  0.0295  0.0868  0.3611
  761MOL0     C  377  10.017   1.042   5.620  0.0972  0.4175  0.1309
  761MOL0     O  378  10.130   0.985   5.583 -0.4713 -0.1798 -0.0857
  761MOL0     C  379  10.262   1.048   5.576  0.8442 -0.6993 -0.6237
  761MOL0     C  380  10.367   0.941   5.573 -0.3547 -0.2654 -0.0197
  761MOL0     C  381  10.502   0.991   5.530  0.1312  0.5809 -0.3201
  761MOL0     C  382  10.600   0.872   5.486  0.5601 -0.6849 -0.1573
  761MOL0     C  383  10.534   0.795   5.385  0.0471  0.1807  0.1758
  761MOL0     C  384  10.496   0.752   5.276 -0.2047  0.4993 -0.2035
  761MOL0     C  385  10.006   1.181   5.642  0.5029 -0.2161 -0.1990
  761MOL0     C  386   9.887   1.237   5.682 -0.3410 -0.7490  0.0527
  761MOL0     H  387   9.564   1.526   5.932 -2.3256  0.7534  0.1811
  761MOL0     H  388   9.351   1.614   5.954  0.6006  1.4567 -0.2559
  761MOL0     H  389   9.082   1.749   5.856  1.1510  0.8667  0.3187
  761MOL0     H  390   9.105   1.593   5.951  0.1716 -0.1719 -0.7013
  761MOL0     H  391   8.905   1.507   5.814  2.0936  0.2391 -1.6124
  761MOL0     H  392   8.897   1.660   5.733  0.5700 -3.6582 -2.5329
  761MOL0     H  393   8.881   1.734   5.988  0.1659  0.8942 -2.3765
  761MOL0     H  394   8.852   1.557   6.018  1.2973 -3.3211 -3.0062
  761MOL0     H  395   8.680   1.756   5.871 -3.0072 -0.0439  1.1709
  761MOL0     H  396   8.644   1.588   5.856 -1.9619  0.1310  1.7643
  761MOL0     H  397   8.506   1.703   6.031 -0.0635 -1.3931  0.2715
  761MOL0     H  398   8.656   1.739   6.120  2.2331 -0.0247 -0.8053
  761MOL0     H  399   8.689   1.511   6.168  2.4899 -2.0516 -3.9820
  761MOL0     H  400   8.573   1.451   6.051 -2.1117  1.4211 -1.2096
  761MOL0     H  401   8.480   1.415   6.273 -0.2653 -0.8967 -0.3975
  761MOL0     H  402   8.519   1.579   6.317 -0.1602 -0.1139 -0.3327
  761MOL0     H  403   8.283   1.480   6.112  0.7196 -1.5398  0.8697
  761MOL0     H  404   8.336   1.648   6.128 -1.2708  0.4955  1.8506
  761MOL0     H  405   8.208   1.362   6.345 -1.3703  1.0321 -3.9150
  761MOL0     H  406   8.097   1.458   6.664 -0.9326  0.6483  0.6876
  761MOL0     H  407   7.987   1.397   6.541 -2.3298  0.8581  1.0476
  761MOL0     H  408   7.872   1.598   6.531  2.3774  1.5146 -1.1208
  761MOL0     H  409   7.975   1.675   6.654 -1.1653  0.8559 -0.3563
  761MOL0     H  410   7.815   1.417   6.684 -0.9488  0.7405 -1.2369
  761MOL0     H  411   7.924   1.502   6.803  1.3139 -1.0198 -1.8342
  761MOL0     H  412   7.666   1.628   6.677  1.8139  3.8025 -0.3264
  761MOL0     H  413   7.760   1.699   6.806  2.2438 -1.3175  1.3874
  761MOL0     H  414   7.557   1.776   6.780  2.6723 -1.1456  1.3231
  761MOL0     H  415   7.373   1.887   6.889  1.9310  0.6188  1.6359
  761MOL0     H  416   7.062   1.772   7.419 -0.4856 -1.3099  0.4677
  761MOL0     H  417   6.825   1.776   7.510  0.7886 -0.6300 -0.1199
  761MOL0     H  418   6.598   1.820   7.518  3.0629 -0.5183 -1.2295
  761MOL0     H  419   6.580   1.640   7.517 -1.2976  0.7880  3.3019
  761MOL0     H  420   6.352   1.652   7.428 -0.2767 -0.6971  1.9477
  761MOL0     H  421   6.351   1.824   7.414 -0.5115 -1.6244 -1.9734
  761MOL0     H  422   6.381   1.820   7.686  1.2223  0.4238 -0.2664
  761MOL0     H  423   6.325   1.657   7.653  3.5701 -0.0916  0.8797
  761MOL0     H  424   6.208   1.927   7.560 -2.1005 -0.0973 -1.1356
  761MOL0     H  425   6.118   1.766   7.540  0.6261 -0.9153  0.4413
  761MOL0     H  426   6.201   1.913   7.799  2.6457 -2.3031  0.4074
  761MOL0     H  427   6.125   1.753   7.791  1.8415  0.8623  1.0223
  761MOL0     H  428   5.944   1.902   7.826  0.0347 -0.9734  0.2105
  761MOL0     H  429   5.946   1.830   7.661 -4.2869 -0.6268  1.2217
  761MOL0     H  430   6.010   2.042   7.565  3.0084  0.7445  1.3240
  761MOL0     H  431   5.867   2.056   7.667  0.4217 -1.9194 -0.6698
  761MOL0     H  432   5.990   2.252   7.702 -1.7117 -0.3818 -1.6951
  761MOL0     H  433   6.149   2.160   7.712  0.2719  0.2328  0.3001
  761MOL0     H  434   6.682   1.731   7.111  0.4101  1.3399 -1.0787
  761MOL0     H  435   6.911   1.707   7.029 -1.2821  0.4074 -0.0168
  761MOL0     H  436   7.267   1.500   7.078  0.1046  1.6246  1.5888
  761MOL0     H  437   7.458   1.414   6.984  3.0547  0.3051 -0.6845
  761MOL0     H  438   9.242   1.455   5.562  1.9335  2.9070 -1.9790
  761MOL0     H  439   9.458   1.350   5.553 -0.8616  0.6949 -0.9296
  761MOL0     H  440   9.695   0.963   5.713 -1.3518  0.7068 -0.3186
  761MOL0     H  441   9.917   0.858   5.633  1.0770  0.3354 -1.1296
  761MOL0     H  442  10.277   1.122   5.655 -0.5117 -0.7024 -0.3401
  761MOL0     H  443  10.279   1.103   5.483  2.6270 -2.7652 -1.5958
  761MOL0     H  444  10.384   0.899   5.673  0.3963 -2.4784 -1.0143
  761MOL0     H  445  10.328   0.859   5.513  1.7053 -1.4195  0.1238
  761MOL0     H  446  10.543   1.071   5.593 -0.2497  1.8572 -1.6466
  761MOL0     H  447  10.477   1.040   5.436 -1.2583 -1.6997 -1.2226
  761MOL0     H  448  10.690   0.918   5.443  1.1604 -2.0504 -0.4112
  761MOL0     H  449  10.629   0.805   5.568  1.9680 -2.8530 -2.2979
  761MOL0     H  450  10.469   0.724   5.176  0.3596  2.7695 -1.0525
  761MOL0     H  451  10.080   1.259   5.629 -1.4335  1.7679  0.0925
  761MOL0     H  452   9.874   1.340   5.714 -3.1395 -1.6133  2.0921
  762MOL0     O  453   1.100   5.117  10.465  0.3572 -0.2488  0.0572
  762MOL0     C  454   1.024   5.210  10.426 -0.1903  0.5096  0.5888
  762MOL0     O  455   1.067   5.332  10.403  0.0178 -0.1786  0.2103
  762MOL0     C  456   1.197   5.382  10.425 -0.0987  0.5009 -0.5352
  762MOL0     C  457   1.302   5.325  10.498 -0.0275 -0.3343  0.0021
  762MOL0     C  458   1.432   5.378  10.498  0.8343 -0.5402  0.7038
  762MOL0     C  459   1.468   5.489  10.430 -0.1451  0.2647  0.0179
  762MOL0     O  460   1.593   5.541  10.412  0.1777 -0.3206  0.0511
  762MOL0     C  461   1.693   5.490  10.499 -0.4017  0.3244 -0.5731
  762MOL0     C  462   1.799   5.600  10.522  0.3343  0.6165  0.0423
  762MOL0     C  463   1.908   5.540  10.610  0.7958 -0.6802 -0.6876
  762MOL0     C  464   2.007   5.647  10.638  0.0927  0.2226  0.2657
  762MOL0     C  465   2.137   5.589  10.690 -0.3382 -0.0841  0.2112
  762MOL0     C  466   2.236   5.696  10.689 -0.1724 -0.4646  0.1504
  762MOL0     C  467   2.364   5.645  10.756  0.4458  0.3341  0.9625
  762MOL0     C  468   2.463   5.755  10.809 -0.7332  0.0180  0.3265
  762MOL0     N  469   2.393   5.863  10.880  0.2442 -0.8587 -0.0290
  762MOL0     C  470   2.356   5.863  11.010 -0.0684 -0.1279 -0.7704
  762MOL0     C  471   2.311   5.987  11.032  0.1823 -1.0665  0.9739
  762MOL0     C  472   2.255   6.031  11.168 -0.6894 -0.0878  0.3619
  762MOL0     C  473   2.112   6.057  11.159  1.0270  0.1994  0.3738
  762MOL0     C  474   2.072   6.133  11.286  0.0507  0.7704 -1.1096
  762MOL0     C  475   1.925   6.170  11.278  1.2522  0.3675  0.5593
  762MOL0     O  476   1.864   6.039  11.276  0.4981  0.5645  0.0398
  762MOL0     C  477   1.727   6.029  11.266  0.8300 -0.5005 -0.5085
  762MOL0     C  478   1.678   5.902  11.242 -0.0558  0.5619  0.4363
  762MOL0     C  479   1.538   5.890  11.230  0.3519  0.2386 -0.7557
  762MOL0     C  480   1.445   5.998  11.236 -0.6904 -0.0882  0.5465
  762MOL0     C  481   1.301   5.977  11.240  0.9529 -0.2535  0.3259
  762MOL0     O  482   1.246   5.884  11.161 -0.3577 -0.8609  0.5542
  762MOL0     C  483   1.109   5.856  11.167  0.1820  0.0706  0.5645
  762MOL0     C  484   1.078   5.719  11.194  0.1659  0.3365 -0.0956
  762MOL0     C  485   0.945   5.679  11.189  0.5179 -0.6728 -0.2207
  762MOL0     C  486   0.846   5.771  11.164  0.2939  0.0541  0.0826
  762MOL0     O  487   0.708   5.751  11.141  0.0348  0.2256  0.6615
  762MOL0     C  488   0.659   5.622  11.164  0.3465  0.2736  0.1794
  762MOL0     C  489   0.513   5.617  11.121 -0.3839  0.2371 -0.3185
  762MOL0     C  490   0.429   5.725  11.184  0.7314 -0.7490  0.2876
  762MOL0     C  491   0.283   5.732  11.125 -0.1345  0.1828 -0.2294
  762MOL0     C  492   0.184   5.818  11.207  0.6198  0.2698  0.5678
  762MOL0     C  493   0.056   5.834  11.139  0.3986 -0.8296  0.3588
  762MOL0     C  494   0.000   5.715  11.055 -0.7503  0.5051 -0.3643
  762MOL0     C  495  -0.145   5.743  11.019  0.3126  0.3766  0.4310
  762MOL0    Cl  496  -0.257   5.763  11.142 -0.0238  0.3154 -0.4225
  762MOL0     C  497   0.883   5.905  11.142 -0.3532 -0.5115 -0.5708
  762MOL0     C  498   1.018   5.948  11.136  0.0873 -0.3013  0.4530
  762MOL0     O  499   1.235   6.036  11.328  0.2788  0.6908 -0.4404
  762MOL0     C  500   1.503   6.119  11.282  0.5342 -0.0403 -0.3203
  762MOL0     C  501   1.635   6.137  11.287 -0.6278  0.4110 -0.1300
  762MOL0     N  502   2.331   6.062  10.916  0.0832 -0.1121 -0.2887
  762MOL0     N  503   2.375   5.983  10.822  0.3342  0.4608  0.4017
  762MOL0     C  504   1.362   5.549  10.355  0.0274 -0.6235  0.3515
  762MOL0     C  505   1.229   5.508  10.358 -0.2860  0.8408 -0.4595
  762MOL0     C  506   0.887   5.178  10.393  0.5041 -0.8166 -0.4882
  762MOL0     C  507   0.815   5.262  10.304 -0.2277  0.6886 -0.6297
  762MOL0     C  508   0.680   5.233  10.283 -0.6469  0.2979  0.0616
  762MOL0     C  509   0.616   5.125  10.337 -0.7375 -0.6668 -0.5915
  762MOL0     O  510   0.488   5.113  10.299 -0.3253  0.2338  0.1286
  762MOL0     C  511   0.394   5.029  10.376  0.1098 -0.9819  0.2433
  762MOL0     C  512   0.265   5.027  10.303  0.1497  0.9873  0.5732
  762MOL0     C  513   0.176   4.911  10.348  0.4163  0.2354 -0.5614
  762MOL0     C  514   0.038   4.888  10.282 -1.6125  0.4523 -0.2358
  762MOL0     C  515  -0.034   5.012  10.306  0.6893  1.4594  0.2510
  762MOL0     C  516  -0.098   5.114  10.312 -0.0349  0.0579  0.8048
  762MOL0     C  517   0.694   5.044  10.415  0.0827 -0.0396 -0.4505
  762MOL0     C  518   0.825   5.070  10.449 -0.3548  0.6432  0.4112
  762MOL0     H  519   1.270   5.233  10.545 -2.5795 -0.2282 -1.3360
  762MOL0     H  520   1.510   5.318  10.543  1.9382 -0.4216 -0.9877
  762MOL0     H  521   1.731   5.396  10.458 -0.0157  0.5895 -0.8320
  762MOL0     H  522   1.655   5.460  10.597  1.1100  0.1076 -0.0209
  762MOL0     H  523   1.757   5.683  10.580  0.0893  0.0531  0.6843
  762MOL0     H  524   1.829   5.627  10.421 -3.0507 -0.5873 -1.4514
  762MOL0     H  525   1.950   5.450  10.563 -1.4616 -2.0741 -0.1863
  762MOL0     H  526   1.878   5.521  10.713  3.0385  2.0981  0.6073
  762MOL0     H  527   2.032   5.699  10.545 -1.4326 -0.0098 -0.3166
  762MOL0     H  528   1.960   5.720  10.705  1.9483  1.2499  0.5103
  762MOL0     H  529   2.172   5.505  10.628  0.3248  0.0940  0.3330
  762MOL0     H  530   2.121   5.547  10.789 -2.2861  3.4541  1.5641
  762MOL0     H  531   2.199   5.786  10.739  4.9053  2.3679 -0.4951
  762MOL0     H  532   2.249   5.726  10.585 -1.6618  0.2651  0.1535
  762MOL0     H  533   2.344   5.575  10.838  0.5497 -2.0493 -0.9259
  762MOL0     H  534   2.420   5.580  10.689  0.0084 -0.4479  1.3429
  762MOL0     H  535   2.513   5.792  10.719 -2.9071  0.0175 -0.9391
  762MOL0     H  536   2.538   5.721  10.882  2.0266  1.2614 -1.7418
  762MOL0     H  537   2.347   5.787  11.087 -0.6182  0.7945  0.0815
  762MOL0     H  538   2.316   6.117  11.196 -0.9086 -0.7082  2.9477
  762MOL0     H  539   2.277   5.955  11.243  0.7057 -1.9214 -1.7557
  762MOL0     H  540   2.056   5.963  11.159  1.3324  0.0147  0.0357
  762MOL0     H  541   2.082   6.117  11.073 -3.3120 -2.5682 -0.3635
  762MOL0     H  542   2.090   6.079  11.379  0.7919  3.5721  0.4685
  762MOL0     H  543   2.126   6.227  11.300 -1.7179  1.7198 -0.2936
  762MOL0     H  544   1.897   6.224  11.187  0.5740 -1.9736 -0.6928
  762MOL0     H  545   1.893   6.235  11.360  2.1377 -0.9011  1.9693
  762MOL0     H  546   1.744   5.821  11.215 -0.5204  0.2527  0.2175
  762MOL0     H  547   1.503   5.788  11.222  1.5634 -0.2102 -0.4632
  762MOL0     H  548   1.160   5.651  11.213  0.0050  0.2845  0.4161
  762MOL0     H  549   0.929   5.572  11.204 -1.7266 -0.4141 -0.4703
  762MOL0     H  550   0.674   5.594  11.269  0.6790  0.2403  0.1257
  762MOL0     H  551   0.713   5.544  11.109 -1.1918 -0.7105  0.0051
  762MOL0     H  552   0.474   5.520  11.154 -2.2567  1.7564  2.3371
  762MOL0     H  553   0.493   5.619  11.013  0.0901  1.3512 -0.3986
  762MOL0     H  554   0.477   5.821  11.160 -1.2408 -0.2519 -1.9985
  762MOL0     H  555   0.437   5.703  11.291  1.2458  0.1910  0.4507
  762MOL0     H  556   0.298   5.793  11.035  0.4698  1.2703  0.5746
  762MOL0     H  557   0.253   5.631  11.097  0.4774  0.2223 -1.0918
  762MOL0     H  558   0.229   5.918  11.219  2.0631 -0.4684  1.6619
  762MOL0     H  559   0.160   5.786  11.308  2.0623 -0.6961  0.6321
  762MOL0     H  560   0.065   5.922  11.073 -0.3673 -1.1594 -0.1905
  762MOL0     H  561  -0.019   5.859  11.215 -0.8154  1.4013 -1.4556
  762MOL0     H  562   0.062   5.695  10.967  0.0949 -1.3864  0.5942
  762MOL0     H  563   0.005   5.639  11.134  0.2921  2.6233  1.7560
  762MOL0     H  564  -0.186   5.659  10.962 -2.4356  0.2104  2.4246
  762MOL0     H  565  -0.154   5.833  10.957 -1.1790  1.4112  2.0369
  762MOL0     H  566   0.803   5.976  11.121 -1.9152 -0.8268  3.4051
  762MOL0     H  567   1.046   6.050  11.113  0.3671 -0.4941 -0.0690
  762MOL0     H  568   1.447   6.208  11.306  0.9407 -0.1650  1.1875
  762MOL0     H  569   1.663   6.240  11.309 -2.7213  0.3105  4.0042
  762MOL0     H  570   1.391   5.638  10.301  2.3436 -1.9632 -0.7675
  762MOL0     H  571   1.142   5.558  10.317 -2.2235 -0.7006  1.5511
  762MOL0     H  572   0.856   5.356  10.269 -3.8424  2.0173 -1.6710
  762MOL0     H  573   0.624   5.290  10.210  1.3027  1.4547 -0.6249
  762MOL0     H  574   0.383   5.061  10.480 -2.6189 -0.8204 -0.0375
  762MOL0     H  575   0.433   4.927  10.385 -0.4358 -1.2519 -0.3661
  762MOL0     H  576   0.213   5.122  10.316 -2.0271  0.1430 -1.2736
  762MOL0     H  577   0.290   5.016  10.197 -0.9051  2.8657  0.0905
  762MOL0     H  578   0.150   4.930  10.453 -2.1868 -3.6967 -0.2759
  762MOL0     H  579   0.233   4.818  10.350  3.3714  1.8880 -1.9559
  762MOL0     H  580   0.060   4.886  10.175  1.5982 -3.2741  0.2702
  762MOL0     H  581  -0.017   4.797  10.308  1.7641 -1.3247  1.2771
  762MOL0     H  582  -0.156   5.204  10.310 -2.0742 -1.1910 -0.0521
  762MOL0     H  583   0.642   4.962  10.464  1.1522  1.6583  4.0536
  762MOL0     H  584   0.895   5.016  10.512  1.2586 -0.2317 -1.9606
  763MOL0     O  585   2.941  10.201   9.747  0.1864 -0.3172  0.2860
  763MOL0     C  586   2.950  10.262   9.643 -0.4751  0.6067  0.1806
  763MOL0     O  587   2.854  10.354   9.597 -0.1152 -0.1234 -0.1251
  763MOL0     C  588   2.741  10.370   9.673  0.4577 -0.0171 -0.6686
  763MOL0     C  589   2.710  10.487   9.749 -0.1832  0.6781  0.5546
  763MOL0     C  590   2.584  10.506   9.812 -0.2028 -0.5872  0.2613
  763MOL0     C  591   2.497  10.398   9.823  0.1878 -0.2276 -0.3915
  763MOL0     O  592   2.389  10.423   9.906 -0.2544 -0.0516  0.2112
  763MOL0     C  593   2.298  10.320   9.927 -0.3305 -1.2005 -0.3806
  763MOL0     C  594   2.204  10.356  10.044  0.2365  0.7765  0.2376
  763MOL0     C  595   2.256  10.349  10.191  0.2958  0.1036  0.0804
  763MOL0     C  596   2.358  10.468  10.218 -1.0987  0.5909 -0.2570
  763MOL0     C  597   2.392  10.454  10.370  0.7964 -0.3706  0.3475
  763MOL0     C  598   2.490  10.573  10.411  0.0835 -1.2733  0.0121
  763MOL0     C  599   2.435  10.716  10.383  0.6044 -0.5157  0.2969
  763MOL0     C  600   2.517  10.820  10.468 -0.4354 -0.2344 -0.3824
  763MOL0     N  601   2.454  10.950  10.447  0.8875 -0.4407  0.6606
  763MOL0     C  602   2.501  11.061  10.391  0.2613 -0.7613  0.2585
  763MOL0     C  603   2.422  11.175  10.439 -0.1108  0.2797  0.3831
  763MOL0     C  604   2.428  11.324  10.400  0.2809  0.1821  0.7904
  763MOL0     C  605   2.321  11.427  10.449 -0.2510 -0.4712  0.1602
  763MOL0     C  606   2.359  11.448  10.589 -0.4694  0.8699  0.9879
  763MOL0     C  607   2.252  11.499  10.679  0.6392 -0.1223 -0.2607
  763MOL0     O  608   2.141  11.560  10.614  0.0020 -0.7251  0.0194
  763MOL0     C  609   2.170  11.678  10.555 -0.5186  1.0680  0.0695
  763MOL0     C  610   2.240  11.782  10.629  0.1945 -0.4541  1.2366
  763MOL0     C  611   2.266  11.909  10.575  0.2752  1.0473  0.1886
  763MOL0     C  612   2.223  11.942  10.442 -0.2341  0.3843 -0.1036
  763MOL0     C  613   2.246  12.078  10.393 -0.8148 -0.8368 -0.0945
  763MOL0     O  614   2.327  12.170  10.460  0.2661  0.2213  0.0337
  763MOL0     C  615   2.332  12.295  10.408  0.1537  0.1203  0.4116
  763MOL0     C  616   2.455  12.341  10.354  0.9768 -0.3722 -0.8085
  763MOL0     C  617   2.455  12.470  10.307  0.3353 -0.4093 -0.4314
  763MOL0     C  618   2.344  12.554  10.315  0.7252  0.0589 -0.2816
  763MOL0     O  619   2.342  12.680  10.251  0.3540  0.1701 -0.2969
  763MOL0     C  620   2.444  12.717  10.164 -0.2949  0.3856  0.4234
  763MOL0     C  621   2.414  12.852  10.116  0.2938  0.3028 -0.6432
  763MOL0     C  622   2.488  12.887   9.982 -1.2624  0.2040 -0.3903
  763MOL0     C  623   2.635  12.891  10.009  0.0274 -0.4322  0.5553
  763MOL0     C  624   2.709  12.935   9.877  0.3873  0.6268 -0.5983
  763MOL0     C  625   2.861  12.922   9.874  0.9430 -0.0958 -1.5892
  763MOL0     C  626   2.913  12.946   9.734  0.2504 -0.2801  0.4304
  763MOL0     C  627   2.875  13.080   9.669  0.3216  0.0887 -0.0411
  763MOL0    Cl  628   2.924  13.085   9.497 -0.2758  0.4730 -0.2344
  763MOL0     C  629   2.230  12.503  10.367  0.4466 -0.6999 -0.7802
  763MOL0     C  630   2.221  12.375  10.414 -0.4869 -0.1165 -0.6992
  763MOL0     O  631   2.185  12.102  10.294  0.0819 -0.2813  0.1488
  763MOL0     C  632   2.156  11.837  10.364 -0.1148 -0.3605  0.4125
  763MOL0     C  633   2.127  11.707  10.421 -0.1080 -0.2468  1.3870
  763MOL0     N  634   2.325  11.118  10.513  0.3250  0.7458  0.3014
  763MOL0     N  635   2.338  10.990  10.512  0.1274  0.7984  0.2617
  763MOL0     C  636   2.535  10.278   9.755 -0.0896  0.4115  0.8293
  763MOL0     C  637   2.641  10.268   9.674 -1.1738 -0.3759  0.7889
  763MOL0     C  638   3.078  10.234   9.562  0.4924 -0.1168 -0.1809
  763MOL0     C  639   3.114  10.307   9.439 -0.3991  0.1577 -0.6136
  763MOL0     C  640   3.230  10.261   9.366  1.1770  0.1139 -0.8260
  763MOL0     C  641   3.298  10.142   9.397 -0.3608 -0.7645  0.0790
  763MOL0     O  642   3.376  10.104   9.297  0.0527 -0.1124  0.0049
  763MOL0     C  643   3.401   9.958   9.291 -0.2913 -0.1444 -0.5102
  763MOL0     C  644   3.550   9.930   9.330  0.0232  0.6754 -0.6114
  763MOL0     C  645   3.580   9.783   9.313 -0.6576  0.5834 -0.2215
  763MOL0     C  646   3.732   9.753   9.351 -0.3831  0.0619 -0.1168
  763MOL0     C  647   3.762   9.610   9.361 -0.3077 -0.3320  0.5490
  763MOL0     C  648   3.781   9.490   9.371 -0.5323  0.2067  0.2000
  763MOL0     C  649   3.267  10.079   9.510  0.5732  0.5094 -0.1934
  763MOL0     C  650   3.159  10.125   9.595 -0.3363  0.5326  0.1856
  763MOL0     H  651   2.789  10.562   9.750 -0.2950  0.8023  0.3517
  763MOL0     H  652   2.574  10.599   9.866 -0.5676 -0.1760 -0.4991
  763MOL0     H  653   2.340  10.222   9.951 -1.4382 -1.6320 -0.1389
  763MOL0     H  654   2.238  10.318   9.835 -1.3615  1.0505  0.1749
  763MOL0     H  655   2.144  10.265  10.038  3.1494 -1.2038 -2.7224
  763MOL0     H  656   2.154  10.452  10.030  1.3204  1.1008 -1.9420
  763MOL0     H  657   2.308  10.256  10.214  0.0795  0.3338  1.5843
  763MOL0     H  658   2.175  10.348  10.264 -1.9976 -1.2817 -2.3235
  763MOL0     H  659   2.444  10.458  10.150 -0.0288  1.4569  0.9149
  763MOL0     H  660   2.310  10.563  10.195  2.2420  2.1978 -1.2021
  763MOL0     H  661   2.427  10.352  10.390 -0.1869 -0.3969  2.1139
  763MOL0     H  662   2.298  10.468  10.424 -0.5380  1.2944 -2.2074
  763MOL0     H  663   2.588  10.562  10.364 -1.3269 -3.4275 -2.6497
  763MOL0     H  664   2.496  10.565  10.520 -1.8039 -2.2304  0.0933
  763MOL0     H  665   2.450  10.745  10.279 -0.4506  3.8083  1.1172
  763MOL0     H  666   2.327  10.721  10.401  0.2292 -0.0996 -1.8182
  763MOL0     H  667   2.618  10.809  10.429 -1.1762 -3.7066 -1.7212
  763MOL0     H  668   2.516  10.791  10.573  1.1309 -1.6170 -0.7090
  763MOL0     H  669   2.597  11.066  10.341  0.1051 -1.6066 -0.1406
  763MOL0     H  670   2.411  11.324  10.292  0.4336  0.0092  0.7655
  763MOL0     H  671   2.528  11.363  10.419  0.3877 -0.0299  0.6641
  763MOL0     H  672   2.219  11.393  10.433 -0.7623  1.5062 -1.1739
  763MOL0     H  673   2.330  11.524  10.399 -0.8183 -0.3442  0.2993
  763MOL0     H  674   2.400  11.357  10.632  1.0606  0.2455 -1.5549
  763MOL0     H  675   2.440  11.519  10.608  0.9557 -0.8253  1.5196
  763MOL0     H  676   2.297  11.567  10.752  1.9821 -1.9935  0.7465
  763MOL0     H  677   2.219  11.416  10.743 -0.4210  1.0134  0.6927
  763MOL0     H  678   2.290  11.766  10.724  0.9739 -2.3143  0.5725
  763MOL0     H  679   2.304  11.982  10.645  2.6330  2.2471 -2.1616
  763MOL0     H  680   2.533  12.266  10.349  2.0471  0.5364  1.0642
  763MOL0     H  681   2.548  12.505  10.263  1.3400 -1.6424  0.6364
  763MOL0     H  682   2.454  12.650  10.079  5.1294  3.9865 -2.3463
  763MOL0     H  683   2.538  12.736  10.217  0.4466 -0.4671 -0.5708
  763MOL0     H  684   2.430  12.925  10.196 -3.1225  0.2122  0.3079
  763MOL0     H  685   2.309  12.863  10.086  0.2508 -2.1182 -1.5471
  763MOL0     H  686   2.449  12.984   9.952  0.4918  2.2054  3.1289
  763MOL0     H  687   2.455  12.811   9.910 -3.1101  0.1767  0.4101
  763MOL0     H  688   2.669  12.956  10.090  1.6271 -2.1646  1.3665
  763MOL0     H  689   2.664  12.787  10.031  0.0700 -0.9807 -1.8076
  763MOL0     H  690   2.686  13.041   9.872 -0.7155  0.6769  2.8282
  763MOL0     H  691   2.663  12.871   9.802 -0.6548 -4.0506  3.4510
  763MOL0     H  692   2.882  12.824   9.919 -2.2957 -0.4881 -0.6834
  763MOL0     H  693   2.908  12.998   9.937 -0.6039 -0.3426 -0.0822
  763MOL0     H  694   3.019  12.927   9.717  0.3094 -2.2187  2.4875
  763MOL0     H  695   2.876  12.865   9.671  1.1932  0.6242 -1.3706
  763MOL0     H  696   2.915  13.163   9.729 -0.2842 -0.5395  1.2924
  763MOL0     H  697   2.766  13.092   9.671  0.2064 -0.9125 -0.0748
  763MOL0     H  698   2.145  12.571  10.367 -2.5800 -4.1150 -0.5292
  763MOL0     H  699   2.127  12.328  10.441 -2.1422 -0.6431 -6.0659
  763MOL0     H  700   2.127  11.871  10.265 -0.1254  1.6249  1.0559
  763MOL0     H  701   2.089  11.633  10.351  1.6930 -0.4035  0.5227
  763MOL0     H  702   2.462  10.198   9.763  0.7088 -0.4563 -0.2883
  763MOL0     H  703   2.652  10.172   9.624 -2.1847 -0.6140  0.9866
  763MOL0     H  704   3.056  10.389   9.397 -0.2439  0.9646  0.6709
  763MOL0     H  705   3.234  10.326   9.279  0.2964  1.1015 -0.1680
  763MOL0     H  706   3.393   9.926   9.187 -1.1290  0.8505 -0.7748
  763MOL0     H  707   3.327   9.895   9.341  1.5896 -2.5501 -0.5611
  763MOL0     H  708   3.603  10.003   9.268  1.0050  2.9373  2.6225
  763MOL0     H  709   3.568   9.956   9.435 -2.2261  2.4216 -0.5642
  763MOL0     H  710   3.546   9.741   9.218 -1.5852 -0.6432  0.6249
  763MOL0     H  711   3.524   9.729   9.389  0.0806 -1.1230 -0.8197
  763MOL0     H  712   3.804   9.805   9.287  0.1333  0.3200  0.6462
  763MOL0     H  713   3.753   9.794   9.451 -0.8703  0.2107 -0.0726
  763MOL0     H  714   3.826   9.393   9.373 -2.7481 -0.9002 -0.1997
  763MOL0     H  715   3.329   9.995   9.539 -0.7664  0.1603  1.9002
  763MOL0     H  716   3.146  10.072   9.689  2.5010 -1.3351 -0.3774
  764MOL0     O  717   0.398  10.399   3.650  0.7765 -0.4310 -0.3319
  764MOL0     C  718   0.417  10.517   3.667  0.7829 -0.1616  0.0084
  764MOL0     O  719   0.335  10.599   3.746 -0.5953 -0.0728 -0.3536
  764MOL0     C  720   0.244  10.547   3.822  0.5232  0.5726  0.4920
  764MOL0     C  721   0.282  10.498   3.946  0.2658  0.2530  0.4836
  764MOL0     C  722   0.174  10.446   4.025 -0.2005 -1.0268  0.3205
  764MOL0     C  723   0.040  10.452   3.993 -0.1130  0.0129 -0.5909
  764MOL0     O  724  -0.051  10.409   4.089 -0.0615  0.3722  0.3836
  764MOL0     C  725  -0.189  10.369   4.049  0.0699 -0.5523 -0.5777
  764MOL0     C  726  -0.279  10.491   4.067  0.2507 -0.2335  0.2678
  764MOL0     C  727  -0.332  10.514   4.209  0.3105  0.7808  0.5036
  764MOL0     C  728  -0.452  10.607   4.221  0.5444 -0.1189  0.7228
  764MOL0     C  729  -0.486  10.641   4.371 -0.7341 -0.0018  0.4231
  764MOL0     C  730  -0.548  10.524   4.439  0.5790  0.1612  0.6470
  764MOL0     C  731  -0.652  10.572   4.535 -0.0487 -0.1279  0.4346
  764MOL0     C  732  -0.671  10.460   4.644  0.5204 -0.3536  0.2345
  764MOL0     N  733  -0.756  10.504   4.752 -1.0417  0.0609 -0.7936
  764MOL0     C  734  -0.738  10.497   4.891 -0.7404 -0.1029  0.8805
  764MOL0     C  735  -0.842  10.564   4.942 -0.3906  0.2509 -0.2196
  764MOL0     C  736  -0.871  10.571   5.087  0.5200  0.4041  0.4803
  764MOL0     C  737  -1.021  10.584   5.100  1.3184 -0.5194 -0.0701
  764MOL0     C  738  -1.071  10.576   5.248 -0.2394  0.0249 -0.9437
  764MOL0     C  739  -1.223  10.566   5.250  0.3014 -0.0780 -0.0938
  764MOL0     O  740  -1.278  10.692   5.211 -0.0849  0.3488  0.0289
  764MOL0     C  741  -1.401  10.691   5.149 -0.2405  1.2398 -0.5406
  764MOL0     C  742  -1.515  10.731   5.220 -0.3562  0.0672  1.3082
  764MOL0     C  743  -1.643  10.710   5.161 -0.7759  0.2016  1.2179
  764MOL0     C  744  -1.656  10.651   5.029  0.0867  0.5131  0.7359
  764MOL0     C  745  -1.790  10.626   4.970  0.7420  0.2786 -0.0294
  764MOL0     O  746  -1.906  10.672   5.049 -0.3109  0.7527  0.3001
  764MOL0     C  747  -2.035  10.651   5.021 -0.4063  0.8623 -0.0363
  764MOL0     C  748  -2.144  10.743   5.053  0.4015  0.5282  0.1169
  764MOL0     C  749  -2.274  10.700   5.018  1.0031  0.2432 -1.2359
  764MOL0     C  750  -2.309  10.574   4.969  0.3991  0.3299 -0.1020
  764MOL0     O  751  -2.439  10.556   4.925 -0.5063  0.1282 -0.3575
  764MOL0     C  752  -2.516  10.463   5.007  0.0631  0.1439  0.4002
  764MOL0     C  753  -2.661  10.472   4.947  0.6862 -0.2377  0.1290
  764MOL0     C  754  -2.769  10.403   5.031 -0.4568 -0.6752 -0.1266
  764MOL0     C  755  -2.906  10.424   4.978  0.4223 -0.6910  1.6413
  764MOL0     C  756  -3.015  10.372   5.076 -0.3324  0.6020 -0.3931
  764MOL0     C  757  -3.131  10.308   5.008 -0.4777 -0.0888 -0.5027
  764MOL0     C  758  -3.227  10.266   5.121  0.4787 -1.0919  0.6647
  764MOL0     C  759  -3.373  10.224   5.075  0.1580  0.4568 -0.4276
  764MOL0    Cl  760  -3.448  10.364   4.992  0.2816  0.2018 -0.1522
  764MOL0     C  761  -2.201  10.485   4.958  0.3379  0.0156 -0.1094
  764MOL0     C  762  -2.074  10.524   4.984 -0.3779 -0.4690  0.7954
  764MOL0     O  763  -1.798  10.551   4.864  0.9825 -0.5378  0.0025
  764MOL0     C  764  -1.533  10.614   4.962  0.7022  0.0922  0.7865
  764MOL0     C  765  -1.407  10.636   5.027  0.8382  0.0165  0.2163
  764MOL0     N  766  -0.917  10.622   4.838  0.0284  0.0266 -0.3202
  764MOL0     N  767  -0.861  10.580   4.726  0.8059 -0.9090 -0.6758
  764MOL0     C  768   0.016  10.497   3.869  0.4109  0.5306  0.0217
  764MOL0     C  769   0.113  10.554   3.782  0.2369 -0.2821  0.6398
  764MOL0     C  770   0.525  10.577   3.598 -0.5740  0.7117  0.1987
  764MOL0     C  771   0.580  10.529   3.476  0.8976  0.7098  0.2657
  764MOL0     C  772   0.669  10.615   3.407 -0.5202  0.1199  0.4405
  764MOL0     C  773   0.704  10.747   3.453 -0.0118 -0.5389 -0.2681
  764MOL0     O  774   0.795  10.831   3.392  0.5031  0.4899 -0.2107
  764MOL0     C  775   0.859  10.792   3.271  0.3619  1.0728 -0.1400
  764MOL0     C  776   0.970  10.694   3.297  1.0174  0.0474  0.3088
  764MOL0     C  777   1.039  10.658   3.171 -0.7969 -0.0760  0.1097
  764MOL0     C  778   1.156  10.573   3.224  0.2874 -0.1155  0.4671
  764MOL0     C  779   1.237  10.517   3.107 -0.3989 -0.0043 -0.0150
  764MOL0     C  780   1.292  10.476   3.008  0.4952 -0.0682 -0.4270
  764MOL0     C  781   0.651  10.781   3.577  0.4548  0.3194  1.1526
  764MOL0     C  782   0.570  10.697   3.654 -0.2067  0.5886 -0.9888
  764MOL0     H  783   0.386  10.507   3.978  0.7238 -2.2874 -0.0704
  764MOL0     H  784   0.199  10.414   4.126 -2.7413  0.4222  1.5111
  764MOL0     H  785  -0.229  10.296   4.121  1.8302  0.7398  1.8840
  764MOL0     H  786  -0.191  10.319   3.952  0.4323 -4.2023  1.1117
  764MOL0     H  787  -0.365  10.464   4.004 -0.6732 -2.8487  2.4188
  764MOL0     H  788  -0.233  10.580   4.024 -0.2783  0.2432  0.6823
  764MOL0     H  789  -0.247  10.548   4.269  1.3439  0.4777 -0.7501
  764MOL0     H  790  -0.354  10.415   4.252 -0.2544 -0.0342 -1.5735
  764MOL0     H  791  -0.423  10.688   4.155  0.3784  0.7746  1.7142
  764MOL0     H  792  -0.544  10.560   4.184 -0.2362  2.2724 -0.5829
  764MOL0     H  793  -0.552  10.728   4.364 -1.8259 -0.8466  0.0114
  764MOL0     H  794  -0.390  10.647   4.423 -0.6164 -1.0609  0.3508
  764MOL0     H  795  -0.471  10.474   4.499 -0.5309 -1.3901  0.8534
  764MOL0     H  796  -0.591  10.460   4.360  2.3023 -1.8705  1.2676
  764MOL0     H  797  -0.617  10.664   4.582  0.2600 -1.1105  2.2232
  764MOL0     H  798  -0.743  10.597   4.480  1.4252 -1.0261 -2.6071
  764MOL0     H  799  -0.579  10.415   4.684  0.0040 -0.1320  1.7172
  764MOL0     H  800  -0.724  10.375   4.599 -1.9505 -0.9408  3.8070
  764MOL0     H  801  -0.650  10.462   4.944  3.0742  2.5744 -2.9448
  764MOL0     H  802  -0.816  10.656   5.128  1.0026  0.5119 -0.3584
  764MOL0     H  803  -0.838  10.474   5.126  0.9731  1.5227  3.1073
  764MOL0     H  804  -1.068  10.500   5.050  1.2234 -0.4798 -0.0478
  764MOL0     H  805  -1.058  10.681   5.064 -1.1868  0.2289  3.8712
  764MOL0     H  806  -1.020  10.492   5.296 -2.2206  0.0799  1.4900
  764MOL0     H  807  -1.042  10.662   5.310  1.3728 -0.6226 -0.7499
  764MOL0     H  808  -1.251  10.549   5.355  1.0428  1.9232  0.4734
  764MOL0     H  809  -1.256  10.490   5.178 -1.0690 -1.0064  1.4332
  764MOL0     H  810  -1.509  10.764   5.323  0.4162 -2.7828  2.2668
  764MOL0     H  811  -1.736  10.730   5.213 -1.2220 -0.2120  0.5985
  764MOL0     H  812  -2.115  10.844   5.080  2.3951  0.0195 -0.0125
  764MOL0     H  813  -2.358  10.767   5.037  1.4143  0.1146  1.3322
  764MOL0     H  814  -2.517  10.506   5.108 -0.8667 -0.4184  0.6438
  764MOL0     H  815  -2.475  10.362   5.007 -3.4062 -1.3780  0.1945
  764MOL0     H  816  -2.658  10.424   4.849  2.3689 -0.1828  0.1135
  764MOL0     H  817  -2.681  10.578   4.930 -2.1246 -0.9062 -1.3804
  764MOL0     H  818  -2.759  10.437   5.135  2.7470 -0.4745 -0.4026
  764MOL0     H  819  -2.763  10.294   5.031 -0.7364 -0.7688 -2.8477
  764MOL0     H  820  -2.925  10.531   4.966  1.6549 -0.2881  3.0560
  764MOL0     H  821  -2.914  10.383   4.877  0.1671 -1.0773  1.8146
  764MOL0     H  822  -3.044  10.459   5.135  0.7778 -1.3840  3.4512
  764MOL0     H  823  -2.974  10.302   5.150 -1.0085  2.3399  1.7382
  764MOL0     H  824  -3.098  10.224   4.947 -0.0508 -0.1370 -0.2096
  764MOL0     H  825  -3.165  10.378   4.931  0.2390  1.8418  0.8619
  764MOL0     H  826  -3.190  10.180   5.177  0.9369  0.2092  2.4484
  764MOL0     H  827  -3.233  10.353   5.188  0.3054  0.2657 -1.0230
  764MOL0     H  828  -3.432  10.198   5.163  3.8366 -3.4179  1.2494
  764MOL0     H  829  -3.373  10.146   4.999  0.2919  1.7177 -1.7863
  764MOL0     H  830  -2.211  10.382   4.926 -1.5025 -0.3921  1.6089
  764MOL0     H  831  -1.988  10.458   4.980 -0.7903 -0.9910  0.4883
  764MOL0     H  832  -1.544  10.581   4.859  1.7443 -0.4526  0.8435
  764MOL0     H  833  -1.314  10.614   4.976  1.1389  2.3737 -0.3373
  764MOL0     H  834  -0.088  10.507   3.839 -0.2605 -2.8487  0.7715
  764MOL0     H  835   0.075  10.597   3.690 -0.9733 -0.6519  0.9433
  764MOL0     H  836   0.560  10.431   3.434  0.4048  0.9626 -0.0991
  764MOL0     H  837   0.713  10.576   3.316  1.0859  0.8831  0.8602
  764MOL0     H  838   0.900  10.874   3.211  1.0543  0.6545 -0.2561
  764MOL0     H  839   0.786  10.739   3.210  0.9807 -1.9183  1.5192
  764MOL0     H  840   1.037  10.744   3.367  1.1014 -0.3322  0.5030
  764MOL0     H  841   0.931  10.610   3.355  0.7468  0.4740  0.7495
  764MOL0     H  842   1.083  10.740   3.114 -0.1410 -0.1551  0.4885
  764MOL0     H  843   0.972  10.605   3.103 -3.5817  2.1673  0.9115
  764MOL0     H  844   1.218  10.642   3.283  0.0420  0.2249  0.3269
  764MOL0     H  845   1.121  10.493   3.290 -0.2893  1.1172  1.6906
  764MOL0     H  846   1.333  10.430   2.920 -0.7653 -1.8477 -0.1444
  764MOL0     H  847   0.678  10.878   3.619 -0.9420  0.0428  2.7807
  764MOL0     H  848   0.540  10.714   3.757  3.3751  1.9391 -0.0126
  765MOL0     O  849   5.241   9.855  10.801 -0.4458 -0.0567 -0.1938
  765MOL0     C  850   5.271   9.860  10.684  1.2444  0.4777  0.2502
  765MOL0     O  851   5.183   9.842  10.581 -0.2156  0.0897 -0.4149
  765MOL0     C  852   5.046   9.843  10.599 -0.8143 -0.1194  0.0539
  765MOL0     C  853   4.981   9.898  10.476 -0.3982 -0.4791 -0.7666
  765MOL0     C  854   4.846   9.905  10.479 -0.6853  1.0099  0.4472
  765MOL0     C  855   4.774   9.875  10.591 -0.0008  0.7024 -0.5116
  765MOL0     O  856   4.634   9.877  10.588 -0.2060 -0.4305  0.1714
  765MOL0     C  857   4.561   9.883  10.467  0.9591 -0.0758 -0.5696
  765MOL0     C  858   4.416   9.908  10.523  0.7973  0.3332 -0.0655
  765MOL0     C  859   4.310   9.911  10.408  1.0774 -0.0533 -0.7001
  765MOL0     C  860   4.182   9.971  10.446 -0.0853 -0.4297 -0.9267
  765MOL0     C  861   4.119   9.901  10.571  0.8891  0.0366  1.1500
  765MOL0     C  862   3.974   9.957  10.595 -0.9898  0.3534  0.4558
  765MOL0     C  863   3.911   9.903  10.722  0.7216  0.0457  0.5152
  765MOL0     C  864   3.827  10.005  10.798 -0.1780 -0.6583  0.2883
  765MOL0     N  865   3.710  10.049  10.716 -0.1542 -0.6091 -0.1742
  765MOL0     C  866   3.614   9.964  10.662  0.6499  0.2038 -0.0975
  765MOL0     C  867   3.505  10.046  10.643  0.9504 -0.6320 -0.5974
  765MOL0     C  868   3.376  10.001  10.587  0.4630  0.4650 -0.3187
  765MOL0     C  869   3.282   9.926  10.685 -0.6372 -0.2454 -0.6010
  765MOL0     C  870   3.263   9.999  10.819  0.4650  0.4014  0.2526
  765MOL0     C  871   3.221  10.140  10.819 -0.1562  0.3312  0.0107
  765MOL0     O  872   3.095  10.142  10.755  0.4774 -0.3958 -0.0515
  765MOL0     C  873   3.039  10.262  10.711 -0.2588 -0.4507 -0.7299
  765MOL0     C  874   2.957  10.275  10.595 -1.7572 -0.0555 -0.4170
  765MOL0     C  875   2.900  10.395  10.557 -0.2254 -0.2122 -0.2601
  765MOL0     C  876   2.929  10.510  10.620 -0.4010 -0.0771 -0.8990
  765MOL0     C  877   2.875  10.640  10.584 -0.0286 -0.4250  0.2718
  765MOL0     O  878   2.881  10.740  10.679 -0.1402  0.2786 -0.0922
  765MOL0     C  879   2.863  10.870  10.644  0.1567 -0.1316 -0.3326
  765MOL0     C  880   2.959  10.936  10.569 -0.4359 -0.0535 -1.5575
  765MOL0     C  881   2.943  11.072  10.534 -1.3720 -0.2351  0.3145
  765MOL0     C  882   2.842  11.158  10.579  0.7456  0.8116 -0.3445
  765MOL0     O  883   2.836  11.289  10.565  0.4112 -0.6037  0.1494
  765MOL0     C  884   2.916  11.357  10.469  0.4990 -0.3062 -0.4226
  765MOL0     C  885   2.911  11.511  10.504  0.1239  0.2282 -0.3078
  765MOL0     C  886   2.763  11.559  10.481 -0.0195  0.5776 -0.9948
  765MOL0     C  887   2.746  11.702  10.459 -0.7526 -0.9774  0.6703
  765MOL0     C  888   2.597  11.736  10.438 -0.8818 -0.1723 -0.1596
  765MOL0     C  889   2.580  11.882  10.375 -0.0498  0.1334  0.1110
  765MOL0     C  890   2.629  11.886  10.224  0.0093 -0.1219  0.0299
  765MOL0     C  891   2.562  11.996  10.153 -0.3604 -0.8323 -0.5363
  765MOL0    Cl  892   2.626  12.016   9.986  0.0050 -0.1726  0.2773
  765MOL0     C  893   2.745  11.092  10.660 -0.6962  0.1645 -0.6805
  765MOL0     C  894   2.753  10.950  10.686 -0.9997  0.9275 -0.5156
  765MOL0     O  895   2.830  10.655  10.471 -0.1998  0.0014  0.2118
  765MOL0     C  896   3.013  10.501  10.734 -0.5045 -0.5346  0.6331
  765MOL0     C  897   3.065  10.382  10.780  0.0172  0.5610 -1.2603
  765MOL0     N  898   3.545  10.174  10.684 -0.1001 -0.8856 -0.2829
  765MOL0     N  899   3.668  10.179  10.723 -0.4374 -0.2894 -0.3843
  765MOL0     C  900   4.830   9.821  10.708 -0.7626  0.3567 -0.1341
  765MOL0     C  901   4.971   9.810  10.713 -0.7306 -0.6905 -0.2142
  765MOL0     C  902   5.412   9.877  10.639 -0.3749 -0.5582 -0.4085
  765MOL0     C  903   5.443   9.890  10.505  0.0643 -1.0047  0.1828
  765MOL0     C  904   5.568   9.883  10.460 -0.3056  0.5436 -0.2923
  765MOL0     C  905   5.673   9.855  10.551  1.5351 -0.4117  0.1952
  765MOL0     O  906   5.799   9.821  10.508 -0.1905 -0.1240  0.2466
  765MOL0     C  907   5.839   9.860  10.371 -0.3411 -0.6094  0.6287
  765MOL0     C  908   5.993   9.841  10.369  0.3548 -0.4627  0.2051
  765MOL0     C  909   6.071   9.904  10.489 -0.0699 -0.1048 -0.1446
  765MOL0     C  910   6.043  10.057  10.495  0.1330 -0.0739 -0.3975
  765MOL0     C  911   6.091  10.137  10.377 -0.1285  0.1303  0.3830
  765MOL0     C  912   6.118  10.199  10.269  1.0687  0.6915 -0.6338
  765MOL0     C  913   5.638   9.844  10.685  1.3857  0.6886 -0.1304
  765MOL0     C  914   5.509   9.851  10.737 -0.0516  0.3557 -0.3424
  765MOL0     H  915   5.036   9.914  10.384  3.0722 -5.3282  0.0820
  765MOL0     H  916   4.795   9.933  10.386  0.4203  1.3708 -0.0639
  765MOL0     H  917   4.565   9.792  10.407  4.2874 -0.0418 -0.5409
  765MOL0     H  918   4.589   9.968  10.405  1.3987 -0.5111 -0.9730
  765MOL0     H  919   4.413  10.002  10.579 -1.9317 -1.1278  2.5839
  765MOL0     H  920   4.382   9.828  10.589 -0.5209 -0.8014 -2.0184
  765MOL0     H  921   4.290   9.813  10.363 -0.8897 -0.1798  0.3377
  765MOL0     H  922   4.352   9.975  10.330  3.3007  2.5313  2.3459
  765MOL0     H  923   4.213  10.073  10.472 -0.0148 -0.9549  1.2027
  765MOL0     H  924   4.102   9.972  10.372 -0.8531 -2.4457 -0.1843
  765MOL0     H  925   4.182   9.922  10.658  0.6700 -0.3802  1.4113
  765MOL0     H  926   4.127   9.793  10.553 -0.3758  0.2746 -1.2400
  765MOL0     H  927   3.912   9.933  10.508  1.9046 -0.2669 -1.5862
  765MOL0     H  928   3.982  10.066  10.600  2.6339  0.2440 -0.1734
  765MOL0     H  929   3.852   9.819  10.683 -2.8389  2.9995 -1.0623
  765MOL0     H  930   3.982   9.860  10.793 -0.1794 -2.1317  0.1901
  765MOL0     H  931   3.873  10.095  10.840  0.4885 -1.7116  1.9435
  765MOL0     H  932   3.784   9.941  10.876  1.1838 -3.1085 -0.8370
  765MOL0     H  933   3.621   9.856  10.649  0.3551  0.0827  0.6532
  765MOL0     H  934   3.402   9.939  10.500 -1.9900 -1.7048  0.3724
  765MOL0     H  935   3.322  10.091  10.558 -0.0705  1.5624  3.5367
  765MOL0     H  936   3.325   9.828  10.705  3.8344  1.5846 -0.2451
  765MOL0     H  937   3.183   9.913  10.640 -1.0844  3.0352 -0.8028
  765MOL0     H  938   3.189   9.934  10.865  1.7635 -2.8208 -1.8261
  765MOL0     H  939   3.354   9.982  10.878  0.5318  0.2852  0.1164
  765MOL0     H  940   3.294  10.201  10.764 -1.9249  2.6624  0.1000
  765MOL0     H  941   3.202  10.181  10.919 -6.4293  0.7474 -0.9846
  765MOL0     H  942   2.937  10.184  10.540 -2.0824 -0.6067  0.5916
  765MOL0     H  943   2.838  10.393  10.468 -2.0663  2.6869  0.8288
  765MOL0     H  944   3.024  10.869  10.513 -1.2664 -1.3300 -1.0486
  765MOL0     H  945   3.021  11.121  10.477  1.0629 -0.9514  2.8301
  765MOL0     H  946   2.871  11.346  10.370  0.6822 -1.2300 -0.4122
  765MOL0     H  947   3.022  11.333  10.457  0.3049 -0.3621 -2.4180
  765MOL0     H  948   2.979  11.567  10.440  0.0533  1.2112  0.4483
  765MOL0     H  949   2.944  11.528  10.607  0.7822  2.5992 -0.8489
  765MOL0     H  950   2.706  11.525  10.568 -0.4412 -0.0524 -1.5112
  765MOL0     H  951   2.722  11.516  10.389  0.0655 -1.3260 -0.1815
  765MOL0     H  952   2.788  11.750  10.548 -1.4336  3.8613 -1.2779
  765MOL0     H  953   2.808  11.727  10.373  1.7020  1.3037  2.9059
  765MOL0     H  954   2.541  11.722  10.531 -1.5303 -1.3068 -0.7028
  765MOL0     H  955   2.552  11.669  10.365 -2.0961 -2.8241  2.8088
  765MOL0     H  956   2.639  11.951  10.436  1.0359 -0.9533  0.3264
  765MOL0     H  957   2.472  11.902  10.375 -0.8488 -3.5457  0.6837
  765MOL0     H  958   2.737  11.902  10.231 -0.0354  0.5958 -0.7839
  765MOL0     H  959   2.620  11.791  10.171 -0.2803 -0.5143  0.7682
  765MOL0     H  960   2.583  12.093  10.199 -5.3598  1.0615 -1.5686
  765MOL0     H  961   2.453  11.990  10.153 -0.4740  0.4575 -2.2060
  765MOL0     H  962   2.671  11.144  10.720  0.3646 -2.0630  2.8480
  765MOL0     H  963   2.674  10.902  10.744 -1.1638  0.5345 -1.0578
  765MOL0     H  964   3.027  10.593  10.792  3.9429 -1.0093  0.6985
  765MOL0     H  965   3.131  10.385  10.866  1.0167 -2.6823 -1.7643
  765MOL0     H  966   4.766   9.794  10.792  0.1913  1.7328  1.0883
  765MOL0     H  967   5.026   9.761  10.792  0.1914 -1.6754 -1.4298
  765MOL0     H  968   5.362   9.912  10.437  0.5156  2.4007  0.5753
  765MOL0     H  969   5.580   9.882  10.352 -2.0571 -2.0247 -0.5521
  765MOL0     H  970   5.811   9.962  10.342  0.6344 -0.3337  0.5943
  765MOL0     H  971   5.804   9.801  10.286  1.9649  0.8859 -1.5097
  765MOL0     H  972   5.999   9.734  10.389 -0.8442 -0.8995 -1.5614
  765MOL0     H  973   6.032   9.871  10.271 -2.0389  2.9994  0.1064
  765MOL0     H  974   6.178   9.885  10.479 -0.1494 -0.2131 -0.8929
  765MOL0     H  975   6.041   9.856  10.582  1.9247  0.3694  0.7888
  765MOL0     H  976   5.937  10.061  10.521  0.3164 -3.4743  1.4411
  765MOL0     H  977   6.095  10.108  10.577  1.9940 -1.1798 -0.8369
  765MOL0     H  978   6.155  10.245  10.180  0.7337  0.1392 -1.0643
  765MOL0     H  979   5.721   9.815  10.748  1.4661 -1.3233 -1.0722
  765MOL0     H  980   5.477   9.831  10.839 -3.3586  1.0985 -1.0996
  766MOL0     O  981   7.873  11.321   9.840  0.1245 -0.1991  0.7232
  766MOL0     C  982   7.829  11.265   9.745  0.4512  0.9336  0.6503
  766MOL0     O  983   7.694  11.255   9.720 -0.4196  0.5111  0.0722
  766MOL0     C  984   7.596  11.324   9.787  0.9192 -1.1940  0.1493
  766MOL0     C  985   7.618  11.439   9.858  0.3461 -0.2240  0.5051
  766MOL0     C  986   7.516  11.516   9.911  0.2800 -0.6023 -0.4485
  766MOL0     C  987   7.383  11.462   9.910 -0.6608 -0.5507 -0.1872
  766MOL0     O  988   7.288  11.535   9.984 -0.7024 -0.4349  0.0720
  766MOL0     C  989   7.172  11.459  10.019  0.1996  0.0566 -1.3008
  766MOL0     C  990   7.096  11.546  10.122  1.0404 -0.5048  0.3494
  766MOL0     C  991   6.954  11.495  10.117 -0.4640 -0.4610 -0.7153
  766MOL0     C  992   6.870  11.574  10.218 -0.8090  0.5146 -0.1051
  766MOL0     C  993   6.736  11.505  10.237  0.6900 -0.2644  1.0654
  766MOL0     C  994   6.638  11.596  10.318 -0.2247  0.6634 -0.0602
  766MOL0     C  995   6.491  11.534  10.330  0.6426 -0.6569  0.1832
  766MOL0     C  996   6.393  11.623  10.408  0.5116  0.0538 -0.2929
  766MOL0     N  997   6.251  11.577  10.420  0.3079 -0.2340  0.7641
  766MOL0     C  998   6.223  11.460  10.497 -0.5680  0.8629  0.1337
  766MOL0     C  999   6.106  11.418  10.443 -0.0254  0.2155  0.3788
  766MOL0     C 1000   6.044  11.283  10.465 -0.4087  1.0691 -0.8189
  766MOL0     C 1001   5.891  11.295  10.484  0.5658 -0.3685 -0.0426
  766MOL0     C 1002   5.828  11.173  10.565  0.4362 -0.7634 -0.5264
  766MOL0     C 1003   5.812  11.044  10.475 -0.0638 -0.1131 -0.6040
  766MOL0     O 1004   5.751  10.930  10.540 -0.2548  0.6783  0.3943
  766MOL0     C 1005   5.616  10.941  10.559  0.6337  0.3875 -0.6058
  766MOL0     C 1006   5.555  10.865  10.665  0.1723  0.3560  0.0886
  766MOL0     C 1007   5.423  10.872  10.708 -0.4652 -0.6529  0.4465
  766MOL0     C 1008   5.344  10.963  10.638  0.3091  0.6710 -0.0193
  766MOL0     C 1009   5.205  10.970  10.660  0.1645 -0.0741 -0.2594
  766MOL0     O 1010   5.137  11.087  10.631 -0.0943 -0.6659 -0.1842
  766MOL0     C 1011   5.003  11.113  10.641  0.2090  0.8957  0.7976
  766MOL0     C 1012   4.959  11.243  10.676 -0.4133  0.9047 -0.4950
  766MOL0     C 1013   4.822  11.273  10.688  0.4963  0.1065  0.0538
  766MOL0     C 1014   4.729  11.167  10.657  0.0610 -0.0734 -0.4337
  766MOL0     O 1015   4.597  11.193  10.650  0.0634 -0.2525 -0.5073
  766MOL0     C 1016   4.536  11.302  10.723 -0.9160  0.4676 -0.1316
  766MOL0     C 1017   4.386  11.290  10.725  0.0324  0.4196  0.4590
  766MOL0     C 1018   4.321  11.376  10.617 -0.5854 -0.7621  0.6347
  766MOL0     C 1019   4.169  11.353  10.611 -0.9700 -0.2564 -0.4775
  766MOL0     C 1020   4.095  11.389  10.742 -0.3795  0.0472 -0.0939
  766MOL0     C 1021   3.963  11.318  10.743  0.4064  0.1029 -0.1023
  766MOL0     C 1022   3.874  11.350  10.864  1.2535  1.0910  0.0735
  766MOL0     C 1023   3.731  11.340  10.834 -1.3096  0.3097 -0.0273
  766MOL0    Cl 1024   3.677  11.165  10.818 -0.3450 -0.1208  0.2798
  766MOL0     C 1025   4.774  11.038  10.616 -0.0638  0.3821  0.2081
  766MOL0     C 1026   4.909  11.009  10.609 -0.2413  0.5277  0.6990
  766MOL0     O 1027   5.145  10.869  10.699 -0.5601  0.6784  0.1044
  766MOL0     C 1028   5.397  11.035  10.529 -0.7549  0.3385  0.1899
  766MOL0     C 1029   5.534  11.029  10.488 -0.4852  0.1935 -1.1596
  766MOL0     N 1030   6.057  11.510  10.351  0.1612 -0.0492 -0.2055
  766MOL0     N 1031   6.142  11.609  10.334 -0.6337 -0.5396  0.2570
  766MOL0     C 1032   7.354  11.348   9.827  0.0545 -0.2516  0.1501
  766MOL0     C 1033   7.464  11.287   9.768  0.6673 -0.4352  0.4961
  766MOL0     C 1034   7.930  11.201   9.657 -0.6089  0.0119 -0.2854
  766MOL0     C 1035   7.892  11.164   9.530 -0.1727 -0.7787 -0.0340
  766MOL0     C 1036   7.985  11.103   9.443 -0.6716 -0.5059 -0.4258
  766MOL0     C 1037   8.122  11.093   9.482 -0.6828 -0.3304 -0.7487
  766MOL0     O 1038   8.226  11.054   9.403  0.0837  0.6951  0.4133
  766MOL0     C 1039   8.181  10.999   9.279 -0.8337  0.2586  0.5145
  766MOL0     C 1040   8.313  10.964   9.191 -0.5323  0.9440  0.4036
  766MOL0     C 1041   8.373  10.834   9.250  0.2600 -0.4126  1.1406
  766MOL0     C 1042   8.516  10.805   9.198  0.4514 -1.3684 -0.5089
  766MOL0     C 1043   8.518  10.787   9.048  1.2033 -0.1132  0.0296
  766MOL0     C 1044   8.504  10.772   8.933  0.3688 -0.1936  0.2027
  766MOL0     C 1045   8.162  11.131   9.606 -0.8140  0.6013 -0.5088
  766MOL0     C 1046   8.067  11.181   9.695  0.2652  0.4071 -0.4558
  766MOL0     H 1047   7.717  11.482   9.869  0.3827 -0.5548  1.6163
  766MOL0     H 1048   7.532  11.605   9.972  1.1877 -1.2056  0.2212
  766MOL0     H 1049   7.202  11.375  10.082  1.3961  0.9706 -0.5885
  766MOL0     H 1050   7.116  11.438   9.928  2.3794  0.2471 -2.7798
  766MOL0     H 1051   7.095  11.652  10.096 -0.2550  0.0779  2.5583
  766MOL0     H 1052   7.126  11.537  10.226 -1.1414  0.0875  1.0914
  766MOL0     H 1053   6.956  11.392  10.155  1.8185 -0.3940 -0.5025
  766MOL0     H 1054   6.921  11.503  10.013  2.8031  4.5474 -1.7401
  766MOL0     H 1055   6.927  11.570  10.312 -0.5534  1.7192 -0.1893
  766MOL0     H 1056   6.850  11.677  10.186 -2.1518 -0.5857 -3.1797
  766MOL0     H 1057   6.766  11.411  10.283 -3.5794 -2.0736  0.6830
  766MOL0     H 1058   6.690  11.462  10.147  1.1598  3.4623 -1.1773
  766MOL0     H 1059   6.638  11.696  10.272 -0.2988  1.7283  2.1419
  766MOL0     H 1060   6.684  11.614  10.415  0.8681 -4.0495  0.5201
  766MOL0     H 1061   6.453  11.506  10.231 -2.2497  0.3332  0.9320
  766MOL0     H 1062   6.499  11.444  10.392 -1.7920 -1.0510  0.0112
  766MOL0     H 1063   6.389  11.723  10.363 -0.2937  0.7389  1.2136
  766MOL0     H 1064   6.427  11.639  10.511 -1.9488 -3.1631  1.1884
  766MOL0     H 1065   6.287  11.397  10.558 -1.9098 -0.7959 -0.1065
  766MOL0     H 1066   6.073  11.245  10.564 -1.1432 -1.1977 -1.4184
  766MOL0     H 1067   6.069  11.220  10.379 -0.7755  0.1963 -0.3031
  766MOL0     H 1068   5.835  11.303  10.391 -0.8635 -3.5176  0.4341
  766MOL0     H 1069   5.884  11.389  10.538  4.2331  0.6812 -1.1078
  766MOL0     H 1070   5.891  11.161  10.653 -0.8954  2.6176  1.0483
  766MOL0     H 1071   5.734  11.217  10.598 -0.0526 -1.4511 -0.9622
  766MOL0     H 1072   5.914  11.010  10.456 -0.6913 -1.7694 -1.1816
  766MOL0     H 1073   5.774  11.071  10.376  0.3800  1.5909 -0.3274
  766MOL0     H 1074   5.614  10.793  10.720  2.7588  3.9332  2.4697
  766MOL0     H 1075   5.395  10.812  10.794 -1.3105  0.6375  1.0926
  766MOL0     H 1076   5.039  11.314  10.692 -3.3485  4.3120  0.6201
  766MOL0     H 1077   4.786  11.374  10.701  0.2250  0.1810 -1.1477
  766MOL0     H 1078   4.563  11.400  10.681  0.4668  0.2837  0.2698
  766MOL0     H 1079   4.574  11.297  10.825  3.4525 -1.7861 -1.5749
  766MOL0     H 1080   4.362  11.334  10.822  2.0001  0.7625  0.8275
  766MOL0     H 1081   4.340  11.191  10.713 -1.0288  1.1266 -1.8824
  766MOL0     H 1082   4.359  11.344  10.520 -2.5396 -1.3304  0.0005
  766MOL0     H 1083   4.345  11.482  10.625 -1.9868 -0.4860  1.6783
  766MOL0     H 1084   4.135  11.403  10.520 -0.7369 -1.6974 -1.3929
  766MOL0     H 1085   4.150  11.246  10.599 -2.2042  0.0883 -1.9734
  766MOL0     H 1086   4.072  11.496  10.745  0.8736  0.4269 -2.0036
  766MOL0     H 1087   4.149  11.363  10.833 -0.9501  1.9092  0.8150
  766MOL0     H 1088   3.966  11.210  10.726  0.0885  0.2914 -1.5234
  766MOL0     H 1089   3.912  11.353  10.652 -1.2386 -1.5382  0.1270
  766MOL0     H 1090   3.893  11.290  10.954  1.9222  0.3187 -0.5606
  766MOL0     H 1091   3.888  11.454  10.893 -2.3783  1.5257  0.6483
  766MOL0     H 1092   3.714  11.393  10.740  1.1132  1.4910  0.1302
  766MOL0     H 1093   3.690  11.402  10.914  1.3982  4.0369 -1.2317
  766MOL0     H 1094   4.701  10.961  10.596  0.0892  0.0106  1.0404
  766MOL0     H 1095   4.949  10.916  10.572  1.4102  0.2991  2.8576
  766MOL0     H 1096   5.333  11.098  10.467  2.2224  1.7031 -1.7020
  766MOL0     H 1097   5.574  11.108  10.426  0.6651  0.9427  0.4582
  766MOL0     H 1098   7.255  11.314   9.796  0.5567 -1.1723 -0.4645
  766MOL0     H 1099   7.458  11.216   9.686  4.5897  1.6750 -1.9452
  766MOL0     H 1100   7.789  11.177   9.499 -0.3586 -1.1324  0.4284
  766MOL0     H 1101   7.957  11.096   9.338 -1.4812  0.6326 -0.3026
  766MOL0     H 1102   8.120  11.067   9.218 -0.5476 -1.2493 -1.5538
  766MOL0     H 1103   8.116  10.912   9.287 -0.4336 -0.4170 -2.3662
  766MOL0     H 1104   8.296  10.951   9.083 -0.3529  2.1998  0.2127
  766MOL0     H 1105   8.396  11.032   9.207  1.1122 -1.1365  1.2061
  766MOL0     H 1106   8.306  10.756   9.213 -0.0972  0.4319 -0.0735
  766MOL0     H 1107   8.385  10.848   9.358  1.7790  1.2818  0.8199
  766MOL0     H 1108   8.579  10.887   9.233  0.4988 -2.5640  2.5185
  766MOL0     H 1109   8.555  10.719   9.254 -0.5864 -1.1147  0.6604
  766MOL0     H 1110   8.509  10.756   8.827 -2.4952 -0.4985  0.0589
  766MOL0     H 1111   8.263  11.118   9.642 -1.1196 -0.5453 -0.0182
  766MOL0     H 1112   8.085  11.206   9.799 -0.7234 -6.0045  1.7031
  767MOL0     O 1113   6.760   7.388  10.684  0.3044 -1.0189 -0.3831
  767MOL0     C 1114   6.828   7.348  10.588  0.0746 -0.0081 -0.4434
  767MOL0     O 1115   6.784   7.265  10.487  0.1330  0.8689 -0.6846
  767MOL0     C 1116   6.650   7.229  10.466 -0.2682 -0.0166 -0.6512
  767MOL0     C 1117   6.587   7.148  10.564 -0.3905  0.4851 -0.2133
  767MOL0     C 1118   6.462   7.096  10.530 -0.4384 -0.3084  0.7346
  767MOL0     C 1119   6.397   7.133  10.407  0.3862 -1.0373 -0.2150
  767MOL0     O 1120   6.272   7.096  10.361  0.6506 -0.4222  0.3547
  767MOL0     C 1121   6.165   7.103  10.461  0.3698 -0.0741 -0.2352
  767MOL0     C 1122   6.111   7.245  10.471 -0.8518 -0.2041  0.8956
  767MOL0     C 1123   5.978   7.253  10.548 -0.1745  0.1767  0.0230
  767MOL0     C 1124   5.862   7.191  10.463  0.0319  0.4099  0.1318
  767MOL0     C 1125   5.720   7.214  10.534 -0.5693  1.3453  0.0458
  767MOL0     C 1126   5.604   7.188  10.436 -1.1040 -0.9252 -0.9785
  767MOL0     C 1127   5.482   7.129  10.503  0.4864 -0.1789  0.5044
  767MOL0     C 1128   5.420   7.242  10.597 -0.1722  0.6405 -1.3015
  767MOL0     N 1129   5.280   7.215  10.632  0.2444 -0.0457  0.3212
  767MOL0     C 1130   5.167   7.290  10.611 -0.0392 -0.2040 -0.1198
  767MOL0     C 1131   5.057   7.216  10.645  0.1991  0.0124 -0.0845
  767MOL0     C 1132   4.910   7.243  10.631 -0.0563 -0.1207  0.3618
  767MOL0     C 1133   4.848   7.310  10.751 -0.2000 -0.0580  0.0429
  767MOL0     C 1134   4.853   7.233  10.885 -0.3516  0.4609  0.1391
  767MOL0     C 1135   4.726   7.145  10.904  0.2327 -0.3335 -0.7928
  767MOL0     O 1136   4.613   7.235  10.947  0.2356  0.1134  0.2271
  767MOL0     C 1137   4.488   7.179  10.964  0.7011  0.1882  0.1491
  767MOL0     C 1138   4.387   7.270  11.000 -0.0707 -0.6013 -0.9323
  767MOL0     C 1139   4.263   7.231  11.050  0.3349 -0.4736  0.4728
  767MOL0     C 1140   4.225   7.095  11.054 -0.2031  0.1652  0.0004
  767MOL0     C 1141   4.095   7.064  11.112  0.0545  0.3671  0.3611
  767MOL0     O 1142   4.032   7.157  11.193 -0.3608 -0.5454 -0.1857
  767MOL0     C 1143   3.939   7.111  11.284 -0.3251 -0.3435  1.6093
  767MOL0     C 1144   3.941   7.135  11.415  0.2028  0.0325 -0.2182
  767MOL0     C 1145   3.842   7.099  11.499  0.0600  0.4769  0.7815
  767MOL0     C 1146   3.725   7.046  11.446  0.1434 -0.2303 -0.2905
  767MOL0     O 1147   3.608   7.009  11.515 -0.5499 -0.0848 -0.4126
  767MOL0     C 1148   3.560   7.079  11.629 -0.4903  0.0311  0.2712
  767MOL0     C 1149   3.566   7.009  11.759  0.1134  0.0975 -0.4200
  767MOL0     C 1150   3.453   7.055  11.855  0.3851 -0.1195  0.2703
  767MOL0     C 1151   3.460   6.987  12.001  0.2974  0.0265  0.0122
  767MOL0     C 1152   3.336   7.013  12.099  0.9064 -0.1880 -0.0374
  767MOL0     C 1153   3.197   6.971  12.049  0.0524  0.0133 -0.2142
  767MOL0     C 1154   3.089   6.978  12.158 -0.1428  0.2118  0.3993
  767MOL0     C 1155   2.945   6.947  12.103  0.6568 -0.8370  0.7634
  767MOL0    Cl 1156   2.918   6.781  12.072 -0.2125  0.3560  0.2927
  767MOL0     C 1157   3.714   7.029  11.307  0.3362 -0.8068 -0.3287
  767MOL0     C 1158   3.824   7.055  11.226  0.4308 -0.4314 -0.5743
  767MOL0     O 1159   4.051   6.953  11.092  0.3394  0.0002  0.6221
  767MOL0     C 1160   4.321   6.999  11.017  1.0750 -0.6612  0.6030
  767MOL0     C 1161   4.448   7.039  10.976 -0.2944 -0.4209  0.5089
  767MOL0     N 1162   5.107   7.092  10.676  0.1025 -0.8383  0.0484
  767MOL0     N 1163   5.236   7.094  10.668 -0.5246  0.4748 -0.0365
  767MOL0     C 1164   6.469   7.221  10.315  0.1426  0.2534 -0.1349
  767MOL0     C 1165   6.598   7.265  10.341 -0.1587  0.9851 -0.1476
  767MOL0     C 1166   6.973   7.379  10.604 -0.7696  0.9312  0.3546
  767MOL0     C 1167   7.065   7.311  10.526  0.7382 -0.0099  0.2231
  767MOL0     C 1168   7.203   7.325  10.540  0.0556 -0.2782 -0.1166
  767MOL0     C 1169   7.258   7.409  10.635 -0.9326  0.4355 -0.8559
  767MOL0     O 1170   7.399   7.407  10.644  0.3178 -1.4256  0.4261
  767MOL0     C 1171   7.472   7.494  10.729  0.5033 -0.2751  0.8408
  767MOL0     C 1172   7.614   7.485  10.676 -0.3179 -0.0549  1.0962
  767MOL0     C 1173   7.632   7.564  10.545 -0.5641  0.2572  0.1185
  767MOL0     C 1174   7.766   7.632  10.544  0.5097  0.2525 -0.7637
  767MOL0     C 1175   7.789   7.685  10.406 -0.9023  0.3342  0.2996
  767MOL0     C 1176   7.805   7.720  10.286 -0.6046 -0.0282 -0.2850
  767MOL0     C 1177   7.164   7.484  10.718 -0.2315  0.0019  0.2646
  767MOL0     C 1178   7.029   7.479  10.695  0.1693 -0.1476  0.8520
  767MOL0     H 1179   6.629   7.136  10.664 -0.4098  2.7903  0.1263
  767MOL0     H 1180   6.409   7.033  10.600 -2.0096 -1.0401 -1.0294
  767MOL0     H 1181   6.191   7.057  10.557  1.4984  2.4176  0.7406
  767MOL0     H 1182   6.088   7.037  10.419 -1.1439  2.1294 -1.0945
  767MOL0     H 1183   6.113   7.296  10.374  1.4321 -3.1315 -0.7542
  767MOL0     H 1184   6.180   7.301  10.535  0.9786  0.8495 -1.8424
  767MOL0     H 1185   5.965   7.359  10.570 -1.1425  0.4661 -1.7498
  767MOL0     H 1186   5.994   7.194  10.638 -1.5631 -0.2215  0.0322
  767MOL0     H 1187   5.860   7.234  10.362  0.7653  0.0402 -0.0490
  767MOL0     H 1188   5.875   7.082  10.460 -2.1921  0.0677  1.0136
  767MOL0     H 1189   5.714   7.317  10.570 -1.6385  0.7386  1.6931
  767MOL0     H 1190   5.704   7.147  10.619  2.2417  0.1525 -0.2443
  767MOL0     H 1191   5.646   7.117  10.365  0.6888 -1.9375  0.9915
  767MOL0     H 1192   5.597   7.286  10.387  1.4843 -0.4733 -0.5641
  767MOL0     H 1193   5.411   7.106  10.424  2.5997  0.5904 -1.7254
  767MOL0     H 1194   5.505   7.048  10.574  0.3187  1.5582  2.6443
  767MOL0     H 1195   5.428   7.338  10.545  1.2188  0.3891 -1.6010
  767MOL0     H 1196   5.473   7.240  10.693  2.7872 -1.0325 -2.8003
  767MOL0     H 1197   5.158   7.394  10.580 -1.5759 -0.0818  0.6353
  767MOL0     H 1198   4.856   7.150  10.615  0.0533 -0.1227  0.0045
  767MOL0     H 1199   4.899   7.299  10.538  1.9748 -0.2711 -0.0292
  767MOL0     H 1200   4.743   7.332  10.730 -1.1155 -1.6650  2.4690
  767MOL0     H 1201   4.895   7.407  10.766 -3.2733  1.5660  0.0234
  767MOL0     H 1202   4.943   7.173  10.904  0.9845  1.2933 -2.9807
  767MOL0     H 1203   4.866   7.296  10.973 -0.3448 -1.7987  1.8641
  767MOL0     H 1204   4.734   7.063  10.976  1.0411 -0.4398 -0.9883
  767MOL0     H 1205   4.716   7.095  10.808 -0.7102  0.2891 -1.0256
  767MOL0     H 1206   4.419   7.373  11.007 -2.4069  0.4673 -3.8380
  767MOL0     H 1207   4.208   7.321  11.075  1.0666  0.7035 -1.8474
  767MOL0     H 1208   4.025   7.191  11.454  0.8531  2.1051 -4.0778
  767MOL0     H 1209   3.859   7.117  11.604 -2.0444 -3.1356  1.8942
  767MOL0     H 1210   3.458   7.110  11.602 -0.5179 -0.4699 -0.2145
  767MOL0     H 1211   3.620   7.170  11.636  1.1905 -1.1106  1.4056
  767MOL0     H 1212   3.661   7.033  11.808 -0.8168  0.1181  1.4446
  767MOL0     H 1213   3.557   6.900  11.756 -3.3050  0.2148  0.7031
  767MOL0     H 1214   3.356   7.033  11.810 -0.1477  0.8484  0.9082
  767MOL0     H 1215   3.460   7.163  11.868 -2.2394  0.1186  0.2386
  767MOL0     H 1216   3.474   6.879  11.989 -1.0943 -0.0455 -1.2575
  767MOL0     H 1217   3.548   7.030  12.049  1.0101 -1.3361 -0.0230
  767MOL0     H 1218   3.340   7.116  12.136  0.1273 -0.4111  0.6892
  767MOL0     H 1219   3.364   6.950  12.184 -4.1912  0.0756  2.1898
  767MOL0     H 1220   3.218   6.876  12.000  0.6911  0.4803 -0.8712
  767MOL0     H 1221   3.154   7.031  11.969 -0.1044 -0.1608 -0.2604
  767MOL0     H 1222   3.105   6.902  12.235 -1.1257 -0.4644 -0.0393
  767MOL0     H 1223   3.081   7.070  12.217  0.5715 -0.1209  1.0327
  767MOL0     H 1224   2.925   7.012  12.017  0.5738 -1.0121  0.6510
  767MOL0     H 1225   2.886   6.970  12.192  3.0848  1.4597  1.9441
  767MOL0     H 1226   3.626   6.980  11.266  1.5688 -4.0570  0.5999
  767MOL0     H 1227   3.807   7.040  11.120  0.3238 -1.3183 -0.4367
  767MOL0     H 1228   4.307   6.892  11.031  0.1767 -0.7285 -0.5731
  767MOL0     H 1229   4.532   6.976  10.949 -0.0600  0.4313 -0.8272
  767MOL0     H 1230   6.427   7.245  10.218  0.7617 -3.1039 -1.3652
  767MOL0     H 1231   6.676   7.312  10.281 -0.0930 -0.2487 -1.0723
  767MOL0     H 1232   7.037   7.228  10.462  2.4193  0.6072 -1.4339
  767MOL0     H 1233   7.267   7.278  10.466 -0.1837  0.8182 -1.0506
  767MOL0     H 1234   7.467   7.451  10.829  1.7872 -2.0310  0.2016
  767MOL0     H 1235   7.435   7.596  10.714  1.7706  0.4289  2.3017
  767MOL0     H 1236   7.678   7.540  10.744  1.1751  0.1051 -0.3632
  767MOL0     H 1237   7.648   7.382  10.657  0.1619  0.4506 -1.0421
  767MOL0     H 1238   7.555   7.639  10.524  0.0573  0.9558  0.2741
  767MOL0     H 1239   7.616   7.506  10.453  1.3260  0.8982 -0.6529
  767MOL0     H 1240   7.773   7.704  10.626 -3.3639 -1.5062  1.3898
  767MOL0     H 1241   7.834   7.549  10.565  2.5047  2.5290  2.8190
  767MOL0     H 1242   7.802   7.752  10.184 -0.3997 -0.6111 -0.4716
  767MOL0     H 1243   7.191   7.557  10.793  0.4631  1.3213 -1.2125
  767MOL0     H 1244   6.957   7.533  10.754 -0.4965  0.0441 -0.1097
  768MOL0     O 1245   0.688  10.355   5.162 -0.1467  0.2023  0.2043
  768MOL0     C 1246   0.787  10.414   5.201  0.0361 -1.3618  1.0376
  768MOL0     O 1247   0.840  10.399   5.328 -0.5707  0.3973 -0.1477
  768MOL0     C 1248   0.767  10.315   5.403  1.3887  0.0184 -0.5412
  768MOL0     C 1249   0.790  10.180   5.415 -0.8410  0.3417 -0.0399
  768MOL0     C 1250   0.700  10.095   5.487 -0.1573 -0.7582 -0.3278
  768MOL0     C 1251   0.586  10.142   5.548  0.0447 -0.7674  0.6947
  768MOL0     O 1252   0.512  10.072   5.645  0.9161 -0.0302 -0.4847
  768MOL0     C 1253   0.462   9.943   5.602  0.1725 -0.3022 -0.4311
  768MOL0     C 1254   0.344   9.976   5.514 -1.7052  0.3498 -0.2085
  768MOL0     C 1255   0.222  10.044   5.580  0.5910 -0.2912 -0.5188
  768MOL0     C 1256   0.117  10.082   5.480 -0.5921 -0.3781  0.1773
  768MOL0     C 1257   0.122  10.236   5.451  0.5647  1.2796  0.3967
  768MOL0     C 1258   0.223  10.255   5.339 -0.9549 -0.6621 -0.2740
  768MOL0     C 1259   0.243  10.403   5.287 -0.0709  0.1564 -0.4400
  768MOL0     C 1260   0.188  10.416   5.146  0.3405  0.1175 -0.6802
  768MOL0     N 1261   0.204  10.554   5.090  0.2488 -0.3372 -0.1272
  768MOL0     C 1262   0.313  10.633   5.088 -0.6663 -1.1144  0.1445
  768MOL0     C 1263   0.272  10.751   5.030  0.4187 -0.1475  0.3722
  768MOL0     C 1264   0.346  10.878   4.997 -0.0678  0.1078 -0.1979
  768MOL0     C 1265   0.441  10.869   4.877 -1.0190  0.1684 -0.2141
  768MOL0     C 1266   0.396  10.800   4.757  0.4997 -0.1407  0.6348
  768MOL0     C 1267   0.478  10.808   4.636  0.1040 -0.0033  0.5280
  768MOL0     O 1268   0.467  10.940   4.585 -0.1261 -0.3700  0.2109
  768MOL0     C 1269   0.542  10.982   4.478  0.1733  0.4100 -0.3230
  768MOL0     C 1270   0.584  11.110   4.469 -0.6933  0.5507 -0.6073
  768MOL0     C 1271   0.678  11.151   4.377 -0.1536  0.0579  0.2133
  768MOL0     C 1272   0.718  11.069   4.266 -0.3129  0.2477 -1.0187
  768MOL0     C 1273   0.807  11.117   4.161 -0.3707  0.4877  1.3501
  768MOL0     O 1274   0.819  11.023   4.051 -0.4212 -0.2387 -0.2187
  768MOL0     C 1275   0.913  11.033   3.948 -0.7822  1.3546  0.1982
  768MOL0     C 1276   1.003  11.135   3.924 -1.3163  0.7678 -0.3577
  768MOL0     C 1277   1.115  11.111   3.839 -0.4520  0.3470 -0.2922
  768MOL0     C 1278   1.130  10.997   3.763  0.6826 -0.0199 -0.1305
  768MOL0     O 1279   1.233  11.007   3.680 -0.1851  0.3049 -0.3696
  768MOL0     C 1280   1.291  10.886   3.641  0.9072 -0.1860 -0.7642
  768MOL0     C 1281   1.424  10.930   3.566 -0.7906  0.9063  0.2241
  768MOL0     C 1282   1.526  10.961   3.675 -0.5735 -1.4398  0.2985
  768MOL0     C 1283   1.666  11.003   3.620  0.2565  0.0052  0.0603
  768MOL0     C 1284   1.774  11.022   3.723  0.5949 -0.6511 -0.1434
  768MOL0     C 1285   1.895  11.104   3.657 -0.0692  0.0387 -0.2344
  768MOL0     C 1286   1.971  11.012   3.564  0.1750  0.5856  0.2883
  768MOL0     C 1287   2.099  11.081   3.510  0.2479  1.0044 -0.8630
  768MOL0    Cl 1288   2.186  10.944   3.428 -0.0993 -0.0724  0.3140
  768MOL0     C 1289   1.023  10.902   3.770 -0.1535  0.1097 -0.1059
  768MOL0     C 1290   0.921  10.916   3.868  0.3508  0.7648 -0.0537
  768MOL0     O 1291   0.849  11.235   4.167 -0.8733 -0.1616  0.0506
  768MOL0     C 1292   0.662  10.940   4.271 -0.1518 -0.7291  0.5336
  768MOL0     C 1293   0.587  10.893   4.375  0.3521  0.5912  0.0839
  768MOL0     N 1294   0.141  10.729   4.993 -0.6973 -0.1242  0.8570
  768MOL0     N 1295   0.101  10.610   5.029  0.2383 -1.0453 -0.4552
  768MOL0     C 1296   0.553  10.274   5.528  0.1388 -0.5244 -0.4422
  768MOL0     C 1297   0.646  10.362   5.464  0.0625  0.3582  0.0039
  768MOL0     C 1298   0.848  10.505   5.104 -0.2710 -0.2302  0.8639
  768MOL0     C 1299   0.969  10.568   5.125  0.1751  0.8537  0.6051
  768MOL0     C 1300   1.030  10.641   5.027 -0.5160 -0.4639 -0.0933
  768MOL0     C 1301   0.976  10.656   4.899 -0.1350 -0.5173 -0.5341
  768MOL0     O 1302   1.030  10.748   4.810  0.0897 -0.4084 -0.2183
  768MOL0     C 1303   0.955  10.801   4.701  0.4989 -0.2326 -1.0305
  768MOL0     C 1304   0.855  10.906   4.751 -0.5388 -0.1411 -0.4728
  768MOL0     C 1305   0.915  11.041   4.777  0.3137  0.9646  0.1321
  768MOL0     C 1306   0.815  11.153   4.754 -0.4358 -0.2069 -0.8489
  768MOL0     C 1307   0.843  11.270   4.830  0.3632  0.6343 -0.0918
  768MOL0     C 1308   0.854  11.367   4.907 -0.7687  0.1238  1.1197
  768MOL0     C 1309   0.854  10.593   4.874 -0.5329  1.0080 -0.9344
  768MOL0     C 1310   0.786  10.518   4.973  0.1315 -1.3852 -0.1819
  768MOL0     H 1311   0.878  10.138   5.367  0.1504  0.1178  1.8711
  768MOL0     H 1312   0.722   9.989   5.494  1.5393 -0.4140  0.0217
  768MOL0     H 1313   0.431   9.897   5.696  5.7097 -0.7082  1.5964
  768MOL0     H 1314   0.540   9.885   5.552  1.8822  1.3491  0.2184
  768MOL0     H 1315   0.304   9.885   5.470 -3.5048 -0.0735  2.1226
  768MOL0     H 1316   0.390  10.033   5.432  0.4712 -1.0370 -0.0398
  768MOL0     H 1317   0.257  10.121   5.650 -0.0321  0.8695 -1.4605
  768MOL0     H 1318   0.173   9.964   5.637  2.9344 -1.8064 -0.4785
  768MOL0     H 1319   0.111  10.024   5.387  0.7494  0.9587 -0.8083
  768MOL0     H 1320   0.023  10.062   5.531  0.3389  0.4599  2.3249
  768MOL0     H 1321   0.160  10.290   5.538  0.7125  0.2327  0.9988
  768MOL0     H 1322   0.023  10.267   5.416  0.9446 -2.1514 -4.7431
  768MOL0     H 1323   0.215  10.176   5.264  0.6924 -0.9788 -0.1602
  768MOL0     H 1324   0.315  10.232   5.395 -3.0668 -0.4330  3.6406
  768MOL0     H 1325   0.188  10.469   5.355 -1.6346 -1.7953  0.2989
  768MOL0     H 1326   0.350  10.426   5.278  0.4673 -1.4303  1.3902
  768MOL0     H 1327   0.082  10.391   5.144  0.4878 -0.9893  1.7335
  768MOL0     H 1328   0.251  10.349   5.087 -1.9594 -2.1425 -0.7083
  768MOL0     H 1329   0.409  10.612   5.133  1.9907  2.8481 -2.9500
  768MOL0     H 1330   0.396  10.916   5.087 -0.2563  0.7529 -0.3625
  768MOL0     H 1331   0.278  10.961   4.975  0.7196 -0.1256 -4.0744
  768MOL0     H 1332   0.516  10.798   4.915 -2.7812 -2.2989 -1.1052
  768MOL0     H 1333   0.498  10.955   4.841  1.4101 -1.7643 -1.3583
  768MOL0     H 1334   0.388  10.691   4.770 -0.1909 -0.6358 -2.9388
  768MOL0     H 1335   0.293  10.830   4.735 -0.2980 -4.1036 -2.2306
  768MOL0     H 1336   0.420  10.746   4.567 -0.2423  2.4199 -1.4740
  768MOL0     H 1337   0.579  10.769   4.654 -1.3197 -2.3194  5.3881
  768MOL0     H 1338   0.554  11.168   4.556  0.8154  2.6902 -1.4363
  768MOL0     H 1339   0.710  11.254   4.385 -3.7240  1.3744 -0.3613
  768MOL0     H 1340   0.990  11.231   3.974 -0.7446  0.0169  1.3091
  768MOL0     H 1341   1.187  11.191   3.823 -0.2454 -0.0021 -1.1599
  768MOL0     H 1342   1.223  10.832   3.574  1.1257 -1.2193 -0.1821
  768MOL0     H 1343   1.312  10.813   3.720 -1.7668  2.0834  2.3251
  768MOL0     H 1344   1.407  11.018   3.505  3.0377  2.6466  1.3399
  768MOL0     H 1345   1.454  10.847   3.501 -3.9943 -0.4793  0.3264
  768MOL0     H 1346   1.555  10.866   3.723  1.7863 -1.4069 -0.9122
  768MOL0     H 1347   1.482  11.034   3.742 -1.2106 -0.9183 -0.6773
  768MOL0     H 1348   1.693  10.922   3.552 -1.4725  1.7421 -2.9167
  768MOL0     H 1349   1.654  11.084   3.547 -4.5717  0.0536  0.5870
  768MOL0     H 1350   1.802  10.927   3.771 -1.9072 -0.7667  1.2696
  768MOL0     H 1351   1.734  11.085   3.803  1.8855 -2.0189  1.6378
  768MOL0     H 1352   1.970  11.138   3.730 -1.1008  2.5921 -0.2333
  768MOL0     H 1353   1.857  11.198   3.616  1.3823  1.4567  1.4777
  768MOL0     H 1354   1.996  10.915   3.610  1.7150 -0.2846 -2.1725
  768MOL0     H 1355   1.912  10.993   3.474 -1.5215 -2.3605  1.8663
  768MOL0     H 1356   2.160  11.117   3.593 -1.8301  1.0217  0.7274
  768MOL0     H 1357   2.077  11.153   3.431  2.1484  0.5791 -1.8445
  768MOL0     H 1358   1.034  10.811   3.712  1.9917 -1.4809  2.6089
  768MOL0     H 1359   0.846  10.843   3.897 -0.5671  2.3816  1.8766
  768MOL0     H 1360   0.687  10.878   4.186 -0.5664 -2.2181  1.4625
  768MOL0     H 1361   0.554  10.790   4.367  2.9314 -0.2325 -1.2934
  768MOL0     H 1362   0.465  10.312   5.579  0.5933 -2.0924  1.6448
  768MOL0     H 1363   0.614  10.465   5.458 -4.7107 -0.6353  2.9315
  768MOL0     H 1364   1.029  10.560   5.215  3.2198  0.0298 -1.3450
  768MOL0     H 1365   1.127  10.684   5.050  1.4454 -4.5729  0.3675
  768MOL0     H 1366   0.893  10.727   4.648 -0.8417 -0.9293  1.3771
  768MOL0     H 1367   1.016  10.860   4.632 -0.1407  3.5621  1.3708
  768MOL0     H 1368   0.795  10.923   4.661 -1.6362 -2.0974 -0.1592
  768MOL0     H 1369   0.808  10.862   4.839  0.4730 -0.5685 -0.1298
  768MOL0     H 1370   1.001  11.047   4.709 -1.1471  1.3665 -1.7709
  768MOL0     H 1371   0.963  11.045   4.875  2.9862 -2.9314 -0.7757
  768MOL0     H 1372   0.818  11.181   4.648  4.2925  0.8204 -0.6633
  768MOL0     H 1373   0.715  11.111   4.774 -0.0588 -2.3153 -2.8743
  768MOL0     H 1374   0.861  11.457   4.964 -0.9136 -2.4588  5.7717
  768MOL0     H 1375   0.798  10.600   4.781  2.2201 -2.7582 -3.1512
  768MOL0     H 1376   0.686  10.482   4.954 -1.5025  1.1585  2.5536
  769MOL0     O 1377   5.595   4.427   9.644  0.1115 -0.8860 -0.5200
  769MOL0     C 1378   5.710   4.471   9.675  0.0215 -0.2929 -0.0356
  769MOL0     O 1379   5.747   4.519   9.795 -0.6588 -0.4390  0.3434
  769MOL0     C 1380   5.655   4.509   9.899 -0.1033 -0.0919 -0.0843
  769MOL0     C 1381   5.666   4.414  10.001  0.1840 -0.3813  0.0314
  769MOL0     C 1382   5.580   4.412  10.113  0.1606  0.1473  0.6281
  769MOL0     C 1383   5.470   4.493  10.109  0.4815 -1.3142 -0.7865
  769MOL0     O 1384   5.388   4.483  10.220  0.5778 -0.3657  0.1726
  769MOL0     C 1385   5.342   4.609  10.274 -0.1590  0.0894  0.0882
  769MOL0     C 1386   5.455   4.687  10.331 -0.4688 -0.5926 -1.4217
  769MOL0     C 1387   5.409   4.827  10.376  0.4273  0.1816  0.4337
  769MOL0     C 1388   5.444   4.928  10.271 -0.5621  0.3645 -0.5973
  769MOL0     C 1389   5.378   5.062  10.279 -0.6063  0.6632  0.0778
  769MOL0     C 1390   5.381   5.118  10.418 -0.0283 -0.1093 -0.1365
  769MOL0     C 1391   5.297   5.241  10.454  0.9901 -0.3176  1.0075
  769MOL0     C 1392   5.270   5.255  10.601 -0.1497 -0.2965  0.5628
  769MOL0     N 1393   5.168   5.354  10.649 -0.1421 -0.0165 -0.2186
  769MOL0     C 1394   5.186   5.475  10.699 -0.6936 -0.4170 -0.0968
  769MOL0     C 1395   5.074   5.544  10.683  0.3818 -0.2597 -0.5242
  769MOL0     C 1396   5.026   5.683  10.707  0.0153  0.1282 -0.1131
  769MOL0     C 1397   5.044   5.716  10.850  0.3667 -0.8366 -0.2462
  769MOL0     C 1398   4.988   5.851  10.863  0.1219  0.4920 -0.1913
  769MOL0     C 1399   4.987   5.888  11.015  0.3491  0.7457  1.3300
  769MOL0     O 1400   4.982   6.031  11.013 -0.5079 -0.6461 -0.7932
  769MOL0     C 1401   4.865   6.090  11.056 -0.2419  0.6907 -0.6430
  769MOL0     C 1402   4.816   6.066  11.184 -0.5499 -0.8105  0.8351
  769MOL0     C 1403   4.698   6.111  11.229  1.0671 -0.3569 -0.0761
  769MOL0     C 1404   4.618   6.189  11.145 -0.2404  0.1062 -0.4838
  769MOL0     C 1405   4.487   6.230  11.190  0.1020  0.3537  0.7626
  769MOL0     O 1406   4.455   6.190  11.319  0.2415 -0.0654 -0.1962
  769MOL0     C 1407   4.337   6.222  11.385  0.2126  0.0687 -0.9581
  769MOL0     C 1408   4.329   6.217  11.516  0.4414  0.4532  0.2040
  769MOL0     C 1409   4.214   6.244  11.597  0.5512 -0.1400  1.0696
  769MOL0     C 1410   4.093   6.278  11.527 -0.1143  0.1920 -0.3640
  769MOL0     O 1411   3.988   6.307  11.604 -0.5639  0.6349 -0.3724
  769MOL0     C 1412   3.868   6.321  11.545  1.1868  0.2406 -0.0076
  769MOL0     C 1413   3.747   6.338  11.640 -0.0169  0.2072 -0.6747
  769MOL0     C 1414   3.690   6.208  11.709 -0.2821 -0.2537  0.3630
  769MOL0     C 1415   3.555   6.227  11.788  0.5082 -0.2639 -0.0493
  769MOL0     C 1416   3.466   6.107  11.758  0.4034  0.5075 -1.1675
  769MOL0     C 1417   3.330   6.124  11.816  1.0954 -0.5904 -1.0455
  769MOL0     C 1418   3.324   6.124  11.973 -0.1141 -0.7378  0.0868
  769MOL0     C 1419   3.180   6.148  12.036 -0.4445  0.6318 -0.4999
  769MOL0    Cl 1420   3.134   6.319  12.012 -0.2110  0.2284  0.2282
  769MOL0     C 1421   4.102   6.287  11.385  0.2509 -0.0069  0.5078
  769MOL0     C 1422   4.219   6.251  11.313  0.0896  0.3591 -0.6015
  769MOL0     O 1423   4.415   6.302  11.112 -1.0030 -0.3561  0.4384
  769MOL0     C 1424   4.667   6.220  11.023  0.3779 -0.1123 -0.0911
  769MOL0     C 1425   4.786   6.166  10.974  1.4656 -0.3840  0.1286
  769MOL0     N 1426   4.977   5.457  10.642 -0.4978 -0.2284 -0.2512
  769MOL0     N 1427   5.044   5.347  10.611  0.5328 -0.1339 -0.6051
  769MOL0     C 1428   5.444   4.582  10.001  0.0513  0.5409 -1.0284
  769MOL0     C 1429   5.541   4.597   9.903 -0.7261 -0.2528 -0.4685
  769MOL0     C 1430   5.819   4.457   9.567  0.3577  0.2568 -0.3375
  769MOL0     C 1431   5.786   4.396   9.452 -0.5973 -0.8002 -0.1723
  769MOL0     C 1432   5.883   4.391   9.351  0.6372  0.4187 -0.9143
  769MOL0     C 1433   6.016   4.435   9.369 -0.3537 -0.0134  0.7460
  769MOL0     O 1434   6.116   4.425   9.281  0.0227 -0.1992 -0.2298
  769MOL0     C 1435   6.082   4.394   9.148 -1.0442  0.3419  0.4514
  769MOL0     C 1436   6.208   4.443   9.064  0.5403  0.7546  0.0111
  769MOL0     C 1437   6.235   4.589   9.096 -0.5369  0.0930 -0.6830
  769MOL0     C 1438   6.366   4.637   9.031 -0.2197 -0.0177 -0.1560
  769MOL0     C 1439   6.367   4.639   8.887 -0.8643 -0.5681 -0.3574
  769MOL0     C 1440   6.368   4.642   8.770 -1.1791 -0.0223 -0.6942
  769MOL0     C 1441   6.049   4.489   9.492 -0.3454 -1.0362  0.4939
  769MOL0     C 1442   5.953   4.504   9.592 -0.3398  0.7280 -0.4338
  769MOL0     H 1443   5.745   4.341   9.984  1.8407  0.9437  1.6291
  769MOL0     H 1444   5.582   4.343  10.196 -1.8106 -2.7641 -1.5374
  769MOL0     H 1445   5.266   4.588  10.350 -0.7568 -0.3541 -0.6078
  769MOL0     H 1446   5.302   4.663  10.187  2.2795  3.4110  0.8554
  769MOL0     H 1447   5.530   4.693  10.253  2.8468 -3.2697  1.2443
  769MOL0     H 1448   5.507   4.639  10.414 -2.6646  1.3290  1.2794
  769MOL0     H 1449   5.463   4.869  10.462  0.5031  1.0412 -0.0179
  769MOL0     H 1450   5.301   4.825  10.394  0.2841 -2.2377 -0.4454
  769MOL0     H 1451   5.549   4.947  10.294 -1.4943  1.5790  3.4570
  769MOL0     H 1452   5.434   4.879  10.173 -0.2771  0.8551 -0.8777
  769MOL0     H 1453   5.277   5.058  10.237  0.3443 -0.7328 -2.2883
  769MOL0     H 1454   5.440   5.124  10.213 -1.9944  2.3001  0.2253
  769MOL0     H 1455   5.487   5.138  10.437 -0.6124  0.8054  2.7340
  769MOL0     H 1456   5.348   5.048  10.495  0.6259  0.4917  0.7219
  769MOL0     H 1457   5.333   5.337  10.415 -2.6306  1.3364  1.2917
  769MOL0     H 1458   5.194   5.229  10.417 -0.0235  2.8295  2.4341
  769MOL0     H 1459   5.370   5.277  10.641 -0.5421  0.7217  1.0440
  769MOL0     H 1460   5.231   5.160  10.638  2.0936 -0.4441  2.8299
  769MOL0     H 1461   5.285   5.506  10.731 -0.4266  1.7259 -2.6205
  769MOL0     H 1462   4.919   5.683  10.683 -0.0631 -1.3649  0.1480
  769MOL0     H 1463   5.077   5.750  10.638  0.1293  0.2681  0.1067
  769MOL0     H 1464   5.149   5.714  10.883  0.7875 -2.5199 -1.5425
  769MOL0     H 1465   4.981   5.644  10.902  1.2887 -2.5290 -1.3454
  769MOL0     H 1466   5.058   5.916  10.809  1.3971 -1.4237 -0.9602
  769MOL0     H 1467   4.889   5.842  10.816  0.0087  1.1108 -0.0695
  769MOL0     H 1468   5.069   5.838  11.068 -0.9894 -0.2607  2.5368
  769MOL0     H 1469   4.894   5.841  11.047 -0.4336 -0.4797 -2.2399
  769MOL0     H 1470   4.873   6.010  11.257  1.4575  2.4029  1.9416
  769MOL0     H 1471   4.660   6.078  11.326  2.7189 -2.2298 -0.0050
  769MOL0     H 1472   4.412   6.181  11.576 -0.7570  1.4022  2.5903
  769MOL0     H 1473   4.217   6.223  11.703  0.2175  2.2394  1.5901
  769MOL0     H 1474   3.852   6.242  11.472  0.4404  0.2273  0.1679
  769MOL0     H 1475   3.877   6.406  11.476 -1.8613 -0.2264 -1.1114
  769MOL0     H 1476   3.663   6.367  11.577 -0.7510  0.1963  0.2784
  769MOL0     H 1477   3.769   6.421  11.709  2.0728 -0.7102 -0.1599
  769MOL0     H 1478   3.767   6.178  11.780  0.0484  0.1891  0.1950
  769MOL0     H 1479   3.688   6.131  11.631 -0.2782  0.1080  0.0033
  769MOL0     H 1480   3.582   6.246  11.893  2.8987 -1.9383 -0.2587
  769MOL0     H 1481   3.506   6.321  11.763  0.9092  0.1940  0.8468
  769MOL0     H 1482   3.496   6.019  11.816 -1.5846 -0.0567 -0.9082
  769MOL0     H 1483   3.461   6.090  11.650  3.3914  0.7468 -1.4373
  769MOL0     H 1484   3.261   6.050  11.775  1.0884 -0.2454 -1.6713
  769MOL0     H 1485   3.299   6.219  11.773 -0.1585 -1.0052 -1.0933
  769MOL0     H 1486   3.362   6.024  11.995 -1.1735 -1.6979 -2.1161
  769MOL0     H 1487   3.379   6.210  12.012 -0.9528 -0.9062  1.6722
  769MOL0     H 1488   3.196   6.120  12.141 -3.2621 -2.2681 -0.6994
  769MOL0     H 1489   3.101   6.081  12.001 -3.1878  2.3021  1.9635
  769MOL0     H 1490   4.014   6.312  11.326  0.6019 -1.8689 -0.9218
  769MOL0     H 1491   4.211   6.255  11.205 -2.1438 -0.9523 -0.5514
  769MOL0     H 1492   4.614   6.285  10.954  0.9993 -2.6974 -3.2782
  769MOL0     H 1493   4.829   6.184  10.875  1.1128  0.4261  0.1073
  769MOL0     H 1494   5.349   4.634   9.990 -4.1006 -6.2605 -2.9654
  769MOL0     H 1495   5.532   4.678   9.832 -1.3647  2.7579  2.7614
  769MOL0     H 1496   5.686   4.357   9.439 -1.4092  1.1124  0.1054
  769MOL0     H 1497   5.861   4.319   9.272  2.1229 -0.1411 -0.8517
  769MOL0     H 1498   6.002   4.458   9.109 -1.2137  0.4054  0.8992
  769MOL0     H 1499   6.062   4.287   9.134 -3.2129  1.1203 -4.1281
  769MOL0     H 1500   6.291   4.374   9.080 -1.3956 -2.0802 -1.3100
  769MOL0     H 1501   6.179   4.442   8.958 -2.2103 -0.0692  0.6729
  769MOL0     H 1502   6.252   4.601   9.204 -1.9738 -0.8135 -0.3341
  769MOL0     H 1503   6.156   4.658   9.064  1.1122  1.4855 -1.9703
  769MOL0     H 1504   6.395   4.736   9.068  3.2888 -0.4462 -1.3433
  769MOL0     H 1505   6.450   4.578   9.070 -0.9244  0.2873  1.9881
  769MOL0     H 1506   6.370   4.645   8.663  0.6931  1.7155 -0.6650
  769MOL0     H 1507   6.142   4.538   9.518 -1.5716  1.9178 -0.3062
  769MOL0     H 1508   5.982   4.530   9.693  2.0906 -1.3261 -0.5121
  770MOL0     O 1509  11.253  10.108   4.272  0.0359  0.3647 -0.1739
  770MOL0     C 1510  11.305  10.091   4.384 -0.3311  0.2317  0.1399
  770MOL0     O 1511  11.247  10.052   4.499 -0.0103 -0.2202 -0.0037
  770MOL0     C 1512  11.113  10.056   4.516  0.0442  0.3392 -0.2002
  770MOL0     C 1513  11.068   9.964   4.603  0.0893 -0.1024 -0.1528
  770MOL0     C 1514  10.937   9.956   4.630 -0.6392 -0.5865 -0.6674
  770MOL0     C 1515  10.851  10.041   4.567 -0.0152 -0.1263 -0.5098
  770MOL0     O 1516  10.712  10.039   4.574  0.9501 -0.4713 -0.5089
  770MOL0     C 1517  10.655   9.959   4.678  0.9180  0.1538  0.0836
  770MOL0     C 1518  10.513  10.009   4.713 -0.1657  0.2790  0.2268
  770MOL0     C 1519  10.396  10.010   4.616  0.0349 -0.3284 -0.4794
  770MOL0     C 1520  10.269  10.081   4.667 -0.4061  0.0591 -0.0894
  770MOL0     C 1521  10.139  10.058   4.582 -0.8301 -0.4838 -0.7224
  770MOL0     C 1522  10.034  10.153   4.650 -0.0872  0.1535 -0.0420
  770MOL0     C 1523  10.067  10.302   4.638  0.2184 -0.1202  0.8485
  770MOL0     C 1524   9.941  10.382   4.668 -0.8076 -0.5564 -0.5408
  770MOL0     N 1525   9.976  10.519   4.628  0.4488 -0.3543  1.0200
  770MOL0     C 1526  10.069  10.595   4.702 -0.4881 -0.3084  0.3648
  770MOL0     C 1527  10.044  10.723   4.652 -0.5405  0.2230 -0.4389
  770MOL0     C 1528  10.114  10.856   4.670 -0.2306 -0.1013  0.0294
  770MOL0     C 1529  10.251  10.871   4.598  0.5977 -0.2493 -0.5852
  770MOL0     C 1530  10.222  10.915   4.453 -0.0954 -0.6472  0.1151
  770MOL0     C 1531  10.340  10.881   4.368  0.4292 -0.3152 -0.3856
  770MOL0     O 1532  10.451  10.974   4.405 -0.0167  1.0851  0.2489
  770MOL0     C 1533  10.569  10.972   4.327  1.0180 -0.4145 -1.1544
  770MOL0     C 1534  10.592  10.890   4.216 -0.1508 -0.4314 -0.6878
  770MOL0     C 1535  10.706  10.918   4.143  0.7514 -0.2694  0.4885
  770MOL0     C 1536  10.787  11.028   4.170 -0.7258 -0.2954  0.0884
  770MOL0     C 1537  10.912  11.059   4.088 -1.0042 -0.3542 -0.5862
  770MOL0     O 1538  10.983  11.175   4.109  1.0033  0.4115  0.3502
  770MOL0     C 1539  11.073  11.224   4.019 -0.0486  0.7565 -0.2347
  770MOL0     C 1540  11.089  11.203   3.886  1.0300  0.1014 -1.3424
  770MOL0     C 1541  11.183  11.275   3.811  0.1923  0.0962  0.1720
  770MOL0     C 1542  11.271  11.368   3.878  1.3087  0.5346 -0.2613
  770MOL0     O 1543  11.355  11.453   3.807 -0.0725 -0.0833  0.6884
  770MOL0     C 1544  11.463  11.388   3.740  0.7127  0.0582  1.1350
  770MOL0     C 1545  11.578  11.478   3.742 -0.2817 -0.6374 -0.6017
  770MOL0     C 1546  11.680  11.457   3.635  1.1848  0.1956  0.1809
  770MOL0     C 1547  11.790  11.568   3.642 -0.0680  1.2349 -1.2044
  770MOL0     C 1548  11.907  11.530   3.550 -0.5473  0.3242  0.4529
  770MOL0     C 1549  12.019  11.644   3.545  0.2985  0.6924  0.3778
  770MOL0     C 1550  12.130  11.609   3.445 -0.0047 -0.7561 -0.0254
  770MOL0     C 1551  12.229  11.514   3.503 -1.1015 -0.1800  0.3796
  770MOL0    Cl 1552  12.365  11.625   3.560 -0.0724 -0.0479  0.5070
  770MOL0     C 1553  11.261  11.387   4.018  0.5915 -0.0689 -0.4311
  770MOL0     C 1554  11.161  11.311   4.086 -0.6909 -1.3319 -0.0744
  770MOL0     O 1555  10.935  10.970   3.999 -0.0098 -0.2635 -0.1359
  770MOL0     C 1556  10.773  11.097   4.287 -1.0252  0.2558 -0.1153
  770MOL0     C 1557  10.658  11.076   4.362 -0.4778  0.3551 -0.2466
  770MOL0     N 1558   9.935  10.714   4.561 -0.1471 -0.3563 -0.3997
  770MOL0     N 1559   9.898  10.591   4.544 -0.3261 -0.3029 -0.0421
  770MOL0     C 1560  10.895  10.139   4.488  0.7921 -0.4745  0.5790
  770MOL0     C 1561  11.033  10.146   4.452  0.2342 -0.2146 -0.8476
  770MOL0     C 1562  11.452  10.108   4.382 -0.9168 -0.4327  0.4826
  770MOL0     C 1563  11.530  10.072   4.496  0.3841 -0.6036  0.3802
  770MOL0     C 1564  11.669  10.067   4.487 -0.5484  0.1175  0.8768
  770MOL0     C 1565  11.739  10.096   4.361  0.1369  0.3610  0.1391
  770MOL0     O 1566  11.874  10.103   4.347 -0.3858 -0.2687  0.0473
  770MOL0     C 1567  11.950  10.015   4.436  0.1261  0.4987  1.2073
  770MOL0     C 1568  12.093  10.025   4.392  0.5244 -0.5087 -0.9465
  770MOL0     C 1569  12.123   9.964   4.256  0.0869 -0.2141 -0.0392
  770MOL0     C 1570  12.269   9.982   4.214 -0.3700  0.8812  0.1874
  770MOL0     C 1571  12.363   9.927   4.310  0.1635 -0.7627 -0.6481
  770MOL0     C 1572  12.445   9.874   4.374 -0.9337  0.1448 -0.2732
  770MOL0     C 1573  11.666  10.152   4.254  0.3284 -0.3475  0.6933
  770MOL0     C 1574  11.527  10.158   4.266  0.6203  0.4603 -0.0075
  770MOL0     H 1575  11.141   9.889   4.631  1.3493  0.5358 -1.6131
  770MOL0     H 1576  10.898   9.872   4.687  1.7077 -0.5371  1.1556
  770MOL0     H 1577  10.726   9.968   4.761  1.7095 -2.2286 -0.2642
  770MOL0     H 1578  10.642   9.855   4.650 -0.1866  0.0715  0.8227
  770MOL0     H 1579  10.536  10.110   4.749 -0.4526 -0.4917  2.7792
  770MOL0     H 1580  10.482   9.961   4.807  0.9775 -1.4944 -0.2515
  770MOL0     H 1581  10.367   9.910   4.583 -1.3468  0.7868 -2.8803
  770MOL0     H 1582  10.431  10.062   4.527 -0.5085  1.4153  0.2812
  770MOL0     H 1583  10.242  10.040   4.765 -0.5343 -1.1779 -0.6295
  770MOL0     H 1584  10.283  10.188   4.687 -0.4227  0.0747 -0.1601
  770MOL0     H 1585  10.106   9.954   4.582  2.9744 -1.8431 -1.4151
  770MOL0     H 1586  10.152  10.082   4.476 -1.7177  1.8331 -0.3697
  770MOL0     H 1587  10.025  10.120   4.754 -1.9126  0.0686 -0.2001
  770MOL0     H 1588   9.939  10.136   4.599  0.7105  0.3796 -1.6696
  770MOL0     H 1589  10.143  10.334   4.710  0.5651  1.8074 -0.2982
  770MOL0     H 1590  10.098  10.325   4.536  0.2120 -0.4057  0.7800
  770MOL0     H 1591   9.917  10.375   4.774  2.5281  2.2383  0.5905
  770MOL0     H 1592   9.852  10.348   4.615 -0.3828 -2.4420 -0.1108
  770MOL0     H 1593  10.158  10.568   4.758  1.0694  1.0516 -1.3191
  770MOL0     H 1594  10.129  10.857   4.779  0.4139  2.8531  0.0003
  770MOL0     H 1595  10.041  10.933   4.647 -1.6999 -1.8544 -1.5179
  770MOL0     H 1596  10.309  10.779   4.606 -0.5821 -0.8563  2.3217
  770MOL0     H 1597  10.309  10.950   4.646  1.4188  0.4132 -2.5479
  770MOL0     H 1598  10.135  10.855   4.422 -0.6307 -0.0261  0.3746
  770MOL0     H 1599  10.200  11.021   4.441  2.6912  0.4275  3.2287
  770MOL0     H 1600  10.309  10.902   4.265  1.2185 -0.6742 -0.7031
  770MOL0     H 1601  10.370  10.777   4.376  0.9767 -0.0043  2.4025
  770MOL0     H 1602  10.532  10.801   4.197  0.4691 -0.9501 -0.2574
  770MOL0     H 1603  10.726  10.847   4.063 -1.3336  0.1750 -0.5070
  770MOL0     H 1604  11.018  11.139   3.834  1.1694 -0.7172 -0.5502
  770MOL0     H 1605  11.182  11.273   3.703 -1.0454 -0.1644  0.1665
  770MOL0     H 1606  11.431  11.368   3.637 -0.4156 -1.2514  1.7059
  770MOL0     H 1607  11.491  11.296   3.793 -0.1232 -0.2741  1.0093
  770MOL0     H 1608  11.639  11.474   3.833  2.0758  0.6188 -2.0371
  770MOL0     H 1609  11.535  11.575   3.717 -0.2198 -1.1791 -3.0887
  770MOL0     H 1610  11.633  11.457   3.536 -1.4884 -0.6280  1.3494
  770MOL0     H 1611  11.713  11.353   3.647 -1.2155 -0.5516  0.9039
  770MOL0     H 1612  11.754  11.669   3.619  2.4782  2.8376  1.2396
  770MOL0     H 1613  11.824  11.556   3.745 -2.7077 -2.6563 -0.5656
  770MOL0     H 1614  11.859  11.517   3.452  2.9485  4.2903 -2.1727
  770MOL0     H 1615  11.947  11.430   3.569 -0.1339 -0.4342 -3.4813
  770MOL0     H 1616  12.062  11.659   3.645  0.9962  3.1663 -0.2314
  770MOL0     H 1617  11.973  11.738   3.515 -2.6168 -1.1312 -1.3345
  770MOL0     H 1618  12.093  11.574   3.348 -2.1241 -0.6234  0.6869
  770MOL0     H 1619  12.179  11.703   3.418  0.6774 -0.9982  0.3322
  770MOL0     H 1620  12.288  11.465   3.426 -1.0146  0.7336 -0.1517
  770MOL0     H 1621  12.183  11.446   3.576  0.4322  1.3601  2.9586
  770MOL0     H 1622  11.325  11.457   4.070  1.1550 -0.9853  0.1455
  770MOL0     H 1623  11.153  11.321   4.194  0.5411  0.2590 -0.0998
  770MOL0     H 1624  10.847  11.171   4.313 -1.8787  0.2439  2.6077
  770MOL0     H 1625  10.648  11.137   4.451  1.9827  2.4135 -1.2704
  770MOL0     H 1626  10.826  10.216   4.456  1.2341 -0.2236  0.2150
  770MOL0     H 1627  11.069  10.227   4.389 -0.2557  2.9578  2.5910
  770MOL0     H 1628  11.479  10.043   4.587 -1.5348 -0.4878 -0.6208
  770MOL0     H 1629  11.720  10.038   4.579  0.6950 -0.9218 -0.1070
  770MOL0     H 1630  11.908   9.915   4.426 -0.5395  0.9608 -1.5720
  770MOL0     H 1631  11.948  10.042   4.542  3.0338  0.7552  1.2549
  770MOL0     H 1632  12.121  10.130   4.381 -1.0602 -0.2569 -3.4520
  770MOL0     H 1633  12.153   9.971   4.466 -1.2402 -1.4037 -0.0948
  770MOL0     H 1634  12.066  10.024   4.184 -1.8710 -0.1708  1.4824
  770MOL0     H 1635  12.082   9.863   4.259  1.6547 -0.8582  0.3576
  770MOL0     H 1636  12.298   9.950   4.113 -0.8083  1.4720 -0.1272
  770MOL0     H 1637  12.285  10.090   4.217  1.7728  0.6431 -0.8602
  770MOL0     H 1638  12.526   9.840   4.436  0.8165  0.6770 -2.1691
  770MOL0     H 1639  11.723  10.185   4.167  2.3570 -1.4673  1.5292
  770MOL0     H 1640  11.466  10.197   4.185  0.1295 -0.1995  0.0341
  771MOL0     O 1641   6.891   9.305  11.086 -0.1980  0.1905 -0.7242
  771MOL0     C 1642   7.000   9.252  11.056  0.4590  0.1190 -1.0632
  771MOL0     O 1643   7.015   9.132  10.989 -0.0587 -0.0243 -0.1089
  771MOL0     C 1644   6.895   9.056  10.986 -0.0829  0.2534 -0.8357
  771MOL0     C 1645   6.814   9.043  10.870 -0.1275 -0.1911 -0.6629
  771MOL0     C 1646   6.716   8.953  10.857  0.4436  0.2950  0.3301
  771MOL0     C 1647   6.672   8.871  10.962  0.3847 -0.2227 -0.6576
  771MOL0     O 1648   6.566   8.776  10.953  0.0998  0.4588 -0.0589
  771MOL0     C 1649   6.446   8.841  10.925  0.7094  0.0484  0.1193
  771MOL0     C 1650   6.381   8.872  11.063  1.0879  0.0956 -0.2545
  771MOL0     C 1651   6.240   8.900  11.037  0.6264  0.5615  0.1025
  771MOL0     C 1652   6.164   8.922  11.173  0.0046 -0.5486 -0.3514
  771MOL0     C 1653   6.154   8.806  11.282 -0.2949 -0.1924  0.1686
  771MOL0     C 1654   6.102   8.670  11.243 -0.2723 -0.2137  0.2019
  771MOL0     C 1655   6.118   8.570  11.357  0.0337 -0.0507  0.6263
  771MOL0     C 1656   6.083   8.423  11.345  0.1445  0.2515  0.0625
  771MOL0     N 1657   6.138   8.355  11.230 -0.2666 -0.9272  0.1592
  771MOL0     C 1658   6.280   8.360  11.206 -0.2367  0.1950  0.7904
  771MOL0     C 1659   6.299   8.347  11.074  0.4214 -0.1767 -0.2665
  771MOL0     C 1660   6.426   8.311  11.005  0.7810 -0.5441 -0.2847
  771MOL0     C 1661   6.518   8.427  10.985 -0.0726  0.0144 -0.2789
  771MOL0     C 1662   6.651   8.384  10.919 -0.3150 -0.1547 -0.2935
  771MOL0     C 1663   6.760   8.492  10.933  1.5283 -0.8930  0.2583
  771MOL0     O 1664   6.879   8.462  10.868 -0.0420 -0.3306  0.5303
  771MOL0     C 1665   6.969   8.561  10.832 -0.1429  0.3487 -0.6821
  771MOL0     C 1666   7.043   8.540  10.723 -0.4491 -0.6420  0.1776
  771MOL0     C 1667   7.145   8.631  10.688 -0.1142 -0.4968  0.3276
  771MOL0     C 1668   7.171   8.738  10.757  0.3281 -0.0828  0.1203
  771MOL0     C 1669   7.291   8.823  10.736  0.0166 -0.1849 -0.3111
  771MOL0     O 1670   7.294   8.938  10.800  0.0705  0.0676  0.3952
  771MOL0     C 1671   7.410   9.005  10.809  0.6646 -0.2335  0.0882
  771MOL0     C 1672   7.407   9.144  10.814 -1.1037  0.6644 -0.3980
  771MOL0     C 1673   7.531   9.215  10.811 -0.2779  0.5095 -0.4106
  771MOL0     C 1674   7.657   9.153  10.824 -0.7786  0.1046  0.4852
  771MOL0     O 1675   7.765   9.235  10.819  0.1833  0.2873  0.3087
  771MOL0     C 1676   7.892   9.174  10.800  0.9721 -0.8091 -0.2414
  771MOL0     C 1677   8.008   9.282  10.778 -0.3380  0.9170 -0.1587
  771MOL0     C 1678   8.121   9.252  10.872 -0.6645 -0.2088 -0.0460
  771MOL0     C 1679   8.231   9.357  10.839 -0.0433 -0.3373  0.1922
  771MOL0     C 1680   8.356   9.337  10.922 -1.1679 -0.5022 -0.6121
  771MOL0     C 1681   8.461   9.452  10.909 -0.6119 -0.3050  0.5682
  771MOL0     C 1682   8.605   9.415  10.931 -0.2277  0.7993  0.3883
  771MOL0     C 1683   8.684   9.538  10.940 -0.2654 -0.1845 -0.8775
  771MOL0    Cl 1684   8.853   9.500  10.931 -0.4098 -0.1255  0.2927
  771MOL0     C 1685   7.659   9.015  10.843 -0.2647 -0.1224 -0.0961
  771MOL0     C 1686   7.536   8.937  10.836 -0.8736  0.8785  0.6207
  771MOL0     O 1687   7.380   8.790  10.657  0.1534  0.4698 -0.8379
  771MOL0     C 1688   7.084   8.767  10.872 -0.3452  0.1603 -0.0872
  771MOL0     C 1689   6.981   8.676  10.904 -0.2396 -0.1236  0.0187
  771MOL0     N 1690   6.173   8.332  11.021 -0.2193  0.3337 -0.0311
  771MOL0     N 1691   6.075   8.324  11.113 -0.0695  0.1796  0.5277
  771MOL0     C 1692   6.749   8.873  11.078  0.6399 -0.5219  0.1230
  771MOL0     C 1693   6.857   8.969  11.092  0.1080  0.1884  0.3772
  771MOL0     C 1694   7.122   9.327  11.089  0.2854 -0.5328  0.4406
  771MOL0     C 1695   7.108   9.462  11.116  0.3764 -0.6385 -0.3055
  771MOL0     C 1696   7.213   9.546  11.149  0.0609 -0.4211  0.4704
  771MOL0     C 1697   7.346   9.503  11.142  1.2214 -1.0573 -0.2767
  771MOL0     O 1698   7.450   9.596  11.164  0.9386  0.5463 -0.0997
  771MOL0     C 1699   7.583   9.559  11.167 -0.0453 -0.0783  0.1912
  771MOL0     C 1700   7.637   9.524  11.024 -0.5568  0.8026  1.1011
  771MOL0     C 1701   7.787   9.553  11.031 -0.1724  0.2965  0.8387
  771MOL0     C 1702   7.879   9.487  11.138 -0.3916  0.5958 -0.3724
  771MOL0     C 1703   8.011   9.548  11.122 -0.1873 -0.4202 -0.2535
  771MOL0     C 1704   8.104   9.620  11.109  0.4774 -0.0066 -0.0028
  771MOL0     C 1705   7.366   9.367  11.101  0.3419  0.2467  0.0860
  771MOL0     C 1706   7.255   9.284  11.084  0.2430  1.1637  0.8596
  771MOL0     H 1707   6.855   9.104  10.790 -0.3794 -0.2720 -0.8525
  771MOL0     H 1708   6.658   8.950  10.764 -1.8172  1.1026  1.6204
  771MOL0     H 1709   6.384   8.772  10.868  0.7832 -0.8303  1.0647
  771MOL0     H 1710   6.452   8.935  10.870 -0.7285  1.3757  2.0672
  771MOL0     H 1711   6.428   8.963  11.102  1.6200 -0.5334  0.6345
  771MOL0     H 1712   6.395   8.786  11.130  0.7526  0.6563  0.5533
  771MOL0     H 1713   6.187   8.815  10.992 -0.0404  0.7232  0.5620
  771MOL0     H 1714   6.256   8.989  10.976 -0.6748  0.3101 -0.6458
  771MOL0     H 1715   6.211   9.011  11.215 -1.2119  0.2059 -0.5604
  771MOL0     H 1716   6.063   8.928  11.133  0.1953  1.1755 -0.6691
  771MOL0     H 1717   6.081   8.840  11.357 -0.9739  0.0687 -0.6013
  771MOL0     H 1718   6.253   8.797  11.328  0.5033  2.8326 -0.7134
  771MOL0     H 1719   6.160   8.643  11.154 -2.1190  2.8382 -2.1414
  771MOL0     H 1720   5.998   8.687  11.212 -0.1806 -1.4875 -0.8709
  771MOL0     H 1721   6.225   8.567  11.379  0.3438  2.9076  0.0555
  771MOL0     H 1722   6.066   8.607  11.447 -3.1913  2.2633 -1.9177
  771MOL0     H 1723   5.974   8.415  11.334 -0.2692  1.2868  2.5787
  771MOL0     H 1724   6.114   8.372  11.437  1.4569  2.1919  0.7605
  771MOL0     H 1725   6.357   8.390  11.278  0.3100  0.0707  0.2677
  771MOL0     H 1726   6.412   8.272  10.904  5.1627 -1.1162 -0.8508
  771MOL0     H 1727   6.481   8.235  11.061  1.0536 -1.6055 -1.9514
  771MOL0     H 1728   6.531   8.482  11.079  1.8485 -3.4760  1.7451
  771MOL0     H 1729   6.471   8.496  10.915  1.7234  2.4486  0.7906
  771MOL0     H 1730   6.681   8.292  10.971  1.1886  0.4001 -0.1347
  771MOL0     H 1731   6.615   8.360  10.819 -3.4825  3.2983 -0.1878
  771MOL0     H 1732   6.783   8.529  11.034  2.2099  3.1156 -1.1515
  771MOL0     H 1733   6.725   8.580  10.878  4.6074  0.6026  0.4881
  771MOL0     H 1734   7.020   8.462  10.651  3.7798  0.3353 -2.6644
  771MOL0     H 1735   7.185   8.616  10.588 -1.8301  1.4712 -0.7209
  771MOL0     H 1736   7.313   9.199  10.818 -1.8690 -0.6181  0.0957
  771MOL0     H 1737   7.538   9.322  10.825 -2.0276  0.4915  0.9586
  771MOL0     H 1738   7.898   9.109  10.712 -2.0041  1.1499 -2.0530
  771MOL0     H 1739   7.923   9.128  10.895  1.4765  1.3750  0.7237
  771MOL0     H 1740   7.968   9.384  10.787  0.7009  1.4925 -1.7717
  771MOL0     H 1741   8.044   9.281  10.675 -2.1608  1.1300 -0.8311
  771MOL0     H 1742   8.166   9.153  10.857  0.3921  0.1570  0.6054
  771MOL0     H 1743   8.082   9.251  10.975 -2.0380  3.2277 -0.4009
  771MOL0     H 1744   8.243   9.363  10.730  0.3592  1.0713  0.2968
  771MOL0     H 1745   8.193   9.457  10.860  0.9738  0.0176  0.3591
  771MOL0     H 1746   8.400   9.247  10.878 -0.0265  0.0086 -0.5448
  771MOL0     H 1747   8.331   9.337  11.028 -0.8003  2.6593 -0.4116
  771MOL0     H 1748   8.440   9.525  10.988 -0.2678 -1.5031  1.8070
  771MOL0     H 1749   8.453   9.497  10.810 -1.7191 -1.4252  0.1292
  771MOL0     H 1750   8.612   9.358  11.024  1.3758  2.9084  1.6474
  771MOL0     H 1751   8.640   9.348  10.852 -1.9963 -1.4565  1.3940
  771MOL0     H 1752   8.663   9.595  11.031  3.0038  3.1385 -1.9712
  771MOL0     H 1753   8.658   9.592  10.849  0.5134 -0.3437 -1.2032
  771MOL0     H 1754   7.758   8.972  10.856 -0.3446 -0.0560  0.7625
  771MOL0     H 1755   7.547   8.830  10.848  4.2270  1.1672  0.4169
  771MOL0     H 1756   7.092   8.860  10.928  1.7992 -0.2217  0.3448
  771MOL0     H 1757   6.919   8.717  10.983  0.8201  1.1212  0.2381
  771MOL0     H 1758   6.711   8.809  11.156 -0.1496  0.7653  0.8258
  771MOL0     H 1759   6.917   8.972  11.183 -0.6937 -0.4164  0.9483
  771MOL0     H 1760   7.011   9.511  11.107  0.1086 -1.0846  0.1342
  771MOL0     H 1761   7.220   9.653  11.166  0.5246 -0.0675 -1.5686
  771MOL0     H 1762   7.592   9.475  11.237 -3.4945 -0.8433 -0.1157
  771MOL0     H 1763   7.648   9.637  11.207  2.4265 -0.3974 -2.7944
  771MOL0     H 1764   7.631   9.418  10.999 -0.7562  1.2495 -0.9749
  771MOL0     H 1765   7.583   9.579  10.945 -1.3012 -1.8178 -0.3329
  771MOL0     H 1766   7.795   9.659  11.057  4.7131 -0.0365  1.8157
  771MOL0     H 1767   7.828   9.522  10.935  0.7376 -0.6257  1.4901
  771MOL0     H 1768   7.841   9.507  11.238  1.3716  1.7013  0.1169
  771MOL0     H 1769   7.889   9.378  11.128 -0.1271  0.2139  3.0606
  771MOL0     H 1770   8.186   9.688  11.101  0.2678 -0.0061 -4.1360
  771MOL0     H 1771   7.464   9.321  11.091  0.2552  0.4155 -1.8235
  771MOL0     H 1772   7.272   9.179  11.063  3.5646  1.6419  0.5898
  772MOL0     O 1773   4.445   1.949   1.976  0.6782 -0.0989  0.1413
  772MOL0     C 1774   4.386   1.896   2.077 -0.5960 -0.1751  0.0090
  772MOL0     O 1775   4.438   1.878   2.204 -1.1404 -0.5226  0.5204
  772MOL0     C 1776   4.565   1.924   2.245 -0.2109  0.1556 -0.3930
  772MOL0     C 1777   4.662   1.981   2.167  0.0217 -0.2478 -0.1266
  772MOL0     C 1778   4.782   2.017   2.224  0.0909  0.2897  1.1991
  772MOL0     C 1779   4.815   1.987   2.356  0.1569 -1.1348  0.2856
  772MOL0     O 1780   4.933   2.047   2.396  0.6982  0.2365 -0.1455
  772MOL0     C 1781   4.985   2.019   2.523 -0.2329 -0.0877 -0.2028
  772MOL0     C 1782   5.125   2.072   2.540 -0.2074  0.2462 -0.1196
  772MOL0     C 1783   5.171   2.050   2.680  0.0641  0.6603  0.0146
  772MOL0     C 1784   5.312   2.100   2.688  0.0424 -0.1721 -0.1299
  772MOL0     C 1785   5.398   2.039   2.802  0.5268 -0.1103 -0.5015
  772MOL0     C 1786   5.533   2.099   2.809 -0.1008  0.5747  0.3289
  772MOL0     C 1787   5.626   2.040   2.697 -0.4257 -1.2057 -0.0398
  772MOL0     C 1788   5.771   2.091   2.712  0.1969 -0.4446  0.5998
  772MOL0     N 1789   5.801   2.236   2.720  0.0556 -0.1274  0.3674
  772MOL0     C 1790   5.819   2.315   2.607  0.0923 -0.5732 -0.4416
  772MOL0     C 1791   5.817   2.444   2.661  0.4312 -0.4608 -0.0535
  772MOL0     C 1792   5.778   2.579   2.590  0.4842 -0.3584  0.1973
  772MOL0     C 1793   5.636   2.575   2.533 -0.2488  0.2029  0.6458
  772MOL0     C 1794   5.543   2.588   2.653  0.5121 -0.1341 -0.1084
  772MOL0     C 1795   5.405   2.652   2.607  0.2051  0.2364 -0.4416
  772MOL0     O 1796   5.327   2.543   2.553 -0.1284 -0.2354 -0.2653
  772MOL0     C 1797   5.201   2.566   2.516  0.5694  0.4558 -0.5574
  772MOL0     C 1798   5.145   2.689   2.496  0.2288 -0.5130 -1.3581
  772MOL0     C 1799   5.013   2.697   2.444 -0.2727 -0.7273 -0.4222
  772MOL0     C 1800   4.935   2.587   2.411 -0.5100 -0.1520  0.5535
  772MOL0     C 1801   4.789   2.602   2.373  0.0975 -0.3078  0.0668
  772MOL0     O 1802   4.735   2.478   2.318  0.5445 -0.7420 -0.5411
  772MOL0     C 1803   4.598   2.453   2.293 -0.9054  0.0273 -0.1087
  772MOL0     C 1804   4.558   2.317   2.300 -0.1896 -1.1792  0.0218
  772MOL0     C 1805   4.416   2.274   2.291 -0.3364 -0.0381  0.1268
  772MOL0     C 1806   4.317   2.373   2.273  0.8746  0.0504 -0.1645
  772MOL0     O 1807   4.187   2.343   2.248 -0.6044  0.3672 -0.2220
  772MOL0     C 1808   4.145   2.204   2.225  0.0969  0.9820  0.0391
  772MOL0     C 1809   3.997   2.197   2.180  0.4118 -0.3079 -0.1192
  772MOL0     C 1810   3.900   2.277   2.271 -0.5237 -0.1090 -0.7675
  772MOL0     C 1811   3.763   2.262   2.198 -0.1604 -1.1413  0.6105
  772MOL0     C 1812   3.637   2.331   2.268 -0.3179 -0.4012  0.8643
  772MOL0     C 1813   3.669   2.479   2.304  1.8208  0.0921 -1.5771
  772MOL0     C 1814   3.548   2.545   2.377 -0.1913 -0.9287  0.4339
  772MOL0     C 1815   3.610   2.658   2.469 -0.2767  0.5393 -0.4483
  772MOL0    Cl 1816   3.710   2.772   2.371 -0.1983 -0.2444  0.1484
  772MOL0     C 1817   4.355   2.502   2.267  0.0880 -0.8853 -0.9257
  772MOL0     C 1818   4.492   2.540   2.281  0.3528 -1.1836 -0.3211
  772MOL0     O 1819   4.726   2.700   2.397  0.1643  0.2587  0.2480
  772MOL0     C 1820   5.001   2.456   2.421 -0.3911  0.5940 -0.2263
  772MOL0     C 1821   5.130   2.452   2.484 -0.2554 -0.3063  0.0442
  772MOL0     N 1822   5.817   2.434   2.802 -0.2253  0.0171 -0.2211
  772MOL0     N 1823   5.818   2.307   2.837 -0.1197 -0.0091  0.5815
  772MOL0     C 1824   4.730   1.918   2.431  0.1478 -0.2163  0.2322
  772MOL0     C 1825   4.603   1.884   2.377  0.1498  0.8310 -0.0461
  772MOL0     C 1826   4.251   1.838   2.060 -0.3117 -0.4351 -0.4910
  772MOL0     C 1827   4.174   1.879   1.945 -0.2668 -0.4562  0.3997
  772MOL0     C 1828   4.043   1.831   1.931 -0.2885 -0.2106  0.3716
  772MOL0     C 1829   3.988   1.753   2.037  1.4706 -0.1811  0.4238
  772MOL0     O 1830   3.854   1.719   2.048 -0.5579 -0.5704  0.9898
  772MOL0     C 1831   3.760   1.805   1.974 -0.8280  0.1436  0.5649
  772MOL0     C 1832   3.608   1.765   1.993  0.3111  0.5814 -0.1071
  772MOL0     C 1833   3.562   1.817   2.121 -0.6574 -0.7888  0.5234
  772MOL0     C 1834   3.429   1.756   2.153  0.6138 -0.4281 -0.2356
  772MOL0     C 1835   3.374   1.813   2.273  0.4817  0.0718 -0.0118
  772MOL0     C 1836   3.338   1.846   2.382  0.3751 -1.1130 -0.4837
  772MOL0     C 1837   4.062   1.715   2.147 -0.5709  1.2081  0.4695
  772MOL0     C 1838   4.196   1.759   2.160  0.3991  0.2672 -0.5234
  772MOL0     H 1839   4.642   2.013   2.065 -0.9441 -2.3952 -0.6740
  772MOL0     H 1840   4.860   2.069   2.168 -1.2202 -0.1829 -1.1991
  772MOL0     H 1841   5.002   1.911   2.530  0.6410  0.1439  2.3033
  772MOL0     H 1842   4.911   2.052   2.596  0.7545  2.9065 -0.4026
  772MOL0     H 1843   5.138   2.179   2.523  4.0218  0.0386  0.7322
  772MOL0     H 1844   5.187   2.012   2.474  2.7961 -0.4958  3.0542
  772MOL0     H 1845   5.165   1.943   2.701 -1.7513  0.2530 -2.2197
  772MOL0     H 1846   5.113   2.097   2.759 -1.0935 -0.2853 -0.2500
  772MOL0     H 1847   5.362   2.058   2.600 -0.8794 -4.0535  1.0209
  772MOL0     H 1848   5.313   2.210   2.691 -0.2942 -0.1709 -0.0367
  772MOL0     H 1849   5.395   1.933   2.779 -0.1476 -0.2922  0.3481
  772MOL0     H 1850   5.360   2.048   2.904  1.5309 -0.2884 -0.1035
  772MOL0     H 1851   5.579   2.067   2.904 -0.4046 -0.9991 -0.0131
  772MOL0     H 1852   5.531   2.208   2.809 -0.1619  0.5777  0.7788
  772MOL0     H 1853   5.638   1.931   2.701 -2.2320 -1.3736  2.0082
  772MOL0     H 1854   5.584   2.076   2.602  3.1352  3.7086 -0.1504
  772MOL0     H 1855   5.843   2.041   2.646 -0.7110  1.9380 -2.4678
  772MOL0     H 1856   5.786   2.049   2.811 -0.1127 -2.3577 -0.1310
  772MOL0     H 1857   5.808   2.287   2.503  1.6129  1.4788 -1.2336
  772MOL0     H 1858   5.844   2.598   2.505 -0.8336  2.9607 -0.2315
  772MOL0     H 1859   5.795   2.670   2.648 -0.7555  1.8394 -2.6311
  772MOL0     H 1860   5.611   2.480   2.486 -0.7717  0.4416  0.4385
  772MOL0     H 1861   5.611   2.660   2.469 -1.6175 -0.8664 -0.2854
  772MOL0     H 1862   5.520   2.491   2.696  1.7370 -1.7714 -2.8668
  772MOL0     H 1863   5.587   2.643   2.737  1.4711 -0.6443 -0.2607
  772MOL0     H 1864   5.415   2.732   2.534 -1.8312  1.1999  0.2555
  772MOL0     H 1865   5.348   2.707   2.682 -3.2721 -0.3116 -2.4671
  772MOL0     H 1866   5.196   2.780   2.523 -0.0506 -1.0692  1.3499
  772MOL0     H 1867   4.974   2.796   2.423 -1.6296 -1.0244  0.5608
  772MOL0     H 1868   4.638   2.245   2.307  0.3498 -0.6398 -0.4496
  772MOL0     H 1869   4.394   2.168   2.302 -0.6755 -0.1036 -1.0139
  772MOL0     H 1870   4.163   2.146   2.316 -0.9394  2.2580  1.1159
  772MOL0     H 1871   4.210   2.155   2.153  1.2258  0.9592  1.0359
  772MOL0     H 1872   3.966   2.092   2.178  0.9738 -0.4849  0.2778
  772MOL0     H 1873   3.993   2.243   2.081 -2.0856 -2.6769 -1.2544
  772MOL0     H 1874   3.927   2.382   2.285  1.6798 -0.8557  1.2513
  772MOL0     H 1875   3.886   2.230   2.369 -2.0932  2.3857  0.3150
  772MOL0     H 1876   3.788   2.300   2.099  2.2724 -1.2457  1.1199
  772MOL0     H 1877   3.732   2.158   2.184  0.1263 -1.0356 -0.9177
  772MOL0     H 1878   3.611   2.289   2.366 -1.1971 -0.0065  0.8033
  772MOL0     H 1879   3.548   2.317   2.207  1.0263 -1.9500 -0.8345
  772MOL0     H 1880   3.683   2.541   2.215 -0.1422  3.5281  0.2851
  772MOL0     H 1881   3.754   2.481   2.374 -0.7368 -1.3228  1.8432
  772MOL0     H 1882   3.479   2.579   2.299  0.5346 -0.0466  0.1582
  772MOL0     H 1883   3.493   2.475   2.440  0.0188 -0.7349  0.8432
  772MOL0     H 1884   3.666   2.604   2.546 -2.1761 -2.7817 -1.2554
  772MOL0     H 1885   3.537   2.722   2.519  3.3003  1.7578  3.9354
  772MOL0     H 1886   4.288   2.587   2.258 -0.7670 -0.9938  2.7806
  772MOL0     H 1887   4.503   2.647   2.266 -1.0796 -1.1857 -1.6793
  772MOL0     H 1888   4.949   2.365   2.392  0.0900  1.3236 -3.9758
  772MOL0     H 1889   5.188   2.361   2.501  1.2010 -0.0180 -2.6925
  772MOL0     H 1890   4.750   1.896   2.535  0.8886  0.2386  0.1914
  772MOL0     H 1891   4.518   1.841   2.429  1.2410 -0.1592  0.9796
  772MOL0     H 1892   4.205   1.945   1.865 -0.7808  1.2831  1.5763
  772MOL0     H 1893   3.979   1.871   1.853 -1.5085  0.7493  1.8151
  772MOL0     H 1894   3.779   1.781   1.869 -3.0537  0.7121 -0.0142
  772MOL0     H 1895   3.772   1.912   1.992 -1.6119  0.1626  1.0120
  772MOL0     H 1896   3.543   1.806   1.916  2.0182  0.4688 -1.6749
  772MOL0     H 1897   3.595   1.659   1.968  3.0617  0.7070 -2.5342
  772MOL0     H 1898   3.560   1.926   2.106  1.2961 -0.7956  0.0400
  772MOL0     H 1899   3.640   1.795   2.194 -0.6787  0.6526  1.0184
  772MOL0     H 1900   3.356   1.765   2.072 -0.7674  0.6065  1.0760
  772MOL0     H 1901   3.452   1.652   2.175  1.9377  0.0709  0.8545
  772MOL0     H 1902   3.310   1.893   2.474 -1.0844  0.8187 -1.8058
  772MOL0     H 1903   4.014   1.660   2.227  1.2388 -0.4480  0.4784
  772MOL0     H 1904   4.263   1.737   2.243  1.6278  1.4400 -1.1700
  773MOL0     O 1905  11.016   8.043   1.277  0.0363 -0.8173  0.6899
  773MOL0     C 1906  11.093   8.026   1.179  0.2547 -0.2113 -0.0563
  773MOL0     O 1907  11.069   7.935   1.067  0.5936 -0.3359  0.5945
  773MOL0     C 1908  10.944   7.876   1.052 -0.1211 -0.1865  0.5199
  773MOL0     C 1909  10.820   7.922   1.104  0.6829 -1.0848  0.6031
  773MOL0     C 1910  10.709   7.842   1.091  0.3081 -0.0276  0.5368
  773MOL0     C 1911  10.711   7.720   1.017 -0.8710 -0.3909 -0.4567
  773MOL0     O 1912  10.604   7.644   0.999 -0.4005  0.2711  0.1024
  773MOL0     C 1913  10.617   7.502   1.026 -0.2430 -0.3378  0.2784
  773MOL0     C 1914  10.503   7.428   0.970 -0.4600 -0.1968 -0.3681
  773MOL0     C 1915  10.369   7.503   0.986 -0.3420  0.0009 -0.4519
  773MOL0     C 1916  10.262   7.425   0.912  0.6668 -0.4251 -0.3106
  773MOL0     C 1917  10.131   7.488   0.943 -0.5254  0.0037 -0.5530
  773MOL0     C 1918  10.007   7.422   0.889  0.2759  0.4333  0.2288
  773MOL0     C 1919   9.943   7.317   0.981 -0.3217  0.1028 -0.5316
  773MOL0     C 1920   9.825   7.243   0.919  0.8229 -0.5734  0.3611
  773MOL0     N 1921   9.759   7.143   1.005 -0.4400  0.8393 -0.4702
  773MOL0     C 1922   9.833   7.048   1.070 -0.0042  0.3801 -0.8531
  773MOL0     C 1923   9.736   6.987   1.141 -0.0069  0.2337  0.0021
  773MOL0     C 1924   9.744   6.870   1.235  0.2235 -0.5158  0.0143
  773MOL0     C 1925   9.822   6.758   1.157 -0.3974 -0.7290 -0.1432
  773MOL0     C 1926   9.820   6.625   1.229  1.2965 -0.4202  0.0542
  773MOL0     C 1927   9.921   6.617   1.336  0.6785  0.9407 -0.7904
  773MOL0     O 1928   9.926   6.495   1.417  0.3231 -0.1191  0.4678
  773MOL0     C 1929   9.801   6.442   1.445 -0.3181 -0.9718  0.4591
  773MOL0     C 1930   9.786   6.310   1.413 -0.9776  0.2097 -0.3357
  773MOL0     C 1931   9.674   6.231   1.445 -0.7452 -0.2317  0.2363
  773MOL0     C 1932   9.564   6.303   1.508 -0.2849  0.5678 -0.0923
  773MOL0     C 1933   9.436   6.233   1.532 -0.2788  0.7378  0.7297
  773MOL0     O 1934   9.342   6.294   1.618  0.2469 -0.1395  1.1446
  773MOL0     C 1935   9.248   6.228   1.689 -0.0903 -0.0495 -0.4424
  773MOL0     C 1936   9.139   6.303   1.725 -0.3200  0.4236  0.2696
  773MOL0     C 1937   9.027   6.245   1.798 -0.1678 -0.0351  0.6454
  773MOL0     C 1938   9.042   6.113   1.844  0.4705 -0.1351 -0.0766
  773MOL0     O 1939   8.934   6.058   1.918 -0.7008 -0.0157 -0.2808
  773MOL0     C 1940   8.850   6.144   2.000  0.2655  1.0211  1.2931
  773MOL0     C 1941   8.832   6.092   2.144  0.2739 -0.7072 -0.1600
  773MOL0     C 1942   8.777   6.194   2.247  0.0685  0.6686  0.9183
  773MOL0     C 1943   8.761   6.113   2.383  0.3414 -0.0790 -0.0604
  773MOL0     C 1944   8.744   6.209   2.506 -1.7251  0.4971 -0.1221
  773MOL0     C 1945   8.619   6.295   2.498 -0.9537  0.8789 -0.0508
  773MOL0     C 1946   8.616   6.390   2.616 -0.2042  0.4775 -0.0302
  773MOL0     C 1947   8.495   6.481   2.605  0.4139  0.7336  0.3085
  773MOL0    Cl 1948   8.349   6.399   2.667 -0.2395  0.1700  0.1914
  773MOL0     C 1949   9.152   6.037   1.808 -0.4278 -0.1805  0.1490
  773MOL0     C 1950   9.251   6.093   1.731  1.0708  0.3090 -0.3483
  773MOL0     O 1951   9.443   6.113   1.502  0.3924  0.4993  0.5554
  773MOL0     C 1952   9.578   6.437   1.539  0.2355  0.1374 -0.6784
  773MOL0     C 1953   9.692   6.513   1.506 -0.5309  0.4590  0.3321
  773MOL0     N 1954   9.619   7.058   1.130  0.4100  0.2151 -0.6039
  773MOL0     N 1955   9.631   7.154   1.047 -0.2546 -0.2274 -0.6013
  773MOL0     C 1956  10.831   7.690   0.954 -0.4848 -0.0276 -0.0269
  773MOL0     C 1957  10.946   7.758   0.975  0.8604 -0.6045 -0.3039
  773MOL0     C 1958  11.234   8.078   1.172  1.0742  0.0664 -0.1352
  773MOL0     C 1959  11.322   8.061   1.057 -1.0629 -0.5668  0.0835
  773MOL0     C 1960  11.454   8.117   1.054 -0.6165 -0.3303 -0.7471
  773MOL0     C 1961  11.500   8.180   1.176 -0.5100 -0.3520  0.6005
  773MOL0     O 1962  11.638   8.216   1.179 -0.3742  0.9199  0.0447
  773MOL0     C 1963  11.681   8.322   1.266 -0.0483  0.0551  0.1579
  773MOL0     C 1964  11.834   8.296   1.294  0.2160 -0.0906  0.8076
  773MOL0     C 1965  11.858   8.204   1.417 -0.1027 -0.5922 -0.8680
  773MOL0     C 1966  11.850   8.269   1.560  0.0270 -0.7823  0.2147
  773MOL0     C 1967  11.923   8.398   1.565 -0.8025 -0.4742 -0.2270
  773MOL0     C 1968  11.991   8.497   1.572  0.6212 -0.3756 -0.5563
  773MOL0     C 1969  11.406   8.198   1.287 -0.4879  0.0550  0.8969
  773MOL0     C 1970  11.276   8.151   1.284  0.8835 -0.2199 -0.7407
  773MOL0     H 1971  10.817   8.023   1.143  2.4200 -1.2220  1.1428
  773MOL0     H 1972  10.612   7.876   1.127  0.1384  0.1061 -0.0371
  773MOL0     H 1973  10.620   7.490   1.135  3.0074  0.2793  0.3700
  773MOL0     H 1974  10.713   7.457   1.000 -0.7196 -0.8390 -0.6128
  773MOL0     H 1975  10.509   7.332   1.022 -1.5930  0.4083  0.9617
  773MOL0     H 1976  10.523   7.408   0.864 -1.0008  0.0583 -0.5218
  773MOL0     H 1977  10.386   7.603   0.944  2.1910 -0.6216 -1.0840
  773MOL0     H 1978  10.343   7.506   1.092 -1.5031 -0.0162 -0.7227
  773MOL0     H 1979  10.289   7.428   0.806  3.5453  0.6529  0.3807
  773MOL0     H 1980  10.271   7.322   0.948  3.0125 -0.0182  0.4181
  773MOL0     H 1981  10.123   7.587   0.897 -0.0969 -0.0698 -0.7835
  773MOL0     H 1982  10.126   7.488   1.052 -0.5460  0.3877 -0.5532
  773MOL0     H 1983  10.040   7.375   0.795 -2.9427 -1.2454 -0.1991
  773MOL0     H 1984   9.937   7.502   0.865 -1.4401 -1.1533 -0.3041
  773MOL0     H 1985  10.022   7.253   1.020  0.9246  1.7930 -0.1296
  773MOL0     H 1986   9.900   7.371   1.065  2.3840  1.4550  0.1055
  773MOL0     H 1987   9.855   7.188   0.830 -0.1058  0.1288 -0.4073
  773MOL0     H 1988   9.751   7.314   0.881  0.4060 -0.9077  0.5406
  773MOL0     H 1989   9.941   7.033   1.071  0.0956  1.0913 -0.1644
  773MOL0     H 1990   9.643   6.831   1.243  0.1482 -1.1299 -2.7892
  773MOL0     H 1991   9.790   6.906   1.328  0.8252 -0.2175 -0.3847
  773MOL0     H 1992   9.929   6.776   1.141 -0.2846 -0.1564  1.1291
  773MOL0     H 1993   9.786   6.741   1.055  1.1872  1.2057 -1.0970
  773MOL0     H 1994   9.717   6.615   1.266 -1.2051  3.3855 -4.7079
  773MOL0     H 1995   9.839   6.546   1.156 -2.3609 -2.7488  1.3155
  773MOL0     H 1996   9.917   6.701   1.406  2.7679 -1.4992  2.5932
  773MOL0     H 1997  10.022   6.624   1.294  2.0959 -3.5923  1.1862
  773MOL0     H 1998   9.870   6.261   1.366  0.0869  1.1369  0.5346
  773MOL0     H 1999   9.683   6.125   1.423 -2.1100 -0.9054  2.6282
  773MOL0     H 2000   9.129   6.404   1.689  0.9875  0.3733 -0.2979
  773MOL0     H 2001   8.936   6.303   1.806  0.2110  0.6451  0.0889
  773MOL0     H 2002   8.753   6.161   1.952  0.8757 -1.3441 -0.9721
  773MOL0     H 2003   8.897   6.242   2.012  4.2237 -0.5718  0.3498
  773MOL0     H 2004   8.921   6.048   2.188 -1.6623 -3.2930  1.4750
  773MOL0     H 2005   8.780   5.997   2.131  2.6991 -2.8837  4.0491
  773MOL0     H 2006   8.683   6.234   2.206  2.1983  2.5552 -2.7358
  773MOL0     H 2007   8.847   6.278   2.254  1.2212  0.3776 -3.6778
  773MOL0     H 2008   8.680   6.040   2.371 -0.7628  1.1109 -0.0575
  773MOL0     H 2009   8.850   6.051   2.396  0.4863 -1.0854 -4.3875
  773MOL0     H 2010   8.832   6.274   2.514  2.1183 -4.2657  0.5987
  773MOL0     H 2011   8.753   6.149   2.597  2.3493  0.8626 -0.1344
  773MOL0     H 2012   8.534   6.226   2.498  2.0098 -3.0893 -1.6165
  773MOL0     H 2013   8.620   6.358   2.409  0.7893 -1.8784 -2.1307
  773MOL0     H 2014   8.628   6.344   2.714  0.8146  0.6028 -0.0868
  773MOL0     H 2015   8.695   6.466   2.609 -0.0839  0.5254  1.5232
  773MOL0     H 2016   8.479   6.504   2.500 -3.3197 -1.5221  0.1686
  773MOL0     H 2017   8.499   6.573   2.664  1.1377  1.8463 -1.4258
  773MOL0     H 2018   9.161   5.936   1.845  0.0173  0.1640  1.0198
  773MOL0     H 2019   9.330   6.033   1.688 -1.5498 -1.5123 -3.0914
  773MOL0     H 2020   9.501   6.489   1.594  0.6537  1.7421 -1.5367
  773MOL0     H 2021   9.704   6.620   1.521  2.0306  0.0345  1.9883
  773MOL0     H 2022  10.832   7.609   0.882 -0.7300  1.3292 -1.6081
  773MOL0     H 2023  11.036   7.722   0.926 -0.8664 -1.5635 -2.9911
  773MOL0     H 2024  11.287   8.011   0.967 -3.4130  0.3151  0.4364
  773MOL0     H 2025  11.529   8.101   0.977  0.2149 -1.2535  0.2208
  773MOL0     H 2026  11.633   8.334   1.364  0.2134  3.3911 -0.0119
  773MOL0     H 2027  11.683   8.417   1.213  2.3873 -0.2313 -0.3754
  773MOL0     H 2028  11.890   8.259   1.208  0.6793  2.1578  0.0743
  773MOL0     H 2029  11.868   8.400   1.300  2.5396 -0.8734  2.3197
  773MOL0     H 2030  11.961   8.170   1.399 -0.5940 -2.9021  0.2138
  773MOL0     H 2031  11.798   8.112   1.417  0.8428 -1.2307 -0.7998
  773MOL0     H 2032  11.743   8.286   1.577  0.5231  2.4535  0.7346
  773MOL0     H 2033  11.883   8.200   1.638 -1.5718  0.9985  2.6097
  773MOL0     H 2034  12.065   8.575   1.568  1.7194 -1.4549 -2.7001
  773MOL0     H 2035  11.446   8.241   1.378  0.5213  1.5210 -0.1879
  773MOL0     H 2036  11.224   8.149   1.380 -0.4468 -1.4365 -1.4488
  774MOL0     O 2037  11.056  10.749   5.939  0.3259  0.7635 -0.5599
  774MOL0     C 2038  11.015  10.866   5.953 -0.3112 -0.0706 -1.0324
  774MOL0     O 2039  11.089  10.982   5.976  0.5092 -0.6030  1.1862
  774MOL0     C 2040  11.218  10.945   6.006  0.5108 -0.0609  0.6416
  774MOL0     C 2041  11.307  10.959   5.899  0.1052 -0.5657 -0.5772
  774MOL0     C 2042  11.442  10.960   5.924  0.0548  0.3510  0.2559
  774MOL0     C 2043  11.494  10.913   6.049 -0.2949 -0.7862  0.4574
  774MOL0     O 2044  11.625  10.902   6.072 -0.6460 -0.2080  0.2823
  774MOL0     C 2045  11.700  10.826   5.980  0.5855  0.3196  0.4407
  774MOL0     C 2046  11.847  10.866   5.985 -0.6614 -0.1767  1.0864
  774MOL0     C 2047  11.911  10.800   6.102  0.1246  0.8288  0.0543
  774MOL0     C 2048  12.063  10.814   6.092  0.4254  0.3562 -0.2975
  774MOL0     C 2049  12.128  10.749   6.213 -0.4864  0.2861 -0.7882
  774MOL0     C 2050  12.276  10.753   6.200 -0.7682 -0.3189  0.1039
  774MOL0     C 2051  12.328  10.685   6.322 -0.1946 -0.7278 -0.4299
  774MOL0     C 2052  12.479  10.661   6.329 -0.2917  0.0792 -0.1781
  774MOL0     N 2053  12.506  10.542   6.249 -0.1512  0.4536  0.1413
  774MOL0     C 2054  12.558  10.548   6.121 -0.3054 -0.2811  0.1631
  774MOL0     C 2055  12.576  10.416   6.087  0.6706 -0.1536 -0.4983
  774MOL0     C 2056  12.629  10.359   5.964  0.5566 -0.1835  0.7845
  774MOL0     C 2057  12.775  10.306   5.993  1.2354  0.3787  0.0790
  774MOL0     C 2058  12.826  10.231   5.871  0.0672 -0.3919  0.1698
  774MOL0     C 2059  12.986  10.215   5.862  0.4639 -1.2301 -0.2313
  774MOL0     O 2060  13.016  10.124   5.753 -0.2644  0.3753 -0.1753
  774MOL0     C 2061  13.143  10.131   5.692 -0.3310  0.1867  0.5729
  774MOL0     C 2062  13.247  10.221   5.718 -0.8457  1.0375 -0.3013
  774MOL0     C 2063  13.369  10.207   5.654 -0.4309 -0.1646 -0.2667
  774MOL0     C 2064  13.393  10.104   5.551  0.0228 -0.6593  0.5324
  774MOL0     C 2065  13.526  10.091   5.477  0.6578  0.2944 -0.6130
  774MOL0     O 2066  13.619  10.190   5.491  0.0980 -0.7411  0.1010
  774MOL0     C 2067  13.732  10.189   5.419  0.0046  0.5009  0.4432
  774MOL0     C 2068  13.831  10.085   5.430  0.0860 -0.5235  0.7923
  774MOL0     C 2069  13.945  10.089   5.344  1.0874  0.1474  0.3752
  774MOL0     C 2070  13.969  10.194   5.252  0.7060  0.4295 -0.1202
  774MOL0     O 2071  14.095  10.194   5.206 -0.4238 -0.0925 -0.1104
  774MOL0     C 2072  14.118  10.290   5.101  0.2750  0.7230 -0.7573
  774MOL0     C 2073  14.269  10.297   5.088 -0.7828  0.3163  0.5558
  774MOL0     C 2074  14.326  10.159   5.029 -0.6709  0.1134 -0.6814
  774MOL0     C 2075  14.483  10.144   5.041 -0.3182 -0.9229 -0.8352
  774MOL0     C 2076  14.551  10.239   4.946  0.3781 -0.9223  0.6201
  774MOL0     C 2077  14.676  10.309   5.002  0.8480  0.5170  0.0070
  774MOL0     C 2078  14.764  10.406   4.910 -0.7414 -0.2233 -0.2483
  774MOL0     C 2079  14.685  10.516   4.867 -0.4926 -0.2946  0.2673
  774MOL0    Cl 2080  14.784  10.622   4.759  0.2765 -0.1796 -0.6181
  774MOL0     C 2081  13.872  10.292   5.239  0.2399  0.6998 -0.3354
  774MOL0     C 2082  13.754  10.289   5.315 -0.1327  0.3203 -0.1991
  774MOL0     O 2083  13.551   9.986   5.426 -0.1215  0.2206  0.0040
  774MOL0     C 2084  13.289  10.020   5.524  0.7763  0.3143  0.0321
  774MOL0     C 2085  13.169  10.027   5.597  0.2192  0.3467 -0.1146
  774MOL0     N 2086  12.531  10.330   6.190  1.1026 -0.1101 -0.5535
  774MOL0     N 2087  12.488  10.413   6.285  0.1458 -0.1500  0.4190
  774MOL0     C 2088  11.401  10.887   6.150 -0.1308 -0.6771  0.2189
  774MOL0     C 2089  11.262  10.901   6.135 -0.4186 -0.1141 -0.5747
  774MOL0     C 2090  10.870  10.904   5.924  0.4913  0.1142 -0.6444
  774MOL0     C 2091  10.775  10.801   5.918 -0.5972  0.5189  0.4797
  774MOL0     C 2092  10.632  10.835   5.906  0.0691 -0.1460 -0.2193
  774MOL0     C 2093  10.589  10.970   5.900 -0.1901  0.4704  0.3591
  774MOL0     O 2094  10.463  11.022   5.895  0.9890 -0.9074  0.3923
  774MOL0     C 2095  10.351  10.940   5.862 -0.9329  0.6828 -0.2654
  774MOL0     C 2096  10.273  10.903   5.988  0.0691 -0.2476 -0.4551
  774MOL0     C 2097  10.184  11.017   6.030 -0.4272  0.2620 -0.2061
  774MOL0     C 2098  10.111  10.984   6.164  0.1258 -0.2239 -1.0202
  774MOL0     C 2099  10.012  11.079   6.218 -1.3654  0.0947  0.9754
  774MOL0     C 2100   9.931  11.159   6.272 -0.8202  0.0660 -0.0242
  774MOL0     C 2101  10.690  11.069   5.894 -0.6973  0.4551  0.0328
  774MOL0     C 2102  10.827  11.036   5.907  0.6547  0.6005 -0.4575
  774MOL0     H 2103  11.272  10.990   5.801 -0.3792 -0.9629 -0.5335
  774MOL0     H 2104  11.517  11.000   5.856  0.1916  2.3230  1.4976
  774MOL0     H 2105  11.665  10.858   5.881 -3.6299  0.2377  1.6913
  774MOL0     H 2106  11.680  10.720   5.997 -2.0959  0.9886  2.1182
  774MOL0     H 2107  11.852  10.975   5.981  0.8839 -0.2519 -0.3793
  774MOL0     H 2108  11.896  10.823   5.896  2.1980  1.2556  1.8442
  774MOL0     H 2109  11.882  10.695   6.094 -2.1567  1.5217 -1.7134
  774MOL0     H 2110  11.878  10.842   6.198 -1.1237 -1.9591  0.9558
  774MOL0     H 2111  12.096  10.763   6.001 -1.4161  0.1781 -0.9105
  774MOL0     H 2112  12.104  10.916   6.090  4.1029 -0.9841 -1.6573
  774MOL0     H 2113  12.093  10.646   6.204 -2.5120  1.0584 -2.7398
  774MOL0     H 2114  12.086  10.782   6.309 -1.5113  0.3504 -1.2508
  774MOL0     H 2115  12.312  10.856   6.201 -1.5027 -0.0038  2.4342
  774MOL0     H 2116  12.304  10.697   6.110  2.2100 -0.3948  1.0019
  774MOL0     H 2117  12.315  10.758   6.402 -1.2188  0.7506 -1.8933
  774MOL0     H 2118  12.290  10.587   6.353 -0.2401  0.0731  2.3293
  774MOL0     H 2119  12.519  10.656   6.430  1.7655 -0.8269 -0.9782
  774MOL0     H 2120  12.534  10.744   6.282  2.7394 -0.6189  1.8809
  774MOL0     H 2121  12.583  10.636   6.062  0.9387 -2.0554 -2.1140
  774MOL0     H 2122  12.636  10.436   5.888  0.0782 -1.2038 -0.3245
  774MOL0     H 2123  12.572  10.277   5.919  1.4088  0.5032 -1.6989
  774MOL0     H 2124  12.765  10.240   6.079 -0.3688 -0.0016 -0.3657
  774MOL0     H 2125  12.836  10.396   6.006 -0.9511  1.9690 -0.0345
  774MOL0     H 2126  12.774  10.137   5.849 -0.2538 -0.3093  0.5762
  774MOL0     H 2127  12.801  10.296   5.786 -2.2682 -0.8866  0.4226
  774MOL0     H 2128  13.032  10.172   5.952  0.0876  0.6196  0.9050
  774MOL0     H 2129  13.030  10.311   5.833 -2.0794 -0.9997 -4.1562
  774MOL0     H 2130  13.222  10.291   5.796  2.0748  2.0966 -0.2022
  774MOL0     H 2131  13.452  10.271   5.682 -2.3121  2.4488 -0.3711
  774MOL0     H 2132  13.824  10.006   5.504  3.0620 -0.2485  1.5157
  774MOL0     H 2133  14.022  10.015   5.363  1.1899  0.8254  3.0436
  774MOL0     H 2134  14.092  10.395   5.118  0.4944  0.7595 -0.6371
  774MOL0     H 2135  14.060  10.251   5.017  1.8209 -0.7142 -1.2076
  774MOL0     H 2136  14.320  10.316   5.183 -1.4364 -2.2333  1.5216
  774MOL0     H 2137  14.308  10.372   5.019 -0.9855 -0.9843 -1.0477
  774MOL0     H 2138  14.308  10.135   4.924  2.5530 -1.6576 -0.9571
  774MOL0     H 2139  14.296  10.081   5.100  0.0861  0.7691  0.4103
  774MOL0     H 2140  14.513  10.175   5.142  2.4235  1.7157 -2.3047
  774MOL0     H 2141  14.508  10.040   5.020 -0.6902 -0.9376 -1.2061
  774MOL0     H 2142  14.476  10.310   4.910 -0.8490 -0.0132  4.5009
  774MOL0     H 2143  14.588  10.182   4.860  1.7001 -3.0014  2.4688
  774MOL0     H 2144  14.747  10.227   5.016  1.0819  0.1666 -2.6981
  774MOL0     H 2145  14.646  10.354   5.097 -1.2523  0.6035 -0.6482
  774MOL0     H 2146  14.852  10.446   4.962  1.2334 -3.2999 -0.9810
  774MOL0     H 2147  14.803  10.342   4.831 -1.7076  1.3073 -2.0421
  774MOL0     H 2148  14.655  10.576   4.952 -0.5286  0.2944 -0.1559
  774MOL0     H 2149  14.597  10.481   4.811 -0.1276  1.0535 -1.2246
  774MOL0     H 2150  13.879  10.368   5.162  1.2270  1.7071  0.7056
  774MOL0     H 2151  13.683  10.368   5.291  1.4044  2.1941  1.1063
  774MOL0     H 2152  13.301   9.933   5.460 -2.4475 -1.5602  1.7334
  774MOL0     H 2153  13.094   9.952   5.573  2.2660 -0.8228 -3.5167
  774MOL0     H 2154  11.434  10.847   6.245  0.3957  1.3923  0.9488
  774MOL0     H 2155  11.194  10.886   6.219  1.9568 -0.5321  1.3903
  774MOL0     H 2156  10.798  10.695   5.926  0.4408  0.5928 -1.1101
  774MOL0     H 2157  10.559  10.755   5.909  0.6257 -0.6360  1.1822
  774MOL0     H 2158  10.385  10.854   5.803  1.7676  3.5648 -3.3704
  774MOL0     H 2159  10.277  10.987   5.796  0.6445  2.7934 -0.6496
  774MOL0     H 2160  10.207  10.821   5.959  0.4884 -0.5001 -0.7024
  774MOL0     H 2161  10.336  10.864   6.068  0.5921  0.4417 -0.5286
  774MOL0     H 2162  10.103  11.016   5.956  0.4795 -3.6753 -1.3982
  774MOL0     H 2163  10.237  11.113   6.036  0.0670  0.0056 -0.3748
  774MOL0     H 2164  10.065  10.885   6.165 -1.0522  0.3004 -1.0746
  774MOL0     H 2165  10.195  10.987   6.234 -1.2991  3.0363  0.8016
  774MOL0     H 2166   9.885  11.233   6.334 -1.0015 -0.9418  1.0896
  774MOL0     H 2167  10.660  11.172   5.881 -3.1194 -0.2037 -0.2510
  774MOL0     H 2168  10.899  11.117   5.908  0.2165  1.1971 -4.0622
  775MOL0     O 2169   3.453   2.577   6.829  0.2845  0.4155  0.0701
  775MOL0     C 2170   3.378   2.540   6.913 -0.6308  0.4799 -0.0941
  775MOL0     O 2171   3.358   2.602   7.035 -0.1831  0.2397  0.4712
  775MOL0     C 2172   3.430   2.723   7.057 -0.4567  0.9412  0.5272
  775MOL0     C 2173   3.485   2.738   7.185  0.3775 -0.0793  0.2176
  775MOL0     C 2174   3.553   2.860   7.223 -0.4644 -0.4655 -0.4160
  775MOL0     C 2175   3.578   2.955   7.128 -0.4372  0.1966 -0.4165
  775MOL0     O 2176   3.644   3.066   7.178 -0.2333 -0.0242 -0.1516
  775MOL0     C 2177   3.609   3.195   7.120 -1.1403  0.1372 -0.3162
  775MOL0     C 2178   3.700   3.308   7.176 -0.4225 -0.7247 -0.2925
  775MOL0     C 2179   3.656   3.453   7.140  0.4750 -0.1439  0.2106
  775MOL0     C 2180   3.664   3.483   6.988  0.2883  0.1910 -0.5600
  775MOL0     C 2181   3.619   3.629   6.973  0.1258 -0.2943  0.1288
  775MOL0     C 2182   3.738   3.722   6.944  0.1298  1.0339  0.6451
  775MOL0     C 2183   3.699   3.866   6.892  0.3753  0.7822  0.7987
  775MOL0     C 2184   3.826   3.956   6.861 -0.1490 -0.7521  0.5342
  775MOL0     N 2185   3.781   4.069   6.778 -0.3822  0.1283  0.3581
  775MOL0     C 2186   3.738   4.185   6.829 -0.4165  0.6237  0.0892
  775MOL0     C 2187   3.693   4.255   6.724 -0.3236  0.2463 -0.3392
  775MOL0     C 2188   3.653   4.400   6.734 -0.2182 -0.5481 -0.1548
  775MOL0     C 2189   3.497   4.404   6.743  0.1287 -0.3456  0.1476
  775MOL0     C 2190   3.440   4.532   6.763  0.5742  0.0577  0.3465
  775MOL0     C 2191   3.291   4.525   6.794 -0.1299  1.0479 -0.2023
  775MOL0     O 2192   3.272   4.619   6.898 -0.2774  0.4379  0.7107
  775MOL0     C 2193   3.150   4.612   6.963 -0.6456 -0.4416 -0.0592
  775MOL0     C 2194   3.047   4.520   6.947 -0.9599  0.5182 -0.0856
  775MOL0     C 2195   2.939   4.521   7.031  0.2915  0.6322  0.1071
  775MOL0     C 2196   2.933   4.614   7.132  0.3927 -0.2140  0.5554
  775MOL0     C 2197   2.806   4.641   7.207 -0.2409 -0.0722 -0.2935
  775MOL0     O 2198   2.692   4.604   7.148  0.0813  0.5043 -0.2215
  775MOL0     C 2199   2.573   4.619   7.211  0.5518 -0.2884 -0.6394
  775MOL0     C 2200   2.478   4.523   7.205  0.8329  0.1268 -0.2310
  775MOL0     C 2201   2.353   4.525   7.272 -0.1766 -1.1045  0.5255
  775MOL0     C 2202   2.319   4.647   7.342 -0.0048 -0.1324  0.1157
  775MOL0     O 2203   2.205   4.648   7.418  0.7184 -0.9337 -0.5797
  775MOL0     C 2204   2.142   4.766   7.461 -1.1069  0.3643 -0.0752
  775MOL0     C 2205   2.004   4.725   7.520  0.9784 -0.4112  0.4534
  775MOL0     C 2206   1.941   4.829   7.609 -0.2470 -0.5194 -0.3702
  775MOL0     C 2207   1.817   4.780   7.697  0.9352 -0.2712  0.9345
  775MOL0     C 2208   1.702   4.717   7.612 -0.0461  0.0075  0.3583
  775MOL0     C 2209   1.651   4.795   7.494 -0.5176 -0.1792 -0.1109
  775MOL0     C 2210   1.503   4.780   7.474  0.6610  0.2720 -0.4187
  775MOL0     C 2211   1.449   4.852   7.346 -0.0284 -0.7643  0.2088
  775MOL0    Cl 2212   1.270   4.883   7.358 -0.2753  0.2663  0.5797
  775MOL0     C 2213   2.403   4.761   7.329 -0.1860 -0.7531  0.0085
  775MOL0     C 2214   2.530   4.745   7.272  0.3091  0.0464  0.0760
  775MOL0     O 2215   2.816   4.696   7.312  0.1212  0.5156 -0.2257
  775MOL0     C 2216   3.030   4.701   7.145 -0.1364 -0.1317 -0.3651
  775MOL0     C 2217   3.136   4.703   7.064 -0.4715  0.3080 -0.0071
  775MOL0     N 2218   3.713   4.178   6.610  0.3299 -0.0544  0.6244
  775MOL0     N 2219   3.772   4.069   6.648 -0.5829  0.0210  0.5533
  775MOL0     C 2220   3.527   2.942   7.002  0.3447 -0.0490 -1.2925
  775MOL0     C 2221   3.450   2.833   6.964  0.0950  0.3092  0.2967
  775MOL0     C 2222   3.309   2.413   6.884  0.0694 -0.7363  0.0053
  775MOL0     C 2223   3.261   2.329   6.986  0.6409  0.5971  0.4067
  775MOL0     C 2224   3.205   2.198   6.973 -0.3105  0.0548  0.6374
  775MOL0     C 2225   3.200   2.150   6.839  1.0949 -0.0427 -0.4006
  775MOL0     O 2226   3.146   2.034   6.787 -0.4913  0.0366  0.4515
  775MOL0     C 2227   3.064   1.972   6.884  0.2976  0.4232  0.4545
  775MOL0     C 2228   2.962   1.873   6.812  0.1307 -0.1478 -0.4418
  775MOL0     C 2229   2.852   1.833   6.908  0.4168 -0.7836  0.7731
  775MOL0     C 2230   2.736   1.761   6.839 -0.5292 -0.5034 -1.1300
  775MOL0     C 2231   2.653   1.838   6.743 -0.6326  0.6435 -0.0250
  775MOL0     C 2232   2.581   1.888   6.659  0.0973  0.3695  0.9032
  775MOL0     C 2233   3.245   2.230   6.741 -1.2055  0.1943  0.4895
  775MOL0     C 2234   3.298   2.358   6.757 -0.0608 -0.2808  0.8485
  775MOL0     H 2235   3.456   2.659   7.254  1.5734  0.0816  0.9380
  775MOL0     H 2236   3.586   2.881   7.325 -0.2408 -0.0160 -0.5773
  775MOL0     H 2237   3.509   3.229   7.146 -1.8615 -0.2434 -2.4001
  775MOL0     H 2238   3.627   3.187   7.012 -1.2729 -0.6944 -0.2841
  775MOL0     H 2239   3.798   3.295   7.128 -0.1095  0.6662 -0.0867
  775MOL0     H 2240   3.703   3.296   7.284 -0.8751  0.2876 -0.1549
  775MOL0     H 2241   3.719   3.525   7.193  0.7902  1.7719 -2.5744
  775MOL0     H 2242   3.550   3.463   7.167 -0.4911 -2.8425 -2.0738
  775MOL0     H 2243   3.762   3.469   6.941  0.0313 -0.2022 -0.9857
  775MOL0     H 2244   3.584   3.421   6.948 -1.5116  1.2551  1.2228
  775MOL0     H 2245   3.565   3.669   7.059 -1.7751  0.1576 -1.2107
  775MOL0     H 2246   3.554   3.619   6.886  2.5815 -0.8782 -1.7330
  775MOL0     H 2247   3.798   3.684   6.861  0.2137 -0.0252  1.1708
  775MOL0     H 2248   3.798   3.737   7.035  1.4718  3.1265 -0.5169
  775MOL0     H 2249   3.650   3.857   6.795  1.1304  3.1348  0.1313
  775MOL0     H 2250   3.629   3.910   6.964  0.5926  1.6849  0.4670
  775MOL0     H 2251   3.911   3.903   6.816  0.8081  2.2687 -1.5677
  775MOL0     H 2252   3.879   3.999   6.946  0.7410  0.3856 -0.5490
  775MOL0     H 2253   3.753   4.209   6.934  0.0393 -1.9472  0.6939
  775MOL0     H 2254   3.674   4.451   6.640  1.2069 -0.4312  0.2040
  775MOL0     H 2255   3.704   4.440   6.822 -2.4034  0.0816  0.8875
  775MOL0     H 2256   3.477   4.343   6.832  0.1707  1.6708  1.6012
  775MOL0     H 2257   3.461   4.366   6.647 -3.1040 -1.1192  1.5565
  775MOL0     H 2258   3.499   4.580   6.842  2.3001 -0.9509 -0.2600
  775MOL0     H 2259   3.452   4.583   6.667 -0.2552 -1.6052 -0.6875
  775MOL0     H 2260   3.265   4.426   6.834  1.8114  0.2024 -0.8852
  775MOL0     H 2261   3.236   4.556   6.705  0.0023  2.1917  0.1001
  775MOL0     H 2262   3.040   4.442   6.872 -2.3137 -0.4996  1.0089
  775MOL0     H 2263   2.858   4.450   7.019  0.6311  0.2496  0.0633
  775MOL0     H 2264   2.494   4.424   7.162 -1.8233  0.1392 -1.4954
  775MOL0     H 2265   2.283   4.442   7.275 -0.6885 -0.6650  1.1843
  775MOL0     H 2266   2.147   4.835   7.376  3.3028 -0.9476 -1.1218
  775MOL0     H 2267   2.193   4.811   7.546 -0.7537 -0.5036  0.1750
  775MOL0     H 2268   2.015   4.634   7.580  0.0556  0.8533  2.6443
  775MOL0     H 2269   1.949   4.713   7.425  3.5042  2.4790 -1.5698
  775MOL0     H 2270   1.906   4.907   7.542 -0.9837  0.1078  0.7207
  775MOL0     H 2271   2.021   4.873   7.669 -0.8232 -0.5193  0.4081
  775MOL0     H 2272   1.862   4.712   7.769 -1.7508 -3.2664  0.0156
  775MOL0     H 2273   1.773   4.867   7.747  1.4835  1.2248 -1.0592
  775MOL0     H 2274   1.618   4.705   7.682  2.5719 -1.7742  3.4592
  775MOL0     H 2275   1.722   4.617   7.573 -0.5433 -1.5463  3.7876
  775MOL0     H 2276   1.699   4.748   7.408 -1.4700 -2.4527  0.5273
  775MOL0     H 2277   1.669   4.903   7.499  1.8463 -0.5756  0.7261
  775MOL0     H 2278   1.479   4.673   7.476  1.1655  0.0728  3.4609
  775MOL0     H 2279   1.460   4.823   7.565  3.2671  1.3282  0.4115
  775MOL0     H 2280   1.462   4.783   7.262 -1.8099 -1.3691  0.3953
  775MOL0     H 2281   1.506   4.946   7.344 -0.1130 -0.7186 -0.0477
  775MOL0     H 2282   2.379   4.855   7.379  3.2383  0.0119  0.4726
  775MOL0     H 2283   2.602   4.826   7.279  0.0865  0.3226 -0.6997
  775MOL0     H 2284   3.028   4.777   7.222  1.2548  2.1732 -2.4513
  775MOL0     H 2285   3.212   4.779   7.084  0.2939 -0.8525  1.6853
  775MOL0     H 2286   3.536   3.029   6.938  2.9576  3.3011  3.0885
  775MOL0     H 2287   3.400   2.825   6.868 -0.7446  2.5846  0.4736
  775MOL0     H 2288   3.271   2.368   7.087 -1.3653 -2.0798  1.7566
  775MOL0     H 2289   3.175   2.135   7.056  1.3174 -0.9700  0.4921
  775MOL0     H 2290   3.003   2.046   6.936 -1.0356 -1.1175  1.1879
  775MOL0     H 2291   3.122   1.916   6.958  2.8915  2.5730  0.1775
  775MOL0     H 2292   2.918   1.925   6.727 -1.1233  0.8773  0.7714
  775MOL0     H 2293   3.020   1.786   6.781 -0.1439 -1.1651  1.6816
  775MOL0     H 2294   2.808   1.913   6.969 -0.3068  1.9340 -2.9891
  775MOL0     H 2295   2.894   1.752   6.970  2.9601  1.4563  2.2144
  775MOL0     H 2296   2.778   1.674   6.788 -0.4354 -0.1201 -1.7084
  775MOL0     H 2297   2.679   1.720   6.924  0.1767  1.1253  0.1735
  775MOL0     H 2298   2.532   1.925   6.570  2.5987 -2.7949 -2.0602
  775MOL0     H 2299   3.258   2.191   6.640  0.4635 -0.9291  1.1022
  775MOL0     H 2300   3.338   2.404   6.667 -2.8900  0.0357 -0.3344
  776MOL0     O 2301   0.846  10.607   0.557  0.4943  0.4626  0.0377
  776MOL0     C 2302   0.806  10.723   0.545  0.7001 -0.3032  0.3871
  776MOL0     O 2303   0.870  10.825   0.478  0.1319 -0.1483 -0.1613
  776MOL0     C 2304   1.008  10.817   0.435  0.0437 -0.1503 -1.2030
  776MOL0     C 2305   1.106  10.748   0.502 -0.2015  0.2991  0.1822
  776MOL0     C 2306   1.237  10.742   0.465 -0.0341 -0.1033  0.7073
  776MOL0     C 2307   1.286  10.817   0.353  0.3782 -0.5020 -0.6053
  776MOL0     O 2308   1.413  10.824   0.310 -0.2229  0.2179 -0.7013
  776MOL0     C 2309   1.495  10.895   0.401  0.1158  0.1296  0.4517
  776MOL0     C 2310   1.635  10.876   0.345  0.4071 -0.1654 -0.2189
  776MOL0     C 2311   1.680  10.727   0.327 -0.2653  0.7726 -0.3333
  776MOL0     C 2312   1.828  10.718   0.287 -0.3882 -0.2360  0.0588
  776MOL0     C 2313   1.925  10.791   0.393 -0.2521  1.3393  0.3789
  776MOL0     C 2314   2.078  10.779   0.360 -0.4420 -0.7639  0.4672
  776MOL0     C 2315   2.119  10.634   0.326 -0.1060  0.0488  0.1596
  776MOL0     C 2316   2.273  10.613   0.318 -0.2616 -0.8274  0.4961
  776MOL0     N 2317   2.290  10.470   0.323 -0.7786 -0.3342  1.0676
  776MOL0     C 2318   2.326  10.392   0.428 -0.0356 -0.3250 -0.0376
  776MOL0     C 2319   2.374  10.271   0.371  0.5303  0.2957 -0.0217
  776MOL0     C 2320   2.420  10.156   0.468 -0.2117  0.1761  0.6729
  776MOL0     C 2321   2.568  10.156   0.487 -0.3239 -0.3520 -1.4451
  776MOL0     C 2322   2.624  10.293   0.528  0.0094  0.5073  0.0348
  776MOL0     C 2323   2.777  10.291   0.564  0.5900  0.3490  0.6090
  776MOL0     O 2324   2.856  10.338   0.452 -0.5167  0.6199 -0.6193
  776MOL0     C 2325   2.987  10.298   0.462 -0.0429  0.6177  0.0810
  776MOL0     C 2326   3.056  10.265   0.346 -0.7171 -1.1751  0.9779
  776MOL0     C 2327   3.193  10.271   0.344 -1.1086  0.7536 -0.5186
  776MOL0     C 2328   3.265  10.281   0.460  0.5189  0.5953 -0.0150
  776MOL0     C 2329   3.410  10.269   0.449  0.2139  0.1979 -0.0433
  776MOL0     O 2330   3.458  10.216   0.326  0.5375 -0.1977 -0.7072
  776MOL0     C 2331   3.594  10.239   0.315  0.4494 -0.6038  0.8998
  776MOL0     C 2332   3.641  10.337   0.230 -0.1552  1.1565 -0.0690
  776MOL0     C 2333   3.776  10.347   0.210  0.3022 -0.1136 -0.7502
  776MOL0     C 2334   3.864  10.257   0.272 -0.1256 -0.0470 -0.7947
  776MOL0     O 2335   4.003  10.268   0.261 -0.5242 -0.6166 -0.3037
  776MOL0     C 2336   4.088  10.280   0.370  0.4215  0.4640  0.4612
  776MOL0     C 2337   4.215  10.359   0.347 -0.8384  0.2976  0.4701
  776MOL0     C 2338   4.176  10.500   0.303 -0.1761 -0.1606  0.5746
  776MOL0     C 2339   4.304  10.579   0.292  0.8781 -1.0500  0.4643
  776MOL0     C 2340   4.284  10.731   0.277 -0.6226 -0.7565  0.0333
  776MOL0     C 2341   4.422  10.807   0.297 -0.2073 -0.0814 -0.5795
  776MOL0     C 2342   4.406  10.956   0.273 -0.1730 -0.2917 -0.2985
  776MOL0     C 2343   4.320  11.013   0.393  0.7450  0.7560  0.7214
  776MOL0    Cl 2344   4.386  10.994   0.556  0.3188  0.3470  0.1705
  776MOL0     C 2345   3.821  10.156   0.353  0.1169 -0.1790  0.5101
  776MOL0     C 2346   3.683  10.157   0.378 -0.8768 -0.2288  0.3101
  776MOL0     O 2347   3.478  10.331   0.529 -0.3815  0.4847 -0.9496
  776MOL0     C 2348   3.198  10.273   0.584 -0.1413  0.3330  0.2811
  776MOL0     C 2349   3.059  10.283   0.578 -0.5486 -0.7666 -0.1681
  776MOL0     N 2350   2.363  10.278   0.236  0.8834  0.2662 -0.2117
  776MOL0     N 2351   2.308  10.388   0.204 -0.0495 -0.4453  0.3163
  776MOL0     C 2352   1.185  10.882   0.272 -0.0768 -1.0757  0.1514
  776MOL0     C 2353   1.051  10.880   0.313  0.4593  0.1516 -0.6781
  776MOL0     C 2354   0.672  10.752   0.606  0.9788 -0.0696  0.5287
  776MOL0     C 2355   0.574  10.650   0.613 -0.3431  1.3304  0.6018
  776MOL0     C 2356   0.458  10.679   0.689  0.0029 -0.5075  0.2723
  776MOL0     C 2357   0.437  10.814   0.741  1.1107 -0.0629  0.1302
  776MOL0     O 2358   0.307  10.820   0.792 -0.0150 -0.3573 -0.5825
  776MOL0     C 2359   0.268  10.936   0.864  0.0915 -0.3151 -0.2884
  776MOL0     C 2360   0.161  10.896   0.960  0.7044  0.1270  0.8033
  776MOL0     C 2361   0.212  10.810   1.072  0.1047  0.1310 -0.5961
  776MOL0     C 2362   0.293  10.888   1.177 -0.3482 -0.8473  0.3364
  776MOL0     C 2363   0.325  10.797   1.287  0.1986 -0.2161  0.7676
  776MOL0     C 2364   0.365  10.722   1.379 -0.4971 -0.6194  0.3564
  776MOL0     C 2365   0.525  10.916   0.721 -0.4244 -0.3533  0.8892
  776MOL0     C 2366   0.642  10.887   0.652 -0.5225  0.3318 -0.1487
  776MOL0     H 2367   1.088  10.688   0.591  2.2009 -0.5388  0.1576
  776MOL0     H 2368   1.313  10.689   0.521  2.3168  2.4128  0.1525
  776MOL0     H 2369   1.493  10.846   0.499 -0.0080 -0.5637  0.1070
  776MOL0     H 2370   1.472  11.001   0.411 -1.1137 -0.1103  0.3033
  776MOL0     H 2371   1.692  10.921   0.426  1.1733 -1.3709 -0.0723
  776MOL0     H 2372   1.650  10.936   0.254  0.6252 -0.2686 -0.2504
  776MOL0     H 2373   1.617  10.677   0.254 -0.1763 -0.9133  0.6943
  776MOL0     H 2374   1.658  10.678   0.422 -0.0741  0.2407 -0.5621
  776MOL0     H 2375   1.865  10.617   0.267 -1.7448 -0.3714 -2.1336
  776MOL0     H 2376   1.841  10.767   0.190 -0.6197 -0.8580 -0.2934
  776MOL0     H 2377   1.904  10.753   0.493  1.5119  0.9102  0.6159
  776MOL0     H 2378   1.909  10.899   0.399  3.2017  1.9088  1.5602
  776MOL0     H 2379   2.137  10.817   0.444  0.0038  2.5893 -1.1833
  776MOL0     H 2380   2.090  10.843   0.272  1.3533 -1.7646 -0.0624
  776MOL0     H 2381   2.072  10.573   0.403  0.1174  0.9852  1.0630
  776MOL0     H 2382   2.069  10.596   0.237 -1.6883 -1.5899  1.6841
  776MOL0     H 2383   2.332  10.653   0.401 -0.4596  1.6401 -0.4880
  776MOL0     H 2384   2.314  10.661   0.229 -2.5817  1.0095  0.3049
  776MOL0     H 2385   2.321  10.421   0.533  2.4316  1.3102 -0.2760
  776MOL0     H 2386   2.403  10.056   0.425  3.5010 -0.6912  0.9170
  776MOL0     H 2387   2.371  10.147   0.565  1.0218 -1.5361  1.1772
  776MOL0     H 2388   2.617  10.128   0.393  2.1578  2.7183 -1.2445
  776MOL0     H 2389   2.602  10.091   0.568  0.1037  0.5275 -0.9039
  776MOL0     H 2390   2.612  10.362   0.444  0.0325 -0.5005 -0.8088
  776MOL0     H 2391   2.565  10.334   0.611 -0.2297 -0.2929  0.2698
  776MOL0     H 2392   2.803  10.187   0.585  0.8554 -0.0129 -1.3931
  776MOL0     H 2393   2.785  10.353   0.654 -1.8078  3.1480 -0.9119
  776MOL0     H 2394   2.992  10.257   0.259 -1.3486  3.8680  0.6829
  776MOL0     H 2395   3.241  10.279   0.247  0.2816 -0.3938  0.0363
  776MOL0     H 2396   3.569  10.406   0.188 -0.4548  0.2513 -1.0904
  776MOL0     H 2397   3.815  10.421   0.141 -0.2085  0.4808 -0.4118
  776MOL0     H 2398   4.117  10.178   0.396  0.5402 -0.2227 -2.0293
  776MOL0     H 2399   4.023  10.318   0.449 -2.2408 -0.7554 -1.0064
  776MOL0     H 2400   4.269  10.315   0.263  0.1050 -1.2460  1.8226
  776MOL0     H 2401   4.277  10.353   0.437  0.3753 -0.9036 -0.4160
  776MOL0     H 2402   4.101  10.543   0.370  0.2490  0.4590  0.6507
  776MOL0     H 2403   4.127  10.506   0.205 -0.3720  0.0759  0.6864
  776MOL0     H 2404   4.370  10.561   0.376  1.2802 -0.8455  0.1950
  776MOL0     H 2405   4.364  10.547   0.206  1.1114  1.4960 -0.4053
  776MOL0     H 2406   4.215  10.766   0.354 -0.5379  1.2761 -0.7403
  776MOL0     H 2407   4.238  10.757   0.181  1.9372 -0.7372 -1.2847
  776MOL0     H 2408   4.490  10.769   0.221  0.4676 -0.3537  0.1389
  776MOL0     H 2409   4.462  10.784   0.397 -0.3304 -0.2873 -0.5776
  776MOL0     H 2410   4.504  11.004   0.276 -1.2360  2.0817  3.5652
  776MOL0     H 2411   4.358  10.979   0.177 -2.1277  0.6940  0.8440
  776MOL0     H 2412   4.223  10.965   0.384  2.3551 -2.6429 -0.2443
  776MOL0     H 2413   4.307  11.120   0.371  0.7383  0.6193  0.0460
  776MOL0     H 2414   3.888  10.087   0.405 -1.1523  0.5653  3.2814
  776MOL0     H 2415   3.632  10.086   0.442 -1.5076 -1.1698 -1.1825
  776MOL0     H 2416   3.253  10.273   0.678  0.0681 -0.2660  0.1624
  776MOL0     H 2417   3.017  10.287   0.677  0.9036  1.2307  0.4513
  776MOL0     H 2418   1.215  10.935   0.182  1.0348 -0.2752  0.9572
  776MOL0     H 2419   0.972  10.928   0.255  1.9893  2.7866 -0.7072
  776MOL0     H 2420   0.600  10.551   0.577 -0.8493  1.7392 -0.9448
  776MOL0     H 2421   0.380  10.605   0.702  0.7903 -1.5128 -0.5904
  776MOL0     H 2422   0.236  11.017   0.797 -3.0752  0.7847  2.2480
  776MOL0     H 2423   0.354  10.962   0.925 -1.1599 -1.2144  1.9895
  776MOL0     H 2424   0.118  10.990   0.995  0.2678  0.0452  0.4838
  776MOL0     H 2425   0.084  10.845   0.902 -1.7277  2.5559  1.6470
  776MOL0     H 2426   0.275  10.725   1.042 -1.1166 -0.9604 -0.1735
  776MOL0     H 2427   0.122  10.770   1.119  0.7659 -0.8496 -0.1082
  776MOL0     H 2428   0.395  10.909   1.141 -0.8105  0.7041 -0.1262
  776MOL0     H 2429   0.237  10.977   1.206 -0.8601  0.2303 -3.4273
  776MOL0     H 2430   0.422  10.662   1.446  1.1335 -1.5288 -1.7204
  776MOL0     H 2431   0.517  11.018   0.756 -1.9230  0.5362 -1.8069
  776MOL0     H 2432   0.711  10.970   0.642 -0.5583  0.2225 -1.5680
  777MOL0     O 2433   2.114   5.464   9.376  0.0442  0.2754 -0.5904
  777MOL0     C 2434   2.084   5.499   9.489  0.5473  0.5363 -0.7750
  777MOL0     O 2435   2.169   5.546   9.577  0.6948 -0.0212  0.1712
  777MOL0     C 2436   2.298   5.518   9.569  0.0473  0.0797  0.1107
  777MOL0     C 2437   2.388   5.619   9.535  1.1817  0.4751 -0.8596
  777MOL0     C 2438   2.518   5.595   9.506  0.6626  0.7527  0.7614
  777MOL0     C 2439   2.567   5.462   9.513  0.0254 -0.7547  0.5875
  777MOL0     O 2440   2.700   5.441   9.507 -0.3317  0.6174 -0.2101
  777MOL0     C 2441   2.755   5.330   9.585 -0.4744 -0.2991  0.3981
  777MOL0     C 2442   2.902   5.319   9.550 -0.0095 -0.5354 -0.1036
  777MOL0     C 2443   2.976   5.461   9.541 -0.0069  1.0422  0.1252
  777MOL0     C 2444   3.132   5.428   9.534  0.8306 -1.1010  0.0856
  777MOL0     C 2445   3.186   5.355   9.410 -0.5183 -0.3288  0.5966
  777MOL0     C 2446   3.340   5.335   9.412 -0.3214 -0.2239 -0.2654
  777MOL0     C 2447   3.399   5.300   9.271  0.2499  0.2777 -1.4538
  777MOL0     C 2448   3.549   5.319   9.269  0.1977 -0.5000  1.0694
  777MOL0     N 2449   3.601   5.225   9.364 -0.2281  0.4505 -0.2457
  777MOL0     C 2450   3.625   5.089   9.346  0.1688  0.6997 -0.2284
  777MOL0     C 2451   3.699   5.058   9.459 -0.0949 -0.8581 -0.3462
  777MOL0     C 2452   3.752   4.927   9.498 -0.2157  0.4959  0.3606
  777MOL0     C 2453   3.682   4.801   9.432 -0.2750  0.1784 -0.1163
  777MOL0     C 2454   3.560   4.742   9.509  0.0553 -0.1276 -0.8843
  777MOL0     C 2455   3.440   4.834   9.507  0.2473  0.8077 -0.4777
  777MOL0     O 2456   3.372   4.856   9.385  0.0643  0.5227 -0.3349
  777MOL0     C 2457   3.246   4.900   9.384  0.7011 -0.3109 -1.0126
  777MOL0     C 2458   3.185   4.898   9.259 -0.1795  0.0411  0.1268
  777MOL0     C 2459   3.053   4.934   9.234 -0.0162  1.0487 -0.4025
  777MOL0     C 2460   2.978   4.978   9.339 -0.1922  0.0785 -0.0355
  777MOL0     C 2461   2.837   5.028   9.319  0.1772 -0.2439  0.3340
  777MOL0     O 2462   2.793   5.044   9.193  0.0366 -0.1664 -0.5962
  777MOL0     C 2463   2.683   5.120   9.166  0.6361  0.1755  0.3720
  777MOL0     C 2464   2.609   5.070   9.059 -0.8322  0.1875  1.5826
  777MOL0     C 2465   2.491   5.129   9.017  0.5165  0.2631 -0.0687
  777MOL0     C 2466   2.429   5.228   9.086 -0.7919 -0.9834 -0.2566
  777MOL0     O 2467   2.312   5.297   9.059 -0.1240 -1.0885 -0.1522
  777MOL0     C 2468   2.203   5.212   9.020 -0.4476  0.0197 -0.1479
  777MOL0     C 2469   2.076   5.286   8.975 -0.1512  0.1662  0.1730
  777MOL0     C 2470   1.956   5.208   8.984  0.8451 -1.1646  0.4346
  777MOL0     C 2471   1.837   5.298   8.958  1.5506 -0.5547  0.9216
  777MOL0     C 2472   1.718   5.211   8.945  0.5331  0.0405  0.5988
  777MOL0     C 2473   1.593   5.302   8.918  0.1048 -0.2826  0.2486
  777MOL0     C 2474   1.465   5.238   8.891 -1.3681 -0.2405  0.1687
  777MOL0     C 2475   1.413   5.141   8.997 -0.4739 -0.2462  0.1724
  777MOL0    Cl 2476   1.367   5.220   9.149  0.2144 -0.2207 -0.2536
  777MOL0     C 2477   2.501   5.279   9.193 -0.4135  0.8799  0.2845
  777MOL0     C 2478   2.629   5.228   9.231  0.4615 -0.3972  0.0032
  777MOL0     O 2479   2.766   5.045   9.417  0.7162 -0.5729 -0.3141
  777MOL0     C 2480   3.035   4.987   9.471  0.6567 -0.0549  0.2522
  777MOL0     C 2481   3.164   4.955   9.488 -0.2221 -0.1583 -0.1425
  777MOL0     N 2482   3.690   5.171   9.541 -0.8219 -0.1465  0.2091
  777MOL0     N 2483   3.644   5.271   9.478  0.6109  0.0861 -0.0081
  777MOL0     C 2484   2.477   5.355   9.543  0.3392 -0.5007 -0.2192
  777MOL0     C 2485   2.342   5.387   9.568 -1.1940  0.0138  0.1701
  777MOL0     C 2486   1.945   5.497   9.520 -0.1049  0.7847  0.0617
  777MOL0     C 2487   1.888   5.512   9.655  0.9828 -0.3472  0.3034
  777MOL0     C 2488   1.743   5.501   9.677 -0.3803  0.7857 -0.3208
  777MOL0     C 2489   1.664   5.464   9.570  1.1106  0.0512  0.3815
  777MOL0     O 2490   1.535   5.457   9.608 -0.3108 -0.0514 -0.1695
  777MOL0     C 2491   1.433   5.468   9.508 -0.3189 -0.7090 -0.3477
  777MOL0     C 2492   1.320   5.523   9.586  0.7155 -0.5107  1.0954
  777MOL0     C 2493   1.184   5.519   9.511 -0.3228 -0.2975  0.2167
  777MOL0     C 2494   1.177   5.587   9.374  0.6888  0.2935 -0.7818
  777MOL0     C 2495   1.204   5.728   9.396  0.0567 -0.2104 -0.4268
  777MOL0     C 2496   1.231   5.846   9.408 -0.1555  0.8875 -0.3362
  777MOL0     C 2497   1.718   5.457   9.438  0.1124  0.1683  1.0671
  777MOL0     C 2498   1.857   5.476   9.415  0.7667  0.6084  0.9105
  777MOL0     H 2499   2.353   5.721   9.529 -3.1357 -0.6861  0.2537
  777MOL0     H 2500   2.590   5.674   9.492 -0.6462  2.5242  3.2990
  777MOL0     H 2501   2.711   5.234   9.559 -0.5414  0.0612 -0.9029
  777MOL0     H 2502   2.749   5.358   9.691  2.3503  2.9646 -0.1184
  777MOL0     H 2503   2.909   5.261   9.457 -1.5733 -1.0577  0.0877
  777MOL0     H 2504   2.949   5.254   9.625 -1.5076 -1.9353 -0.3245
  777MOL0     H 2505   2.936   5.514   9.627 -1.8661  0.7040 -0.4802
  777MOL0     H 2506   2.935   5.519   9.458  1.2233  1.8036  0.0180
  777MOL0     H 2507   3.188   5.522   9.532  4.6861 -3.0918 -4.0452
  777MOL0     H 2508   3.156   5.375   9.627  0.0957 -1.7604 -0.0897
  777MOL0     H 2509   3.161   5.397   9.312 -0.3214 -3.8443 -1.1288
  777MOL0     H 2510   3.142   5.255   9.414 -3.2271  0.8122  1.2283
  777MOL0     H 2511   3.368   5.265   9.490  0.5881  0.4652  0.0467
  777MOL0     H 2512   3.383   5.429   9.448  1.5303 -1.5642  1.1472
  777MOL0     H 2513   3.380   5.194   9.251  2.2961 -0.9042  1.9796
  777MOL0     H 2514   3.349   5.364   9.197  0.6669 -0.1671 -2.1276
  777MOL0     H 2515   3.595   5.416   9.287  2.4157 -1.2205 -0.2391
  777MOL0     H 2516   3.584   5.292   9.169 -0.0477 -3.4844  1.6713
  777MOL0     H 2517   3.609   5.016   9.267  1.1949 -0.4871  0.6209
  777MOL0     H 2518   3.757   4.922   9.607  0.8692  2.9930  0.4963
  777MOL0     H 2519   3.857   4.930   9.465  0.2800 -0.3733  1.7809
  777MOL0     H 2520   3.761   4.724   9.432 -0.7832 -0.3524  0.2971
  777MOL0     H 2521   3.651   4.824   9.330 -0.2296  3.9055  0.6024
  777MOL0     H 2522   3.517   4.649   9.471  0.6081 -1.0121  0.5307
  777MOL0     H 2523   3.590   4.717   9.612 -0.4504 -1.9027 -1.1360
  777MOL0     H 2524   3.463   4.925   9.564  0.9651  1.4323 -1.7153
  777MOL0     H 2525   3.377   4.784   9.582  2.5585 -0.4339  0.7433
  777MOL0     H 2526   3.246   4.869   9.174  1.7588 -1.4970  1.9341
  777MOL0     H 2527   2.997   4.933   9.141 -0.4135  0.8707 -0.1592
  777MOL0     H 2528   2.641   4.991   8.992 -1.4402  4.3679 -4.5269
  777MOL0     H 2529   2.439   5.079   8.937 -1.6301  1.9993  0.1587
  777MOL0     H 2530   2.179   5.158   9.112  1.8071 -2.2196 -0.7673
  777MOL0     H 2531   2.230   5.136   8.946 -0.1446  1.7278 -1.8575
  777MOL0     H 2532   2.089   5.311   8.869 -1.0797 -0.1375 -0.0239
  777MOL0     H 2533   2.064   5.373   9.039 -2.5613  1.6221 -2.0408
  777MOL0     H 2534   1.942   5.165   9.084 -0.6566  1.1618  1.2967
  777MOL0     H 2535   1.962   5.133   8.905 -1.6264 -0.0286 -0.9371
  777MOL0     H 2536   1.822   5.362   9.045  0.8109 -0.0530  0.4391
  777MOL0     H 2537   1.853   5.350   8.863 -0.4137 -3.5708 -1.2586
  777MOL0     H 2538   1.706   5.149   9.034 -1.3676  1.4609  1.4098
  777MOL0     H 2539   1.733   5.144   8.860  1.6825 -1.6842  2.0810
  777MOL0     H 2540   1.609   5.371   8.835  4.0310 -1.1458  0.0906
  777MOL0     H 2541   1.590   5.371   9.002  0.4564 -2.6039  2.2652
  777MOL0     H 2542   1.392   5.317   8.874  2.0734  2.7381 -2.4244
  777MOL0     H 2543   1.472   5.187   8.795 -1.6416  0.7233 -0.3769
  777MOL0     H 2544   1.496   5.069   9.008  1.9273  2.5318  1.6773
  777MOL0     H 2545   1.326   5.080   8.969 -2.4392 -0.0430  4.9087
  777MOL0     H 2546   2.464   5.358   9.258 -1.3300  0.9779 -0.3330
  777MOL0     H 2547   2.688   5.263   9.315  0.3273  0.2108 -0.1445
  777MOL0     H 2548   2.988   5.032   9.558 -2.5301  0.4599 -1.6129
  777MOL0     H 2549   3.197   4.963   9.591 -0.1809  0.4684 -0.1968
  777MOL0     H 2550   2.493   5.247   9.543 -1.9926 -0.8973 -0.9697
  777MOL0     H 2551   2.270   5.307   9.581 -1.5182  0.1029 -0.9540
  777MOL0     H 2552   1.949   5.552   9.735  0.6385  1.0193 -0.0780
  777MOL0     H 2553   1.708   5.535   9.774  1.5246  1.1890  0.2762
  777MOL0     H 2554   1.414   5.372   9.459 -0.0399  0.6904 -3.4069
  777MOL0     H 2555   1.471   5.543   9.438  0.0677  0.9453  1.5520
  777MOL0     H 2556   1.302   5.467   9.678 -1.1819  1.7999  2.2313
  777MOL0     H 2557   1.349   5.622   9.621 -1.1308 -0.0460  1.3940
  777MOL0     H 2558   1.099   5.560   9.566 -1.7353 -0.7648 -1.5311
  777MOL0     H 2559   1.156   5.414   9.502  0.9264 -0.8492  2.0751
  777MOL0     H 2560   1.253   5.553   9.302  1.2953 -3.4583  1.4149
  777MOL0     H 2561   1.079   5.579   9.325 -0.6341 -1.9621  1.9411
  777MOL0     H 2562   1.261   5.948   9.420 -1.5447  1.1171  1.7403
  777MOL0     H 2563   1.656   5.439   9.351 -2.0079 -0.4719  2.6342
  777MOL0     H 2564   1.896   5.476   9.314 -0.5080 -0.6792  0.3774
  778MOL0     O 2565   6.758   0.130  10.692  0.0483  0.7955 -0.9141
  778MOL0     C 2566   6.810   0.062  10.608 -0.2949 -0.4736 -0.6422
  778MOL0     O 2567   6.758  -0.052  10.556 -0.2503  0.8908 -0.1682
  778MOL0     C 2568   6.646  -0.122  10.591  0.9012  0.9834  1.0535
  778MOL0     C 2569   6.611  -0.224  10.499  0.9995 -1.0932  0.0285
  778MOL0     C 2570   6.481  -0.283  10.512  0.2977  0.0882 -1.0581
  778MOL0     C 2571   6.383  -0.245  10.607  0.4441 -0.7136  0.4610
  778MOL0     O 2572   6.255  -0.289  10.595 -0.6133 -0.5713 -0.0251
  778MOL0     C 2573   6.175  -0.315  10.709  0.5882  0.0028 -0.8745
  778MOL0     C 2574   6.086  -0.448  10.708  0.0188  0.0208 -0.0895
  778MOL0     C 2575   6.178  -0.567  10.681  0.1426 -0.2976 -0.2332
  778MOL0     C 2576   6.102  -0.699  10.659  0.6188 -0.7118  0.5407
  778MOL0     C 2577   6.194  -0.822  10.644 -0.1144 -0.6293 -0.2985
  778MOL0     C 2578   6.261  -0.817  10.507  0.0113  0.0571 -0.3859
  778MOL0     C 2579   6.359  -0.942  10.483  0.1511 -0.5306  0.1625
  778MOL0     C 2580   6.447  -0.942  10.360  0.2664  0.6365 -0.0542
  778MOL0     N 2581   6.519  -1.074  10.342  0.0410 -0.1437  0.1296
  778MOL0     C 2582   6.482  -1.175  10.262  1.0269 -0.4956  0.3061
  778MOL0     C 2583   6.567  -1.278  10.271 -0.8945 -0.6984  0.1744
  778MOL0     C 2584   6.537  -1.424  10.227  1.3255 -0.0486 -1.0641
  778MOL0     C 2585   6.631  -1.530  10.283  1.5761  0.7156 -0.5724
  778MOL0     C 2586   6.624  -1.534  10.437 -0.2684 -0.6130  0.6711
  778MOL0     C 2587   6.676  -1.668  10.496  0.2771 -0.7774  0.2968
  778MOL0     O 2588   6.588  -1.783  10.501  0.1990  0.5831  0.4816
  778MOL0     C 2589   6.500  -1.767  10.604 -0.5109  0.0212  0.3763
  778MOL0     C 2590   6.366  -1.738  10.577  0.2244 -0.0598 -0.2539
  778MOL0     C 2591   6.267  -1.722  10.675  0.5817 -0.5022  0.1810
  778MOL0     C 2592   6.309  -1.732  10.815  0.2236 -0.3168  0.0440
  778MOL0     C 2593   6.209  -1.728  10.927 -0.0764  0.0955  0.1586
  778MOL0     O 2594   6.070  -1.720  10.888 -0.0953  0.3769 -0.2936
  778MOL0     C 2595   5.962  -1.696  10.968  0.7095 -0.9513  0.0133
  778MOL0     C 2596   5.843  -1.718  10.911  0.0261 -1.2116  0.6091
  778MOL0     C 2597   5.725  -1.679  10.972 -0.8393 -0.0660  0.4317
  778MOL0     C 2598   5.709  -1.624  11.099 -0.8986 -0.1981  0.4832
  778MOL0     O 2599   5.597  -1.592  11.170  0.1638  0.1030 -0.6321
  778MOL0     C 2600   5.463  -1.603  11.117 -0.5282  0.1726 -0.0088
  778MOL0     C 2601   5.381  -1.650  11.243  0.3937 -0.8203  0.4507
  778MOL0     C 2602   5.237  -1.689  11.200 -0.6644  0.7425 -0.1574
  778MOL0     C 2603   5.154  -1.723  11.327 -0.2546  0.0425 -0.4452
  778MOL0     C 2604   5.000  -1.717  11.297 -1.1704  0.6696  0.3660
  778MOL0     C 2605   4.914  -1.711  11.426 -0.1290 -0.9142  0.1767
  778MOL0     C 2606   4.775  -1.640  11.388  0.4961  0.1717  0.5477
  778MOL0     C 2607   4.657  -1.707  11.461 -0.2722  0.2536 -0.3527
  778MOL0    Cl 2608   4.655  -1.657  11.634 -0.2060  0.1210  0.2387
  778MOL0     C 2609   5.838  -1.591  11.158  0.4487 -0.2167  0.9389
  778MOL0     C 2610   5.964  -1.632  11.096  0.6424  0.4687 -0.7743
  778MOL0     O 2611   6.242  -1.721  11.042 -0.0356  0.0096 -0.5070
  778MOL0     C 2612   6.448  -1.754  10.845  0.1094 -0.0369  0.1094
  778MOL0     C 2613   6.541  -1.779  10.737  0.2141 -0.3971 -0.2726
  778MOL0     N 2614   6.662  -1.223  10.354  0.0963  0.4005 -0.5762
  778MOL0     N 2615   6.637  -1.102  10.390 -0.1736 -0.1475  0.4471
  778MOL0     C 2616   6.418  -0.137  10.698 -0.3692  0.8109  0.1802
  778MOL0     C 2617   6.548  -0.088  10.693  0.1519 -0.2230  0.4439
  778MOL0     C 2618   6.949   0.100  10.561  0.2301  0.0951  0.3967
  778MOL0     C 2619   7.022   0.002  10.494  0.0217  0.9532  0.7817
  778MOL0     C 2620   7.153   0.020  10.452 -1.1016  0.1090  1.1795
  778MOL0     C 2621   7.214   0.142  10.481  0.1172  0.2075  0.1887
  778MOL0     O 2622   7.351   0.158  10.451  0.3312  0.1427  0.3877
  778MOL0     C 2623   7.424   0.052  10.394 -0.1579 -0.5334  0.0449
  778MOL0     C 2624   7.567   0.093  10.387 -0.1498  0.1428 -0.0778
  778MOL0     C 2625   7.622   0.137  10.519 -0.4285  0.2960 -0.0639
  778MOL0     C 2626   7.772   0.170  10.511  0.7280  0.3023  0.4148
  778MOL0     C 2627   7.859   0.065  10.464  0.1619 -0.5773 -0.3070
  778MOL0     C 2628   7.932  -0.015  10.410 -0.3648 -0.1372 -0.2491
  778MOL0     C 2629   7.139   0.240  10.531 -0.2456 -0.4804 -0.3042
  778MOL0     C 2630   7.004   0.228  10.579  0.5157  0.5870  0.6257
  778MOL0     H 2631   6.686  -0.246  10.423 -2.1792 -2.0148 -3.0933
  778MOL0     H 2632   6.445  -0.357  10.441 -0.7853  0.0590 -0.4981
  778MOL0     H 2633   6.113  -0.228  10.732  2.2624  0.9346  0.2994
  778MOL0     H 2634   6.240  -0.334  10.795  0.7843  2.6295 -0.3527
  778MOL0     H 2635   6.012  -0.443  10.627 -0.4033  1.4918  0.3407
  778MOL0     H 2636   6.040  -0.469  10.804 -0.8303 -1.6375 -0.8175
  778MOL0     H 2637   6.252  -0.583  10.760  0.5521  0.6049 -0.4150
  778MOL0     H 2638   6.228  -0.543  10.587 -1.0377 -0.6762 -0.9696
  778MOL0     H 2639   6.032  -0.718  10.741  0.4152 -0.2214  0.4810
  778MOL0     H 2640   6.038  -0.685  10.572  0.9561  2.8085  0.7088
  778MOL0     H 2641   6.126  -0.906  10.663 -0.0027 -0.3026  1.8746
  778MOL0     H 2642   6.270  -0.823  10.723 -0.5569 -0.3071  0.1452
  778MOL0     H 2643   6.311  -0.720  10.501 -0.9380  0.7327  1.5869
  778MOL0     H 2644   6.183  -0.816  10.430 -0.2363  2.1758 -0.1650
  778MOL0     H 2645   6.433  -0.949  10.563 -0.0560 -1.1388  0.3057
  778MOL0     H 2646   6.300  -1.034  10.480 -0.8883  0.1018  0.5378
  778MOL0     H 2647   6.515  -0.857  10.373 -0.5410  1.1232  1.1788
  778MOL0     H 2648   6.390  -0.919  10.270  0.9141  1.4108 -0.2793
  778MOL0     H 2649   6.389  -1.172  10.207  1.1925 -1.7887 -0.0995
  778MOL0     H 2650   6.541  -1.428  10.117 -0.4171 -0.4033 -1.1408
  778MOL0     H 2651   6.432  -1.436  10.255  1.2744  2.8006  0.3100
  778MOL0     H 2652   6.728  -1.500  10.243  1.0116  1.3632 -1.4765
  778MOL0     H 2653   6.609  -1.629  10.242  3.8781  0.3872 -1.1249
  778MOL0     H 2654   6.682  -1.450  10.476  1.4491 -0.9890 -0.9661
  778MOL0     H 2655   6.524  -1.520  10.481  1.2903  5.2978  3.2683
  778MOL0     H 2656   6.725  -1.646  10.591  1.3971  1.4246 -0.6999
  778MOL0     H 2657   6.758  -1.702  10.431  0.1206  0.9519 -0.8696
  778MOL0     H 2658   6.342  -1.745  10.471  2.8542 -0.8293 -0.8662
  778MOL0     H 2659   6.163  -1.709  10.650  0.5508 -2.0601 -0.6110
  778MOL0     H 2660   5.834  -1.752  10.809 -1.3723  0.1244  0.2448
  778MOL0     H 2661   5.633  -1.692  10.915  0.8352 -1.7075 -2.0655
  778MOL0     H 2662   5.454  -1.682  11.042 -1.2497 -1.0046  1.2697
  778MOL0     H 2663   5.438  -1.503  11.081  4.3844  2.6360  2.4087
  778MOL0     H 2664   5.366  -1.569  11.315  0.1459 -0.1834 -0.3202
  778MOL0     H 2665   5.433  -1.734  11.291  2.2741  0.3637  0.5875
  778MOL0     H 2666   5.241  -1.780  11.140 -0.8380 -0.3767  1.4724
  778MOL0     H 2667   5.188  -1.607  11.147 -0.4436 -0.0627 -1.6569
  778MOL0     H 2668   5.186  -1.818  11.372 -0.4784 -0.1798 -0.7447
  778MOL0     H 2669   5.172  -1.646  11.402 -3.8684  1.4675 -0.8576
  778MOL0     H 2670   4.968  -1.798  11.231  0.7938 -2.7316  3.2578
  778MOL0     H 2671   4.983  -1.620  11.249 -2.5787  2.2082  3.6380
  778MOL0     H 2672   4.958  -1.658  11.511 -0.2546  1.7314 -1.2836
  778MOL0     H 2673   4.889  -1.815  11.451 -2.7023 -0.0530  1.5619
  778MOL0     H 2674   4.783  -1.533  11.409 -1.0400  0.6850 -1.2332
  778MOL0     H 2675   4.758  -1.658  11.281 -0.5647  2.3301  0.2946
  778MOL0     H 2676   4.675  -1.813  11.441  0.4393  0.5432 -1.3394
  778MOL0     H 2677   4.559  -1.682  11.419 -0.9367 -3.8366 -1.7049
  778MOL0     H 2678   5.829  -1.565  11.264 -1.6110 -0.7910  0.9455
  778MOL0     H 2679   6.059  -1.622  11.147  0.4013  0.9916 -0.4185
  778MOL0     H 2680   6.480  -1.765  10.948  2.2744  2.5891 -0.1715
  778MOL0     H 2681   6.644  -1.798  10.766  0.8989 -0.4158 -2.5460
  778MOL0     H 2682   6.335  -0.107  10.761 -1.5894 -2.6754  0.4913
  778MOL0     H 2683   6.573  -0.013  10.768  3.2013 -1.1548  0.5173
  778MOL0     H 2684   6.976  -0.093  10.471 -0.4282  0.7745  2.2978
  778MOL0     H 2685   7.209  -0.061  10.404 -0.7151  1.9134 -1.6321
  778MOL0     H 2686   7.390   0.041  10.290  2.4269  0.9661 -1.0546
  778MOL0     H 2687   7.421  -0.041  10.452 -0.2930 -1.3198 -1.1887
  778MOL0     H 2688   7.621   0.007  10.344 -0.6889  0.2537 -1.0100
  778MOL0     H 2689   7.580   0.168  10.309 -0.3456 -1.5136 -1.7935
  778MOL0     H 2690   7.600   0.051  10.582 -0.8527  1.7082  1.8177
  778MOL0     H 2691   7.562   0.221  10.556  0.4337  0.5080  0.8695
  778MOL0     H 2692   7.781   0.251  10.439 -1.4927 -0.2786 -0.6193
  778MOL0     H 2693   7.810   0.207  10.606 -2.0289  0.2261  1.6568
  778MOL0     H 2694   7.990  -0.098  10.374  0.7850  0.8081 -0.6281
  778MOL0     H 2695   7.193   0.333  10.537 -2.2694  0.9977 -2.7155
  778MOL0     H 2696   6.964   0.298  10.652 -0.0738  1.0933 -0.1495
  779MOL0     O 2697   3.506   6.607   7.146  0.2417 -0.3889  0.8318
  779MOL0     C 2698   3.501   6.532   7.238 -0.0981 -0.3176 -0.3225
  779MOL0     O 2699   3.409   6.544   7.344 -0.0870 -0.0962 -0.2573
  779MOL0     C 2700   3.307   6.637   7.366 -1.2301 -0.1714 -1.0470
  779MOL0     C 2701   3.205   6.599   7.455 -0.1239  0.2464  0.9713
  779MOL0     C 2702   3.096   6.684   7.498 -0.6652  0.5009 -1.0322
  779MOL0     C 2703   3.096   6.811   7.446 -0.6104  0.3201 -0.0808
  779MOL0     O 2704   2.982   6.899   7.465 -0.8436 -0.4689  0.1842
  779MOL0     C 2705   2.849   6.839   7.482 -0.1747 -0.8719  1.1912
  779MOL0     C 2706   2.776   6.932   7.572  0.0524 -0.5589 -0.8176
  779MOL0     C 2707   2.641   6.891   7.620  0.0325  0.9467 -0.6440
  779MOL0     C 2708   2.590   6.980   7.735  0.0904  0.8226 -0.6301
  779MOL0     C 2709   2.440   6.971   7.752 -0.0949 -0.1217 -1.0835
  779MOL0     C 2710   2.379   7.060   7.639 -0.2934  0.6493  0.1173
  779MOL0     C 2711   2.238   7.085   7.680  0.1397  0.9000 -0.7866
  779MOL0     C 2712   2.231   7.191   7.797 -0.0974  0.4079 -0.1509
  779MOL0     N 2713   2.107   7.269   7.799  0.0952 -0.0318 -0.1577
  779MOL0     C 2714   2.076   7.369   7.709 -0.2894 -0.6389  0.2980
  779MOL0     C 2715   1.938   7.390   7.723  0.0534 -0.1165  0.5659
  779MOL0     C 2716   1.851   7.486   7.643 -0.2777 -0.5327  1.2295
  779MOL0     C 2717   1.698   7.460   7.668 -0.8442 -0.0565  0.5441
  779MOL0     C 2718   1.611   7.569   7.589  0.8502  0.1483 -0.1464
  779MOL0     C 2719   1.468   7.536   7.604 -0.0432 -0.3227  0.5042
  779MOL0     O 2720   1.429   7.397   7.565 -0.3242  0.3999 -0.9588
  779MOL0     C 2721   1.411   7.365   7.436  0.2091  0.5167  0.3521
  779MOL0     C 2722   1.454   7.433   7.318 -0.4226  0.8538 -0.4747
  779MOL0     C 2723   1.424   7.387   7.189  0.5889  0.3247  0.3302
  779MOL0     C 2724   1.338   7.274   7.172 -0.6374 -1.1107 -0.3373
  779MOL0     C 2725   1.280   7.235   7.033  0.7306  0.7014 -0.6037
  779MOL0     O 2726   1.192   7.127   7.027 -0.0121  0.5366  0.0445
  779MOL0     C 2727   1.133   7.083   6.911 -0.0891  0.1161 -0.1525
  779MOL0     C 2728   1.110   7.153   6.784  1.0391 -1.2304  0.7146
  779MOL0     C 2729   1.041   7.092   6.678  0.5000 -0.0779  0.7545
  779MOL0     C 2730   0.997   6.960   6.688  0.1690  0.2430 -0.0754
  779MOL0     O 2731   0.923   6.923   6.579  0.1910  0.4001  0.3358
  779MOL0     C 2732   0.897   6.781   6.580 -0.1468 -0.3821 -0.1895
  779MOL0     C 2733   0.824   6.736   6.459 -0.1513  0.1990  0.8572
  779MOL0     C 2734   0.898   6.744   6.332 -0.9173 -0.9385 -0.2201
  779MOL0     C 2735   0.911   6.878   6.257 -0.5857  0.1980  0.3189
  779MOL0     C 2736   1.024   6.884   6.158 -0.5653 -0.4113  0.0386
  779MOL0     C 2737   1.009   6.783   6.042 -0.9904 -0.9479  0.4591
  779MOL0     C 2738   1.131   6.770   5.954  0.3448  0.7553 -0.8526
  779MOL0     C 2739   1.103   6.683   5.841  0.0436 -0.1127 -0.1452
  779MOL0    Cl 2740   1.056   6.511   5.879 -0.0569  0.0193 -0.0886
  779MOL0     C 2741   1.013   6.896   6.815  0.5902  1.1779  0.4274
  779MOL0     C 2742   1.079   6.958   6.921  0.2242  0.6057 -0.3929
  779MOL0     O 2743   1.307   7.302   6.937 -0.1050 -0.3541 -0.2403
  779MOL0     C 2744   1.296   7.206   7.290 -1.0525  0.1836 -0.0961
  779MOL0     C 2745   1.338   7.244   7.415  0.1059 -0.3913 -0.2539
  779MOL0     N 2746   1.890   7.294   7.809  0.4081 -0.1973 -0.1338
  779MOL0     N 2747   1.989   7.216   7.857  0.1105  0.4429  1.0758
  779MOL0     C 2748   3.185   6.845   7.340 -0.4525  0.3682 -0.4975
  779MOL0     C 2749   3.293   6.761   7.306  0.1205  0.4548 -1.3011
  779MOL0     C 2750   3.598   6.420   7.244  0.0791  1.8257  0.1981
  779MOL0     C 2751   3.577   6.309   7.328  0.4841  0.3055 -0.6183
  779MOL0     C 2752   3.669   6.204   7.333  0.5801 -0.0364 -0.0273
  779MOL0     C 2753   3.787   6.211   7.258 -0.4384 -0.0157 -0.3090
  779MOL0     O 2754   3.872   6.108   7.267 -0.2109  0.1963  0.2293
  779MOL0     C 2755   4.017   6.119   7.246  0.0377 -0.9700 -0.6062
  779MOL0     C 2756   4.093   6.070   7.367 -0.3119  0.2399  0.5118
  779MOL0     C 2757   4.233   6.008   7.340 -0.7990  0.4761 -0.2583
  779MOL0     C 2758   4.328   6.126   7.314 -0.0590 -0.7446  0.8154
  779MOL0     C 2759   4.470   6.090   7.326  0.9603 -0.4826 -0.6581
  779MOL0     C 2760   4.586   6.066   7.346  0.4475 -0.5759 -0.1575
  779MOL0     C 2761   3.816   6.321   7.177 -0.0173 -0.5022  0.1997
  779MOL0     C 2762   3.720   6.417   7.170 -0.4263 -0.1280  0.3958
  779MOL0     H 2763   3.199   6.500   7.498  0.6001 -2.0903 -3.6988
  779MOL0     H 2764   3.032   6.639   7.573  1.9960  0.5191  1.4256
  779MOL0     H 2765   2.839   6.732   7.501  1.5158 -1.0737  1.1494
  779MOL0     H 2766   2.815   6.836   7.379  0.9452 -3.2326  0.8126
  779MOL0     H 2767   2.774   7.030   7.524 -0.8050 -1.1482 -2.0319
  779MOL0     H 2768   2.840   6.953   7.658  0.4932 -1.6814 -0.8549
  779MOL0     H 2769   2.643   6.787   7.653  1.5836  0.8511 -0.9473
  779MOL0     H 2770   2.564   6.890   7.543 -0.0514 -2.5696 -0.6922
  779MOL0     H 2771   2.643   6.957   7.828  0.8542  1.2745 -0.9423
  779MOL0     H 2772   2.624   7.083   7.724 -0.6657  1.0595 -0.7887
  779MOL0     H 2773   2.428   7.001   7.856 -1.4359 -0.3332 -1.1640
  779MOL0     H 2774   2.402   6.869   7.749  0.6175 -0.4271 -0.2023
  779MOL0     H 2775   2.383   7.014   7.540 -1.2499  1.3467 -0.2591
  779MOL0     H 2776   2.428   7.158   7.631  1.4665 -0.1807  0.3758
  779MOL0     H 2777   2.182   7.120   7.593 -3.8595 -1.3627  0.5885
  779MOL0     H 2778   2.172   7.000   7.701 -0.9197  1.9478  0.2723
  779MOL0     H 2779   2.318   7.257   7.800 -0.7490  1.5627 -3.1589
  779MOL0     H 2780   2.246   7.132   7.888  0.2742  0.2750 -0.2946
  779MOL0     H 2781   2.148   7.417   7.644 -2.0490  0.5439 -0.8644
  779MOL0     H 2782   1.867   7.462   7.538 -0.8012  0.7786  0.8263
  779MOL0     H 2783   1.891   7.587   7.656  1.1019 -0.9078  0.1262
  779MOL0     H 2784   1.684   7.482   7.775  1.6367  2.4464  0.4614
  779MOL0     H 2785   1.675   7.354   7.653  1.3078 -0.3796 -0.8188
  779MOL0     H 2786   1.613   7.671   7.628 -4.5569  1.2457 -1.9552
  779MOL0     H 2787   1.636   7.567   7.482 -5.4229 -1.7234 -2.0088
  779MOL0     H 2788   1.401   7.595   7.541 -0.4594 -1.7225 -0.4086
  779MOL0     H 2789   1.436   7.547   7.708 -2.4252 -2.3730  0.0761
  779MOL0     H 2790   1.534   7.506   7.326 -0.6578  1.0981 -0.3004
  779MOL0     H 2791   1.470   7.435   7.103  3.0413 -0.5543  1.0513
  779MOL0     H 2792   1.134   7.257   6.766  0.1767 -1.1194  0.1763
  779MOL0     H 2793   1.013   7.145   6.588 -1.8911 -0.3638  1.2528
  779MOL0     H 2794   0.842   6.750   6.669  1.1402  0.6791  1.0409
  779MOL0     H 2795   0.990   6.723   6.580 -0.8423 -1.7417  3.0770
  779MOL0     H 2796   0.734   6.796   6.446  0.0092  0.0050 -1.4640
  779MOL0     H 2797   0.784   6.635   6.472 -1.8699 -0.4301 -5.8732
  779MOL0     H 2798   0.837   6.684   6.265  0.2117 -1.0476 -1.1829
  779MOL0     H 2799   0.997   6.697   6.338  0.5690  1.7525 -1.8994
  779MOL0     H 2800   0.821   6.896   6.199 -1.0786 -1.9100  0.3354
  779MOL0     H 2801   0.927   6.954   6.334 -2.7699  0.9974  0.0393
  779MOL0     H 2802   1.123   6.872   6.203 -0.5960 -0.2524  0.1490
  779MOL0     H 2803   1.034   6.987   6.121 -2.0031 -0.2925 -0.0703
  779MOL0     H 2804   0.940   6.835   5.975  0.2320  2.3859  1.6143
  779MOL0     H 2805   0.964   6.687   6.070 -0.4429 -1.7728 -1.2906
  779MOL0     H 2806   1.165   6.869   5.922  1.0345  0.4645 -1.0360
  779MOL0     H 2807   1.216   6.733   6.011 -0.1954  2.1281  0.9487
  779MOL0     H 2808   1.202   6.686   5.795 -0.3051 -3.2999 -1.3683
  779MOL0     H 2809   1.034   6.719   5.764 -1.8139 -0.0188  1.4952
  779MOL0     H 2810   0.966   6.799   6.829  2.1287  0.2504 -0.5593
  779MOL0     H 2811   1.083   6.899   7.012 -3.0017  0.8233 -0.0017
  779MOL0     H 2812   1.244   7.112   7.279  2.9296 -2.1214 -1.5212
  779MOL0     H 2813   1.319   7.186   7.505  2.3964 -1.7591 -0.5727
  779MOL0     H 2814   3.169   6.932   7.277  0.1700  1.5146  0.8848
  779MOL0     H 2815   3.361   6.810   7.237  1.3635 -0.7067 -0.9276
  779MOL0     H 2816   3.475   6.305   7.365  0.4633 -3.6071 -0.7482
  779MOL0     H 2817   3.646   6.110   7.383  1.3995  0.5528  1.5282
  779MOL0     H 2818   4.047   6.223   7.235  3.6181 -1.7719  0.0784
  779MOL0     H 2819   4.062   6.081   7.154  1.3446  6.2392 -3.5647
  779MOL0     H 2820   4.103   6.137   7.453  4.6534 -0.8086  1.0312
  779MOL0     H 2821   4.032   5.986   7.401  1.1938 -1.6272 -1.1591
  779MOL0     H 2822   4.238   5.944   7.251 -0.3903  3.7928 -2.8070
  779MOL0     H 2823   4.268   5.955   7.429  0.0566  0.5650 -0.5283
  779MOL0     H 2824   4.303   6.165   7.215 -0.8820 -0.5078  1.1070
  779MOL0     H 2825   4.306   6.213   7.378  1.6180  1.0843 -0.9721
  779MOL0     H 2826   4.690   6.056   7.369  1.2933 -0.4821 -3.4639
  779MOL0     H 2827   3.913   6.344   7.134 -1.7580  4.1542 -1.8822
  779MOL0     H 2828   3.736   6.497   7.098 -0.9912 -0.2388  0.1414
  780MOL0     O 2829   0.608   2.530   4.321  0.3855 -0.3827 -0.4020
  780MOL0     C 2830   0.640   2.599   4.412  0.0966  0.4037  0.6754
  780MOL0     O 2831   0.770   2.634   4.429  0.4166  0.6701 -0.6806
  780MOL0     C 2832   0.875   2.601   4.345 -0.2932  0.2176  0.4894
  780MOL0     C 2833   0.860   2.582   4.202 -0.2866  0.5191 -0.4382
  780MOL0     C 2834   0.977   2.556   4.118  1.3830  0.2123 -0.5099
  780MOL0     C 2835   1.098   2.559   4.179 -0.6734 -1.2457  0.0036
  780MOL0     O 2836   1.208   2.544   4.091 -0.0389  0.3296  0.3750
  780MOL0     C 2837   1.349   2.567   4.133  0.4391  0.2005 -0.4732
  780MOL0     C 2838   1.453   2.556   4.016  0.0027  0.0024 -0.3232
  780MOL0     C 2839   1.481   2.408   3.983 -0.0476  0.2237 -0.0332
  780MOL0     C 2840   1.514   2.397   3.832  0.8245  0.0129  0.1000
  780MOL0     C 2841   1.657   2.432   3.794  0.5577 -0.5603 -0.4045
  780MOL0     C 2842   1.746   2.313   3.825 -0.0778 -0.0571  0.4664
  780MOL0     C 2843   1.893   2.336   3.802 -1.2406 -0.2223 -0.8701
  780MOL0     C 2844   1.959   2.430   3.903  0.2813  0.6787 -0.1651
  780MOL0     N 2845   2.097   2.470   3.867  0.0537  0.1761  0.3843
  780MOL0     C 2846   2.205   2.400   3.904  0.5633  0.2256 -0.4455
  780MOL0     C 2847   2.312   2.473   3.867  0.1698 -0.2424  0.4586
  780MOL0     C 2848   2.457   2.427   3.881  0.5023  0.5710 -0.1742
  780MOL0     C 2849   2.533   2.443   4.015 -0.1298 -0.1446  0.3916
  780MOL0     C 2850   2.504   2.324   4.102  0.5650 -0.3549  0.3226
  780MOL0     C 2851   2.454   2.379   4.234  0.3945  0.9691  1.1923
  780MOL0     O 2852   2.430   2.271   4.323 -0.5011 -0.5624  0.2126
  780MOL0     C 2853   2.300   2.239   4.357  0.2388  0.0406  0.6368
  780MOL0     C 2854   2.173   2.276   4.292  0.1431  0.8505  0.5496
  780MOL0     C 2855   2.060   2.227   4.357  0.8203 -0.3515 -1.1135
  780MOL0     C 2856   2.057   2.140   4.457 -0.5762  0.0306  0.0008
  780MOL0     C 2857   1.921   2.090   4.510  0.2562 -0.8502  0.0647
  780MOL0     O 2858   1.918   2.001   4.614 -0.2673 -0.2458  0.2416
  780MOL0     C 2859   1.791   1.969   4.659 -0.9643  1.2051 -0.2995
  780MOL0     C 2860   1.736   2.025   4.775  0.2665 -1.3289  0.2237
  780MOL0     C 2861   1.603   1.994   4.796 -0.5761 -0.0443  0.8242
  780MOL0     C 2862   1.523   1.914   4.721 -0.2843  0.0646  0.2227
  780MOL0     O 2863   1.394   1.903   4.757  0.5151  0.3365 -0.2339
  780MOL0     C 2864   1.294   1.835   4.680  0.7301  0.4788 -0.3385
  780MOL0     C 2865   1.154   1.875   4.714  0.4767  0.2291 -0.5401
  780MOL0     C 2866   1.052   1.769   4.678  0.2434  0.8997 -0.1099
  780MOL0     C 2867   0.910   1.816   4.671  0.4630  0.1013 -0.0149
  780MOL0     C 2868   0.859   1.879   4.804 -0.2078 -0.3218  0.1085
  780MOL0     C 2869   0.888   1.801   4.928 -0.3944 -0.0597  0.5968
  780MOL0     C 2870   0.799   1.862   5.041 -0.3360 -0.4281 -0.3078
  780MOL0     C 2871   0.857   1.844   5.175 -0.7043 -0.3708 -0.4054
  780MOL0    Cl 2872   0.725   1.855   5.292  0.4539 -0.0281 -0.5755
  780MOL0     C 2873   1.581   1.852   4.606 -0.3048 -0.0479  0.6186
  780MOL0     C 2874   1.720   1.883   4.576  0.2262  1.2283  0.8016
  780MOL0     O 2875   1.818   2.142   4.459 -0.4307  0.0156  0.8240
  780MOL0     C 2876   2.179   2.092   4.508 -0.0880 -0.3741  0.5687
  780MOL0     C 2877   2.296   2.145   4.457  0.4600  1.0476 -0.4972
  780MOL0     N 2878   2.264   2.586   3.804 -0.7116  0.5465 -0.1355
  780MOL0     N 2879   2.131   2.582   3.813 -0.7837 -0.4400  0.5722
  780MOL0     C 2880   1.121   2.590   4.314 -0.1320 -0.4101 -0.4866
  780MOL0     C 2881   1.005   2.604   4.396  0.2024  0.1015  0.1701
  780MOL0     C 2882   0.534   2.653   4.501 -0.6915  0.2374  0.6789
  780MOL0     C 2883   0.424   2.569   4.526  0.8967 -1.2649 -0.6165
  780MOL0     C 2884   0.318   2.632   4.600 -0.7303  0.5313 -0.2970
  780MOL0     C 2885   0.334   2.757   4.664  0.6656 -0.0928  0.2945
  780MOL0     O 2886   0.237   2.813   4.737  0.6693 -0.7996  1.1207
  780MOL0     C 2887   0.139   2.733   4.795  0.5751  0.3087 -0.1707
  780MOL0     C 2888   0.043   2.828   4.855  0.2993 -0.2202  0.2270
  780MOL0     C 2889  -0.066   2.761   4.934  0.3985 -0.7921 -0.2911
  780MOL0     C 2890  -0.021   2.669   5.051  0.0622  0.1423  0.2327
  780MOL0     C 2891  -0.132   2.633   5.133  0.6478  0.1653  0.5364
  780MOL0     C 2892  -0.234   2.606   5.185 -0.6864 -0.1950 -0.4548
  780MOL0     C 2893   0.446   2.836   4.641  0.5990 -0.3213  0.4058
  780MOL0     C 2894   0.545   2.780   4.553  0.1157  0.0821 -0.1552
  780MOL0     H 2895   0.763   2.598   4.158 -0.0749  1.7888 -0.4609
  780MOL0     H 2896   0.963   2.541   4.012 -2.1867 -1.3003  0.0532
  780MOL0     H 2897   1.378   2.493   4.208 -1.5218  0.3155  0.4649
  780MOL0     H 2898   1.359   2.668   4.174  0.4084  0.9809 -2.3096
  780MOL0     H 2899   1.548   2.599   4.049  0.1016 -0.0969 -0.4793
  780MOL0     H 2900   1.418   2.609   3.927 -1.0900 -3.0366 -1.8556
  780MOL0     H 2901   1.396   2.344   4.008  0.2452 -0.0179  0.3369
  780MOL0     H 2902   1.570   2.373   4.035  0.8824 -0.0904 -1.7619
  780MOL0     H 2903   1.483   2.299   3.794 -0.1030  0.2473  0.2323
  780MOL0     H 2904   1.462   2.467   3.766  2.2945 -2.0107 -3.4348
  780MOL0     H 2905   1.683   2.527   3.842 -0.3648 -0.1933 -0.6111
  780MOL0     H 2906   1.665   2.446   3.686  2.4219 -2.2703 -0.5462
  780MOL0     H 2907   1.716   2.224   3.769 -1.2437  1.6074 -1.7020
  780MOL0     H 2908   1.736   2.294   3.932  0.2470  1.7322  0.8489
  780MOL0     H 2909   1.944   2.240   3.814 -3.3296 -1.3475 -0.5043
  780MOL0     H 2910   1.922   2.378   3.706  1.3179  3.1410  1.1531
  780MOL0     H 2911   1.958   2.382   4.002 -2.7855 -1.1915 -0.9619
  780MOL0     H 2912   1.902   2.523   3.904  3.9594  3.1354  0.5194
  780MOL0     H 2913   2.202   2.308   3.961 -1.6155  0.1429 -0.5808
  780MOL0     H 2914   2.516   2.486   3.810 -2.9531  5.1241  0.2683
  780MOL0     H 2915   2.464   2.319   3.867  3.9246  0.4514  1.4322
  780MOL0     H 2916   2.505   2.535   4.068  0.1501  1.6189 -2.3044
  780MOL0     H 2917   2.639   2.454   3.992  0.0869 -2.6818 -0.1093
  780MOL0     H 2918   2.425   2.259   4.062 -1.3625  1.0251  1.6798
  780MOL0     H 2919   2.590   2.264   4.132  2.2517  1.6416 -0.2272
  780MOL0     H 2920   2.371   2.446   4.210 -1.3823 -1.6744 -0.6245
  780MOL0     H 2921   2.533   2.437   4.283 -0.4134  2.3886  0.8483
  780MOL0     H 2922   2.172   2.333   4.199  0.5740 -4.0653 -2.9067
  780MOL0     H 2923   1.964   2.261   4.321  0.1080 -1.1748 -0.0504
  780MOL0     H 2924   1.788   2.099   4.835 -1.0483 -1.1650  1.1890
  780MOL0     H 2925   1.562   2.033   4.889 -0.1481 -0.3883  1.1623
  780MOL0     H 2926   1.301   1.727   4.694 -4.0116 -0.0627 -0.2381
  780MOL0     H 2927   1.312   1.853   4.573 -1.4717 -2.0346 -1.2686
  780MOL0     H 2928   1.129   1.956   4.646 -0.6941 -1.9105 -2.8392
  780MOL0     H 2929   1.147   1.898   4.821  2.8050  0.0233 -0.2867
  780MOL0     H 2930   1.053   1.687   4.751  2.0562 -1.8055 -2.9578
  780MOL0     H 2931   1.088   1.740   4.579  0.4110  2.2099 -0.4611
  780MOL0     H 2932   0.900   1.885   4.586  2.2948  1.4382  0.7812
  780MOL0     H 2933   0.844   1.732   4.649  2.3450 -1.3059 -0.4494
  780MOL0     H 2934   0.752   1.901   4.801 -0.0912  0.2233 -2.6159
  780MOL0     H 2935   0.909   1.975   4.818  1.3291 -1.3756  2.7281
  780MOL0     H 2936   0.994   1.805   4.954 -0.3526  0.6527  0.3334
  780MOL0     H 2937   0.872   1.693   4.919 -1.6465  0.2352 -1.3837
  780MOL0     H 2938   0.788   1.970   5.026 -1.5358 -0.1912  1.9673
  780MOL0     H 2939   0.699   1.819   5.036  0.0394 -1.4347  0.4748
  780MOL0     H 2940   0.941   1.911   5.196 -0.0089 -1.2559 -0.3114
  780MOL0     H 2941   0.894   1.741   5.177  1.7693  0.4231  2.1692
  780MOL0     H 2942   1.528   1.788   4.537 -0.5768 -0.8045  1.5106
  780MOL0     H 2943   1.777   1.830   4.499 -0.2548  2.1204 -0.1969
  780MOL0     H 2944   2.180   2.019   4.588  0.0919 -1.1467 -0.1278
  780MOL0     H 2945   2.387   2.115   4.507 -2.0406  1.0296  4.6951
  780MOL0     H 2946   1.221   2.598   4.354 -0.4509 -0.7561  0.4158
  780MOL0     H 2947   1.018   2.640   4.497 -0.2212 -3.9511  1.8790
  780MOL0     H 2948   0.409   2.469   4.486 -1.2054 -1.1722 -0.1488
  780MOL0     H 2949   0.223   2.583   4.614  0.0342 -0.5788  1.3515
  780MOL0     H 2950   0.173   2.676   4.882  1.2640  0.9867  0.0178
  780MOL0     H 2951   0.088   2.663   4.728 -0.3996  2.2246 -1.5070
  780MOL0     H 2952   0.103   2.890   4.923  2.4800 -1.1975 -0.7332
  780MOL0     H 2953  -0.003   2.895   4.782  0.2650 -2.4685 -1.9472
  780MOL0     H 2954  -0.124   2.698   4.866 -0.7740  0.4582 -0.4946
  780MOL0     H 2955  -0.131   2.841   4.972  2.1826  0.4843  0.2056
  780MOL0     H 2956   0.043   2.589   5.011  2.0095  1.4613  0.5643
  780MOL0     H 2957   0.038   2.742   5.106  1.4748 -0.2348 -0.7129
  780MOL0     H 2958  -0.321   2.580   5.241 -1.1462  2.2781  0.0993
  780MOL0     H 2959   0.462   2.930   4.693 -0.7022 -0.7918  1.7406
  780MOL0     H 2960   0.632   2.836   4.522 -0.8036  1.1434 -0.9135
  781MOL0     O 2961   8.371   6.814   6.164 -0.8003 -0.0174 -0.2176
  781MOL0     C 2962   8.495   6.812   6.169  0.5391 -0.5058 -0.2939
  781MOL0     O 2963   8.564   6.885   6.084  0.0337 -0.5228  0.5257
  781MOL0     C 2964   8.493   6.972   6.010 -0.2907  0.0689  0.3043
  781MOL0     C 2965   8.480   7.103   6.060 -0.5464 -0.6805  0.8912
  781MOL0     C 2966   8.392   7.189   6.002 -0.4380 -0.9129 -0.1757
  781MOL0     C 2967   8.316   7.146   5.894  0.0746 -0.6438 -0.4565
  781MOL0     O 2968   8.223   7.221   5.831 -0.1248  0.0960  0.2158
  781MOL0     C 2969   8.162   7.326   5.904 -0.9451  0.5014 -0.1441
  781MOL0     C 2970   8.059   7.291   6.018 -0.2689  0.8278  1.0437
  781MOL0     C 2971   7.956   7.189   5.964 -0.1802  0.1131 -0.2220
  781MOL0     C 2972   7.837   7.157   6.064 -0.1870  0.0337 -0.0807
  781MOL0     C 2973   7.888   7.062   6.174 -0.3109  0.0266 -0.9328
  781MOL0     C 2974   7.778   7.000   6.262  0.2712  0.3793 -0.2197
  781MOL0     C 2975   7.735   7.105   6.365  0.3974 -0.4140 -0.2682
  781MOL0     C 2976   7.631   7.049   6.451  0.7547 -0.0727 -0.4863
  781MOL0     N 2977   7.495   7.029   6.391 -0.1486 -0.1534 -0.3376
  781MOL0     C 2978   7.432   6.904   6.394 -0.5742  0.7079 -0.5846
  781MOL0     C 2979   7.306   6.926   6.349 -0.2780 -0.0937 -0.7341
  781MOL0     C 2980   7.206   6.822   6.318  0.3848 -0.4487  0.3449
  781MOL0     C 2981   7.223   6.754   6.174  0.5393 -0.4504 -0.3920
  781MOL0     C 2982   7.129   6.632   6.163  0.0786  0.6508  0.0681
  781MOL0     C 2983   7.119   6.572   6.016  0.3238  0.2006 -0.1780
  781MOL0     O 2984   6.995   6.506   5.997  0.0724  0.4411 -0.1749
  781MOL0     C 2985   6.878   6.583   5.960 -0.0522  1.3199  0.2433
  781MOL0     C 2986   6.752   6.515   5.965  0.2976 -0.6493  0.5799
  781MOL0     C 2987   6.636   6.585   5.944  0.1986  0.8434  0.6001
  781MOL0     C 2988   6.637   6.723   5.929  0.3772  0.0714 -0.2708
  781MOL0     C 2989   6.515   6.785   5.889 -0.2667  0.3372  0.6634
  781MOL0     O 2990   6.428   6.709   5.814 -0.3319 -0.2189  0.1598
  781MOL0     C 2991   6.314   6.781   5.789  0.1016  0.5665  0.2237
  781MOL0     C 2992   6.199   6.740   5.857 -0.4416 -0.0673  1.0652
  781MOL0     C 2993   6.081   6.802   5.830 -0.5626  0.8777 -0.9508
  781MOL0     C 2994   6.077   6.900   5.728 -0.1729  0.0762 -1.2945
  781MOL0     O 2995   5.964   6.967   5.683  0.2827 -0.2486  0.8520
  781MOL0     C 2996   5.831   6.923   5.732  0.1780 -0.6597  0.3054
  781MOL0     C 2997   5.777   6.823   5.637  0.3684  0.3949  0.3277
  781MOL0     C 2998   5.659   6.756   5.707 -0.2787  0.1479 -0.0537
  781MOL0     C 2999   5.579   6.664   5.612 -2.2043  0.6337 -0.1243
  781MOL0     C 3000   5.455   6.601   5.681  0.3252 -0.2912  0.0724
  781MOL0     C 3001   5.371   6.528   5.574 -0.1340  0.0792 -1.0606
  781MOL0     C 3002   5.253   6.475   5.647 -0.0973 -0.4544  0.3848
  781MOL0     C 3003   5.285   6.341   5.717 -0.7499 -0.6545 -0.0903
  781MOL0    Cl 3004   5.135   6.255   5.777 -0.1494  0.0157 -0.4307
  781MOL0     C 3005   6.189   6.931   5.656 -0.4534 -1.4014  0.6776
  781MOL0     C 3006   6.307   6.873   5.687 -0.6186  0.3931  0.2184
  781MOL0     O 3007   6.499   6.900   5.933  0.2053  0.1142  0.5586
  781MOL0     C 3008   6.763   6.787   5.925  0.4006 -0.3943 -0.4450
  781MOL0     C 3009   6.884   6.725   5.934 -0.1208  0.6370  0.4747
  781MOL0     N 3010   7.297   7.064   6.321 -0.2260 -0.6302  0.5323
  781MOL0     N 3011   7.404   7.119   6.346 -0.0457  0.0907 -0.1755
  781MOL0     C 3012   8.318   7.011   5.850 -0.8775  0.3298  0.8857
  781MOL0     C 3013   8.409   6.927   5.911 -0.5586  0.6073 -0.1061
  781MOL0     C 3014   8.575   6.711   6.238  0.1890  0.0741 -0.3714
  781MOL0     C 3015   8.710   6.728   6.259 -0.3825  0.4221 -0.9511
  781MOL0     C 3016   8.786   6.633   6.326  0.6140  0.0140  0.9072
  781MOL0     C 3017   8.722   6.511   6.371 -0.2751  0.0945  0.6950
  781MOL0     O 3018   8.809   6.420   6.430 -0.0118 -0.4736 -0.0504
  781MOL0     C 3019   8.765   6.288   6.459  0.1695  0.6449  0.1655
  781MOL0     C 3020   8.874   6.215   6.519 -0.4386 -0.0339 -0.3285
  781MOL0     C 3021   8.876   6.220   6.675 -0.4963 -0.4894  0.1387
  781MOL0     C 3022   9.008   6.180   6.736 -0.4631 -1.2805 -0.4201
  781MOL0     C 3023   9.034   6.028   6.741  0.2276 -0.3710 -0.2359
  781MOL0     C 3024   9.048   5.906   6.729  0.1630 -0.4407 -0.7049
  781MOL0     C 3025   8.580   6.498   6.342 -0.0928 -0.7696  0.0375
  781MOL0     C 3026   8.507   6.601   6.286  0.5956  0.9748 -0.1760
  781MOL0     H 3027   8.535   7.141   6.146 -0.4542  4.0521 -0.9440
  781MOL0     H 3028   8.382   7.290   6.042  2.4004 -0.4308 -0.4382
  781MOL0     H 3029   8.107   7.376   5.825  0.8157 -0.8675 -2.3495
  781MOL0     H 3030   8.242   7.389   5.945  0.2162 -1.3451  0.5669
  781MOL0     H 3031   8.005   7.384   6.041  1.3558  2.5884 -1.7457
  781MOL0     H 3032   8.110   7.253   6.107 -0.0467  0.2964  0.6909
  781MOL0     H 3033   8.018   7.102   5.940  0.9059  0.6398  0.5643
  781MOL0     H 3034   7.915   7.239   5.875  0.1017 -1.1998 -1.1125
  781MOL0     H 3035   7.792   7.244   6.112 -5.9472 -3.0243  0.9690
  781MOL0     H 3036   7.761   7.104   6.005 -1.6823  2.0739 -0.0853
  781MOL0     H 3037   7.961   7.106   6.243 -1.0107  1.9281 -1.3452
  781MOL0     H 3038   7.947   6.987   6.121  2.8542  1.7603 -0.0889
  781MOL0     H 3039   7.812   6.911   6.314 -1.4023  1.7925  3.6508
  781MOL0     H 3040   7.694   6.977   6.195  0.7525 -1.4449 -0.2408
  781MOL0     H 3041   7.811   7.150   6.428 -1.5570  1.4726  0.8760
  781MOL0     H 3042   7.686   7.186   6.309 -0.3284 -0.3541  0.4517
  781MOL0     H 3043   7.625   7.103   6.546  1.9786 -1.7388  0.5930
  781MOL0     H 3044   7.655   6.950   6.489  0.4241 -0.2390 -0.7022
  781MOL0     H 3045   7.466   6.814   6.442 -4.9676 -0.7351  0.2836
  781MOL0     H 3046   7.112   6.877   6.321  0.1791 -0.8197  0.7841
  781MOL0     H 3047   7.200   6.749   6.400  0.2932  1.1874  1.8620
  781MOL0     H 3048   7.329   6.736   6.157  0.6815  1.2947 -1.6568
  781MOL0     H 3049   7.185   6.827   6.102  1.2074 -1.0372 -1.3609
  781MOL0     H 3050   7.157   6.546   6.224 -0.0611 -0.3759 -1.2619
  781MOL0     H 3051   7.028   6.649   6.201  0.1838 -0.4455  0.8766
  781MOL0     H 3052   7.200   6.498   6.009  1.9198  1.9220 -0.9830
  781MOL0     H 3053   7.130   6.651   5.940 -2.1333 -1.0303 -1.9595
  781MOL0     H 3054   6.745   6.408   5.983  0.0392 -1.0791 -1.7084
  781MOL0     H 3055   6.546   6.524   5.945  1.1761 -0.6963 -0.4257
  781MOL0     H 3056   6.214   6.662   5.931  1.0080 -1.0202 -0.1843
  781MOL0     H 3057   6.001   6.774   5.898  0.9215 -1.2014  0.0415
  781MOL0     H 3058   5.763   7.009   5.731  1.5004  0.4901  2.0213
  781MOL0     H 3059   5.827   6.887   5.835 -2.6606 -1.8460 -0.1392
  781MOL0     H 3060   5.859   6.765   5.595  0.2535  0.7175 -0.3540
  781MOL0     H 3061   5.753   6.877   5.545  2.5803 -2.7777 -2.3006
  781MOL0     H 3062   5.589   6.832   5.743  1.9035  1.2407  2.2020
  781MOL0     H 3063   5.698   6.698   5.791 -3.5432 -0.7032  1.0279
  781MOL0     H 3064   5.560   6.717   5.518  1.3363 -2.2511 -2.7436
  781MOL0     H 3065   5.653   6.588   5.586 -0.7766  1.9811 -0.1164
  781MOL0     H 3066   5.404   6.677   5.741  1.2185 -0.2454  0.8011
  781MOL0     H 3067   5.482   6.524   5.753  1.2479 -0.0114  0.0388
  781MOL0     H 3068   5.438   6.453   5.531 -1.2482 -0.9635 -1.0420
  781MOL0     H 3069   5.343   6.585   5.485 -1.6712  1.9415  0.5244
  781MOL0     H 3070   5.227   6.542   5.729  1.3099  2.0718 -1.1094
  781MOL0     H 3071   5.164   6.467   5.584  0.7272  0.6032 -0.9778
  781MOL0     H 3072   5.359   6.340   5.798  1.8787  0.7063 -2.2885
  781MOL0     H 3073   5.341   6.279   5.646 -1.1090 -0.2607 -0.7312
  781MOL0     H 3074   6.183   6.999   5.572  0.1873 -1.6661  0.4173
  781MOL0     H 3075   6.395   6.906   5.632 -1.8889 -0.2644 -2.3824
  781MOL0     H 3076   6.780   6.890   5.895  2.3224 -0.4663  0.2656
  781MOL0     H 3077   6.972   6.785   5.911 -0.2439 -0.1911 -2.6112
  781MOL0     H 3078   8.249   6.976   5.774 -1.0730  1.0821  0.7087
  781MOL0     H 3079   8.419   6.821   5.890  1.8118  1.2631 -2.8674
  781MOL0     H 3080   8.771   6.813   6.228  2.3069 -0.4967  1.3037
  781MOL0     H 3081   8.891   6.648   6.349  1.0469  1.2083 -1.5475
  781MOL0     H 3082   8.718   6.229   6.380 -1.0363  1.5038  0.2013
  781MOL0     H 3083   8.680   6.307   6.525 -1.7697 -2.1978 -1.2957
  781MOL0     H 3084   8.849   6.110   6.502 -3.7058  0.5801 -0.1494
  781MOL0     H 3085   8.971   6.234   6.473  0.8344  0.1904  2.2834
  781MOL0     H 3086   8.799   6.148   6.704 -1.2063 -0.4309 -1.4941
  781MOL0     H 3087   8.849   6.318   6.716 -0.7787 -1.5928  2.7924
  781MOL0     H 3088   9.093   6.227   6.684 -1.4423  0.7580 -0.2669
  781MOL0     H 3089   8.996   6.220   6.837 -3.8743 -1.6968 -0.5559
  781MOL0     H 3090   9.063   5.803   6.703 -0.8628 -0.7271 -0.2215
  781MOL0     H 3091   8.535   6.401   6.360 -0.0684 -0.6517  0.7895
  781MOL0     H 3092   8.401   6.587   6.270  0.4718 -1.3761  2.0747
  782MOL0     O 3093   7.920   8.458   0.566  0.2900 -0.7447 -0.0373
  782MOL0     C 3094   7.894   8.574   0.580  0.3253 -1.1030 -1.5795
  782MOL0     O 3095   7.768   8.630   0.619  0.3082 -0.1936  0.2126
  782MOL0     C 3096   7.654   8.551   0.634  0.4031 -0.3641  0.4367
  782MOL0     C 3097   7.609   8.470   0.533  0.5140 -0.9483  0.0331
  782MOL0     C 3098   7.488   8.399   0.559 -0.4141 -0.5771  0.1821
  782MOL0     C 3099   7.430   8.386   0.680  0.1375  0.0062 -0.1685
  782MOL0     O 3100   7.331   8.303   0.717 -0.4468 -0.0714 -0.0423
  782MOL0     C 3101   7.290   8.205   0.617  0.4144 -0.2863 -0.4827
  782MOL0     C 3102   7.155   8.141   0.668 -1.5146  0.8831  0.9551
  782MOL0     C 3103   7.180   8.005   0.734  0.3511  0.4579  0.0302
  782MOL0     C 3104   7.057   7.938   0.780 -0.5602 -0.2981 -0.7183
  782MOL0     C 3105   7.077   7.833   0.892 -0.1145 -0.2295 -0.6407
  782MOL0     C 3106   6.943   7.769   0.945  0.0828 -0.1641  0.1847
  782MOL0     C 3107   6.980   7.640   1.020  0.5150 -0.0090  0.5798
  782MOL0     C 3108   6.865   7.557   1.083 -0.2202 -0.5858  0.1468
  782MOL0     N 3109   6.781   7.480   0.985 -0.3353 -0.0520 -0.4532
  782MOL0     C 3110   6.701   7.529   0.885  0.6262  0.1884 -0.2598
  782MOL0     C 3111   6.663   7.415   0.824 -0.0602  0.4031 -0.5866
  782MOL0     C 3112   6.538   7.394   0.745  0.1925 -0.4311 -0.0998
  782MOL0     C 3113   6.413   7.415   0.834  0.3887 -0.2657  0.2466
  782MOL0     C 3114   6.282   7.409   0.759  0.2934  0.2171 -0.0459
  782MOL0     C 3115   6.161   7.408   0.846  1.0358  0.0618  0.5616
  782MOL0     O 3116   6.035   7.426   0.780 -0.4618 -1.0849  0.0801
  782MOL0     C 3117   5.920   7.424   0.854  0.0493 -0.3562  0.6301
  782MOL0     C 3118   5.795   7.395   0.796  0.3115  0.3677 -0.0695
  782MOL0     C 3119   5.674   7.382   0.869  0.1886  0.1978 -1.2613
  782MOL0     C 3120   5.683   7.387   1.010  0.6952 -0.9662  0.8292
  782MOL0     C 3121   5.559   7.376   1.092  0.3433 -0.2016 -0.0833
  782MOL0     O 3122   5.570   7.384   1.224  0.9787 -0.2218  0.0620
  782MOL0     C 3123   5.475   7.382   1.323 -0.3007  0.0494  0.2734
  782MOL0     C 3124   5.352   7.323   1.310 -0.3731 -0.2007 -0.3958
  782MOL0     C 3125   5.261   7.312   1.416 -0.3635 -0.0642 -1.5712
  782MOL0     C 3126   5.306   7.361   1.546  0.5969 -0.1726  0.2102
  782MOL0     O 3127   5.210   7.343   1.642 -0.1997 -0.3998 -0.2164
  782MOL0     C 3128   5.211   7.427   1.760 -0.0805 -0.5059 -0.4636
  782MOL0     C 3129   5.088   7.402   1.846 -0.0768  0.4499 -0.4176
  782MOL0     C 3130   4.949   7.415   1.779 -0.3096  0.3447  0.9511
  782MOL0     C 3131   4.821   7.388   1.862  0.8331 -0.5384  0.3011
  782MOL0     C 3132   4.702   7.452   1.787  0.1292  0.1837  0.0288
  782MOL0     C 3133   4.674   7.390   1.648 -0.3017  0.2599 -0.6551
  782MOL0     C 3134   4.618   7.250   1.657 -0.3141  0.0865 -0.0393
  782MOL0     C 3135   4.617   7.174   1.521 -0.9698  1.2742  0.3669
  782MOL0    Cl 3136   4.782   7.178   1.450  0.0553  0.2034  0.1336
  782MOL0     C 3137   5.430   7.427   1.553 -0.1487  0.2297 -0.1339
  782MOL0     C 3138   5.508   7.446   1.444  0.5597 -0.4470 -1.2579
  782MOL0     O 3139   5.455   7.365   1.029  0.2917 -0.0092  0.3896
  782MOL0     C 3140   5.804   7.412   1.067 -0.2946 -0.6104 -0.3679
  782MOL0     C 3141   5.921   7.441   0.989 -0.2934 -0.4246 -0.1266
  782MOL0     N 3142   6.735   7.308   0.879 -0.7682 -0.0703  0.4976
  782MOL0     N 3143   6.805   7.351   0.977  0.6529 -0.0659  0.4510
  782MOL0     C 3144   7.481   8.465   0.778  0.2004  0.9711 -0.1578
  782MOL0     C 3145   7.591   8.548   0.755 -0.4493 -0.1867  0.8682
  782MOL0     C 3146   8.003   8.670   0.577  0.2556  0.4328  0.3552
  782MOL0     C 3147   8.129   8.631   0.528 -0.2608 -0.6319  0.4134
  782MOL0     C 3148   8.235   8.720   0.494 -0.3094  0.1310  0.1375
  782MOL0     C 3149   8.211   8.858   0.503 -0.1424 -0.0636 -0.4636
  782MOL0     O 3150   8.301   8.958   0.462  0.2965 -0.5950 -0.3867
  782MOL0     C 3151   8.432   8.922   0.417  1.0304 -0.6989 -0.0194
  782MOL0     C 3152   8.495   9.041   0.361 -0.6229  0.2871 -0.6316
  782MOL0     C 3153   8.620   9.003   0.282  0.1795 -0.5071  0.3335
  782MOL0     C 3154   8.740   8.947   0.347  0.6104  0.5687 -0.1503
  782MOL0     C 3155   8.859   8.924   0.265  1.6006 -0.5089 -0.1181
  782MOL0     C 3156   8.968   8.906   0.217 -1.3527  0.0080  0.0412
  782MOL0     C 3157   8.090   8.898   0.559  0.4408  0.6650  0.2058
  782MOL0     C 3158   7.987   8.807   0.596 -0.0258 -0.2979  0.0065
  782MOL0     H 3159   7.656   8.471   0.435  2.1943  0.9235  0.7922
  782MOL0     H 3160   7.463   8.336   0.473  0.5263 -2.1139  0.9808
  782MOL0     H 3161   7.355   8.119   0.599 -2.0947 -2.1865 -1.0065
  782MOL0     H 3162   7.277   8.262   0.524 -1.0330  0.5581  0.2146
  782MOL0     H 3163   7.088   8.121   0.584  0.6332 -0.2052 -0.6193
  782MOL0     H 3164   7.112   8.208   0.743 -3.3415  0.6011  0.2076
  782MOL0     H 3165   7.249   8.013   0.819  0.4503  4.4875 -0.2743
  782MOL0     H 3166   7.230   7.942   0.659  2.3055  2.6461 -0.6277
  782MOL0     H 3167   6.988   8.014   0.816 -0.6692  0.2913 -2.1063
  782MOL0     H 3168   7.003   7.891   0.697  0.0860 -0.4727 -1.0497
  782MOL0     H 3169   7.122   7.874   0.983 -2.2299 -0.0201  0.3682
  782MOL0     H 3170   7.143   7.751   0.864  1.6543  0.5871  0.9276
  782MOL0     H 3171   6.873   7.763   0.862 -0.2212  3.6460 -0.0046
  782MOL0     H 3172   6.892   7.833   1.018 -1.4770 -1.3237  0.1452
  782MOL0     H 3173   7.026   7.572   0.947 -3.8040 -1.0920 -1.4649
  782MOL0     H 3174   7.055   7.665   1.095  2.3673  2.2905 -1.8302
  782MOL0     H 3175   6.796   7.633   1.121  0.0624  0.6490 -1.7046
  782MOL0     H 3176   6.914   7.488   1.153  1.3401 -0.8278 -1.1126
  782MOL0     H 3177   6.661   7.629   0.878  3.4720  1.4409 -0.1731
  782MOL0     H 3178   6.548   7.300   0.689  0.8246 -0.1902 -0.3995
  782MOL0     H 3179   6.546   7.475   0.673  2.1422  0.7754  1.3927
  782MOL0     H 3180   6.423   7.510   0.887  0.6872  0.0465 -0.3573
  782MOL0     H 3181   6.417   7.323   0.894 -1.3968 -3.5638 -4.1605
  782MOL0     H 3182   6.282   7.496   0.693 -0.3831 -0.9860 -1.7181
  782MOL0     H 3183   6.283   7.317   0.699  2.2653  0.8534 -1.1050
  782MOL0     H 3184   6.169   7.485   0.923 -2.4309 -0.8938  2.0821
  782MOL0     H 3185   6.167   7.319   0.909  0.8018  0.2314  0.8272
  782MOL0     H 3186   5.792   7.391   0.688 -2.4096  0.2404 -0.0752
  782MOL0     H 3187   5.583   7.354   0.819 -0.9654  0.1119  0.7591
  782MOL0     H 3188   5.339   7.265   1.219  1.0494 -1.9326  0.4381
  782MOL0     H 3189   5.168   7.256   1.413  0.2872 -1.1542 -2.1423
  782MOL0     H 3190   5.218   7.531   1.730  0.1094 -0.1666  0.6934
  782MOL0     H 3191   5.299   7.405   1.821  2.6754  3.9045 -2.3953
  782MOL0     H 3192   5.094   7.466   1.934  0.3125  0.0977 -0.1818
  782MOL0     H 3193   5.090   7.296   1.873  2.0352  0.3169 -0.8415
  782MOL0     H 3194   4.959   7.358   1.686  0.7207  1.7742  0.1568
  782MOL0     H 3195   4.942   7.515   1.737  0.1412  0.4484  1.1143
  782MOL0     H 3196   4.818   7.282   1.889  2.1456 -0.6363  0.1258
  782MOL0     H 3197   4.828   7.433   1.962  0.0503 -1.9285  1.0162
  782MOL0     H 3198   4.723   7.559   1.780  0.0150  0.2872  1.1019
  782MOL0     H 3199   4.607   7.438   1.840 -0.0139  1.6768  0.2036
  782MOL0     H 3200   4.774   7.394   1.604  0.4855 -1.9074  0.7435
  782MOL0     H 3201   4.610   7.456   1.589  1.2000  0.5985 -1.9758
  782MOL0     H 3202   4.679   7.192   1.727  0.0614 -0.4600 -0.8055
  782MOL0     H 3203   4.516   7.235   1.692 -0.6168  0.7544 -0.6012
  782MOL0     H 3204   4.560   7.232   1.448  0.0213  0.9018 -0.7311
  782MOL0     H 3205   4.585   7.071   1.542  1.3671  0.3530 -0.2726
  782MOL0     H 3206   5.468   7.464   1.648  3.0838  1.2560 -1.6842
  782MOL0     H 3207   5.604   7.492   1.467  0.4300 -0.9899  0.6138
  782MOL0     H 3208   5.812   7.435   1.173  1.5296 -1.1908 -0.3409
  782MOL0     H 3209   6.008   7.474   1.045 -1.1749 -1.2309  1.8035
  782MOL0     H 3210   7.455   8.448   0.882  2.1400 -3.0074 -0.1089
  782MOL0     H 3211   7.634   8.604   0.838  0.6325 -1.9309  1.5307
  782MOL0     H 3212   8.157   8.527   0.514  0.3312 -0.3915 -0.2322
  782MOL0     H 3213   8.316   8.664   0.446 -2.5196 -2.0756 -1.2904
  782MOL0     H 3214   8.439   8.836   0.349 -1.0202 -1.2100  0.3358
  782MOL0     H 3215   8.483   8.886   0.506 -1.3984 -0.8941  1.3876
  782MOL0     H 3216   8.423   9.091   0.295 -0.3372 -1.8345 -2.6810
  782MOL0     H 3217   8.520   9.116   0.437 -1.2278 -1.6290  1.5669
  782MOL0     H 3218   8.658   9.090   0.227  4.2832 -0.6294  2.5624
  782MOL0     H 3219   8.588   8.934   0.203 -3.2107  0.4733  0.6873
  782MOL0     H 3220   8.763   9.004   0.437  4.5376 -1.5521  0.4156
  782MOL0     H 3221   8.715   8.845   0.380  4.8328  0.3150  2.9772
  782MOL0     H 3222   9.064   8.887   0.173 -2.1481 -1.2500 -1.2831
  782MOL0     H 3223   8.050   8.997   0.575 -1.4818  0.5275 -2.8802
  782MOL0     H 3224   7.889   8.853   0.606  0.1153  0.3365 -1.3070
  783MOL0     O 3225   1.979   3.514   5.224  0.0547 -0.6525 -0.6628
  783MOL0     C 3226   1.955   3.409   5.164 -0.3747 -0.1656  0.1063
  783MOL0     O 3227   2.056   3.335   5.096 -0.2844 -0.2373 -0.4767
  783MOL0     C 3228   2.184   3.380   5.118 -0.8583  0.0533 -0.0629
  783MOL0     C 3229   2.256   3.417   5.006  0.3960 -0.4431 -1.5065
  783MOL0     C 3230   2.387   3.445   5.015 -0.5403  0.0616 -0.3244
  783MOL0     C 3231   2.461   3.438   5.131 -0.2100  0.5173  0.0640
  783MOL0     O 3232   2.592   3.475   5.122  0.3842  0.1201  0.8437
  783MOL0     C 3233   2.676   3.458   5.236  0.7320  0.8561 -0.8444
  783MOL0     C 3234   2.816   3.479   5.188  0.4900  0.4536  0.8771
  783MOL0     C 3235   2.842   3.608   5.098 -0.7221 -0.0995 -0.5110
  783MOL0     C 3236   2.794   3.740   5.163  0.3367  0.1983 -0.0995
  783MOL0     C 3237   2.853   3.851   5.068  0.5187  0.0109 -0.0254
  783MOL0     C 3238   2.782   3.851   4.925  0.4370  0.4632  0.4095
  783MOL0     C 3239   2.845   3.956   4.839  0.2266 -0.1378 -1.0267
  783MOL0     C 3240   2.769   3.991   4.713  0.2630 -0.3966 -0.3779
  783MOL0     N 3241   2.835   4.101   4.639  0.0951  0.1076  0.5265
  783MOL0     C 3242   2.818   4.240   4.652 -0.2639 -0.4533 -0.2003
  783MOL0     C 3243   2.880   4.300   4.538 -0.0732  0.2760  0.6110
  783MOL0     C 3244   2.875   4.444   4.516 -0.2140 -0.2398 -0.1771
  783MOL0     C 3245   2.745   4.491   4.453 -0.1660 -0.0350 -0.3899
  783MOL0     C 3246   2.622   4.501   4.543 -0.0524  0.6448 -0.1117
  783MOL0     C 3247   2.505   4.557   4.461  0.6796  0.0569  0.8239
  783MOL0     O 3248   2.394   4.532   4.544 -0.1941 -0.2184 -0.4234
  783MOL0     C 3249   2.267   4.544   4.501  0.5515  0.9047 -0.9246
  783MOL0     C 3250   2.168   4.503   4.600 -0.1162  0.1456 -0.4521
  783MOL0     C 3251   2.037   4.493   4.563  0.6016 -0.3319 -0.2598
  783MOL0     C 3252   1.985   4.525   4.435  0.2522 -0.1536  0.2092
  783MOL0     C 3253   1.844   4.508   4.415 -0.3552 -0.0406 -0.1638
  783MOL0     O 3254   1.795   4.586   4.317  0.2105  0.0889  0.2336
  783MOL0     C 3255   1.662   4.632   4.319  0.1476 -0.4397 -1.1387
  783MOL0     C 3256   1.603   4.690   4.206 -0.0034  0.1804  0.1525
  783MOL0     C 3257   1.469   4.740   4.205 -0.1557  0.3945  0.1267
  783MOL0     C 3258   1.392   4.735   4.316 -0.4181 -0.1979 -0.0624
  783MOL0     O 3259   1.254   4.768   4.304  0.0047 -1.2207 -0.6059
  783MOL0     C 3260   1.161   4.745   4.412 -0.5428  1.3442  1.0734
  783MOL0     C 3261   1.030   4.824   4.379 -0.1999  0.2352  0.0076
  783MOL0     C 3262   1.056   4.970   4.359 -0.0341  0.6894  0.5077
  783MOL0     C 3263   0.935   5.064   4.367  0.3730 -0.1635  0.0911
  783MOL0     C 3264   0.811   5.018   4.294 -0.1307  0.0457 -0.7600
  783MOL0     C 3265   0.715   5.133   4.281  0.7207 -0.5241  0.4700
  783MOL0     C 3266   0.573   5.077   4.267 -0.4043 -0.3048 -0.2136
  783MOL0     C 3267   0.469   5.184   4.227 -0.0999 -1.0915 -0.3420
  783MOL0    Cl 3268   0.312   5.098   4.212 -0.1067 -0.3931  0.3634
  783MOL0     C 3269   1.447   4.685   4.432  0.4471 -0.1559 -0.0925
  783MOL0     C 3270   1.581   4.636   4.434  0.4031 -0.3511 -0.2774
  783MOL0     O 3271   1.788   4.426   4.486  0.2958 -1.1632 -0.1885
  783MOL0     C 3272   2.083   4.572   4.344 -0.0933  0.4995 -0.0620
  783MOL0     C 3273   2.220   4.579   4.379  0.2004  0.1997 -0.3262
  783MOL0     N 3274   2.930   4.193   4.464  0.0331 -0.5148  0.3410
  783MOL0     N 3275   2.914   4.078   4.524  0.0150 -0.2751  1.1874
  783MOL0     C 3276   2.395   3.399   5.241  1.1294  0.6895 -0.1076
  783MOL0     C 3277   2.251   3.368   5.238  0.4982 -0.6491  0.2675
  783MOL0     C 3278   1.817   3.358   5.176  0.2934 -0.4063 -0.1965
  783MOL0     C 3279   1.718   3.421   5.252  0.2762 -0.9933  0.6748
  783MOL0     C 3280   1.586   3.377   5.249  0.1912 -0.7961 -0.0293
  783MOL0     C 3281   1.555   3.256   5.191 -1.2087 -0.0930  0.5100
  783MOL0     O 3282   1.426   3.213   5.215  0.0558  0.0132  0.1085
  783MOL0     C 3283   1.338   3.212   5.103  0.1836  0.4338  0.1892
  783MOL0     C 3284   1.216   3.274   5.166 -0.1702 -0.3597 -0.3095
  783MOL0     C 3285   1.139   3.179   5.267 -0.9580  0.0572 -0.9014
  783MOL0     C 3286   0.985   3.221   5.277  0.0497 -0.3887  0.4392
  783MOL0     C 3287   0.895   3.146   5.373 -0.3228  0.6910 -0.1055
  783MOL0     C 3288   0.818   3.080   5.444  0.1736 -0.5161  0.1725
  783MOL0     C 3289   1.655   3.173   5.145 -0.1539  0.0649  0.0414
  783MOL0     C 3290   1.791   3.226   5.132  0.0075 -0.6401 -0.2722
  783MOL0     H 3291   2.216   3.410   4.905  0.5517 -1.2984 -1.5122
  783MOL0     H 3292   2.427   3.472   4.918 -1.5967 -0.2986 -0.8714
  783MOL0     H 3293   2.658   3.357   5.273  0.5930  2.0994  2.9731
  783MOL0     H 3294   2.648   3.528   5.316  0.1504  1.4559 -1.5585
  783MOL0     H 3295   2.841   3.391   5.127 -1.7860 -0.9609  1.8534
  783MOL0     H 3296   2.891   3.473   5.267  1.9354 -3.2764 -0.5603
  783MOL0     H 3297   2.803   3.591   4.997 -1.8308 -1.9727  0.1726
  783MOL0     H 3298   2.950   3.617   5.092 -0.7569  1.3282  0.5481
  783MOL0     H 3299   2.684   3.738   5.166  0.3303  1.5907  2.2607
  783MOL0     H 3300   2.830   3.751   5.266  0.8062  1.8010 -0.4100
  783MOL0     H 3301   2.961   3.848   5.054  0.5192 -1.9275  0.1829
  783MOL0     H 3302   2.827   3.949   5.111  3.2135  1.9740 -2.4659
  783MOL0     H 3303   2.673   3.856   4.937 -0.3682  0.4331 -4.6470
  783MOL0     H 3304   2.804   3.759   4.870  1.1444  1.6027 -1.3351
  783MOL0     H 3305   2.851   4.050   4.895  0.3197  0.1488 -1.5077
  783MOL0     H 3306   2.947   3.928   4.812  1.7398  0.7262  3.1125
  783MOL0     H 3307   2.672   4.037   4.737  1.5051  2.5642 -0.5666
  783MOL0     H 3308   2.749   3.908   4.644 -1.1217  0.3982 -0.9871
  783MOL0     H 3309   2.769   4.296   4.731 -2.2629  0.6457 -2.0861
  783MOL0     H 3310   2.957   4.476   4.451  0.3848 -0.9353  0.2301
  783MOL0     H 3311   2.894   4.505   4.605 -1.2537  2.6148 -1.7556
  783MOL0     H 3312   2.714   4.423   4.373 -1.1464  2.1630 -1.9944
  783MOL0     H 3313   2.760   4.589   4.408 -0.0833 -0.5438 -1.5040
  783MOL0     H 3314   2.598   4.404   4.586 -1.5662  0.7257 -0.7269
  783MOL0     H 3315   2.641   4.561   4.632  2.8824 -2.1009  1.2985
  783MOL0     H 3316   2.493   4.497   4.370  2.1224  2.3782 -1.0612
  783MOL0     H 3317   2.523   4.662   4.435  0.8787 -0.4542 -1.3376
  783MOL0     H 3318   2.202   4.464   4.696  2.3270  0.6964 -1.0287
  783MOL0     H 3319   1.969   4.470   4.644  1.0939 -0.6780  0.0632
  783MOL0     H 3320   1.664   4.674   4.118  0.6681  1.7286  0.3098
  783MOL0     H 3321   1.421   4.776   4.114 -1.0948 -0.5130  0.2439
  783MOL0     H 3322   1.201   4.768   4.510 -0.8681  0.1977  1.4971
  783MOL0     H 3323   1.129   4.640   4.411  0.0172  1.1705 -0.0988
  783MOL0     H 3324   0.960   4.796   4.459 -3.0144 -1.5057 -2.8106
  783MOL0     H 3325   0.981   4.792   4.286  0.6746 -0.9840 -0.0576
  783MOL0     H 3326   1.111   4.979   4.266 -2.2906 -1.0480 -1.1099
  783MOL0     H 3327   1.120   5.009   4.438 -0.7625 -1.4888  2.2841
  783MOL0     H 3328   0.900   5.079   4.470 -1.9049  1.5676 -0.8467
  783MOL0     H 3329   0.974   5.160   4.333 -1.3110 -0.0899 -1.8204
  783MOL0     H 3330   0.759   4.935   4.343  3.2656 -1.4192  0.6767
  783MOL0     H 3331   0.837   4.975   4.197  0.3831  0.7604 -0.9409
  783MOL0     H 3332   0.749   5.205   4.206  0.3704 -0.2327  0.5907
  783MOL0     H 3333   0.708   5.192   4.373 -0.3272  0.0705  0.0241
  783MOL0     H 3334   0.573   4.994   4.196 -2.6168  2.1256 -3.3457
  783MOL0     H 3335   0.531   5.050   4.365 -2.7304  5.0478  0.6766
  783MOL0     H 3336   0.497   5.216   4.127 -0.2160 -0.7558 -0.2695
  783MOL0     H 3337   0.460   5.267   4.298  0.1515  3.4528 -5.0202
  783MOL0     H 3338   1.383   4.686   4.520  0.2342 -1.6584 -0.2108
  783MOL0     H 3339   1.617   4.598   4.529  0.6574  0.9728  0.1785
  783MOL0     H 3340   2.062   4.595   4.240  1.2179  1.3284 -0.1739
  783MOL0     H 3341   2.292   4.612   4.304 -1.8471  3.8199 -0.9463
  783MOL0     H 3342   2.452   3.393   5.333  1.9770 -0.3285 -0.6819
  783MOL0     H 3343   2.192   3.339   5.324 -0.3721  1.7585  0.5261
  783MOL0     H 3344   1.737   3.519   5.296 -1.1811  0.2968 -1.4040
  783MOL0     H 3345   1.511   3.429   5.307 -0.4690 -2.6525  0.8492
  783MOL0     H 3346   1.316   3.110   5.071 -1.8796  0.0386  2.5223
  783MOL0     H 3347   1.381   3.275   5.025 -0.6629  1.6520  0.6841
  783MOL0     H 3348   1.244   3.362   5.224  1.5729  0.6539 -2.5341
  783MOL0     H 3349   1.142   3.303   5.091  0.0038  1.3041  0.1178
  783MOL0     H 3350   1.187   3.188   5.365 -1.3160 -2.0967 -0.4708
  783MOL0     H 3351   1.147   3.073   5.242  1.3388 -0.9734  3.2662
  783MOL0     H 3352   0.982   3.325   5.312  1.8098 -0.3030  0.4350
  783MOL0     H 3353   0.936   3.227   5.179 -0.9073 -1.6905  0.8144
  783MOL0     H 3354   0.759   3.023   5.514 -0.2522  2.5055  2.4896
  783MOL0     H 3355   1.643   3.070   5.114  0.4587  0.6518 -2.3301
  783MOL0     H 3356   1.871   3.162   5.097  0.8961 -0.0924  0.7253
  784MOL0     O 3357   8.098   7.115   5.034 -0.1609 -0.1084 -0.7729
  784MOL0     C 3358   8.167   7.026   5.085 -0.2764 -0.6488  0.4657
  784MOL0     O 3359   8.116   6.934   5.169  0.3292  0.5330  0.0097
  784MOL0     C 3360   7.988   6.926   5.210  0.1809 -0.3663 -0.5325
  784MOL0     C 3361   7.899   6.820   5.175  0.6715  0.2274 -0.1115
  784MOL0     C 3362   7.770   6.811   5.223 -0.9465 -0.0114 -0.4467
  784MOL0     C 3363   7.720   6.910   5.304  0.4489  0.6460 -1.0408
  784MOL0     O 3364   7.595   6.909   5.358 -0.7301  0.4886 -0.9350
  784MOL0     C 3365   7.487   6.825   5.318 -0.4031 -0.6386 -0.0019
  784MOL0     C 3366   7.375   6.816   5.425  0.0675  0.5144 -0.8594
  784MOL0     C 3367   7.244   6.755   5.377 -0.0316 -0.6191 -0.0978
  784MOL0     C 3368   7.154   6.748   5.500 -0.3935  0.2045  0.3635
  784MOL0     C 3369   7.006   6.702   5.477 -0.1640 -0.1766  0.1498
  784MOL0     C 3370   6.925   6.710   5.612 -0.1893  0.0241 -0.1783
  784MOL0     C 3371   6.787   6.653   5.589  0.1837 -0.1670 -0.2863
  784MOL0     C 3372   6.779   6.501   5.607 -0.1207  0.0548 -0.0199
  784MOL0     N 3373   6.649   6.438   5.607 -0.0768  1.1907  0.6409
  784MOL0     C 3374   6.519   6.482   5.584 -0.1404 -0.5112  0.1508
  784MOL0     C 3375   6.439   6.373   5.616 -0.4663 -0.6375 -0.1037
  784MOL0     C 3376   6.292   6.379   5.610 -0.7019  0.6363  1.9949
  784MOL0     C 3377   6.214   6.427   5.481  0.6344  0.5523 -0.4391
  784MOL0     C 3378   6.060   6.429   5.509  0.3974 -0.1762 -0.9864
  784MOL0     C 3379   6.015   6.496   5.636 -0.3132 -0.8060  0.4358
  784MOL0     O 3380   6.030   6.418   5.756 -0.6869  0.2179 -0.6376
  784MOL0     C 3381   5.919   6.353   5.799  0.0684  0.6817 -0.1564
  784MOL0     C 3382   5.940   6.302   5.926 -0.5068 -0.8105  0.5230
  784MOL0     C 3383   5.839   6.238   5.994  0.0842 -0.4566  0.2388
  784MOL0     C 3384   5.712   6.228   5.932  0.0843  0.0695 -0.8635
  784MOL0     C 3385   5.604   6.164   6.000  0.6445  0.4512  0.1012
  784MOL0     O 3386   5.491   6.154   5.946  0.5759 -1.0017  0.1058
  784MOL0     C 3387   5.382   6.097   6.004  1.1621  0.0573  0.2405
  784MOL0     C 3388   5.347   6.147   6.130  1.0081 -0.1231  0.0214
  784MOL0     C 3389   5.236   6.095   6.188  0.0132 -0.6077  0.5731
  784MOL0     C 3390   5.150   6.004   6.122 -0.0377  0.4733 -0.9879
  784MOL0     O 3391   5.040   5.961   6.191 -0.1996  0.7057 -0.1968
  784MOL0     C 3392   4.920   6.024   6.143 -0.5551  0.4572 -1.0738
  784MOL0     C 3393   4.806   6.003   6.244 -0.2391 -0.4991  0.2508
  784MOL0     C 3394   4.840   6.074   6.376  1.2685  0.5683 -0.4014
  784MOL0     C 3395   4.714   6.066   6.472  0.4063 -1.0056  0.1284
  784MOL0     C 3396   4.738   6.137   6.605  1.2644  0.0774  0.2938
  784MOL0     C 3397   4.834   6.078   6.709 -0.5999 -0.1040  0.3369
  784MOL0     C 3398   4.831   5.925   6.730  0.4388  0.9312  1.2271
  784MOL0     C 3399   4.927   5.865   6.836 -0.2237 -0.1393  0.0529
  784MOL0    Cl 3400   4.834   5.785   6.963  0.3551  0.2757 -0.4118
  784MOL0     C 3401   5.185   5.953   5.998 -0.2043  0.4899  0.5337
  784MOL0     C 3402   5.303   5.993   5.940 -0.2987  0.2710 -1.1101
  784MOL0     O 3403   5.636   6.110   6.105  0.0114 -0.7387  0.4722
  784MOL0     C 3404   5.693   6.268   5.801 -0.6581 -0.1508  0.0345
  784MOL0     C 3405   5.797   6.333   5.740  0.1081  0.5729  0.3222
  784MOL0     N 3406   6.516   6.267   5.640 -0.7115  0.1524  0.7749
  784MOL0     N 3407   6.634   6.300   5.635 -0.4274  0.7006  0.3209
  784MOL0     C 3408   7.809   7.012   5.337 -0.3172 -0.3743  0.1059
  784MOL0     C 3409   7.939   7.021   5.296 -0.3703  1.4820 -0.3102
  784MOL0     C 3410   8.306   7.021   5.063  0.3128 -0.4697 -0.0271
  784MOL0     C 3411   8.369   7.135   5.010 -0.2903 -0.2432 -0.0458
  784MOL0     C 3412   8.502   7.128   4.969  0.1132 -0.2498  0.1771
  784MOL0     C 3413   8.575   7.013   4.980 -0.2757  0.1303  0.5306
  784MOL0     O 3414   8.702   6.982   4.930 -0.0888  0.5436 -0.2738
  784MOL0     C 3415   8.805   7.061   4.980  0.7669 -0.3873  0.5419
  784MOL0     C 3416   8.849   7.022   5.114 -0.0734 -0.7542  0.0071
  784MOL0     C 3417   8.952   6.905   5.101  1.2075  0.1890  0.2517
  784MOL0     C 3418   8.966   6.827   5.228  0.2576  0.0212  0.4869
  784MOL0     C 3419   9.066   6.725   5.201 -1.0354 -0.2966 -0.0517
  784MOL0     C 3420   9.158   6.659   5.164 -0.6714 -0.5572  0.2140
  784MOL0     C 3421   8.514   6.895   5.025  0.1672 -1.3263  0.8320
  784MOL0     C 3422   8.378   6.907   5.079  0.4153  0.6071  0.1612
  784MOL0     H 3423   7.949   6.750   5.109  1.3402  2.6006 -2.2804
  784MOL0     H 3424   7.704   6.732   5.189  0.0036 -0.9723 -0.1212
  784MOL0     H 3425   7.525   6.725   5.296  1.2726  0.5072 -2.8180
  784MOL0     H 3426   7.447   6.870   5.226  2.4465  1.0050 -0.5474
  784MOL0     H 3427   7.364   6.919   5.462  0.9656 -0.6025  3.0361
  784MOL0     H 3428   7.414   6.747   5.500 -1.6713 -0.8345 -1.1423
  784MOL0     H 3429   7.271   6.654   5.343  0.4329 -1.4512  2.5062
  784MOL0     H 3430   7.203   6.813   5.294 -1.0014  1.1370  1.5455
  784MOL0     H 3431   7.201   6.683   5.575  0.1484  1.3406  1.0292
  784MOL0     H 3432   7.151   6.843   5.553 -1.7901  1.6077 -2.0654
  784MOL0     H 3433   7.003   6.599   5.440  1.9314 -0.1315 -0.2404
  784MOL0     H 3434   6.963   6.773   5.406 -1.4777  0.2365  1.2963
  784MOL0     H 3435   6.916   6.816   5.638 -1.9203 -0.1764  0.2022
  784MOL0     H 3436   6.981   6.664   5.693  0.5032  0.6527 -0.2885
  784MOL0     H 3437   6.718   6.705   5.656  1.3839  0.9835  0.1025
  784MOL0     H 3438   6.754   6.661   5.485  2.4565 -0.1802 -1.0671
  784MOL0     H 3439   6.824   6.474   5.703 -0.9266 -2.5882 -0.3080
  784MOL0     H 3440   6.839   6.444   5.536 -1.5817 -2.5935  0.7550
  784MOL0     H 3441   6.474   6.580   5.572 -1.6012 -1.3445 -1.6309
  784MOL0     H 3442   6.263   6.437   5.698 -1.8916 -1.6529  3.2245
  784MOL0     H 3443   6.258   6.275   5.623 -0.6337 -0.1389 -2.3683
  784MOL0     H 3444   6.236   6.357   5.399 -1.6621 -0.2176 -0.4532
  784MOL0     H 3445   6.257   6.520   5.444  0.5184  0.9278  0.3594
  784MOL0     H 3446   6.005   6.478   5.428 -0.0247  3.2163  1.1473
  784MOL0     H 3447   6.024   6.326   5.517  1.8018 -0.8345 -2.3987
  784MOL0     H 3448   5.912   6.531   5.629  0.1934  0.5965 -0.3692
  784MOL0     H 3449   6.070   6.591   5.640  0.2133 -1.1285  1.1207
  784MOL0     H 3450   6.031   6.311   5.984 -1.1720 -2.8707  1.9823
  784MOL0     H 3451   5.873   6.192   6.086  3.0423 -1.3707 -1.1933
  784MOL0     H 3452   5.405   6.226   6.179 -0.8329  0.8031  0.8020
  784MOL0     H 3453   5.225   6.123   6.292  0.6343 -0.0828  0.4985
  784MOL0     H 3454   4.889   5.974   6.051  0.8770  2.1539 -2.5503
  784MOL0     H 3455   4.934   6.130   6.124 -0.4124  1.0601  1.8652
  784MOL0     H 3456   4.799   5.896   6.264  1.7124 -0.3960  1.8738
  784MOL0     H 3457   4.718   6.050   6.200  0.5446  0.3107 -0.4965
  784MOL0     H 3458   4.858   6.181   6.359 -0.2773  1.3638  2.3102
  784MOL0     H 3459   4.927   6.026   6.420  1.2109 -0.4363 -1.3446
  784MOL0     H 3460   4.629   6.117   6.426  0.5149  1.1859  2.1818
  784MOL0     H 3461   4.686   5.960   6.471 -2.1209 -0.5445 -4.0848
  784MOL0     H 3462   4.640   6.149   6.653  0.8649  2.0175 -0.8683
  784MOL0     H 3463   4.768   6.239   6.577 -2.6660  0.2303 -5.1716
  784MOL0     H 3464   4.819   6.137   6.800  1.4549 -0.0967  0.7039
  784MOL0     H 3465   4.933   6.106   6.671 -1.6547  1.3825 -1.5305
  784MOL0     H 3466   4.728   5.891   6.747  1.9612 -3.3062  3.2042
  784MOL0     H 3467   4.859   5.886   6.631  0.4574  1.4005  1.0453
  784MOL0     H 3468   4.981   5.954   6.869 -1.7093  0.6804  0.3085
  784MOL0     H 3469   4.990   5.786   6.794 -2.2040 -2.1349  0.6627
  784MOL0     H 3470   5.121   5.876   5.955 -0.1582  0.7643 -0.0400
  784MOL0     H 3471   5.335   5.956   5.844 -2.8367 -3.8846 -0.6344
  784MOL0     H 3472   5.599   6.247   5.751 -0.5736  2.0657 -1.2084
  784MOL0     H 3473   5.790   6.350   5.633  3.0765 -1.0363 -0.2575
  784MOL0     H 3474   7.772   7.087   5.406  0.2088  1.0722 -1.1466
  784MOL0     H 3475   8.005   7.100   5.331  1.2780 -0.7698  2.0575
  784MOL0     H 3476   8.315   7.228   4.994 -0.9676 -0.5935  0.1814
  784MOL0     H 3477   8.552   7.217   4.934  1.6965 -0.6887  1.2285
  784MOL0     H 3478   8.789   7.169   4.985 -2.2456 -0.8111  1.7182
  784MOL0     H 3479   8.887   7.065   4.907  0.4650 -0.4464  0.1981
  784MOL0     H 3480   8.905   7.096   5.171  0.6137 -2.2020  1.2822
  784MOL0     H 3481   8.760   6.987   5.169 -0.9764 -0.0080 -0.9380
  784MOL0     H 3482   9.051   6.946   5.080 -0.6731  4.3644 -1.5376
  784MOL0     H 3483   8.921   6.832   5.026  1.1627 -1.3573  1.7110
  784MOL0     H 3484   8.991   6.883   5.319 -0.4208  0.8489  0.1699
  784MOL0     H 3485   8.868   6.783   5.250 -0.6712  1.1209 -1.2323
  784MOL0     H 3486   9.245   6.614   5.120 -0.4460 -0.1837  0.2747
  784MOL0     H 3487   8.569   6.801   5.026  2.5959  0.0064  0.0902
  784MOL0     H 3488   8.338   6.810   5.109  0.9824  0.5550  0.7622
  785MOL0     O 3489   1.461   4.336   2.144  0.3363 -0.0758  0.1753
  785MOL0     C 3490   1.409   4.272   2.062  0.6264 -0.2089 -0.3695
  785MOL0     O 3491   1.465   4.224   1.945 -0.3171 -0.1087  0.1333
  785MOL0     C 3492   1.597   4.260   1.923  0.6250  1.2974 -0.4187
  785MOL0     C 3493   1.625   4.376   1.862 -0.0797 -0.6239  0.2131
  785MOL0     C 3494   1.750   4.433   1.853 -0.6860 -0.0132  1.0624
  785MOL0     C 3495   1.863   4.358   1.895 -0.0736 -0.4976  0.1344
  785MOL0     O 3496   1.984   4.415   1.880  0.6228  0.7759  0.2716
  785MOL0     C 3497   2.060   4.375   1.757  0.0561 -0.1286  0.2999
  785MOL0     C 3498   2.201   4.324   1.805  0.1616 -0.3365  0.8917
  785MOL0     C 3499   2.282   4.430   1.882  0.6165 -0.6531  0.1321
  785MOL0     C 3500   2.317   4.557   1.809  1.3277 -0.4729 -0.8662
  785MOL0     C 3501   2.447   4.558   1.728  0.7905 -0.1352 -0.2458
  785MOL0     C 3502   2.564   4.558   1.822 -0.0588 -0.0852 -0.4282
  785MOL0     C 3503   2.682   4.593   1.728 -0.1997  0.0513 -0.2004
  785MOL0     C 3504   2.811   4.567   1.810  0.5913  0.2730 -0.4976
  785MOL0     N 3505   2.934   4.580   1.730  1.0197  0.0301 -0.7903
  785MOL0     C 3506   3.025   4.479   1.690  0.3244  1.2655 -0.3884
  785MOL0     C 3507   3.118   4.544   1.623  0.3531  1.1922  0.5813
  785MOL0     C 3508   3.240   4.473   1.571  0.5333 -0.1441 -0.2683
  785MOL0     C 3509   3.250   4.478   1.417 -0.1676  0.6556 -0.3321
  785MOL0     C 3510   3.389   4.452   1.369  0.0107  0.1650 -0.2540
  785MOL0     C 3511   3.404   4.332   1.266  0.0584  0.2312 -0.2475
  785MOL0     O 3512   3.544   4.303   1.276  0.1250  0.4344  0.2338
  785MOL0     C 3513   3.645   4.382   1.221  0.4786  0.2417 -0.0075
  785MOL0     C 3514   3.777   4.358   1.252 -0.2315 -0.5947 -0.7690
  785MOL0     C 3515   3.883   4.438   1.204 -0.5718 -0.2753 -0.2132
  785MOL0     C 3516   3.855   4.541   1.106  0.7294  0.6133  0.2842
  785MOL0     C 3517   3.958   4.630   1.048  0.3572 -0.6202  0.1190
  785MOL0     O 3518   4.054   4.672   1.135 -0.2354 -0.4212 -0.4151
  785MOL0     C 3519   4.128   4.781   1.095  1.2361 -0.3003  0.1410
  785MOL0     C 3520   4.074   4.913   1.080 -0.0895  0.1262  0.2580
  785MOL0     C 3521   4.153   5.015   1.034  1.0545  0.5809  0.4514
  785MOL0     C 3522   4.284   4.984   0.989 -0.1697  0.1199 -0.6497
  785MOL0     O 3523   4.350   5.092   0.932 -0.6329  0.7807 -0.3728
  785MOL0     C 3524   4.422   5.051   0.809 -0.1995  1.3057  0.4000
  785MOL0     C 3525   4.493   5.177   0.745 -0.8107  0.5309  0.8679
  785MOL0     C 3526   4.566   5.137   0.615  0.4780 -0.2717 -0.5430
  785MOL0     C 3527   4.678   5.240   0.598 -0.7251 -0.6431  0.4845
  785MOL0     C 3528   4.762   5.211   0.472  0.3735  0.3560 -0.0392
  785MOL0     C 3529   4.878   5.303   0.464  0.3929  0.7632 -0.1429
  785MOL0     C 3530   4.965   5.262   0.351  0.8476  0.4644  0.2658
  785MOL0     C 3531   4.907   5.257   0.203 -1.1833  0.3389  1.1432
  785MOL0    Cl 3532   5.061   5.240   0.116 -0.1569 -0.2192 -0.4141
  785MOL0     C 3533   4.338   4.853   1.000  0.1675  0.3158 -0.5211
  785MOL0     C 3534   4.256   4.755   1.056 -0.6262  0.4356 -0.2496
  785MOL0     O 3535   3.936   4.670   0.934 -1.1521  0.0457  0.8590
  785MOL0     C 3536   3.723   4.571   1.080  0.5886 -0.4748 -0.2302
  785MOL0     C 3537   3.625   4.489   1.125  0.7486  0.3167  0.0098
  785MOL0     N 3538   3.079   4.675   1.622  0.2284 -0.3002  0.3794
  785MOL0     N 3539   2.982   4.703   1.693  0.1349 -0.0408  0.4145
  785MOL0     C 3540   1.836   4.229   1.948  0.2151 -0.6634 -1.1481
  785MOL0     C 3541   1.705   4.184   1.957  0.6325  0.5894  0.8005
  785MOL0     C 3542   1.257   4.254   2.066  0.5099 -0.6443  0.0750
  785MOL0     C 3543   1.194   4.163   1.977 -0.4876  0.1025 -0.6145
  785MOL0     C 3544   1.058   4.150   1.958 -0.0870 -0.2707 -1.1128
  785MOL0     C 3545   0.970   4.212   2.057 -0.8585  0.1732 -0.0787
  785MOL0     O 3546   0.835   4.209   2.064 -0.4354 -0.3751 -0.3265
  785MOL0     C 3547   0.770   4.174   1.942 -0.2400  0.2477 -0.0050
  785MOL0     C 3548   0.647   4.261   1.942 -0.1480  0.6766 -0.1710
  785MOL0     C 3549   0.674   4.408   1.925  0.3441  0.5698  0.6436
  785MOL0     C 3550   0.541   4.484   1.910 -0.0661  0.0091 -0.0648
  785MOL0     C 3551   0.472   4.499   2.043  0.1450 -0.6470  1.4544
  785MOL0     C 3552   0.438   4.529   2.153 -0.4884  0.1311  0.0942
  785MOL0     C 3553   1.035   4.288   2.153 -0.6677  0.0777 -0.1080
  785MOL0     C 3554   1.168   4.316   2.150  1.2504 -0.3148  0.4530
  785MOL0     H 3555   1.546   4.425   1.807 -0.1801 -2.5834 -1.5450
  785MOL0     H 3556   1.758   4.534   1.815 -0.2806  0.1159  1.4799
  785MOL0     H 3557   2.070   4.461   1.690 -0.2356 -1.5668 -1.6575
  785MOL0     H 3558   2.012   4.296   1.699 -4.2749  2.9401 -0.7835
  785MOL0     H 3559   2.268   4.294   1.723 -1.0470  0.0806 -0.2966
  785MOL0     H 3560   2.198   4.233   1.865  2.4840 -0.6367  0.6330
  785MOL0     H 3561   2.363   4.387   1.941  0.6334  1.0287  1.3998
  785MOL0     H 3562   2.210   4.449   1.962 -1.5806 -4.8457 -0.5618
  785MOL0     H 3563   2.234   4.573   1.739 -0.6806 -0.5711  1.3544
  785MOL0     H 3564   2.322   4.637   1.883  5.3438 -0.7463 -0.6102
  785MOL0     H 3565   2.452   4.655   1.678  2.8196  0.1627  0.4208
  785MOL0     H 3566   2.459   4.480   1.651 -0.5854 -0.6550  0.0362
  785MOL0     H 3567   2.580   4.458   1.863 -0.7206 -0.0693 -0.1162
  785MOL0     H 3568   2.551   4.631   1.902 -2.3443 -0.9899  0.1196
  785MOL0     H 3569   2.679   4.543   1.630 -0.2776 -2.3927  0.9790
  785MOL0     H 3570   2.673   4.701   1.714 -0.8279 -0.0941 -1.0875
  785MOL0     H 3571   2.802   4.463   1.844 -3.4414  0.0683 -1.6356
  785MOL0     H 3572   2.816   4.644   1.887 -0.1648  1.1791 -1.3228
  785MOL0     H 3573   3.017   4.379   1.731 -4.7198  1.5915  0.0434
  785MOL0     H 3574   3.233   4.369   1.603 -3.4017 -0.4684 -1.6060
  785MOL0     H 3575   3.324   4.525   1.618 -0.7402  0.8164  1.0157
  785MOL0     H 3576   3.227   4.582   1.391  0.5501  0.6040 -1.2171
  785MOL0     H 3577   3.174   4.408   1.381  0.1277 -0.2197  0.6958
  785MOL0     H 3578   3.435   4.542   1.326  1.4180 -0.0880  0.6637
  785MOL0     H 3579   3.444   4.427   1.460 -1.2159  1.8014  0.9933
  785MOL0     H 3580   3.373   4.358   1.165  2.0068 -0.4039 -1.0442
  785MOL0     H 3581   3.350   4.242   1.296 -0.6218  0.6813 -0.0937
  785MOL0     H 3582   3.800   4.275   1.319  3.0754  1.2118  0.5736
  785MOL0     H 3583   3.987   4.421   1.230 -0.0886  0.8576 -1.3054
  785MOL0     H 3584   3.978   4.931   1.126  0.3180  2.3732  0.3656
  785MOL0     H 3585   4.128   5.120   1.024  0.9204  0.4501 -0.7471
  785MOL0     H 3586   4.357   5.001   0.737  1.2634 -0.2739  0.1068
  785MOL0     H 3587   4.492   4.976   0.848 -0.8818  1.5078  2.1072
  785MOL0     H 3588   4.551   5.218   0.828 -2.7666 -1.2584  3.2789
  785MOL0     H 3589   4.421   5.254   0.712 -0.3475 -0.2771 -2.3554
  785MOL0     H 3590   4.494   5.129   0.534  0.6321 -2.2225 -0.5376
  785MOL0     H 3591   4.620   5.043   0.629 -0.6079 -0.4181  4.7618
  785MOL0     H 3592   4.634   5.340   0.599 -1.7334 -1.0660  0.2654
  785MOL0     H 3593   4.732   5.242   0.692 -0.9038  1.1771  0.5875
  785MOL0     H 3594   4.698   5.214   0.383 -1.1293 -1.7788  0.8901
  785MOL0     H 3595   4.787   5.105   0.474  1.8264  0.5805 -2.4163
  785MOL0     H 3596   4.933   5.278   0.556  0.2816 -3.0718 -0.9276
  785MOL0     H 3597   4.847   5.408   0.468 -0.0758  0.5995  1.5928
  785MOL0     H 3598   5.041   5.341   0.356  0.6312  0.8305 -1.4588
  785MOL0     H 3599   5.013   5.166   0.375 -0.2714 -0.6212 -1.5845
  785MOL0     H 3600   4.853   5.347   0.172  1.4395  1.0654 -1.8241
  785MOL0     H 3601   4.846   5.169   0.183 -0.3979 -0.2172  1.1332
  785MOL0     H 3602   4.442   4.832   0.979  0.0182 -0.3107 -0.6430
  785MOL0     H 3603   4.288   4.652   1.061 -1.5916  0.0124 -2.0096
  785MOL0     H 3604   3.706   4.652   1.011  0.2180  2.0542  2.6021
  785MOL0     H 3605   3.526   4.521   1.097  0.2347 -2.0845 -1.1312
  785MOL0     H 3606   1.925   4.176   1.979 -0.4963 -0.7482  0.9096
  785MOL0     H 3607   1.675   4.086   1.994  0.4119  0.9981  1.7266
  785MOL0     H 3608   1.251   4.099   1.911  1.5532 -2.7362  3.4132
  785MOL0     H 3609   1.025   4.084   1.878  0.6492 -3.3000  0.9012
  785MOL0     H 3610   0.734   4.071   1.942  0.5257 -0.0305  0.5781
  785MOL0     H 3611   0.822   4.195   1.848 -3.0926  0.4448 -1.6450
  785MOL0     H 3612   0.575   4.219   1.871  0.7715 -3.2655  0.9382
  785MOL0     H 3613   0.587   4.253   2.033  0.2843  2.6621  0.3346
  785MOL0     H 3614   0.719   4.406   1.825 -0.2936  0.4082  0.3577
  785MOL0     H 3615   0.750   4.445   1.994  1.2647 -1.5083  0.8187
  785MOL0     H 3616   0.557   4.584   1.869  0.8142 -0.7300 -1.5987
  785MOL0     H 3617   0.474   4.423   1.850  0.8348 -0.3254 -0.7522
  785MOL0     H 3618   0.411   4.579   2.244 -1.4867  1.2044 -0.7538
  785MOL0     H 3619   0.976   4.346   2.223 -0.4867  0.7803 -0.5287
  785MOL0     H 3620   1.185   4.392   2.226 -2.8432  0.1304  1.1817
  786MOL0     O 3621   2.484   8.163   0.192  0.1801  0.6151 -0.0909
  786MOL0     C 3622   2.443   8.106   0.093 -0.0029 -0.2195  0.0360
  786MOL0     O 3623   2.311   8.087   0.052  0.0992 -0.7044 -0.7461
  786MOL0     C 3624   2.208   8.110   0.150 -0.3360 -0.6913  0.5843
  786MOL0     C 3625   2.111   8.208   0.119 -0.3509 -0.3318 -0.5785
  786MOL0     C 3626   2.023   8.229   0.221  0.6812 -0.0933  0.0520
  786MOL0     C 3627   2.029   8.177   0.348  0.6044 -0.3006 -0.5640
  786MOL0     O 3628   1.941   8.232   0.434  0.5435  1.3433 -0.6980
  786MOL0     C 3629   1.905   8.134   0.539  0.1223  0.8664  0.5439
  786MOL0     C 3630   1.778   8.183   0.609 -0.1461 -0.1214 -0.7341
  786MOL0     C 3631   1.647   8.191   0.521 -0.9151 -0.8985 -0.3089
  786MOL0     C 3632   1.520   8.154   0.606  0.0670 -0.0487  0.9726
  786MOL0     C 3633   1.389   8.187   0.528 -1.0640  0.1729 -0.0537
  786MOL0     C 3634   1.258   8.154   0.600  0.3189  0.4119  0.9546
  786MOL0     C 3635   1.224   8.219   0.737 -0.4533 -0.2223  0.3272
  786MOL0     C 3636   1.125   8.133   0.813  0.1329  0.3913 -1.5325
  786MOL0     N 3637   1.058   8.209   0.926  0.2099 -0.6457  0.7032
  786MOL0     C 3638   1.060   8.201   1.062  0.4454  1.2492  0.8135
  786MOL0     C 3639   0.954   8.274   1.093  0.7793 -0.2084  0.2689
  786MOL0     C 3640   0.908   8.288   1.233 -0.3143 -0.6171 -1.3087
  786MOL0     C 3641   1.007   8.346   1.334  0.2924  0.8804  1.1473
  786MOL0     C 3642   1.047   8.493   1.309  0.9914  0.0553 -0.1534
  786MOL0     C 3643   1.046   8.589   1.425 -0.7736  0.5160 -1.2727
  786MOL0     O 3644   1.150   8.556   1.526 -0.0928  0.0470  0.1827
  786MOL0     C 3645   1.274   8.574   1.473 -0.3832 -0.2056  0.4847
  786MOL0     C 3646   1.341   8.461   1.426 -0.3039  0.7330 -0.1620
  786MOL0     C 3647   1.458   8.461   1.356 -0.4764 -0.0456  0.5436
  786MOL0     C 3648   1.530   8.581   1.337  0.7236  0.1776  0.4684
  786MOL0     C 3649   1.668   8.589   1.287  0.3137  0.3367  0.0335
  786MOL0     O 3650   1.738   8.705   1.324  0.1929 -0.0545  0.6065
  786MOL0     C 3651   1.863   8.714   1.269 -0.1954 -0.5800  1.0657
  786MOL0     C 3652   1.893   8.804   1.166 -0.8478 -0.2706 -0.4370
  786MOL0     C 3653   2.027   8.818   1.125 -0.8379  0.7315  0.4362
  786MOL0     C 3654   2.135   8.738   1.172 -0.7115 -0.6554 -0.7590
  786MOL0     O 3655   2.255   8.734   1.103 -0.2373 -0.7943  0.4304
  786MOL0     C 3656   2.358   8.653   1.154  0.3053  0.4572  0.4947
  786MOL0     C 3657   2.475   8.673   1.068 -0.4257  0.8699 -0.4938
  786MOL0     C 3658   2.459   8.677   0.923  0.7069 -0.1693  0.7482
  786MOL0     C 3659   2.583   8.619   0.857 -0.0580 -0.3944  0.4148
  786MOL0     C 3660   2.580   8.641   0.698 -0.8192  0.2592  0.7336
  786MOL0     C 3661   2.598   8.790   0.654 -0.1789 -0.6583  0.9862
  786MOL0     C 3662   2.669   8.781   0.516  0.5074  0.4163  0.5305
  786MOL0     C 3663   2.725   8.916   0.465  0.2576  0.7611 -0.2758
  786MOL0    Cl 3664   2.860   8.967   0.580  0.3891 -0.1049  0.1423
  786MOL0     C 3665   2.095   8.639   1.276  0.6735 -0.6421 -0.6443
  786MOL0     C 3666   1.962   8.633   1.320  0.5294  1.0736  0.3921
  786MOL0     O 3667   1.705   8.498   1.212 -0.7495 -0.5625 -0.4218
  786MOL0     C 3668   1.463   8.701   1.377  0.4875  0.9361  0.0300
  786MOL0     C 3669   1.344   8.697   1.453 -0.9431 -0.7819  0.7126
  786MOL0     N 3670   0.905   8.350   0.988  0.1104 -0.2792  0.6257
  786MOL0     N 3671   0.972   8.304   0.889 -0.4600 -0.0607  0.0996
  786MOL0     C 3672   2.118   8.071   0.368 -0.4220 -0.9250 -0.5052
  786MOL0     C 3673   2.196   8.029   0.262  0.2519  0.3222 -0.4133
  786MOL0     C 3674   2.548   8.058   0.004  0.4794  0.0465  0.6585
  786MOL0     C 3675   2.516   7.975  -0.112 -0.4711  0.9290 -0.4079
  786MOL0     C 3676   2.623   7.929  -0.200 -0.7030 -0.6910 -1.0085
  786MOL0     C 3677   2.758   7.963  -0.170 -0.6662 -0.0092 -0.6305
  786MOL0     O 3678   2.853   7.923  -0.264  0.1319  0.8720 -1.0327
  786MOL0     C 3679   2.989   7.910  -0.215 -0.1406 -0.9569 -0.0192
  786MOL0     C 3680   3.064   7.823  -0.315  0.6036 -0.1112 -0.2425
  786MOL0     C 3681   3.209   7.820  -0.267  0.3100  0.1157 -0.0510
  786MOL0     C 3682   3.202   7.741  -0.126 -0.1698  0.3517 -0.1083
  786MOL0     C 3683   3.335   7.745  -0.069  0.2103  0.2324  0.8376
  786MOL0     C 3684   3.450   7.738  -0.024  0.7086 -0.1597  0.1384
  786MOL0     C 3685   2.782   8.045  -0.056 -0.2876  0.2482  0.6252
  786MOL0     C 3686   2.685   8.084   0.030 -0.0247 -0.0472  0.1389
  786MOL0     H 3687   2.126   8.274   0.034 -1.2237 -0.0285 -0.5064
  786MOL0     H 3688   1.952   8.311   0.215 -0.9696 -1.5230 -0.9176
  786MOL0     H 3689   1.994   8.118   0.601 -0.6248  0.2637  1.4957
  786MOL0     H 3690   1.885   8.036   0.494 -1.8524  0.9913  1.0321
  786MOL0     H 3691   1.791   8.286   0.643 -1.6896  0.0229 -0.4844
  786MOL0     H 3692   1.766   8.117   0.695 -0.4117 -0.9380 -1.3774
  786MOL0     H 3693   1.677   8.121   0.443  0.1642  1.8345 -2.5009
  786MOL0     H 3694   1.636   8.288   0.472 -1.2957 -0.9446 -0.3203
  786MOL0     H 3695   1.524   8.047   0.627 -0.3384 -0.6927 -1.7881
  786MOL0     H 3696   1.516   8.213   0.698 -4.8830  3.0292 -0.8178
  786MOL0     H 3697   1.399   8.140   0.429  1.3208  2.0128 -0.8011
  786MOL0     H 3698   1.398   8.295   0.507 -3.3827  0.4475  0.1680
  786MOL0     H 3699   1.258   8.046   0.617  2.5092 -0.1020 -1.6724
  786MOL0     H 3700   1.174   8.165   0.531  0.4893  1.7072  0.9328
  786MOL0     H 3701   1.313   8.227   0.801 -0.7304 -1.5134  0.8903
  786MOL0     H 3702   1.192   8.322   0.717  0.2070 -0.1933 -0.6411
  786MOL0     H 3703   1.183   8.051   0.856 -0.5139 -0.5138 -2.3618
  786MOL0     H 3704   1.050   8.091   0.746 -1.0181  0.6035 -0.4206
  786MOL0     H 3705   1.111   8.136   1.131  0.0992  0.8533  0.7026
  786MOL0     H 3706   0.883   8.191   1.277 -4.2551  0.0351 -1.7319
  786MOL0     H 3707   0.813   8.342   1.234 -0.5187 -0.9816 -1.2003
  786MOL0     H 3708   1.098   8.287   1.333 -0.2748 -0.0710 -0.7063
  786MOL0     H 3709   0.955   8.330   1.428 -0.4034 -2.5810  0.3095
  786MOL0     H 3710   1.146   8.504   1.263  1.6680 -1.0067  0.9943
  786MOL0     H 3711   0.968   8.537   1.247 -0.6730 -1.5388  0.7681
  786MOL0     H 3712   0.946   8.588   1.470 -0.1934  1.4808  0.0930
  786MOL0     H 3713   1.053   8.693   1.391 -0.3500  0.7951 -0.3675
  786MOL0     H 3714   1.296   8.364   1.445 -1.9493  1.5068  0.0641
  786MOL0     H 3715   1.495   8.379   1.296 -0.0622  0.2441  0.3921
  786MOL0     H 3716   1.812   8.869   1.135 -1.0544 -1.3345 -2.2850
  786MOL0     H 3717   2.047   8.900   1.057 -0.8873  1.2302  1.0119
  786MOL0     H 3718   2.327   8.549   1.144  0.5501  0.4088  0.2068
  786MOL0     H 3719   2.379   8.666   1.260 -1.3758 -2.7682  1.3457
  786MOL0     H 3720   2.543   8.590   1.089 -0.0094  1.1923 -0.5684
  786MOL0     H 3721   2.529   8.762   1.100  1.5133 -1.0593  2.0565
  786MOL0     H 3722   2.434   8.780   0.898 -1.4473 -0.2946  2.1237
  786MOL0     H 3723   2.368   8.627   0.889 -2.6540  5.9808 -0.9454
  786MOL0     H 3724   2.677   8.658   0.898  0.1432 -0.1787 -0.2429
  786MOL0     H 3725   2.577   8.512   0.881  1.3879 -0.0979  2.4254
  786MOL0     H 3726   2.489   8.594   0.662  0.8639 -1.7900 -1.0755
  786MOL0     H 3727   2.653   8.583   0.641 -2.9620 -2.2959  0.4108
  786MOL0     H 3728   2.670   8.840   0.720  0.0475  0.1730  0.1295
  786MOL0     H 3729   2.504   8.844   0.645  1.0534  1.9772  2.5962
  786MOL0     H 3730   2.754   8.713   0.508  0.1761  0.2330 -2.7445
  786MOL0     H 3731   2.598   8.749   0.439 -2.2901  2.7992  1.9074
  786MOL0     H 3732   2.639   8.983   0.454 -0.8914 -0.8440 -1.5656
  786MOL0     H 3733   2.759   8.906   0.361 -0.5409 -0.7544 -0.4240
  786MOL0     H 3734   2.164   8.570   1.323  0.3228 -0.1356  0.6432
  786MOL0     H 3735   1.928   8.554   1.387  2.4141 -1.1529 -1.1050
  786MOL0     H 3736   1.501   8.801   1.360  0.3422  0.7143 -1.7669
  786MOL0     H 3737   1.315   8.796   1.484  0.9473  0.0053  0.1446
  786MOL0     H 3738   2.125   8.012   0.458 -4.1758  1.1609  1.3885
  786MOL0     H 3739   2.258   7.941   0.275  0.8469  0.4748 -2.0237
  786MOL0     H 3740   2.412   7.958  -0.138 -0.2772 -2.6553  0.6483
  786MOL0     H 3741   2.609   7.865  -0.286 -0.1728 -2.2267 -0.0001
  786MOL0     H 3742   2.992   7.861  -0.117 -1.1604 -0.8829  0.0627
  786MOL0     H 3743   3.024   8.012  -0.195 -2.3502 -0.4220  1.4944
  786MOL0     H 3744   3.016   7.725  -0.326  1.3282 -0.5494  0.3341
  786MOL0     H 3745   3.060   7.873  -0.412 -0.4420 -0.0028 -0.1527
  786MOL0     H 3746   3.245   7.923  -0.257 -1.1073  0.7327 -0.9146
  786MOL0     H 3747   3.271   7.764  -0.337 -0.8021 -0.8995 -0.2578
  786MOL0     H 3748   3.149   7.793  -0.046 -3.3339 -1.0178 -1.1451
  786MOL0     H 3749   3.168   7.637  -0.135  2.2332 -0.4885 -0.1751
  786MOL0     H 3750   3.543   7.757   0.025  0.5716  2.0319 -0.3704
  786MOL0     H 3751   2.878   8.080  -0.019 -0.7932 -1.1049  3.5303
  786MOL0     H 3752   2.707   8.148   0.115 -3.8336  3.9217 -1.4834
  787MOL0     O 3753   3.639   9.716   0.786  0.6187 -0.0309 -0.2408
  787MOL0     C 3754   3.591   9.817   0.746 -0.2322  0.0423 -0.5036
  787MOL0     O 3755   3.660   9.928   0.711  0.4671 -0.4953  0.3356
  787MOL0     C 3756   3.794   9.957   0.729  0.1505 -0.8655  0.1635
  787MOL0     C 3757   3.896   9.866   0.760 -0.2017  0.4841  0.1513
  787MOL0     C 3758   4.028   9.900   0.776  0.4817 -1.8212 -0.5998
  787MOL0     C 3759   4.067  10.035   0.740  0.3618 -0.3033  0.3073
  787MOL0     O 3760   4.198  10.074   0.741 -0.6942  0.0443  0.3559
  787MOL0     C 3761   4.274  10.081   0.864 -0.5916 -0.3592  0.3717
  787MOL0     C 3762   4.236  10.217   0.934 -0.7507  0.6768 -0.0462
  787MOL0     C 3763   4.305  10.329   0.867 -0.6626 -0.0651  0.1529
  787MOL0     C 3764   4.291  10.457   0.938  0.3552  0.6495 -0.1705
  787MOL0     C 3765   4.384  10.571   0.892 -1.3302  0.0769 -0.9621
  787MOL0     C 3766   4.360  10.618   0.753  0.6558  0.2676 -0.4630
  787MOL0     C 3767   4.219  10.662   0.731  1.0678  0.0989 -0.0907
  787MOL0     C 3768   4.171  10.784   0.822  0.8107 -0.0212 -0.1035
  787MOL0     N 3769   4.049  10.850   0.784 -0.6065  0.3548 -0.3133
  787MOL0     C 3770   4.033  10.953   0.696 -0.4767 -0.2326  0.6514
  787MOL0     C 3771   3.910  11.006   0.710 -0.0494  0.2642  0.4476
  787MOL0     C 3772   3.870  11.132   0.654 -0.3195 -0.4125  0.3375
  787MOL0     C 3773   3.854  11.245   0.767 -0.0861 -0.0951 -0.0212
  787MOL0     C 3774   3.827  11.376   0.694  0.3448  0.3031 -0.8935
  787MOL0     C 3775   3.825  11.493   0.787  0.0146 -0.1777  1.1785
  787MOL0     O 3776   3.819  11.624   0.711  0.4894 -0.3715 -0.7825
  787MOL0     C 3777   3.700  11.694   0.715  0.4628 -0.2758 -0.1571
  787MOL0     C 3778   3.573  11.637   0.747  0.4584 -0.0429 -0.0035
  787MOL0     C 3779   3.454  11.712   0.742  0.1556 -0.8434 -0.0580
  787MOL0     C 3780   3.465  11.849   0.712  0.1893 -0.4077  0.1443
  787MOL0     C 3781   3.338  11.930   0.711 -0.1184 -0.0517  0.2253
  787MOL0     O 3782   3.228  11.865   0.754 -0.1158  1.0158  0.0557
  787MOL0     C 3783   3.104  11.919   0.754 -1.1760 -0.6798 -0.8471
  787MOL0     C 3784   3.078  12.050   0.799  0.1289  0.0255  0.0471
  787MOL0     C 3785   2.947  12.092   0.813 -0.0715  0.2194  0.5782
  787MOL0     C 3786   2.844  12.011   0.775  0.7700 -0.8183  0.1649
  787MOL0     O 3787   2.718  12.071   0.796 -0.1545 -0.2470 -0.1995
  787MOL0     C 3788   2.613  12.038   0.706 -0.1381  0.6339  0.5570
  787MOL0     C 3789   2.497  12.132   0.730  0.4070  0.0716  0.6111
  787MOL0     C 3790   2.527  12.278   0.690  0.6909  0.0517  0.0431
  787MOL0     C 3791   2.424  12.369   0.749 -0.6959 -0.8071  0.1286
  787MOL0     C 3792   2.456  12.508   0.692 -0.0681  0.0772 -1.0897
  787MOL0     C 3793   2.575  12.571   0.754 -0.6065  0.0072 -0.3677
  787MOL0     C 3794   2.579  12.721   0.724 -0.8274 -1.1448  0.9375
  787MOL0     C 3795   2.705  12.787   0.774 -0.1145  1.1047  0.1929
  787MOL0    Cl 3796   2.707  12.772   0.956  0.1609  0.0686  0.0459
  787MOL0     C 3797   2.869  11.891   0.711  0.5074  0.5841  0.2881
  787MOL0     C 3798   3.001  11.844   0.710  0.4281 -0.1554  0.1991
  787MOL0     O 3799   3.340  12.042   0.660  0.0732 -0.1321 -0.3758
  787MOL0     C 3800   3.586  11.901   0.661  0.2490  0.3553 -0.3725
  787MOL0     C 3801   3.701  11.831   0.674 -0.2614  0.9868  0.4451
  787MOL0     N 3802   3.849  10.927   0.793 -0.6934 -0.3861 -0.4349
  787MOL0     N 3803   3.930  10.835   0.835  0.4827  0.3311  1.0996
  787MOL0     C 3804   3.969  10.134   0.707  0.2332  0.0163  0.7420
  787MOL0     C 3805   3.833  10.091   0.711 -0.6974 -0.3433  0.2072
  787MOL0     C 3806   3.445   9.823   0.723  0.3610  0.0501 -1.1987
  787MOL0     C 3807   3.391   9.908   0.626 -0.7436  0.0958 -0.3564
  787MOL0     C 3808   3.253   9.913   0.603 -0.3128  0.1324 -0.2625
  787MOL0     C 3809   3.162   9.831   0.674 -0.3198 -0.3941  0.2972
  787MOL0     O 3810   3.029   9.844   0.651  0.2981 -0.4190  0.6068
  787MOL0     C 3811   2.981   9.735   0.571  0.2355  0.2699 -0.9078
  787MOL0     C 3812   2.861   9.774   0.491  0.0053  0.0183 -1.3176
  787MOL0     C 3813   2.720   9.747   0.560  0.1445  0.2674 -0.1839
  787MOL0     C 3814   2.608   9.726   0.458  0.9245 -0.0223  0.3011
  787MOL0     C 3815   2.480   9.777   0.508 -0.1302  0.1268  0.7806
  787MOL0     C 3816   2.375   9.805   0.564  0.6942  0.0361 -1.0360
  787MOL0     C 3817   3.216   9.745   0.775  0.2445  0.4396 -0.0856
  787MOL0     C 3818   3.352   9.741   0.801 -0.1958  0.4233  0.6477
  787MOL0     H 3819   3.875   9.760   0.753 -2.6416  1.0376 -2.7336
  787MOL0     H 3820   4.105   9.824   0.786  2.2164  0.1290  2.5485
  787MOL0     H 3821   4.380  10.069   0.842 -0.8198  0.0903 -1.0482
  787MOL0     H 3822   4.236   9.996   0.922 -2.8026  2.0903  2.8029
  787MOL0     H 3823   4.265  10.210   1.039  0.1122  2.7546 -0.0984
  787MOL0     H 3824   4.129  10.241   0.941 -1.1271 -1.3452  2.6526
  787MOL0     H 3825   4.241  10.337   0.779 -3.6652 -2.1282  1.9536
  787MOL0     H 3826   4.410  10.310   0.843 -1.2754 -1.3266 -1.8148
  787MOL0     H 3827   4.187  10.488   0.954 -0.4803  0.1804 -3.7047
  787MOL0     H 3828   4.323  10.441   1.041 -2.0788 -0.0398  0.5570
  787MOL0     H 3829   4.487  10.548   0.919 -1.6529 -1.1251 -0.7028
  787MOL0     H 3830   4.356  10.649   0.964 -0.4559  0.5048 -1.0814
  787MOL0     H 3831   4.381  10.525   0.700 -0.5867 -1.1187  1.3502
  787MOL0     H 3832   4.427  10.703   0.737  1.2666 -0.5528 -2.5976
  787MOL0     H 3833   4.198  10.702   0.631  1.3848  2.0880  0.5788
  787MOL0     H 3834   4.147  10.581   0.748 -1.8868  2.4798 -0.2437
  787MOL0     H 3835   4.250  10.859   0.822 -0.2801  1.2497  2.0622
  787MOL0     H 3836   4.159  10.753   0.927  0.5956 -0.3635 -0.2266
  787MOL0     H 3837   4.120  11.002   0.654 -2.1271  0.5514 -2.0979
  787MOL0     H 3838   3.783  11.119   0.590  0.7603  1.1236 -1.5610
  787MOL0     H 3839   3.950  11.160   0.586  2.1248  0.5427  3.3567
  787MOL0     H 3840   3.946  11.264   0.823  1.0576  1.3179 -2.2205
  787MOL0     H 3841   3.773  11.219   0.835 -2.3684  3.0691 -1.3231
  787MOL0     H 3842   3.908  11.402   0.626  1.8341  2.0240  1.3901
  787MOL0     H 3843   3.733  11.370   0.639 -0.9096  0.0874  1.1444
  787MOL0     H 3844   3.926  11.499   0.828  0.2343  3.6551  0.4667
  787MOL0     H 3845   3.747  11.480   0.862 -2.4850  1.8533 -0.8907
  787MOL0     H 3846   3.558  11.535   0.782 -1.2832  0.6522  1.4169
  787MOL0     H 3847   3.358  11.664   0.753  0.4067 -1.4097 -0.3081
  787MOL0     H 3848   3.168  12.103   0.829  0.9999 -0.7064 -1.1763
  787MOL0     H 3849   2.924  12.186   0.861 -1.6107 -0.8694  2.0803
  787MOL0     H 3850   2.570  11.939   0.725  3.1902 -0.7833  1.3861
  787MOL0     H 3851   2.646  12.049   0.603  4.1314  0.0561  1.6615
  787MOL0     H 3852   2.467  12.129   0.835 -1.6630 -1.6540  0.0383
  787MOL0     H 3853   2.415  12.103   0.663  1.1589  0.7043 -0.6272
  787MOL0     H 3854   2.539  12.274   0.582 -0.3526 -3.5511 -0.0837
  787MOL0     H 3855   2.624  12.311   0.727  0.5875  0.1880  0.1981
  787MOL0     H 3856   2.330  12.326   0.715 -1.2250 -0.7671  1.4738
  787MOL0     H 3857   2.423  12.359   0.858  0.1275 -1.3544  0.0927
  787MOL0     H 3858   2.376  12.577   0.717  0.2362  0.1874 -0.4028
  787MOL0     H 3859   2.470  12.509   0.583 -0.9220  0.9065 -1.1987
  787MOL0     H 3860   2.665  12.521   0.718 -0.9446  0.7956 -2.4783
  787MOL0     H 3861   2.562  12.561   0.862 -0.2027 -1.9843 -0.4699
  787MOL0     H 3862   2.577  12.734   0.615 -2.9685 -1.3107  0.9078
  787MOL0     H 3863   2.494  12.778   0.764  0.3080  2.1830 -0.9606
  787MOL0     H 3864   2.706  12.889   0.736  1.7407  0.9539 -0.2685
  787MOL0     H 3865   2.791  12.737   0.729 -0.7438  0.4447 -0.2923
  787MOL0     H 3866   2.802  11.814   0.674 -2.8540  1.8098  3.3353
  787MOL0     H 3867   3.018  11.743   0.675  0.5550  0.4105 -1.4612
  787MOL0     H 3868   3.599  12.002   0.623  2.6841  0.7529  1.2888
  787MOL0     H 3869   3.791  11.870   0.628 -0.1385 -2.0998 -2.3305
  787MOL0     H 3870   3.999  10.238   0.699  0.4980  0.0289  1.7269
  787MOL0     H 3871   3.763  10.172   0.695 -0.3749 -0.1970 -0.5095
  787MOL0     H 3872   3.449   9.973   0.562  1.3039 -0.3482  0.9488
  787MOL0     H 3873   3.211   9.993   0.543 -1.0923  4.5727  5.3253
  787MOL0     H 3874   2.943   9.660   0.641 -0.9311  0.1146 -1.6726
  787MOL0     H 3875   3.047   9.683   0.502  0.6440 -0.3582 -0.0566
  787MOL0     H 3876   2.864   9.883   0.479  2.0840  0.2365  0.6622
  787MOL0     H 3877   2.868   9.721   0.395  0.1085 -2.4786 -0.0099
  787MOL0     H 3878   2.698   9.846   0.601 -0.7587  1.4460 -3.2237
  787MOL0     H 3879   2.718   9.674   0.642  1.4599 -0.8882 -1.1268
  787MOL0     H 3880   2.635   9.776   0.364 -3.0065  2.2176  0.1183
  787MOL0     H 3881   2.605   9.619   0.436  3.4905 -0.5453  2.0876
  787MOL0     H 3882   2.283   9.828   0.612 -0.2389 -2.5328 -1.4190
  787MOL0     H 3883   3.160   9.684   0.845 -0.4280  0.4017 -0.6343
  787MOL0     H 3884   3.404   9.682   0.876 -2.5118  0.1128  2.1023
  788MOL0     O 3885   1.841   3.399  11.237 -0.1798  0.6315 -0.5836
  788MOL0     C 3886   1.890   3.356  11.136  1.4956 -0.4654  0.1498
  788MOL0     O 3887   1.838   3.366  11.006 -0.4694  0.1664 -0.0403
  788MOL0     C 3888   1.706   3.393  10.987 -0.2954 -0.2154 -0.3360
  788MOL0     C 3889   1.632   3.495  11.035 -0.7734 -0.5053  0.3795
  788MOL0     C 3890   1.498   3.503  10.993 -0.2755 -0.5162  0.7905
  788MOL0     C 3891   1.445   3.414  10.899  0.3597 -0.0283  0.6447
  788MOL0     O 3892   1.326   3.417  10.840 -0.1087  0.4001 -0.1570
  788MOL0     C 3893   1.225   3.469  10.927 -0.0786  0.1542  0.3674
  788MOL0     C 3894   1.089   3.428  10.866  0.5247 -0.5763 -0.2975
  788MOL0     C 3895   1.077   3.491  10.730 -0.5100  0.1657 -0.2746
  788MOL0     C 3896   0.931   3.481  10.677 -0.6348 -0.2465 -0.5213
  788MOL0     C 3897   0.917   3.586  10.565 -0.0023 -0.5072 -0.1799
  788MOL0     C 3898   0.772   3.584  10.520  0.0079  0.5852  0.6457
  788MOL0     C 3899   0.754   3.647  10.374 -1.1854  0.6317 -1.2568
  788MOL0     C 3900   0.615   3.634  10.329  0.0560 -0.5060 -0.1006
  788MOL0     N 3901   0.521   3.708  10.411 -0.2109 -0.0012  0.1286
  788MOL0     C 3902   0.422   3.662  10.499 -0.4766  0.5184  1.2947
  788MOL0     C 3903   0.334   3.763  10.525  0.7505 -0.4126 -0.4646
  788MOL0     C 3904   0.212   3.763  10.609  0.0234 -0.4531  1.1818
  788MOL0     C 3905   0.111   3.883  10.577 -0.7970  0.1241  0.3671
  788MOL0     C 3906  -0.022   3.847  10.634 -0.0277  0.2612  0.6567
  788MOL0     C 3907  -0.122   3.962  10.644 -0.5906 -0.0408 -0.0664
  788MOL0     O 3908  -0.249   3.902  10.669  0.2787 -0.3575 -0.7628
  788MOL0     C 3909  -0.357   3.978  10.698 -0.2074 -0.3836  0.3469
  788MOL0     C 3910  -0.356   4.117  10.702  0.4414  0.4442  1.1994
  788MOL0     C 3911  -0.474   4.198  10.697  0.0046  0.7957 -0.3022
  788MOL0     C 3912  -0.594   4.124  10.692 -0.3047  0.4213  0.1346
  788MOL0     C 3913  -0.718   4.198  10.680  0.5351  0.2157  0.1517
  788MOL0     O 3914  -0.708   4.337  10.700  0.8019 -0.7633  0.3811
  788MOL0     C 3915  -0.814   4.417  10.678  0.7956 -0.0521  0.2710
  788MOL0     C 3916  -0.864   4.509  10.768 -0.4261  0.5936  0.3321
  788MOL0     C 3917  -0.985   4.569  10.750  0.3805  0.2719  0.2859
  788MOL0     C 3918  -1.052   4.559  10.625  0.5312  0.4042 -0.4088
  788MOL0     O 3919  -1.173   4.616  10.591 -0.5538  0.1930  0.0828
  788MOL0     C 3920  -1.242   4.675  10.698 -0.9015  0.0434 -0.7625
  788MOL0     C 3921  -1.375   4.718  10.655 -0.1783  0.2059 -0.2544
  788MOL0     C 3922  -1.465   4.600  10.618 -0.4106  0.6146  0.7200
  788MOL0     C 3923  -1.608   4.644  10.574  0.6088  0.0504 -0.0037
  788MOL0     C 3924  -1.616   4.735  10.444  0.9003 -0.5638  0.1177
  788MOL0     C 3925  -1.736   4.834  10.450 -0.6304  0.4821  0.1379
  788MOL0     C 3926  -1.718   4.958  10.548 -0.6945  0.2942 -0.3357
  788MOL0     C 3927  -1.828   5.063  10.525 -0.2468 -0.0399 -0.1812
  788MOL0    Cl 3928  -1.991   4.985  10.522 -0.1301  0.1899 -0.0856
  788MOL0     C 3929  -1.006   4.475  10.532  0.1887  0.3732 -0.3078
  788MOL0     C 3930  -0.892   4.399  10.562  0.1143 -0.4469  0.0055
  788MOL0     O 3931  -0.829   4.140  10.661  0.2096 -0.1261  0.8153
  788MOL0     C 3932  -0.600   3.983  10.697  0.1334  0.0993 -0.2520
  788MOL0     C 3933  -0.478   3.917  10.696  1.0468 -0.8066 -0.5174
  788MOL0     N 3934   0.397   3.870  10.472  0.1377  0.5649 -0.0373
  788MOL0     N 3935   0.504   3.843  10.412  0.7266 -0.6898 -0.4133
  788MOL0     C 3936   1.529   3.316  10.846 -1.2673  0.7573  0.1560
  788MOL0     C 3937   1.656   3.297  10.894 -0.7910 -0.7691 -0.0367
  788MOL0     C 3938   2.013   3.281  11.149  0.4246  0.3380 -0.3747
  788MOL0     C 3939   2.063   3.232  11.274 -0.3991 -0.2709 -0.7785
  788MOL0     C 3940   2.177   3.142  11.279 -0.5222 -0.5192 -0.2577
  788MOL0     C 3941   2.251   3.131  11.163  0.6903  0.4918 -0.5321
  788MOL0     O 3942   2.355   3.044  11.148 -0.8500 -0.8011 -0.2267
  788MOL0     C 3943   2.336   2.914  11.214 -0.6127 -0.5898  0.3517
  788MOL0     C 3944   2.422   2.813  11.151  0.2854 -0.3375  0.0990
  788MOL0     C 3945   2.381   2.785  11.003  0.6575 -0.1600 -0.1178
  788MOL0     C 3946   2.456   2.662  10.955 -0.0900  0.0311  0.5296
  788MOL0     C 3947   2.417   2.531  11.010 -0.2800 -0.0606 -0.0978
  788MOL0     C 3948   2.378   2.427  11.058  0.3644 -0.3304 -0.1174
  788MOL0     C 3949   2.219   3.193  11.048  0.4972 -0.4686 -1.1285
  788MOL0     C 3950   2.097   3.262  11.035  0.7207 -0.6196  0.1689
  788MOL0     H 3951   1.683   3.575  11.089 -0.6889 -0.4329  0.1937
  788MOL0     H 3952   1.444   3.587  11.035  1.0284  1.3534 -1.0940
  788MOL0     H 3953   1.233   3.577  10.944  1.9054  0.1958 -0.5636
  788MOL0     H 3954   1.235   3.428  11.028 -1.2926  0.5916  0.6843
  788MOL0     H 3955   1.012   3.468  10.932  0.3983  0.4399 -1.0428
  788MOL0     H 3956   1.080   3.320  10.849  0.8269 -0.6568  0.0295
  788MOL0     H 3957   1.144   3.445  10.657  1.9072 -1.9050  2.9657
  788MOL0     H 3958   1.106   3.596  10.737 -1.7107  0.4027  2.4616
  788MOL0     H 3959   0.911   3.376  10.653 -0.6504 -0.9663  2.2980
  788MOL0     H 3960   0.860   3.511  10.754  0.7851 -0.8922  1.1024
  788MOL0     H 3961   0.983   3.556  10.484 -0.9940 -1.3315 -0.6895
  788MOL0     H 3962   0.953   3.685  10.595  0.2430  0.1601 -2.4865
  788MOL0     H 3963   0.703   3.642  10.583 -0.1942  1.1462 -0.0789
  788MOL0     H 3964   0.744   3.479  10.508 -1.6831  0.9933  0.7012
  788MOL0     H 3965   0.779   3.753  10.389 -2.7477  0.7620  0.8518
  788MOL0     H 3966   0.814   3.603  10.294 -2.7232  0.3333 -2.2843
  788MOL0     H 3967   0.582   3.530  10.319 -1.5034 -0.3399  2.5306
  788MOL0     H 3968   0.607   3.677  10.228 -0.1254 -0.5659 -0.1109
  788MOL0     H 3969   0.418   3.557  10.525 -1.8686  0.2687  0.1535
  788MOL0     H 3970   0.231   3.779  10.716 -2.7917 -1.4909  1.9189
  788MOL0     H 3971   0.166   3.664  10.604 -0.0240 -0.4463  1.4498
  788MOL0     H 3972   0.107   3.904  10.470  1.2210 -0.7684  0.0724
  788MOL0     H 3973   0.147   3.971  10.632  3.9929 -0.4436 -1.4295
  788MOL0     H 3974  -0.074   3.773  10.572  0.3222 -0.5814  1.3532
  788MOL0     H 3975  -0.018   3.810  10.737 -0.1428 -0.5908  0.3674
  788MOL0     H 3976  -0.109   4.019  10.552  1.3610  1.4831  1.0644
  788MOL0     H 3977  -0.088   4.032  10.720  3.3479 -0.5299 -1.1827
  788MOL0     H 3978  -0.260   4.166  10.710  0.7461 -0.2143  1.7689
  788MOL0     H 3979  -0.458   4.305  10.691  0.0464  0.8113  0.1094
  788MOL0     H 3980  -0.815   4.521  10.865  0.3856 -0.9106  0.1332
  788MOL0     H 3981  -1.025   4.640  10.822 -0.9177 -2.2878  2.2192
  788MOL0     H 3982  -1.186   4.767  10.714  2.5187 -1.9199 -0.3608
  788MOL0     H 3983  -1.234   4.601  10.779  3.5478 -1.7062 -2.4675
  788MOL0     H 3984  -1.353   4.785  10.572 -2.3649 -1.1580 -2.0337
  788MOL0     H 3985  -1.409   4.781  10.738  0.5094  3.7913 -2.4988
  788MOL0     H 3986  -1.471   4.519  10.692  1.6875 -1.7731 -1.5280
  788MOL0     H 3987  -1.423   4.552  10.529 -0.3775  1.6196  0.1768
  788MOL0     H 3988  -1.668   4.556  10.549 -0.1073 -1.1694  5.0190
  788MOL0     H 3989  -1.655   4.698  10.656 -2.4466  2.5499 -3.0559
  788MOL0     H 3990  -1.622   4.670  10.356  1.3956  2.1495 -2.0362
  788MOL0     H 3991  -1.527   4.795  10.423  0.6766 -0.5350 -0.8016
  788MOL0     H 3992  -1.820   4.771  10.483  1.9935 -3.6230 -0.4131
  788MOL0     H 3993  -1.743   4.877  10.350  1.9865 -0.5611 -0.5504
  788MOL0     H 3994  -1.723   4.926  10.652 -1.0572 -2.0345 -1.0125
  788MOL0     H 3995  -1.618   5.001  10.542 -0.3075 -0.0136  2.5317
  788MOL0     H 3996  -1.821   5.118  10.431  0.6744  0.4749  0.1869
  788MOL0     H 3997  -1.841   5.140  10.602 -3.7267 -1.1394  0.5494
  788MOL0     H 3998  -1.045   4.471  10.431 -1.2202  2.0162  0.1000
  788MOL0     H 3999  -0.863   4.334  10.481  0.1038  0.3086 -0.6135
  788MOL0     H 4000  -0.693   3.928  10.687 -0.2802 -0.0712  3.2342
  788MOL0     H 4001  -0.487   3.809  10.708 -0.4999 -0.5777  0.7523
  788MOL0     H 4002   1.487   3.257  10.766 -4.6017  2.6856  0.3410
  788MOL0     H 4003   1.720   3.219  10.855  3.6124  1.2288  2.4527
  788MOL0     H 4004   2.005   3.254  11.363  0.9469  0.1573  0.0214
  788MOL0     H 4005   2.197   3.094  11.375 -0.6066  2.2353  1.2460
  788MOL0     H 4006   2.235   2.876  11.201 -0.3439 -0.7237 -1.6641
  788MOL0     H 4007   2.367   2.917  11.319  0.4058 -1.5741  0.0963
  788MOL0     H 4008   2.519   2.862  11.170 -0.7956  1.0244  2.5974
  788MOL0     H 4009   2.429   2.727  11.218  0.5967  0.9226  1.7482
  788MOL0     H 4010   2.410   2.870  10.940  0.1743  0.0533 -0.0520
  788MOL0     H 4011   2.275   2.767  10.988  0.6907  0.9963 -2.1281
  788MOL0     H 4012   2.439   2.663  10.847 -0.8767 -1.3826  0.6234
  788MOL0     H 4013   2.564   2.675  10.964  0.2881 -2.7842  0.9269
  788MOL0     H 4014   2.345   2.338  11.108  0.9347 -0.8040 -0.5598
  788MOL0     H 4015   2.279   3.179  10.958  1.0611  0.9638 -0.9977
  788MOL0     H 4016   2.054   3.291  10.939 -0.7194 -2.1632  0.2968
  789MOL0     O 4017   6.587  10.356   7.110  0.1887 -0.3272 -0.2069
  789MOL0     C 4018   6.507  10.394   7.193 -0.5914 -0.8330 -0.2161
  789MOL0     O 4019   6.532  10.440   7.323  0.2439 -0.0887  0.0591
  789MOL0     C 4020   6.657  10.438   7.367  0.1976  0.3349 -0.7207
  789MOL0     C 4021   6.714  10.339   7.449 -0.0545 -0.4211  0.3479
  789MOL0     C 4022   6.850  10.336   7.483 -0.6415 -0.3245 -0.2783
  789MOL0     C 4023   6.933  10.441   7.451  0.1881 -0.6626 -0.2890
  789MOL0     O 4024   7.071  10.441   7.473  0.7570 -0.4206 -0.3373
  789MOL0     C 4025   7.121  10.370   7.595 -0.6066  0.1097  0.5177
  789MOL0     C 4026   7.276  10.386   7.609  0.5667 -0.1257 -0.3919
  789MOL0     C 4027   7.342  10.323   7.728  0.2244 -0.3585 -0.9123
  789MOL0     C 4028   7.498  10.351   7.727 -0.5290  0.3636 -0.6072
  789MOL0     C 4029   7.550  10.274   7.844 -0.6332  0.4486  0.0310
  789MOL0     C 4030   7.701  10.306   7.876 -0.0322  0.1378 -0.6779
  789MOL0     C 4031   7.760  10.216   7.989 -0.2935 -0.8672  0.5466
  789MOL0     C 4032   7.908  10.188   7.970 -0.0204  0.5460 -0.0115
  789MOL0     N 4033   7.980  10.317   7.972 -0.2686 -0.8011 -0.5993
  789MOL0     C 4034   7.984  10.403   8.081  0.1462  0.4189 -0.3763
  789MOL0     C 4035   8.025  10.522   8.037  0.2380 -0.0057  0.2302
  789MOL0     C 4036   8.044  10.644   8.121 -0.0594 -0.0588  0.2794
  789MOL0     C 4037   7.937  10.753   8.115  0.9985  0.5267  0.6191
  789MOL0     C 4038   7.804  10.692   8.170 -0.4927 -0.0059 -0.5247
  789MOL0     C 4039   7.678  10.727   8.092  0.8047  0.0262  0.9635
  789MOL0     O 4040   7.572  10.672   8.164  0.0918 -0.3632 -0.4398
  789MOL0     C 4041   7.451  10.645   8.097  0.2883  0.4376  0.8132
  789MOL0     C 4042   7.379  10.757   8.054  1.0493 -0.0615 -0.0086
  789MOL0     C 4043   7.246  10.738   8.007 -0.0228 -0.4839 -0.1308
  789MOL0     C 4044   7.197  10.607   7.995  0.0760 -0.4773 -0.7338
  789MOL0     C 4045   7.059  10.593   7.951  0.2309 -0.4364 -0.6855
  789MOL0     O 4046   7.003  10.702   7.892 -0.2029 -0.5425  0.4992
  789MOL0     C 4047   6.877  10.711   7.840  0.3323 -0.6140  0.4915
  789MOL0     C 4048   6.817  10.836   7.864 -0.0053 -0.0333 -0.4622
  789MOL0     C 4049   6.699  10.875   7.800  0.3347 -0.0878 -0.0902
  789MOL0     C 4050   6.637  10.786   7.719 -0.0086  0.1915  1.0714
  789MOL0     O 4051   6.512  10.819   7.659  0.4186 -0.1748  0.2156
  789MOL0     C 4052   6.510  10.930   7.573 -0.2910  0.1131  0.7305
  789MOL0     C 4053   6.380  10.950   7.512 -0.4726  0.3757 -0.0868
  789MOL0     C 4054   6.348  10.860   7.391 -0.0173  0.3372 -1.0877
  789MOL0     C 4055   6.361  10.934   7.255  0.4097  0.0380 -0.3263
  789MOL0     C 4056   6.304  10.850   7.149  0.0661 -0.0117  0.1638
  789MOL0     C 4057   6.409  10.751   7.094  1.5458 -0.5296 -1.4971
  789MOL0     C 4058   6.511  10.812   6.980 -0.1700 -0.6625 -0.1527
  789MOL0     C 4059   6.637  10.724   6.981  0.0472  0.8621 -0.2674
  789MOL0    Cl 4060   6.741  10.766   6.853 -0.1190  0.2528 -0.0901
  789MOL0     C 4061   6.688  10.653   7.697 -0.6141 -0.1252 -1.0491
  789MOL0     C 4062   6.816  10.617   7.752 -0.3603 -0.0064 -0.2836
  789MOL0     O 4063   7.005  10.484   7.960 -0.2257  0.0641 -0.7435
  789MOL0     C 4064   7.278  10.499   8.042  0.0993 -0.2565  0.8282
  789MOL0     C 4065   7.408  10.518   8.083 -0.0646  0.0083  0.3824
  789MOL0     N 4066   8.036  10.517   7.898 -0.0095  0.0214 -0.3130
  789MOL0     N 4067   8.021  10.388   7.860  0.3581  0.6328 -0.1399
  789MOL0     C 4068   6.868  10.554   7.394 -0.8091  0.6022  0.0210
  789MOL0     C 4069   6.740  10.549   7.338  1.1111 -0.8951 -0.1606
  789MOL0     C 4070   6.370  10.399   7.144 -0.0043  0.2082 -0.1513
  789MOL0     C 4071   6.277  10.469   7.221 -1.0359  0.5446 -0.1347
  789MOL0     C 4072   6.141  10.481   7.177 -0.2168  0.5243  0.5349
  789MOL0     C 4073   6.103  10.414   7.060 -0.0976 -1.0114 -0.3447
  789MOL0     O 4074   5.980  10.425   7.003  0.7504 -0.4411 -0.1541
  789MOL0     C 4075   5.888  10.532   7.040 -0.8315  1.2329 -1.2288
  789MOL0     C 4076   5.955  10.663   7.003 -0.2569 -0.1258 -0.1199
  789MOL0     C 4077   5.876  10.783   7.070  0.2646 -0.0334 -0.1568
  789MOL0     C 4078   5.833  10.898   6.971 -0.0850  0.5822 -0.7274
  789MOL0     C 4079   5.952  10.979   6.924 -0.5427 -0.2143 -0.1563
  789MOL0     C 4080   6.045  11.035   6.867  0.1065 -0.4569 -0.6007
  789MOL0     C 4081   6.194  10.342   6.992  0.2425  0.4416 -0.6803
  789MOL0     C 4082   6.329  10.345   7.030  0.7427  0.0625  0.8160
  789MOL0     H 4083   6.650  10.256   7.479 -1.9079  0.6398 -0.4595
  789MOL0     H 4084   6.882  10.247   7.537  2.2779  2.0070  2.2502
  789MOL0     H 4085   7.110  10.262   7.578  1.4230  0.2072 -1.9936
  789MOL0     H 4086   7.078  10.404   7.690  0.9818 -2.2717  2.2141
  789MOL0     H 4087   7.296  10.493   7.622  3.2419 -0.7944  2.3843
  789MOL0     H 4088   7.319  10.356   7.513 -1.3905 -0.4685 -1.1990
  789MOL0     H 4089   7.322  10.216   7.720 -0.3230 -0.1651 -2.4673
  789MOL0     H 4090   7.286  10.352   7.817  2.6885  3.3081 -0.3418
  789MOL0     H 4091   7.540  10.310   7.635  2.0201  0.3787  0.4581
  789MOL0     H 4092   7.520  10.457   7.739 -0.1486  0.2242 -0.0466
  789MOL0     H 4093   7.543  10.169   7.815 -1.5722  0.7983 -1.0721
  789MOL0     H 4094   7.487  10.286   7.932  0.9850 -0.0240  1.3108
  789MOL0     H 4095   7.714  10.410   7.906 -1.8160  0.5924 -1.3439
  789MOL0     H 4096   7.751  10.279   7.783  0.6620  0.2329 -0.3375
  789MOL0     H 4097   7.736  10.263   8.085  0.1772 -2.3605  1.4323
  789MOL0     H 4098   7.718  10.116   7.976 -1.6580 -0.4858  1.7180
  789MOL0     H 4099   7.932  10.125   7.884  1.6444 -2.2100  2.2865
  789MOL0     H 4100   7.953  10.127   8.049  1.6417 -2.9686 -3.3660
  789MOL0     H 4101   7.979  10.383   8.187  1.2030 -0.1434 -0.4191
  789MOL0     H 4102   8.143  10.687   8.101  0.4068 -1.3591 -0.3246
  789MOL0     H 4103   8.047  10.612   8.225  2.1011 -2.5632 -0.4473
  789MOL0     H 4104   7.924  10.781   8.010 -1.4887 -4.9698 -0.8573
  789MOL0     H 4105   7.969  10.842   8.171  2.6469  0.6785 -0.4691
  789MOL0     H 4106   7.804  10.583   8.184  0.0812  0.3581  3.0647
  789MOL0     H 4107   7.783  10.725   8.272  0.3290  1.3120 -0.7554
  789MOL0     H 4108   7.675  10.680   7.993 -1.4273  0.8171  0.6057
  789MOL0     H 4109   7.665  10.834   8.076  2.4355  0.2271  0.7982
  789MOL0     H 4110   7.424  10.855   8.073  0.4779  0.0903  0.6067
  789MOL0     H 4111   7.181  10.821   7.981 -1.5838 -1.6278 -0.0268
  789MOL0     H 4112   6.873  10.912   7.917  0.5410 -1.0176  0.4157
  789MOL0     H 4113   6.654  10.973   7.811 -0.3690  0.0618 -3.3174
  789MOL0     H 4114   6.587  10.916   7.496  1.6234  0.5592  2.4766
  789MOL0     H 4115   6.544  11.026   7.614  0.3992 -0.3547  1.2645
  789MOL0     H 4116   6.395  11.052   7.475  2.4990  2.0284  4.7314
  789MOL0     H 4117   6.307  10.950   7.595 -3.0329 -0.1758 -2.2046
  789MOL0     H 4118   6.242  10.834   7.401  0.5513 -1.2823  1.3570
  789MOL0     H 4119   6.402  10.766   7.399 -2.9720 -1.3457  1.1232
  789MOL0     H 4120   6.314  11.033   7.251 -0.7843 -0.5511 -1.1763
  789MOL0     H 4121   6.466  10.963   7.247  1.2678 -2.6692  0.3444
  789MOL0     H 4122   6.264  10.917   7.072 -0.2299 -1.3506 -0.8776
  789MOL0     H 4123   6.219  10.790   7.183 -0.3966 -0.8517 -2.3058
  789MOL0     H 4124   6.350  10.670   7.049 -0.7576 -0.5187  1.2057
  789MOL0     H 4125   6.463  10.706   7.178 -1.9439 -1.0068  0.6814
  789MOL0     H 4126   6.448  10.815   6.891 -2.3832 -2.5820  1.2241
  789MOL0     H 4127   6.551  10.907   7.015 -2.1933 -0.0151  0.4871
  789MOL0     H 4128   6.602  10.620   6.969 -0.1293  1.1674 -3.0523
  789MOL0     H 4129   6.694  10.746   7.072 -0.5712 -2.5204  1.0963
  789MOL0     H 4130   6.639  10.574   7.642  3.8669 -4.4053  0.3588
  789MOL0     H 4131   6.852  10.516   7.739 -2.7173 -0.9333 -0.0939
  789MOL0     H 4132   7.259  10.393   8.031 -0.3079 -0.0905 -0.1824
  789MOL0     H 4133   7.481  10.443   8.111  1.2337  1.0699 -0.0490
  789MOL0     H 4134   6.939  10.630   7.365  0.7396 -0.3932  1.0581
  789MOL0     H 4135   6.697  10.637   7.292 -2.1455 -0.7212  2.7959
  789MOL0     H 4136   6.289  10.534   7.308 -5.1447  1.4690 -0.0041
  789MOL0     H 4137   6.077  10.539   7.244  1.6558  0.6577  2.2833
  789MOL0     H 4138   5.862  10.526   7.146  0.5299 -0.0968 -0.9339
  789MOL0     H 4139   5.798  10.503   6.984  0.5548 -4.9275 -0.9784
  789MOL0     H 4140   6.055  10.687   7.041  1.9035 -1.6281 -4.2870
  789MOL0     H 4141   5.963  10.680   6.895 -2.1902  0.2809 -0.2237
  789MOL0     H 4142   5.935  10.822   7.154 -0.9988 -0.5583  1.0221
  789MOL0     H 4143   5.779  10.741   7.100 -0.7459  1.0143 -1.8428
  789MOL0     H 4144   5.787  10.850   6.885 -3.7270 -0.1991  1.4533
  789MOL0     H 4145   5.762  10.965   7.021 -0.2336  0.4151 -0.7145
  789MOL0     H 4146   6.126  11.062   6.803 -1.0840 -1.2886 -2.5555
  789MOL0     H 4147   6.159  10.295   6.901  1.6081  0.1719 -1.0886
  789MOL0     H 4148   6.401  10.298   6.963  0.5356  2.2890 -1.1005
  790MOL0     O 4149   0.931   9.632   9.060 -0.0311 -0.0575 -0.0618
  790MOL0     C 4150   0.980   9.731   9.115  0.6494 -0.1967 -0.2549
  790MOL0     O 4151   0.905   9.849   9.141 -0.1483  0.1860 -0.0408
  790MOL0     C 4152   0.772   9.846   9.128  1.0211  1.0547  0.9647
  790MOL0     C 4153   0.686   9.847   9.241  0.3910  0.3195 -0.5317
  790MOL0     C 4154   0.549   9.817   9.221  0.0761 -0.7696 -0.2350
  790MOL0     C 4155   0.497   9.798   9.091  0.6423  1.5795  0.7413
  790MOL0     O 4156   0.358   9.792   9.091  0.1336 -0.1074 -0.9136
  790MOL0     C 4157   0.287   9.844   8.977 -0.0579 -0.2076 -0.3051
  790MOL0     C 4158   0.148   9.884   9.038 -0.1484 -0.1298 -0.2186
  790MOL0     C 4159   0.041   9.852   8.926 -0.0336 -0.0714  0.4902
  790MOL0     C 4160  -0.103   9.875   8.985 -0.2310 -0.0339  0.5613
  790MOL0     C 4161  -0.204   9.877   8.870  0.0319 -0.2184  0.7365
  790MOL0     C 4162  -0.198  10.012   8.796  0.0576  0.7286 -0.2753
  790MOL0     C 4163  -0.300  10.016   8.682  0.5537  0.5336  0.9358
  790MOL0     C 4164  -0.328  10.162   8.643  0.8815 -0.1917  0.0302
  790MOL0     N 4165  -0.421  10.171   8.530 -0.3836 -0.4204 -0.2556
  790MOL0     C 4166  -0.382  10.185   8.398 -0.7943 -0.1225 -0.9144
  790MOL0     C 4167  -0.490  10.176   8.325 -0.8537 -0.0839 -0.7515
  790MOL0     C 4168  -0.486  10.154   8.179 -0.0268  0.6577 -1.1138
  790MOL0     C 4169  -0.411  10.271   8.125 -0.0268 -1.2970 -0.8310
  790MOL0     C 4170  -0.441  10.297   7.979  1.0722 -0.0071 -1.1153
  790MOL0     C 4171  -0.574  10.374   7.953 -0.2925  0.3950  0.1588
  790MOL0     O 4172  -0.677  10.281   7.967  0.1918  0.1830 -0.2982
  790MOL0     C 4173  -0.809  10.332   7.959  0.6791 -0.8032 -0.0065
  790MOL0     C 4174  -0.915  10.252   7.998  0.7292  0.0598 -0.3720
  790MOL0     C 4175  -1.052  10.292   7.992 -0.6044  0.1511 -0.8643
  790MOL0     C 4176  -1.086  10.422   7.964 -0.4060  0.5116  0.2627
  790MOL0     C 4177  -1.229  10.471   7.962  0.0277 -0.0330 -0.5165
  790MOL0     O 4178  -1.324  10.369   7.963  0.2915 -1.0807 -0.1730
  790MOL0     C 4179  -1.454  10.402   7.970 -0.1884  0.0892 -0.3171
  790MOL0     C 4180  -1.503  10.476   7.864 -0.3515 -0.4834 -0.2207
  790MOL0     C 4181  -1.635  10.526   7.870 -0.1211 -0.6267 -0.2833
  790MOL0     C 4182  -1.717  10.494   7.981  0.4027  0.0239 -0.5451
  790MOL0     O 4183  -1.855  10.536   7.987  0.4544  0.9659  0.2885
  790MOL0     C 4184  -1.959  10.445   8.043  0.1702 -0.0845  0.8909
  790MOL0     C 4185  -2.092  10.510   8.002  0.0971  0.0786  0.4127
  790MOL0     C 4186  -2.207  10.420   8.045  0.6231 -0.1826 -1.4118
  790MOL0     C 4187  -2.343  10.485   8.033 -0.6105  0.0489 -0.2528
  790MOL0     C 4188  -2.458  10.387   8.064  0.0415 -0.4504  1.0786
  790MOL0     C 4189  -2.589  10.450   8.019 -0.0379  1.4329 -0.7395
  790MOL0     C 4190  -2.660  10.552   8.112  0.4668 -0.6980  0.1658
  790MOL0     C 4191  -2.801  10.592   8.052  0.1574  0.0064 -0.6046
  790MOL0    Cl 4192  -2.827  10.773   8.060 -0.1591  0.3634 -0.3360
  790MOL0     C 4193  -1.666  10.426   8.088 -0.1713  0.3185 -0.8805
  790MOL0     C 4194  -1.536  10.374   8.084 -0.1686  0.3183  0.7932
  790MOL0     O 4195  -1.250  10.591   7.973 -0.2470  0.2267  0.1823
  790MOL0     C 4196  -0.974  10.499   7.913 -0.8069  0.2699 -0.0426
  790MOL0     C 4197  -0.841  10.456   7.903 -0.0661 -0.4448 -0.4722
  790MOL0     N 4198  -0.598  10.163   8.411  0.5879  0.3214  0.6394
  790MOL0     N 4199  -0.553  10.163   8.531 -0.2548 -0.0551 -0.2178
  790MOL0     C 4200   0.573   9.802   8.979  0.9080 -0.2346  0.2464
  790MOL0     C 4201   0.711   9.825   8.996 -0.0722  0.9273  0.0971
  790MOL0     C 4202   1.113   9.728   9.148  0.2053 -0.1410  0.0867
  790MOL0     C 4203   1.211   9.671   9.063  0.6159 -0.0132 -0.9799
  790MOL0     C 4204   1.342   9.648   9.115 -0.3932  0.2413 -0.1592
  790MOL0     C 4205   1.388   9.707   9.237  0.0673 -0.1618  0.1545
  790MOL0     O 4206   1.517   9.716   9.294  0.1651  0.7333  0.0675
  790MOL0     C 4207   1.608   9.630   9.225  0.1084 -0.3113 -0.3268
  790MOL0     C 4208   1.739   9.616   9.293  0.4378 -0.9947 -0.1180
  790MOL0     C 4209   1.814   9.751   9.303 -0.2698  0.8118  1.3116
  790MOL0     C 4210   1.942   9.717   9.374 -1.2426  0.1855 -0.8161
  790MOL0     C 4211   2.053   9.808   9.324 -0.0751  0.2323 -0.4474
  790MOL0     C 4212   2.146   9.874   9.299 -0.7936 -0.5124  1.0097
  790MOL0     C 4213   1.286   9.777   9.307 -0.6950 -0.0655  0.8229
  790MOL0     C 4214   1.154   9.780   9.273  0.2148  0.4622  0.0754
  790MOL0     H 4215   0.727   9.862   9.340 -3.1154  2.8045  0.7468
  790MOL0     H 4216   0.494   9.811   9.315  0.6130 -0.8565  0.0799
  790MOL0     H 4217   0.275   9.785   8.886  0.4936 -0.8805  0.0468
  790MOL0     H 4218   0.324   9.939   8.938 -2.8597  2.1877  2.3066
  790MOL0     H 4219   0.144   9.989   9.068  0.9210 -0.6021  1.7806
  790MOL0     H 4220   0.130   9.832   9.133  1.2933 -2.4243 -1.1042
  790MOL0     H 4221   0.051   9.749   8.890  2.5119  0.4562 -0.5684
  790MOL0     H 4222   0.060   9.910   8.836  0.2315 -1.7978 -0.6087
  790MOL0     H 4223  -0.109   9.795   9.059 -2.0097  1.3072  1.9336
  790MOL0     H 4224  -0.100   9.969   9.041  2.3908 -0.4755  1.3006
  790MOL0     H 4225  -0.307   9.875   8.907 -0.7725  0.2430 -1.3410
  790MOL0     H 4226  -0.186   9.802   8.793  0.7745  0.3701  0.3220
  790MOL0     H 4227  -0.101  10.049   8.762 -0.8219  2.0662 -1.4706
  790MOL0     H 4228  -0.225  10.088   8.871  0.6802 -0.4700  1.2076
  790MOL0     H 4229  -0.270   9.963   8.592  2.1149 -0.7891  2.1709
  790MOL0     H 4230  -0.399   9.988   8.721 -0.8753  0.3753 -2.4799
  790MOL0     H 4231  -0.234  10.205   8.609  0.3008  1.7978  0.7447
  790MOL0     H 4232  -0.372  10.211   8.731  1.4643 -1.3563  0.9999
  790MOL0     H 4233  -0.284  10.178   8.351  0.9470 -0.5734  2.4621
  790MOL0     H 4234  -0.590  10.155   8.145 -0.9593  1.6060  1.4816
  790MOL0     H 4235  -0.432  10.061   8.159  2.7078  1.2503  2.4030
  790MOL0     H 4236  -0.306  10.242   8.130 -0.5119 -3.0193  0.0733
  790MOL0     H 4237  -0.432  10.367   8.173  1.7402  0.5347 -3.4193
  790MOL0     H 4238  -0.354  10.354   7.946  2.5278 -2.6957 -2.2249
  790MOL0     H 4239  -0.427  10.204   7.924  0.6262  1.7056 -4.3642
  790MOL0     H 4240  -0.573  10.422   7.855 -0.7357  1.6006  0.7208
  790MOL0     H 4241  -0.591  10.448   8.032 -2.1748  0.9758 -0.7303
  790MOL0     H 4242  -0.891  10.154   8.038  0.5690 -0.1303 -0.7264
  790MOL0     H 4243  -1.120  10.224   8.042 -1.5605  1.2400 -0.6619
  790MOL0     H 4244  -1.440  10.492   7.777  0.5567 -1.0037  0.3188
  790MOL0     H 4245  -1.651  10.588   7.782 -0.0222  0.0713  0.1880
  790MOL0     H 4246  -1.956  10.448   8.152 -0.7953  2.0088  0.9121
  790MOL0     H 4247  -1.951  10.346   7.997  1.3848  1.0517 -1.5648
  790MOL0     H 4248  -2.096  10.531   7.895 -2.3608 -0.1171  0.4227
  790MOL0     H 4249  -2.091  10.604   8.058 -4.4718  0.2019  0.6382
  790MOL0     H 4250  -2.191  10.381   8.146  3.4019  1.7983 -0.9605
  790MOL0     H 4251  -2.198  10.344   7.968  0.8117 -0.9035 -0.6954
  790MOL0     H 4252  -2.342  10.579   8.089 -0.5742 -0.7564  1.1290
  790MOL0     H 4253  -2.339  10.530   7.933 -1.8764  1.0463  0.1156
  790MOL0     H 4254  -2.458  10.369   8.172 -1.2895 -2.8846  0.7511
  790MOL0     H 4255  -2.440  10.297   8.004  0.1026  0.1648  0.1443
  790MOL0     H 4256  -2.643  10.357   7.998  3.0411 -0.1890 -2.2375
  790MOL0     H 4257  -2.574  10.507   7.927  2.6045  2.2711  0.1284
  790MOL0     H 4258  -2.666  10.513   8.214  0.9206  1.6647  1.1705
  790MOL0     H 4259  -2.595  10.640   8.120  1.0612 -0.8858 -1.9513
  790MOL0     H 4260  -2.882  10.536   8.101 -1.5826 -0.5356 -3.8514
  790MOL0     H 4261  -2.797  10.557   7.949  1.0410  0.6799 -0.8075
  790MOL0     H 4262  -1.729  10.407   8.174  0.0490 -2.8314 -1.3008
  790MOL0     H 4263  -1.497  10.331   8.176 -1.4668 -0.3577  1.0597
  790MOL0     H 4264  -0.981  10.595   7.864  0.2825 -0.4211 -1.6551
  790MOL0     H 4265  -0.777  10.535   7.864 -2.8187  3.1840  1.6731
  790MOL0     H 4266   0.525   9.788   8.883 -0.2557  1.6651  0.5082
  790MOL0     H 4267   0.778   9.833   8.911  0.6959 -0.8167  0.4994
  790MOL0     H 4268   1.183   9.636   8.964 -0.7889 -2.1553  0.0923
  790MOL0     H 4269   1.412   9.592   9.054 -1.5122 -0.6575 -0.6505
  790MOL0     H 4270   1.626   9.665   9.123  1.8163  1.2960  0.4763
  790MOL0     H 4271   1.580   9.525   9.210  0.6524 -0.4728 -0.2168
  790MOL0     H 4272   1.719   9.588   9.397  1.2434 -1.9037 -0.1994
  790MOL0     H 4273   1.786   9.535   9.238  0.9666 -1.2255  0.6526
  790MOL0     H 4274   1.748   9.820   9.356 -0.0135  1.2139  1.1109
  790MOL0     H 4275   1.833   9.807   9.211  1.9496 -1.7637  0.0333
  790MOL0     H 4276   1.935   9.709   9.483 -0.0554 -3.9021 -0.8832
  790MOL0     H 4277   1.966   9.616   9.340 -3.4058 -0.1514 -1.5114
  790MOL0     H 4278   2.238   9.928   9.290  0.1162 -1.9183  1.5088
  790MOL0     H 4279   1.326   9.821   9.397 -1.0011 -0.0069  0.9315
  790MOL0     H 4280   1.079   9.820   9.341  0.1940 -2.5665  2.0673
  791MOL0     O 4281   2.440   8.002   5.574  0.0088 -0.0375  0.1496
  791MOL0     C 4282   2.453   7.970   5.693  0.0538 -0.1864  0.3340
  791MOL0     O 4283   2.355   7.935   5.776  0.0703 -0.5104  0.7620
  791MOL0     C 4284   2.229   7.930   5.720  0.5032  0.0787  0.0650
  791MOL0     C 4285   2.201   7.817   5.644 -1.1545 -0.7137  0.3612
  791MOL0     C 4286   2.074   7.798   5.603  0.0797 -0.2667 -1.3017
  791MOL0     C 4287   1.968   7.889   5.617  0.5466 -0.5860  0.0499
  791MOL0     O 4288   1.850   7.850   5.560  0.2948  0.5809 -0.2700
  791MOL0     C 4289   1.739   7.943   5.566  0.7260 -0.1574 -0.5166
  791MOL0     C 4290   1.610   7.866   5.530  0.0536 -0.1282 -0.1497
  791MOL0     C 4291   1.488   7.960   5.505  0.2902  0.7156  0.4194
  791MOL0     C 4292   1.358   7.887   5.481 -0.2117 -0.0931 -0.4538
  791MOL0     C 4293   1.245   7.996   5.457 -0.0238 -1.1609 -0.2676
  791MOL0     C 4294   1.255   8.049   5.315 -0.4029 -0.3010  0.6496
  791MOL0     C 4295   1.128   8.122   5.283  1.2534  0.1816 -1.3568
  791MOL0     C 4296   1.099   8.162   5.139  0.1692  1.5059  0.0361
  791MOL0     N 4297   1.070   8.039   5.050 -0.4833 -0.2262 -0.2252
  791MOL0     C 4298   1.163   7.967   4.970 -0.2264 -0.0461  0.3049
  791MOL0     C 4299   1.095   7.862   4.921 -0.0494  0.7330 -1.7586
  791MOL0     C 4300   1.160   7.733   4.863 -0.3966 -0.9857  0.1870
  791MOL0     C 4301   1.185   7.630   4.979  0.7536  0.7702  0.2444
  791MOL0     C 4302   1.049   7.553   5.007 -0.0272  0.3675 -0.2705
  791MOL0     C 4303   0.992   7.459   4.890 -0.4861  0.1160  0.2656
  791MOL0     O 4304   0.872   7.531   4.853 -0.2315 -0.1285 -0.7902
  791MOL0     C 4305   0.752   7.471   4.889  0.0277  0.3353  0.2077
  791MOL0     C 4306   0.703   7.343   4.884  0.4686  0.9505 -0.6902
  791MOL0     C 4307   0.571   7.305   4.912  0.6283  0.2420  0.5753
  791MOL0     C 4308   0.477   7.400   4.955  0.1265 -0.3398  0.1890
  791MOL0     C 4309   0.337   7.365   4.979 -0.4420  0.2631 -0.0659
  791MOL0     O 4310   0.259   7.456   5.044 -0.2465 -0.6053 -0.0800
  791MOL0     C 4311   0.128   7.413   5.081  0.2040  0.5635  0.0742
  791MOL0     C 4312   0.107   7.293   5.150 -0.6535  0.2899 -0.3032
  791MOL0     C 4313  -0.016   7.246   5.156  0.2993 -0.5821 -0.2087
  791MOL0     C 4314  -0.124   7.305   5.088  0.1886 -0.5415  0.0203
  791MOL0     O 4315  -0.248   7.244   5.087  0.1211 -0.1966 -0.1003
  791MOL0     C 4316  -0.288   7.138   5.177  0.2408  0.3090  0.6683
  791MOL0     C 4317  -0.445   7.102   5.153 -0.5939 -0.8394 -0.6510
  791MOL0     C 4318  -0.529   7.229   5.202 -0.0697 -0.2576  0.5501
  791MOL0     C 4319  -0.675   7.182   5.215 -0.6076  0.4309  0.0548
  791MOL0     C 4320  -0.769   7.291   5.256 -0.7328  0.8148 -0.4389
  791MOL0     C 4321  -0.907   7.242   5.303 -0.7278  0.7145  0.1016
  791MOL0     C 4322  -0.990   7.146   5.197 -0.2935 -0.6719 -0.9590
  791MOL0     C 4323  -1.120   7.106   5.269  0.2707  0.2849 -0.1083
  791MOL0    Cl 4324  -1.208   7.011   5.153  0.5162 -0.1132  0.4448
  791MOL0     C 4325  -0.108   7.432   5.032 -0.3662  0.2362 -0.2911
  791MOL0     C 4326   0.028   7.487   5.025  0.9725  0.1895 -0.8958
  791MOL0     O 4327   0.302   7.255   4.940  0.3282 -0.1730  0.4128
  791MOL0     C 4328   0.525   7.533   4.972  0.3483  0.1681 -0.1561
  791MOL0     C 4329   0.655   7.567   4.939 -0.5731  0.2744 -0.1524
  791MOL0     N 4330   0.968   7.859   4.980 -0.0795 -0.4977  0.5633
  791MOL0     N 4331   0.955   7.964   5.056  0.4078  0.9191  0.5317
  791MOL0     C 4332   2.001   8.013   5.676 -0.4089  0.0209  0.3121
  791MOL0     C 4333   2.138   8.037   5.727  0.2747  0.2951 -0.7541
  791MOL0     C 4334   2.585   7.983   5.749 -0.4671 -0.5814  0.1023
  791MOL0     C 4335   2.704   8.002   5.672  0.1865  0.2493  0.8104
  791MOL0     C 4336   2.834   7.996   5.723  0.5041 -0.3845 -0.7951
  791MOL0     C 4337   2.859   7.978   5.859  0.0843  0.7620  0.3101
  791MOL0     O 4338   2.990   7.981   5.905 -0.4369  0.6432  0.6344
  791MOL0     C 4339   3.020   7.957   6.046  0.1838  0.0548  1.2218
  791MOL0     C 4340   3.164   8.000   6.079 -0.6028 -0.2735 -0.1835
  791MOL0     C 4341   3.272   7.914   6.008  0.6067  0.2262  0.1232
  791MOL0     C 4342   3.408   7.978   6.041 -0.1275  1.0191  0.8871
  791MOL0     C 4343   3.516   7.876   6.023  0.8529 -0.0342 -0.1857
  791MOL0     C 4344   3.599   7.788   6.011 -0.1515  0.3384  0.1508
  791MOL0     C 4345   2.752   7.950   5.935  0.6609 -0.2251  0.9055
  791MOL0     C 4346   2.616   7.951   5.885  0.1011 -0.4406 -0.2996
  791MOL0     H 4347   2.278   7.743   5.624 -2.5070 -1.9082 -0.5929
  791MOL0     H 4348   2.046   7.710   5.545  0.0072 -1.7182  0.8407
  791MOL0     H 4349   1.759   8.032   5.505 -2.5616 -0.3451 -2.0771
  791MOL0     H 4350   1.721   7.967   5.671 -0.5454 -1.2523 -0.4635
  791MOL0     H 4351   1.579   7.799   5.611 -2.2009  1.0654  0.0589
  791MOL0     H 4352   1.626   7.801   5.443 -1.0866  1.1362 -1.3541
  791MOL0     H 4353   1.503   8.022   5.416 -1.0424 -2.0077 -1.8911
  791MOL0     H 4354   1.463   8.021   5.592 -4.5651  0.7099 -0.6533
  791MOL0     H 4355   1.357   7.818   5.396  0.4738  2.5978 -2.7684
  791MOL0     H 4356   1.334   7.837   5.576 -2.1560  2.7610  0.6898
  791MOL0     H 4357   1.244   8.059   5.546 -0.0571 -2.9624  1.0675
  791MOL0     H 4358   1.151   7.940   5.457  0.0625 -1.3091 -0.4567
  791MOL0     H 4359   1.261   7.956   5.256 -0.1192 -0.2435  0.5902
  791MOL0     H 4360   1.348   8.102   5.296 -1.1212  0.8491  0.2115
  791MOL0     H 4361   1.045   8.065   5.324  0.5083  1.6834 -0.6777
  791MOL0     H 4362   1.124   8.220   5.331  1.4646 -1.3237  1.9453
  791MOL0     H 4363   1.182   8.222   5.101 -2.1802  3.9696 -1.6258
  791MOL0     H 4364   1.004   8.214   5.155 -1.3051 -1.4866  2.0067
  791MOL0     H 4365   1.270   7.982   4.956  0.3677 -2.6708  1.4007
  791MOL0     H 4366   1.249   7.761   4.806  1.3339 -1.0652  2.6890
  791MOL0     H 4367   1.105   7.682   4.784  1.2415 -0.7097 -1.1820
  791MOL0     H 4368   1.232   7.674   5.068  1.3720 -2.9270  1.9406
  791MOL0     H 4369   1.249   7.550   4.943 -2.1751 -1.6880  0.1038
  791MOL0     H 4370   1.065   7.498   5.100 -0.8102  0.2066 -0.2232
  791MOL0     H 4371   0.969   7.621   5.038  1.1614  2.6612 -1.9781
  791MOL0     H 4372   0.960   7.363   4.932 -1.0496  0.5326  0.7947
  791MOL0     H 4373   1.067   7.446   4.811  1.4763  0.5089  1.9627
  791MOL0     H 4374   0.761   7.254   4.861 -2.8198 -1.2163 -1.2352
  791MOL0     H 4375   0.541   7.204   4.887  2.5959 -0.0410 -0.8108
  791MOL0     H 4376   0.189   7.246   5.204 -1.7629  1.1622  2.2584
  791MOL0     H 4377  -0.046   7.156   5.209 -3.3009 -0.2072 -1.3460
  791MOL0     H 4378  -0.266   7.185   5.274  2.7208  2.7667 -0.9218
  791MOL0     H 4379  -0.227   7.050   5.157 -0.4824 -0.4008  1.5309
  791MOL0     H 4380  -0.488   7.010   5.194 -2.2151  0.5660  0.9650
  791MOL0     H 4381  -0.463   7.087   5.046  0.3644 -0.2734 -0.9063
  791MOL0     H 4382  -0.520   7.310   5.129 -2.2182 -0.4100  0.0687
  791MOL0     H 4383  -0.501   7.263   5.302  0.6833 -0.1312  0.3061
  791MOL0     H 4384  -0.706   7.138   5.120  0.8253 -0.4415 -0.0381
  791MOL0     H 4385  -0.678   7.108   5.295  1.2214 -0.0940 -0.3166
  791MOL0     H 4386  -0.778   7.365   5.177 -1.5487  1.5594  0.3233
  791MOL0     H 4387  -0.725   7.344   5.342 -3.4999  1.6401  0.6006
  791MOL0     H 4388  -0.969   7.323   5.342  0.6078 -0.0619  4.4130
  791MOL0     H 4389  -0.888   7.181   5.392  1.5590  3.0065  1.3127
  791MOL0     H 4390  -1.018   7.183   5.097 -0.2228 -0.3880 -0.8755
  791MOL0     H 4391  -0.924   7.062   5.176  2.9042  1.7247 -1.3474
  791MOL0     H 4392  -1.196   7.185   5.273 -2.1186 -1.8196 -0.7160
  791MOL0     H 4393  -1.115   7.073   5.373 -0.8928  0.0945 -0.0985
  791MOL0     H 4394  -0.191   7.486   4.990  0.8025  2.0743 -0.3523
  791MOL0     H 4395   0.043   7.583   4.977  3.5287 -0.6239 -1.9024
  791MOL0     H 4396   0.458   7.615   4.995  1.7532  1.5270 -0.6908
  791MOL0     H 4397   0.691   7.667   4.958  1.7355 -0.1058 -1.9775
  791MOL0     H 4398   1.931   8.094   5.694  4.7955  4.9998  0.9845
  791MOL0     H 4399   2.150   8.132   5.777 -2.9282  0.1636  0.5347
  791MOL0     H 4400   2.698   8.009   5.564  1.7385  1.1478  0.7417
  791MOL0     H 4401   2.915   8.010   5.652 -0.9700  4.1305 -1.9372
  791MOL0     H 4402   3.019   7.850   6.070  0.8364 -0.5636 -1.2186
  791MOL0     H 4403   2.948   8.001   6.115 -0.0388 -0.2577  1.1952
  791MOL0     H 4404   3.185   8.103   6.047  1.7412 -0.2574  1.1644
  791MOL0     H 4405   3.173   7.982   6.187  1.1982 -5.0539 -0.8968
  791MOL0     H 4406   3.243   7.921   5.903 -1.0198  3.0983  0.6488
  791MOL0     H 4407   3.265   7.816   6.055  1.8010 -0.2102 -0.5776
  791MOL0     H 4408   3.433   8.050   5.962  0.3450 -3.0249 -3.1097
  791MOL0     H 4409   3.407   8.001   6.148 -3.6904  1.7636  0.7950
  791MOL0     H 4410   3.666   7.707   5.992 -0.8947  0.0430 -1.3829
  791MOL0     H 4411   2.765   7.929   6.041 -1.0827 -1.5927  0.9141
  791MOL0     H 4412   2.530   7.950   5.951 -1.6324 -0.7627 -2.4300
  792MOL0     O 4413   4.028  10.035   5.167 -0.1390 -0.8157 -0.4559
  792MOL0     C 4414   3.944  10.084   5.091 -0.3828  0.4404 -0.6468
  792MOL0     O 4415   3.806  10.079   5.111 -0.0169 -0.2777  0.5955
  792MOL0     C 4416   3.740   9.966   5.167  0.5359 -0.0523 -0.6844
  792MOL0     C 4417   3.793   9.851   5.199  0.0012 -0.9341 -0.5834
  792MOL0     C 4418   3.712   9.741   5.239 -0.2328 -0.0727  0.2119
  792MOL0     C 4419   3.573   9.757   5.266 -0.6440 -0.2333  0.3662
  792MOL0     O 4420   3.482   9.657   5.281 -0.3086 -0.1815 -0.4546
  792MOL0     C 4421   3.529   9.534   5.337 -0.7670  0.0130 -0.4626
  792MOL0     C 4422   3.541   9.421   5.227  0.4354 -0.5994  0.0854
  792MOL0     C 4423   3.605   9.289   5.278  1.1101 -0.2728 -0.6230
  792MOL0     C 4424   3.651   9.189   5.176  0.0425  0.3376  0.5071
  792MOL0     C 4425   3.743   9.088   5.242  0.2574  0.7679  0.1840
  792MOL0     C 4426   3.780   8.977   5.144 -0.9932  0.1675  0.7506
  792MOL0     C 4427   3.869   8.873   5.203  1.0566  0.1845 -0.4504
  792MOL0     C 4428   3.895   8.764   5.100  0.4772  0.0336  0.1520
  792MOL0     N 4429   4.020   8.684   5.119 -0.1707  1.1173  0.5315
  792MOL0     C 4430   4.035   8.546   5.100 -0.6159  0.2302 -0.3588
  792MOL0     C 4431   4.170   8.526   5.108 -0.4746  0.6170 -0.0563
  792MOL0     C 4432   4.266   8.408   5.079  1.0686  0.6843 -0.3617
  792MOL0     C 4433   4.404   8.450   5.023  0.5282  0.1971 -0.8532
  792MOL0     C 4434   4.484   8.332   5.004 -0.1723  0.8003  0.0869
  792MOL0     C 4435   4.627   8.386   4.996  0.5526 -0.5120 -0.3477
  792MOL0     O 4436   4.712   8.291   4.930 -0.5716  0.0031 -0.2662
  792MOL0     C 4437   4.747   8.170   4.976  0.2726  0.4550  0.3923
  792MOL0     C 4438   4.736   8.135   5.112 -0.4507  0.7558 -0.2790
  792MOL0     C 4439   4.787   8.009   5.165  0.1382  0.0184 -0.4940
  792MOL0     C 4440   4.837   7.907   5.074 -0.1025 -0.4304  0.4517
  792MOL0     C 4441   4.877   7.772   5.123 -0.0376 -0.0824 -0.2828
  792MOL0     O 4442   4.912   7.691   5.018  0.5334  0.0108 -0.3378
  792MOL0     C 4443   4.955   7.562   5.052  0.2128 -0.2331 -0.0800
  792MOL0     C 4444   5.079   7.548   5.126  1.4621  0.2545  0.4153
  792MOL0     C 4445   5.125   7.423   5.160  0.4725  0.2148  0.2274
  792MOL0     C 4446   5.045   7.312   5.134  0.0964 -0.8466  0.3753
  792MOL0     O 4447   5.079   7.186   5.175 -0.7377 -0.0687 -0.4064
  792MOL0     C 4448   5.195   7.164   5.263  0.3699 -0.3002  0.3381
  792MOL0     C 4449   5.190   7.022   5.329 -0.5494  0.1322  0.1551
  792MOL0     C 4450   5.284   7.005   5.449  0.1525 -0.2038  1.0911
  792MOL0     C 4451   5.248   7.074   5.581  0.6774 -0.3624 -0.1236
  792MOL0     C 4452   5.363   7.066   5.686 -0.4210 -0.5661  0.9767
  792MOL0     C 4453   5.380   7.186   5.775 -0.3859 -0.4470 -0.9205
  792MOL0     C 4454   5.488   7.163   5.883  0.0588  0.2472  0.4280
  792MOL0     C 4455   5.533   7.289   5.947 -0.0403 -0.9194  1.1560
  792MOL0    Cl 4456   5.663   7.361   5.846 -0.2993 -0.0166  0.3175
  792MOL0     C 4457   4.923   7.325   5.065  0.5264 -0.7650  0.5072
  792MOL0     C 4458   4.883   7.451   5.023  0.3436 -0.0999 -0.1761
  792MOL0     O 4459   4.884   7.743   5.242  0.3542  0.2951 -0.5840
  792MOL0     C 4460   4.842   7.948   4.937  0.0497  0.0759 -0.8147
  792MOL0     C 4461   4.798   8.074   4.885  0.1677  0.7000 -0.2552
  792MOL0     N 4462   4.231   8.653   5.115  0.2295 -0.2880 -0.4834
  792MOL0     N 4463   4.138   8.747   5.128  0.4431  0.0346 -0.8374
  792MOL0     C 4464   3.523   9.885   5.236  0.3705 -0.8648  0.2685
  792MOL0     C 4465   3.602   9.986   5.190  0.1786 -0.1746  0.0887
  792MOL0     C 4466   3.994  10.189   5.002 -0.1538  0.3679 -0.3362
  792MOL0     C 4467   3.919  10.303   4.970  0.9457 -0.0780  0.6082
  792MOL0     C 4468   3.964  10.411   4.884  0.0605  0.4786 -0.8356
  792MOL0     C 4469   4.096  10.407   4.829  0.5548 -0.4001 -0.3077
  792MOL0     O 4470   4.155  10.500   4.748  0.3301 -0.1490  0.1914
  792MOL0     C 4471   4.103  10.637   4.751 -0.9361  0.1876 -0.0538
  792MOL0     C 4472   4.210  10.717   4.670  1.2556  0.3973  0.6160
  792MOL0     C 4473   4.212  10.695   4.511 -0.0931 -0.3400  0.3280
  792MOL0     C 4474   4.093  10.732   4.426  0.8403 -0.5003  0.5655
  792MOL0     C 4475   4.135  10.706   4.285  0.2508 -0.7972 -0.3985
  792MOL0     C 4476   4.154  10.707   4.165 -0.0653 -0.7638 -0.4814
  792MOL0     C 4477   4.166  10.288   4.857 -0.1504  0.2353  0.2395
  792MOL0     C 4478   4.129  10.197   4.958  0.0463 -0.4498 -0.1459
  792MOL0     H 4479   3.892   9.825   5.166  0.3188  1.1535 -1.3973
  792MOL0     H 4480   3.753   9.640   5.245 -2.6563 -1.1028  0.8420
  792MOL0     H 4481   3.463   9.501   5.418  1.0179 -2.1809  0.2315
  792MOL0     H 4482   3.628   9.546   5.383 -0.4683  0.8240 -1.2909
  792MOL0     H 4483   3.603   9.457   5.144  0.5210 -4.7477 -1.8879
  792MOL0     H 4484   3.443   9.386   5.192 -0.0752  0.1903  0.6720
  792MOL0     H 4485   3.536   9.233   5.343  3.4793 -5.3070 -1.9350
  792MOL0     H 4486   3.685   9.325   5.343 -1.1528 -1.1393  3.0044
  792MOL0     H 4487   3.559   9.147   5.135  1.4654  1.5332 -4.6336
  792MOL0     H 4488   3.697   9.242   5.092 -1.4001  2.2818  0.8687
  792MOL0     H 4489   3.693   9.035   5.323  1.4199 -2.3160 -0.9718
  792MOL0     H 4490   3.835   9.133   5.279  0.5788 -0.4972  0.9641
  792MOL0     H 4491   3.841   9.035   5.075 -1.0229  1.5480  1.8317
  792MOL0     H 4492   3.686   8.939   5.103 -0.4138  1.5367 -2.0985
  792MOL0     H 4493   3.965   8.923   5.218 -0.5608  4.0208 -1.7650
  792MOL0     H 4494   3.827   8.842   5.299 -1.0561  1.9395 -0.7356
  792MOL0     H 4495   3.909   8.814   5.004  1.3761 -1.8067 -0.7376
  792MOL0     H 4496   3.805   8.702   5.098  1.8531 -2.2071  1.9794
  792MOL0     H 4497   3.956   8.476   5.078 -1.2319  0.7145  0.2550
  792MOL0     H 4498   4.216   8.349   5.002 -0.6938 -0.3091  1.4411
  792MOL0     H 4499   4.279   8.339   5.164 -1.7352 -1.2410 -1.3245
  792MOL0     H 4500   4.444   8.521   5.097 -1.7395  0.0015  0.6845
  792MOL0     H 4501   4.394   8.500   4.927 -2.0832  0.5801 -0.4507
  792MOL0     H 4502   4.467   8.255   5.079  0.5111  0.0468 -0.5118
  792MOL0     H 4503   4.452   8.286   4.910 -0.5073  0.4579  0.3644
  792MOL0     H 4504   4.664   8.414   5.095 -1.2491 -2.7181  1.0708
  792MOL0     H 4505   4.622   8.474   4.932  3.6879  0.0628  0.0314
  792MOL0     H 4506   4.688   8.198   5.186  2.4765  1.2362  1.3736
  792MOL0     H 4507   4.782   7.971   5.266 -0.2365 -2.3575 -1.3564
  792MOL0     H 4508   5.127   7.639   5.161  1.1210  1.5542 -2.2504
  792MOL0     H 4509   5.217   7.423   5.217  1.5117 -1.5037 -1.3318
  792MOL0     H 4510   5.196   7.237   5.345 -3.2297 -0.6383  0.8621
  792MOL0     H 4511   5.283   7.181   5.201 -0.4137 -1.9923 -1.3118
  792MOL0     H 4512   5.213   6.949   5.251 -0.1416 -1.1037  1.3874
  792MOL0     H 4513   5.086   7.009   5.359 -1.4669 -0.4265 -2.9140
  792MOL0     H 4514   5.383   7.045   5.425 -1.0701  1.2624 -2.0961
  792MOL0     H 4515   5.288   6.896   5.460 -0.6214 -0.4878 -0.9663
  792MOL0     H 4516   5.210   7.176   5.564  0.3201 -0.5083 -0.2065
  792MOL0     H 4517   5.154   7.028   5.611 -1.1505  1.7533 -2.1905
  792MOL0     H 4518   5.456   7.043   5.634 -0.9267 -1.0552  0.2886
  792MOL0     H 4519   5.341   6.981   5.751  2.0572 -1.0869  1.2533
  792MOL0     H 4520   5.283   7.208   5.821  0.4380  1.1049  0.1449
  792MOL0     H 4521   5.400   7.270   5.707  1.5862 -0.8963 -0.9565
  792MOL0     H 4522   5.438   7.103   5.960  0.2015  0.0866  0.3961
  792MOL0     H 4523   5.569   7.107   5.836 -1.8494 -1.9261 -0.5104
  792MOL0     H 4524   5.569   7.269   6.049  0.8449  2.1459  1.5344
  792MOL0     H 4525   5.447   7.357   5.950 -0.0204 -0.9058  1.4472
  792MOL0     H 4526   4.850   7.246   5.047  0.1009 -0.7454  2.0049
  792MOL0     H 4527   4.790   7.462   4.968 -0.6205  0.7075  1.5289
  792MOL0     H 4528   4.879   7.871   4.870  0.9270  1.4644 -1.9756
  792MOL0     H 4529   4.813   8.090   4.779  0.0641  4.5403  0.1654
  792MOL0     H 4530   3.417   9.909   5.239  0.7658  1.2195 -0.6990
  792MOL0     H 4531   3.553  10.082   5.175  3.7685  2.0843  1.4482
  792MOL0     H 4532   3.821  10.314   5.015  0.8294 -0.0247  0.3431
  792MOL0     H 4533   3.898  10.496   4.870 -0.8806 -0.1629 -0.4047
  792MOL0     H 4534   4.096  10.669   4.855 -0.1006  2.1017 -0.5402
  792MOL0     H 4535   3.997  10.638   4.722 -0.5950  2.0652 -1.4752
  792MOL0     H 4536   4.199  10.821   4.703 -1.0339 -0.5676  3.2390
  792MOL0     H 4537   4.305  10.680   4.709  0.6212 -0.3569  1.4966
  792MOL0     H 4538   4.237  10.594   4.480  0.5667  0.0172 -0.3205
  792MOL0     H 4539   4.289  10.763   4.475 -0.3483 -1.6667 -3.0528
  792MOL0     H 4540   4.002  10.680   4.458  1.5169 -1.5599  0.8295
  792MOL0     H 4541   4.062  10.836   4.438 -1.1541 -0.3997 -3.5143
  792MOL0     H 4542   4.159  10.715   4.058  1.2804  0.8114 -0.3425
  792MOL0     H 4543   4.257  10.262   4.804  0.0655  4.7668 -2.0666
  792MOL0     H 4544   4.192  10.109   4.966 -2.7482 -2.3806  3.5204
  793MOL0     O 4545   0.947   0.107   9.161  0.1831 -0.5847  0.2305
  793MOL0     C 4546   0.958   0.179   9.062  0.1175  0.1435 -0.0405
  793MOL0     O 4547   0.859   0.203   8.973  0.0455 -0.0710  0.0418
  793MOL0     C 4548   0.729   0.146   8.990 -0.1505 -0.2295 -0.1398
  793MOL0     C 4549   0.676   0.043   8.908  0.7791  0.6062  0.4184
  793MOL0     C 4550   0.535   0.014   8.923 -0.2978 -0.2971  1.6036
  793MOL0     C 4551   0.460   0.068   9.026 -0.1975  0.2600  0.9091
  793MOL0     O 4552   0.329   0.040   9.025  0.4510 -0.0767 -0.3933
  793MOL0     C 4553   0.297  -0.092   9.073  0.3719  0.5430  0.6055
  793MOL0     C 4554   0.208  -0.098   9.202 -0.0990  0.8382 -0.5940
  793MOL0     C 4555   0.076  -0.015   9.192 -0.7252  0.4638  0.7852
  793MOL0     C 4556   0.001  -0.052   9.316  0.5744  0.8673  0.9062
  793MOL0     C 4557  -0.131   0.034   9.312  0.0205 -0.0685 -0.1725
  793MOL0     C 4558  -0.259  -0.036   9.261  0.6240 -0.6894  0.2701
  793MOL0     C 4559  -0.370   0.074   9.226 -0.5072  0.2700 -0.1050
  793MOL0     C 4560  -0.347   0.150   9.095 -0.5824 -0.4615  0.7225
  793MOL0     N 4561  -0.291   0.064   8.992 -0.3172 -0.3883 -0.7063
  793MOL0     C 4562  -0.168   0.071   8.927  0.1182 -0.8634  0.2825
  793MOL0     C 4563  -0.162  -0.031   8.843 -0.8782 -0.2823 -0.8443
  793MOL0     C 4564  -0.053  -0.078   8.761 -0.5498  0.3602  0.3758
  793MOL0     C 4565   0.055   0.015   8.731 -0.0793  0.0108 -1.4632
  793MOL0     C 4566   0.028   0.115   8.619  0.7498  0.3839  1.2491
  793MOL0     C 4567   0.161   0.183   8.581 -0.8275  0.3647 -0.7669
  793MOL0     O 4568   0.236   0.099   8.496 -0.0809 -0.4174  0.6049
  793MOL0     C 4569   0.368   0.094   8.522 -0.1517  0.5927 -0.7885
  793MOL0     C 4570   0.433  -0.029   8.489 -0.8774  0.1655  0.0773
  793MOL0     C 4571   0.575  -0.038   8.491  0.5716 -0.6900  0.9794
  793MOL0     C 4572   0.657   0.077   8.535 -0.6610 -0.4560  0.6737
  793MOL0     C 4573   0.801   0.066   8.537  1.1191 -1.2461 -1.1590
  793MOL0     O 4574   0.863  -0.062   8.519 -0.0781 -0.4585  1.5729
  793MOL0     C 4575   1.001  -0.069   8.534  0.8627  0.1819  0.8137
  793MOL0     C 4576   1.065  -0.042   8.654 -0.4254 -0.4263  0.1739
  793MOL0     C 4577   1.202  -0.026   8.654 -0.1259  0.4718 -0.0160
  793MOL0     C 4578   1.289  -0.004   8.541  0.5376  0.3883 -0.2657
  793MOL0     O 4579   1.411   0.059   8.549 -0.9594 -0.2171 -0.0439
  793MOL0     C 4580   1.485   0.066   8.672 -0.1770 -0.1426  0.6769
  793MOL0     C 4581   1.611   0.151   8.669 -0.0840  0.9968 -0.1546
  793MOL0     C 4582   1.686   0.129   8.541 -0.3071  0.0691  0.3928
  793MOL0     C 4583   1.737  -0.023   8.510  0.7556 -0.0552  0.3530
  793MOL0     C 4584   1.852  -0.044   8.403  0.4480 -0.6053 -0.3381
  793MOL0     C 4585   1.977   0.027   8.462 -0.1342  0.0086  1.1190
  793MOL0     C 4586   2.107  -0.031   8.407 -0.0235 -0.1114  0.1381
  793MOL0     C 4587   2.140  -0.004   8.253  0.1579  0.7810 -0.8829
  793MOL0    Cl 4588   2.183   0.169   8.232 -0.2703 -0.3312 -0.0402
  793MOL0     C 4589   1.217  -0.017   8.420  0.9825 -0.4296 -0.4802
  793MOL0     C 4590   1.080  -0.052   8.414  0.1003 -0.7417  0.3702
  793MOL0     O 4591   0.852   0.165   8.587  0.5736 -0.2902  0.1878
  793MOL0     C 4592   0.586   0.192   8.582  0.1029 -0.3308 -0.7898
  793MOL0     C 4593   0.447   0.194   8.578  0.8368 -0.3053  0.0235
  793MOL0     N 4594  -0.280  -0.100   8.861  0.4895 -0.2460  0.1383
  793MOL0     N 4595  -0.357  -0.042   8.944 -0.3775 -0.8358  0.1563
  793MOL0     C 4596   0.519   0.167   9.105  0.0004 -0.4671  0.5564
  793MOL0     C 4597   0.642   0.207   9.083  0.4416 -0.3419 -0.5297
  793MOL0     C 4598   1.090   0.239   9.021  0.1270 -0.2593 -0.1383
  793MOL0     C 4599   1.123   0.251   8.886 -0.0505  0.0818  0.7519
  793MOL0     C 4600   1.254   0.287   8.847  0.7140  0.5008  0.1069
  793MOL0     C 4601   1.357   0.309   8.937  0.3537 -1.2370 -0.4279
  793MOL0     O 4602   1.477   0.359   8.890  0.0236 -0.1913 -0.1828
  793MOL0     C 4603   1.578   0.410   8.978  0.1697 -0.8491  0.5628
  793MOL0     C 4604   1.669   0.292   9.021 -0.5874 -0.0141 -0.3840
  793MOL0     C 4605   1.779   0.323   9.130  0.4489  0.1874  0.2051
  793MOL0     C 4606   1.850   0.190   9.178  0.1287  0.4801  0.1860
  793MOL0     C 4607   1.767   0.085   9.242 -0.5220 -0.6553  0.6106
  793MOL0     C 4608   1.702  -0.005   9.288 -0.7761 -0.2349 -0.3316
  793MOL0     C 4609   1.326   0.294   9.074  0.0630 -0.8683  1.4752
  793MOL0     C 4610   1.193   0.257   9.113 -0.8166  0.6145  0.2380
  793MOL0     H 4611   0.731  -0.010   8.832 -0.8919 -2.2302  1.0307
  793MOL0     H 4612   0.496  -0.046   8.841  0.3082  2.1780 -0.6186
  793MOL0     H 4613   0.379  -0.159   9.100  2.4852  2.7149 -0.1467
  793MOL0     H 4614   0.241  -0.130   8.987 -0.6964  2.7195  0.2571
  793MOL0     H 4615   0.262  -0.043   9.280 -2.0247 -1.8622  2.9088
  793MOL0     H 4616   0.189  -0.198   9.241 -2.0697  1.7293  0.9530
  793MOL0     H 4617   0.036  -0.052   9.098  0.6202  1.6698 -0.3126
  793MOL0     H 4618   0.095   0.092   9.182  1.0216 -0.0212 -2.7838
  793MOL0     H 4619  -0.035  -0.155   9.304 -1.9178  2.0026 -4.6304
  793MOL0     H 4620   0.063  -0.038   9.404 -0.2565 -2.8127  2.2460
  793MOL0     H 4621  -0.121   0.123   9.249 -1.1246  1.2610  1.4364
  793MOL0     H 4622  -0.139   0.073   9.414 -0.4023 -0.8264  0.0921
  793MOL0     H 4623  -0.307  -0.093   9.341 -3.5164 -0.2278 -1.6037
  793MOL0     H 4624  -0.236  -0.098   9.174 -1.9409  0.9783 -1.7736
  793MOL0     H 4625  -0.460   0.013   9.214 -0.4393 -0.0761  1.0301
  793MOL0     H 4626  -0.389   0.144   9.308  2.0574 -0.8318  1.5838
  793MOL0     H 4627  -0.281   0.237   9.104 -1.6060  0.3964  0.1159
  793MOL0     H 4628  -0.446   0.177   9.057 -1.5692 -3.1453  1.1504
  793MOL0     H 4629  -0.092   0.149   8.926  2.5938 -3.0402 -2.3171
  793MOL0     H 4630  -0.097  -0.113   8.667 -0.5614 -0.2731  0.6143
  793MOL0     H 4631  -0.020  -0.164   8.820 -2.3670  0.2572  1.3120
  793MOL0     H 4632   0.147  -0.038   8.706  1.6257  1.4010  1.3447
  793MOL0     H 4633   0.075   0.065   8.826 -3.0222  0.5157 -1.0038
  793MOL0     H 4634  -0.004   0.060   8.529  1.1710  1.8238  0.1783
  793MOL0     H 4635  -0.047   0.189   8.650 -1.0154 -0.2922 -1.0291
  793MOL0     H 4636   0.216   0.206   8.673  1.7313 -3.5982 -1.0578
  793MOL0     H 4637   0.139   0.277   8.531 -1.7131 -0.2354 -1.5470
  793MOL0     H 4638   0.394  -0.121   8.447  3.3973 -1.6542 -0.3717
  793MOL0     H 4639   0.627  -0.131   8.470 -1.5754 -1.4457 -1.5984
  793MOL0     H 4640   1.012  -0.052   8.748  0.6748 -0.1930  0.8371
  793MOL0     H 4641   1.243  -0.019   8.755  1.7956  0.7372 -0.7596
  793MOL0     H 4642   1.515  -0.033   8.708 -2.7353 -1.0707  0.4197
  793MOL0     H 4643   1.414   0.111   8.741 -0.4124 -2.3083  1.9294
  793MOL0     H 4644   1.664   0.130   8.763  0.1225  2.4881  0.1002
  793MOL0     H 4645   1.582   0.255   8.688  1.3058  1.6133 -1.2457
  793MOL0     H 4646   1.776   0.190   8.550  1.5491 -2.6772  1.8058
  793MOL0     H 4647   1.626   0.155   8.454 -0.5272 -0.1837  0.4680
  793MOL0     H 4648   1.783  -0.062   8.601 -0.8616 -4.2526 -0.4095
  793MOL0     H 4649   1.650  -0.086   8.489  0.2990 -0.6029  3.4055
  793MOL0     H 4650   1.832  -0.002   8.304  1.0510  0.3651 -0.0649
  793MOL0     H 4651   1.882  -0.148   8.390  1.7385 -0.6855  2.5168
  793MOL0     H 4652   1.975   0.026   8.571  3.6053  1.8319  1.3714
  793MOL0     H 4653   1.971   0.135   8.443  0.5063 -0.3548 -1.4438
  793MOL0     H 4654   2.192   0.014   8.459  1.1352  1.3407 -2.7635
  793MOL0     H 4655   2.117  -0.134   8.441  0.3169  0.6579  2.5972
  793MOL0     H 4656   2.060  -0.039   8.186 -0.2010 -1.2845  0.5134
  793MOL0     H 4657   2.224  -0.067   8.223 -1.6305 -1.2257 -2.0310
  793MOL0     H 4658   1.275  -0.015   8.328 -1.7367 -3.4602 -2.4876
  793MOL0     H 4659   1.030  -0.063   8.318  0.7977  0.4821 -0.1596
  793MOL0     H 4660   0.632   0.280   8.626 -1.3759  1.1223 -1.9897
  793MOL0     H 4661   0.398   0.280   8.623  0.2721 -1.6949  2.2253
  793MOL0     H 4662   0.459   0.208   9.186  0.8514  0.2651  0.8254
  793MOL0     H 4663   0.693   0.271   9.155  0.5383 -4.0221  3.0555
  793MOL0     H 4664   1.043   0.245   8.813 -1.1033 -0.4963  1.9185
  793MOL0     H 4665   1.281   0.304   8.743  0.1752 -0.3775 -0.1889
  793MOL0     H 4666   1.532   0.456   9.066 -0.5686 -2.8962  1.2992
  793MOL0     H 4667   1.633   0.484   8.919 -1.8796 -1.5558 -2.4825
  793MOL0     H 4668   1.606   0.203   9.037 -1.4049  0.9079  1.9487
  793MOL0     H 4669   1.727   0.271   8.931  1.2697 -0.2334  0.7989
  793MOL0     H 4670   1.738   0.377   9.215  0.5788 -0.8144  0.9230
  793MOL0     H 4671   1.872   0.371   9.098  0.7522  0.2558  1.1498
  793MOL0     H 4672   1.893   0.137   9.093 -0.0012 -1.0509  1.0326
  793MOL0     H 4673   1.931   0.210   9.249 -1.9233  1.4158  2.4034
  793MOL0     H 4674   1.634  -0.083   9.314 -0.0110 -0.4412  1.1398
  793MOL0     H 4675   1.405   0.307   9.147  0.4108 -1.5549  1.2350
  793MOL0     H 4676   1.182   0.240   9.220 -0.1470 -3.2144 -0.1292
  794MOL0     O 4677   3.508   8.740   3.232  0.6975  0.6803  0.0284
  794MOL0     C 4678   3.573   8.639   3.197  0.8936  0.4607  0.4407
  794MOL0     O 4679   3.513   8.515   3.152 -0.3734 -0.0562  0.5231
  794MOL0     C 4680   3.373   8.505   3.169  0.1563  0.0011 -0.1262
  794MOL0     C 4681   3.322   8.455   3.280  0.1553  0.9873 -0.4950
  794MOL0     C 4682   3.186   8.427   3.287 -0.8653  0.5163 -0.1739
  794MOL0     C 4683   3.104   8.446   3.177 -0.3201  1.2803 -0.9321
  794MOL0     O 4684   2.971   8.417   3.191  0.1197 -0.2239  0.1863
  794MOL0     C 4685   2.888   8.413   3.075  0.5295 -0.1620  1.0550
  794MOL0     C 4686   2.733   8.398   3.113  0.3051  0.0926 -0.1653
  794MOL0     C 4687   2.705   8.255   3.166  0.0503  1.1986  0.1980
  794MOL0     C 4688   2.555   8.253   3.218 -0.1164 -0.7370  0.0033
  794MOL0     C 4689   2.525   8.136   3.301  0.1243 -0.4977 -0.0860
  794MOL0     C 4690   2.489   8.007   3.242 -0.2954 -0.4622 -0.8020
  794MOL0     C 4691   2.377   8.007   3.136 -0.1517  0.8707 -0.1819
  794MOL0     C 4692   2.244   8.047   3.197  0.2506 -1.1706 -0.1428
  794MOL0     N 4693   2.134   8.023   3.101  0.7774  0.5186  0.6477
  794MOL0     C 4694   2.088   8.105   2.995 -0.2618  0.0172 -1.1808
  794MOL0     C 4695   1.990   8.033   2.942  0.5621  0.4110 -0.3695
  794MOL0     C 4696   1.896   8.073   2.837 -0.1270 -0.1359 -0.3115
  794MOL0     C 4697   1.766   8.144   2.882  1.2332  0.1728  0.5498
  794MOL0     C 4698   1.658   8.125   2.766  0.1752 -0.2455 -0.3499
  794MOL0     C 4699   1.577   8.000   2.761 -0.6639 -0.1419 -0.3121
  794MOL0     O 4700   1.510   8.001   2.634 -0.4995  0.1626 -0.1393
  794MOL0     C 4701   1.391   8.073   2.612  0.6469 -0.2248 -0.0125
  794MOL0     C 4702   1.322   8.168   2.692 -0.1289 -0.7900  0.7602
  794MOL0     C 4703   1.212   8.236   2.637  0.4746  1.5527 -1.7782
  794MOL0     C 4704   1.137   8.187   2.525 -0.4537 -0.0111  0.2684
  794MOL0     C 4705   0.997   8.234   2.493  0.0908 -0.4530 -0.1061
  794MOL0     O 4706   0.933   8.165   2.391 -0.4917  0.0360 -0.0820
  794MOL0     C 4707   0.804   8.193   2.371  0.5392 -0.2943 -0.4673
  794MOL0     C 4708   0.757   8.244   2.250  0.4354  0.0723  0.3313
  794MOL0     C 4709   0.621   8.240   2.222  0.2923 -0.2288 -0.0780
  794MOL0     C 4710   0.522   8.215   2.312  1.0480  0.0055 -0.5461
  794MOL0     O 4711   0.387   8.222   2.275  0.3865  0.1533  0.0023
  794MOL0     C 4712   0.285   8.202   2.371  0.0061 -0.0730 -0.7072
  794MOL0     C 4713   0.152   8.225   2.311 -0.3558 -0.0019  1.0141
  794MOL0     C 4714   0.029   8.176   2.388  0.1030 -0.4707  0.8043
  794MOL0     C 4715  -0.100   8.182   2.314 -0.4113 -0.1502 -0.5987
  794MOL0     C 4716  -0.196   8.300   2.345 -1.1348 -0.1129 -0.3765
  794MOL0     C 4717  -0.331   8.291   2.272  0.2459  0.1828  0.5313
  794MOL0     C 4718  -0.394   8.152   2.306 -0.0405  0.0768 -0.1030
  794MOL0     C 4719  -0.543   8.141   2.275 -0.5915  0.0300 -0.1825
  794MOL0    Cl 4720  -0.592   7.988   2.331  0.3626  0.1074  0.5253
  794MOL0     C 4721   0.567   8.182   2.438  0.1898  0.7005 -0.3354
  794MOL0     C 4722   0.704   8.153   2.458 -0.8967  0.2483  0.6561
  794MOL0     O 4723   0.949   8.330   2.556  0.3232 -0.0622  0.3028
  794MOL0     C 4724   1.203   8.083   2.446 -0.0722  0.6149  0.1551
  794MOL0     C 4725   1.326   8.029   2.491 -0.0423  0.4769  0.6883
  794MOL0     N 4726   1.979   7.913   2.994 -0.0931  0.0737  0.4358
  794MOL0     N 4727   2.063   7.901   3.087  0.1147 -0.8682 -0.7287
  794MOL0     C 4728   3.161   8.508   3.061  0.2948 -0.8868 -0.6528
  794MOL0     C 4729   3.299   8.529   3.060 -0.9710  0.3901  0.0888
  794MOL0     C 4730   3.723   8.646   3.190  0.0911 -0.0985 -0.3915
  794MOL0     C 4731   3.801   8.549   3.121 -0.6083 -1.0283 -0.8217
  794MOL0     C 4732   3.941   8.549   3.129 -0.0325 -0.3022  0.2265
  794MOL0     C 4733   4.002   8.643   3.212  0.2924  0.8740 -0.4365
  794MOL0     O 4734   4.137   8.637   3.221 -0.2162  0.2978 -0.5326
  794MOL0     C 4735   4.197   8.760   3.192 -0.7304  0.5038 -0.0799
  794MOL0     C 4736   4.348   8.741   3.245 -0.4583 -0.2448 -0.0068
  794MOL0     C 4737   4.427   8.630   3.182  1.0831  0.3463 -0.3705
  794MOL0     C 4738   4.564   8.627   3.254  0.1183  0.4356  0.4267
  794MOL0     C 4739   4.647   8.530   3.187 -0.6493 -0.4692 -0.3001
  794MOL0     C 4740   4.740   8.462   3.158 -0.6536  0.2206 -0.2558
  794MOL0     C 4741   3.921   8.730   3.289  1.1216 -0.3537  0.7645
  794MOL0     C 4742   3.785   8.731   3.283 -0.1377  0.1413 -0.9896
  794MOL0     H 4743   3.391   8.421   3.356  0.5279  2.0531 -0.3411
  794MOL0     H 4744   3.135   8.388   3.375  0.2079 -1.8992 -0.5344
  794MOL0     H 4745   2.921   8.327   3.015 -1.2239 -1.5713  2.0207
  794MOL0     H 4746   2.890   8.509   3.022  0.2853 -1.0479 -0.6449
  794MOL0     H 4747   2.676   8.422   3.023  1.4388  2.1280 -0.3950
  794MOL0     H 4748   2.694   8.471   3.185 -1.5923 -2.3199  1.4096
  794MOL0     H 4749   2.774   8.240   3.249  1.1507  3.4662 -0.2263
  794MOL0     H 4750   2.721   8.177   3.091 -5.0750 -0.2182  0.1718
  794MOL0     H 4751   2.548   8.346   3.275 -2.3745 -0.4981 -0.5740
  794MOL0     H 4752   2.486   8.267   3.135 -0.2410 -0.4405  0.1571
  794MOL0     H 4753   2.438   8.173   3.356  0.2105  0.0171 -0.2902
  794MOL0     H 4754   2.614   8.117   3.362  0.9819 -4.0603 -2.1874
  794MOL0     H 4755   2.468   7.935   3.320  2.0778  0.7229  1.0778
  794MOL0     H 4756   2.578   7.968   3.191  3.3405  3.4752  1.7506
  794MOL0     H 4757   2.411   8.059   3.046  1.5581 -0.7820 -0.5845
  794MOL0     H 4758   2.360   7.909   3.089 -1.3099  2.9118 -4.6226
  794MOL0     H 4759   2.244   8.151   3.229 -1.6837 -1.9417  2.8709
  794MOL0     H 4760   2.229   7.989   3.289  2.6873  1.6472  2.2614
  794MOL0     H 4761   2.114   8.207   2.967 -1.4488  0.5901 -0.3068
  794MOL0     H 4762   1.868   7.977   2.793 -0.9629 -0.4839  0.9348
  794MOL0     H 4763   1.954   8.127   2.762  1.0924  2.9069  2.5743
  794MOL0     H 4764   1.777   8.251   2.900  1.3921  0.3134 -0.3474
  794MOL0     H 4765   1.731   8.092   2.972 -2.8930  0.6101 -0.6055
  794MOL0     H 4766   1.589   8.210   2.764  0.4379 -0.0105 -3.0908
  794MOL0     H 4767   1.699   8.143   2.667 -0.2447  1.2967 -0.2749
  794MOL0     H 4768   1.500   8.012   2.837  0.6851  0.3094  1.0358
  794MOL0     H 4769   1.633   7.910   2.788 -0.9389  0.0320  0.9284
  794MOL0     H 4770   1.368   8.192   2.787 -2.0927 -2.6247  2.2852
  794MOL0     H 4771   1.182   8.324   2.693  1.9787  0.5131  0.8782
  794MOL0     H 4772   0.830   8.274   2.176  0.1130  1.5984  0.6050
  794MOL0     H 4773   0.586   8.260   2.121 -0.2450  2.3037  0.5192
  794MOL0     H 4774   0.282   8.274   2.453 -0.3995 -0.6502 -0.2096
  794MOL0     H 4775   0.291   8.101   2.411  1.2544  0.2882  0.0826
  794MOL0     H 4776   0.132   8.193   2.208 -2.4941  0.0005  1.3981
  794MOL0     H 4777   0.131   8.332   2.306 -2.5342 -0.3382  2.1077
  794MOL0     H 4778   0.013   8.228   2.484  0.9678 -0.5598  1.0008
  794MOL0     H 4779   0.057   8.074   2.416  3.0071  0.1935  0.6182
  794MOL0     H 4780  -0.075   8.179   2.208 -1.5599 -1.0497 -0.8645
  794MOL0     H 4781  -0.149   8.086   2.337 -1.0628  0.7719  2.4111
  794MOL0     H 4782  -0.144   8.394   2.326  1.7746 -1.1783  1.6252
  794MOL0     H 4783  -0.215   8.298   2.453 -0.5434  0.3249 -0.2620
  794MOL0     H 4784  -0.329   8.306   2.164 -0.8841  0.2648  0.5057
  794MOL0     H 4785  -0.387   8.376   2.315  2.6221  2.4585 -0.5831
  794MOL0     H 4786  -0.339   8.071   2.257  0.5472  0.0850  0.5181
  794MOL0     H 4787  -0.393   8.144   2.415 -1.6111 -0.7039 -0.1180
  794MOL0     H 4788  -0.562   8.157   2.168  5.7736  3.0518 -1.3441
  794MOL0     H 4789  -0.599   8.220   2.325 -1.8468 -0.0695 -1.3430
  794MOL0     H 4790   0.495   8.182   2.518 -2.3096  2.9184 -2.3987
  794MOL0     H 4791   0.742   8.127   2.555  1.1650  0.5483 -0.0320
  794MOL0     H 4792   1.156   8.042   2.357  5.0274  0.5796 -2.9224
  794MOL0     H 4793   1.389   7.970   2.425 -2.6992 -0.4105 -1.2289
  794MOL0     H 4794   3.096   8.540   2.979  0.0038  0.0837 -0.0566
  794MOL0     H 4795   3.346   8.573   2.972 -1.3192  0.9943  0.1947
  794MOL0     H 4796   3.748   8.476   3.061  0.4133 -0.9698 -1.8308
  794MOL0     H 4797   4.018   8.491   3.078  0.8785 -0.7930  2.0994
  794MOL0     H 4798   4.149   8.853   3.224 -0.2535  1.5254 -2.1012
  794MOL0     H 4799   4.195   8.767   3.083 -6.7520 -0.0438 -0.3221
  794MOL0     H 4800   4.416   8.826   3.233  0.8204 -1.4234 -1.6217
  794MOL0     H 4801   4.346   8.722   3.352  1.1537 -3.7410 -0.4514
  794MOL0     H 4802   4.425   8.640   3.073 -1.2111 -0.0890 -0.4067
  794MOL0     H 4803   4.384   8.532   3.205 -1.4826  1.3239 -0.6656
  794MOL0     H 4804   4.616   8.723   3.263  1.3780 -0.4081  4.6534
  794MOL0     H 4805   4.549   8.585   3.354 -2.7996 -0.6572 -0.3659
  794MOL0     H 4806   4.817   8.399   3.119 -0.3848 -0.4743  1.3337
  794MOL0     H 4807   3.963   8.795   3.365 -0.6616  0.3216  1.2183
  794MOL0     H 4808   3.728   8.773   3.365  0.1411 -3.7347  1.4857
  795MOL0     O 4809   8.851   7.167   4.540 -0.4633  0.5131  0.3403
  795MOL0     C 4810   8.860   7.082   4.453 -0.1218  1.1318  0.1355
  795MOL0     O 4811   8.765   6.994   4.410 -0.0519 -0.4641  0.2579
  795MOL0     C 4812   8.641   7.001   4.472  0.2822 -0.6303  0.2145
  795MOL0     C 4813   8.547   7.087   4.418  0.0203 -0.7149  1.0810
  795MOL0     C 4814   8.412   7.085   4.450 -0.3066  0.1124  0.0881
  795MOL0     C 4815   8.363   7.003   4.549 -1.0778  0.2020 -1.2099
  795MOL0     O 4816   8.231   6.996   4.578  0.4780  1.4335  1.2838
  795MOL0     C 4817   8.175   6.955   4.702  0.9791 -0.3646 -0.0790
  795MOL0     C 4818   8.134   6.814   4.670  0.4592 -0.3397 -0.2710
  795MOL0     C 4819   8.081   6.754   4.801 -0.3363  0.6088 -0.4510
  795MOL0     C 4820   7.987   6.641   4.757 -0.1306  0.4762 -0.2588
  795MOL0     C 4821   7.942   6.575   4.890 -0.0208  0.0190  0.6434
  795MOL0     C 4822   7.798   6.614   4.914 -0.7031 -0.3927  0.1387
  795MOL0     C 4823   7.706   6.554   4.814  1.0849  0.3163  1.0693
  795MOL0     C 4824   7.556   6.579   4.828  0.1557  0.1376  0.4770
  795MOL0     N 4825   7.509   6.562   4.964  0.6634 -0.6176  0.0633
  795MOL0     C 4826   7.470   6.449   5.025  1.3247 -0.8269  0.6356
  795MOL0     C 4827   7.382   6.491   5.118  0.1719  0.0750  0.2521
  795MOL0     C 4828   7.337   6.385   5.212 -0.6539  0.7939 -0.4011
  795MOL0     C 4829   7.186   6.364   5.209 -0.0677  0.5432 -0.0325
  795MOL0     C 4830   7.131   6.335   5.345  0.0754 -0.3895  0.4418
  795MOL0     C 4831   6.981   6.324   5.342  1.2257  0.5386  0.2759
  795MOL0     O 4832   6.922   6.426   5.267  0.6271 -0.6192 -0.2452
  795MOL0     C 4833   6.801   6.411   5.204  1.5589 -0.1226 -0.3653
  795MOL0     C 4834   6.786   6.474   5.082 -0.0886 -0.0648  0.5281
  795MOL0     C 4835   6.669   6.477   5.013  0.7266  0.5497 -0.0693
  795MOL0     C 4836   6.548   6.423   5.068 -0.8636 -0.2055 -0.4238
  795MOL0     C 4837   6.423   6.412   5.003  0.3216  0.1824  0.1597
  795MOL0     O 4838   6.307   6.368   5.074 -0.9572 -0.5794 -0.0947
  795MOL0     C 4839   6.183   6.387   5.022 -0.7657  0.0112 -0.0699
  795MOL0     C 4840   6.094   6.280   5.039  0.4233 -0.7641  0.2097
  795MOL0     C 4841   5.964   6.285   4.986  0.4564 -0.4025 -0.4122
  795MOL0     C 4842   5.931   6.384   4.893  0.8318 -0.9199 -0.7753
  795MOL0     O 4843   5.815   6.391   4.816  0.5972 -0.4945  0.9465
  795MOL0     C 4844   5.695   6.356   4.877 -0.3710 -0.7592  0.5985
  795MOL0     C 4845   5.650   6.222   4.838 -0.0195 -0.7069  0.5654
  795MOL0     C 4846   5.514   6.190   4.905 -0.1848 -0.4883  0.5040
  795MOL0     C 4847   5.467   6.057   4.849 -0.2569 -0.9596  0.3152
  795MOL0     C 4848   5.334   6.032   4.920  0.0408  0.1095  0.0324
  795MOL0     C 4849   5.271   5.910   4.858 -0.8231  0.8332  0.6998
  795MOL0     C 4850   5.159   5.859   4.939 -0.3342 -0.4843  0.1325
  795MOL0     C 4851   5.078   5.747   4.866 -0.5114 -0.3907 -0.0208
  795MOL0    Cl 4852   4.975   5.655   4.975  0.1090  0.0044 -0.2089
  795MOL0     C 4853   6.026   6.493   4.877 -0.4287  0.5219  0.5966
  795MOL0     C 4854   6.152   6.487   4.927  0.2288  0.4329 -1.2583
  795MOL0     O 4855   6.428   6.441   4.883 -0.2496  0.1544  0.5584
  795MOL0     C 4856   6.560   6.370   5.200 -0.8089  0.4518  0.4374
  795MOL0     C 4857   6.679   6.357   5.262 -0.4026 -0.5566  0.3641
  795MOL0     N 4858   7.368   6.625   5.115 -0.0279  0.3994 -0.0925
  795MOL0     N 4859   7.451   6.672   5.025  0.1742  0.3246 -0.3257
  795MOL0     C 4860   8.455   6.910   4.606 -0.4454  0.1435 -0.1643
  795MOL0     C 4861   8.590   6.907   4.560 -0.3101 -0.1479  0.0429
  795MOL0     C 4862   8.993   7.071   4.380 -0.0026 -0.4083  0.0945
  795MOL0     C 4863   9.015   6.981   4.273  0.1076  0.9467 -0.4893
  795MOL0     C 4864   9.143   6.959   4.212  0.2353 -0.2610  0.0705
  795MOL0     C 4865   9.254   7.033   4.263 -0.0036 -0.0371 -0.6252
  795MOL0     O 4866   9.367   6.994   4.203  0.2609  0.4246  0.1452
  795MOL0     C 4867   9.490   7.025   4.282  0.3771 -0.6904  0.4503
  795MOL0     C 4868   9.600   6.943   4.216 -0.1362 -0.2002  0.8615
  795MOL0     C 4869   9.719   6.930   4.317 -0.6130  0.4848  0.2912
  795MOL0     C 4870   9.841   6.856   4.259  0.4618 -0.7573 -0.4793
  795MOL0     C 4871   9.946   6.822   4.360  0.2577 -0.1259  0.7135
  795MOL0     C 4872  10.052   6.810   4.415 -0.0109  0.3237 -0.0866
  795MOL0     C 4873   9.237   7.130   4.368  0.4685 -0.1346 -0.0809
  795MOL0     C 4874   9.102   7.148   4.421 -1.1527 -0.2008  0.6218
  795MOL0     H 4875   8.583   7.156   4.343  0.9956 -2.2166  0.1033
  795MOL0     H 4876   8.351   7.161   4.401  0.6518  1.4040  0.8422
  795MOL0     H 4877   8.081   7.000   4.734  0.9030 -0.0566 -0.7271
  795MOL0     H 4878   8.252   6.953   4.780  1.2969  0.8332 -0.3423
  795MOL0     H 4879   8.204   6.746   4.620  1.4615 -0.4345  1.2072
  795MOL0     H 4880   8.047   6.831   4.606  1.3656 -0.1450 -1.4853
  795MOL0     H 4881   8.023   6.830   4.854 -2.1838 -0.3931 -0.9387
  795MOL0     H 4882   8.167   6.717   4.858  0.7420  1.7179 -1.2913
  795MOL0     H 4883   7.900   6.685   4.708 -1.9587 -1.2341  1.2483
  795MOL0     H 4884   8.027   6.567   4.687 -0.1353  0.6087 -0.4011
  795MOL0     H 4885   8.007   6.599   4.975  1.6982 -2.7757  0.2404
  795MOL0     H 4886   7.941   6.466   4.886  1.5266  0.0283 -1.8960
  795MOL0     H 4887   7.793   6.723   4.917  0.9778 -0.2466 -1.0746
  795MOL0     H 4888   7.782   6.574   5.014  1.6321  2.0185  1.5926
  795MOL0     H 4889   7.731   6.606   4.721  2.6108 -2.3164 -0.1063
  795MOL0     H 4890   7.711   6.445   4.808 -1.4554  0.2121 -0.7003
  795MOL0     H 4891   7.499   6.507   4.769 -0.9090 -2.4975  4.3241
  795MOL0     H 4892   7.531   6.675   4.782 -0.8404 -0.4858 -0.3254
  795MOL0     H 4893   7.490   6.342   5.018 -2.5132 -1.6901  0.7467
  795MOL0     H 4894   7.373   6.404   5.314 -1.4033  2.8989 -0.4808
  795MOL0     H 4895   7.377   6.287   5.183 -1.9941 -0.4523  1.6753
  795MOL0     H 4896   7.159   6.277   5.148 -1.4765  2.7762 -2.8563
  795MOL0     H 4897   7.138   6.451   5.163 -1.3846 -1.0542 -1.8195
  795MOL0     H 4898   7.167   6.239   5.384 -2.1948 -0.4833  2.6552
  795MOL0     H 4899   7.166   6.414   5.412  1.7860  0.0780 -0.9611
  795MOL0     H 4900   6.935   6.321   5.441 -1.7100  0.1729 -0.9817
  795MOL0     H 4901   6.948   6.228   5.301 -1.3111  0.9134  1.2843
  795MOL0     H 4902   6.870   6.520   5.031 -1.9081  0.9570 -1.7523
  795MOL0     H 4903   6.659   6.541   4.927  4.0581 -0.1473 -1.0938
  795MOL0     H 4904   6.112   6.196   5.106 -1.9855  0.6153  2.8244
  795MOL0     H 4905   5.897   6.200   4.996 -1.5869  0.9891 -1.5292
  795MOL0     H 4906   5.614   6.426   4.855  1.1780  0.2649 -2.3898
  795MOL0     H 4907   5.703   6.356   4.986  1.1802  1.5707  0.5650
  795MOL0     H 4908   5.729   6.149   4.858 -0.5145 -1.2218  0.6491
  795MOL0     H 4909   5.633   6.231   4.730  1.7176 -1.0050  0.2434
  795MOL0     H 4910   5.448   6.270   4.872  0.4225 -0.6889 -1.3800
  795MOL0     H 4911   5.534   6.184   5.012  0.4787  0.5203  0.4504
  795MOL0     H 4912   5.454   6.073   4.741  1.9542 -0.6709  0.0515
  795MOL0     H 4913   5.545   5.981   4.865  0.7696 -0.5651 -2.2272
  795MOL0     H 4914   5.262   6.113   4.911 -0.2108 -0.0013  0.9205
  795MOL0     H 4915   5.344   6.032   5.029 -0.9646  2.6970  0.1817
  795MOL0     H 4916   5.345   5.830   4.846 -1.4497 -0.0538  2.3955
  795MOL0     H 4917   5.241   5.941   4.757 -1.2801  0.5325  0.7412
  795MOL0     H 4918   5.202   5.814   5.029 -2.2823 -1.6407  0.5316
  795MOL0     H 4919   5.102   5.949   4.964  1.9407  0.5511  1.9394
  795MOL0     H 4920   5.138   5.671   4.815 -2.7100 -1.5361 -1.0429
  795MOL0     H 4921   5.021   5.798   4.788 -2.2816 -2.5771 -0.2266
  795MOL0     H 4922   5.998   6.563   4.799 -0.4966 -2.7001 -2.5584
  795MOL0     H 4923   6.215   6.576   4.927 -0.0654  0.8530  3.0615
  795MOL0     H 4924   6.470   6.334   5.249 -3.0686  3.8823 -0.8585
  795MOL0     H 4925   6.699   6.304   5.355 -0.5508 -1.5629 -0.1574
  795MOL0     H 4926   8.425   6.843   4.686  0.5277 -1.0873 -0.8030
  795MOL0     H 4927   8.666   6.841   4.599  0.2274 -0.3714 -1.3244
  795MOL0     H 4928   8.926   6.931   4.237  1.1174 -0.9281 -0.5560
  795MOL0     H 4929   9.154   6.879   4.139 -1.3961  0.4530 -1.0140
  795MOL0     H 4930   9.472   6.992   4.385 -0.9128 -1.3975  0.0339
  795MOL0     H 4931   9.510   7.132   4.278 -2.4282 -0.0609  0.9365
  795MOL0     H 4932   9.556   6.845   4.195  1.4395 -0.8658  0.5694
  795MOL0     H 4933   9.620   6.996   4.122 -1.5748 -0.5086  0.3525
  795MOL0     H 4934   9.692   6.876   4.408 -1.3646  0.7039  0.2063
  795MOL0     H 4935   9.753   7.029   4.349 -0.8194  1.3725 -2.0085
  795MOL0     H 4936   9.799   6.760   4.230 -0.4244 -0.6222  0.3327
  795MOL0     H 4937   9.882   6.909   4.172  0.1903 -0.7700 -0.6149
  795MOL0     H 4938  10.153   6.791   4.448  1.0715  1.9853 -2.2007
  795MOL0     H 4939   9.314   7.191   4.413  0.3795  0.1974 -0.3702
  795MOL0     H 4940   9.105   7.233   4.489  0.2004 -0.6436  1.1678
  796MOL0     O 4941   5.683   6.715   0.115 -0.2287  0.3855  0.0352
  796MOL0     C 4942   5.699   6.831   0.068  0.2208 -0.9120 -0.0754
  796MOL0     O 4943   5.607   6.902   0.003 -0.3717 -0.2596 -0.7247
  796MOL0     C 4944   5.475   6.861   0.002 -1.0145  0.0155 -0.3286
  796MOL0     C 4945   5.436   6.725  -0.027  0.7548 -0.7795  0.6847
  796MOL0     C 4946   5.316   6.677   0.008  0.1463 -0.1506  0.1277
  796MOL0     C 4947   5.216   6.749   0.075 -0.2688 -0.1981 -0.0474
  796MOL0     O 4948   5.101   6.669   0.097 -0.0804  0.2557 -0.0190
  796MOL0     C 4949   4.991   6.728   0.159  0.7813  0.4078 -0.5834
  796MOL0     C 4950   4.875   6.632   0.174 -0.2018 -0.1725 -0.2962
  796MOL0     C 4951   4.754   6.689   0.239 -0.5479 -0.8790  0.9045
  796MOL0     C 4952   4.650   6.584   0.280  1.1740 -0.6150  0.6589
  796MOL0     C 4953   4.529   6.671   0.343 -0.4687  0.3018 -0.4574
  796MOL0     C 4954   4.439   6.575   0.419  0.3750  0.4088  0.1250
  796MOL0     C 4955   4.329   6.647   0.480 -0.1228  0.5008 -1.0809
  796MOL0     C 4956   4.229   6.550   0.550  0.0136  0.1205  0.3286
  796MOL0     N 4957   4.205   6.580   0.691  0.8262 -0.2322  0.0457
  796MOL0     C 4958   4.149   6.705   0.729  0.1738  0.2651 -0.1211
  796MOL0     C 4959   4.174   6.714   0.854 -0.6366 -0.1345  0.2464
  796MOL0     C 4960   4.133   6.832   0.945 -1.4887  0.3309 -0.0388
  796MOL0     C 4961   4.005   6.793   1.038 -0.3961 -0.2830  0.7133
  796MOL0     C 4962   3.875   6.833   0.962 -0.2593 -0.0830  0.0975
  796MOL0     C 4963   3.839   6.979   0.971 -0.1504 -0.0035  0.9899
  796MOL0     O 4964   3.784   7.015   1.097  0.0822  0.1073 -0.2372
  796MOL0     C 4965   3.651   6.987   1.110 -0.0235 -0.3563 -0.1205
  796MOL0     C 4966   3.615   6.882   1.194  0.4356  0.4389 -0.3187
  796MOL0     C 4967   3.480   6.860   1.218 -0.5357 -0.4489  0.1433
  796MOL0     C 4968   3.383   6.952   1.167 -0.7062 -0.6572 -0.1234
  796MOL0     C 4969   3.244   6.943   1.221 -1.5783  0.0956  0.1147
  796MOL0     O 4970   3.223   6.880   1.336 -1.2605  0.1935  0.2063
  796MOL0     C 4971   3.105   6.842   1.391  0.0061  0.0212  0.2794
  796MOL0     C 4972   2.978   6.859   1.344  0.5883  0.0412  0.0412
  796MOL0     C 4973   2.863   6.807   1.415  0.1772 -0.8184 -0.4079
  796MOL0     C 4974   2.886   6.747   1.541  0.0022 -0.8524  0.0705
  796MOL0     O 4975   2.786   6.710   1.626  0.4084  0.2379 -0.2843
  796MOL0     C 4976   2.643   6.713   1.604 -0.2176  1.0076 -0.2382
  796MOL0     C 4977   2.597   6.854   1.576  0.2070 -0.0918  0.2439
  796MOL0     C 4978   2.467   6.877   1.518 -0.0139 -0.3802 -0.0489
  796MOL0     C 4979   2.442   6.871   1.371  0.0643  0.7209  0.0630
  796MOL0     C 4980   2.297   6.879   1.306  0.8255 -0.8799 -0.2187
  796MOL0     C 4981   2.229   7.014   1.347  0.5652  0.8353 -0.1466
  796MOL0     C 4982   2.093   7.026   1.267 -0.9134  0.0641 -0.1215
  796MOL0     C 4983   2.027   7.160   1.277  0.2668 -1.0047 -0.0117
  796MOL0    Cl 4984   2.139   7.282   1.228  0.1441  0.0281  0.0099
  796MOL0     C 4985   3.015   6.735   1.594  0.0934 -0.4962 -0.0182
  796MOL0     C 4986   3.125   6.776   1.516  0.8099 -0.0836  0.8094
  796MOL0     O 4987   3.165   7.017   1.162 -0.0086  0.0872 -0.9576
  796MOL0     C 4988   3.427   7.048   1.083 -0.5440 -0.8495  0.2735
  796MOL0     C 4989   3.556   7.073   1.054 -0.2066  0.3376  0.1853
  796MOL0     N 4990   4.257   6.609   0.892 -0.2688 -0.4878 -0.0413
  796MOL0     N 4991   4.275   6.525   0.795  0.3430  0.8731 -0.9570
  796MOL0     C 4992   5.245   6.884   0.086 -0.2384 -0.4884  0.8290
  796MOL0     C 4993   5.370   6.939   0.052 -0.0259  1.0593 -0.2820
  796MOL0     C 4994   5.837   6.881   0.071 -0.8551  0.1423  0.0179
  796MOL0     C 4995   5.944   6.800   0.094  0.4036  0.0866 -0.5023
  796MOL0     C 4996   6.072   6.859   0.103  0.6001 -0.6012  0.6251
  796MOL0     C 4997   6.100   6.995   0.076  0.4851  0.0308 -0.1902
  796MOL0     O 4998   6.224   7.057   0.058  0.7403  0.3640 -0.0241
  796MOL0     C 4999   6.343   6.974   0.049  0.9207  0.4160  0.2337
  796MOL0     C 5000   6.367   6.946  -0.098 -0.4889  0.1597 -0.9467
  796MOL0     C 5001   6.449   7.053  -0.167 -0.5277 -0.2346  0.3217
  796MOL0     C 5002   6.466   7.036  -0.325 -0.2153  0.3963 -0.1376
  796MOL0     C 5003   6.333   7.014  -0.396  0.8629  0.8805 -0.2245
  796MOL0     C 5004   6.223   7.002  -0.443  0.0686  0.8747  0.1227
  796MOL0     C 5005   5.987   7.071   0.052 -0.1297  0.2103 -0.4864
  796MOL0     C 5006   5.860   7.013   0.047 -0.6605 -0.1214 -0.3580
  796MOL0     H 5007   5.514   6.658  -0.063  0.2689  0.1140 -2.3259
  796MOL0     H 5008   5.284   6.575  -0.013 -3.2873  0.1919  2.7790
  796MOL0     H 5009   4.949   6.811   0.101 -0.8970 -0.7104 -1.0624
  796MOL0     H 5010   5.019   6.776   0.253  2.3206 -0.0611 -0.7786
  796MOL0     H 5011   4.915   6.555   0.240  2.3728  1.9620  0.7876
  796MOL0     H 5012   4.855   6.590   0.075 -2.2371 -2.8295  1.0889
  796MOL0     H 5013   4.704   6.743   0.158 -1.4955 -1.6082  0.9761
  796MOL0     H 5014   4.793   6.751   0.320  2.0001  0.4657 -1.1912
  796MOL0     H 5015   4.617   6.519   0.199  0.3600 -0.3309  0.7544
  796MOL0     H 5016   4.692   6.515   0.353 -1.8789 -2.5276  0.7951
  796MOL0     H 5017   4.458   6.706   0.267 -5.3863 -2.5774  2.2834
  796MOL0     H 5018   4.564   6.752   0.406 -3.3791  0.1840  1.5231
  796MOL0     H 5019   4.488   6.511   0.493 -0.2885 -0.8248 -0.4690
  796MOL0     H 5020   4.405   6.501   0.346 -0.5283  2.0529 -1.1914
  796MOL0     H 5021   4.375   6.713   0.554 -3.4949 -0.0413  1.8216
  796MOL0     H 5022   4.280   6.697   0.396 -1.3187  1.3197  0.0584
  796MOL0     H 5023   4.276   6.453   0.535  2.2307  1.1919 -0.1173
  796MOL0     H 5024   4.136   6.538   0.495  0.7831 -1.8646 -0.6353
  796MOL0     H 5025   4.088   6.759   0.657 -1.3348 -2.9462 -1.4517
  796MOL0     H 5026   4.104   6.916   0.883  1.1921 -0.0402 -1.9899
  796MOL0     H 5027   4.224   6.871   0.993  0.3388 -1.8616 -1.4885
  796MOL0     H 5028   4.006   6.861   1.124 -3.2207 -0.0856  0.6975
  796MOL0     H 5029   4.007   6.688   1.069 -4.7673 -0.1161  2.2602
  796MOL0     H 5030   3.870   6.815   0.854 -1.4583  0.3873  0.0635
  796MOL0     H 5031   3.792   6.772   0.999  0.7021 -0.4174  1.8101
  796MOL0     H 5032   3.768   7.003   0.891  0.1260 -0.0206  0.7356
  796MOL0     H 5033   3.933   7.035   0.959  0.8657 -1.3442  2.3455
  796MOL0     H 5034   3.687   6.805   1.220 -0.2992 -0.5767 -1.1724
  796MOL0     H 5035   3.458   6.768   1.272  1.6811 -1.8265 -1.1569
  796MOL0     H 5036   2.961   6.904   1.246  1.3652 -1.5324 -0.8621
  796MOL0     H 5037   2.762   6.815   1.376  0.8430  0.3659 -1.9851
  796MOL0     H 5038   2.587   6.668   1.686 -0.8783  1.1549 -0.6066
  796MOL0     H 5039   2.611   6.652   1.519 -2.3313  2.1343 -0.3105
  796MOL0     H 5040   2.672   6.914   1.523 -1.2027  0.4597 -1.2049
  796MOL0     H 5041   2.593   6.890   1.679 -1.8148 -2.4686  1.0888
  796MOL0     H 5042   2.440   6.978   1.552  2.8299 -0.3221  2.4924
  796MOL0     H 5043   2.395   6.805   1.559 -0.1355 -1.1188 -1.5180
  796MOL0     H 5044   2.502   6.944   1.317  0.9215 -0.3425 -0.4640
  796MOL0     H 5045   2.487   6.778   1.336  2.7977  1.5129  1.2296
  796MOL0     H 5046   2.242   6.795   1.349  0.5129 -0.3599  0.4084
  796MOL0     H 5047   2.299   6.866   1.198  2.6526  1.7535 -0.6148
  796MOL0     H 5048   2.295   7.090   1.305  1.6346  0.8971  1.5612
  796MOL0     H 5049   2.222   7.039   1.453  1.2481 -1.0468  0.3867
  796MOL0     H 5050   2.106   7.012   1.159 -0.9290  2.5573 -0.5018
  796MOL0     H 5051   2.021   6.948   1.294 -3.5169  0.3700 -4.9813
  796MOL0     H 5052   1.988   7.183   1.377 -1.1033  0.4451 -0.8482
  796MOL0     H 5053   1.947   7.158   1.203  1.5218  3.0101 -1.7515
  796MOL0     H 5054   3.021   6.702   1.698  1.2932 -1.1000 -0.2652
  796MOL0     H 5055   3.223   6.785   1.561  0.5212 -1.2360  1.7206
  796MOL0     H 5056   3.361   7.118   1.033  0.9756  0.6399  0.2479
  796MOL0     H 5057   3.587   7.157   0.992  0.3342 -0.1803 -0.2508
  796MOL0     H 5058   5.174   6.952   0.132  0.1814  0.1335  0.5739
  796MOL0     H 5059   5.389   7.038   0.091  1.3011 -0.3690  3.1195
  796MOL0     H 5060   5.933   6.692   0.106 -1.9117  0.2794 -0.5785
  796MOL0     H 5061   6.149   6.793   0.143  0.3841 -0.9342  0.5018
  796MOL0     H 5062   6.335   6.884   0.110  1.2079  0.3350  0.1535
  796MOL0     H 5063   6.417   7.045   0.086  0.3634  1.4685 -0.5963
  796MOL0     H 5064   6.432   6.860  -0.114  1.6791  1.1473  1.6304
  796MOL0     H 5065   6.269   6.928  -0.142 -1.5500 -0.4233  1.4606
  796MOL0     H 5066   6.551   7.039  -0.130  0.2675  0.4525 -1.5333
  796MOL0     H 5067   6.407   7.149  -0.135 -2.3994 -0.5191 -1.1198
  796MOL0     H 5068   6.506   7.123  -0.377 -4.2274  1.8778 -1.1178
  796MOL0     H 5069   6.524   6.943  -0.336 -0.3020  0.0292  2.0356
  796MOL0     H 5070   6.133   7.003  -0.501  0.1776  1.5724 -0.0455
  796MOL0     H 5071   6.013   7.172   0.024  0.4678  0.0144 -0.6408
  796MOL0     H 5072   5.776   7.078   0.025 -1.4741  0.2001  3.1562
  797MOL0     O 5073   4.626   9.259   6.815  0.0512  0.4131 -0.0046
  797MOL0     C 5074   4.670   9.141   6.835 -0.4069 -0.1553  0.5393
  797MOL0     O 5075   4.599   9.028   6.851  0.2419 -0.1330  0.4737
  797MOL0     C 5076   4.465   9.020   6.845 -0.3320 -0.3844 -0.0527
  797MOL0     C 5077   4.374   9.107   6.912  0.1284  0.5281  0.0111
  797MOL0     C 5078   4.237   9.081   6.920  0.2037  0.0762  0.2154
  797MOL0     C 5079   4.180   8.970   6.858 -0.2122 -0.1999  0.5477
  797MOL0     O 5080   4.046   8.964   6.887 -0.1056  0.5878  0.9171
  797MOL0     C 5081   3.983   8.839   6.846  0.6601  0.2037  0.8646
  797MOL0     C 5082   3.855   8.825   6.925  0.3799 -0.6858 -0.4300
  797MOL0     C 5083   3.758   8.935   6.889 -0.2394 -0.3028 -0.2945
  797MOL0     C 5084   3.632   8.905   6.959 -0.5443  0.4216 -0.4942
  797MOL0     C 5085   3.514   8.992   6.917 -0.0834  0.6696  0.5673
  797MOL0     C 5086   3.388   8.940   6.967 -0.1139  0.5029 -0.2874
  797MOL0     C 5087   3.280   9.047   6.936  0.9208  0.1947 -0.1358
  797MOL0     C 5088   3.141   9.006   6.988  0.2103  0.5352 -0.3848
  797MOL0     N 5089   3.034   9.103   6.953  1.0030  0.4706 -0.8859
  797MOL0     C 5090   2.991   9.138   6.836  0.4969 -0.1297 -0.0475
  797MOL0     C 5091   2.880   9.211   6.853  0.2758  0.6748 -0.0169
  797MOL0     C 5092   2.804   9.269   6.737  0.2026  0.2410 -0.4156
  797MOL0     C 5093   2.699   9.165   6.705  0.1300  0.9042  0.2999
  797MOL0     C 5094   2.600   9.201   6.597 -0.7339  0.4146  0.5284
  797MOL0     C 5095   2.522   9.326   6.631  0.4659 -0.4438  0.9202
  797MOL0     O 5096   2.438   9.359   6.523 -0.2106  0.2507  0.1051
  797MOL0     C 5097   2.308   9.331   6.523 -0.4059 -0.9463  0.4696
  797MOL0     C 5098   2.253   9.380   6.408  0.4541  1.0069  0.1383
  797MOL0     C 5099   2.127   9.337   6.367  0.3665  1.3634 -0.7685
  797MOL0     C 5100   2.049   9.248   6.450 -0.2334 -0.1367  0.4046
  797MOL0     C 5101   1.921   9.198   6.406 -0.2926 -0.3036 -0.3671
  797MOL0     O 5102   1.881   9.086   6.477  0.1260  0.1758  0.6536
  797MOL0     C 5103   1.767   9.017   6.433 -1.3295  0.1595  0.0137
  797MOL0     C 5104   1.766   8.916   6.335  0.1618  0.2356  0.4733
  797MOL0     C 5105   1.646   8.862   6.294  1.0625 -0.1468 -0.8534
  797MOL0     C 5106   1.518   8.906   6.340 -0.6998 -0.6189 -1.1053
  797MOL0     O 5107   1.399   8.858   6.293 -0.6351 -0.4640  0.9411
  797MOL0     C 5108   1.404   8.724   6.230 -0.2545  0.5455 -0.1344
  797MOL0     C 5109   1.259   8.669   6.225  0.0012  0.6637 -0.8550
  797MOL0     C 5110   1.164   8.736   6.131 -1.2082 -1.1624 -0.3986
  797MOL0     C 5111   1.021   8.714   6.177 -0.0131  0.0660 -0.8609
  797MOL0     C 5112   0.924   8.764   6.063  0.1094  0.0604 -0.3324
  797MOL0     C 5113   0.782   8.794   6.109  0.6011  0.5378 -0.3777
  797MOL0     C 5114   0.703   8.878   6.003  0.4435 -0.0195 -0.7647
  797MOL0     C 5115   0.556   8.887   6.038 -0.3483 -0.6319 -0.6712
  797MOL0    Cl 5116   0.532   8.991   6.181 -0.0357 -0.0517 -0.2313
  797MOL0     C 5117   1.522   9.009   6.440 -0.5589  0.3485  0.0087
  797MOL0     C 5118   1.645   9.059   6.482 -0.3966  0.5132 -0.5055
  797MOL0     O 5119   1.858   9.260   6.322 -0.4924 -0.0666  0.2233
  797MOL0     C 5120   2.111   9.195   6.571 -0.1640  0.0412 -0.6408
  797MOL0     C 5121   2.237   9.243   6.606 -0.7879 -0.6861  0.1934
  797MOL0     N 5122   2.865   9.222   6.990  0.1090  0.2976 -0.1523
  797MOL0     N 5123   2.949   9.151   7.046  0.0976  0.7783 -0.1514
  797MOL0     C 5124   4.265   8.900   6.770 -0.0959  0.9781 -0.5959
  797MOL0     C 5125   4.408   8.915   6.774  0.0518 -1.1992  0.3066
  797MOL0     C 5126   4.808   9.117   6.867 -0.2959 -0.1934  0.2175
  797MOL0     C 5127   4.880   9.228   6.913 -0.9034 -0.3152  0.5267
  797MOL0     C 5128   5.015   9.213   6.949  0.1180 -0.0990 -0.5234
  797MOL0     C 5129   5.072   9.080   6.944  0.6538  0.0714 -0.3915
  797MOL0     O 5130   5.202   9.060   6.975  0.0424  0.4796  0.3147
  797MOL0     C 5131   5.292   9.073   6.868 -0.2465 -0.7387 -0.4667
  797MOL0     C 5132   5.427   9.002   6.906  0.5928  0.2982  0.2540
  797MOL0     C 5133   5.423   8.852   6.875 -0.4369 -0.4957 -0.4479
  797MOL0     C 5134   5.560   8.792   6.869  0.0774 -0.5012 -0.5898
  797MOL0     C 5135   5.569   8.645   6.851 -0.9736 -0.1155 -1.2638
  797MOL0     C 5136   5.590   8.526   6.849  0.8902  0.0820 -0.1553
  797MOL0     C 5137   4.994   8.967   6.907  1.0659 -1.0161  0.2099
  797MOL0     C 5138   4.867   8.990   6.857  0.0493  0.1432  0.4181
  797MOL0     H 5139   4.413   9.199   6.954 -0.9332  0.4763  1.1986
  797MOL0     H 5140   4.173   9.143   6.982  0.1317  2.6689 -2.2553
  797MOL0     H 5141   4.053   8.759   6.875 -1.0939 -1.2750  1.1745
  797MOL0     H 5142   3.965   8.828   6.738 -1.3618 -0.7623  1.2528
  797MOL0     H 5143   3.871   8.836   7.033  1.8719 -0.8703 -0.6150
  797MOL0     H 5144   3.813   8.726   6.901  0.5763 -0.4014 -2.0260
  797MOL0     H 5145   3.742   8.943   6.781  0.0632  3.7593 -0.2021
  797MOL0     H 5146   3.790   9.035   6.920 -0.4439 -0.3793  0.1797
  797MOL0     H 5147   3.609   8.801   6.932 -3.1407  1.6281 -3.5153
  797MOL0     H 5148   3.640   8.909   7.068  1.6862 -0.6933 -0.5573
  797MOL0     H 5149   3.512   8.983   6.808  0.3599 -2.4635  0.7113
  797MOL0     H 5150   3.530   9.095   6.948 -1.1570  1.0191  0.0052
  797MOL0     H 5151   3.402   8.928   7.075  0.7010 -0.4041 -0.4876
  797MOL0     H 5152   3.353   8.843   6.930  3.3555 -0.7570 -0.6017
  797MOL0     H 5153   3.318   9.139   6.982  0.4204  0.2430  0.1814
  797MOL0     H 5154   3.267   9.051   6.828 -1.2074 -2.8947 -0.1147
  797MOL0     H 5155   3.140   8.993   7.097  0.8428  0.5290 -0.3788
  797MOL0     H 5156   3.115   8.908   6.947  0.2951 -0.2345  1.3080
  797MOL0     H 5157   3.030   9.109   6.739 -2.7151 -1.7592 -0.9863
  797MOL0     H 5158   2.857   9.289   6.644 -0.8189  0.2176 -1.0144
  797MOL0     H 5159   2.760   9.364   6.772  0.0802 -0.6652  2.1082
  797MOL0     H 5160   2.638   9.146   6.794 -0.2919  0.5396 -0.0619
  797MOL0     H 5161   2.754   9.077   6.670  0.0735  0.0700  2.1695
  797MOL0     H 5162   2.665   9.214   6.510  0.2929  2.6896  1.5251
  797MOL0     H 5163   2.528   9.122   6.578  0.6810 -0.4153 -1.7324
  797MOL0     H 5164   2.589   9.412   6.640  0.8441  0.2826 -4.8835
  797MOL0     H 5165   2.465   9.311   6.723 -3.5711  0.1465 -1.2711
  797MOL0     H 5166   2.311   9.452   6.350  1.3192  0.3571  0.1657
  797MOL0     H 5167   2.085   9.359   6.269  0.2350  0.9152 -0.8150
  797MOL0     H 5168   1.862   8.886   6.294 -0.4838  0.6882 -1.4522
  797MOL0     H 5169   1.654   8.777   6.226  0.7892 -1.6116  0.8691
  797MOL0     H 5170   1.466   8.667   6.300  0.7019  2.4253  0.6135
  797MOL0     H 5171   1.439   8.732   6.126  2.8829  2.2794  0.9201
  797MOL0     H 5172   1.208   8.666   6.322 -0.7794 -1.2970 -1.2701
  797MOL0     H 5173   1.267   8.564   6.195 -0.0878  0.8401 -1.4972
  797MOL0     H 5174   1.189   8.709   6.028  1.2365 -1.2228  0.1572
  797MOL0     H 5175   1.167   8.846   6.134 -1.7190 -1.0898 -1.7180
  797MOL0     H 5176   1.008   8.607   6.195  2.4435 -0.1805 -0.0976
  797MOL0     H 5177   1.002   8.764   6.272 -2.4293  0.1439 -1.3385
  797MOL0     H 5178   0.918   8.697   5.977 -2.7369 -0.2035 -0.0218
  797MOL0     H 5179   0.960   8.862   6.028  0.7092 -0.5607 -1.5146
  797MOL0     H 5180   0.782   8.859   6.198  0.6256  1.8923 -1.3253
  797MOL0     H 5181   0.734   8.702   6.142 -1.2267  1.1619 -1.2072
  797MOL0     H 5182   0.744   8.978   5.987  3.5531 -1.1695 -0.6550
  797MOL0     H 5183   0.712   8.829   5.906  2.1898  0.8634 -1.0804
  797MOL0     H 5184   0.526   8.784   6.063 -3.2392  0.2613 -0.0369
  797MOL0     H 5185   0.477   8.919   5.970 -0.5955  0.8197  0.2445
  797MOL0     H 5186   1.425   9.038   6.479 -1.0985  0.4691 -1.3531
  797MOL0     H 5187   1.640   9.131   6.563 -0.7750  0.7548 -0.7407
  797MOL0     H 5188   2.070   9.118   6.636  2.5226 -0.2290  0.8600
  797MOL0     H 5189   2.290   9.201   6.691 -0.1365  3.1624  1.9163
  797MOL0     H 5190   4.225   8.823   6.704 -1.8230  2.3730 -1.2629
  797MOL0     H 5191   4.475   8.847   6.722 -0.2856  0.0547 -1.9067
  797MOL0     H 5192   4.851   9.332   6.921 -2.1411 -0.7390  1.9736
  797MOL0     H 5193   5.073   9.296   6.989 -1.3992  0.0605  1.4969
  797MOL0     H 5194   5.307   9.180   6.856 -0.6432 -0.8481 -2.1040
  797MOL0     H 5195   5.246   9.037   6.776 -0.4957  0.9217 -1.0099
  797MOL0     H 5196   5.493   9.053   6.835 -0.1424 -0.1871 -0.8065
  797MOL0     H 5197   5.451   9.017   7.011 -2.6332  1.6847  0.8909
  797MOL0     H 5198   5.375   8.824   6.780 -1.1061  5.3746 -2.2505
  797MOL0     H 5199   5.363   8.803   6.952  0.6777 -2.5841 -0.8237
  797MOL0     H 5200   5.619   8.838   6.789  1.2057  1.7651  1.4543
  797MOL0     H 5201   5.611   8.812   6.963 -1.5515 -4.3069  1.3467
  797MOL0     H 5202   5.615   8.422   6.839  1.0726  0.0904  0.2246
  797MOL0     H 5203   5.033   8.866   6.894 -2.0682 -2.0874 -2.4823
  797MOL0     H 5204   4.812   8.906   6.817 -0.3588  1.2125 -1.3662
  798MOL0     O 5205   7.129  10.708   6.330 -0.1271  0.0388  0.1555
  798MOL0     C 5206   7.090  10.733   6.451 -0.7436 -0.1274 -0.7104
  798MOL0     O 5207   6.977  10.732   6.492  0.0568 -0.7043 -0.8392
  798MOL0     C 5208   6.875  10.685   6.405 -0.2154  0.2040 -1.4517
  798MOL0     C 5209   6.873  10.568   6.324 -0.2641  0.4953 -0.2730
  798MOL0     C 5210   6.766  10.542   6.241 -0.1297 -0.3414  0.4084
  798MOL0     C 5211   6.649  10.619   6.246 -0.7803  0.0871  0.2366
  798MOL0     O 5212   6.532  10.582   6.185 -1.0708  0.0927 -0.8635
  798MOL0     C 5213   6.532  10.581   6.041 -0.4239  0.8299  0.1318
  798MOL0     C 5214   6.426  10.489   5.997  0.0683  0.5669 -0.0026
  798MOL0     C 5215   6.444  10.332   6.018 -0.0813  0.2316  0.2049
  798MOL0     C 5216   6.329  10.253   5.958 -0.0729 -0.4395 -0.3370
  798MOL0     C 5217   6.191  10.261   6.019  0.9047  0.7400 -0.1736
  798MOL0     C 5218   6.101  10.154   5.950 -0.2847  0.2280  0.1652
  798MOL0     C 5219   5.954  10.171   5.997  0.1478  0.2351 -0.1072
  798MOL0     C 5220   5.927  10.117   6.133 -0.0186  0.2393 -0.2238
  798MOL0     N 5221   5.779  10.110   6.153 -0.0109 -0.4831  0.0251
  798MOL0     C 5222   5.692  10.188   6.230 -0.0520 -0.2556  0.9561
  798MOL0     C 5223   5.571  10.169   6.166  0.0388 -1.0609  0.9009
  798MOL0     C 5224   5.442  10.250   6.202 -0.4658 -0.0796  0.5133
  798MOL0     C 5225   5.446  10.296   6.343  0.2740  0.6743  0.4723
  798MOL0     C 5226   5.314  10.377   6.372 -0.4113 -1.2314 -1.3620
  798MOL0     C 5227   5.307  10.394   6.525  0.2389 -0.1244 -1.0100
  798MOL0     O 5228   5.186  10.478   6.550 -0.8697  0.2987 -0.2189
  798MOL0     C 5229   5.150  10.509   6.676 -0.5047 -0.3047  0.2472
  798MOL0     C 5230   5.214  10.463   6.790 -0.4712 -0.1249 -0.4759
  798MOL0     C 5231   5.173  10.489   6.924  0.6150 -0.0086  0.7469
  798MOL0     C 5232   5.053  10.565   6.932  0.0211  0.5057 -0.4834
  798MOL0     C 5233   4.994  10.589   7.062 -0.6714  0.2222 -0.0422
  798MOL0     O 5234   4.894  10.686   7.069 -0.1214 -0.0056 -0.3910
  798MOL0     C 5235   4.845  10.706   7.199  0.2016  0.2076 -0.7672
  798MOL0     C 5236   4.919  10.785   7.290  0.7609 -0.1232 -0.5206
  798MOL0     C 5237   4.865  10.814   7.422  0.0203  0.3487  0.8898
  798MOL0     C 5238   4.745  10.751   7.460 -0.2354 -1.3081  0.4735
  798MOL0     O 5239   4.710  10.770   7.588  0.7535  0.4357  0.5824
  798MOL0     C 5240   4.814  10.719   7.677  0.5235 -0.0434  0.2648
  798MOL0     C 5241   4.770  10.680   7.816 -0.3237  0.2918 -0.4434
  798MOL0     C 5242   4.661  10.576   7.803 -0.1504  0.5047 -0.2595
  798MOL0     C 5243   4.647  10.487   7.932 -0.1996  0.5649  0.2787
  798MOL0     C 5244   4.556  10.365   7.907 -1.0614 -0.1091 -0.0575
  798MOL0     C 5245   4.410  10.409   7.916  0.4398 -0.2329  1.0241
  798MOL0     C 5246   4.310  10.294   7.901 -0.4078  0.2737  0.1748
  798MOL0     C 5247   4.177  10.362   7.866  0.1316  0.2801  0.4830
  798MOL0    Cl 5248   4.074  10.252   7.789  0.4634 -0.0470 -0.1669
  798MOL0     C 5249   4.673  10.669   7.374  0.3201  0.3278  0.3813
  798MOL0     C 5250   4.716  10.649   7.244  0.9030 -0.1914 -0.2530
  798MOL0     O 5251   5.043  10.531   7.157  0.7044 -0.2155  0.1995
  798MOL0     C 5252   4.990  10.608   6.819  0.0072 -0.3571  0.2732
  798MOL0     C 5253   5.031  10.574   6.693  0.4867  0.4040  0.6073
  798MOL0     N 5254   5.573  10.069   6.076 -1.0199  0.3940  0.6218
  798MOL0     N 5255   5.702  10.033   6.074 -0.5147 -0.3344  0.0625
  798MOL0     C 5256   6.646  10.724   6.341  0.1427 -0.0901  0.6358
  798MOL0     C 5257   6.755  10.757   6.404 -0.6265  0.0765 -0.1105
  798MOL0     C 5258   7.198  10.776   6.551  0.0745  0.7834 -0.3525
  798MOL0     C 5259   7.163  10.797   6.684  0.6730 -0.2534 -0.6034
  798MOL0     C 5260   7.251  10.828   6.785 -0.1306 -0.5397  0.2902
  798MOL0     C 5261   7.385  10.822   6.766  0.3307 -0.5848  0.6119
  798MOL0     O 5262   7.467  10.828   6.874  0.0479  0.2164 -0.2900
  798MOL0     C 5263   7.605  10.803   6.849 -0.0783  0.1608  0.0908
  798MOL0     C 5264   7.688  10.734   6.968 -0.1725 -0.1936 -0.3177
  798MOL0     C 5265   7.835  10.727   6.937 -0.3212  0.2746 -0.0309
  798MOL0     C 5266   7.899  10.690   7.064 -0.3036  0.3920 -0.4966
  798MOL0     C 5267   8.031  10.641   7.059  0.6826 -0.0550 -0.2002
  798MOL0     C 5268   8.151  10.611   7.053 -0.2543  0.9932 -0.3136
  798MOL0     C 5269   7.427  10.797   6.626 -0.7209 -0.2345  0.1541
  798MOL0     C 5270   7.332  10.782   6.526 -0.2495  0.2247  0.5038
  798MOL0     H 5271   6.955  10.497   6.331  0.4660  1.2641 -0.7471
  798MOL0     H 5272   6.779  10.453   6.181 -2.8898  0.4189 -1.4967
  798MOL0     H 5273   6.624  10.546   5.993  0.0264  1.4147  0.5469
  798MOL0     H 5274   6.522  10.677   5.991  0.7079 -0.3769 -2.6210
  798MOL0     H 5275   6.428  10.516   5.891 -1.0640  0.1774 -0.1316
  798MOL0     H 5276   6.331  10.518   6.042 -0.1185  2.5148 -1.5552
  798MOL0     H 5277   6.431  10.323   6.126  0.1042 -0.7009  0.1552
  798MOL0     H 5278   6.545  10.299   5.990 -0.9778 -0.2849 -2.6935
  798MOL0     H 5279   6.335  10.294   5.856  1.5041  0.0180 -0.0911
  798MOL0     H 5280   6.358  10.148   5.958  1.0351 -0.1533 -1.0315
  798MOL0     H 5281   6.136  10.355   6.002 -2.1208 -0.7242  0.7389
  798MOL0     H 5282   6.199  10.249   6.128  0.4043 -1.5561 -0.3500
  798MOL0     H 5283   6.119  10.048   5.972 -3.1024 -0.0836  1.3784
  798MOL0     H 5284   6.110  10.165   5.841 -0.4934 -1.1827 -0.0165
  798MOL0     H 5285   5.939  10.279   5.996  2.6417  0.7132  2.3331
  798MOL0     H 5286   5.894  10.121   5.920  1.9772 -0.0533 -1.4163
  798MOL0     H 5287   5.961  10.195   6.201 -0.9824  1.1138 -0.7120
  798MOL0     H 5288   5.964  10.016   6.155  0.4573  0.7290  1.3560
  798MOL0     H 5289   5.717  10.250   6.316 -2.1355  1.2334  0.5722
  798MOL0     H 5290   5.354  10.186   6.192 -2.0997  1.9975  0.8706
  798MOL0     H 5291   5.425  10.333   6.133 -0.8228  2.1118  3.0738
  798MOL0     H 5292   5.546  10.338   6.361  1.5548 -1.0056 -2.0740
  798MOL0     H 5293   5.431  10.206   6.404  3.0803 -0.1776  0.0553
  798MOL0     H 5294   5.321  10.478   6.331 -0.2372 -0.2337  0.9721
  798MOL0     H 5295   5.219  10.345   6.328 -2.1539  0.0410  1.2482
  798MOL0     H 5296   5.387  10.445   6.580 -2.2761 -0.4040  3.4207
  798MOL0     H 5297   5.296  10.299   6.577  2.8070  0.0827  0.0210
  798MOL0     H 5298   5.307  10.408   6.779 -1.3346 -2.4145  2.3309
  798MOL0     H 5299   5.235  10.473   7.011  2.3494  0.0683 -0.4240
  798MOL0     H 5300   5.010  10.831   7.253  0.6004  2.1045  1.5946
  798MOL0     H 5301   4.932  10.869   7.488  2.7030 -2.7627  0.9923
  798MOL0     H 5302   4.897  10.790   7.683  0.5915 -0.0257 -0.7483
  798MOL0     H 5303   4.858  10.631   7.628  0.1002  0.6778 -1.4892
  798MOL0     H 5304   4.745  10.762   7.883 -0.0595  0.1772 -0.2010
  798MOL0     H 5305   4.861  10.636   7.858 -0.6687 -2.0220 -1.9457
  798MOL0     H 5306   4.668  10.520   7.710  0.3592 -1.7557  1.0765
  798MOL0     H 5307   4.570  10.636   7.793 -1.3160 -1.2084 -0.1921
  798MOL0     H 5308   4.749  10.460   7.959 -0.0963  0.1056 -0.5332
  798MOL0     H 5309   4.612  10.548   8.016  1.5589  1.2259  0.5844
  798MOL0     H 5310   4.575  10.295   7.990  1.1582  1.8143  1.1743
  798MOL0     H 5311   4.571  10.308   7.815 -1.0066 -2.5283  1.3439
  798MOL0     H 5312   4.396  10.483   7.837  1.8118 -0.3236  0.6710
  798MOL0     H 5313   4.387  10.467   8.006 -0.1758  0.9134  0.1360
  798MOL0     H 5314   4.337  10.229   7.817 -0.9364 -1.7232  1.4771
  798MOL0     H 5315   4.286  10.236   7.991 -2.4214 -3.0897 -2.3154
  798MOL0     H 5316   4.193  10.440   7.792  1.0424 -2.6552 -2.6509
  798MOL0     H 5317   4.127  10.393   7.958 -0.5911 -0.5037  0.3733
  798MOL0     H 5318   4.580  10.616   7.395  0.9590 -0.3942  1.4709
  798MOL0     H 5319   4.657  10.603   7.165  1.6776  1.1510 -1.6946
  798MOL0     H 5320   4.899  10.667   6.823  0.7615  0.9562 -1.1454
  798MOL0     H 5321   4.977  10.596   6.601  0.0342 -2.9781 -0.0637
  798MOL0     H 5322   6.563  10.794   6.347  0.9340  0.8290  1.2027
  798MOL0     H 5323   6.755  10.841   6.473 -0.5474 -1.4814  1.8898
  798MOL0     H 5324   7.058  10.791   6.713  1.2273  1.6297  2.2051
  798MOL0     H 5325   7.213  10.846   6.885  3.2690 -1.7586  1.9383
  798MOL0     H 5326   7.656  10.894   6.815  0.8060 -0.3503  0.0215
  798MOL0     H 5327   7.620  10.731   6.769  1.4852  0.0377  0.4671
  798MOL0     H 5328   7.682  10.809   7.048  1.1019 -1.2629  0.8378
  798MOL0     H 5329   7.646  10.636   6.992 -1.8333  0.5098 -0.2420
  798MOL0     H 5330   7.878  10.824   6.909  2.3614 -0.6833  0.5300
  798MOL0     H 5331   7.863  10.660   6.855  0.8544  1.6147 -0.7755
  798MOL0     H 5332   7.898  10.786   7.115 -2.0487  0.0701  0.1486
  798MOL0     H 5333   7.842  10.611   7.115  0.7913  0.2602  0.5628
  798MOL0     H 5334   8.252  10.578   7.058 -0.1841  1.2456 -0.0547
  798MOL0     H 5335   7.529  10.803   6.590  0.1828  0.8186  2.6966
  798MOL0     H 5336   7.355  10.782   6.420 -0.1852 -0.1538  0.5132
  799MOL0     O 5337  10.929   5.065   5.809 -0.1078  0.2390  0.1023
  799MOL0     C 5338  10.951   4.962   5.745 -0.4334  0.5298 -0.4212
  799MOL0     O 5339  10.859   4.883   5.673 -0.1152 -0.6065 -0.2668
  799MOL0     C 5340  10.730   4.934   5.690 -0.1573  1.4112 -0.0870
  799MOL0     C 5341  10.671   4.975   5.569 -0.3330  0.2979  0.1600
  799MOL0     C 5342  10.545   5.023   5.565 -0.1864  0.5168 -0.3722
  799MOL0     C 5343  10.463   5.029   5.685  0.2103  0.5055  0.4855
  799MOL0     O 5344  10.330   5.079   5.674 -0.1986 -0.3659  0.6945
  799MOL0     C 5345  10.230   5.039   5.775 -0.2124  0.6332 -0.3043
  799MOL0     C 5346  10.084   5.044   5.736  0.1489 -1.2668 -0.7695
  799MOL0     C 5347  10.040   4.972   5.606  0.3352  0.2539 -0.1886
  799MOL0     C 5348   9.925   5.038   5.531 -0.5935  0.0914 -0.1112
  799MOL0     C 5349   9.914   5.028   5.380 -0.4392  0.6875  0.1523
  799MOL0     C 5350   9.877   4.892   5.326 -0.5878 -0.2909 -0.1516
  799MOL0     C 5351   9.741   4.837   5.368 -0.4167 -0.2965  0.8501
  799MOL0     C 5352   9.712   4.696   5.295 -0.3941  0.9889 -0.1785
  799MOL0     N 5353   9.611   4.619   5.370  0.8820  0.2267  0.0723
  799MOL0     C 5354   9.631   4.538   5.469  1.0389  0.0924 -0.7343
  799MOL0     C 5355   9.512   4.489   5.510  0.6191 -0.3851  0.0123
  799MOL0     C 5356   9.485   4.408   5.629 -0.0456  0.6365 -0.1519
  799MOL0     C 5357   9.479   4.266   5.587 -0.3463  0.2627 -0.1111
  799MOL0     C 5358   9.333   4.227   5.539  0.2839 -0.2297  0.1659
  799MOL0     C 5359   9.335   4.091   5.467  0.6305  0.1320 -0.3227
  799MOL0     O 5360   9.365   3.975   5.556 -1.0831 -0.4075 -0.4963
  799MOL0     C 5361   9.255   3.895   5.594 -0.2805 -0.1554  0.1906
  799MOL0     C 5362   9.115   3.931   5.611  1.3656  0.0308  0.0804
  799MOL0     C 5363   9.030   3.826   5.641 -0.4028 -0.0480  0.0898
  799MOL0     C 5364   9.064   3.694   5.644 -0.8005  1.0973  0.5681
  799MOL0     C 5365   8.970   3.582   5.674  0.2045 -0.4903  0.0503
  799MOL0     O 5366   9.017   3.465   5.737 -0.1506  0.3302 -0.6208
  799MOL0     C 5367   8.928   3.359   5.754 -0.1542 -0.1743 -0.1972
  799MOL0     C 5368   8.832   3.357   5.860 -0.4234 -0.2192  0.3141
  799MOL0     C 5369   8.750   3.244   5.873 -0.1364  0.2117  0.5428
  799MOL0     C 5370   8.754   3.132   5.785 -0.7390 -0.4792  0.5840
  799MOL0     O 5371   8.665   3.031   5.789 -0.5176 -0.8554 -0.5325
  799MOL0     C 5372   8.671   2.926   5.690  0.3867 -0.1316  0.1646
  799MOL0     C 5373   8.546   2.847   5.713  0.4328 -0.4051  0.1576
  799MOL0     C 5374   8.530   2.730   5.610 -0.1713 -0.4147 -0.7472
  799MOL0     C 5375   8.391   2.676   5.622 -0.3128 -0.6680 -0.4452
  799MOL0     C 5376   8.389   2.527   5.608  0.2402 -0.3649 -0.6077
  799MOL0     C 5377   8.241   2.488   5.598  0.5510  0.3381 -0.0787
  799MOL0     C 5378   8.226   2.334   5.610 -0.8764 -1.0265  0.2356
  799MOL0     C 5379   8.085   2.302   5.563  0.1102  0.8988  0.4771
  799MOL0    Cl 5380   7.956   2.372   5.668 -0.3966 -0.1001 -0.0747
  799MOL0     C 5381   8.856   3.138   5.678 -0.3084 -0.3033 -0.1580
  799MOL0     C 5382   8.946   3.247   5.674 -0.2446 -0.7512 -1.4762
  799MOL0     O 5383   8.859   3.590   5.628  0.2712  0.3622 -0.6570
  799MOL0     C 5384   9.196   3.655   5.635 -1.3696 -0.6542  0.0183
  799MOL0     C 5385   9.292   3.762   5.617  0.3416 -0.1641  0.6494
  799MOL0     N 5386   9.423   4.555   5.427  0.3387 -0.0209  0.4283
  799MOL0     N 5387   9.481   4.639   5.345  0.2636 -1.3274  0.3239
  799MOL0     C 5388  10.530   5.003   5.812 -0.0405  0.8752 -0.9519
  799MOL0     C 5389  10.656   4.939   5.810  0.4932  0.0079 -0.3422
  799MOL0     C 5390  11.086   4.905   5.744 -0.2394  0.9268  0.1572
  799MOL0     C 5391  11.113   4.784   5.669 -0.4593 -0.4663 -0.1563
  799MOL0     C 5392  11.246   4.730   5.681  0.3624  0.5007 -0.0531
  799MOL0     C 5393  11.341   4.785   5.761 -0.8980 -0.1642 -0.0964
  799MOL0     O 5394  11.458   4.713   5.774  0.1877 -0.0974 -0.3356
  799MOL0     C 5395  11.579   4.791   5.803 -0.1098 -0.0379 -0.1153
  799MOL0     C 5396  11.620   4.888   5.692 -0.6116 -0.1277 -0.5190
  799MOL0     C 5397  11.687   5.021   5.745  0.5502 -0.2664  0.3837
  799MOL0     C 5398  11.834   4.988   5.778  0.4201 -0.2275 -0.4919
  799MOL0     C 5399  11.902   5.091   5.847  0.9522 -0.3923  0.5661
  799MOL0     C 5400  11.964   5.179   5.902  0.1199 -0.3187 -0.5268
  799MOL0     C 5401  11.311   4.904   5.835 -0.4478  0.4785  1.0898
  799MOL0     C 5402  11.190   4.964   5.822 -0.6894  0.3181  0.1399
  799MOL0     H 5403  10.724   4.953   5.476  0.2712  3.5767 -0.4018
  799MOL0     H 5404  10.504   5.047   5.468  1.0970  1.5968 -0.6847
  799MOL0     H 5405  10.243   5.092   5.870 -2.3687  0.7016  0.0167
  799MOL0     H 5406  10.264   4.936   5.794  1.3413  0.9465 -1.2555
  799MOL0     H 5407  10.081   5.151   5.710  5.0655 -0.7198  0.0411
  799MOL0     H 5408  10.014   5.022   5.818  1.8900  0.1124  1.2025
  799MOL0     H 5409  10.010   4.868   5.620 -1.7308  0.8536  0.2412
  799MOL0     H 5410  10.124   4.979   5.536  0.1538  0.1811 -0.4142
  799MOL0     H 5411   9.826   5.017   5.571 -0.3759  0.5465  0.6945
  799MOL0     H 5412   9.927   5.145   5.556 -1.8195  0.3301 -0.9233
  799MOL0     H 5413  10.011   5.046   5.331 -1.2107 -0.3841 -1.8660
  799MOL0     H 5414   9.837   5.092   5.337 -2.6509 -1.9465 -0.0907
  799MOL0     H 5415   9.956   4.821   5.353  3.0614  1.1753 -5.4847
  799MOL0     H 5416   9.888   4.903   5.218 -0.7117  1.9914  0.0092
  799MOL0     H 5417   9.751   4.824   5.476  2.3579 -0.9801  0.5936
  799MOL0     H 5418   9.667   4.911   5.337 -1.7183 -1.5587  0.8030
  799MOL0     H 5419   9.801   4.633   5.287 -1.6106 -0.9122  0.6271
  799MOL0     H 5420   9.683   4.714   5.191  1.6039  2.9774 -0.4731
  799MOL0     H 5421   9.730   4.519   5.509  1.1709  3.6597  1.1036
  799MOL0     H 5422   9.386   4.429   5.670 -1.0483 -1.8080 -1.1872
  799MOL0     H 5423   9.565   4.420   5.703  1.6310 -1.2354 -1.5392
  799MOL0     H 5424   9.508   4.209   5.675  1.6179 -1.6647 -1.8796
  799MOL0     H 5425   9.565   4.250   5.520  0.6739  2.8555  0.4515
  799MOL0     H 5426   9.262   4.217   5.621  0.2946 -0.0218  0.2018
  799MOL0     H 5427   9.298   4.310   5.476  2.3905  3.3036  3.2689
  799MOL0     H 5428   9.414   4.092   5.391 -1.0873  1.0401 -2.2002
  799MOL0     H 5429   9.236   4.090   5.419  0.4670 -1.6804 -0.0307
  799MOL0     H 5430   9.079   4.033   5.596 -0.8763 -0.7839 -0.5033
  799MOL0     H 5431   8.926   3.857   5.634  0.4119  2.5036 -2.4537
  799MOL0     H 5432   8.823   3.445   5.923 -0.6057  0.3684 -0.5032
  799MOL0     H 5433   8.671   3.252   5.947  1.3356 -1.1939  2.3572
  799MOL0     H 5434   8.766   2.876   5.709 -0.6709 -1.7860  1.4383
  799MOL0     H 5435   8.680   2.954   5.585  0.2018 -0.5932  0.0226
  799MOL0     H 5436   8.465   2.920   5.722 -0.5676 -1.5615  0.9637
  799MOL0     H 5437   8.553   2.806   5.814  0.2448 -0.1225  0.2859
  799MOL0     H 5438   8.610   2.657   5.626 -1.1705 -1.5526 -0.8109
  799MOL0     H 5439   8.530   2.769   5.508 -3.7589 -0.5323 -0.9131
  799MOL0     H 5440   8.345   2.692   5.720  0.2273 -2.6123  0.1733
  799MOL0     H 5441   8.331   2.722   5.544 -1.0751  0.3379  0.7010
  799MOL0     H 5442   8.432   2.479   5.696 -0.7559 -0.7177 -0.3010
  799MOL0     H 5443   8.447   2.490   5.522  0.0558 -1.7428 -0.1669
  799MOL0     H 5444   8.193   2.508   5.502 -0.0954 -0.5281  0.0407
  799MOL0     H 5445   8.177   2.541   5.669 -1.3400 -1.5015 -0.2736
  799MOL0     H 5446   8.305   2.291   5.548 -0.1763 -2.8585  2.2563
  799MOL0     H 5447   8.252   2.308   5.713 -1.8637  0.0299  0.7818
  799MOL0     H 5448   8.074   2.193   5.569  0.5087  0.9233  3.7344
  799MOL0     H 5449   8.075   2.327   5.457 -1.3719  1.2501  0.6789
  799MOL0     H 5450   8.883   3.061   5.607 -0.8144  0.7646 -1.5441
  799MOL0     H 5451   9.023   3.245   5.598  0.0446 -0.5439 -1.1895
  799MOL0     H 5452   9.222   3.551   5.650 -0.7853 -0.5832 -0.4500
  799MOL0     H 5453   9.397   3.735   5.604  0.0112 -2.1567  1.7459
  799MOL0     H 5454  10.493   5.017   5.913  0.5048  0.6018 -0.7088
  799MOL0     H 5455  10.715   4.922   5.900 -0.0505  1.4368  0.3073
  799MOL0     H 5456  11.044   4.728   5.606  0.7415 -1.6326 -0.4766
  799MOL0     H 5457  11.269   4.641   5.623  2.5521  2.5023 -2.5384
  799MOL0     H 5458  11.656   4.717   5.826 -2.8705 -3.1270 -0.0870
  799MOL0     H 5459  11.560   4.839   5.900 -0.6083 -4.8174  2.4584
  799MOL0     H 5460  11.684   4.834   5.622  0.4658  0.2539  0.1485
  799MOL0     H 5461  11.526   4.919   5.646 -0.1277  3.0582  0.3759
  799MOL0     H 5462  11.634   5.059   5.833  0.5520  2.0053 -0.5152
  799MOL0     H 5463  11.681   5.099   5.668 -0.5368 -1.1639 -0.4614
  799MOL0     H 5464  11.843   4.898   5.839 -1.3458  0.7240  1.2811
  799MOL0     H 5465  11.884   4.971   5.682 -0.0123  3.6438 -1.5834
  799MOL0     H 5466  12.011   5.268   5.937  0.3866 -0.7385  0.2176
  799MOL0     H 5467  11.378   4.944   5.910  0.4638  1.2726 -0.1293
  799MOL0     H 5468  11.165   5.043   5.893  2.6907  0.7383  1.0149
  800MOL0     O 5469   5.572   7.943   2.466  0.3778  1.2014  0.8459
  800MOL0     C 5470   5.639   7.965   2.564  0.2721  0.5829 -0.1298
  800MOL0     O 5471   5.608   7.924   2.693 -0.0999 -0.0018 -0.5751
  800MOL0     C 5472   5.516   7.822   2.705 -0.6088  0.0126  0.0476
  800MOL0     C 5473   5.414   7.834   2.801 -0.3550  0.9207 -0.2622
  800MOL0     C 5474   5.320   7.720   2.806 -1.1312  0.6292 -0.3901
  800MOL0     C 5475   5.323   7.609   2.728 -0.3726 -1.1925  0.6652
  800MOL0     O 5476   5.232   7.506   2.723 -0.8549  0.1657 -0.1581
  800MOL0     C 5477   5.113   7.521   2.808  0.2933  0.4752  0.0545
  800MOL0     C 5478   5.007   7.417   2.762  1.0060 -0.6147  0.9178
  800MOL0     C 5479   4.880   7.392   2.856  0.3696  0.1448 -0.1376
  800MOL0     C 5480   4.814   7.250   2.836  0.4393  0.3698  0.0924
  800MOL0     C 5481   4.738   7.188   2.946  0.6959 -1.4008  0.1848
  800MOL0     C 5482   4.631   7.280   3.010  0.2469  0.3497 -0.9079
  800MOL0     C 5483   4.584   7.193   3.129 -0.3853  0.1393  0.0203
  800MOL0     C 5484   4.470   7.100   3.084 -0.0265 -0.0881  0.3713
  800MOL0     N 5485   4.387   7.068   3.199 -0.0888  0.5821  0.2798
  800MOL0     C 5486   4.292   7.150   3.259  0.2030 -0.3806 -0.7037
  800MOL0     C 5487   4.220   7.066   3.343 -0.0273 -0.7623 -0.4054
  800MOL0     C 5488   4.127   7.118   3.455  0.6363  1.1020  0.9372
  800MOL0     C 5489   4.030   7.012   3.512  0.8644 -0.4269  0.1289
  800MOL0     C 5490   3.890   7.070   3.552 -0.2976  0.7270  0.7713
  800MOL0     C 5491   3.810   6.976   3.616  0.3502  0.6615 -1.2734
  800MOL0     O 5492   3.674   7.021   3.603  0.1965  0.3321 -0.1556
  800MOL0     C 5493   3.586   6.940   3.666  0.3242  0.0209 -0.9794
  800MOL0     C 5494   3.541   6.824   3.612  0.5359 -0.5108  0.4081
  800MOL0     C 5495   3.445   6.751   3.683 -0.7759  0.0769 -0.5397
  800MOL0     C 5496   3.397   6.787   3.805 -0.1180  0.1625 -0.6432
  800MOL0     C 5497   3.291   6.716   3.865 -0.8129  0.6540  0.2057
  800MOL0     O 5498   3.289   6.720   4.006  0.5180  0.1391  0.3186
  800MOL0     C 5499   3.178   6.676   4.075  1.0752 -0.6257 -0.4375
  800MOL0     C 5500   3.197   6.607   4.194 -0.8436  0.3434  0.1655
  800MOL0     C 5501   3.096   6.532   4.252  0.6547 -0.1339 -0.5123
  800MOL0     C 5502   2.966   6.546   4.209  0.2511 -0.0894  0.1019
  800MOL0     O 5503   2.861   6.482   4.274 -0.2695 -1.5250  0.1392
  800MOL0     C 5504   2.870   6.342   4.270 -0.8246 -0.6683 -0.4278
  800MOL0     C 5505   2.776   6.271   4.359  0.7485  0.5017 -0.0520
  800MOL0     C 5506   2.781   6.319   4.513  0.6805  0.1542 -0.0200
  800MOL0     C 5507   2.703   6.218   4.603  0.0619  0.3202  0.0874
  800MOL0     C 5508   2.741   6.227   4.755  0.0757 -0.4113  0.2850
  800MOL0     C 5509   2.702   6.109   4.843  0.8352 -0.5838  0.2232
  800MOL0     C 5510   2.548   6.077   4.840  0.8291 -0.7233  0.0776
  800MOL0     C 5511   2.535   5.939   4.901  0.2151 -0.2687  0.0899
  800MOL0    Cl 5512   2.626   5.921   5.055 -0.1662 -0.0456 -0.2915
  800MOL0     C 5513   2.941   6.634   4.109 -0.5174 -0.1610  0.1512
  800MOL0     C 5514   3.049   6.696   4.043  0.5642  0.3039 -0.2596
  800MOL0     O 5515   3.208   6.661   3.790 -0.3745 -0.4730 -0.0654
  800MOL0     C 5516   3.445   6.899   3.869  0.2053 -0.1264 -0.9027
  800MOL0     C 5517   3.537   6.980   3.789  0.0547 -0.1435  0.0419
  800MOL0     N 5518   4.284   6.938   3.336  0.3968  0.3649  0.1344
  800MOL0     N 5519   4.373   6.941   3.242 -0.4523  0.5822  0.0898
  800MOL0     C 5520   5.419   7.616   2.628 -0.2682  0.2206  0.5762
  800MOL0     C 5521   5.518   7.710   2.617  0.9678 -0.6322  0.2673
  800MOL0     C 5522   5.753   8.048   2.535  0.0035 -0.5002  0.2844
  800MOL0     C 5523   5.846   8.095   2.631  0.6036 -0.1153 -0.5835
  800MOL0     C 5524   5.942   8.188   2.605  0.0336 -0.2877  0.0922
  800MOL0     C 5525   5.949   8.254   2.478 -0.0004 -0.5270  0.2290
  800MOL0     O 5526   6.050   8.338   2.451  0.5071 -0.3119  0.1890
  800MOL0     C 5527   6.093   8.358   2.312  0.3749 -0.0338 -0.1960
  800MOL0     C 5528   6.228   8.407   2.324  0.2772 -0.6721  0.2047
  800MOL0     C 5529   6.307   8.404   2.190  0.3680 -0.5855 -0.1671
  800MOL0     C 5530   6.421   8.502   2.174 -0.1303  0.3908  0.8365
  800MOL0     C 5531   6.506   8.473   2.059  1.1717 -0.4406  0.0785
  800MOL0     C 5532   6.588   8.459   1.970 -0.2687  0.6317  0.4777
  800MOL0     C 5533   5.854   8.212   2.378  0.3310 -0.2278  0.0617
  800MOL0     C 5534   5.758   8.115   2.406 -0.1656  0.1609 -0.8667
  800MOL0     H 5535   5.403   7.920   2.867 -1.1509  0.5282  0.1259
  800MOL0     H 5536   5.255   7.715   2.893  0.0233 -1.4343  0.4072
  800MOL0     H 5537   5.072   7.621   2.790  0.9424  1.0412  1.5870
  800MOL0     H 5538   5.127   7.508   2.916 -2.5631 -0.1594  0.4201
  800MOL0     H 5539   5.047   7.320   2.731 -1.3861 -1.9616  1.7960
  800MOL0     H 5540   4.969   7.469   2.673 -1.0867 -1.0890  1.4639
  800MOL0     H 5541   4.798   7.462   2.836 -1.3802 -2.5556 -3.8065
  800MOL0     H 5542   4.919   7.396   2.958 -2.8543 -0.9849  1.2813
  800MOL0     H 5543   4.728   7.264   2.771 -1.1644 -0.6816  1.8665
  800MOL0     H 5544   4.894   7.183   2.803  0.0580 -0.0075 -0.0784
  800MOL0     H 5545   4.819   7.156   3.011  2.6156 -3.3119 -2.8812
  800MOL0     H 5546   4.699   7.094   2.905 -0.3976 -1.6849  1.7832
  800MOL0     H 5547   4.554   7.318   2.942  1.9220 -0.2200 -3.2592
  800MOL0     H 5548   4.685   7.357   3.065  0.6804 -1.2273  0.9862
  800MOL0     H 5549   4.663   7.134   3.177 -1.6314 -3.3493 -1.8483
  800MOL0     H 5550   4.553   7.266   3.204 -0.0470 -1.2042  1.5215
  800MOL0     H 5551   4.503   7.005   3.041 -2.5464 -1.0142  0.3386
  800MOL0     H 5552   4.405   7.147   3.010  0.0580  1.5836  1.3215
  800MOL0     H 5553   4.267   7.253   3.234  1.0529  0.3943  1.3828
  800MOL0     H 5554   4.067   7.198   3.411 -0.2363 -0.9392 -1.9016
  800MOL0     H 5555   4.190   7.160   3.533  1.2050  1.4674  0.2926
  800MOL0     H 5556   4.082   6.975   3.601  0.4599  3.9520  2.4822
  800MOL0     H 5557   4.020   6.927   3.445  0.3743 -1.9167  2.0019
  800MOL0     H 5558   3.898   7.161   3.611 -0.3351 -0.2668  2.3805
  800MOL0     H 5559   3.847   7.105   3.458 -1.3313 -1.3038  0.4156
  800MOL0     H 5560   3.840   6.962   3.721 -0.8664  0.9421 -0.8822
  800MOL0     H 5561   3.814   6.877   3.570 -2.7092 -0.6312  0.8995
  800MOL0     H 5562   3.574   6.783   3.518  0.3901 -0.6943  0.4371
  800MOL0     H 5563   3.426   6.652   3.643 -3.2075  0.1628  0.2772
  800MOL0     H 5564   3.297   6.601   4.236 -1.0405 -1.9245  0.4451
  800MOL0     H 5565   3.116   6.473   4.341  1.7968  0.9100 -0.0592
  800MOL0     H 5566   2.972   6.313   4.297 -0.2197  2.7211  1.5928
  800MOL0     H 5567   2.861   6.317   4.164 -0.4811  3.0653 -1.5094
  800MOL0     H 5568   2.797   6.165   4.349 -2.5484 -0.0957 -2.4298
  800MOL0     H 5569   2.673   6.287   4.327  0.8244  0.6515 -0.2241
  800MOL0     H 5570   2.739   6.419   4.523  1.1145  0.1194  2.9899
  800MOL0     H 5571   2.881   6.327   4.557 -0.1859 -2.1073  2.6194
  800MOL0     H 5572   2.597   6.232   4.579  0.3135  0.9200 -0.7274
  800MOL0     H 5573   2.735   6.118   4.572  0.3058 -0.2161  1.9724
  800MOL0     H 5574   2.704   6.315   4.808 -2.5090 -1.7781  0.9155
  800MOL0     H 5575   2.850   6.232   4.760  0.4052 -1.6435 -3.0882
  800MOL0     H 5576   2.729   6.137   4.945  0.9166 -0.5562  0.1939
  800MOL0     H 5577   2.764   6.022   4.822 -1.1385 -1.2619 -3.7943
  800MOL0     H 5578   2.497   6.150   4.903  3.5638  0.9016  0.5855
  800MOL0     H 5579   2.493   6.083   4.746 -2.0847  4.1342  1.6893
  800MOL0     H 5580   2.586   5.872   4.831 -0.6873 -0.6186 -0.2473
  800MOL0     H 5581   2.431   5.908   4.918  0.3322 -0.0833  1.1971
  800MOL0     H 5582   2.841   6.642   4.068 -0.3261  1.0575 -0.0988
  800MOL0     H 5583   3.034   6.757   3.954  1.8586 -1.2245 -1.5949
  800MOL0     H 5584   3.414   6.930   3.968 -0.9337 -0.1282 -1.2355
  800MOL0     H 5585   3.576   7.072   3.831 -1.7247 -0.6405  3.0236
  800MOL0     H 5586   5.411   7.543   2.548 -1.6261 -1.1895  1.9333
  800MOL0     H 5587   5.596   7.701   2.542  0.3549 -0.5757 -0.3877
  800MOL0     H 5588   5.841   8.044   2.727 -0.0730  1.0196  0.0219
  800MOL0     H 5589   6.017   8.203   2.682  2.2486 -2.0251 -1.5716
  800MOL0     H 5590   6.041   8.436   2.256 -0.1947 -1.4821 -1.8032
  800MOL0     H 5591   6.085   8.264   2.257 -4.5299  0.4419 -0.7939
  800MOL0     H 5592   6.229   8.502   2.379  3.2840 -0.4375 -0.0621
  800MOL0     H 5593   6.285   8.338   2.387  0.9249  1.6547  2.3337
  800MOL0     H 5594   6.243   8.422   2.103 -0.1057  1.7172  0.6080
  800MOL0     H 5595   6.343   8.301   2.180  0.3068 -0.6713  0.4582
  800MOL0     H 5596   6.376   8.597   2.141 -3.4189 -1.4737 -0.5635
  800MOL0     H 5597   6.460   8.516   2.276 -1.0723  0.4496  1.1977
  800MOL0     H 5598   6.653   8.437   1.889 -0.3567 -2.5415  1.1292
  800MOL0     H 5599   5.848   8.258   2.279 -1.6123  0.5882  0.5125
  800MOL0     H 5600   5.688   8.087   2.328 -0.0037  0.5892 -1.1727
  801MOL0     O 5601   5.661   0.036   7.977 -0.4346 -0.1964 -0.8790
  801MOL0     C 5602   5.775   0.040   8.030  0.0834 -1.0704 -0.6696
  801MOL0     O 5603   5.890   0.103   7.977 -0.3829  0.4270  0.5898
  801MOL0     C 5604   5.887   0.183   7.872  0.4201 -0.4870  0.6250
  801MOL0     C 5605   5.787   0.273   7.828  0.3381  0.3517 -0.0710
  801MOL0     C 5606   5.815   0.367   7.726  1.2630  0.9191  0.6856
  801MOL0     C 5607   5.936   0.374   7.665 -0.2884  0.6213  0.9237
  801MOL0     O 5608   5.960   0.457   7.557 -0.0900  0.1082 -0.5384
  801MOL0     C 5609   5.957   0.599   7.588 -0.1285  0.0599 -0.2459
  801MOL0     C 5610   6.087   0.642   7.663 -0.3766  0.2157 -0.0043
  801MOL0     C 5611   6.217   0.633   7.576  0.0263 -0.0537 -0.0914
  801MOL0     C 5612   6.343   0.678   7.651  0.5850 -0.6941 -0.3845
  801MOL0     C 5613   6.469   0.619   7.577  0.8225 -0.8207  0.2646
  801MOL0     C 5614   6.598   0.675   7.627 -0.7731  0.1971  0.0831
  801MOL0     C 5615   6.732   0.633   7.565  0.5309 -0.3060  0.0075
  801MOL0     C 5616   6.849   0.704   7.636 -0.8441  0.2188  0.4849
  801MOL0     N 5617   6.961   0.695   7.537 -0.0541  0.2277 -0.9186
  801MOL0     C 5618   7.019   0.816   7.509 -0.0152 -0.6258 -0.7076
  801MOL0     C 5619   7.139   0.784   7.464 -0.5084  1.3154  0.3409
  801MOL0     C 5620   7.246   0.890   7.439  0.2809  1.3374 -0.2236
  801MOL0     C 5621   7.294   0.947   7.568 -0.3071 -0.7463  0.5481
  801MOL0     C 5622   7.433   1.005   7.551 -0.0490 -0.0751 -0.0454
  801MOL0     C 5623   7.489   1.095   7.663 -0.8114  0.1996  0.0631
  801MOL0     O 5624   7.439   1.237   7.655  0.4163  0.1343 -0.7005
  801MOL0     C 5625   7.322   1.276   7.719  0.6450 -0.3362  0.5196
  801MOL0     C 5626   7.226   1.198   7.791 -0.5609  0.3684 -0.0549
  801MOL0     C 5627   7.109   1.242   7.826  0.4013 -0.1106  0.5224
  801MOL0     C 5628   7.064   1.367   7.798 -0.0481 -0.2978 -0.3886
  801MOL0     C 5629   6.928   1.406   7.842  0.0621 -1.3492 -0.3125
  801MOL0     O 5630   6.906   1.544   7.869  0.0626  0.2172 -0.0208
  801MOL0     C 5631   6.774   1.584   7.879  0.5008  0.3935 -0.3790
  801MOL0     C 5632   6.662   1.539   7.806 -0.6040 -0.5647  1.2274
  801MOL0     C 5633   6.535   1.590   7.833  0.0220 -0.2792 -0.4810
  801MOL0     C 5634   6.519   1.698   7.926  0.0049  0.7509  0.1581
  801MOL0     O 5635   6.388   1.739   7.946 -0.0225 -0.3233  0.0708
  801MOL0     C 5636   6.364   1.836   8.042  0.0958 -0.0595 -1.7395
  801MOL0     C 5637   6.417   1.980   8.013 -0.4895  0.0030 -0.3812
  801MOL0     C 5638   6.408   2.060   8.142 -0.0926  0.0087 -0.1547
  801MOL0     C 5639   6.455   2.213   8.123  0.2485 -0.0981 -0.4782
  801MOL0     C 5640   6.441   2.293   8.251  0.4028  0.5247 -0.0240
  801MOL0     C 5641   6.528   2.230   8.357  0.5493  0.5089 -0.5370
  801MOL0     C 5642   6.524   2.305   8.493 -0.0459  0.2104 -0.4242
  801MOL0     C 5643   6.634   2.254   8.593  0.5459 -0.0561  0.1691
  801MOL0    Cl 5644   6.791   2.258   8.531  0.2991 -0.1175 -0.2763
  801MOL0     C 5645   6.637   1.744   7.996 -0.2929 -0.5287 -0.5641
  801MOL0     C 5646   6.757   1.679   7.976 -0.2706  0.7242  0.4270
  801MOL0     O 5647   6.846   1.318   7.858  0.2939 -0.3433  0.0808
  801MOL0     C 5648   7.157   1.456   7.747 -1.6067  0.6602 -0.6704
  801MOL0     C 5649   7.287   1.415   7.706 -0.4106 -0.3474 -0.8219
  801MOL0     N 5650   7.156   0.644   7.477  0.9403 -0.0636  0.2373
  801MOL0     N 5651   7.050   0.591   7.521 -0.0904  0.4769 -0.2548
  801MOL0     C 5652   6.036   0.284   7.696 -0.4482  0.4174  0.2687
  801MOL0     C 5653   6.008   0.193   7.805 -0.8085 -0.0126 -0.5120
  801MOL0     C 5654   5.787  -0.030   8.158 -0.0753 -0.4777 -0.7455
  801MOL0     C 5655   5.908  -0.026   8.229  0.2058 -1.0896 -1.3262
  801MOL0     C 5656   5.915  -0.092   8.354 -0.4705  0.1807  0.7070
  801MOL0     C 5657   5.811  -0.174   8.396 -0.2655 -0.4061 -0.3437
  801MOL0     O 5658   5.826  -0.255   8.505 -0.0077  0.3946 -0.3561
  801MOL0     C 5659   5.721  -0.322   8.572  0.0476 -0.3456  0.4520
  801MOL0     C 5660   5.790  -0.373   8.698 -0.6972 -0.3146 -0.6301
  801MOL0     C 5661   5.692  -0.404   8.795  0.7623  0.3819  0.0208
  801MOL0     C 5662   5.751  -0.479   8.917 -0.1547 -0.2040 -0.3794
  801MOL0     C 5663   5.837  -0.390   9.001  0.7274 -1.1857 -0.9151
  801MOL0     C 5664   5.901  -0.323   9.090  0.3003  0.1404 -0.2187
  801MOL0     C 5665   5.695  -0.174   8.321 -0.3852 -0.1895  0.2421
  801MOL0     C 5666   5.675  -0.101   8.206  0.3380 -0.1027 -0.4169
  801MOL0     H 5667   5.693   0.279   7.882  0.8393  0.7934  0.7898
  801MOL0     H 5668   5.735   0.435   7.698  2.7331  2.1753 -0.7508
  801MOL0     H 5669   5.871   0.618   7.653  1.7264 -0.6719  2.6009
  801MOL0     H 5670   5.956   0.657   7.495 -0.8876 -2.3811 -1.8612
  801MOL0     H 5671   6.101   0.575   7.749  0.2658  0.1621 -0.1401
  801MOL0     H 5672   6.085   0.748   7.692  2.6695  1.0259 -2.2232
  801MOL0     H 5673   6.192   0.678   7.480 -2.5584 -4.3243 -1.7032
  801MOL0     H 5674   6.234   0.527   7.555 -1.6382 -0.3923  0.1174
  801MOL0     H 5675   6.368   0.785   7.649  4.9176 -1.5339  0.1025
  801MOL0     H 5676   6.338   0.651   7.757  1.3283 -1.4253 -0.5266
  801MOL0     H 5677   6.457   0.642   7.471 -1.2195 -1.6662  0.2570
  801MOL0     H 5678   6.470   0.509   7.574  0.9287 -0.8083 -0.4457
  801MOL0     H 5679   6.604   0.669   7.736  5.0948 -0.3291  0.0477
  801MOL0     H 5680   6.611   0.783   7.619  3.0495  0.2718  3.7936
  801MOL0     H 5681   6.735   0.524   7.567  3.1399 -0.3210 -0.7399
  801MOL0     H 5682   6.728   0.676   7.464 -0.9244  1.7930  0.8924
  801MOL0     H 5683   6.866   0.656   7.733  1.8905  1.6355  0.7937
  801MOL0     H 5684   6.832   0.811   7.653  1.8449  0.6754  0.8187
  801MOL0     H 5685   6.974   0.914   7.509 -1.0269 -0.9875 -3.8740
  801MOL0     H 5686   7.204   0.971   7.379 -1.1586  0.9446  0.2174
  801MOL0     H 5687   7.327   0.850   7.376  0.0091  2.9286 -1.6666
  801MOL0     H 5688   7.296   0.885   7.659  0.9321  0.2805  1.2629
  801MOL0     H 5689   7.226   1.032   7.579 -0.0528 -0.2789 -1.1566
  801MOL0     H 5690   7.509   0.929   7.533 -2.4345 -2.1052 -2.3486
  801MOL0     H 5691   7.434   1.077   7.468 -0.1574 -0.4382 -0.3618
  801MOL0     H 5692   7.597   1.083   7.678 -0.2894  2.5489 -1.3614
  801MOL0     H 5693   7.457   1.063   7.763 -0.5561 -1.0903 -0.2525
  801MOL0     H 5694   7.242   1.092   7.806 -0.8129 -0.0207 -2.1503
  801MOL0     H 5695   7.038   1.180   7.880  0.4797  0.1124  0.8897
  801MOL0     H 5696   6.662   1.467   7.724  1.4809 -0.1801  0.8337
  801MOL0     H 5697   6.442   1.559   7.785 -1.0647  3.3023 -0.9457
  801MOL0     H 5698   6.410   1.803   8.136  0.9132 -2.7771 -2.9816
  801MOL0     H 5699   6.259   1.840   8.074  0.7703 -0.2578  0.7259
  801MOL0     H 5700   6.361   2.028   7.933  1.3979  2.2357 -0.4852
  801MOL0     H 5701   6.524   1.980   7.990 -0.4785  1.4710 -0.4235
  801MOL0     H 5702   6.493   2.025   8.200  1.1491  1.9382 -0.7160
  801MOL0     H 5703   6.306   2.045   8.178  0.3805 -0.3334  1.1081
  801MOL0     H 5704   6.561   2.215   8.099  0.3828 -0.9857  0.0074
  801MOL0     H 5705   6.399   2.249   8.036  0.5890 -2.9877 -2.0132
  801MOL0     H 5706   6.335   2.284   8.278  0.2839 -3.4298 -1.1219
  801MOL0     H 5707   6.480   2.394   8.240  2.4355  0.3149  3.6713
  801MOL0     H 5708   6.629   2.210   8.319 -0.2331 -1.8144 -1.5331
  801MOL0     H 5709   6.490   2.130   8.375  0.0992  0.9358  1.0283
  801MOL0     H 5710   6.566   2.404   8.471 -1.1976  0.8716  0.2814
  801MOL0     H 5711   6.425   2.317   8.536  0.7905  2.2829  1.1102
  801MOL0     H 5712   6.598   2.155   8.621 -0.2865 -0.0275 -0.7180
  801MOL0     H 5713   6.634   2.314   8.684  2.9444  0.5272 -0.1537
  801MOL0     H 5714   6.637   1.820   8.073  0.0858  0.6451 -1.6814
  801MOL0     H 5715   6.847   1.703   8.032  0.2538 -2.7294  1.2573
  801MOL0     H 5716   7.133   1.561   7.739 -1.5449  0.7892  0.6837
  801MOL0     H 5717   7.346   1.500   7.674  0.0251  0.7852  2.5456
  801MOL0     H 5718   6.124   0.291   7.633 -3.1023  0.7818 -3.8055
  801MOL0     H 5719   6.085   0.122   7.834  0.8977  1.9556  0.0301
  801MOL0     H 5720   5.989   0.041   8.206 -0.4453  0.0130 -0.5017
  801MOL0     H 5721   6.005  -0.085   8.415 -1.4810  0.1701  2.2765
  801MOL0     H 5722   5.669  -0.399   8.514 -0.0412 -0.3296  0.5101
  801MOL0     H 5723   5.639  -0.253   8.597 -1.0282 -0.7831 -1.6872
  801MOL0     H 5724   5.843  -0.465   8.671 -0.8638 -0.5024 -0.3190
  801MOL0     H 5725   5.863  -0.308   8.746 -1.8063 -0.9251  2.0519
  801MOL0     H 5726   5.625  -0.471   8.740  1.8635 -0.8369  0.0885
  801MOL0     H 5727   5.624  -0.326   8.829 -0.9343 -1.4168  1.0274
  801MOL0     H 5728   5.677  -0.535   8.975 -1.0831 -1.8745 -2.9800
  801MOL0     H 5729   5.810  -0.567   8.888 -1.8493 -1.4499 -0.1610
  801MOL0     H 5730   5.958  -0.267   9.161 -1.0588  0.2449  0.8421
  801MOL0     H 5731   5.609  -0.217   8.371  0.3746 -2.5496 -0.3368
  801MOL0     H 5732   5.573  -0.084   8.172 -0.8942 -0.7296  2.6168
  802MOL0     O 5733   9.703   7.050   1.956 -0.2960 -0.3059  0.5107
  802MOL0     C 5734   9.720   7.059   2.079  0.3575 -0.1018 -0.4191
  802MOL0     O 5735   9.630   7.117   2.168 -0.2798 -0.0866 -0.0307
  802MOL0     C 5736   9.500   7.148   2.122 -0.0082  0.2549  0.0422
  802MOL0     C 5737   9.460   7.278   2.155  0.2896 -0.8639  0.2176
  802MOL0     C 5738   9.336   7.326   2.119 -0.2762  0.5481  0.1468
  802MOL0     C 5739   9.259   7.248   2.030 -0.7869  0.5392  0.4674
  802MOL0     O 5740   9.144   7.277   1.959  0.1440 -0.9603 -0.1512
  802MOL0     C 5741   9.168   7.400   1.887  0.5441  0.2498 -0.8166
  802MOL0     C 5742   9.065   7.416   1.775 -1.0031  0.0445  0.2252
  802MOL0     C 5743   8.918   7.397   1.796 -0.3043 -0.6494 -0.3107
  802MOL0     C 5744   8.857   7.502   1.884  1.0454 -0.1132 -0.4419
  802MOL0     C 5745   8.715   7.457   1.928 -0.0156 -0.1833 -0.6053
  802MOL0     C 5746   8.639   7.568   1.994  0.5144  0.2059 -0.5619
  802MOL0     C 5747   8.505   7.530   2.061  0.2881 -0.0209 -0.1448
  802MOL0     C 5748   8.439   7.646   2.126 -0.4998  1.3237  0.0816
  802MOL0     N 5749   8.315   7.604   2.192  0.6038 -1.0090 -0.4250
  802MOL0     C 5750   8.202   7.578   2.123 -0.3551  0.6341 -0.7250
  802MOL0     C 5751   8.118   7.516   2.209  0.3819  0.4841 -0.6616
  802MOL0     C 5752   7.977   7.486   2.188  1.0169  0.2234 -0.4914
  802MOL0     C 5753   7.887   7.603   2.225 -1.1612 -0.5230 -0.0614
  802MOL0     C 5754   7.741   7.583   2.190  1.0807  0.2793  0.1300
  802MOL0     C 5755   7.667   7.480   2.276 -0.5316  0.7377  0.1721
  802MOL0     O 5756   7.527   7.499   2.255  0.0616  0.9432 -0.0663
  802MOL0     C 5757   7.444   7.413   2.318  0.3163 -0.0647  0.2750
  802MOL0     C 5758   7.319   7.460   2.345 -0.1192  0.1761  0.4005
  802MOL0     C 5759   7.227   7.379   2.407  0.0036 -0.2585 -0.5299
  802MOL0     C 5760   7.264   7.254   2.452  0.6755 -0.6462 -0.3123
  802MOL0     C 5761   7.175   7.161   2.532 -0.2448  0.3425  0.1833
  802MOL0     O 5762   7.204   7.033   2.556  0.3206  0.5375 -0.0036
  802MOL0     C 5763   7.131   6.956   2.644  0.9568  0.5520  0.5123
  802MOL0     C 5764   7.123   6.971   2.790 -0.1052 -0.9020 -0.3403
  802MOL0     C 5765   7.032   6.886   2.866 -0.7099  0.2941 -0.0441
  802MOL0     C 5766   6.959   6.784   2.805  0.6586 -0.4663  0.6349
  802MOL0     O 5767   6.863   6.706   2.864  0.0724  1.1573 -0.3990
  802MOL0     C 5768   6.780   6.777   2.956 -0.0377 -0.4212 -0.1726
  802MOL0     C 5769   6.651   6.699   2.962 -0.4989  0.1433  0.3723
  802MOL0     C 5770   6.593   6.705   2.820 -0.1834 -1.1308  0.3026
  802MOL0     C 5771   6.468   6.614   2.822 -0.2385 -0.0946 -0.2194
  802MOL0     C 5772   6.405   6.621   2.680 -0.9625  0.7476 -1.0765
  802MOL0     C 5773   6.284   6.542   2.664 -0.1475  0.3387 -0.2229
  802MOL0     C 5774   6.166   6.606   2.741 -0.4238 -0.0064  0.5416
  802MOL0     C 5775   6.036   6.531   2.715  0.1102  0.6219  0.3884
  802MOL0    Cl 5776   6.014   6.416   2.851  0.1748  0.3646  0.1178
  802MOL0     C 5777   6.980   6.764   2.667  0.1021  0.7237 -0.1431
  802MOL0     C 5778   7.062   6.850   2.586 -0.3389  1.1940 -0.5997
  802MOL0     O 5779   7.081   7.224   2.584  0.4089  0.6130  0.3932
  802MOL0     C 5780   7.385   7.205   2.425 -0.6015  0.0449  0.2395
  802MOL0     C 5781   7.477   7.285   2.359  0.4080 -0.1001 -0.2144
  802MOL0     N 5782   8.194   7.482   2.322 -0.0227  0.2706  0.1890
  802MOL0     N 5783   8.310   7.528   2.304 -0.3596 -0.5096 -0.1851
  802MOL0     C 5784   9.304   7.120   1.992 -0.0674  0.1167 -0.2947
  802MOL0     C 5785   9.425   7.066   2.042 -0.6479  0.2623 -0.1933
  802MOL0     C 5786   9.861   7.040   2.131 -0.1495 -0.3400 -0.6367
  802MOL0     C 5787   9.912   7.085   2.256  0.2502 -0.4489 -0.7229
  802MOL0     C 5788  10.038   7.047   2.299 -0.6563 -0.0712  0.8685
  802MOL0     C 5789  10.125   6.980   2.214  0.7849 -1.3272 -0.5277
  802MOL0     O 5790  10.251   6.960   2.260  0.2807  0.3320  0.0087
  802MOL0     C 5791  10.313   6.834   2.229  0.9892  0.2216 -1.0842
  802MOL0     C 5792  10.226   6.712   2.287  0.0592 -0.1410 -0.7224
  802MOL0     C 5793  10.307   6.602   2.357  0.6405  0.7691  0.5696
  802MOL0     C 5794  10.224   6.477   2.400 -0.1186  0.0811  0.3234
  802MOL0     C 5795  10.143   6.421   2.294  0.8219  0.4092 -0.0772
  802MOL0     C 5796  10.070   6.388   2.206 -0.0504 -0.2899 -0.4397
  802MOL0     C 5797  10.076   6.929   2.100  0.0902 -0.2758  0.3501
  802MOL0     C 5798   9.950   6.962   2.056  0.5229  0.5116  0.9742
  802MOL0     H 5799   9.520   7.328   2.231  0.5234 -0.3086 -0.3181
  802MOL0     H 5800   9.306   7.414   2.175  1.8562  1.1942  0.3790
  802MOL0     H 5801   9.264   7.415   1.837  0.5649 -0.3525 -0.9606
  802MOL0     H 5802   9.166   7.480   1.962  0.3323 -0.5949  0.0959
  802MOL0     H 5803   9.095   7.356   1.689 -1.2409 -0.7506  0.6904
  802MOL0     H 5804   9.080   7.514   1.730  1.9674 -0.7950 -0.8067
  802MOL0     H 5805   8.908   7.295   1.834  1.0518 -1.7897 -2.7482
  802MOL0     H 5806   8.863   7.403   1.701 -1.1074 -0.5620  0.1523
  802MOL0     H 5807   8.912   7.521   1.977  0.1029 -1.8680  0.5112
  802MOL0     H 5808   8.834   7.590   1.823  1.3172 -0.7574 -1.5019
  802MOL0     H 5809   8.717   7.385   2.011 -0.7593  1.7548  1.1632
  802MOL0     H 5810   8.669   7.421   1.835 -0.0266 -0.3701 -0.5285
  802MOL0     H 5811   8.627   7.633   1.907  3.6717 -1.2891 -2.2800
  802MOL0     H 5812   8.704   7.610   2.072 -1.5161 -0.8030  1.8229
  802MOL0     H 5813   8.447   7.497   1.974  2.3385  0.4223 -1.7392
  802MOL0     H 5814   8.507   7.456   2.141  0.0650 -0.6183 -0.6809
  802MOL0     H 5815   8.415   7.723   2.051  1.7281  0.6322 -1.4471
  802MOL0     H 5816   8.506   7.679   2.205 -1.5973  1.0276  1.1722
  802MOL0     H 5817   8.171   7.612   2.025  1.5065  0.5425 -1.3821
  802MOL0     H 5818   7.969   7.388   2.238  3.7760  0.9240  1.5988
  802MOL0     H 5819   7.962   7.469   2.081 -2.7669 -1.0438  0.0902
  802MOL0     H 5820   7.911   7.681   2.153 -0.5578  0.0032  0.6951
  802MOL0     H 5821   7.903   7.641   2.326 -0.7127  4.1140 -1.6272
  802MOL0     H 5822   7.694   7.682   2.195 -1.2233 -0.5494 -2.5950
  802MOL0     H 5823   7.739   7.553   2.085  2.6690 -0.8979  0.4054
  802MOL0     H 5824   7.683   7.484   2.384  1.0989  0.3529 -0.0343
  802MOL0     H 5825   7.701   7.380   2.252 -4.4988 -1.2282  1.7176
  802MOL0     H 5826   7.295   7.560   2.311  1.6215 -0.0497 -1.7499
  802MOL0     H 5827   7.127   7.413   2.434 -0.0403 -1.2133  0.5981
  802MOL0     H 5828   7.165   7.042   2.860 -0.7828 -2.6355  1.9542
  802MOL0     H 5829   7.022   6.906   2.972 -2.3996 -0.2796 -0.0677
  802MOL0     H 5830   6.748   6.877   2.928 -0.1813 -0.8394 -1.5828
  802MOL0     H 5831   6.831   6.767   3.053  0.3597 -0.9797 -0.4328
  802MOL0     H 5832   6.583   6.751   3.030 -1.0690  0.6928 -0.5943
  802MOL0     H 5833   6.667   6.598   2.999 -0.8874 -0.5831 -1.3378
  802MOL0     H 5834   6.660   6.668   2.742 -3.0273 -3.0561 -1.4508
  802MOL0     H 5835   6.577   6.811   2.802  2.9962 -0.4709  0.8575
  802MOL0     H 5836   6.488   6.513   2.859 -1.9040  0.5486  2.7846
  802MOL0     H 5837   6.407   6.649   2.905  1.6452 -0.3993  1.3785
  802MOL0     H 5838   6.473   6.579   2.605  0.0054 -0.3994  0.3824
  802MOL0     H 5839   6.388   6.723   2.645 -2.4019  0.3078 -1.7339
  802MOL0     H 5840   6.294   6.436   2.687 -0.4243  0.1020 -1.1677
  802MOL0     H 5841   6.260   6.554   2.558  2.0536 -3.3970 -1.3051
  802MOL0     H 5842   6.198   6.610   2.845  0.3394 -1.3464  0.3796
  802MOL0     H 5843   6.146   6.710   2.712 -1.6561 -0.3256  0.1817
  802MOL0     H 5844   6.026   6.479   2.619 -1.7077 -2.4286  2.0625
  802MOL0     H 5845   5.954   6.604   2.716 -0.2322  0.2595 -0.2709
  802MOL0     H 5846   6.917   6.693   2.614  1.8198 -3.2703  2.5935
  802MOL0     H 5847   7.073   6.836   2.479 -0.9826 -1.8476 -0.3602
  802MOL0     H 5848   7.423   7.104   2.436 -0.0669  0.3020  0.7655
  802MOL0     H 5849   7.571   7.240   2.330  0.6731  0.5774 -0.4299
  802MOL0     H 5850   9.244   7.055   1.930 -0.7119  0.3125  0.1142
  802MOL0     H 5851   9.463   6.972   2.003  2.8251  1.7147 -0.6556
  802MOL0     H 5852   9.855   7.151   2.321 -0.2005 -0.1011 -1.4526
  802MOL0     H 5853  10.071   7.088   2.395 -1.2176  2.9952 -0.1227
  802MOL0     H 5854  10.413   6.826   2.273  1.3312 -1.4994 -2.0521
  802MOL0     H 5855  10.318   6.810   2.123  0.6112 -1.1854 -0.8150
  802MOL0     H 5856  10.149   6.749   2.356  1.2855  0.4675  0.3839
  802MOL0     H 5857  10.185   6.667   2.196 -1.6094  3.1325 -1.7561
  802MOL0     H 5858  10.360   6.632   2.448  0.1138  1.2748  0.7151
  802MOL0     H 5859  10.391   6.565   2.298  1.3345 -0.7487  2.3894
  802MOL0     H 5860  10.292   6.398   2.431 -1.1304 -0.3320  1.5896
  802MOL0     H 5861  10.161   6.497   2.487  0.9028 -2.5268  1.7797
  802MOL0     H 5862  10.001   6.358   2.130  0.4333 -1.5329 -0.4138
  802MOL0     H 5863  10.134   6.870   2.029 -0.0481 -0.4371  0.3710
  802MOL0     H 5864   9.913   6.912   1.967 -0.4952 -0.7581  2.0603
  803MOL0     O 5865   4.987   4.513  10.343 -0.1184  0.6551 -0.4863
  803MOL0     C 5866   4.941   4.400  10.369 -0.0503 -0.5426  0.7257
  803MOL0     O 5867   4.856   4.333  10.276 -0.2069  0.4833  0.1368
  803MOL0     C 5868   4.780   4.403  10.192  1.0085  0.0797 -0.3072
  803MOL0     C 5869   4.793   4.367  10.052 -0.7695  0.4121  0.6325
  803MOL0     C 5870   4.698   4.409   9.963 -0.6005 -0.7687  0.2057
  803MOL0     C 5871   4.609   4.518  10.001 -0.1100  0.4503  0.2644
  803MOL0     O 5872   4.521   4.570   9.910 -0.7134 -0.4666  0.2771
  803MOL0     C 5873   4.564   4.572   9.769  0.0315 -0.7603  0.4316
  803MOL0     C 5874   4.503   4.694   9.701 -0.6776  0.0484 -0.1002
  803MOL0     C 5875   4.351   4.694   9.689  0.5041  0.1205 -0.6802
  803MOL0     C 5876   4.272   4.594   9.601  0.1591  1.2238  0.0114
  803MOL0     C 5877   4.115   4.614   9.622  0.4744 -0.7619  0.4136
  803MOL0     C 5878   4.034   4.491   9.578 -0.1985 -0.3928  0.0965
  803MOL0     C 5879   3.886   4.493   9.622  0.4334  0.2217  0.1748
  803MOL0     C 5880   3.800   4.368   9.613 -0.9417  0.1304  1.0392
  803MOL0     N 5881   3.670   4.388   9.677  0.4573  0.6811  0.1831
  803MOL0     C 5882   3.660   4.421   9.813 -0.0653  0.1213  0.5109
  803MOL0     C 5883   3.526   4.396   9.831 -0.2863  0.6383  0.2735
  803MOL0     C 5884   3.459   4.406   9.968 -0.1291 -0.2985  0.5248
  803MOL0     C 5885   3.304   4.421   9.963  1.2585 -0.7484 -0.5002
  803MOL0     C 5886   3.249   4.564   9.940  0.4615  0.0997 -0.2094
  803MOL0     C 5887   3.102   4.562   9.925 -0.3954  0.2522 -0.1173
  803MOL0     O 5888   3.053   4.692   9.887  0.9271 -0.1931  0.1222
  803MOL0     C 5889   2.922   4.711   9.847 -1.0380 -0.3214  0.3172
  803MOL0     C 5890   2.832   4.605   9.860  0.0624 -0.7746 -0.3759
  803MOL0     C 5891   2.703   4.621   9.809 -0.0731  0.4803  0.3820
  803MOL0     C 5892   2.663   4.735   9.737 -0.2923 -0.5103  1.1524
  803MOL0     C 5893   2.529   4.754   9.685 -0.0391 -0.8511  0.3115
  803MOL0     O 5894   2.522   4.860   9.598 -0.1845  0.3023 -0.6630
  803MOL0     C 5895   2.413   4.875   9.517 -0.1290 -0.3020  0.1670
  803MOL0     C 5896   2.280   4.850   9.549 -0.2279  0.3047  0.8687
  803MOL0     C 5897   2.177   4.886   9.467 -0.6342 -0.3430 -0.2269
  803MOL0     C 5898   2.201   4.954   9.351  0.5014 -1.0519  1.2209
  803MOL0     O 5899   2.100   5.006   9.267  0.2332 -0.0318 -0.4112
  803MOL0     C 5900   2.004   5.088   9.341 -0.0402 -0.2608 -0.7170
  803MOL0     C 5901   1.875   5.014   9.328 -0.3091 -0.2423 -1.1251
  803MOL0     C 5902   1.760   5.088   9.413  0.2039 -0.1705 -0.1980
  803MOL0     C 5903   1.650   4.995   9.463 -0.0653 -0.0970  0.7190
  803MOL0     C 5904   1.595   4.926   9.333 -0.0028  0.6454  0.0811
  803MOL0     C 5905   1.459   4.855   9.371  0.4413 -0.2098 -0.1061
  803MOL0     C 5906   1.364   4.794   9.271  1.2660  0.4352  0.2835
  803MOL0     C 5907   1.234   4.746   9.341  0.1527  0.1156  0.0499
  803MOL0    Cl 5908   1.252   4.633   9.476  0.2408 -0.1083 -0.5771
  803MOL0     C 5909   2.329   4.982   9.322  1.6212 -0.9876  0.4317
  803MOL0     C 5910   2.435   4.951   9.406  0.5413 -0.1722 -0.2850
  803MOL0     O 5911   2.442   4.666   9.704  0.7804 -0.1712 -0.3158
  803MOL0     C 5912   2.754   4.841   9.736 -0.4519  0.3596  0.9604
  803MOL0     C 5913   2.882   4.825   9.788  0.3351  0.4190 -0.0963
  803MOL0     N 5914   3.465   4.365   9.705 -0.8455 -0.2647 -0.2336
  803MOL0     N 5915   3.556   4.339   9.623  0.5661  0.8406 -0.1605
  803MOL0     C 5916   4.604   4.555  10.132  0.1617 -0.6416 -0.2419
  803MOL0     C 5917   4.689   4.506  10.229  1.0065  0.6048  0.7527
  803MOL0     C 5918   4.988   4.309  10.484 -0.1412 -0.1464  0.0996
  803MOL0     C 5919   5.097   4.349  10.553 -0.0453 -0.1948  0.0650
  803MOL0     C 5920   5.134   4.277  10.670 -0.5581 -0.0835 -0.6404
  803MOL0     C 5921   5.078   4.156  10.698 -0.2500  0.7056 -0.2274
  803MOL0     O 5922   5.102   4.069  10.799 -0.0180 -0.0790  0.5616
  803MOL0     C 5923   5.039   4.090  10.924  0.5046 -0.4102  0.1984
  803MOL0     C 5924   5.146   4.140  11.015  0.8589  0.5603  0.2055
  803MOL0     C 5925   5.262   4.043  11.035  0.1422 -0.2746  0.1294
  803MOL0     C 5926   5.357   4.103  11.140  0.4861 -0.0758  0.6737
  803MOL0     C 5927   5.491   4.057  11.133 -0.5522 -0.0047 -0.7341
  803MOL0     C 5928   5.609   4.021  11.129 -0.5497  0.6114  0.3827
  803MOL0     C 5929   4.989   4.111  10.602  0.5984  0.5805  0.1382
  803MOL0     C 5930   4.934   4.184  10.500  0.0946  0.3260 -0.3761
  803MOL0     H 5931   4.850   4.281  10.018 -1.1262  0.2846  0.3519
  803MOL0     H 5932   4.682   4.378   9.860 -4.5564  3.4076 -0.7354
  803MOL0     H 5933   4.534   4.480   9.717 -1.3556  0.1764 -0.4905
  803MOL0     H 5934   4.672   4.588   9.763  0.0840  1.5869  4.3728
  803MOL0     H 5935   4.530   4.678   9.596 -1.2223  2.4142 -0.6619
  803MOL0     H 5936   4.539   4.789   9.740  2.8548 -1.4097  0.5866
  803MOL0     H 5937   4.329   4.795   9.653 -0.8400 -0.6908 -2.2669
  803MOL0     H 5938   4.311   4.680   9.789  1.0328  0.5725 -0.3971
  803MOL0     H 5939   4.297   4.598   9.494 -0.4281 -0.7669 -0.2419
  803MOL0     H 5940   4.311   4.500   9.642 -1.4910  0.7314  0.5384
  803MOL0     H 5941   4.066   4.701   9.577  0.1293  0.0599  2.2709
  803MOL0     H 5942   4.102   4.628   9.729  1.1949  1.9597  0.2129
  803MOL0     H 5943   4.082   4.404   9.624 -1.1805  0.9450  4.0640
  803MOL0     H 5944   4.051   4.493   9.470  0.7569  3.4843  0.1822
  803MOL0     H 5945   3.889   4.511   9.730 -0.2350  1.0088  0.0775
  803MOL0     H 5946   3.828   4.573   9.576  0.5834  0.5186  0.4962
  803MOL0     H 5947   3.856   4.286   9.658 -3.0868 -1.0422  1.7050
  803MOL0     H 5948   3.790   4.341   9.508  1.7095 -3.4959  1.5145
  803MOL0     H 5949   3.734   4.448   9.887  2.5813 -1.1722 -1.4887
  803MOL0     H 5950   3.488   4.500  10.015 -3.1427  0.1678  1.6744
  803MOL0     H 5951   3.497   4.321  10.026  1.0948  0.5203  0.9599
  803MOL0     H 5952   3.269   4.398  10.064 -3.2190  2.7837 -0.9206
  803MOL0     H 5953   3.245   4.359   9.895 -3.0844  2.2927  0.0192
  803MOL0     H 5954   3.273   4.616  10.034  0.9265 -0.8886  0.2351
  803MOL0     H 5955   3.294   4.612   9.853 -1.3158  2.1610 -0.0760
  803MOL0     H 5956   3.059   4.538  10.023 -1.2333 -0.9756 -0.7602
  803MOL0     H 5957   3.081   4.481   9.854  4.1274 -1.6897  0.4171
  803MOL0     H 5958   2.859   4.505   9.890 -0.1156  0.0134  2.7576
  803MOL0     H 5959   2.633   4.540   9.820 -0.3556  0.5472 -0.7656
  803MOL0     H 5960   2.257   4.811   9.648  0.1928 -1.2126  0.3922
  803MOL0     H 5961   2.078   4.857   9.499 -1.0431  3.5257  2.8775
  803MOL0     H 5962   1.993   5.189   9.299 -2.2309 -0.1684 -0.0318
  803MOL0     H 5963   2.043   5.101   9.443  1.0366  1.0895 -1.2633
  803MOL0     H 5964   1.887   4.912   9.366  0.2315  0.3078  0.2493
  803MOL0     H 5965   1.839   5.003   9.225 -3.7700 -1.5976  0.0724
  803MOL0     H 5966   1.720   5.162   9.343 -1.6983 -1.7403 -0.8583
  803MOL0     H 5967   1.807   5.146   9.493 -1.2293 -0.4228  0.8638
  803MOL0     H 5968   1.694   4.926   9.536  1.5485 -0.3909 -0.4850
  803MOL0     H 5969   1.574   5.060   9.509  0.4134 -1.1579  3.2089
  803MOL0     H 5970   1.663   4.851   9.293  1.2697  1.4032  0.7621
  803MOL0     H 5971   1.586   5.008   9.261  0.3383 -1.7299 -2.8157
  803MOL0     H 5972   1.396   4.927   9.423 -0.2148 -2.5082  2.5325
  803MOL0     H 5973   1.491   4.774   9.438  1.1473 -0.4130 -0.6691
  803MOL0     H 5974   1.346   4.866   9.190 -0.5173 -2.0002 -1.6285
  803MOL0     H 5975   1.414   4.709   9.225  0.4002  0.7412 -1.3230
  803MOL0     H 5976   1.178   4.700   9.259  0.6208  2.2974 -1.6048
  803MOL0     H 5977   1.171   4.827   9.380 -0.7295 -1.0570  1.1576
  803MOL0     H 5978   2.357   5.030   9.228 -0.8854 -1.5902 -0.7041
  803MOL0     H 5979   2.538   4.977   9.381  0.9242  0.0754  1.3863
  803MOL0     H 5980   2.719   4.933   9.689 -0.3181  0.6188  1.3605
  803MOL0     H 5981   2.954   4.903   9.766 -0.3182  1.5576  1.6379
  803MOL0     H 5982   4.544   4.644  10.145  0.8214 -0.2510  0.1888
  803MOL0     H 5983   4.672   4.548  10.328 -0.6950  1.5710  0.0875
  803MOL0     H 5984   5.155   4.438  10.535  3.1855 -1.8529  1.4642
  803MOL0     H 5985   5.218   4.310  10.730  0.1817 -3.7347  0.6069
  803MOL0     H 5986   5.005   3.994  10.965 -4.6669  0.7778 -0.6519
  803MOL0     H 5987   4.956   4.161  10.920  0.5215 -0.2883  1.5217
  803MOL0     H 5988   5.189   4.234  10.978  1.6513 -0.6355 -2.1081
  803MOL0     H 5989   5.094   4.151  11.111  0.7698 -1.9380  0.5190
  803MOL0     H 5990   5.324   4.023  10.947  1.6915  1.0640  0.8650
  803MOL0     H 5991   5.214   3.950  11.067  0.3045  0.8192  4.0435
  803MOL0     H 5992   5.358   4.211  11.122 -1.9587 -0.3113 -1.4592
  803MOL0     H 5993   5.322   4.079  11.241 -1.6789 -1.6404 -0.3627
  803MOL0     H 5994   5.713   4.000  11.147 -0.7910 -1.5725 -0.5174
  803MOL0     H 5995   4.959   4.007  10.613 -0.0488  0.9922  2.8486
  803MOL0     H 5996   4.862   4.154  10.426  0.7140 -1.6951 -0.2304
  804MOL0     O 5997  10.769   6.004   2.441 -0.8095  0.3756  0.4217
  804MOL0     C 5998  10.800   5.898   2.395 -0.5513  0.9571 -0.4102
  804MOL0     O 5999  10.930   5.852   2.380  0.5601 -0.8340 -0.7218
  804MOL0     C 6000  11.040   5.919   2.428  0.1783  0.6595 -0.3260
  804MOL0     C 6001  11.146   5.848   2.492  0.2817  0.1272  0.2599
  804MOL0     C 6002  11.256   5.918   2.532 -0.3927  0.2649 -0.0159
  804MOL0     C 6003  11.261   6.058   2.529 -0.4550 -0.4696  0.1131
  804MOL0     O 6004  11.367   6.142   2.564  0.0312  0.0404  0.2348
  804MOL0     C 6005  11.473   6.090   2.648 -0.4322  0.0492  0.4645
  804MOL0     C 6006  11.604   6.065   2.560 -0.0587  0.2604 -0.9204
  804MOL0     C 6007  11.721   6.012   2.652  0.6477 -0.2144 -0.7182
  804MOL0     C 6008  11.839   5.991   2.554 -0.1964  0.2254 -0.8318
  804MOL0     C 6009  11.953   5.924   2.623  0.6049  0.5077  0.6181
  804MOL0     C 6010  12.004   5.999   2.744 -1.0034  0.6167 -0.3275
  804MOL0     C 6011  12.150   5.964   2.767  0.7579 -0.3641  0.1523
  804MOL0     C 6012  12.180   5.982   2.919  0.0045  0.9396  0.0819
  804MOL0     N 6013  12.327   5.983   2.917 -0.4333 -0.5910 -1.0556
  804MOL0     C 6014  12.415   5.893   2.857  0.5410 -1.1520  0.0832
  804MOL0     C 6015  12.538   5.950   2.871  0.2047  0.7298  0.2078
  804MOL0     C 6016  12.666   5.890   2.816 -0.1057 -1.0499  0.9077
  804MOL0     C 6017  12.732   5.992   2.721 -0.2676  0.4264 -0.0159
  804MOL0     C 6018  12.619   6.053   2.631  0.1725  0.9000 -0.1283
  804MOL0     C 6019  12.691   6.150   2.535  0.5522  0.1983  0.3327
  804MOL0     O 6020  12.756   6.069   2.439  0.5121  1.4140 -0.1374
  804MOL0     C 6021  12.871   6.116   2.384 -0.3202  0.7612  0.2336
  804MOL0     C 6022  12.962   6.022   2.342  1.2497 -0.8425 -0.1379
  804MOL0     C 6023  13.088   6.075   2.295 -0.3652 -0.2776  0.7177
  804MOL0     C 6024  13.125   6.210   2.289  0.3428 -0.0102 -0.0844
  804MOL0     C 6025  13.258   6.266   2.234  0.4444  0.6951 -0.5386
  804MOL0     O 6026  13.353   6.172   2.198 -0.8096 -0.1313  0.0108
  804MOL0     C 6027  13.468   6.198   2.126 -0.0840 -0.4814  0.0136
  804MOL0     C 6028  13.484   6.318   2.046 -0.8577 -0.3477  0.9635
  804MOL0     C 6029  13.602   6.328   1.970  0.1872 -0.2142 -0.0915
  804MOL0     C 6030  13.697   6.220   1.965 -0.2680 -0.8480 -0.3216
  804MOL0     O 6031  13.810   6.240   1.888  0.6443  0.4179 -0.5403
  804MOL0     C 6032  13.935   6.177   1.926 -0.0443 -0.8310  0.7787
  804MOL0     C 6033  14.006   6.266   2.022  0.8398  1.3712  0.1721
  804MOL0     C 6034  14.111   6.352   1.959  0.2271  0.3987 -0.5441
  804MOL0     C 6035  14.194   6.436   2.057 -0.0101  0.2714 -0.8040
  804MOL0     C 6036  14.298   6.501   1.973 -0.3900  0.2048 -0.4512
  804MOL0     C 6037  14.355   6.618   2.048 -0.2685  0.1723  0.0499
  804MOL0     C 6038  14.498   6.648   1.997 -0.6631 -0.4496 -0.0644
  804MOL0     C 6039  14.549   6.784   2.035 -0.1357  0.8685 -0.2329
  804MOL0    Cl 6040  14.438   6.911   1.963 -0.5290 -0.1778 -0.7183
  804MOL0     C 6041  13.671   6.110   2.049  0.1767  0.8012  0.1210
  804MOL0     C 6042  13.566   6.106   2.127  1.1227 -0.3447 -0.0965
  804MOL0     O 6043  13.268   6.387   2.242 -0.6510  0.0614 -0.3401
  804MOL0     C 6044  13.027   6.302   2.339  0.1156  0.4778  0.5974
  804MOL0     C 6045  12.908   6.247   2.379  0.5437 -0.9880 -0.1836
  804MOL0     N 6046  12.525   6.060   2.956 -0.3410 -0.1643  0.5597
  804MOL0     N 6047  12.404   6.077   2.979  0.3269 -0.9844  0.1219
  804MOL0     C 6048  11.156   6.128   2.470 -0.1086 -0.0780  0.6929
  804MOL0     C 6049  11.043   6.057   2.414 -0.4827  0.3596  0.6357
  804MOL0     C 6050  10.686   5.807   2.367 -0.5351 -0.0988 -0.3591
  804MOL0     C 6051  10.556   5.859   2.378  0.4875  0.9384 -0.7024
  804MOL0     C 6052  10.448   5.773   2.354 -1.1183 -0.6484  0.3399
  804MOL0     C 6053  10.476   5.643   2.317  0.9558  0.7589 -0.6994
  804MOL0     O 6054  10.371   5.562   2.280 -0.0227  0.2591  0.5032
  804MOL0     C 6055  10.397   5.423   2.250 -0.1037 -0.1413 -0.5198
  804MOL0     C 6056  10.261   5.349   2.258 -0.0555  0.0539  0.4387
  804MOL0     C 6057  10.275   5.193   2.253 -0.8893 -0.1708 -0.3729
  804MOL0     C 6058  10.289   5.133   2.396  0.5082  0.6368  0.2437
  804MOL0     C 6059  10.434   5.154   2.429  0.5264  1.1871 -1.1758
  804MOL0     C 6060  10.553   5.169   2.471  0.3585 -0.2638 -0.4400
  804MOL0     C 6061  10.603   5.596   2.307 -0.2625 -0.2455  0.7555
  804MOL0     C 6062  10.708   5.676   2.327 -0.5194  0.1962 -1.2355
  804MOL0     H 6063  11.151   5.740   2.499 -0.8116 -0.3192 -3.7561
  804MOL0     H 6064  11.338   5.857   2.569  2.1836  3.7094  0.4452
  804MOL0     H 6065  11.436   6.002   2.702 -1.3373 -0.1036 -0.3789
  804MOL0     H 6066  11.512   6.168   2.715  0.7067  0.0055 -0.1154
  804MOL0     H 6067  11.632   6.154   2.504 -1.9840  1.0572 -0.6721
  804MOL0     H 6068  11.586   5.985   2.487  1.8208  0.4188 -1.5995
  804MOL0     H 6069  11.702   5.920   2.707 -1.3195 -1.1553 -2.8197
  804MOL0     H 6070  11.759   6.091   2.718  3.3167 -1.0990 -1.0777
  804MOL0     H 6071  11.805   5.940   2.463 -1.1883 -0.4680 -0.0886
  804MOL0     H 6072  11.874   6.089   2.521 -0.6770  1.3703  1.7968
  804MOL0     H 6073  12.033   5.928   2.549  0.0989  0.5801  0.0716
  804MOL0     H 6074  11.943   5.818   2.649 -0.6359  0.3127 -0.5270
  804MOL0     H 6075  11.948   5.961   2.830 -0.6478  0.0372 -0.3490
  804MOL0     H 6076  11.999   6.109   2.741  0.1619  0.6805 -0.5635
  804MOL0     H 6077  12.173   5.861   2.738 -0.1011 -0.3215 -0.7586
  804MOL0     H 6078  12.210   6.043   2.720  0.9528 -0.5888  0.0226
  804MOL0     H 6079  12.161   5.891   2.976  1.5538  0.2382 -0.4641
  804MOL0     H 6080  12.147   6.077   2.962  0.6477  0.4238  1.8201
  804MOL0     H 6081  12.381   5.796   2.822 -0.5218 -0.6713 -0.2785
  804MOL0     H 6082  12.643   5.807   2.748 -0.2057 -0.4312  0.1780
  804MOL0     H 6083  12.741   5.861   2.890  2.1233  0.4001 -0.6771
  804MOL0     H 6084  12.810   5.952   2.655  0.7457 -0.0133  1.4071
  804MOL0     H 6085  12.774   6.064   2.792 -2.0698 -1.2763  3.0082
  804MOL0     H 6086  12.566   5.975   2.576 -1.6896 -0.6189  3.4582
  804MOL0     H 6087  12.547   6.108   2.692 -0.2096 -0.1318  0.3659
  804MOL0     H 6088  12.749   6.222   2.593 -1.9685  0.9648  2.0766
  804MOL0     H 6089  12.609   6.204   2.487  0.4588  2.5156  2.8422
  804MOL0     H 6090  12.934   5.918   2.335  3.0370 -1.2567 -1.6235
  804MOL0     H 6091  13.156   6.004   2.247 -4.5899 -3.4304 -1.2534
  804MOL0     H 6092  13.414   6.401   2.042  0.4298  0.7357 -0.0219
  804MOL0     H 6093  13.627   6.412   1.906  0.0427  0.8145  1.1608
  804MOL0     H 6094  13.999   6.167   1.838  0.0980  2.2727  0.4128
  804MOL0     H 6095  13.923   6.083   1.980  0.4086 -0.6377  1.2269
  804MOL0     H 6096  14.066   6.207   2.092  0.7053  1.5185  0.4109
  804MOL0     H 6097  13.935   6.334   2.070 -1.1132 -1.2972  1.3218
  804MOL0     H 6098  14.065   6.421   1.887 -2.0950 -1.1854 -0.6638
  804MOL0     H 6099  14.185   6.292   1.907  0.6835  1.2648 -0.9180
  804MOL0     H 6100  14.133   6.513   2.104 -0.8615  0.1162 -1.6169
  804MOL0     H 6101  14.235   6.367   2.132  0.8740  1.5107 -0.1194
  804MOL0     H 6102  14.260   6.527   1.873  1.1144  0.3432 -1.0010
  804MOL0     H 6103  14.369   6.420   1.958 -2.1025 -1.6179  0.7948
  804MOL0     H 6104  14.370   6.592   2.153  3.4302  0.4478 -0.2793
  804MOL0     H 6105  14.287   6.703   2.036  1.4160  2.0198  2.5937
  804MOL0     H 6106  14.557   6.568   2.042 -1.4929 -1.4167 -0.6455
  804MOL0     H 6107  14.510   6.636   1.889  2.4536  3.6745 -0.4257
  804MOL0     H 6108  14.646   6.796   1.986 -1.0255  0.2521 -2.2873
  804MOL0     H 6109  14.551   6.800   2.143 -0.3504 -2.7236  0.4328
  804MOL0     H 6110  13.738   6.024   2.053 -0.8640 -0.0512 -0.3202
  804MOL0     H 6111  13.543   6.011   2.175  1.0531 -0.6045 -0.6377
  804MOL0     H 6112  13.052   6.408   2.341 -2.7979  1.2628  0.5658
  804MOL0     H 6113  12.834   6.318   2.414  0.8205 -0.6459 -0.2821
  804MOL0     H 6114  11.150   6.236   2.456 -0.6692 -0.1419  0.3608
  804MOL0     H 6115  10.973   6.115   2.355 -0.0919  1.9004  1.5969
  804MOL0     H 6116  10.535   5.960   2.411 -1.5119  0.0375  1.0318
  804MOL0     H 6117  10.346   5.811   2.362 -0.9686  0.0850 -1.0014
  804MOL0     H 6118  10.473   5.387   2.320 -1.7487  0.8926  1.9552
  804MOL0     H 6119  10.431   5.421   2.146 -1.5634  2.6426 -1.1523
  804MOL0     H 6120  10.219   5.377   2.355  1.2517  2.5322  0.3768
  804MOL0     H 6121  10.195   5.383   2.178  1.4865 -0.2260 -1.0202
  804MOL0     H 6122  10.356   5.170   2.183 -2.5795 -2.3247 -1.7794
  804MOL0     H 6123  10.185   5.147   2.211 -0.9773 -1.5861  1.2461
  804MOL0     H 6124  10.217   5.177   2.465  0.7782  2.4319 -0.5839
  804MOL0     H 6125  10.275   5.026   2.376 -2.5267  1.0337 -0.0819
  804MOL0     H 6126  10.653   5.176   2.509  0.6070 -2.2582 -0.6292
  804MOL0     H 6127  10.630   5.499   2.268 -2.8440 -0.8750  0.3651
  804MOL0     H 6128  10.811   5.645   2.311  0.3828  2.8915 -1.2300
  805MOL0     O 6129   1.141   3.405   8.631  0.2870  0.8313 -0.1971
  805MOL0     C 6130   1.112   3.394   8.752 -0.6526  0.0169 -0.8625
  805MOL0     O 6131   0.995   3.424   8.811 -0.0082  0.4620  0.1394
  805MOL0     C 6132   0.898   3.492   8.747  0.5289  1.2890 -0.0264
  805MOL0     C 6133   0.859   3.617   8.796  0.6574 -0.1830  0.4391
  805MOL0     C 6134   0.749   3.688   8.751  0.5312 -0.0749  0.9499
  805MOL0     C 6135   0.692   3.644   8.628 -0.0941  1.5551 -0.3307
  805MOL0     O 6136   0.599   3.718   8.567  0.2924 -0.6070  0.0081
  805MOL0     C 6137   0.540   3.837   8.625  0.7524 -0.2271  0.2515
  805MOL0     C 6138   0.424   3.868   8.530  0.3339 -0.6277 -0.7518
  805MOL0     C 6139   0.300   3.788   8.559  0.2817 -0.7453 -0.3980
  805MOL0     C 6140   0.170   3.844   8.502  0.2224  0.4349 -0.3143
  805MOL0     C 6141   0.175   3.873   8.357  0.5489  0.2069 -0.0678
  805MOL0     C 6142   0.039   3.935   8.302 -0.9638 -0.7437 -0.4432
  805MOL0     C 6143   0.038   3.939   8.153 -0.2272 -0.1165  0.6794
  805MOL0     C 6144   0.015   3.810   8.074 -0.3321  0.4172 -0.3395
  805MOL0     N 6145   0.038   3.854   7.934  0.1565  0.4796  0.0454
  805MOL0     C 6146   0.133   3.815   7.849  0.0051  0.3173 -0.0849
  805MOL0     C 6147   0.105   3.876   7.725  0.2932 -0.6173 -0.4120
  805MOL0     C 6148   0.171   3.867   7.593  0.0403  0.6450  1.0070
  805MOL0     C 6149   0.257   3.989   7.570 -0.0786  0.3633 -0.6304
  805MOL0     C 6150   0.335   3.979   7.438  0.2072 -0.3976 -0.4745
  805MOL0     C 6151   0.391   4.114   7.394 -0.0101  0.6647 -0.5211
  805MOL0     O 6152   0.536   4.130   7.425  0.3015  0.1122 -0.4447
  805MOL0     C 6153   0.586   4.164   7.549 -0.1318  0.1599  0.5882
  805MOL0     C 6154   0.512   4.230   7.646  0.3463 -0.2894  0.6214
  805MOL0     C 6155   0.569   4.276   7.763 -0.2239 -0.9297 -0.3394
  805MOL0     C 6156   0.707   4.254   7.787 -0.0068 -0.2456 -0.2490
  805MOL0     C 6157   0.766   4.302   7.922 -0.0100  0.2544 -0.4189
  805MOL0     O 6158   0.889   4.243   7.951  0.2062 -0.0476  0.4828
  805MOL0     C 6159   0.953   4.273   8.066 -0.5174  0.2459  0.4287
  805MOL0     C 6160   0.962   4.398   8.121  0.1360  0.1267  0.8596
  805MOL0     C 6161   1.041   4.425   8.235  0.2145  0.1604 -0.8923
  805MOL0     C 6162   1.123   4.324   8.292 -0.3069 -0.2430 -0.0311
  805MOL0     O 6163   1.206   4.352   8.397  0.0501 -0.3338  0.3162
  805MOL0     C 6164   1.329   4.281   8.388  0.5826  0.2060  0.7308
  805MOL0     C 6165   1.443   4.366   8.454  0.3023  0.7721  0.7741
  805MOL0     C 6166   1.462   4.487   8.360 -0.4814 -0.4414  0.2361
  805MOL0     C 6167   1.598   4.554   8.378 -0.2278  0.6791  0.2233
  805MOL0     C 6168   1.650   4.630   8.248  0.5283 -0.3677 -0.2204
  805MOL0     C 6169   1.793   4.695   8.272 -0.2418  0.0210  0.3066
  805MOL0     C 6170   1.876   4.750   8.150 -0.2760  0.8151  0.8559
  805MOL0     C 6171   2.028   4.764   8.170  1.3554 -0.3856  0.0674
  805MOL0    Cl 6172   2.100   4.611   8.244 -0.1610 -0.3719 -0.5443
  805MOL0     C 6173   1.107   4.194   8.238 -0.2236 -0.0809  0.7416
  805MOL0     C 6174   1.021   4.173   8.134  0.2652  0.1485  0.0475
  805MOL0     O 6175   0.690   4.362   7.998  0.6594 -0.0566 -0.0464
  805MOL0     C 6176   0.783   4.186   7.687 -0.2591  0.6094  0.9338
  805MOL0     C 6177   0.720   4.137   7.572  0.2737  0.1196  0.1937
  805MOL0     N 6178  -0.009   3.953   7.745  0.6819 -0.7023 -0.9545
  805MOL0     N 6179  -0.042   3.939   7.865  0.8546 -1.0983 -0.4753
  805MOL0     C 6180   0.733   3.519   8.575  0.1352 -0.1558 -0.4327
  805MOL0     C 6181   0.832   3.440   8.639 -0.3123  0.5984  1.0177
  805MOL0     C 6182   1.211   3.343   8.849 -0.1419 -0.4404  0.7333
  805MOL0     C 6183   1.180   3.334   8.983  0.1535  0.4640 -0.5900
  805MOL0     C 6184   1.269   3.269   9.075  0.0294 -0.4127  0.5110
  805MOL0     C 6185   1.397   3.230   9.033 -0.4300  0.1901 -0.5888
  805MOL0     O 6186   1.487   3.174   9.119 -0.8266 -0.4993 -0.1204
  805MOL0     C 6187   1.458   3.167   9.259 -0.3372 -0.1554  0.4499
  805MOL0     C 6188   1.584   3.123   9.339  0.7003 -0.3883  0.4291
  805MOL0     C 6189   1.683   3.233   9.355 -0.3027 -0.0247  0.4436
  805MOL0     C 6190   1.769   3.248   9.231 -0.8795 -0.9764  0.0661
  805MOL0     C 6191   1.911   3.277   9.263  1.0120 -0.4191  0.3898
  805MOL0     C 6192   2.019   3.300   9.313  0.1922 -0.9669  0.1080
  805MOL0     C 6193   1.422   3.229   8.900  0.1095  0.4906  1.2262
  805MOL0     C 6194   1.334   3.287   8.805 -1.2584  0.1108 -0.6904
  805MOL0     H 6195   0.908   3.668   8.878  1.0727  0.0573  0.0473
  805MOL0     H 6196   0.721   3.786   8.787 -2.7746  0.2830 -2.0128
  805MOL0     H 6197   0.596   3.931   8.630 -0.5703  0.5658  0.6824
  805MOL0     H 6198   0.508   3.817   8.728 -3.3655 -0.7528 -0.9322
  805MOL0     H 6199   0.466   3.852   8.431  2.6300 -0.5799  0.1370
  805MOL0     H 6200   0.401   3.975   8.535 -0.4296 -0.7068 -2.0905
  805MOL0     H 6201   0.278   3.798   8.666  0.7443  2.0113 -0.4701
  805MOL0     H 6202   0.306   3.685   8.525 -1.0079 -0.8804 -0.2478
  805MOL0     H 6203   0.090   3.773   8.524  2.7648 -2.1671  1.2709
  805MOL0     H 6204   0.160   3.945   8.544  1.6267  0.1189  0.8481
  805MOL0     H 6205   0.188   3.774   8.312  0.4139 -0.8262  2.0036
  805MOL0     H 6206   0.254   3.942   8.329  1.0831 -0.7508 -0.9950
  805MOL0     H 6207   0.029   4.040   8.330 -0.0254 -1.1112  1.4398
  805MOL0     H 6208  -0.056   3.890   8.331 -0.4841 -0.9421  0.9332
  805MOL0     H 6209  -0.040   4.004   8.113  0.1819  0.1993  0.3817
  805MOL0     H 6210   0.131   3.981   8.113 -1.1011 -0.0583 -1.3675
  805MOL0     H 6211  -0.086   3.768   8.076  0.2410 -1.0228  1.4468
  805MOL0     H 6212   0.091   3.737   8.104  0.0951  0.1742 -1.9146
  805MOL0     H 6213   0.222   3.755   7.867 -1.1880 -1.5484 -0.1816
  805MOL0     H 6214   0.091   3.856   7.518  0.7231 -1.1729  0.4872
  805MOL0     H 6215   0.227   3.773   7.589 -1.4292 -0.2322 -1.0873
  805MOL0     H 6216   0.325   3.998   7.655 -1.5658  0.3690  0.6100
  805MOL0     H 6217   0.189   4.074   7.569 -0.6925  0.2833  5.0020
  805MOL0     H 6218   0.408   3.899   7.452  2.3132  1.9049  3.7555
  805MOL0     H 6219   0.258   3.948   7.366 -2.5650  1.8452  1.3151
  805MOL0     H 6220   0.340   4.194   7.448  1.9413  1.1208  0.7412
  805MOL0     H 6221   0.380   4.124   7.285  2.1048 -0.0555 -0.8528
  805MOL0     H 6222   0.407   4.256   7.630  0.1581  1.9409  4.2016
  805MOL0     H 6223   0.513   4.344   7.825  1.0508  5.0987 -4.9173
  805MOL0     H 6224   0.905   4.479   8.078  0.3202 -1.0092 -1.7244
  805MOL0     H 6225   1.031   4.519   8.288 -3.2585 -0.5497 -0.0093
  805MOL0     H 6226   1.349   4.259   8.283  1.4551  2.6523  0.3311
  805MOL0     H 6227   1.315   4.187   8.444  0.5158  0.1407  0.6056
  805MOL0     H 6228   1.526   4.295   8.455 -1.2697 -1.1640  1.8773
  805MOL0     H 6229   1.405   4.393   8.553  2.5476 -1.0688  2.2594
  805MOL0     H 6230   1.387   4.565   8.378 -1.5379 -1.2685 -0.4528
  805MOL0     H 6231   1.448   4.455   8.256 -0.2473 -1.5362  0.5268
  805MOL0     H 6232   1.590   4.626   8.460 -0.5217  0.6424  0.2283
  805MOL0     H 6233   1.669   4.474   8.401  1.2900  1.5766 -1.0757
  805MOL0     H 6234   1.580   4.711   8.227  1.8391  0.6506 -0.8004
  805MOL0     H 6235   1.650   4.556   8.168  0.6717  1.4386 -1.9604
  805MOL0     H 6236   1.851   4.618   8.324  2.0706  0.2757 -1.7132
  805MOL0     H 6237   1.781   4.782   8.338  0.0416  0.5710 -0.3647
  805MOL0     H 6238   1.861   4.669   8.078  2.2156 -0.0225  1.2066
  805MOL0     H 6239   1.827   4.844   8.124 -0.8382  1.0598  2.6600
  805MOL0     H 6240   2.051   4.851   8.232  0.0187 -0.8895  1.3216
  805MOL0     H 6241   2.064   4.796   8.072 -0.9609  1.4075 -0.2972
  805MOL0     H 6242   1.176   4.116   8.269  1.5753  0.0230 -2.4960
  805MOL0     H 6243   1.012   4.070   8.101 -2.2219 -0.5869  2.5827
  805MOL0     H 6244   0.890   4.168   7.693 -0.2664 -0.2184 -0.8013
  805MOL0     H 6245   0.777   4.096   7.489 -0.7190 -0.3687 -0.2650
  805MOL0     H 6246   0.683   3.478   8.488 -2.5790 -0.0943  0.9725
  805MOL0     H 6247   0.858   3.345   8.595  2.8637  2.3748 -1.3743
  805MOL0     H 6248   1.078   3.360   9.008  0.2903  1.6140 -1.1721
  805MOL0     H 6249   1.234   3.268   9.178  1.7641  1.2356  1.1756
  805MOL0     H 6250   1.381   3.091   9.269  1.3160 -1.8094  1.1493
  805MOL0     H 6251   1.431   3.268   9.294  0.8080  0.8412 -1.3749
  805MOL0     H 6252   1.558   3.094   9.441  0.8358  0.4465  0.7104
  805MOL0     H 6253   1.620   3.036   9.283  3.3108  2.4727 -2.8003
  805MOL0     H 6254   1.755   3.212   9.435 -1.1560 -3.8473  0.4099
  805MOL0     H 6255   1.626   3.325   9.365  0.5546  0.7069 -0.9673
  805MOL0     H 6256   1.766   3.157   9.171 -2.3522 -2.0100  1.6086
  805MOL0     H 6257   1.722   3.326   9.171 -0.4523  1.5875  2.8517
  805MOL0     H 6258   2.117   3.325   9.348  0.3373  1.2615 -1.6768
  805MOL0     H 6259   1.516   3.188   8.864 -1.9135 -0.3680 -4.0964
  805MOL0     H 6260   1.379   3.292   8.706  1.0434  0.0405  0.2842
  806MOL0     O 6261  10.678   4.479   2.336  1.0883  0.1195 -0.5941
  806MOL0     C 6262  10.744   4.472   2.442 -0.4251 -0.5666 -0.8008
  806MOL0     O 6263  10.692   4.452   2.571 -0.1293 -0.3621  0.0365
  806MOL0     C 6264  10.552   4.463   2.580 -0.6263 -0.9169 -0.7345
  806MOL0     C 6265  10.464   4.554   2.515  0.2884  0.1202  0.6076
  806MOL0     C 6266  10.325   4.560   2.544  0.4751  0.7222 -0.0485
  806MOL0     C 6267  10.272   4.501   2.658  0.1215  0.5487 -0.1648
  806MOL0     O 6268  10.141   4.519   2.685  0.1324 -0.6186 -0.0532
  806MOL0     C 6269  10.097   4.481   2.818  0.7782 -0.2780 -0.7479
  806MOL0     C 6270   9.955   4.538   2.854 -0.3654  0.1676 -0.1334
  806MOL0     C 6271   9.908   4.461   2.983 -0.6683 -0.4699  0.7870
  806MOL0     C 6272   9.772   4.498   3.026 -0.3923  0.2012 -0.0452
  806MOL0     C 6273   9.745   4.445   3.167  0.1622 -0.3168  0.3524
  806MOL0     C 6274   9.597   4.461   3.202 -0.3688  0.0301  0.2674
  806MOL0     C 6275   9.547   4.406   3.338  0.8210  0.0766 -0.2971
  806MOL0     C 6276   9.401   4.437   3.361 -0.0163  0.4289  0.3311
  806MOL0     N 6277   9.353   4.366   3.482 -0.0197 -0.8968 -0.0244
  806MOL0     C 6278   9.330   4.231   3.485  0.1128 -0.8449  0.0637
  806MOL0     C 6279   9.279   4.206   3.604 -0.3720  0.2060 -0.7257
  806MOL0     C 6280   9.234   4.064   3.641  1.1770  0.2431 -0.3613
  806MOL0     C 6281   9.081   4.074   3.677  0.0122  0.0824  0.2902
  806MOL0     C 6282   9.054   3.937   3.740  0.1243 -0.0762 -0.4008
  806MOL0     C 6283   8.905   3.912   3.757  0.2776  0.0397  0.2749
  806MOL0     O 6284   8.840   3.928   3.634  0.8120 -0.0612  0.2484
  806MOL0     C 6285   8.713   3.978   3.631 -0.2346 -0.0307 -0.2838
  806MOL0     C 6286   8.671   4.105   3.658  0.1857 -0.1332  0.0826
  806MOL0     C 6287   8.537   4.145   3.641 -0.4762  0.1742  0.5050
  806MOL0     C 6288   8.447   4.048   3.588 -0.0876 -0.5754 -0.2818
  806MOL0     C 6289   8.307   4.090   3.560 -0.0481  0.6481 -0.2148
  806MOL0     O 6290   8.227   3.987   3.530 -0.0010  0.1210  0.1714
  806MOL0     C 6291   8.094   4.015   3.509 -1.2671 -0.1128 -0.1290
  806MOL0     C 6292   8.039   4.102   3.409 -0.8251 -0.1314 -0.4920
  806MOL0     C 6293   7.899   4.098   3.386  1.2514  0.6363  1.1688
  806MOL0     C 6294   7.812   4.004   3.452  0.3437 -0.0824  0.0638
  806MOL0     O 6295   7.687   3.988   3.410 -0.2606 -0.1712 -0.2587
  806MOL0     C 6296   7.598   4.085   3.456 -0.2953 -0.6698  0.6577
  806MOL0     C 6297   7.492   4.115   3.352  0.2246 -0.4191  0.2724
  806MOL0     C 6298   7.376   4.015   3.351 -0.4828  0.4023 -0.3893
  806MOL0     C 6299   7.285   4.050   3.240 -0.4662 -0.4126  0.1483
  806MOL0     C 6300   7.171   3.955   3.198 -0.6375 -0.3470  0.4946
  806MOL0     C 6301   7.084   3.931   3.325  0.9702 -0.0609 -0.1370
  806MOL0     C 6302   6.950   3.868   3.288 -0.5436  0.0402 -0.0309
  806MOL0     C 6303   6.863   3.958   3.205 -0.7026 -0.3594  0.1876
  806MOL0    Cl 6304   6.701   3.889   3.159  0.3641  0.2982  0.0970
  806MOL0     C 6305   7.865   3.916   3.546 -0.2471 -0.4445 -0.4908
  806MOL0     C 6306   8.007   3.925   3.573 -0.3837 -0.3599 -0.4841
  806MOL0     O 6307   8.272   4.203   3.567  0.1894  0.2968  0.7884
  806MOL0     C 6308   8.486   3.910   3.588  0.1882 -0.7837 -0.0111
  806MOL0     C 6309   8.622   3.880   3.612  1.1025  0.4100  0.1514
  806MOL0     N 6310   9.290   4.319   3.686 -0.2928  0.5302 -0.1421
  806MOL0     N 6311   9.332   4.420   3.610  0.1381 -0.0059  0.2848
  806MOL0     C 6312  10.357   4.406   2.720  0.4353  1.0359  0.1462
  806MOL0     C 6313  10.492   4.378   2.683 -0.0348 -0.7516 -0.0736
  806MOL0     C 6314  10.890   4.481   2.431  0.3863 -0.3215  0.3817
  806MOL0     C 6315  10.978   4.410   2.511  1.0432 -0.0007 -0.0557
  806MOL0     C 6316  11.107   4.415   2.477 -0.1852 -0.0216 -0.4645
  806MOL0     C 6317  11.161   4.490   2.372  0.8745  0.2152  0.6436
  806MOL0     O 6318  11.298   4.490   2.335 -0.6233 -0.1939  1.4050
  806MOL0     C 6319  11.379   4.392   2.396  0.1330 -0.4696 -0.9824
  806MOL0     C 6320  11.511   4.365   2.320  0.3024  0.2040 -0.2669
  806MOL0     C 6321  11.591   4.246   2.373  0.3156 -0.3787 -0.0364
  806MOL0     C 6322  11.711   4.216   2.293  0.3520  0.1186  0.9351
  806MOL0     C 6323  11.770   4.087   2.330  0.3109  0.7832 -0.7838
  806MOL0     C 6324  11.820   3.983   2.355  0.0961 -0.7527  0.7472
  806MOL0     C 6325  11.073   4.576   2.302  0.0793  1.0427 -0.3774
  806MOL0     C 6326  10.938   4.563   2.327 -0.7035  0.1429 -0.7748
  806MOL0     H 6327  10.515   4.626   2.452 -0.8524  2.2784  2.0285
  806MOL0     H 6328  10.274   4.635   2.484  1.9431  2.8179  1.1791
  806MOL0     H 6329  10.164   4.517   2.897 -2.5963  1.2047  1.6633
  806MOL0     H 6330  10.086   4.373   2.818 -2.0804 -0.0532 -0.2911
  806MOL0     H 6331   9.888   4.517   2.770 -0.2121  0.0850 -0.2359
  806MOL0     H 6332   9.965   4.646   2.862  3.4694  0.0945 -1.5796
  806MOL0     H 6333   9.988   4.467   3.057  0.8554  0.1630 -0.8284
  806MOL0     H 6334   9.903   4.356   2.952 -1.5290 -0.5544  1.1701
  806MOL0     H 6335   9.761   4.607   3.026 -1.4318  0.1186  0.8656
  806MOL0     H 6336   9.695   4.465   2.955 -0.9705  3.8236 -1.3265
  806MOL0     H 6337   9.808   4.506   3.233  0.5557  3.1810 -2.9411
  806MOL0     H 6338   9.777   4.340   3.166  0.3934 -0.2625  1.0698
  806MOL0     H 6339   9.536   4.407   3.129 -1.9734  1.0913  0.7798
  806MOL0     H 6340   9.571   4.566   3.187  1.9072  0.5449 -0.4964
  806MOL0     H 6341   9.566   4.299   3.340  3.6437  0.4870 -0.7877
  806MOL0     H 6342   9.601   4.454   3.420  0.2281 -0.3862  0.3752
  806MOL0     H 6343   9.348   4.401   3.272  1.7514 -0.7667 -0.2889
  806MOL0     H 6344   9.382   4.544   3.376 -0.2608  0.3149  0.8784
  806MOL0     H 6345   9.357   4.167   3.402  1.1927 -0.9918  0.5143
  806MOL0     H 6346   9.296   4.027   3.723 -1.4244 -0.0945  1.5965
  806MOL0     H 6347   9.255   4.005   3.552 -0.4491  1.0926 -1.3475
  806MOL0     H 6348   9.021   4.108   3.591  0.7497 -0.3791 -0.4212
  806MOL0     H 6349   9.064   4.151   3.753  1.6633  0.8680 -0.0976
  806MOL0     H 6350   9.099   3.855   3.684 -2.3342 -1.4175 -0.5139
  806MOL0     H 6351   9.101   3.950   3.838 -0.1487 -0.3911 -0.2281
  806MOL0     H 6352   8.862   3.977   3.834 -0.0640 -0.8993  0.8924
  806MOL0     H 6353   8.892   3.806   3.782 -0.2564  0.3067  1.2136
  806MOL0     H 6354   8.755   4.165   3.691  1.4770 -1.0461 -1.3952
  806MOL0     H 6355   8.508   4.249   3.654 -0.9590  0.1403 -0.1965
  806MOL0     H 6356   8.102   4.175   3.361 -1.1484  0.4674 -0.0173
  806MOL0     H 6357   7.856   4.161   3.309  0.6740 -1.2875 -0.1266
  806MOL0     H 6358   7.647   4.182   3.464  0.4959 -0.7595 -2.1509
  806MOL0     H 6359   7.549   4.056   3.550 -2.5342  2.7049  0.7353
  806MOL0     H 6360   7.546   4.121   3.257  1.3531  0.2414  0.9401
  806MOL0     H 6361   7.450   4.214   3.372  1.2436 -0.0658  0.7374
  806MOL0     H 6362   7.315   4.026   3.441  0.3298  1.9455 -0.0029
  806MOL0     H 6363   7.423   3.917   3.339 -1.8477 -0.2452 -0.7098
  806MOL0     H 6364   7.240   4.148   3.259  1.1737  0.3577  0.1701
  806MOL0     H 6365   7.347   4.067   3.151 -0.6356 -0.7782 -0.0448
  806MOL0     H 6366   7.218   3.870   3.150  1.7346  2.6946 -3.1402
  806MOL0     H 6367   7.120   3.996   3.110  0.1972  1.4252  0.7891
  806MOL0     H 6368   7.070   4.025   3.380  0.3299 -0.3270  0.1623
  806MOL0     H 6369   7.135   3.861   3.391 -1.4547  0.4022  2.3936
  806MOL0     H 6370   6.982   3.776   3.237  1.9175 -1.1370  3.2793
  806MOL0     H 6371   6.895   3.835   3.377 -1.4765  2.6417  0.4422
  806MOL0     H 6372   6.914   3.974   3.109  1.4432 -3.0841  0.7288
  806MOL0     H 6373   6.851   4.057   3.251 -0.0081  1.1450 -2.6137
  806MOL0     H 6374   7.788   3.857   3.596 -2.0665  1.0857 -1.3579
  806MOL0     H 6375   8.054   3.852   3.638 -2.3494 -0.0542  1.4244
  806MOL0     H 6376   8.413   3.832   3.575  0.0778 -0.8471  0.9213
  806MOL0     H 6377   8.646   3.775   3.610  0.6158  0.2784  0.7137
  806MOL0     H 6378  10.322   4.339   2.798  0.8160  0.9366  0.2345
  806MOL0     H 6379  10.554   4.307   2.736  0.6538  0.7872  1.2633
  806MOL0     H 6380  10.931   4.345   2.584 -0.5428  0.9306 -0.1955
  806MOL0     H 6381  11.173   4.350   2.534  2.3346  0.0801 -3.0017
  806MOL0     H 6382  11.321   4.300   2.398 -0.5407 -0.0879 -1.9642
  806MOL0     H 6383  11.401   4.417   2.500  2.3717 -2.6773 -0.8229
  806MOL0     H 6384  11.494   4.343   2.214  3.0292 -1.7135 -0.4132
  806MOL0     H 6385  11.564   4.460   2.332 -2.4732  1.8416 -0.0147
  806MOL0     H 6386  11.533   4.158   2.400 -2.6848  2.0404  2.1616
  806MOL0     H 6387  11.628   4.266   2.474 -1.2448 -2.0890  0.9364
  806MOL0     H 6388  11.686   4.215   2.187  2.6793 -0.7993  0.3245
  806MOL0     H 6389  11.776   4.303   2.307  1.1693 -0.2331 -0.4811
  806MOL0     H 6390  11.838   3.884   2.392 -0.7857 -2.2923 -2.6037
  806MOL0     H 6391  11.119   4.645   2.232 -2.0883  2.4702 -0.4762
  806MOL0     H 6392  10.885   4.630   2.260  2.1304  1.0805 -2.2282
  807MOL0     O 6393   5.922   5.483   1.068  0.2645 -0.3521 -0.4541
  807MOL0     C 6394   5.881   5.592   1.027  0.3246 -0.2873  1.2855
  807MOL0     O 6395   5.955   5.679   0.944 -0.5716 -0.2895 -0.7019
  807MOL0     C 6396   6.085   5.660   0.897  0.3632  0.3271  1.2615
  807MOL0     C 6397   6.150   5.536   0.871 -0.9108 -0.8428 -0.0185
  807MOL0     C 6398   6.267   5.542   0.791 -1.2123  0.2543 -0.3730
  807MOL0     C 6399   6.336   5.657   0.750 -0.5102 -0.0215 -0.6298
  807MOL0     O 6400   6.456   5.659   0.682  0.8552 -0.2901 -0.5768
  807MOL0     C 6401   6.448   5.737   0.558 -0.1365 -0.9829  0.3163
  807MOL0     C 6402   6.441   5.653   0.436 -0.2235 -0.2693  1.1884
  807MOL0     C 6403   6.315   5.576   0.401  0.3640 -0.3742 -0.1236
  807MOL0     C 6404   6.331   5.472   0.285 -0.3316  0.0479 -0.3507
  807MOL0     C 6405   6.385   5.520   0.154  0.1506 -0.2580  0.1657
  807MOL0     C 6406   6.273   5.597   0.080  0.0429  0.7035 -0.5207
  807MOL0     C 6407   6.299   5.638  -0.068  0.2663 -0.0017 -0.2396
  807MOL0     C 6408   6.330   5.517  -0.157  0.2697 -0.5981 -0.9307
  807MOL0     N 6409   6.342   5.565  -0.295  0.0024  0.1828  0.7296
  807MOL0     C 6410   6.449   5.638  -0.352  0.2407  0.2433 -0.2602
  807MOL0     C 6411   6.395   5.690  -0.461  0.3810 -0.0086 -0.1783
  807MOL0     C 6412   6.483   5.778  -0.543  0.7455 -0.5224  1.3006
  807MOL0     C 6413   6.415   5.890  -0.630  0.4161 -0.2242 -0.7082
  807MOL0     C 6414   6.516   5.996  -0.687  0.2401 -0.8038  0.8084
  807MOL0     C 6415   6.439   6.108  -0.760  0.3782  0.9261 -0.1925
  807MOL0     O 6416   6.446   6.087  -0.899  0.0603 -0.1705  0.3131
  807MOL0     C 6417   6.331   6.130  -0.971 -1.0652  0.0452 -0.3053
  807MOL0     C 6418   6.333   6.078  -1.099  0.2002 -0.7103 -1.0364
  807MOL0     C 6419   6.227   6.094  -1.181 -0.5051 -0.1101 -0.5527
  807MOL0     C 6420   6.117   6.171  -1.142  0.8643 -1.0033  0.5589
  807MOL0     C 6421   5.998   6.196  -1.235 -0.3613 -0.6697 -0.6685
  807MOL0     O 6422   5.899   6.289  -1.195  0.6880 -0.8299 -0.1395
  807MOL0     C 6423   5.786   6.321  -1.269 -0.1113 -0.1665 -0.1805
  807MOL0     C 6424   5.681   6.390  -1.197 -0.8608 -0.3792  0.2990
  807MOL0     C 6425   5.561   6.430  -1.272 -0.0546  0.3583  1.1823
  807MOL0     C 6426   5.544   6.394  -1.411  0.5868 -0.2323  0.1312
  807MOL0     O 6427   5.433   6.431  -1.489  0.2052  0.1550 -0.3606
  807MOL0     C 6428   5.384   6.345  -1.598 -0.6262 -0.6463  0.1712
  807MOL0     C 6429   5.322   6.437  -1.704 -0.2230  1.0677 -0.9684
  807MOL0     C 6430   5.242   6.376  -1.813  0.6170 -0.2077 -0.0142
  807MOL0     C 6431   5.107   6.316  -1.754  0.0845  0.1185  1.1611
  807MOL0     C 6432   4.985   6.297  -1.853  0.2084 -0.4505 -0.4274
  807MOL0     C 6433   4.873   6.209  -1.788  0.0095 -0.9383  0.1924
  807MOL0     C 6434   4.755   6.209  -1.893  0.3187 -0.0529 -1.2144
  807MOL0     C 6435   4.654   6.102  -1.859  0.4910 -0.4507 -1.2452
  807MOL0    Cl 6436   4.588   6.146  -1.687 -0.2106 -0.2993  0.0888
  807MOL0     C 6437   5.651   6.327  -1.473  0.0296  0.3207 -0.0887
  807MOL0     C 6438   5.769   6.297  -1.408  0.4692  0.0397 -1.0194
  807MOL0     O 6439   6.002   6.133  -1.342 -0.0316  0.1044 -0.7235
  807MOL0     C 6440   6.125   6.237  -1.021 -0.9001 -0.4109 -0.1489
  807MOL0     C 6441   6.230   6.222  -0.926 -0.1404 -0.5471  0.2177
  807MOL0     N 6442   6.262   5.657  -0.472 -0.3208 -0.0537 -0.0270
  807MOL0     N 6443   6.238   5.573  -0.383 -0.0717  0.7265 -0.2601
  807MOL0     C 6444   6.271   5.777   0.786  2.0656 -0.3779  0.1316
  807MOL0     C 6445   6.145   5.780   0.851  0.4136 -0.3469  0.3426
  807MOL0     C 6446   5.750   5.634   1.090  0.3230 -0.3685 -0.3289
  807MOL0     C 6447   5.680   5.750   1.045 -0.9785 -0.4124  0.3080
  807MOL0     C 6448   5.542   5.760   1.082 -0.0378  0.0261 -0.2073
  807MOL0     C 6449   5.491   5.673   1.177  0.2863 -0.4438  0.2147
  807MOL0     O 6450   5.357   5.692   1.204  0.4436 -0.4390  0.2703
  807MOL0     C 6451   5.262   5.592   1.226  0.1605  0.0442 -1.1046
  807MOL0     C 6452   5.228   5.573   1.379  0.6692  0.3187 -0.0043
  807MOL0     C 6453   5.131   5.671   1.440 -0.0906 -1.1578 -0.3170
  807MOL0     C 6454   5.123   5.811   1.384  0.6405 -0.6602  0.2048
  807MOL0     C 6455   5.077   5.908   1.478  0.5067  0.0638  0.3590
  807MOL0     C 6456   5.061   5.999   1.557 -0.4106 -0.5129 -0.8115
  807MOL0     C 6457   5.575   5.585   1.252 -0.2624 -0.0922  0.5251
  807MOL0     C 6458   5.707   5.565   1.202  0.8247 -0.1747 -0.1579
  807MOL0     H 6459   6.108   5.442   0.904  2.2318 -3.0040 -1.6813
  807MOL0     H 6460   6.301   5.441   0.775 -0.7576  0.4419 -0.5992
  807MOL0     H 6461   6.539   5.798   0.558 -0.7295 -0.0202  2.0797
  807MOL0     H 6462   6.362   5.804   0.554 -0.4274 -1.3154  0.9059
  807MOL0     H 6463   6.526   5.585   0.429  0.6679  0.8632 -4.4628
  807MOL0     H 6464   6.450   5.724   0.353 -0.4609 -0.7879  0.7166
  807MOL0     H 6465   6.245   5.652   0.365 -1.5059 -1.9617  0.0443
  807MOL0     H 6466   6.270   5.533   0.491  0.9061  1.3809  1.0506
  807MOL0     H 6467   6.410   5.408   0.325 -0.0463  0.9194  0.5292
  807MOL0     H 6468   6.234   5.423   0.272 -0.1132 -0.7377  0.8114
  807MOL0     H 6469   6.414   5.433   0.095  0.8074  1.1200 -1.6231
  807MOL0     H 6470   6.482   5.569   0.169 -0.1090  0.6118 -0.8386
  807MOL0     H 6471   6.244   5.688   0.134 -2.6004  0.4249 -1.3254
  807MOL0     H 6472   6.186   5.532   0.090  1.2282 -0.8517  0.0656
  807MOL0     H 6473   6.206   5.687  -0.097  0.4974  0.6755  0.1364
  807MOL0     H 6474   6.383   5.709  -0.074  0.7950 -0.0514  3.7813
  807MOL0     H 6475   6.251   5.442  -0.154 -0.0813 -0.2029  0.3802
  807MOL0     H 6476   6.425   5.482  -0.114  0.5478  0.9694 -0.1769
  807MOL0     H 6477   6.552   5.643  -0.318  0.8698  3.4170 -2.2721
  807MOL0     H 6478   6.521   5.708  -0.618 -2.6459  1.1172 -2.3579
  807MOL0     H 6479   6.563   5.829  -0.489  0.4784  1.6387 -0.2130
  807MOL0     H 6480   6.343   5.939  -0.563 -0.3266  1.9442 -2.9306
  807MOL0     H 6481   6.349   5.847  -0.706  1.2272 -2.7591 -0.1006
  807MOL0     H 6482   6.580   6.031  -0.605  0.3718  0.8881  0.0345
  807MOL0     H 6483   6.576   5.945  -0.763  0.3332  1.1910 -0.5327
  807MOL0     H 6484   6.473   6.212  -0.753  1.7670  0.4767 -0.0757
  807MOL0     H 6485   6.333   6.106  -0.731  0.0963  2.9150 -0.9342
  807MOL0     H 6486   6.423   6.027  -1.130  3.1115  3.4489 -0.2124
  807MOL0     H 6487   6.219   6.041  -1.275 -2.5288  0.8619 -0.9753
  807MOL0     H 6488   5.701   6.404  -1.092 -0.5897 -2.2022  0.5160
  807MOL0     H 6489   5.481   6.474  -1.214 -0.1203  3.7778 -1.2317
  807MOL0     H 6490   5.301   6.286  -1.559  1.5284 -1.9402  3.2437
  807MOL0     H 6491   5.451   6.285  -1.659  1.4670  0.7824  0.9419
  807MOL0     H 6492   5.403   6.487  -1.758 -0.3446 -0.6037 -2.8341
  807MOL0     H 6493   5.267   6.513  -1.649 -0.6968  0.1257 -0.1091
  807MOL0     H 6494   5.284   6.289  -1.865  0.0565  0.7131 -2.1165
  807MOL0     H 6495   5.208   6.452  -1.883 -2.0152 -0.8429  0.4752
  807MOL0     H 6496   5.133   6.227  -1.696  2.4036  1.5800  2.5011
  807MOL0     H 6497   5.077   6.397  -1.687 -0.2902  1.2812 -0.3365
  807MOL0     H 6498   5.028   6.236  -1.934 -2.2720 -2.4571 -0.3449
  807MOL0     H 6499   4.952   6.390  -1.900 -0.1546  0.7797  2.1387
  807MOL0     H 6500   4.840   6.265  -1.700  0.0942 -0.0037 -0.3543
  807MOL0     H 6501   4.901   6.106  -1.766  0.3970 -0.5101  1.8624
  807MOL0     H 6502   4.703   6.304  -1.906 -0.6355 -0.3806  0.1380
  807MOL0     H 6503   4.812   6.181  -1.983  0.4380  0.0335 -1.1660
  807MOL0     H 6504   4.700   6.003  -1.863 -1.6121 -1.4404 -3.5168
  807MOL0     H 6505   4.575   6.113  -1.933 -1.0713 -0.4313  0.3643
  807MOL0     H 6506   5.637   6.305  -1.578  0.4943 -0.4690  0.0076
  807MOL0     H 6507   5.841   6.236  -1.461  0.4415 -1.3541  0.4668
  807MOL0     H 6508   6.041   6.301  -0.997 -1.6754 -1.2191 -0.6561
  807MOL0     H 6509   6.238   6.265  -0.827 -1.0996  1.6354 -0.5986
  807MOL0     H 6510   6.322   5.868   0.758  0.3204  0.4769 -0.4123
  807MOL0     H 6511   6.103   5.878   0.867 -0.6074 -0.2644 -2.2812
  807MOL0     H 6512   5.715   5.815   0.966  0.4278 -2.7363 -1.1235
  807MOL0     H 6513   5.480   5.839   1.041 -1.3194 -1.2400 -0.7899
  807MOL0     H 6514   5.307   5.499   1.190  0.8822  0.1125 -0.4079
  807MOL0     H 6515   5.183   5.611   1.153  0.2991 -0.0202 -1.2744
  807MOL0     H 6516   5.190   5.471   1.384  0.5526  0.1839 -2.3225
  807MOL0     H 6517   5.316   5.585   1.442 -0.3599  0.6121  1.4307
  807MOL0     H 6518   5.132   5.684   1.549 -1.3898  2.0000 -0.5879
  807MOL0     H 6519   5.036   5.624   1.416  0.3184 -1.5822 -1.1363
  807MOL0     H 6520   5.217   5.845   1.341  0.3714  0.8533  0.7672
  807MOL0     H 6521   5.066   5.809   1.290  3.2128 -1.7954 -1.4534
  807MOL0     H 6522   5.037   6.073   1.632  0.0540  1.7983 -2.8120
  807MOL0     H 6523   5.527   5.520   1.324 -2.8102 -2.3247 -2.8686
  807MOL0     H 6524   5.760   5.482   1.248  0.1514 -1.0445 -0.9268
  808MOL0     O 6525   0.523   6.731  10.264  0.0541 -0.1501 -0.4285
  808MOL0     C 6526   0.509   6.813  10.180  0.6776 -0.5231  0.1557
  808MOL0     O 6527   0.391   6.865  10.135 -0.7315  0.1477  0.6311
  808MOL0     C 6528   0.272   6.835  10.181 -0.7640  0.0976  0.3279
  808MOL0     C 6529   0.170   6.851  10.094 -0.0400 -0.0666 -0.2866
  808MOL0     C 6530   0.031   6.831  10.125 -0.1956 -0.0976  0.2606
  808MOL0     C 6531  -0.011   6.800  10.257 -0.8693 -0.8749 -0.6336
  808MOL0     O 6532  -0.140   6.785  10.296 -0.7521  0.6237 -0.0466
  808MOL0     C 6533  -0.250   6.812  10.199 -0.2703 -0.0416  0.7119
  808MOL0     C 6534  -0.376   6.798  10.270 -0.2168  0.2959  0.3813
  808MOL0     C 6535  -0.492   6.864  10.182 -0.3187 -0.2743  0.3927
  808MOL0     C 6536  -0.631   6.806  10.200 -0.3360  0.9439  0.9757
  808MOL0     C 6537  -0.736   6.868  10.107  0.2050 -0.3939 -0.7640
  808MOL0     C 6538  -0.751   7.024  10.126 -0.1047  0.2839  0.6262
  808MOL0     C 6539  -0.788   7.065  10.271  0.2131  0.4647  0.2290
  808MOL0     C 6540  -0.934   7.055  10.292 -0.0471 -0.4069  0.6272
  808MOL0     N 6541  -0.994   7.176  10.243 -0.1087  0.0244 -0.1709
  808MOL0     C 6542  -1.057   7.184  10.120  0.5108 -0.9344  0.1147
  808MOL0     C 6543  -1.087   7.319  10.107  0.4236 -0.1826  0.4203
  808MOL0     C 6544  -1.149   7.373   9.972  0.2403 -0.1995 -0.6835
  808MOL0     C 6545  -1.045   7.439   9.883 -0.2359  0.5891  0.2626
  808MOL0     C 6546  -0.931   7.341   9.867  0.3365  1.1423 -0.0528
  808MOL0     C 6547  -0.835   7.393   9.760 -0.2180  0.5032  0.2222
  808MOL0     O 6548  -0.743   7.284   9.729  0.5535 -0.4746  0.1703
  808MOL0     C 6549  -0.635   7.257   9.807 -0.1365 -0.0587  0.5266
  808MOL0     C 6550  -0.540   7.165   9.765  0.5739 -0.0033  0.2087
  808MOL0     C 6551  -0.422   7.143   9.828  0.2358  0.3342 -0.2306
  808MOL0     C 6552  -0.384   7.206   9.940  0.0402  0.1629 -0.0435
  808MOL0     C 6553  -0.261   7.185  10.018 -0.1822  0.3263  0.6630
  808MOL0     O 6554  -0.232   7.274  10.117  0.0751 -0.7930  0.6801
  808MOL0     C 6555  -0.112   7.258  10.175  0.3244 -0.5515 -0.8076
  808MOL0     C 6556   0.008   7.283  10.118 -0.2612 -0.1796  0.0761
  808MOL0     C 6557   0.126   7.219  10.160  0.2386 -0.3711 -1.1399
  808MOL0     C 6558   0.125   7.146  10.283 -0.8851  0.1788 -0.3473
  808MOL0     O 6559   0.247   7.107  10.338 -0.3802  0.3078  0.6020
  808MOL0     C 6560   0.370   7.166  10.293  0.9320  0.0127  0.1423
  808MOL0     C 6561   0.470   7.170  10.405 -0.8379 -0.6000  0.4302
  808MOL0     C 6562   0.604   7.245  10.375  0.9033  0.0209  0.5569
  808MOL0     C 6563   0.680   7.180  10.261 -0.4771  0.0975 -0.9050
  808MOL0     C 6564   0.828   7.235  10.260  0.7560 -0.1205  0.6806
  808MOL0     C 6565   0.863   7.386  10.246  0.4138  0.0459 -0.6661
  808MOL0     C 6566   1.011   7.404  10.258 -0.2511 -0.8112  0.2217
  808MOL0     C 6567   1.064   7.557  10.241  0.5124 -0.4458  0.1982
  808MOL0    Cl 6568   1.026   7.676  10.368 -0.3731 -0.1126 -0.1917
  808MOL0     C 6569   0.006   7.137  10.350 -0.2867 -0.1044  0.1424
  808MOL0     C 6570  -0.108   7.190  10.298 -0.6644  0.3879  0.0333
  808MOL0     O 6571  -0.197   7.080   9.984 -0.1719 -0.6477  0.4899
  808MOL0     C 6572  -0.476   7.301   9.985  0.5374  0.3628 -0.4556
  808MOL0     C 6573  -0.597   7.328   9.915  0.4663  1.1157 -0.0163
  808MOL0     N 6574  -1.050   7.393  10.221 -0.5115 -1.1936 -0.1320
  808MOL0     N 6575  -0.987   7.303  10.295  0.2641  0.2615 -0.2357
  808MOL0     C 6576   0.098   6.780  10.342  0.0587 -0.1184  0.6267
  808MOL0     C 6577   0.238   6.796  10.310 -0.8919  0.6903  0.1297
  808MOL0     C 6578   0.625   6.865  10.112 -0.2358  0.0984 -0.3422
  808MOL0     C 6579   0.754   6.816  10.136  0.8917  0.1904 -0.9387
  808MOL0     C 6580   0.869   6.866  10.078  0.0796  0.5137  0.1476
  808MOL0     C 6581   0.855   6.966   9.982 -0.0066 -0.2799  0.3684
  808MOL0     O 6582   0.953   7.035   9.916  0.6133  0.0780  1.1526
  808MOL0     C 6583   1.086   7.000   9.961  0.3806 -0.1297 -0.3592
  808MOL0     C 6584   1.130   6.872   9.894 -0.0332 -0.0198 -0.2388
  808MOL0     C 6585   1.153   6.882   9.737 -0.0798 -0.1240 -0.0206
  808MOL0     C 6586   1.298   6.919   9.695  0.1186 -0.8061  0.0354
  808MOL0     C 6587   1.385   6.809   9.701 -1.1385  0.0892  0.3781
  808MOL0     C 6588   1.463   6.716   9.706  0.0275 -1.0753  0.4255
  808MOL0     C 6589   0.732   7.011   9.951  0.6929  0.6186  0.8818
  808MOL0     C 6590   0.618   6.963  10.014  0.0377 -0.6617  0.6332
  808MOL0     H 6591   0.197   6.877   9.991 -0.6210  1.5920 -0.0478
  808MOL0     H 6592  -0.037   6.853  10.044  0.6904  0.4584 -0.3467
  808MOL0     H 6593  -0.237   6.741  10.118 -1.0622  1.3921 -0.7261
  808MOL0     H 6594  -0.237   6.917  10.169  1.1379 -0.0637  1.1840
  808MOL0     H 6595  -0.372   6.855  10.364 -0.7492  0.1057  0.5286
  808MOL0     H 6596  -0.398   6.691  10.281  2.5659 -0.5664 -1.5004
  808MOL0     H 6597  -0.477   6.851  10.074  1.5374 -1.0301  0.7061
  808MOL0     H 6598  -0.494   6.971  10.206 -0.0642 -0.8014  3.1086
  808MOL0     H 6599  -0.619   6.700  10.178  1.4031  0.9938  1.5242
  808MOL0     H 6600  -0.664   6.816  10.304  1.5582 -0.8565  1.8260
  808MOL0     H 6601  -0.835   6.830  10.134  0.0140  0.4644 -0.2446
  808MOL0     H 6602  -0.703   6.834  10.008  0.6241 -0.7183 -0.5140
  808MOL0     H 6603  -0.831   7.055  10.058 -0.8167  0.9398  1.7072
  808MOL0     H 6604  -0.662   7.072  10.086  0.5481 -1.5857 -0.2547
  808MOL0     H 6605  -0.735   7.009  10.348  3.5214 -2.0901 -3.4756
  808MOL0     H 6606  -0.755   7.168  10.288 -1.8194  1.5084 -1.5800
  808MOL0     H 6607  -0.942   7.057  10.401  1.0037  1.2191  0.7184
  808MOL0     H 6608  -0.980   6.961  10.260 -1.8288  0.5191  0.3121
  808MOL0     H 6609  -1.076   7.112  10.042 -0.9790 -2.1751  1.5522
  808MOL0     H 6610  -1.215   7.449  10.016  2.5900  2.9375 -2.1373
  808MOL0     H 6611  -1.217   7.305   9.919  1.0522 -2.7954  1.4492
  808MOL0     H 6612  -1.015   7.533   9.930  0.1358  1.7366 -2.1384
  808MOL0     H 6613  -1.095   7.473   9.792 -0.5747 -0.8940 -0.1201
  808MOL0     H 6614  -0.866   7.325   9.953  0.0965 -0.9619 -0.2089
  808MOL0     H 6615  -0.975   7.248   9.828  1.1311  0.3269  0.9557
  808MOL0     H 6616  -0.791   7.489   9.790 -0.0264  0.4205  0.1990
  808MOL0     H 6617  -0.887   7.417   9.667 -1.1544  3.2782  1.3600
  808MOL0     H 6618  -0.559   7.097   9.683  2.0145 -0.4711  0.2382
  808MOL0     H 6619  -0.366   7.053   9.805  2.0748  1.5940 -0.9120
  808MOL0     H 6620   0.018   7.348  10.032  0.9725  1.2898  1.2625
  808MOL0     H 6621   0.217   7.220  10.101  0.1167  0.3904 -1.3270
  808MOL0     H 6622   0.345   7.269  10.265  1.1740 -0.2760 -1.2163
  808MOL0     H 6623   0.402   7.113  10.202 -1.3955  1.2610 -1.5397
  808MOL0     H 6624   0.487   7.065  10.433 -1.7536 -0.8226  0.1856
  808MOL0     H 6625   0.430   7.214  10.497 -0.7067 -4.1250  2.3695
  808MOL0     H 6626   0.661   7.266  10.466  2.0644 -1.0122  0.1059
  808MOL0     H 6627   0.571   7.335  10.322  0.5466 -1.9334 -2.8386
  808MOL0     H 6628   0.681   7.072  10.278 -1.3914  0.1789 -0.2774
  808MOL0     H 6629   0.635   7.203  10.164  0.5468  1.5927 -1.0586
  808MOL0     H 6630   0.870   7.172  10.182  0.6524 -0.7341  1.1065
  808MOL0     H 6631   0.876   7.208  10.355  2.8276 -1.4757 -0.6625
  808MOL0     H 6632   0.807   7.438  10.325  2.4609  0.7522  0.3965
  808MOL0     H 6633   0.818   7.416  10.151 -3.5760 -2.3627  0.2081
  808MOL0     H 6634   1.058   7.363  10.348 -2.0377 -0.0654  1.5446
  808MOL0     H 6635   1.043   7.349  10.169  4.9033  1.1275  0.5326
  808MOL0     H 6636   1.046   7.600  10.142 -0.5304 -0.7829  0.2268
  808MOL0     H 6637   1.171   7.540  10.239  0.3283 -1.6656  0.1785
  808MOL0     H 6638   0.022   7.082  10.442 -0.4303 -1.7094 -0.7498
  808MOL0     H 6639  -0.202   7.163  10.346  0.0597 -0.2144  1.1690
  808MOL0     H 6640  -0.461   7.352  10.079 -1.1550 -1.2109  0.7433
  808MOL0     H 6641  -0.661   7.401   9.963  1.7237  1.9037  0.5178
  808MOL0     H 6642   0.068   6.734  10.436 -1.5373 -0.2997  0.0679
  808MOL0     H 6643   0.312   6.755  10.377 -4.0135 -4.7410  0.8416
  808MOL0     H 6644   0.763   6.729  10.201 -0.6866  2.4861  2.6933
  808MOL0     H 6645   0.969   6.832  10.101 -0.8366 -1.5325  1.4266
  808MOL0     H 6646   1.089   7.000  10.070  0.1940  0.1314 -0.3532
  808MOL0     H 6647   1.149   7.086   9.937  0.4984  0.1209  0.8105
  808MOL0     H 6648   1.225   6.840   9.939  0.4259  2.7907  1.0188
  808MOL0     H 6649   1.064   6.787   9.910  1.2739 -1.0518 -0.0995
  808MOL0     H 6650   1.093   6.968   9.706 -2.0511 -0.6297  2.0943
  808MOL0     H 6651   1.124   6.794   9.680  0.0690  0.1786 -0.5742
  808MOL0     H 6652   1.296   6.967   9.597 -0.7411  2.6677  1.5889
  808MOL0     H 6653   1.338   7.000   9.757  2.5932 -1.5583 -0.4768
  808MOL0     H 6654   1.527   6.634   9.729  0.7674 -0.5772  0.1682
  808MOL0     H 6655   0.725   7.087   9.874  2.2999 -0.8913 -0.8498
  808MOL0     H 6656   0.523   7.009   9.990  0.4987  0.8621  1.5701
  809MOL0     O 6657   0.602   3.171   8.942 -0.1681  0.2118  0.2954
  809MOL0     C 6658   0.655   3.129   8.839  0.0489 -0.1738  0.1665
  809MOL0     O 6659   0.603   3.143   8.717  0.1748 -0.0166  0.5436
  809MOL0     C 6660   0.490   3.215   8.700 -0.6343  0.2026 -0.2780
  809MOL0     C 6661   0.478   3.349   8.744  0.4973 -0.3091 -0.6854
  809MOL0     C 6662   0.346   3.408   8.725  0.3848 -0.3273 -0.2679
  809MOL0     C 6663   0.238   3.338   8.664  0.3972 -0.5823 -0.2918
  809MOL0     O 6664   0.111   3.405   8.654 -0.4344 -1.1486 -0.7384
  809MOL0     C 6665   0.010   3.326   8.715  0.3845  1.1111 -0.1372
  809MOL0     C 6666  -0.122   3.410   8.742  0.1674  1.1883  0.4784
  809MOL0     C 6667  -0.248   3.323   8.779  0.7548  0.3811 -0.5681
  809MOL0     C 6668  -0.356   3.407   8.847 -0.3592  0.1577 -0.5922
  809MOL0     C 6669  -0.479   3.329   8.837  0.0289 -0.3244 -0.0870
  809MOL0     C 6670  -0.593   3.387   8.934 -0.7086 -0.2131  0.6171
  809MOL0     C 6671  -0.635   3.539   8.905  0.1606 -0.5866 -0.0696
  809MOL0     C 6672  -0.734   3.545   8.780 -0.6346  0.9274  0.4950
  809MOL0     N 6673  -0.872   3.489   8.808 -0.7293 -0.5521 -0.2357
  809MOL0     C 6674  -0.952   3.539   8.910  0.1431  0.1317  0.4252
  809MOL0     C 6675  -1.065   3.479   8.890  0.2911 -0.7242  0.0473
  809MOL0     C 6676  -1.184   3.485   8.985 -0.2399 -0.1100  0.0610
  809MOL0     C 6677  -1.280   3.595   8.941  0.4562  0.4442 -0.1618
  809MOL0     C 6678  -1.368   3.540   8.832  0.0163 -0.1189 -0.6326
  809MOL0     C 6679  -1.467   3.650   8.793 -0.2268 -0.0699 -0.6995
  809MOL0     O 6680  -1.526   3.618   8.669 -0.1982  0.0790  0.3436
  809MOL0     C 6681  -1.666   3.639   8.671  0.6384  0.7180 -0.2990
  809MOL0     C 6682  -1.732   3.733   8.595 -0.7998 -0.0101 -0.0467
  809MOL0     C 6683  -1.872   3.755   8.598 -0.0064 -0.0444  0.1407
  809MOL0     C 6684  -1.951   3.673   8.670  0.0868  0.1629 -0.3019
  809MOL0     C 6685  -2.098   3.678   8.656  0.4169 -0.0530 -0.1575
  809MOL0     O 6686  -2.161   3.558   8.699 -0.7419 -0.6783  0.2477
  809MOL0     C 6687  -2.286   3.559   8.740 -0.1914 -0.2257 -0.4248
  809MOL0     C 6688  -2.321   3.441   8.803  0.4657  0.8654  1.0199
  809MOL0     C 6689  -2.438   3.414   8.864  0.6967  0.0447  0.0357
  809MOL0     C 6690  -2.539   3.517   8.864 -1.0492  0.4476 -0.1827
  809MOL0     O 6691  -2.664   3.489   8.916 -0.1024  0.3620  0.3837
  809MOL0     C 6692  -2.742   3.601   8.966  0.7466  0.1788 -1.1297
  809MOL0     C 6693  -2.872   3.563   9.037 -0.3053  0.5640  0.9315
  809MOL0     C 6694  -2.818   3.485   9.159  1.2041  0.2279  0.9475
  809MOL0     C 6695  -2.930   3.454   9.266 -0.5154  0.0142  0.2126
  809MOL0     C 6696  -2.864   3.417   9.405  0.3258 -0.0316 -1.0962
  809MOL0     C 6697  -2.765   3.296   9.395 -0.1614 -0.1397 -0.3548
  809MOL0     C 6698  -2.734   3.242   9.548  0.4369 -1.0374  0.5264
  809MOL0     C 6699  -2.729   3.092   9.561 -0.0959  0.3636  0.2186
  809MOL0    Cl 6700  -2.674   3.049   9.717 -0.5560 -0.0976  0.1978
  809MOL0     C 6701  -2.506   3.638   8.793  0.2552 -0.4867 -0.4675
  809MOL0     C 6702  -2.385   3.652   8.728 -0.2718 -0.3201  0.0406
  809MOL0     O 6703  -2.152   3.785   8.630  0.0271  0.5682 -0.3430
  809MOL0     C 6704  -1.886   3.572   8.750 -0.3519 -0.6760 -1.3822
  809MOL0     C 6705  -1.749   3.551   8.745 -0.3612 -0.8371  0.7199
  809MOL0     N 6706  -1.069   3.392   8.783  0.8349 -0.0845  0.3439
  809MOL0     N 6707  -0.952   3.412   8.730  0.9311  0.6632 -0.5221
  809MOL0     C 6708   0.260   3.203   8.607 -0.0000 -0.5243  0.3618
  809MOL0     C 6709   0.383   3.150   8.628 -0.4433  0.5006  0.1051
  809MOL0     C 6710   0.786   3.071   8.848  0.6010  0.5847  0.0278
  809MOL0     C 6711   0.886   3.103   8.749  0.3878  0.8834  0.1040
  809MOL0     C 6712   1.020   3.057   8.773  0.0681  0.2922 -0.4556
  809MOL0     C 6713   1.048   2.982   8.889 -0.6236 -0.3588 -0.0452
  809MOL0     O 6714   1.177   2.949   8.921  0.1250 -0.9163  0.0663
  809MOL0     C 6715   1.263   2.886   8.826 -0.0869 -0.3065  0.8762
  809MOL0     C 6716   1.400   2.865   8.882  1.2103  0.7142  0.2588
  809MOL0     C 6717   1.402   2.783   9.011 -0.0695  0.0016 -0.1968
  809MOL0     C 6718   1.369   2.632   8.997 -0.3943 -0.0325  0.3052
  809MOL0     C 6719   1.415   2.563   8.875 -0.2723  0.5422 -0.2701
  809MOL0     C 6720   1.444   2.500   8.780  0.4340 -0.6336  0.6975
  809MOL0     C 6721   0.950   2.962   8.982 -0.3391 -0.7713 -0.0696
  809MOL0     C 6722   0.824   3.006   8.963 -0.6863  0.2463  0.3185
  809MOL0     H 6723   0.559   3.393   8.802  0.7146 -2.2995  0.6166
  809MOL0     H 6724   0.322   3.500   8.778 -0.8584 -1.9591  2.2029
  809MOL0     H 6725   0.045   3.272   8.803  0.5918  1.2581 -0.1293
  809MOL0     H 6726  -0.023   3.256   8.637 -0.6544  0.4660  0.8620
  809MOL0     H 6727  -0.151   3.472   8.657 -0.5783  1.1166  0.6760
  809MOL0     H 6728  -0.101   3.479   8.825  0.8051  0.6852  0.7406
  809MOL0     H 6729  -0.220   3.254   8.859  1.6386  0.9663 -0.3522
  809MOL0     H 6730  -0.280   3.265   8.692  0.1339  0.5510 -0.4525
  809MOL0     H 6731  -0.330   3.431   8.950  2.3493  1.0155 -1.3933
  809MOL0     H 6732  -0.370   3.503   8.796  3.1051 -0.0069 -2.1565
  809MOL0     H 6733  -0.462   3.229   8.879 -0.8872 -0.3863  0.1498
  809MOL0     H 6734  -0.505   3.314   8.732  0.6491  2.6436 -0.7611
  809MOL0     H 6735  -0.556   3.379   9.037  1.9161 -1.1905 -0.3313
  809MOL0     H 6736  -0.684   3.326   8.928 -1.0210  0.2133  0.9699
  809MOL0     H 6737  -0.679   3.584   8.994 -2.5563 -1.3523 -0.9286
  809MOL0     H 6738  -0.550   3.603   8.876 -1.0471  2.5385  2.6432
  809MOL0     H 6739  -0.687   3.477   8.708  0.7001  1.6624  0.6412
  809MOL0     H 6740  -0.743   3.645   8.737  1.4385  1.1875  0.5590
  809MOL0     H 6741  -0.921   3.612   8.984 -1.2677 -0.1444  1.3267
  809MOL0     H 6742  -1.142   3.489   9.086 -2.8015 -2.1793  1.3100
  809MOL0     H 6743  -1.246   3.395   8.984 -1.0639  0.4440  0.2470
  809MOL0     H 6744  -1.226   3.678   8.895 -0.0022 -0.1643 -1.8539
  809MOL0     H 6745  -1.344   3.620   9.026  1.6920  0.9818  0.6523
  809MOL0     H 6746  -1.310   3.512   8.744  0.2680  2.3110 -1.3279
  809MOL0     H 6747  -1.432   3.459   8.866  2.1261 -0.0597  4.3064
  809MOL0     H 6748  -1.399   3.733   8.770 -0.6809  0.9703  1.4524
  809MOL0     H 6749  -1.546   3.678   8.863 -1.6060 -1.6910 -1.5329
  809MOL0     H 6750  -1.667   3.792   8.530  1.9813 -0.7030  1.9173
  809MOL0     H 6751  -1.912   3.843   8.548 -1.8702  0.8368  2.9061
  809MOL0     H 6752  -2.265   3.348   8.793 -1.8336 -0.5090  0.1493
  809MOL0     H 6753  -2.470   3.319   8.906 -1.4077 -0.3333 -2.1950
  809MOL0     H 6754  -2.768   3.675   8.889 -0.6243  2.6640  1.5152
  809MOL0     H 6755  -2.671   3.655   9.029 -0.4726 -1.0098  1.4309
  809MOL0     H 6756  -2.937   3.513   8.965  1.8356 -0.4884 -0.3627
  809MOL0     H 6757  -2.935   3.649   9.062 -1.1691  1.0656 -2.4925
  809MOL0     H 6758  -2.754   3.545   9.224 -1.0305  1.7346  1.8416
  809MOL0     H 6759  -2.760   3.398   9.126  2.2352  1.3255 -0.2583
  809MOL0     H 6760  -2.985   3.548   9.279 -1.1710 -0.4831  1.2468
  809MOL0     H 6761  -2.991   3.370   9.233 -0.1768 -0.8767  1.7696
  809MOL0     H 6762  -2.942   3.393   9.478  1.2303  1.5779  0.4706
  809MOL0     H 6763  -2.812   3.503   9.448 -3.8089  0.8431  3.0608
  809MOL0     H 6764  -2.666   3.328   9.360  1.1898 -0.2186  2.9593
  809MOL0     H 6765  -2.815   3.216   9.339  1.0586 -3.8521  3.3684
  809MOL0     H 6766  -2.643   3.287   9.586 -0.4838  0.1678  1.3779
  809MOL0     H 6767  -2.812   3.280   9.614  0.4682  1.6643 -0.8606
  809MOL0     H 6768  -2.671   3.047   9.480  0.9633 -0.7639  1.5605
  809MOL0     H 6769  -2.828   3.045   9.557 -0.1358  0.4266  0.4526
  809MOL0     H 6770  -2.579   3.717   8.778  0.5151 -0.0894  0.2964
  809MOL0     H 6771  -2.364   3.743   8.674  0.5230 -1.3949 -1.5568
  809MOL0     H 6772  -1.945   3.501   8.806  0.9457  1.6756  3.5346
  809MOL0     H 6773  -1.710   3.469   8.803  1.5578 -2.0256 -2.0222
  809MOL0     H 6774   0.190   3.140   8.553  1.3247 -4.0756  2.4472
  809MOL0     H 6775   0.402   3.049   8.596  2.3277  1.2723 -0.9574
  809MOL0     H 6776   0.848   3.150   8.659 -1.4537 -4.2612 -2.2580
  809MOL0     H 6777   1.100   3.085   8.704 -0.9130  1.1129 -1.2963
  809MOL0     H 6778   1.273   2.943   8.733  1.5769 -5.4395 -2.5439
  809MOL0     H 6779   1.225   2.792   8.784 -0.0085 -0.4095  1.0321
  809MOL0     H 6780   1.477   2.821   8.817  2.0435  0.8841  1.0976
  809MOL0     H 6781   1.451   2.961   8.892  1.2930  0.8425 -1.2541
  809MOL0     H 6782   1.328   2.831   9.076  0.6995 -0.9605  1.4626
  809MOL0     H 6783   1.498   2.782   9.062  0.4238 -1.0282 -1.0967
  809MOL0     H 6784   1.410   2.583   9.085  1.7695  2.3580  0.7550
  809MOL0     H 6785   1.262   2.611   8.997 -0.9460  2.2499 -1.8078
  809MOL0     H 6786   1.472   2.437   8.698 -0.3918 -1.8895  1.3385
  809MOL0     H 6787   0.976   2.913   9.075 -0.3841 -0.7260 -0.0333
  809MOL0     H 6788   0.759   2.982   9.047  1.7541 -1.2287  1.9107
  810MOL0     O 6789   2.959   6.702   8.289  0.2541 -0.4769  0.2485
  810MOL0     C 6790   3.026   6.719   8.183  0.1335  0.2737 -0.7069
  810MOL0     O 6791   2.970   6.760   8.068  0.3597  0.4600 -0.0904
  810MOL0     C 6792   2.839   6.798   8.081 -0.9499  0.4172  0.6605
  810MOL0     C 6793   2.799   6.912   8.152  0.2693  0.3787 -0.2569
  810MOL0     C 6794   2.661   6.944   8.156 -0.0551 -0.8579 -0.2233
  810MOL0     C 6795   2.567   6.866   8.092  0.5559 -0.7789  0.1893
  810MOL0     O 6796   2.438   6.901   8.094  0.2280 -0.3536  0.8474
  810MOL0     C 6797   2.361   6.845   8.197 -0.3134  0.6028 -0.3704
  810MOL0     C 6798   2.247   6.953   8.205  0.0383  0.5961 -0.3355
  810MOL0     C 6799   2.290   7.090   8.247 -0.0792  0.3107 -0.6983
  810MOL0     C 6800   2.167   7.187   8.292  0.5564  0.1322  1.1661
  810MOL0     C 6801   2.203   7.335   8.316  0.1833  0.8303  0.3455
  810MOL0     C 6802   2.299   7.386   8.425 -0.2774  0.0999  0.0881
  810MOL0     C 6803   2.306   7.540   8.420 -0.0137 -0.1955  0.0816
  810MOL0     C 6804   2.399   7.605   8.528 -0.2542  0.5494 -0.1748
  810MOL0     N 6805   2.378   7.749   8.511 -0.4303  0.9827 -0.4513
  810MOL0     C 6806   2.282   7.820   8.586 -0.8126 -0.1667  0.5908
  810MOL0     C 6807   2.314   7.953   8.557 -0.6898 -0.6821 -0.6047
  810MOL0     C 6808   2.251   8.073   8.634 -0.5376 -0.2679 -1.0789
  810MOL0     C 6809   2.249   8.190   8.540  0.4235 -0.0246 -0.0809
  810MOL0     C 6810   2.142   8.181   8.422  0.2864  0.3368 -0.5232
  810MOL0     C 6811   2.173   8.068   8.323  0.4575 -0.8569 -1.1317
  810MOL0     O 6812   2.098   8.082   8.206  0.3602  0.1774  0.3685
  810MOL0     C 6813   1.962   8.105   8.212  0.2956 -0.2313 -0.7165
  810MOL0     C 6814   1.913   8.222   8.158 -0.2753 -0.3799 -0.2792
  810MOL0     C 6815   1.778   8.251   8.152 -0.3140 -0.5258  0.2139
  810MOL0     C 6816   1.677   8.158   8.194  0.2177  0.3560  0.4172
  810MOL0     C 6817   1.534   8.181   8.174  0.7688  0.2207  0.4042
  810MOL0     O 6818   1.458   8.082   8.222 -0.6883  0.0513 -0.0532
  810MOL0     C 6819   1.325   8.083   8.185  0.9841 -1.3929  1.1646
  810MOL0     C 6820   1.261   8.141   8.072 -0.5990  0.2710  0.1098
  810MOL0     C 6821   1.124   8.124   8.047 -0.5441  0.1892 -0.1365
  810MOL0     C 6822   1.051   8.025   8.116  0.4552 -1.2166 -1.1068
  810MOL0     O 6823   0.927   8.002   8.066  0.0366 -0.1393 -0.6709
  810MOL0     C 6824   0.862   7.871   8.073 -1.1025  0.2388  0.0863
  810MOL0     C 6825   0.768   7.880   8.200 -1.0937  0.2502  0.1237
  810MOL0     C 6826   0.677   7.755   8.207  0.4376 -0.2099  0.0088
  810MOL0     C 6827   0.593   7.714   8.088 -0.2683  0.6333  0.8213
  810MOL0     C 6828   0.454   7.755   8.088  0.5180  0.7740  0.3771
  810MOL0     C 6829   0.354   7.673   8.169 -1.4139  1.2108 -0.5528
  810MOL0     C 6830   0.203   7.702   8.149 -0.5939  0.5145  0.2258
  810MOL0     C 6831   0.121   7.623   8.253 -0.8093 -0.7274 -0.7728
  810MOL0    Cl 6832  -0.052   7.614   8.212  0.1350 -0.4475  0.2821
  810MOL0     C 6833   1.118   7.955   8.211 -0.0526 -1.0064  0.2661
  810MOL0     C 6834   1.251   7.992   8.253  0.6661 -0.0392 -0.2395
  810MOL0     O 6835   1.490   8.292   8.131  0.3303 -0.5164 -0.4241
  810MOL0     C 6836   1.731   8.051   8.270 -0.3022 -0.1638  0.1634
  810MOL0     C 6837   1.871   8.018   8.277  0.4309 -0.6297 -0.1896
  810MOL0     N 6838   2.428   7.949   8.474  0.1654  0.0926  0.0694
  810MOL0     N 6839   2.457   7.830   8.434  0.4060 -0.4588  0.2031
  810MOL0     C 6840   2.608   6.759   8.021 -0.0719 -0.3271  0.0712
  810MOL0     C 6841   2.743   6.720   8.014 -0.1450  0.0460 -0.9287
  810MOL0     C 6842   3.167   6.680   8.179 -0.8473 -0.0949 -0.3865
  810MOL0     C 6843   3.234   6.609   8.279 -0.1546  0.2194 -0.4935
  810MOL0     C 6844   3.372   6.574   8.276  0.7405  0.2708 -0.2029
  810MOL0     C 6845   3.455   6.628   8.172 -0.1361 -0.0362 -0.7380
  810MOL0     O 6846   3.590   6.614   8.171 -0.5355 -0.0048  0.0668
  810MOL0     C 6847   3.667   6.684   8.075  0.3640  0.6480  0.3463
  810MOL0     C 6848   3.815   6.660   8.096 -0.4240 -0.4270 -0.0289
  810MOL0     C 6849   3.860   6.709   8.232 -0.3975 -0.3193 -0.0330
  810MOL0     C 6850   4.006   6.668   8.258  1.1345  1.7132 -0.1212
  810MOL0     C 6851   4.106   6.714   8.163  0.0541 -0.3113 -0.0913
  810MOL0     C 6852   4.171   6.761   8.071 -0.1421 -0.6503 -0.4983
  810MOL0     C 6853   3.384   6.705   8.073  0.4842  0.6868 -0.7972
  810MOL0     C 6854   3.250   6.726   8.071  0.2781  0.2881  0.0471
  810MOL0     H 6855   2.877   6.970   8.201  1.5622  0.3954 -2.2426
  810MOL0     H 6856   2.633   7.044   8.186 -2.5635 -1.7706  0.7624
  810MOL0     H 6857   2.415   6.834   8.291  1.0948 -3.7613 -1.4516
  810MOL0     H 6858   2.329   6.746   8.163  0.0906  0.5587 -0.6271
  810MOL0     H 6859   2.186   6.909   8.285  0.8648 -1.8042 -0.9529
  810MOL0     H 6860   2.185   6.970   8.116  0.3616  0.5881 -0.5635
  810MOL0     H 6861   2.340   7.146   8.167  1.8680  0.8005  0.7935
  810MOL0     H 6862   2.356   7.091   8.334 -1.7581  1.6214  0.6168
  810MOL0     H 6863   2.100   7.189   8.206  1.9818  0.6618  0.0230
  810MOL0     H 6864   2.121   7.142   8.380  1.3587 -1.3163  0.8709
  810MOL0     H 6865   2.103   7.379   8.325 -1.8361 -3.6019  6.1881
  810MOL0     H 6866   2.253   7.352   8.220 -0.6872 -0.5891 -0.3955
  810MOL0     H 6867   2.398   7.353   8.392 -0.7250  0.7205 -2.0229
  810MOL0     H 6868   2.286   7.353   8.528 -1.1070  2.2011  0.7167
  810MOL0     H 6869   2.351   7.560   8.322 -1.7497 -1.1863 -0.9473
  810MOL0     H 6870   2.211   7.592   8.429  1.2268  1.9783  1.6265
  810MOL0     H 6871   2.505   7.585   8.515 -0.7386 -0.8428 -2.6299
  810MOL0     H 6872   2.357   7.577   8.625 -1.1399  0.7589 -0.4810
  810MOL0     H 6873   2.206   7.784   8.654 -1.1894 -0.9892 -0.2475
  810MOL0     H 6874   2.311   8.096   8.722  2.2050 -0.1287 -2.8650
  810MOL0     H 6875   2.152   8.049   8.676  0.4810  1.4194  2.7052
  810MOL0     H 6876   2.348   8.195   8.493 -0.7210  1.4149 -2.5303
  810MOL0     H 6877   2.231   8.273   8.609  1.8699  0.1526  0.1249
  810MOL0     H 6878   2.044   8.165   8.470  0.6891 -0.5262  0.0227
  810MOL0     H 6879   2.133   8.271   8.361  0.3203 -0.8043 -2.2770
  810MOL0     H 6880   2.157   7.966   8.359  1.1210 -0.2603  0.9991
  810MOL0     H 6881   2.279   8.071   8.296  0.2203 -1.9891 -2.3044
  810MOL0     H 6882   1.990   8.280   8.108 -0.9765  0.1602 -0.7631
  810MOL0     H 6883   1.760   8.350   8.110  0.6073  0.0699  1.1748
  810MOL0     H 6884   1.316   8.209   8.007 -1.1225  0.8887  0.3045
  810MOL0     H 6885   1.073   8.192   7.979  1.9275  1.3707 -0.8969
  810MOL0     H 6886   0.931   7.786   8.076 -1.7528 -0.4749 -2.6203
  810MOL0     H 6887   0.800   7.866   7.983 -0.2466 -1.1635 -0.4539
  810MOL0     H 6888   0.711   7.972   8.186  1.6236  1.7204 -2.2578
  810MOL0     H 6889   0.827   7.895   8.291 -0.4847  3.7178 -0.7283
  810MOL0     H 6890   0.615   7.770   8.296 -1.1436  0.4165 -1.1608
  810MOL0     H 6891   0.735   7.664   8.225 -3.4239 -3.2993 -1.6803
  810MOL0     H 6892   0.639   7.749   7.995 -1.5956 -3.4665 -1.6371
  810MOL0     H 6893   0.598   7.605   8.088 -1.0638  0.5920  0.6163
  810MOL0     H 6894   0.416   7.755   7.986  1.4257 -1.8977 -0.0267
  810MOL0     H 6895   0.460   7.859   8.122  0.9874  0.7267  0.4528
  810MOL0     H 6896   0.363   7.694   8.276 -0.9847 -2.0977  0.1875
  810MOL0     H 6897   0.373   7.566   8.157 -0.7468  0.7864  3.1603
  810MOL0     H 6898   0.170   7.806   8.146 -4.0596 -0.4660 -1.2788
  810MOL0     H 6899   0.174   7.663   8.051  1.8473  1.0208 -0.7739
  810MOL0     H 6900   0.131   7.680   8.346  1.9196  1.0256 -2.0134
  810MOL0     H 6901   0.162   7.523   8.268 -0.5942 -0.5679 -0.2914
  810MOL0     H 6902   1.067   7.870   8.255 -0.6149 -0.4265  0.7558
  810MOL0     H 6903   1.293   7.940   8.338 -1.7984 -0.2855  0.9234
  810MOL0     H 6904   1.660   7.994   8.330 -0.0714  0.5329  1.1287
  810MOL0     H 6905   1.905   7.919   8.306 -1.2501 -1.3080 -0.3972
  810MOL0     H 6906   2.529   6.697   7.978 -0.2335  1.1155 -1.8185
  810MOL0     H 6907   2.772   6.631   7.960 -2.3768 -3.2829  2.7649
  810MOL0     H 6908   3.184   6.569   8.367  2.9012  1.7293  2.1169
  810MOL0     H 6909   3.418   6.518   8.356 -3.1359 -4.3633 -0.7832
  810MOL0     H 6910   3.656   6.790   8.095  4.0351  0.9331  1.6806
  810MOL0     H 6911   3.634   6.648   7.977 -0.4600  2.7832 -0.2039
  810MOL0     H 6912   3.828   6.552   8.082 -2.8131 -0.8517  0.4785
  810MOL0     H 6913   3.875   6.710   8.020  0.0250  1.6538  1.6157
  810MOL0     H 6914   3.805   6.661   8.313  1.6978  0.1280  1.7641
  810MOL0     H 6915   3.843   6.817   8.241 -1.0355 -0.5844  2.7608
  810MOL0     H 6916   4.025   6.703   8.360  1.1911 -1.0087  0.8932
  810MOL0     H 6917   4.007   6.559   8.273 -0.6206  1.8255  1.1820
  810MOL0     H 6918   4.219   6.814   7.991 -3.1873  2.6605 -0.3956
  810MOL0     H 6919   3.445   6.734   7.988  1.9387 -0.1835 -0.0969
  810MOL0     H 6920   3.220   6.789   7.988  0.2964  2.2903  1.4848
  811MOL0     O 6921   1.026   1.287   4.978  0.2798 -0.8489 -0.2348
  811MOL0     C 6922   0.946   1.362   4.913  0.0903  0.4938 -0.6150
  811MOL0     O 6923   0.963   1.421   4.788  0.2811  0.3130 -0.8962
  811MOL0     C 6924   1.068   1.367   4.719 -0.5751  0.7288 -0.4156
  811MOL0     C 6925   1.193   1.440   4.721 -0.1036  0.1232  0.2153
  811MOL0     C 6926   1.306   1.407   4.647  0.3721  0.0304 -0.1723
  811MOL0     C 6927   1.297   1.279   4.577 -0.1969  1.0677  0.0612
  811MOL0     O 6928   1.410   1.241   4.507  0.5696  1.3698  0.7572
  811MOL0     C 6929   1.433   1.098   4.501  0.1417  0.0589  0.5965
  811MOL0     C 6930   1.584   1.065   4.502  0.6597 -0.0335  0.1511
  811MOL0     C 6931   1.644   1.118   4.636  0.0585  0.3776 -0.4702
  811MOL0     C 6932   1.794   1.108   4.629  0.1900  0.3606 -0.0811
  811MOL0     C 6933   1.861   1.182   4.508  0.1986 -0.1823  0.6384
  811MOL0     C 6934   1.974   1.279   4.551  0.5320 -0.4900 -0.1621
  811MOL0     C 6935   1.921   1.404   4.623  0.4661  0.3012 -0.6377
  811MOL0     C 6936   2.037   1.500   4.659  0.4813  1.0924 -0.2982
  811MOL0     N 6937   2.085   1.572   4.536  0.4082 -0.2287 -0.7348
  811MOL0     C 6938   2.197   1.535   4.468  0.4086  0.2836  0.2125
  811MOL0     C 6939   2.214   1.642   4.376 -0.0968  0.6916  0.1668
  811MOL0     C 6940   2.333   1.643   4.277  0.6095 -0.4182 -0.4671
  811MOL0     C 6941   2.444   1.747   4.301 -0.1491  0.4534  0.2074
  811MOL0     C 6942   2.526   1.711   4.423 -0.5539  0.5173 -0.2323
  811MOL0     C 6943   2.491   1.793   4.553  1.0924  0.4694 -0.1438
  811MOL0     O 6944   2.570   1.729   4.658 -0.5328  1.1378  0.3759
  811MOL0     C 6945   2.516   1.652   4.755  0.3836 -1.9301 -0.2066
  811MOL0     C 6946   2.384   1.665   4.807 -0.4158  0.0195 -0.9044
  811MOL0     C 6947   2.342   1.585   4.907  0.1847  0.8853  0.0823
  811MOL0     C 6948   2.418   1.474   4.948  0.1765 -1.2812 -0.8245
  811MOL0     C 6949   2.380   1.393   5.071  0.1436 -0.0404  0.5408
  811MOL0     O 6950   2.471   1.305   5.124 -0.0342  0.2533  0.0151
  811MOL0     C 6951   2.446   1.258   5.253  0.7748  0.2087  0.1394
  811MOL0     C 6952   2.453   1.341   5.361 -0.1592  0.6865 -0.1881
  811MOL0     C 6953   2.422   1.300   5.489 -0.0394 -0.0954  0.2279
  811MOL0     C 6954   2.367   1.172   5.515 -0.0522  0.2987 -0.0444
  811MOL0     O 6955   2.325   1.130   5.642  0.3903 -0.0980 -0.5826
  811MOL0     C 6956   2.236   1.012   5.657  0.0445 -0.2215 -0.0255
  811MOL0     C 6957   2.171   1.011   5.799  0.2886 -0.4457  0.3561
  811MOL0     C 6958   2.131   1.157   5.840 -0.7818  0.2060 -0.5694
  811MOL0     C 6959   2.037   1.144   5.957 -0.8279 -0.8181 -0.5127
  811MOL0     C 6960   2.033   1.271   6.047  0.2405  0.0377  0.1791
  811MOL0     C 6961   1.965   1.232   6.184 -0.0460  0.3443  0.5486
  811MOL0     C 6962   1.866   1.336   6.228 -0.0595 -0.5320  0.8414
  811MOL0     C 6963   1.856   1.363   6.384  0.3092 -0.3539  0.6990
  811MOL0    Cl 6964   1.787   1.210   6.463 -0.5352 -0.2699  0.0466
  811MOL0     C 6965   2.353   1.090   5.399 -0.2388 -0.2921 -0.2301
  811MOL0     C 6966   2.396   1.124   5.271 -0.6224  0.3096 -0.0004
  811MOL0     O 6967   2.265   1.419   5.108 -0.1284  0.2097  0.2835
  811MOL0     C 6968   2.542   1.453   4.881 -0.6497 -0.1796 -0.4572
  811MOL0     C 6969   2.586   1.538   4.788  0.0915  0.3174 -0.4445
  811MOL0     N 6970   2.110   1.735   4.390 -0.2431 -0.1171  0.9900
  811MOL0     N 6971   2.037   1.686   4.488  0.4259  0.1382  0.4655
  811MOL0     C 6972   1.174   1.207   4.568  0.5679 -0.4424  0.0322
  811MOL0     C 6973   1.062   1.248   4.650 -0.2048  0.4860 -0.5207
  811MOL0     C 6974   0.819   1.396   4.978  0.3625 -0.2442 -0.0285
  811MOL0     C 6975   0.695   1.410   4.900  0.2150  0.4004 -0.0459
  811MOL0     C 6976   0.585   1.462   4.969 -0.1085 -0.3000 -0.3393
  811MOL0     C 6977   0.588   1.497   5.109  0.0117 -0.3454  0.2933
  811MOL0     O 6978   0.486   1.557   5.176  0.0388  0.2104 -0.3462
  811MOL0     C 6979   0.408   1.645   5.091  0.3847 -0.0755  1.2209
  811MOL0     C 6980   0.343   1.751   5.174 -0.9053 -0.1219 -0.9548
  811MOL0     C 6981   0.222   1.816   5.109 -0.0777  0.2108  0.4018
  811MOL0     C 6982   0.184   1.946   5.174 -0.0382  0.2605 -0.4248
  811MOL0     C 6983   0.131   1.919   5.302 -0.0438  0.3691 -0.4310
  811MOL0     C 6984   0.081   1.905   5.415  0.0187  0.0213  0.5525
  811MOL0     C 6985   0.705   1.471   5.187 -0.3467  0.1145  0.0005
  811MOL0     C 6986   0.816   1.425   5.114 -0.3787 -0.1202 -0.3158
  811MOL0     H 6987   1.192   1.532   4.779 -2.7842 -0.4001  1.1465
  811MOL0     H 6988   1.396   1.464   4.630  0.8574 -1.3611 -2.7981
  811MOL0     H 6989   1.387   1.066   4.407 -2.7313 -0.5175  2.0797
  811MOL0     H 6990   1.384   1.040   4.580 -2.6587  3.5724  1.6908
  811MOL0     H 6991   1.631   1.115   4.417  2.1257  0.0421  0.9814
  811MOL0     H 6992   1.606   0.959   4.489 -0.3754 -0.1735 -0.5030
  811MOL0     H 6993   1.600   1.052   4.711 -2.8938  1.2010 -1.3466
  811MOL0     H 6994   1.611   1.221   4.651  0.0169  0.5818 -1.8350
  811MOL0     H 6995   1.827   1.144   4.727 -1.8476  2.8927 -0.2289
  811MOL0     H 6996   1.814   1.001   4.624  0.5623  0.3995  0.4586
  811MOL0     H 6997   1.786   1.243   4.456 -1.6621  0.2272  3.5105
  811MOL0     H 6998   1.912   1.107   4.448 -1.6518 -1.5847  0.7449
  811MOL0     H 6999   2.017   1.308   4.455 -1.9475 -1.3483 -1.6409
  811MOL0     H 7000   2.044   1.227   4.617  2.1059 -0.3853 -1.6783
  811MOL0     H 7001   1.854   1.449   4.549  0.7236 -0.6239 -1.4549
  811MOL0     H 7002   1.860   1.370   4.707 -0.3953  0.4702 -1.1773
  811MOL0     H 7003   2.118   1.435   4.695 -1.0021 -0.9023 -0.4255
  811MOL0     H 7004   2.016   1.582   4.729 -1.1774  0.2711  0.2203
  811MOL0     H 7005   2.263   1.449   4.472 -0.3106 -0.4765 -2.1972
  811MOL0     H 7006   2.294   1.656   4.175  0.2977  1.0092 -0.1883
  811MOL0     H 7007   2.380   1.544   4.276 -1.0869 -1.2898  1.4164
  811MOL0     H 7008   2.403   1.848   4.299 -0.4788  0.3252  0.3769
  811MOL0     H 7009   2.504   1.748   4.209 -0.0863  0.1846  0.2433
  811MOL0     H 7010   2.520   1.602   4.430  2.9073  0.1753 -1.1096
  811MOL0     H 7011   2.631   1.732   4.402  0.2948 -0.6039  2.3787
  811MOL0     H 7012   2.383   1.788   4.570  1.3949 -0.8615  1.7178
  811MOL0     H 7013   2.521   1.898   4.556 -0.9401  1.1102 -0.5984
  811MOL0     H 7014   2.323   1.749   4.774  0.5380  0.5924 -1.2644
  811MOL0     H 7015   2.249   1.601   4.960  0.2545 -3.7986  2.0585
  811MOL0     H 7016   2.484   1.445   5.356  1.2119  0.2752 -0.5542
  811MOL0     H 7017   2.428   1.373   5.569  1.6211  2.3069 -1.9364
  811MOL0     H 7018   2.289   0.917   5.644 -0.9478 -0.8468  0.4430
  811MOL0     H 7019   2.154   1.006   5.585 -0.5361 -2.0397  0.7518
  811MOL0     H 7020   2.246   0.972   5.869 -1.5971 -1.4431  1.8877
  811MOL0     H 7021   2.086   0.942   5.799 -0.3141  0.2346  2.4097
  811MOL0     H 7022   2.086   1.214   5.758 -0.0133  2.5256  0.5625
  811MOL0     H 7023   2.220   1.213   5.867  0.0270 -0.8276 -1.0123
  811MOL0     H 7024   1.936   1.111   5.931 -0.5358 -1.2336 -1.1440
  811MOL0     H 7025   2.072   1.063   6.021 -2.0900 -0.6188  0.4623
  811MOL0     H 7026   1.980   1.349   5.992  0.4150 -0.0585 -0.1242
  811MOL0     H 7027   2.135   1.307   6.061  0.9924 -1.8256 -0.2230
  811MOL0     H 7028   2.041   1.222   6.262 -0.9105 -0.9140  1.2637
  811MOL0     H 7029   1.913   1.136   6.180 -0.3336  0.4307  1.7348
  811MOL0     H 7030   1.883   1.430   6.175  1.4532  0.3527  2.7733
  811MOL0     H 7031   1.768   1.300   6.195 -0.0424 -1.0907  1.3909
  811MOL0     H 7032   1.788   1.448   6.397  1.3438  1.2009 -2.8427
  811MOL0     H 7033   1.954   1.389   6.425 -0.4379  1.2339  1.6005
  811MOL0     H 7034   2.324   0.986   5.411  2.2650 -1.1601 -1.0225
  811MOL0     H 7035   2.391   1.050   5.191  0.2293  0.1491  0.0788
  811MOL0     H 7036   2.611   1.370   4.896 -0.9635 -0.1973  1.0781
  811MOL0     H 7037   2.686   1.529   4.747  1.6161  2.4978  2.4149
  811MOL0     H 7038   1.153   1.125   4.499 -2.0099 -1.3234  1.7233
  811MOL0     H 7039   0.972   1.188   4.642  0.8318 -1.5872  1.8812
  811MOL0     H 7040   0.694   1.370   4.798 -1.4908 -0.8736  0.4188
  811MOL0     H 7041   0.482   1.473   4.937 -0.0635 -0.6916 -0.6402
  811MOL0     H 7042   0.333   1.593   5.032  2.3446 -2.1069  0.3582
  811MOL0     H 7043   0.474   1.699   5.022 -0.4545 -0.8015 -0.2079
  811MOL0     H 7044   0.337   1.708   5.274  5.1454  0.5081  0.0765
  811MOL0     H 7045   0.426   1.821   5.187 -0.1293 -1.1596 -0.1117
  811MOL0     H 7046   0.139   1.745   5.109  0.5418 -0.7665  4.1739
  811MOL0     H 7047   0.247   1.845   5.007  1.0407  1.0253  0.8887
  811MOL0     H 7048   0.270   2.015   5.176  1.0490 -1.0425  1.7712
  811MOL0     H 7049   0.112   2.001   5.112  0.8900  0.2642 -1.5373
  811MOL0     H 7050   0.020   1.901   5.503 -2.6084  1.9032 -1.0342
  811MOL0     H 7051   0.714   1.492   5.293 -4.3639  0.6988  0.3863
  811MOL0     H 7052   0.911   1.419   5.167 -0.0096  0.1775 -0.9284
  812MOL0     O 7053   2.398   9.709   4.146  0.2019  0.6341 -0.0509
  812MOL0     C 7054   2.327   9.776   4.072  0.4700 -0.5484 -0.3137
  812MOL0     O 7055   2.369   9.855   3.966 -0.0884  0.2691 -0.3457
  812MOL0     C 7056   2.504   9.861   3.952  0.4456  0.9812 -0.2012
  812MOL0     C 7057   2.566   9.757   3.875 -0.8838  0.1393 -0.3888
  812MOL0     C 7058   2.710   9.751   3.875 -0.5321 -0.6467 -0.1915
  812MOL0     C 7059   2.784   9.843   3.949  0.0212 -0.3162 -0.5091
  812MOL0     O 7060   2.913   9.827   3.946 -0.1587 -0.8898 -0.1960
  812MOL0     C 7061   3.005   9.937   3.981  0.5604 -0.3506  0.0014
  812MOL0     C 7062   3.141   9.923   3.918 -0.0896 -0.5012 -0.9253
  812MOL0     C 7063   3.191   9.781   3.949  0.4420  0.4266 -0.0726
  812MOL0     C 7064   3.325   9.749   3.865  0.4559 -0.4887  1.1645
  812MOL0     C 7065   3.418   9.649   3.932 -0.2806  0.8326 -0.5075
  812MOL0     C 7066   3.525   9.588   3.832  1.0101  0.7102 -0.4786
  812MOL0     C 7067   3.649   9.536   3.900  0.1612 -0.6744  0.0750
  812MOL0     C 7068   3.758   9.509   3.799 -0.3864 -0.7395 -0.4419
  812MOL0     N 7069   3.873   9.443   3.874 -0.0629 -0.5914  0.6313
  812MOL0     C 7070   3.956   9.508   3.970 -0.1180  0.3183 -0.1942
  812MOL0     C 7071   4.055   9.420   3.991  0.5064 -0.1266 -0.4913
  812MOL0     C 7072   4.166   9.440   4.096 -0.1246  0.4152  0.4002
  812MOL0     C 7073   4.173   9.328   4.203  0.1172  0.0550 -0.5579
  812MOL0     C 7074   4.039   9.266   4.229 -0.4974  1.1664 -0.2321
  812MOL0     C 7075   4.046   9.172   4.350 -0.2455 -0.2823  0.0694
  812MOL0     O 7076   3.930   9.092   4.377  0.2606 -0.6989  0.5062
  812MOL0     C 7077   3.809   9.130   4.329 -0.5905  0.3704  0.9011
  812MOL0     C 7078   3.774   9.106   4.195 -0.1225  0.3250 -0.6524
  812MOL0     C 7079   3.647   9.138   4.140 -0.2004 -0.5274 -0.3053
  812MOL0     C 7080   3.544   9.188   4.222  0.1296 -0.3569 -0.2471
  812MOL0     C 7081   3.411   9.234   4.168  0.0210 -0.5242  1.0246
  812MOL0     O 7082   3.326   9.293   4.257  0.0786 -0.5489  0.6230
  812MOL0     C 7083   3.193   9.315   4.232  0.2011 -0.2787 -0.2942
  812MOL0     C 7084   3.126   9.332   4.111  0.5437 -0.2706  0.7675
  812MOL0     C 7085   2.997   9.386   4.108 -0.4013  0.3329 -0.5349
  812MOL0     C 7086   2.924   9.399   4.227 -0.4977  0.4876  0.2200
  812MOL0     O 7087   2.795   9.451   4.230  0.2036 -0.2118 -0.8495
  812MOL0     C 7088   2.697   9.356   4.168 -0.2184 -0.4963 -1.0398
  812MOL0     C 7089   2.626   9.290   4.283 -1.0668 -0.3326 -0.8281
  812MOL0     C 7090   2.486   9.253   4.248  0.6288  0.0125  0.6612
  812MOL0     C 7091   2.464   9.183   4.114  0.2157  0.4180 -0.1388
  812MOL0     C 7092   2.324   9.175   4.055  0.2689 -0.0951 -0.6298
  812MOL0     C 7093   2.230   9.092   4.147  0.1084  0.1074 -1.0512
  812MOL0     C 7094   2.085   9.085   4.082  0.4040  0.9330 -0.2182
  812MOL0     C 7095   1.983   9.015   4.157 -0.6219  0.1712  0.1093
  812MOL0    Cl 7096   1.837   8.987   4.046 -0.2818  0.0369 -0.3843
  812MOL0     C 7097   2.982   9.366   4.351  1.5248 -0.0268  0.7645
  812MOL0     C 7098   3.119   9.328   4.348  0.1817  0.6200  0.2205
  812MOL0     O 7099   3.384   9.218   4.051 -0.0578 -0.0522 -0.2342
  812MOL0     C 7100   3.577   9.211   4.359 -0.4051 -0.7483 -0.3772
  812MOL0     C 7101   3.711   9.180   4.414  0.2579  0.3198  0.3319
  812MOL0     N 7102   4.040   9.308   3.906  0.3674 -0.5444  0.2436
  812MOL0     N 7103   3.936   9.331   3.827  0.1309  1.0334  0.4360
  812MOL0     C 7104   2.714   9.943   4.022  0.4415 -0.2457  0.6578
  812MOL0     C 7105   2.576   9.953   4.027  0.1267 -0.0882 -0.1936
  812MOL0     C 7106   2.179   9.777   4.090  0.3175  0.3532  0.0798
  812MOL0     C 7107   2.097   9.877   4.023 -0.6037  0.2077  0.9320
  812MOL0     C 7108   1.961   9.875   4.034  0.1066  0.6031  0.3947
  812MOL0     C 7109   1.893   9.790   4.128 -0.3932  0.1030  0.0984
  812MOL0     O 7110   1.765   9.790   4.177 -0.9073 -0.5802 -0.0625
  812MOL0     C 7111   1.668   9.900   4.153  0.1433 -0.5369 -0.2341
  812MOL0     C 7112   1.542   9.877   4.235 -0.3526 -0.0597 -0.2654
  812MOL0     C 7113   1.440   9.984   4.220  0.6096 -0.4312 -0.1331
  812MOL0     C 7114   1.453  10.110   4.317 -0.4254 -0.9116  0.4847
  812MOL0     C 7115   1.345  10.199   4.274  0.3541 -0.1040  0.1817
  812MOL0     C 7116   1.272  10.275   4.223 -0.0484  0.4092  0.2070
  812MOL0     C 7117   1.970   9.697   4.187 -1.0901  0.2704 -0.5256
  812MOL0     C 7118   2.108   9.693   4.174  0.0289 -0.4597 -0.8025
  812MOL0     H 7119   2.508   9.682   3.822 -0.7231 -1.1473  1.1985
  812MOL0     H 7120   2.763   9.672   3.824  2.4758  2.2448 -1.8900
  812MOL0     H 7121   3.018   9.939   4.090  1.3333 -0.8778 -0.0749
  812MOL0     H 7122   2.967  10.031   3.942  1.4846 -0.6475 -1.6737
  812MOL0     H 7123   3.210   9.993   3.966 -1.5414  1.5641 -1.7391
  812MOL0     H 7124   3.149   9.942   3.811  2.5553 -0.8460 -0.8641
  812MOL0     H 7125   3.112   9.708   3.929  0.3181 -0.4555  3.1637
  812MOL0     H 7126   3.216   9.761   4.053  1.7408  1.4481 -0.1530
  812MOL0     H 7127   3.304   9.734   3.759 -1.2109 -1.1213  1.5370
  812MOL0     H 7128   3.387   9.839   3.874  1.1348 -0.7096 -0.7581
  812MOL0     H 7129   3.350   9.570   3.965 -0.6245  0.3070 -2.3546
  812MOL0     H 7130   3.464   9.698   4.018 -0.3752  1.7145 -0.9462
  812MOL0     H 7131   3.548   9.655   3.749 -1.2132  0.2854 -1.5244
  812MOL0     H 7132   3.465   9.502   3.799  1.2178 -0.4813  1.9825
  812MOL0     H 7133   3.682   9.604   3.980  1.2184 -2.5422  1.3089
  812MOL0     H 7134   3.623   9.442   3.948  0.7568 -0.2215  1.3351
  812MOL0     H 7135   3.813   9.596   3.761  0.3827 -1.3170 -0.6855
  812MOL0     H 7136   3.726   9.436   3.723 -3.2266  1.4370 -1.4936
  812MOL0     H 7137   3.941   9.600   4.026  1.6456 -0.0932  1.0191
  812MOL0     H 7138   4.146   9.531   4.154  0.5894  0.4347  0.6149
  812MOL0     H 7139   4.259   9.457   4.042 -1.3730 -0.9867 -2.4242
  812MOL0     H 7140   4.222   9.373   4.290 -0.2846  1.2851 -0.9549
  812MOL0     H 7141   4.227   9.240   4.167  1.2531  0.6014 -0.2570
  812MOL0     H 7142   3.970   9.349   4.245 -1.2246  0.3745  0.8516
  812MOL0     H 7143   4.019   9.204   4.142  1.5487 -0.6662  0.5224
  812MOL0     H 7144   4.074   9.221   4.444  0.0518  1.0903 -0.7265
  812MOL0     H 7145   4.131   9.104   4.335 -0.3198 -0.5046  0.5947
  812MOL0     H 7146   3.841   9.055   4.127 -2.4875 -5.6159  0.8256
  812MOL0     H 7147   3.613   9.127   4.037 -1.5600 -1.1383  0.1982
  812MOL0     H 7148   3.186   9.330   4.020  1.5220 -2.4449  1.3894
  812MOL0     H 7149   2.958   9.401   4.008 -0.4951 -1.5020 -0.8038
  812MOL0     H 7150   2.762   9.285   4.116  1.5729  1.2478 -1.3119
  812MOL0     H 7151   2.636   9.414   4.099  2.2399 -0.1372 -3.0476
  812MOL0     H 7152   2.640   9.344   4.378  0.3571 -1.6082 -0.2760
  812MOL0     H 7153   2.669   9.192   4.307  1.1768  0.8173  0.1353
  812MOL0     H 7154   2.421   9.341   4.252  0.8096  0.1877 -0.0353
  812MOL0     H 7155   2.439   9.191   4.325 -1.8612  1.6628  0.5994
  812MOL0     H 7156   2.521   9.235   4.037 -1.4514 -0.3993 -2.0160
  812MOL0     H 7157   2.497   9.078   4.119  1.9728  0.9521  0.1868
  812MOL0     H 7158   2.333   9.138   3.952 -2.7444  2.1529 -1.8637
  812MOL0     H 7159   2.285   9.277   4.052 -0.1864 -0.2478 -0.0549
  812MOL0     H 7160   2.217   9.133   4.248  0.3355 -0.3719 -0.8260
  812MOL0     H 7161   2.270   8.993   4.172  0.9485  1.1338  2.1519
  812MOL0     H 7162   2.051   9.187   4.063  2.2099  2.0058  1.8390
  812MOL0     H 7163   2.094   9.032   3.986  0.4421 -0.1269  0.3511
  812MOL0     H 7164   1.950   9.069   4.246 -2.2882  0.2750 -0.5332
  812MOL0     H 7165   2.024   8.919   4.191 -0.5860  0.4485  0.8562
  812MOL0     H 7166   2.939   9.374   4.450  1.4644  1.3091  0.6461
  812MOL0     H 7167   3.177   9.308   4.437  1.0976  2.2707  0.0409
  812MOL0     H 7168   3.502   9.254   4.424  1.4282  3.7501 -0.8832
  812MOL0     H 7169   3.723   9.193   4.521  3.1344 -4.2974  0.8673
  812MOL0     H 7170   2.767  10.019   4.077  1.3307 -0.9280  0.7778
  812MOL0     H 7171   2.511  10.015   4.089 -0.1482 -0.4549 -0.1096
  812MOL0     H 7172   2.130   9.953   3.953 -4.9115  0.3995 -1.1722
  812MOL0     H 7173   1.898   9.950   3.988  0.8441  1.6497  1.0496
  812MOL0     H 7174   1.647   9.898   4.045  0.1097  2.6336 -0.3750
  812MOL0     H 7175   1.718   9.995   4.174  0.6871 -0.8992  0.1293
  812MOL0     H 7176   1.509   9.781   4.195  0.3643 -1.5208  2.3681
  812MOL0     H 7177   1.563   9.872   4.343  1.2375 -3.6459 -0.5778
  812MOL0     H 7178   1.341   9.938   4.227  0.6993 -0.8901 -1.5821
  812MOL0     H 7179   1.438  10.008   4.114 -0.4411 -0.9875 -0.2477
  812MOL0     H 7180   1.444  10.091   4.424 -2.8179  0.9871  0.7041
  812MOL0     H 7181   1.550  10.150   4.289 -0.8656 -1.0902 -1.5077
  812MOL0     H 7182   1.216  10.341   4.159  1.6078  0.7528 -0.9718
  812MOL0     H 7183   1.919   9.618   4.240 -1.8122  0.1652 -1.3531
  812MOL0     H 7184   2.171   9.615   4.216 -2.2021 -1.4078  1.0212
  813MOL0     O 7185   2.248   7.155  10.230  0.5210 -0.2564  0.0879
  813MOL0     C 7186   2.260   7.282  10.226 -0.0093  0.2708 -0.2865
  813MOL0     O 7187   2.169   7.369  10.273  0.4553  0.4797  0.7799
  813MOL0     C 7188   2.050   7.324  10.312 -0.3462  0.8602 -1.0266
  813MOL0     C 7189   1.953   7.266  10.230 -0.1135  0.4671  0.1343
  813MOL0     C 7190   1.826   7.222  10.267  0.3900  0.0917  0.0451
  813MOL0     C 7191   1.787   7.247  10.395  0.1815  0.3594 -0.3927
  813MOL0     O 7192   1.667   7.183  10.421  0.4503  0.0276 -0.4981
  813MOL0     C 7193   1.587   7.243  10.520 -0.5061 -1.2753  0.3160
  813MOL0     C 7194   1.508   7.360  10.458 -0.5064  0.6675  0.6870
  813MOL0     C 7195   1.417   7.437  10.550 -0.0877 -0.4370 -0.0099
  813MOL0     C 7196   1.488   7.534  10.646 -0.6589 -0.2335 -0.5681
  813MOL0     C 7197   1.403   7.587  10.771 -0.2707 -0.5465 -0.7205
  813MOL0     C 7198   1.315   7.704  10.740 -0.4590  0.2063 -0.0851
  813MOL0     C 7199   1.247   7.777  10.853  0.0735  0.6157  0.5539
  813MOL0     C 7200   1.127   7.699  10.904 -0.2982  0.3827  0.3572
  813MOL0     N 7201   1.007   7.711  10.819  0.5465  0.1143 -0.6976
  813MOL0     C 7202   0.942   7.609  10.763 -0.7383 -0.1758  1.1399
  813MOL0     C 7203   0.846   7.665  10.688  0.0760  0.9268 -0.3231
  813MOL0     C 7204   0.757   7.581  10.604  0.3312 -0.1403 -0.1124
  813MOL0     C 7205   0.608   7.579  10.638 -0.6540  0.7089 -0.1700
  813MOL0     C 7206   0.582   7.515  10.771 -0.4802  0.3086 -0.1389
  813MOL0     C 7207   0.522   7.382  10.781 -0.4814 -0.1511  0.8641
  813MOL0     O 7208   0.631   7.290  10.736 -0.5084  0.5360 -0.1835
  813MOL0     C 7209   0.752   7.275  10.800 -0.0797  0.0213  0.0756
  813MOL0     C 7210   0.777   7.301  10.933 -0.1877  0.1874 -0.5513
  813MOL0     C 7211   0.904   7.266  10.990  0.6837 -0.2620 -0.0676
  813MOL0     C 7212   1.008   7.224  10.897  0.2031 -0.3759 -0.0597
  813MOL0     C 7213   1.154   7.225  10.950 -0.2127 -0.6808  0.9231
  813MOL0     O 7214   1.172   7.196  11.085 -0.8267  0.2628  0.3037
  813MOL0     C 7215   1.302   7.207  11.135  0.3938 -0.7130 -0.3723
  813MOL0     C 7216   1.408   7.127  11.100  0.8954  0.1895 -0.1905
  813MOL0     C 7217   1.535   7.155  11.142  0.5006 -0.0373  0.5509
  813MOL0     C 7218   1.562   7.260  11.230  0.2517 -0.5354 -0.2101
  813MOL0     O 7219   1.687   7.297  11.263 -0.1968 -0.0649  0.1340
  813MOL0     C 7220   1.731   7.280  11.398 -0.0140 -0.3595  0.5698
  813MOL0     C 7221   1.877   7.294  11.410 -0.6002  1.0605  0.5181
  813MOL0     C 7222   1.936   7.259  11.560 -0.5073  0.1670 -0.1331
  813MOL0     C 7223   2.089   7.285  11.564  0.9249 -0.4533  0.1362
  813MOL0     C 7224   2.154   7.229  11.696  0.8611 -0.2729 -0.0976
  813MOL0     C 7225   2.305   7.234  11.682  0.6017  0.4839  0.2929
  813MOL0     C 7226   2.349   7.382  11.692 -0.5519  0.4150 -0.9326
  813MOL0     C 7227   2.497   7.384  11.656 -0.0375  0.2616 -0.0847
  813MOL0    Cl 7228   2.568   7.555  11.679  0.3618  0.0708 -0.4142
  813MOL0     C 7229   1.454   7.347  11.254  0.4090  1.0653 -0.0219
  813MOL0     C 7230   1.318   7.320  11.221 -0.6029  1.0367 -0.3288
  813MOL0     O 7231   1.244   7.236  10.867  0.4080  0.7159  1.0705
  813MOL0     C 7232   0.987   7.223  10.761 -0.1343 -0.0809  0.0090
  813MOL0     C 7233   0.852   7.240  10.708 -0.0532  0.3399 -0.1906
  813MOL0     N 7234   0.854   7.805  10.704 -0.0728 -0.0317 -0.9489
  813MOL0     N 7235   0.950   7.827  10.788  0.1995 -0.2743  0.0126
  813MOL0     C 7236   1.881   7.289  10.487 -0.1351 -0.9468  0.2244
  813MOL0     C 7237   2.018   7.332  10.447  0.3263 -0.8547  0.0332
  813MOL0     C 7238   2.379   7.336  10.169  0.4262 -0.6353  1.4110
  813MOL0     C 7239   2.490   7.263  10.118 -0.1763  0.3436  0.1165
  813MOL0     C 7240   2.608   7.319  10.067  1.1225 -0.0170 -0.0336
  813MOL0     C 7241   2.622   7.457  10.051 -0.2505 -0.3057 -0.1298
  813MOL0     O 7242   2.741   7.504   9.996  0.3270  0.7229  0.6966
  813MOL0     C 7243   2.744   7.638   9.941 -0.2841 -0.6894  0.7409
  813MOL0     C 7244   2.900   7.667   9.917 -0.0352  0.8213 -0.0724
  813MOL0     C 7245   2.933   7.816   9.933  0.7717 -0.5630  0.4033
  813MOL0     C 7246   2.845   7.907   9.838 -0.3272 -0.3595  0.2206
  813MOL0     C 7247   2.739   7.977   9.906  0.0329  0.0243 -0.4072
  813MOL0     C 7248   2.644   8.034   9.958  0.1468  0.0714 -0.5280
  813MOL0     C 7249   2.509   7.538  10.084  0.5000 -0.7156  0.5221
  813MOL0     C 7250   2.390   7.479  10.138  0.4748  0.2922 -0.0567
  813MOL0     H 7251   1.977   7.256  10.124  1.3268  0.5170  0.4366
  813MOL0     H 7252   1.758   7.167  10.203  1.8620 -2.2751  0.3791
  813MOL0     H 7253   1.644   7.278  10.607  0.3161  0.3954 -0.8428
  813MOL0     H 7254   1.521   7.169  10.566 -2.3592 -0.0023 -0.2181
  813MOL0     H 7255   1.446   7.316  10.379 -0.3328  1.5322  0.0494
  813MOL0     H 7256   1.584   7.427  10.416 -0.6287  1.0102  1.0123
  813MOL0     H 7257   1.365   7.364  10.612 -0.6542  0.8754  1.1258
  813MOL0     H 7258   1.335   7.489  10.499 -0.8074 -1.2991  0.2414
  813MOL0     H 7259   1.578   7.479  10.677 -0.7770  0.5232  1.2400
  813MOL0     H 7260   1.533   7.621  10.596 -1.1456  0.7871  0.7130
  813MOL0     H 7261   1.485   7.615  10.839  0.5484  0.5747 -2.0965
  813MOL0     H 7262   1.349   7.504  10.815 -1.8343 -0.6327 -2.6681
  813MOL0     H 7263   1.246   7.671  10.662  0.7761 -3.9371  0.3393
  813MOL0     H 7264   1.370   7.787  10.696  3.2973 -2.3299 -0.6444
  813MOL0     H 7265   1.324   7.785  10.931 -0.3012 -1.3299  1.1768
  813MOL0     H 7266   1.214   7.878  10.826  0.2468  0.8234  1.0921
  813MOL0     H 7267   1.092   7.746  10.997 -2.0828 -0.6818  0.2702
  813MOL0     H 7268   1.148   7.593  10.924  1.2121  0.5277 -0.3161
  813MOL0     H 7269   0.968   7.504  10.772 -0.4648 -0.1021  1.2107
  813MOL0     H 7270   0.782   7.474  10.613 -0.8789 -1.0236 -4.5080
  813MOL0     H 7271   0.777   7.605  10.499 -1.8613  2.7661  0.0272
  813MOL0     H 7272   0.544   7.530  10.564  0.0402  0.5134 -0.6544
  813MOL0     H 7273   0.564   7.679  10.639 -2.0115  0.1508  1.5617
  813MOL0     H 7274   0.663   7.528  10.843  1.4456  0.2285 -2.1863
  813MOL0     H 7275   0.502   7.569  10.822 -0.3702 -0.8268  1.2950
  813MOL0     H 7276   0.431   7.374  10.721 -1.1238  1.1104  1.6374
  813MOL0     H 7277   0.499   7.376  10.887 -1.1567  0.1170  0.7366
  813MOL0     H 7278   0.705   7.357  10.992  0.8073 -0.3033  1.1960
  813MOL0     H 7279   0.920   7.284  11.095  2.9289 -4.4798  0.5186
  813MOL0     H 7280   1.389   7.042  11.036  2.2620 -0.4478  0.2349
  813MOL0     H 7281   1.612   7.089  11.102  0.2377 -0.6875  1.1052
  813MOL0     H 7282   1.690   7.183  11.428 -0.3951 -0.0768  0.9781
  813MOL0     H 7283   1.686   7.347  11.473 -1.2589  0.0296 -0.4936
  813MOL0     H 7284   1.893   7.401  11.393 -1.2898  0.7795 -2.3642
  813MOL0     H 7285   1.925   7.231  11.335 -3.3281  1.6287 -1.9203
  813MOL0     H 7286   1.919   7.154  11.583  0.6120 -0.1965 -0.9186
  813MOL0     H 7287   1.886   7.319  11.638 -1.7247  1.8455 -2.0840
  813MOL0     H 7288   2.131   7.225  11.482 -2.9234 -1.6637 -1.2044
  813MOL0     H 7289   2.099   7.393  11.549 -2.1693 -0.0704  0.1878
  813MOL0     H 7290   2.116   7.127  11.699  0.8668 -0.2723  0.0043
  813MOL0     H 7291   2.120   7.265  11.794  0.9896 -0.0116 -0.1491
  813MOL0     H 7292   2.322   7.189  11.584 -0.1033 -1.4124  0.9970
  813MOL0     H 7293   2.357   7.175  11.759  1.4182  1.1526  0.2681
  813MOL0     H 7294   2.294   7.448  11.624 -1.1645 -0.7322 -1.5650
  813MOL0     H 7295   2.312   7.401  11.794 -1.8873  0.4576 -1.4076
  813MOL0     H 7296   2.511   7.353  11.552 -3.1743  2.2267 -1.2487
  813MOL0     H 7297   2.554   7.322  11.725  1.8793  4.0624  2.0073
  813MOL0     H 7298   1.474   7.441  11.307 -1.7466  1.4208  0.2588
  813MOL0     H 7299   1.242   7.382  11.268 -0.2793  1.3701 -0.2329
  813MOL0     H 7300   1.067   7.200  10.691  1.9705 -0.3479  2.3909
  813MOL0     H 7301   0.828   7.221  10.604 -2.8468  1.0204  0.2378
  813MOL0     H 7302   1.849   7.300  10.590 -4.0979  0.4930 -0.9783
  813MOL0     H 7303   2.088   7.384  10.512  0.0474  0.4451 -0.6669
  813MOL0     H 7304   2.487   7.154  10.119  1.5384  0.2533 -0.7646
  813MOL0     H 7305   2.686   7.250  10.037  2.1956  1.9226 -2.0237
  813MOL0     H 7306   2.709   7.720  10.005 -0.1578  1.5392 -1.8624
  813MOL0     H 7307   2.692   7.641   9.845  1.8437 -0.5344 -0.4744
  813MOL0     H 7308   2.957   7.617   9.996 -0.3446  0.6206  0.0291
  813MOL0     H 7309   2.928   7.626   9.820 -1.0968 -1.5585  0.5366
  813MOL0     H 7310   3.036   7.847   9.917  1.2793 -1.6794  1.3433
  813MOL0     H 7311   2.900   7.833  10.036 -0.6566 -4.1355  0.6838
  813MOL0     H 7312   2.907   7.977   9.781 -0.7452  1.0127  1.3747
  813MOL0     H 7313   2.792   7.853   9.759 -4.7443 -1.0375  3.2725
  813MOL0     H 7314   2.562   8.079  10.012 -0.7622 -2.8273  0.7141
  813MOL0     H 7315   2.498   7.645  10.069 -0.4580 -0.7153  1.1426
  813MOL0     H 7316   2.305   7.542  10.164  3.1118  4.8711 -1.3681
  814MOL0     O 7317   9.982   8.701   3.708  0.1783 -0.1438 -0.1068
  814MOL0     C 7318  10.050   8.770   3.631 -0.0966  0.2699  0.6906
  814MOL0     O 7319   9.998   8.869   3.565 -0.3584  0.9245  0.2453
  814MOL0     C 7320   9.866   8.865   3.535 -0.0354 -0.5661 -0.1697
  814MOL0     C 7321   9.766   8.918   3.612 -0.0580  0.2104 -0.5246
  814MOL0     C 7322   9.636   8.919   3.565 -0.0130  0.2931  0.4653
  814MOL0     C 7323   9.593   8.867   3.444 -0.5192  0.0993  0.2929
  814MOL0     O 7324   9.454   8.867   3.419  0.5077 -0.2564 -0.2035
  814MOL0     C 7325   9.393   8.791   3.312 -0.4408 -0.2524  0.0233
  814MOL0     C 7326   9.248   8.848   3.296 -0.2915  0.4869  0.3974
  814MOL0     C 7327   9.157   8.789   3.182  0.2170  0.1820  0.3401
  814MOL0     C 7328   9.009   8.836   3.195  0.3867 -0.3727  0.3290
  814MOL0     C 7329   8.932   8.821   3.059  0.2021 -0.4696  0.1012
  814MOL0     C 7330   8.786   8.892   3.055 -0.3518 -0.3266  0.3938
  814MOL0     C 7331   8.683   8.780   3.085 -0.3408 -0.4926 -0.4752
  814MOL0     C 7332   8.644   8.692   2.962  0.8787  0.0995  0.0647
  814MOL0     N 7333   8.555   8.758   2.866 -0.1873  0.1061  0.1412
  814MOL0     C 7334   8.437   8.816   2.896 -0.5877  0.3022 -0.0716
  814MOL0     C 7335   8.416   8.899   2.795  0.1455  0.3112  0.3512
  814MOL0     C 7336   8.318   9.020   2.811  0.0528  0.1207 -0.1597
  814MOL0     C 7337   8.216   9.006   2.693  0.0472  0.1731 -0.3824
  814MOL0     C 7338   8.133   9.133   2.684 -0.1752 -0.3562  0.2267
  814MOL0     C 7339   7.991   9.102   2.643  0.4827  0.3591 -0.8594
  814MOL0     O 7340   7.933   9.052   2.764 -0.0307 -0.2176  0.8039
  814MOL0     C 7341   7.815   8.988   2.745  0.1445  0.2026 -0.3503
  814MOL0     C 7342   7.827   8.856   2.711  0.7218  0.3593  0.1303
  814MOL0     C 7343   7.710   8.769   2.721  0.4804 -0.0335  0.1317
  814MOL0     C 7344   7.584   8.820   2.761  0.6572 -0.9961 -0.0378
  814MOL0     C 7345   7.470   8.724   2.767 -0.3240 -0.3538  0.0126
  814MOL0     O 7346   7.343   8.769   2.783  0.0868 -0.0462  0.2720
  814MOL0     C 7347   7.233   8.684   2.781  0.8943 -0.6263 -0.3088
  814MOL0     C 7348   7.184   8.631   2.662  0.7510  0.7907 -0.1725
  814MOL0     C 7349   7.076   8.541   2.675  0.7022 -0.4652 -0.3456
  814MOL0     C 7350   7.017   8.499   2.798  0.3420 -0.3048  0.6107
  814MOL0     O 7351   6.922   8.395   2.800 -0.9836 -0.5916  0.5049
  814MOL0     C 7352   6.944   8.298   2.902  0.3036  1.2521 -0.0475
  814MOL0     C 7353   6.864   8.171   2.883  0.3289  0.1084  0.9353
  814MOL0     C 7354   6.889   8.123   2.738  0.0614  0.6614 -0.1238
  814MOL0     C 7355   6.829   7.985   2.712 -0.4007 -0.7839  0.0843
  814MOL0     C 7356   6.810   7.944   2.568  1.0315 -0.7963  0.5990
  814MOL0     C 7357   6.936   7.940   2.485  0.1762  1.0158 -0.7151
  814MOL0     C 7358   6.899   7.908   2.337  0.1269  0.6714 -0.4364
  814MOL0     C 7359   6.839   7.768   2.301  0.1469 -0.3111  0.1377
  814MOL0    Cl 7360   6.950   7.635   2.363  0.2639 -0.0304 -0.3114
  814MOL0     C 7361   7.066   8.566   2.919  0.5949  0.4564 -0.3897
  814MOL0     C 7362   7.170   8.643   2.905 -1.3811 -0.3549 -0.3214
  814MOL0     O 7363   7.497   8.600   2.747 -0.2356 -0.3158  0.6717
  814MOL0     C 7364   7.577   8.957   2.804  1.2697  0.1444 -0.2593
  814MOL0     C 7365   7.695   9.040   2.792  0.3938 -0.9753  0.1630
  814MOL0     N 7366   8.511   8.880   2.703  0.4697  0.1331  0.2173
  814MOL0     N 7367   8.590   8.801   2.749 -0.3555  0.0104 -0.0045
  814MOL0     C 7368   9.693   8.807   3.362  0.1883 -0.4303  0.3085
  814MOL0     C 7369   9.822   8.810   3.413 -0.1880 -0.2987 -0.2465
  814MOL0     C 7370  10.196   8.760   3.640  0.5761 -0.5326 -0.9321
  814MOL0     C 7371  10.260   8.641   3.687  0.8012 -0.7033 -0.4998
  814MOL0     C 7372  10.395   8.616   3.669 -0.0206  0.7928 -0.4840
  814MOL0     C 7373  10.475   8.717   3.612  0.3924 -0.1976  0.6469
  814MOL0     O 7374  10.614   8.692   3.598  0.8310 -0.1347 -0.1450
  814MOL0     C 7375  10.691   8.733   3.711  0.5580  0.8524  0.6558
  814MOL0     C 7376  10.842   8.756   3.677 -0.6289 -0.2282  0.2163
  814MOL0     C 7377  10.865   8.858   3.561  0.3122  0.0212  0.1715
  814MOL0     C 7378  11.006   8.865   3.517  0.3930  0.2461 -0.7459
  814MOL0     C 7379  11.021   8.952   3.398 -0.4423 -0.2728  0.4056
  814MOL0     C 7380  11.038   9.019   3.292  0.5636 -1.0698  0.0505
  814MOL0     C 7381  10.414   8.837   3.573  0.2398  0.3547  0.5588
  814MOL0     C 7382  10.280   8.869   3.590  0.2954  0.0837  0.9676
  814MOL0     H 7383   9.780   8.949   3.715 -3.8920  2.7825 -0.5486
  814MOL0     H 7384   9.556   8.958   3.627  0.4296  0.5003  0.9151
  814MOL0     H 7385   9.386   8.685   3.339  1.3035 -0.2650  0.5405
  814MOL0     H 7386   9.448   8.799   3.218 -1.6001 -1.5792 -0.8167
  814MOL0     H 7387   9.267   8.955   3.298  3.2619 -0.0214  0.8428
  814MOL0     H 7388   9.198   8.817   3.389  1.9718 -0.6687  1.3103
  814MOL0     H 7389   9.151   8.680   3.181 -1.5228  0.2430  0.6810
  814MOL0     H 7390   9.204   8.820   3.088 -0.1905  1.2835  0.4904
  814MOL0     H 7391   8.948   8.779   3.266  0.1290  1.7603  1.9139
  814MOL0     H 7392   9.008   8.941   3.226  3.8265  0.1787 -1.0251
  814MOL0     H 7393   8.932   8.717   3.026  0.0585 -0.8874  1.3878
  814MOL0     H 7394   8.994   8.873   2.985 -0.1470 -0.8249 -0.4505
  814MOL0     H 7395   8.760   8.941   2.961 -0.2678 -2.6976 -0.9232
  814MOL0     H 7396   8.780   8.980   3.120 -2.2327  1.9195 -2.5605
  814MOL0     H 7397   8.727   8.717   3.163 -1.7762 -0.4685  0.4067
  814MOL0     H 7398   8.590   8.818   3.128 -0.7727 -0.6607 -1.2421
  814MOL0     H 7399   8.592   8.611   3.013  0.3484 -0.0607 -0.7065
  814MOL0     H 7400   8.734   8.657   2.910  0.4359  0.9614 -1.3568
  814MOL0     H 7401   8.385   8.805   2.990  2.3811  0.3999  1.6930
  814MOL0     H 7402   8.363   9.120   2.814 -1.0879  0.6332  0.3610
  814MOL0     H 7403   8.273   9.006   2.910  3.1787 -2.8638  1.0602
  814MOL0     H 7404   8.156   8.917   2.714 -1.2031  0.9658 -0.4665
  814MOL0     H 7405   8.273   8.981   2.603  0.2807  1.0297 -0.4777
  814MOL0     H 7406   8.132   9.191   2.777  2.1885 -0.0770  0.1248
  814MOL0     H 7407   8.171   9.207   2.614  1.9714 -0.4347  1.2281
  814MOL0     H 7408   7.997   9.031   2.561  3.3888  1.6691 -1.9449
  814MOL0     H 7409   7.939   9.194   2.614  1.8565  2.4348  2.6458
  814MOL0     H 7410   7.927   8.817   2.694  0.1029 -1.4032  0.2267
  814MOL0     H 7411   7.713   8.663   2.698  0.2272  0.0210 -0.1571
  814MOL0     H 7412   7.220   8.654   2.562  0.7189 -1.2183 -0.6972
  814MOL0     H 7413   7.038   8.487   2.588 -1.5494  0.1304  0.2068
  814MOL0     H 7414   6.916   8.328   3.003  1.1663 -1.2529  1.0247
  814MOL0     H 7415   7.049   8.265   2.896 -0.5114 -1.4397 -0.9196
  814MOL0     H 7416   6.757   8.193   2.897  0.0562  0.2430 -1.0458
  814MOL0     H 7417   6.899   8.087   2.944 -0.7576 -1.5569 -0.6180
  814MOL0     H 7418   6.996   8.104   2.724 -0.3137 -1.1264 -0.9079
  814MOL0     H 7419   6.855   8.195   2.663  2.5636  0.1398 -1.8821
  814MOL0     H 7420   6.894   7.913   2.762  0.0185 -1.6105 -1.5918
  814MOL0     H 7421   6.731   7.990   2.761 -0.8292  0.0682 -0.8302
  814MOL0     H 7422   6.738   8.019   2.534  2.3613  0.5194  0.5681
  814MOL0     H 7423   6.764   7.845   2.569  0.1191 -0.3820  0.4881
  814MOL0     H 7424   7.006   7.864   2.521  0.3422  1.8182  0.7713
  814MOL0     H 7425   6.987   8.037   2.482  0.2961  0.9281 -1.6065
  814MOL0     H 7426   6.824   7.984   2.312 -1.4273  0.2452  2.5005
  814MOL0     H 7427   6.984   7.922   2.270  0.0597 -1.0237 -0.9252
  814MOL0     H 7428   6.818   7.759   2.194 -3.4388 -1.9743  0.8492
  814MOL0     H 7429   6.746   7.759   2.358 -0.6378  3.3322 -0.3224
  814MOL0     H 7430   7.017   8.544   3.013 -0.4760  0.7439 -0.8633
  814MOL0     H 7431   7.208   8.681   2.999 -1.8465 -1.0159  0.1505
  814MOL0     H 7432   7.479   8.986   2.842  1.4850 -0.6184  0.9133
  814MOL0     H 7433   7.678   9.135   2.841  0.2107 -1.1128  0.3678
  814MOL0     H 7434   9.676   8.779   3.259  0.6976  3.8399 -1.1318
  814MOL0     H 7435   9.906   8.773   3.355 -0.7034 -0.0219 -1.1885
  814MOL0     H 7436  10.206   8.573   3.753 -2.7156  3.1038  1.0192
  814MOL0     H 7437  10.446   8.534   3.717 -1.2428  0.3006  0.0106
  814MOL0     H 7438  10.686   8.650   3.782 -2.8498  0.0588 -0.3402
  814MOL0     H 7439  10.652   8.825   3.757  0.4311  0.3115  1.6611
  814MOL0     H 7440  10.904   8.783   3.763 -0.7213 -1.0313  0.5474
  814MOL0     H 7441  10.884   8.662   3.639  1.6660 -0.0751  2.1099
  814MOL0     H 7442  10.842   8.960   3.595 -1.9425 -0.8921  1.5662
  814MOL0     H 7443  10.794   8.842   3.480 -1.8528 -0.3371  2.0322
  814MOL0     H 7444  11.070   8.899   3.599  1.5976 -0.1526 -1.4875
  814MOL0     H 7445  11.036   8.762   3.494  0.1758  0.2055 -0.8534
  814MOL0     H 7446  11.051   9.088   3.211  3.1122 -0.5001  0.8427
  814MOL0     H 7447  10.489   8.907   3.537  0.5827 -0.6523 -0.7481
  814MOL0     H 7448  10.229   8.958   3.553 -0.2226 -0.1388  1.1356
  815MOL0     O 7449   2.252   8.509   5.396  0.2441  0.6359 -0.3384
  815MOL0     C 7450   2.332   8.415   5.389 -0.4427  0.0353  0.7787
  815MOL0     O 7451   2.304   8.291   5.347  0.0025  0.2931  0.1817
  815MOL0     C 7452   2.168   8.259   5.308 -0.4720  0.1500 -0.3703
  815MOL0     C 7453   2.124   8.126   5.344 -0.3727 -0.7904  0.0849
  815MOL0     C 7454   1.994   8.083   5.325 -0.6529  0.0973  0.2040
  815MOL0     C 7455   1.899   8.163   5.257 -0.5341 -0.3545 -0.3819
  815MOL0     O 7456   1.777   8.108   5.214  0.2203 -0.0730  0.2594
  815MOL0     C 7457   1.723   8.148   5.091 -0.1819  0.3795 -0.5671
  815MOL0     C 7458   1.585   8.082   5.062 -0.3032  0.4193 -0.2683
  815MOL0     C 7459   1.605   7.929   5.043  0.4249 -0.7525  0.3588
  815MOL0     C 7460   1.602   7.885   4.892  0.4897  0.1345 -0.0327
  815MOL0     C 7461   1.615   7.727   4.882  1.0010 -1.1198 -1.2007
  815MOL0     C 7462   1.575   7.699   4.732 -0.5162 -0.2677  0.1158
  815MOL0     C 7463   1.631   7.568   4.680 -0.3004 -0.1956 -0.7512
  815MOL0     C 7464   1.551   7.492   4.575  0.3229 -0.2635 -0.8508
  815MOL0     N 7465   1.549   7.568   4.450  0.6398 -0.0832 -0.3595
  815MOL0     C 7466   1.667   7.593   4.372  0.8736 -0.0340  0.2061
  815MOL0     C 7467   1.640   7.711   4.311  0.0639 -0.3383  1.7816
  815MOL0     C 7468   1.739   7.781   4.215  0.4651 -0.0745 -0.2494
  815MOL0     C 7469   1.866   7.830   4.272  0.0498  0.0454  0.1938
  815MOL0     C 7470   1.847   7.948   4.380  1.3393  0.4520  0.2296
  815MOL0     C 7471   1.976   7.999   4.440  0.0455  0.3579  0.3074
  815MOL0     O 7472   2.064   7.889   4.479 -0.4004 -0.0104 -0.3894
  815MOL0     C 7473   2.196   7.905   4.515  0.4405 -0.1714  0.3304
  815MOL0     C 7474   2.271   7.787   4.520  0.1511  0.2259 -1.0687
  815MOL0     C 7475   2.406   7.789   4.551 -0.1987 -0.2724  0.6396
  815MOL0     C 7476   2.476   7.918   4.571  0.8277  0.0320  0.9288
  815MOL0     C 7477   2.613   7.926   4.609  0.3671 -0.1437 -0.0908
  815MOL0     O 7478   2.678   7.810   4.628 -0.2359  1.2113  0.7191
  815MOL0     C 7479   2.802   7.813   4.675  0.3066 -0.7632  0.0857
  815MOL0     C 7480   2.839   7.878   4.795 -0.2803 -0.1659 -0.3582
  815MOL0     C 7481   2.977   7.886   4.831  0.0779  0.8027  0.1326
  815MOL0     C 7482   3.079   7.830   4.745  0.0630 -0.0695  0.1304
  815MOL0     O 7483   3.208   7.836   4.793  0.2940 -0.6931 -0.5934
  815MOL0     C 7484   3.315   7.809   4.706 -0.3125 -0.3610 -0.1651
  815MOL0     C 7485   3.450   7.836   4.775 -0.0373 -0.6411  0.2800
  815MOL0     C 7486   3.564   7.758   4.724 -0.4105  0.2975  0.7954
  815MOL0     C 7487   3.671   7.739   4.832 -0.5012 -0.5681  0.9619
  815MOL0     C 7488   3.808   7.694   4.781 -0.2804  0.4836  0.0674
  815MOL0     C 7489   3.875   7.803   4.696  0.5186  0.5872  0.0226
  815MOL0     C 7490   4.016   7.778   4.649  0.4652 -0.6520 -0.4735
  815MOL0     C 7491   4.032   7.675   4.539 -0.2403  1.0470  0.4950
  815MOL0    Cl 7492   4.190   7.593   4.574 -0.5405  0.1815 -0.0429
  815MOL0     C 7493   3.038   7.778   4.624 -0.2142  0.4808  0.4061
  815MOL0     C 7494   2.900   7.765   4.592  0.1182 -0.5651  0.1136
  815MOL0     O 7495   2.660   8.039   4.631 -0.3054 -0.8362  0.0513
  815MOL0     C 7496   2.400   8.035   4.549  0.0356 -0.6230  0.4086
  815MOL0     C 7497   2.255   8.025   4.519  0.4079  0.1967  0.6671
  815MOL0     N 7498   1.506   7.749   4.324 -0.1243  0.7919 -0.2533
  815MOL0     N 7499   1.459   7.661   4.407  0.1907 -0.2213 -0.0725
  815MOL0     C 7500   1.942   8.293   5.216 -0.0474 -0.3030  0.4600
  815MOL0     C 7501   2.073   8.341   5.244  0.2197  1.1628  0.6670
  815MOL0     C 7502   2.476   8.428   5.439 -0.1196 -0.3996  0.0393
  815MOL0     C 7503   2.570   8.317   5.440  0.0770  0.4096  0.5851
  815MOL0     C 7504   2.701   8.337   5.491 -0.5568 -0.1687 -0.1755
  815MOL0     C 7505   2.734   8.460   5.555 -0.8976  0.0352  0.7572
  815MOL0     O 7506   2.848   8.482   5.620 -0.3301 -0.1432  0.2952
  815MOL0     C 7507   2.948   8.379   5.628 -0.6364  0.9127  0.5924
  815MOL0     C 7508   3.063   8.425   5.724 -0.3436 -0.3773 -0.6223
  815MOL0     C 7509   3.128   8.293   5.773 -0.4166 -0.1532 -0.1711
  815MOL0     C 7510   3.161   8.187   5.670  0.5942  0.4992 -0.1860
  815MOL0     C 7511   3.263   8.237   5.576 -0.4181  0.0132 -0.5119
  815MOL0     C 7512   3.343   8.267   5.494  0.2856  0.8361  0.8865
  815MOL0     C 7513   2.649   8.569   5.557  0.0679  0.7668 -0.4845
  815MOL0     C 7514   2.523   8.550   5.489  0.0512 -0.9486  0.1166
  815MOL0     H 7515   2.203   8.067   5.388  0.1991  0.3846  0.6915
  815MOL0     H 7516   1.953   7.985   5.346 -1.9385  0.4302 -0.6182
  815MOL0     H 7517   1.786   8.127   5.004 -1.1635 -1.0196 -0.9862
  815MOL0     H 7518   1.709   8.256   5.091  0.5389  0.5544  2.0193
  815MOL0     H 7519   1.528   8.127   4.981 -2.0605  1.5819  1.5237
  815MOL0     H 7520   1.514   8.101   5.143 -3.3078 -1.8945 -2.1520
  815MOL0     H 7521   1.515   7.890   5.092  0.6777  1.3606  2.7019
  815MOL0     H 7522   1.694   7.891   5.094 -0.9050  0.4409  3.8680
  815MOL0     H 7523   1.508   7.921   4.849  0.7366  1.6398  0.6070
  815MOL0     H 7524   1.686   7.933   4.841  1.3576 -3.2245 -2.0832
  815MOL0     H 7525   1.536   7.682   4.943 -0.5508  0.1966 -2.1730
  815MOL0     H 7526   1.715   7.690   4.907  0.8601 -1.0647 -0.5249
  815MOL0     H 7527   1.610   7.776   4.664  0.4759 -1.2940 -0.5764
  815MOL0     H 7528   1.466   7.709   4.723 -0.4009  1.2277  0.1896
  815MOL0     H 7529   1.731   7.582   4.639 -0.7962  0.7153 -1.7171
  815MOL0     H 7530   1.650   7.499   4.763  1.5124 -0.1905 -1.1252
  815MOL0     H 7531   1.447   7.489   4.610  0.5135  1.8329  0.0781
  815MOL0     H 7532   1.586   7.389   4.564  0.0442 -0.7946  2.3201
  815MOL0     H 7533   1.756   7.533   4.360  0.3876 -0.3745 -1.9929
  815MOL0     H 7534   1.690   7.861   4.159 -0.0002  0.0356  0.3034
  815MOL0     H 7535   1.766   7.702   4.145 -2.8749 -2.0834  0.4904
  815MOL0     H 7536   1.919   7.874   4.187  1.5526 -0.8036  0.6599
  815MOL0     H 7537   1.912   7.740   4.312 -0.9501 -0.8175 -0.5441
  815MOL0     H 7538   1.780   8.019   4.331 -0.8663 -2.5227 -1.4051
  815MOL0     H 7539   1.790   7.900   4.461 -0.7951 -0.5146 -1.7140
  815MOL0     H 7540   1.949   8.056   4.529  0.0327  3.2539 -1.4356
  815MOL0     H 7541   2.017   8.060   4.360  1.4751 -2.5766 -1.3845
  815MOL0     H 7542   2.214   7.695   4.509  0.5390  0.0288 -1.4652
  815MOL0     H 7543   2.454   7.692   4.562 -0.8984 -0.7971 -0.6809
  815MOL0     H 7544   2.758   7.913   4.859 -1.2350 -1.3619 -0.8758
  815MOL0     H 7545   3.011   7.920   4.928  2.9782 -3.4883  0.9111
  815MOL0     H 7546   3.315   7.860   4.609  2.5154  1.5322  0.7099
  815MOL0     H 7547   3.307   7.705   4.673  1.9851 -0.0348 -2.0820
  815MOL0     H 7548   3.421   7.819   4.879 -1.8611  1.1908  0.1328
  815MOL0     H 7549   3.472   7.943   4.773 -3.8253  0.3023  1.0610
  815MOL0     H 7550   3.609   7.802   4.635 -0.2761 -0.9749  0.2094
  815MOL0     H 7551   3.537   7.657   4.693  1.4067 -0.0555  0.2223
  815MOL0     H 7552   3.686   7.833   4.887 -4.0370 -0.9562  2.8664
  815MOL0     H 7553   3.631   7.669   4.906  0.3005 -1.7349  0.3101
  815MOL0     H 7554   3.796   7.596   4.732 -1.9406  0.0572  1.2396
  815MOL0     H 7555   3.865   7.665   4.869  1.7284  1.3152 -0.8973
  815MOL0     H 7556   3.875   7.894   4.756 -2.7240  0.3414  0.5507
  815MOL0     H 7557   3.822   7.803   4.601  0.0350 -1.0929  0.2516
  815MOL0     H 7558   4.057   7.868   4.602  1.2033  0.2761  1.7684
  815MOL0     H 7559   4.076   7.761   4.739 -0.5186  1.6474  0.7248
  815MOL0     H 7560   4.018   7.728   4.444  0.2394 -0.5373 -0.5147
  815MOL0     H 7561   3.951   7.601   4.539  0.9352 -0.3809 -1.6974
  815MOL0     H 7562   3.107   7.726   4.558 -2.6276 -0.9089 -1.1511
  815MOL0     H 7563   2.874   7.739   4.490  0.0653  3.6107 -1.1607
  815MOL0     H 7564   2.432   8.139   4.551  1.5291 -1.0479  0.3985
  815MOL0     H 7565   2.196   8.115   4.509  1.5162  1.1033  2.0099
  815MOL0     H 7566   1.874   8.363   5.168 -1.9632 -2.2739  0.1157
  815MOL0     H 7567   2.096   8.443   5.216 -0.1381  1.3826  1.1574
  815MOL0     H 7568   2.550   8.221   5.395  0.2919  1.1774 -1.2468
  815MOL0     H 7569   2.770   8.253   5.484 -0.6615 -0.1732 -1.5192
  815MOL0     H 7570   2.996   8.364   5.531 -1.1941  0.7140  0.3469
  815MOL0     H 7571   2.913   8.290   5.680  0.6933  1.4276  2.4923
  815MOL0     H 7572   3.126   8.495   5.667  1.2205 -0.3572  1.0507
  815MOL0     H 7573   3.041   8.485   5.812  0.2312  0.4971 -1.0562
  815MOL0     H 7574   3.069   8.257   5.858 -1.8692  2.5735  0.0662
  815MOL0     H 7575   3.225   8.321   5.815  0.1250 -1.4748 -0.4795
  815MOL0     H 7576   3.198   8.100   5.726  1.7184 -0.7957 -2.7774
  815MOL0     H 7577   3.084   8.163   5.596  0.5502  1.7134 -0.5481
  815MOL0     H 7578   3.394   8.288   5.403 -1.6684 -1.4923 -0.8837
  815MOL0     H 7579   2.692   8.663   5.590  0.2615  0.8263 -0.9025
  815MOL0     H 7580   2.463   8.641   5.491  2.4156  0.7441  2.6731
  816MOL0     O 7581   1.277   5.854   7.617  0.5580  0.3585  0.6864
  816MOL0     C 7582   1.355   5.928   7.672 -0.2495 -0.3638 -1.1929
  816MOL0     O 7583   1.327   6.043   7.745  0.2272  0.2899  0.7391
  816MOL0     C 7584   1.195   6.080   7.759  0.0629  0.3731 -0.0981
  816MOL0     C 7585   1.116   6.102   7.643  0.1051  0.0916 -0.7513
  816MOL0     C 7586   0.978   6.149   7.650 -0.3439 -0.3581  0.3487
  816MOL0     C 7587   0.932   6.170   7.778 -0.4073 -0.6838 -0.3400
  816MOL0     O 7588   0.803   6.212   7.800 -0.7282  0.0301 -0.7818
  816MOL0     C 7589   0.703   6.184   7.702  0.5573  0.1461  0.4076
  816MOL0     C 7590   0.571   6.193   7.774  0.0032 -0.4930  0.6513
  816MOL0     C 7591   0.449   6.153   7.681 -0.0682 -0.4955 -0.0536
  816MOL0     C 7592   0.324   6.154   7.763 -0.7105  0.4325 -0.0556
  816MOL0     C 7593   0.303   6.280   7.828 -0.9204  0.3299  0.3428
  816MOL0     C 7594   0.168   6.289   7.897 -0.0048  0.0404  0.3008
  816MOL0     C 7595   0.151   6.407   7.987  0.1648  0.5609  0.6419
  816MOL0     C 7596   0.005   6.418   8.028  0.2343  0.5558 -0.0398
  816MOL0     N 7597  -0.021   6.524   8.128 -0.2482  0.1004 -0.2944
  816MOL0     C 7598  -0.138   6.537   8.192  0.0483  0.1450  0.1883
  816MOL0     C 7599  -0.122   6.643   8.273 -1.5392 -0.1661 -0.1536
  816MOL0     C 7600  -0.213   6.707   8.369 -0.4487 -0.4382  0.7300
  816MOL0     C 7601  -0.305   6.608   8.448 -0.9787  0.5000 -0.1848
  816MOL0     C 7602  -0.392   6.682   8.562  0.8413  0.1681 -0.1254
  816MOL0     C 7603  -0.524   6.726   8.502  0.4349  0.6596 -0.2567
  816MOL0     O 7604  -0.599   6.619   8.440 -0.0876  0.0690  0.0555
  816MOL0     C 7605  -0.731   6.633   8.426 -0.1612  0.1645 -0.3993
  816MOL0     C 7606  -0.796   6.759   8.407  0.2304  1.4680 -1.0397
  816MOL0     C 7607  -0.941   6.761   8.408 -0.5773  0.3219 -0.2882
  816MOL0     C 7608  -1.013   6.650   8.399  0.2715 -0.8730 -0.6680
  816MOL0     C 7609  -1.159   6.654   8.363  0.0375 -1.3442 -0.0783
  816MOL0     O 7610  -1.219   6.536   8.367 -0.3150  0.9407  0.5719
  816MOL0     C 7611  -1.356   6.505   8.358 -0.3531 -0.0914  0.7067
  816MOL0     C 7612  -1.390   6.388   8.297 -1.0133  0.2966  0.2933
  816MOL0     C 7613  -1.522   6.353   8.270 -0.1772  0.1829  0.1789
  816MOL0     C 7614  -1.622   6.438   8.315  1.0486 -0.9406 -0.7056
  816MOL0     O 7615  -1.759   6.407   8.301 -0.4818  1.1617 -0.0990
  816MOL0     C 7616  -1.813   6.455   8.176  1.2011 -0.8900  0.2408
  816MOL0     C 7617  -1.961   6.426   8.173 -0.4103 -0.3266  0.5443
  816MOL0     C 7618  -2.028   6.501   8.052  0.7689 -1.2305 -0.0147
  816MOL0     C 7619  -2.170   6.441   8.013 -0.4768 -0.1463 -0.6837
  816MOL0     C 7620  -2.274   6.457   8.120 -0.0745 -0.2801 -0.0763
  816MOL0     C 7621  -2.420   6.455   8.070  0.9670  1.3180 -0.0135
  816MOL0     C 7622  -2.518   6.482   8.186  0.1256 -0.6381  0.3787
  816MOL0     C 7623  -2.649   6.403   8.162  0.1561  0.4500 -0.5693
  816MOL0    Cl 7624  -2.758   6.399   8.299  0.3147  0.2750  0.5481
  816MOL0     C 7625  -1.591   6.562   8.376 -0.5218 -0.6928  1.6058
  816MOL0     C 7626  -1.455   6.597   8.393  0.9710 -0.7488 -0.0542
  816MOL0     O 7627  -1.217   6.759   8.324 -0.0126  0.6330 -0.1577
  816MOL0     C 7628  -0.948   6.522   8.409  1.2984  0.5486  0.1889
  816MOL0     C 7629  -0.807   6.521   8.426  0.1481 -0.5007  0.4244
  816MOL0     N 7630   0.005   6.690   8.256 -0.5185  0.1033  0.2713
  816MOL0     N 7631   0.071   6.622   8.169 -0.1833  0.4920 -0.1137
  816MOL0     C 7632   1.014   6.160   7.890 -0.5473  0.4463 -0.2592
  816MOL0     C 7633   1.149   6.109   7.887  0.1078  0.3772 -0.1833
  816MOL0     C 7634   1.490   5.883   7.678 -0.6439 -0.8066  0.3134
  816MOL0     C 7635   1.558   5.837   7.563 -0.8963 -0.1247  1.2228
  816MOL0     C 7636   1.691   5.788   7.589  0.8977  0.2964 -0.0044
  816MOL0     C 7637   1.754   5.787   7.717  0.0169 -0.4795  0.2460
  816MOL0     O 7638   1.888   5.757   7.732  0.2505 -0.1276 -0.5172
  816MOL0     C 7639   1.959   5.710   7.622 -0.3700  0.3866  0.6572
  816MOL0     C 7640   2.072   5.632   7.678 -0.3120 -0.8095 -0.1778
  816MOL0     C 7641   2.207   5.695   7.656  0.4133 -0.2429  0.1883
  816MOL0     C 7642   2.328   5.609   7.705 -0.2875  0.0546  0.5833
  816MOL0     C 7643   2.445   5.643   7.629  0.2822 -0.0618  0.3637
  816MOL0     C 7644   2.543   5.663   7.568 -0.0698  0.1473 -0.3055
  816MOL0     C 7645   1.680   5.830   7.825 -0.0993  0.1712  0.6723
  816MOL0     C 7646   1.551   5.880   7.807  0.6584  0.0574  0.2509
  816MOL0     H 7647   1.158   6.074   7.547 -0.4704 -2.0648 -0.4369
  816MOL0     H 7648   0.915   6.157   7.563  1.6288 -0.8588 -1.2120
  816MOL0     H 7649   0.711   6.084   7.659 -1.7529  1.1873 -2.8846
  816MOL0     H 7650   0.698   6.262   7.625 -1.6746  0.8511  1.1928
  816MOL0     H 7651   0.568   6.296   7.810  0.3024 -0.6451  1.1179
  816MOL0     H 7652   0.566   6.135   7.867 -1.5229  0.0681  0.9474
  816MOL0     H 7653   0.468   6.058   7.630 -0.4319 -2.0818  2.5860
  816MOL0     H 7654   0.435   6.232   7.607 -0.9293  0.4455  1.0732
  816MOL0     H 7655   0.239   6.130   7.699 -2.1849 -0.8928  2.2511
  816MOL0     H 7656   0.343   6.088   7.848  0.6221  2.0876  0.9860
  816MOL0     H 7657   0.297   6.352   7.746  1.0300 -2.9613 -2.9850
  816MOL0     H 7658   0.370   6.314   7.908 -3.2651  2.9433  1.3627
  816MOL0     H 7659   0.153   6.203   7.963 -1.4808  0.3990  0.4678
  816MOL0     H 7660   0.090   6.294   7.820 -0.5380 -0.6650  0.7840
  816MOL0     H 7661   0.209   6.391   8.078 -0.2209 -0.9931  0.6495
  816MOL0     H 7662   0.174   6.500   7.933  2.8000  0.5017  1.5296
  816MOL0     H 7663  -0.040   6.334   8.080 -1.6019  1.8445  0.5218
  816MOL0     H 7664  -0.055   6.438   7.938  2.6208  1.0603 -1.6264
  816MOL0     H 7665  -0.225   6.472   8.184  0.8940 -1.0818  0.5101
  816MOL0     H 7666  -0.277   6.762   8.299  0.9091 -0.1320 -0.3269
  816MOL0     H 7667  -0.158   6.775   8.434 -1.5322  0.4976  0.6925
  816MOL0     H 7668  -0.242   6.531   8.495 -4.9139 -0.4739  4.3965
  816MOL0     H 7669  -0.378   6.552   8.389  0.1603 -0.8786 -0.3512
  816MOL0     H 7670  -0.409   6.623   8.652  1.9994 -1.9534 -1.2124
  816MOL0     H 7671  -0.339   6.773   8.594  3.9816 -1.9514  1.2467
  816MOL0     H 7672  -0.514   6.809   8.431  0.1303  1.3738  0.5205
  816MOL0     H 7673  -0.592   6.759   8.581 -3.3893 -0.4607 -2.7828
  816MOL0     H 7674  -0.735   6.848   8.394 -0.3774  1.7441 -2.1248
  816MOL0     H 7675  -0.995   6.855   8.405 -2.5422 -0.7405 -3.5314
  816MOL0     H 7676  -1.306   6.322   8.278 -1.2158  0.6596 -2.1690
  816MOL0     H 7677  -1.562   6.261   8.229 -0.7988  1.0308 -1.2052
  816MOL0     H 7678  -1.769   6.411   8.087  1.9512 -0.7375  0.5347
  816MOL0     H 7679  -1.793   6.563   8.169  1.1117 -0.9467 -1.1520
  816MOL0     H 7680  -2.011   6.453   8.267  1.1424 -0.3288  1.4018
  816MOL0     H 7681  -1.978   6.319   8.163 -0.1236 -0.3328  0.1254
  816MOL0     H 7682  -1.969   6.508   7.960 -1.0964 -2.5509 -1.3668
  816MOL0     H 7683  -2.048   6.604   8.083 -0.7252 -2.0522  1.9933
  816MOL0     H 7684  -2.200   6.504   7.929  0.8698  3.1091  1.0631
  816MOL0     H 7685  -2.168   6.335   7.984  0.1645 -0.9901  2.1044
  816MOL0     H 7686  -2.253   6.553   8.167  2.3474 -1.7242  2.1139
  816MOL0     H 7687  -2.271   6.385   8.203  1.9794  0.6428  0.7226
  816MOL0     H 7688  -2.436   6.359   8.019  4.4019 -0.3731  1.8083
  816MOL0     H 7689  -2.443   6.529   7.993  3.4145  1.1721 -0.9596
  816MOL0     H 7690  -2.473   6.459   8.283 -1.4003  0.2882  1.3510
  816MOL0     H 7691  -2.546   6.586   8.169  0.0972 -1.1785 -4.3876
  816MOL0     H 7692  -2.629   6.298   8.138 -0.3333 -0.0323  0.9728
  816MOL0     H 7693  -2.703   6.447   8.078 -1.2051  1.9762  1.0221
  816MOL0     H 7694  -1.681   6.619   8.394 -0.0073  1.3941 -1.6175
  816MOL0     H 7695  -1.429   6.691   8.442 -1.0617 -1.3436  2.3760
  816MOL0     H 7696  -1.010   6.434   8.396 -1.3519  2.4514 -0.7566
  816MOL0     H 7697  -0.761   6.425   8.444 -0.9037 -0.6604  2.6107
  816MOL0     H 7698   0.978   6.177   7.991  1.0791 -1.4646  0.7084
  816MOL0     H 7699   1.211   6.106   7.976  0.9498 -1.2719 -0.7710
  816MOL0     H 7700   1.505   5.833   7.468 -1.0874 -2.4614  1.3674
  816MOL0     H 7701   1.731   5.744   7.498  2.7561 -0.1490  0.9706
  816MOL0     H 7702   1.999   5.793   7.564  0.5464 -0.5242 -0.0340
  816MOL0     H 7703   1.892   5.655   7.555 -1.9774  3.8582 -0.8223
  816MOL0     H 7704   2.063   5.630   7.787 -4.4465  5.5838  0.1298
  816MOL0     H 7705   2.083   5.531   7.638  4.0335 -0.5533 -0.0448
  816MOL0     H 7706   2.206   5.784   7.720 -0.0126 -2.6796  3.9265
  816MOL0     H 7707   2.219   5.716   7.550 -0.8824 -2.6590 -0.5103
  816MOL0     H 7708   2.343   5.624   7.813 -0.9885 -1.2558  0.8858
  816MOL0     H 7709   2.299   5.503   7.701 -1.4876  0.3689  0.7483
  816MOL0     H 7710   2.629   5.669   7.505 -1.4839  2.7135 -2.1964
  816MOL0     H 7711   1.726   5.842   7.922 -1.5867 -1.8036  1.6931
  816MOL0     H 7712   1.505   5.925   7.895 -0.8703  0.1318 -0.5460
  817MOL0     O 7713   1.882   5.336   4.747 -0.0985  0.2556  0.0856
  817MOL0     C 7714   1.931   5.308   4.859  0.1883 -0.3597  0.3240
  817MOL0     O 7715   1.863   5.283   4.971  0.0855  0.8338 -0.6280
  817MOL0     C 7716   1.722   5.287   4.962  0.4940 -0.6832 -0.2667
  817MOL0     C 7717   1.648   5.181   5.001  1.1378 -0.4195  0.5535
  817MOL0     C 7718   1.509   5.187   4.971 -0.9534  0.5165 -0.0963
  817MOL0     C 7719   1.439   5.286   4.906 -1.2503 -0.5448 -0.0827
  817MOL0     O 7720   1.307   5.260   4.882 -0.1935 -0.3621  0.0894
  817MOL0     C 7721   1.212   5.361   4.890  0.5996 -0.9123  0.1592
  817MOL0     C 7722   1.159   5.376   5.032 -0.2558  1.0894 -0.3499
  817MOL0     C 7723   1.037   5.467   5.028  0.3091  0.4472 -0.1645
  817MOL0     C 7724   0.963   5.467   5.159  0.7251 -0.2334 -0.3732
  817MOL0     C 7725   0.859   5.585   5.166  0.9128 -0.3439 -0.2999
  817MOL0     C 7726   0.758   5.593   5.293  0.0312  0.5402  0.0944
  817MOL0     C 7727   0.661   5.715   5.283 -1.2390 -0.5854 -0.0867
  817MOL0     C 7728   0.736   5.845   5.278  0.1291  0.3483 -0.3457
  817MOL0     N 7729   0.636   5.948   5.292  0.2819  0.5419 -0.4750
  817MOL0     C 7730   0.537   5.974   5.212 -0.4714 -0.1076  0.4087
  817MOL0     C 7731   0.482   6.085   5.264  0.5332  0.0727  0.6080
  817MOL0     C 7732   0.383   6.188   5.202  0.8372 -0.7682 -0.1499
  817MOL0     C 7733   0.247   6.126   5.174  0.4366  0.5141  0.4568
  817MOL0     C 7734   0.151   6.219   5.116  0.2370  0.1474  0.5869
  817MOL0     C 7735   0.016   6.166   5.072  0.2425  0.4201  0.2587
  817MOL0     O 7736  -0.061   6.277   5.027 -0.1959 -0.0932  0.1661
  817MOL0     C 7737  -0.187   6.248   4.990 -0.1496  0.7741 -0.0790
  817MOL0     C 7738  -0.265   6.359   4.987  0.0236 -0.6212  0.2175
  817MOL0     C 7739  -0.396   6.345   4.955 -0.2445 -0.2614 -0.1617
  817MOL0     C 7740  -0.467   6.223   4.941  0.6235 -0.3862  1.0305
  817MOL0     C 7741  -0.618   6.219   4.910 -0.7907  0.1076  1.0221
  817MOL0     O 7742  -0.683   6.341   4.916 -0.1133 -0.2655  0.9937
  817MOL0     C 7743  -0.805   6.365   4.847 -1.1442 -1.1520  0.1407
  817MOL0     C 7744  -0.811   6.482   4.765  0.4278 -0.2487  0.2859
  817MOL0     C 7745  -0.931   6.511   4.697 -0.8898 -0.0473 -0.4294
  817MOL0     C 7746  -1.040   6.426   4.707  0.2609 -0.4337 -0.1460
  817MOL0     O 7747  -1.146   6.474   4.640  0.1067  0.0537  0.8403
  817MOL0     C 7748  -1.275   6.410   4.673  0.3928  1.1233 -0.3069
  817MOL0     C 7749  -1.377   6.495   4.613  0.1565 -0.1676  0.2236
  817MOL0     C 7750  -1.518   6.445   4.653  0.5921  0.0596 -0.2696
  817MOL0     C 7751  -1.631   6.543   4.626  0.5679  0.1870  1.1475
  817MOL0     C 7752  -1.753   6.478   4.555  0.2219  0.2667  1.0779
  817MOL0     C 7753  -1.858   6.581   4.509 -0.1958 -0.0738  0.4865
  817MOL0     C 7754  -1.959   6.519   4.408 -0.1318  1.2726 -0.4160
  817MOL0     C 7755  -2.103   6.580   4.415 -0.0758  0.2550  0.9292
  817MOL0    Cl 7756  -2.198   6.485   4.308 -0.4164 -0.1871 -0.2561
  817MOL0     C 7757  -1.032   6.317   4.791 -0.2626  0.0335  0.1822
  817MOL0     C 7758  -0.917   6.279   4.857 -0.3837  1.1007  0.2893
  817MOL0     O 7759  -0.665   6.116   4.861  0.6892  0.1658 -0.6232
  817MOL0     C 7760  -0.389   6.112   4.960  0.0995  1.0916 -0.1892
  817MOL0     C 7761  -0.253   6.123   4.981  0.3002 -0.4614 -0.2484
  817MOL0     N 7762   0.535   6.110   5.384 -0.5579  0.5235 -0.2699
  817MOL0     N 7763   0.628   6.024   5.407  1.0579  0.3294 -0.0737
  817MOL0     C 7764   1.517   5.396   4.868 -0.0785 -0.1447 -0.4715
  817MOL0     C 7765   1.660   5.401   4.904  0.6528  0.4977 -1.0906
  817MOL0     C 7766   2.068   5.266   4.860  0.4613 -0.5741  0.0977
  817MOL0     C 7767   2.136   5.239   4.978  0.4168 -0.6356 -0.1707
  817MOL0     C 7768   2.271   5.226   4.984  1.3547  0.5992  1.6429
  817MOL0     C 7769   2.349   5.231   4.866  0.7387  0.1208  0.6633
  817MOL0     O 7770   2.488   5.226   4.856  0.0266 -0.1069  0.0057
  817MOL0     C 7771   2.568   5.267   4.976  0.6960 -0.0614 -0.3356
  817MOL0     C 7772   2.686   5.170   5.018  0.7988 -0.6954 -0.0345
  817MOL0     C 7773   2.778   5.239   5.107  0.2307  0.6272  0.8438
  817MOL0     C 7774   2.915   5.166   5.117 -0.3482  1.3818  0.4275
  817MOL0     C 7775   2.915   5.027   5.156  0.0004  1.0238  0.5200
  817MOL0     C 7776   2.907   4.903   5.176 -0.3428 -0.7099  0.1976
  817MOL0     C 7777   2.277   5.235   4.749  0.3341  0.2981 -0.1090
  817MOL0     C 7778   2.144   5.253   4.742 -0.7040 -0.2413 -0.9919
  817MOL0     H 7779   1.690   5.094   5.049 -1.2510 -1.8541  0.1814
  817MOL0     H 7780   1.461   5.093   4.999  0.4993  0.5535  2.9502
  817MOL0     H 7781   1.132   5.346   4.816 -2.9509 -1.4789  3.7552
  817MOL0     H 7782   1.262   5.456   4.869 -2.5957  0.7474 -0.6242
  817MOL0     H 7783   1.229   5.423   5.102 -1.1801  1.0693  0.6276
  817MOL0     H 7784   1.140   5.273   5.064  0.9158  0.4771 -1.5612
  817MOL0     H 7785   0.973   5.427   4.949 -0.4288  3.2308 -1.1014
  817MOL0     H 7786   1.073   5.567   5.001 -2.0092  1.3808 -0.0430
  817MOL0     H 7787   0.904   5.375   5.158 -1.7932  1.2884 -0.3255
  817MOL0     H 7788   1.022   5.453   5.251 -2.6592 -0.8173  1.9000
  817MOL0     H 7789   0.794   5.579   5.079 -2.2539  3.7274  1.4158
  817MOL0     H 7790   0.911   5.681   5.164 -0.1126  0.2758  1.0771
  817MOL0     H 7791   0.803   5.604   5.392 -1.0263  1.9650  0.4551
  817MOL0     H 7792   0.687   5.510   5.291 -0.7568  1.1613 -3.0175
  817MOL0     H 7793   0.611   5.723   5.186 -0.4001  1.2363 -0.4095
  817MOL0     H 7794   0.589   5.710   5.365 -1.4530  0.3869 -0.2035
  817MOL0     H 7795   0.781   5.857   5.180  0.9165  0.5565  0.0337
  817MOL0     H 7796   0.810   5.851   5.359  1.1792  0.8835 -1.3251
  817MOL0     H 7797   0.513   5.932   5.115  0.3006 -1.5682  0.8227
  817MOL0     H 7798   0.433   6.222   5.110  1.3805  2.8800  1.3243
  817MOL0     H 7799   0.382   6.276   5.267  2.8028 -1.6610  1.1687
  817MOL0     H 7800   0.205   6.074   5.260 -1.0406  1.7737  0.5257
  817MOL0     H 7801   0.262   6.047   5.099  1.0887  1.7333 -0.7328
  817MOL0     H 7802   0.147   6.301   5.188 -0.6821  1.2708 -0.7049
  817MOL0     H 7803   0.198   6.257   5.025  0.8206 -0.6019  0.5574
  817MOL0     H 7804  -0.028   6.126   5.164  0.0078 -0.2390 -0.1293
  817MOL0     H 7805   0.016   6.081   5.003  1.0571  1.2560 -0.8038
  817MOL0     H 7806  -0.228   6.461   4.992 -0.5688 -0.4538  1.6619
  817MOL0     H 7807  -0.453   6.437   4.953 -4.7728 -2.7250 -1.9740
  817MOL0     H 7808  -0.718   6.537   4.764  0.9308 -0.9550 -2.7393
  817MOL0     H 7809  -0.940   6.592   4.626  4.7668  0.7200 -0.7540
  817MOL0     H 7810  -1.288   6.396   4.780 -2.5224  0.6276 -0.6279
  817MOL0     H 7811  -1.281   6.305   4.642  0.3132  0.1936  2.5769
  817MOL0     H 7812  -1.356   6.478   4.507  1.0251 -0.7400  0.4735
  817MOL0     H 7813  -1.366   6.602   4.635  1.1203 -0.0126 -0.9542
  817MOL0     H 7814  -1.516   6.433   4.761 -1.0756 -0.9136 -0.3185
  817MOL0     H 7815  -1.542   6.350   4.605  1.9721 -0.9048  0.8683
  817MOL0     H 7816  -1.668   6.573   4.725  0.8865  0.0600  1.3073
  817MOL0     H 7817  -1.601   6.626   4.562  3.6454 -2.5448 -1.2845
  817MOL0     H 7818  -1.792   6.400   4.620  1.7948 -3.0784 -1.6857
  817MOL0     H 7819  -1.713   6.434   4.464  0.0714 -0.1512  1.2118
  817MOL0     H 7820  -1.804   6.664   4.462  2.5448 -0.1739  3.1378
  817MOL0     H 7821  -1.910   6.626   4.594 -1.1226  1.3924 -0.8094
  817MOL0     H 7822  -1.911   6.525   4.310 -2.1430  1.4817 -1.4380
  817MOL0     H 7823  -1.960   6.412   4.430  0.1137  0.5705 -3.3793
  817MOL0     H 7824  -2.105   6.687   4.393 -1.3504  0.4333  1.8135
  817MOL0     H 7825  -2.143   6.559   4.514  0.2172 -0.1451  0.9638
  817MOL0     H 7826  -1.122   6.256   4.800  1.0092 -2.2133 -1.4123
  817MOL0     H 7827  -0.927   6.197   4.928  1.5322  0.6699  0.1089
  817MOL0     H 7828  -0.428   6.010   4.955  0.1126  1.0890 -0.2345
  817MOL0     H 7829  -0.200   6.031   5.003  2.1460  0.9715  1.7028
  817MOL0     H 7830   1.478   5.479   4.810  0.9245 -0.1210 -1.1355
  817MOL0     H 7831   1.712   5.492   4.875  1.8156  0.4317  0.6077
  817MOL0     H 7832   2.082   5.233   5.072  0.7493  0.5262  0.1084
  817MOL0     H 7833   2.314   5.186   5.076  1.1640 -1.8505  0.7593
  817MOL0     H 7834   2.505   5.296   5.060  0.1327 -1.7750 -0.1238
  817MOL0     H 7835   2.617   5.361   4.950  0.3643 -0.1418 -1.2816
  817MOL0     H 7836   2.650   5.075   5.059 -0.0400 -0.6537 -0.6375
  817MOL0     H 7837   2.750   5.141   4.933  0.0431  0.7790 -1.1513
  817MOL0     H 7838   2.741   5.264   5.207 -1.7454 -0.1086  0.3506
  817MOL0     H 7839   2.807   5.333   5.059  1.3921 -1.0551 -2.0172
  817MOL0     H 7840   2.979   5.168   5.028  0.8974  0.7020  1.2731
  817MOL0     H 7841   2.964   5.213   5.203  0.2716  1.6067 -0.0420
  817MOL0     H 7842   2.913   4.797   5.191  2.0885 -0.3288  3.0497
  817MOL0     H 7843   2.331   5.222   4.655 -0.1273  0.3855 -0.3882
  817MOL0     H 7844   2.096   5.268   4.646 -1.3268  2.9546 -0.2913
  818MOL0     O 7845   3.572   9.250   9.973  0.1754  0.4361 -0.2913
  818MOL0     C 7846   3.604   9.242   9.853 -0.0156 -0.5026  0.2637
  818MOL0     O 7847   3.523   9.276   9.748 -0.2162  0.1076  0.2375
  818MOL0     C 7848   3.387   9.285   9.761  0.4913  0.4317  0.6195
  818MOL0     C 7849   3.307   9.353   9.854 -0.2107  0.4267  0.6453
  818MOL0     C 7850   3.164   9.334   9.861 -0.3558  0.7692  0.3727
  818MOL0     C 7851   3.103   9.249   9.765 -0.1668 -0.6849 -0.2453
  818MOL0     O 7852   2.969   9.220   9.759  0.4852  0.6735  0.4266
  818MOL0     C 7853   2.874   9.237   9.864  0.5185  0.6060 -0.9012
  818MOL0     C 7854   2.735   9.180   9.832 -0.1276 -0.5465  0.2944
  818MOL0     C 7855   2.633   9.302   9.815 -0.3750 -0.4102 -0.3601
  818MOL0     C 7856   2.503   9.243   9.770  0.8814 -0.4720 -0.0348
  818MOL0     C 7857   2.392   9.346   9.751 -0.0810  0.2050  0.6519
  818MOL0     C 7858   2.272   9.277   9.686  0.3256 -0.0162 -0.3474
  818MOL0     C 7859   2.149   9.377   9.681 -0.9480  0.4271 -0.1783
  818MOL0     C 7860   2.165   9.519   9.614 -0.2944 -0.6050  0.0088
  818MOL0     N 7861   2.245   9.525   9.490 -0.0888 -0.0912  0.7071
  818MOL0     C 7862   2.222   9.441   9.384 -0.6880 -1.1357 -0.2120
  818MOL0     C 7863   2.314   9.480   9.286  0.3507  0.7588 -0.0223
  818MOL0     C 7864   2.336   9.402   9.161 -0.5359  0.2679 -1.0546
  818MOL0     C 7865   2.212   9.386   9.075 -0.2742  0.0071  0.2054
  818MOL0     C 7866   2.145   9.513   9.038 -0.0252  0.2011 -0.6161
  818MOL0     C 7867   1.999   9.488   8.992  0.7454 -0.3708 -0.2269
  818MOL0     O 7868   1.927   9.618   8.994 -0.2145  0.9889  0.2835
  818MOL0     C 7869   1.809   9.631   8.926  0.2917 -0.1935  0.4287
  818MOL0     C 7870   1.766   9.758   8.902 -0.3776 -1.1893 -0.3908
  818MOL0     C 7871   1.641   9.800   8.850  0.0438 -0.7116 -0.1408
  818MOL0     C 7872   1.560   9.697   8.810 -0.4215 -0.2232  0.1890
  818MOL0     C 7873   1.420   9.716   8.763 -0.0704 -0.4907 -0.1620
  818MOL0     O 7874   1.370   9.842   8.783 -0.1363  0.6040  0.1756
  818MOL0     C 7875   1.254   9.892   8.736 -0.2008 -0.3317  0.4776
  818MOL0     C 7876   1.132   9.823   8.703 -0.1291 -0.9859  0.3148
  818MOL0     C 7877   1.018   9.892   8.677  0.8516 -0.5284 -0.5608
  818MOL0     C 7878   1.005  10.029   8.684 -0.5751 -0.6621 -0.1499
  818MOL0     O 7879   0.883  10.087   8.698  0.3689  0.1258  1.0224
  818MOL0     C 7880   0.839  10.145   8.569  0.5464  0.5236  0.6370
  818MOL0     C 7881   0.691  10.178   8.570  0.1965 -0.0514  0.1953
  818MOL0     C 7882   0.604  10.048   8.577  0.1055  0.5066  0.4543
  818MOL0     C 7883   0.452  10.086   8.580 -0.5141 -0.2791 -0.6888
  818MOL0     C 7884   0.365   9.959   8.565 -0.6338  0.0488  0.0908
  818MOL0     C 7885   0.218   9.988   8.580 -0.1755 -0.3034  0.0669
  818MOL0     C 7886   0.138   9.887   8.494  0.1615  0.5839 -0.1412
  818MOL0     C 7887   0.003   9.953   8.448 -0.4681  0.0205  0.3436
  818MOL0    Cl 7888   0.019  10.060   8.310 -0.3299  0.2138 -0.4931
  818MOL0     C 7889   1.121  10.101   8.713  0.4464 -0.7240  0.1377
  818MOL0     C 7890   1.245  10.033   8.732 -0.6702  0.0158  0.6559
  818MOL0     O 7891   1.348   9.622   8.720 -1.0790  0.0523  0.0658
  818MOL0     C 7892   1.605   9.564   8.821  0.0783  0.4669 -0.5891
  818MOL0     C 7893   1.725   9.533   8.882  0.1298  0.2136  0.5473
  818MOL0     N 7894   2.362   9.602   9.325  0.3807  0.2571 -1.1114
  818MOL0     N 7895   2.332   9.618   9.453 -0.0181  0.3082  0.1033
  818MOL0     C 7896   3.183   9.192   9.667 -0.6755 -0.4958 -0.3370
  818MOL0     C 7897   3.321   9.213   9.658  0.0084  0.2375 -0.7933
  818MOL0     C 7898   3.732   9.186   9.826 -0.4251 -0.2079  0.4172
  818MOL0     C 7899   3.815   9.137   9.933  0.7424 -0.0225 -0.4147
  818MOL0     C 7900   3.941   9.089   9.894  0.2580  0.0009  0.5109
  818MOL0     C 7901   4.000   9.086   9.763 -0.2005  1.2755  0.1909
  818MOL0     O 7902   4.129   9.043   9.742 -0.2285  0.1852  0.2093
  818MOL0     C 7903   4.183   9.073   9.613  0.1153  0.2170  0.2125
  818MOL0     C 7904   4.243   9.218   9.629 -0.3920  0.3390  0.6949
  818MOL0     C 7905   4.303   9.264   9.503 -0.4016 -0.0754 -0.1821
  818MOL0     C 7906   4.406   9.371   9.537 -0.5529  0.2387  0.2753
  818MOL0     C 7907   4.452   9.434   9.413  0.0204  0.5853 -0.0438
  818MOL0     C 7908   4.469   9.476   9.300 -0.5775 -0.9124  0.0297
  818MOL0     C 7909   3.909   9.131   9.667  0.0189  0.4600 -0.1156
  818MOL0     C 7910   3.778   9.179   9.694  1.0703  0.1040 -0.4727
  818MOL0     H 7911   3.365   9.408   9.927 -0.5342  0.2693  1.0239
  818MOL0     H 7912   3.111   9.379   9.944  0.1039  1.4838  0.2801
  818MOL0     H 7913   2.867   9.344   9.886 -0.9138  0.5931 -1.2025
  818MOL0     H 7914   2.923   9.210   9.958  2.2313 -0.0696 -1.9469
  818MOL0     H 7915   2.702   9.101   9.901 -0.9709 -2.4284 -2.1335
  818MOL0     H 7916   2.753   9.131   9.737  1.7334 -0.8002  0.7500
  818MOL0     H 7917   2.680   9.377   9.751 -0.7900 -1.1471 -1.5515
  818MOL0     H 7918   2.617   9.351   9.912 -1.9228  1.1840 -1.3629
  818MOL0     H 7919   2.523   9.183   9.680  0.7730  1.0041 -1.0872
  818MOL0     H 7920   2.472   9.177   9.851  2.0041 -0.4205  0.4578
  818MOL0     H 7921   2.424   9.424   9.681 -0.3911  0.6963  1.0486
  818MOL0     H 7922   2.372   9.397   9.846 -0.2800 -2.7072  2.2896
  818MOL0     H 7923   2.247   9.191   9.749  1.8148 -1.0229 -1.0755
  818MOL0     H 7924   2.297   9.244   9.585  2.7497 -0.3535  0.2944
  818MOL0     H 7925   2.056   9.335   9.642 -1.3839  0.1191  1.1557
  818MOL0     H 7926   2.134   9.413   9.783 -3.2060 -0.4082 -0.1834
  818MOL0     H 7927   2.212   9.580   9.691 -0.2875  0.2132 -0.6318
  818MOL0     H 7928   2.063   9.554   9.592  0.5760  1.2003 -1.4943
  818MOL0     H 7929   2.172   9.345   9.391 -1.9969 -0.3812  1.5365
  818MOL0     H 7930   2.376   9.306   9.196  2.3368  0.9715 -2.0473
  818MOL0     H 7931   2.401   9.461   9.096 -2.9270 -0.1871 -4.0910
  818MOL0     H 7932   2.141   9.322   9.127 -0.9815  0.5027 -0.1374
  818MOL0     H 7933   2.245   9.335   8.984 -0.2844 -1.5616  1.0515
  818MOL0     H 7934   2.136   9.584   9.121  0.3155  0.2290 -0.5992
  818MOL0     H 7935   2.195   9.569   8.958  0.3923 -1.4207 -1.5274
  818MOL0     H 7936   1.953   9.415   9.060  1.9034  1.2709  2.5124
  818MOL0     H 7937   2.000   9.440   8.894  0.2554  0.7455 -0.8003
  818MOL0     H 7938   1.839   9.833   8.933 -0.2012 -1.9766  1.1964
  818MOL0     H 7939   1.613   9.903   8.834  0.0282 -1.1860 -4.0652
  818MOL0     H 7940   1.130   9.715   8.712  0.4148 -0.8567  2.6174
  818MOL0     H 7941   0.931   9.832   8.652 -0.4676  2.2009 -3.1181
  818MOL0     H 7942   0.874  10.075   8.493  1.0733 -1.0414  2.2657
  818MOL0     H 7943   0.889  10.240   8.549  3.3214 -1.1026 -0.6761
  818MOL0     H 7944   0.657  10.231   8.481  1.0138  1.6785  0.8611
  818MOL0     H 7945   0.673  10.245   8.655  0.0324 -2.7011  2.3935
  818MOL0     H 7946   0.618   9.983   8.664 -0.0664 -0.8009 -0.4574
  818MOL0     H 7947   0.634  10.002   8.482  2.8920  1.5426  0.7258
  818MOL0     H 7948   0.438  10.142   8.673  1.3290 -0.1579 -0.4516
  818MOL0     H 7949   0.436  10.161   8.502  2.1348  2.1496  0.9287
  818MOL0     H 7950   0.398   9.882   8.636  0.0523  3.0238  3.2452
  818MOL0     H 7951   0.383   9.913   8.467 -1.9849 -2.2551  0.8254
  818MOL0     H 7952   0.209  10.092   8.545  0.6089 -0.0523  0.5909
  818MOL0     H 7953   0.180   9.984   8.682  0.3360 -1.4935  0.2285
  818MOL0     H 7954   0.198   9.856   8.408  0.5299  2.5614 -0.6507
  818MOL0     H 7955   0.119   9.810   8.568 -0.5558  0.4853 -0.4243
  818MOL0     H 7956  -0.032  10.007   8.537 -1.8295 -0.8719  0.3811
  818MOL0     H 7957  -0.062   9.871   8.415  1.5676 -0.3649 -3.2886
  818MOL0     H 7958   1.103  10.207   8.731 -1.7529 -1.5483  3.9487
  818MOL0     H 7959   1.325  10.100   8.762  0.3220 -1.0130  0.3538
  818MOL0     H 7960   1.550   9.480   8.780 -0.1173  0.1103  0.3756
  818MOL0     H 7961   1.760   9.430   8.885  0.3935  0.3056  2.6767
  818MOL0     H 7962   3.150   9.112   9.602  0.7193 -0.7914 -0.7333
  818MOL0     H 7963   3.375   9.151   9.588  1.1354  0.9734 -0.5989
  818MOL0     H 7964   3.784   9.137  10.037  1.0762 -0.8604 -0.3092
  818MOL0     H 7965   4.000   9.065   9.982  3.3825  0.6066 -1.2599
  818MOL0     H 7966   4.115   9.083   9.528 -1.0727  1.9167  1.2957
  818MOL0     H 7967   4.255   8.997   9.583 -0.5658  0.0821 -1.1860
  818MOL0     H 7968   4.166   9.291   9.656  0.1280  1.5810 -1.0602
  818MOL0     H 7969   4.312   9.215   9.714  0.0905 -1.4363  0.2830
  818MOL0     H 7970   4.220   9.303   9.444 -3.6261 -1.4629  3.0487
  818MOL0     H 7971   4.359   9.185   9.453  1.2183 -0.3721  1.9331
  818MOL0     H 7972   4.369   9.452   9.600 -0.2329  0.3649  0.3017
  818MOL0     H 7973   4.491   9.321   9.585 -0.4163 -0.6278 -0.8274
  818MOL0     H 7974   4.501   9.527   9.211  0.2373 -1.7631 -0.1771
  818MOL0     H 7975   3.929   9.127   9.560 -2.3580  1.4663 -0.6785
  818MOL0     H 7976   3.727   9.201   9.601  0.3893 -0.6410 -0.2849
  819MOL0     O 7977   4.791   9.625   8.397  0.4564  0.1206 -0.0013
  819MOL0     C 7978   4.766   9.539   8.311  0.2640 -0.9782  0.1010
  819MOL0     O 7979   4.639   9.509   8.261  1.0276 -0.5287  1.1959
  819MOL0     C 7980   4.523   9.545   8.333 -1.3935  0.5944 -0.1219
  819MOL0     C 7981   4.478   9.673   8.364 -0.5523  0.4314  0.0752
  819MOL0     C 7982   4.338   9.690   8.398  0.1206  0.0318  0.3641
  819MOL0     C 7983   4.264   9.572   8.411  0.4177 -0.3657 -0.6591
  819MOL0     O 7984   4.130   9.573   8.453  0.2376 -0.2367  0.3711
  819MOL0     C 7985   4.040   9.616   8.346 -0.1936  0.5654 -0.3964
  819MOL0     C 7986   3.904   9.651   8.408 -0.3677  1.0772 -0.1099
  819MOL0     C 7987   3.825   9.524   8.428 -0.4297 -0.3588  0.5665
  819MOL0     C 7988   3.678   9.534   8.464  0.1078 -0.3408  0.1941
  819MOL0     C 7989   3.595   9.606   8.367  0.2703  0.0547  0.0199
  819MOL0     C 7990   3.444   9.571   8.365 -0.0150  0.0290 -1.0510
  819MOL0     C 7991   3.380   9.612   8.497  0.0552 -0.2780 -0.1911
  819MOL0     C 7992   3.229   9.569   8.510 -0.4894 -0.4286  0.0604
  819MOL0     N 7993   3.147   9.638   8.603  0.3977  0.1837 -0.1166
  819MOL0     C 7994   3.188   9.715   8.711 -0.1799 -0.0115 -0.4703
  819MOL0     C 7995   3.075   9.760   8.765 -0.1786  0.2464 -0.1841
  819MOL0     C 7996   3.070   9.867   8.866  0.0337 -0.2401  0.3130
  819MOL0     C 7997   3.071   9.812   9.010  0.6424 -0.7628 -0.5095
  819MOL0     C 7998   3.051   9.924   9.107  0.1779 -0.5042 -0.4409
  819MOL0     C 7999   2.923  10.004   9.095  0.4100 -0.2845 -0.9269
  819MOL0     O 8000   2.915  10.085   9.216 -0.4158 -0.0002  0.1320
  819MOL0     C 8001   2.795  10.123   9.264 -0.5697  0.1772  0.0514
  819MOL0     C 8002   2.718  10.044   9.343 -0.5246  0.1016  0.2112
  819MOL0     C 8003   2.596  10.072   9.400 -0.9118 -0.1509  0.3051
  819MOL0     C 8004   2.549  10.198   9.375 -0.1271  0.4493 -0.0513
  819MOL0     C 8005   2.420  10.240   9.438  0.2969  0.8167  0.0347
  819MOL0     O 8006   2.389  10.373   9.444  0.0975 -0.3110  0.4391
  819MOL0     C 8007   2.262  10.401   9.497  0.1522  0.2446 -0.0488
  819MOL0     C 8008   2.240  10.482   9.610  0.5350 -0.1741  0.2754
  819MOL0     C 8009   2.115  10.513   9.652 -0.0065  0.2109 -0.1578
  819MOL0     C 8010   2.000  10.470   9.581 -0.2245  0.5639  0.2254
  819MOL0     O 8011   1.870  10.514   9.597 -0.9797 -0.1248  0.3805
  819MOL0     C 8012   1.856  10.643   9.657 -0.0322  0.1662  0.2468
  819MOL0     C 8013   1.741  10.635   9.758  0.1432 -0.6779  0.0279
  819MOL0     C 8014   1.769  10.543   9.873  0.0594 -0.2505  0.1779
  819MOL0     C 8015   1.861  10.611   9.984 -0.4778 -0.1302  1.0321
  819MOL0     C 8016   1.850  10.551  10.116  0.2770  0.3153  0.3689
  819MOL0     C 8017   1.908  10.645  10.222 -0.1114 -0.1940  0.0140
  819MOL0     C 8018   1.921  10.571  10.353  0.4177 -0.0260  0.5055
  819MOL0     C 8019   1.972  10.671  10.460 -0.6618 -0.7516 -0.9616
  819MOL0    Cl 8020   1.842  10.784  10.511  0.1011 -0.5502 -0.3137
  819MOL0     C 8021   2.025  10.374   9.480  1.1679  0.0064 -0.2260
  819MOL0     C 8022   2.151  10.337   9.440 -0.8194  0.3900 -0.2848
  819MOL0     O 8023   2.355  10.153   9.500  1.1127  0.2299  0.3840
  819MOL0     C 8024   2.631  10.289   9.301 -0.7952 -1.6021  0.2076
  819MOL0     C 8025   2.748  10.253   9.242  1.0772 -0.0205 -0.6467
  819MOL0     N 8026   2.969   9.704   8.699 -0.2069  0.3320 -0.1344
  819MOL0     N 8027   3.010   9.629   8.607  0.5427 -0.7038 -0.1687
  819MOL0     C 8028   4.318   9.444   8.407 -0.6794 -0.3277  0.6087
  819MOL0     C 8029   4.450   9.429   8.373 -0.0067 -0.5608  0.3461
  819MOL0     C 8030   4.878   9.488   8.234 -0.0904 -1.0215 -0.1520
  819MOL0     C 8031   4.860   9.354   8.193 -0.2292 -1.4764  0.7047
  819MOL0     C 8032   4.967   9.280   8.132  0.4471  0.2266 -0.9676
  819MOL0     C 8033   5.095   9.342   8.131  0.3518 -0.1442 -0.5904
  819MOL0     O 8034   5.218   9.285   8.091 -0.0394 -0.1443  0.0145
  819MOL0     C 8035   5.229   9.148   8.043 -0.1951 -0.0278  0.2035
  819MOL0     C 8036   5.184   9.158   7.895 -0.4532 -0.6960 -0.4711
  819MOL0     C 8037   5.214   9.027   7.817 -0.2160 -0.0478 -0.5400
  819MOL0     C 8038   5.199   9.053   7.673  0.0178 -0.4924  1.1803
  819MOL0     C 8039   5.064   9.076   7.625  0.0526 -0.9109  0.6811
  819MOL0     C 8040   4.954   9.097   7.572  0.5631  0.1821 -1.7074
  819MOL0     C 8041   5.109   9.476   8.175  0.7014  0.3098  0.9141
  819MOL0     C 8042   5.006   9.554   8.232  0.1585  0.3157 -0.4822
  819MOL0     H 8043   4.544   9.756   8.341  0.7862 -0.9169 -1.0747
  819MOL0     H 8044   4.304   9.789   8.426  2.1548 -0.2811  4.6397
  819MOL0     H 8045   4.033   9.533   8.274 -1.5408  0.3348 -0.0269
  819MOL0     H 8046   4.084   9.702   8.293  1.4626 -2.0192 -3.6296
  819MOL0     H 8047   3.865   9.709   8.323  0.6691  0.9115 -0.7081
  819MOL0     H 8048   3.917   9.701   8.504 -0.8437  0.1957  0.4234
  819MOL0     H 8049   3.870   9.474   8.514 -0.6849 -1.7135 -0.0738
  819MOL0     H 8050   3.841   9.451   8.348  0.3605  0.7019 -0.2763
  819MOL0     H 8051   3.634   9.436   8.487  1.3055 -0.8448  0.3759
  819MOL0     H 8052   3.682   9.584   8.561  1.9145  2.2384 -1.1217
  819MOL0     H 8053   3.617   9.574   8.264 -0.5335 -0.4662  0.0003
  819MOL0     H 8054   3.620   9.712   8.366  0.2266  0.0617 -0.3995
  819MOL0     H 8055   3.429   9.467   8.337 -4.5355  0.3344 -0.5689
  819MOL0     H 8056   3.402   9.630   8.283 -0.3850 -1.1671 -1.7383
  819MOL0     H 8057   3.436   9.574   8.583 -2.3976  5.0303  4.3876
  819MOL0     H 8058   3.384   9.721   8.507  1.0945 -0.3026 -0.2004
  819MOL0     H 8059   3.242   9.464   8.541  1.1610 -1.3735 -3.3246
  819MOL0     H 8060   3.182   9.584   8.412  0.6607  0.8217 -0.3245
  819MOL0     H 8061   3.291   9.740   8.737 -0.5610 -1.2371  2.5409
  819MOL0     H 8062   2.971   9.911   8.850 -0.1037 -0.2684  1.0259
  819MOL0     H 8063   3.160   9.927   8.852 -0.2843 -0.3043 -2.6129
  819MOL0     H 8064   3.165   9.769   9.045 -0.9718 -1.3321  3.7214
  819MOL0     H 8065   2.995   9.735   9.030  1.2797 -1.0910  0.7285
  819MOL0     H 8066   3.047   9.884   9.209 -1.3032  1.1966  0.2215
  819MOL0     H 8067   3.140   9.988   9.104  0.6321 -1.0652  0.4530
  819MOL0     H 8068   2.828   9.950   9.087 -1.8262  3.2392 -0.3041
  819MOL0     H 8069   2.934  10.065   9.005 -0.4808 -2.1866 -2.3954
  819MOL0     H 8070   2.764   9.947   9.359  0.9748  0.9275  1.2133
  819MOL0     H 8071   2.542   9.993   9.451  0.1187 -0.9990  0.1225
  819MOL0     H 8072   2.324  10.531   9.659  0.0119  1.6642 -0.5626
  819MOL0     H 8073   2.119  10.576   9.740  3.0320  1.5439 -1.1340
  819MOL0     H 8074   1.840  10.717   9.578 -3.0121  0.3104  0.8791
  819MOL0     H 8075   1.944  10.662   9.720  0.0563  0.5405  0.0180
  819MOL0     H 8076   1.651  10.605   9.703 -0.8068 -1.8821  2.0991
  819MOL0     H 8077   1.720  10.736   9.796  2.5002  1.0549 -2.8646
  819MOL0     H 8078   1.800  10.444   9.837 -1.6044 -0.6874 -0.1650
  819MOL0     H 8079   1.675  10.530   9.928  0.2440 -0.5570  0.4264
  819MOL0     H 8080   1.967  10.598   9.960 -0.5897 -2.8327  1.7027
  819MOL0     H 8081   1.856  10.720   9.980 -2.3272 -0.1889 -2.1313
  819MOL0     H 8082   1.905  10.457  10.100 -0.1169  0.4087 -1.8355
  819MOL0     H 8083   1.747  10.524  10.142 -0.0118 -0.8580 -1.7046
  819MOL0     H 8084   1.849  10.734  10.244 -0.3308 -0.7962  2.0312
  819MOL0     H 8085   2.007  10.676  10.186 -1.1502  0.9799 -2.0408
  819MOL0     H 8086   1.825  10.526  10.377  0.0365  1.0253  1.0137
  819MOL0     H 8087   1.996  10.493  10.332  1.5565  1.7096 -2.3858
  819MOL0     H 8088   2.060  10.716  10.415  1.7799 -2.8513  1.3634
  819MOL0     H 8089   2.003  10.618  10.551  0.3800  2.7233  0.8641
  819MOL0     H 8090   1.938  10.335   9.427  0.9137  1.1891 -0.7147
  819MOL0     H 8091   2.184  10.283   9.351  0.4931 -0.1858  0.5261
  819MOL0     H 8092   2.600  10.392   9.287  0.9634 -0.8115  1.7315
  819MOL0     H 8093   2.801  10.332   9.189  1.1616  0.5569  0.2762
  819MOL0     H 8094   4.250   9.362   8.428 -2.4384  0.8096 -0.3758
  819MOL0     H 8095   4.500   9.333   8.366 -0.3414 -0.7774  0.8786
  819MOL0     H 8096   4.761   9.309   8.194 -1.6042  0.9423 -3.5382
  819MOL0     H 8097   4.942   9.180   8.098 -0.0397 -0.3627  0.9785
  819MOL0     H 8098   5.169   9.073   8.095 -0.5683 -1.5980 -2.3556
  819MOL0     H 8099   5.332   9.111   8.054 -0.5400 -0.7513  1.1592
  819MOL0     H 8100   5.076   9.179   7.897 -1.7098 -5.7878 -0.2850
  819MOL0     H 8101   5.240   9.243   7.854 -1.8174  1.4562  1.8366
  819MOL0     H 8102   5.145   8.949   7.851 -0.1748  1.4931  3.7110
  819MOL0     H 8103   5.319   9.007   7.840  0.9186  3.3546 -2.0799
  819MOL0     H 8104   5.271   9.131   7.645  0.5038 -0.2459  2.9528
  819MOL0     H 8105   5.229   8.966   7.615 -2.4402 -1.0991  0.7137
  819MOL0     H 8106   4.862   9.137   7.535  1.7370  0.1305 -5.0242
  819MOL0     H 8107   5.204   9.524   8.155 -0.7949  2.6516 -1.3037
  819MOL0     H 8108   5.015   9.657   8.264  2.6085  0.1507 -0.4476
  820MOL0     O 8109   9.856   9.460   9.764  0.1717 -0.2982  0.3028
  820MOL0     C 8110   9.960   9.479   9.819 -0.1371  0.1100 -0.1181
  820MOL0     O 8111   9.983   9.449   9.954 -0.1157  0.1058  0.0622
  820MOL0     C 8112   9.895   9.357  10.013 -1.0914  0.0679  1.0727
  820MOL0     C 8113   9.824   9.399  10.123 -0.5388  0.0007 -0.0775
  820MOL0     C 8114   9.735   9.312  10.180 -0.1132  0.2183  0.7111
  820MOL0     C 8115   9.707   9.185  10.123 -0.4709 -0.3605  0.1366
  820MOL0     O 8116   9.607   9.110  10.185 -0.1458 -0.4016  0.2139
  820MOL0     C 8117   9.603   8.971  10.146 -0.4606  0.4506  0.3984
  820MOL0     C 8118   9.518   8.897  10.250  0.3913 -0.1459 -0.5189
  820MOL0     C 8119   9.472   8.758  10.214  0.1994 -1.0321  0.7960
  820MOL0     C 8120   9.386   8.714  10.338  0.9550  0.0357  0.2763
  820MOL0     C 8121   9.333   8.576  10.325 -0.8934 -0.1942 -0.2269
  820MOL0     C 8122   9.216   8.562  10.224  0.5335  0.1138  0.1878
  820MOL0     C 8123   9.076   8.595  10.287 -0.1354  0.0440  0.0269
  820MOL0     C 8124   8.976   8.668  10.190  0.6386 -0.1038  0.3218
  820MOL0     N 8125   8.851   8.702  10.267 -0.0070 -0.2406 -0.0353
  820MOL0     C 8126   8.725   8.690  10.207 -0.1786  0.5568 -0.2859
  820MOL0     C 8127   8.644   8.747  10.303  0.4646 -0.1980  0.5857
  820MOL0     C 8128   8.500   8.761  10.298 -0.0916 -0.1916  0.0420
  820MOL0     C 8129   8.411   8.647  10.354  0.3114  0.1559  0.0033
  820MOL0     C 8130   8.430   8.621  10.508 -0.4018 -0.1405 -0.4357
  820MOL0     C 8131   8.302   8.571  10.581 -0.8252 -0.0582  0.1296
  820MOL0     O 8132   8.255   8.454  10.511  0.6692  0.1369  0.7549
  820MOL0     C 8133   8.128   8.451  10.454 -0.2599  0.2770  0.1004
  820MOL0     C 8134   8.021   8.526  10.508 -0.6406  0.0803  0.4838
  820MOL0     C 8135   7.892   8.505  10.452  0.1193 -0.4177 -0.3467
  820MOL0     C 8136   7.868   8.429  10.333  0.1425 -0.3019  0.0577
  820MOL0     C 8137   7.729   8.390  10.286 -0.5426  0.3461  0.8449
  820MOL0     O 8138   7.724   8.330  10.161 -0.3408  0.2327 -0.0016
  820MOL0     C 8139   7.609   8.294  10.099  1.0113  0.0711 -0.0594
  820MOL0     C 8140   7.472   8.314  10.145  0.2363 -1.0947  0.6338
  820MOL0     C 8141   7.373   8.281  10.064  0.1246 -1.3703 -0.0899
  820MOL0     C 8142   7.389   8.209   9.947  0.1438  0.0188 -0.2559
  820MOL0     O 8143   7.282   8.162   9.874 -1.1381 -0.4428 -0.3725
  820MOL0     C 8144   7.147   8.176   9.940  0.9241 -0.5285  0.1780
  820MOL0     C 8145   7.050   8.125   9.841 -0.0936  0.9454 -1.1933
  820MOL0     C 8146   6.925   8.083   9.926 -0.5856 -0.2513  0.3359
  820MOL0     C 8147   6.827   8.001   9.841  0.5255 -0.0316  0.0534
  820MOL0     C 8148   6.698   7.971   9.904  0.0430 -0.1253 -0.8224
  820MOL0     C 8149   6.629   7.869   9.816  0.9143 -0.3821 -0.3613
  820MOL0     C 8150   6.488   7.853   9.869  0.5388 -0.5765  0.0869
  820MOL0     C 8151   6.415   7.730   9.821 -0.6902 -0.6173  0.2273
  820MOL0    Cl 8152   6.236   7.767   9.835 -0.2542 -0.2095 -0.4357
  820MOL0     C 8153   7.513   8.168   9.903 -0.5163 -0.5218 -0.5064
  820MOL0     C 8154   7.623   8.211   9.983 -0.1500 -0.0757 -0.0965
  820MOL0     O 8155   7.629   8.421  10.349 -0.3257 -0.5363  0.3179
  820MOL0     C 8156   7.981   8.370  10.278 -1.2434  0.0325  0.6618
  820MOL0     C 8157   8.112   8.381  10.339 -0.5310  1.1475 -0.0326
  820MOL0     N 8158   8.722   8.787  10.414  0.3882  0.0030  0.0586
  820MOL0     N 8159   8.845   8.763  10.386  0.7542 -0.1972 -0.2325
  820MOL0     C 8160   9.788   9.144  10.018 -0.1146 -0.1448 -1.3301
  820MOL0     C 8161   9.879   9.226   9.958  0.2272 -0.1032  0.3786
  820MOL0     C 8162  10.059   9.580   9.769 -0.0982 -0.9150 -0.9694
  820MOL0     C 8163  10.172   9.614   9.849 -0.4264 -0.0889  0.3563
  820MOL0     C 8164  10.296   9.677   9.795  0.7368  0.1366 -0.2815
  820MOL0     C 8165  10.289   9.728   9.664 -0.3779 -0.1095  0.0415
  820MOL0     O 8166  10.396   9.796   9.611  0.7856  0.6782  0.2289
  820MOL0     C 8167  10.458   9.750   9.487 -0.0141  0.5760 -0.3952
  820MOL0     C 8168  10.563   9.645   9.519 -0.1113  0.8586 -0.2113
  820MOL0     C 8169  10.680   9.699   9.608  0.4315  0.1100  0.1088
  820MOL0     C 8170  10.783   9.593   9.646  0.0372  0.0794  0.6752
  820MOL0     C 8171  10.709   9.500   9.740  0.3586  0.0687 -0.3496
  820MOL0     C 8172  10.645   9.451   9.831  0.4181  0.5494 -0.0055
  820MOL0     C 8173  10.178   9.693   9.586  0.3594 -1.0445 -0.0930
  820MOL0     C 8174  10.064   9.617   9.635 -1.0429  0.4627 -0.5544
  820MOL0     H 8175   9.838   9.504  10.148  0.0052  0.3458 -1.7352
  820MOL0     H 8176   9.677   9.351  10.264 -3.4689 -1.1015 -0.8103
  820MOL0     H 8177   9.704   8.931  10.134 -0.2599  1.2472 -0.8290
  820MOL0     H 8178   9.563   8.957  10.045  1.2232  0.7698 -0.3404
  820MOL0     H 8179   9.427   8.947  10.287  0.5205 -0.9579  0.9760
  820MOL0     H 8180   9.575   8.890  10.343  2.1549 -0.9285 -1.6162
  820MOL0     H 8181   9.557   8.693  10.193 -0.7656 -1.2603 -3.3754
  820MOL0     H 8182   9.411   8.761  10.123 -2.5162  1.8126  2.4818
  820MOL0     H 8183   9.436   8.730  10.434  0.7142  2.1069  0.1056
  820MOL0     H 8184   9.298   8.779  10.348  0.3596 -0.3482 -1.8410
  820MOL0     H 8185   9.305   8.544  10.426 -0.5412 -1.5014 -0.5224
  820MOL0     H 8186   9.418   8.513  10.296 -1.3563  0.1802 -2.5754
  820MOL0     H 8187   9.212   8.459  10.188 -2.0929 -0.0600  0.7919
  820MOL0     H 8188   9.228   8.623  10.135 -0.2874 -1.6557 -1.1970
  820MOL0     H 8189   9.043   8.499  10.329  0.6146 -0.1994  0.0765
  820MOL0     H 8190   9.089   8.657  10.376 -1.8715 -0.1232  0.4202
  820MOL0     H 8191   8.948   8.608  10.103  1.6899  0.8930 -0.7285
  820MOL0     H 8192   9.023   8.761  10.156  0.0004 -0.6072 -2.1242
  820MOL0     H 8193   8.708   8.661  10.103  2.3706  0.1053 -0.6460
  820MOL0     H 8194   8.469   8.788  10.197  1.5525 -1.7739 -0.9363
  820MOL0     H 8195   8.469   8.848  10.356 -2.5534 -0.5867 -0.5346
  820MOL0     H 8196   8.439   8.558  10.296  3.7350  1.2050 -0.1622
  820MOL0     H 8197   8.308   8.671  10.323  0.1531 -0.8673 -0.2982
  820MOL0     H 8198   8.507   8.546  10.529  1.1352  1.3871 -0.4048
  820MOL0     H 8199   8.452   8.715  10.559 -0.6984  0.4885 -1.4272
  820MOL0     H 8200   8.226   8.650  10.581 -2.0153 -1.1749  0.2798
  820MOL0     H 8201   8.321   8.525  10.679  0.7273  0.8411  0.2819
  820MOL0     H 8202   8.035   8.582  10.600  1.9832  0.9297 -0.3161
  820MOL0     H 8203   7.813   8.547  10.513  3.2188  2.8422  1.8596
  820MOL0     H 8204   7.452   8.357  10.242  1.2122 -1.8615  1.1878
  820MOL0     H 8205   7.277   8.321  10.094  0.9358  1.4973 -0.9959
  820MOL0     H 8206   7.122   8.282   9.955 -1.4524 -0.8791 -0.9229
  820MOL0     H 8207   7.123   8.123  10.033  0.5759 -2.5525 -1.0124
  820MOL0     H 8208   7.096   8.036   9.797 -0.0402  0.2089  0.3009
  820MOL0     H 8209   7.047   8.201   9.762  3.7852  1.0554 -1.4449
  820MOL0     H 8210   6.871   8.176   9.947 -1.7171 -1.1634  1.5972
  820MOL0     H 8211   6.955   8.023  10.012  1.7334 -0.7943 -0.7831
  820MOL0     H 8212   6.811   8.063   9.753  1.3170  1.3464  0.8554
  820MOL0     H 8213   6.876   7.908   9.812  0.9794  0.1615  0.2047
  820MOL0     H 8214   6.652   8.068   9.927  0.6757 -0.4985  2.5859
  820MOL0     H 8215   6.720   7.926  10.002  0.5217 -0.3164 -1.0125
  820MOL0     H 8216   6.683   7.774   9.822  1.8507 -0.3230 -4.4145
  820MOL0     H 8217   6.618   7.883   9.708  2.0763 -1.4596 -0.6551
  820MOL0     H 8218   6.500   7.850   9.978  5.3762 -3.0170 -0.2476
  820MOL0     H 8219   6.430   7.936   9.829  1.9262 -0.5643 -2.0422
  820MOL0     H 8220   6.440   7.642   9.881  4.1931 -0.7287 -1.4993
  820MOL0     H 8221   6.440   7.700   9.718  2.2200  2.0309  0.0178
  820MOL0     H 8222   7.514   8.105   9.814 -1.7317 -3.3295  1.3349
  820MOL0     H 8223   7.728   8.188   9.968 -0.3934 -1.1831 -0.1529
  820MOL0     H 8224   7.973   8.315  10.185 -2.9471  2.4478 -0.7496
  820MOL0     H 8225   8.197   8.323  10.302 -1.0596 -1.0793  1.9932
  820MOL0     H 8226   9.779   9.042   9.983 -0.4357 -0.8625  0.6921
  820MOL0     H 8227   9.940   9.194   9.874 -0.2019 -2.0401  0.7582
  820MOL0     H 8228  10.176   9.582   9.953 -1.4057  0.1648  0.4792
  820MOL0     H 8229  10.390   9.692   9.847  2.5848 -2.2047 -2.6780
  820MOL0     H 8230  10.509   9.833   9.437  3.3112 -0.4111  1.0532
  820MOL0     H 8231  10.379   9.706   9.425 -2.0904 -1.4721  3.3407
  820MOL0     H 8232  10.509   9.557   9.555  2.6730 -0.7979  0.2112
  820MOL0     H 8233  10.606   9.617   9.422 -0.1429  0.2379 -0.0464
  820MOL0     H 8234  10.633   9.749   9.694 -2.3142  0.6792 -1.5835
  820MOL0     H 8235  10.729   9.777   9.549 -1.2674  1.8873  0.9375
  820MOL0     H 8236  10.812   9.538   9.555 -0.2348  1.4093 -0.2537
  820MOL0     H 8237  10.863   9.643   9.701  0.6733 -0.9690  0.7235
  820MOL0     H 8238  10.578   9.402   9.898 -0.7884 -0.1590 -1.6823
  820MOL0     H 8239  10.178   9.739   9.488 -3.4742 -0.7197 -0.1050
  820MOL0     H 8240   9.979   9.594   9.572 -2.4933  0.3473  1.3755
  821MOL0     O 8241   8.210   9.398   4.796  0.1662 -0.1589 -0.1800
  821MOL0     C 8242   8.235   9.284   4.834  0.1391 -0.0643 -0.0524
  821MOL0     O 8243   8.151   9.208   4.911 -0.3883 -0.0115  0.1584
  821MOL0     C 8244   8.021   9.251   4.935 -0.2837 -0.1870  0.2882
  821MOL0     C 8245   7.911   9.177   4.868 -0.4815  0.1524 -0.6268
  821MOL0     C 8246   7.786   9.240   4.876 -0.1525 -0.6980  0.2506
  821MOL0     C 8247   7.765   9.357   4.949  0.0005  0.1756 -0.4960
  821MOL0     O 8248   7.654   9.433   4.939 -0.5984  0.0094  0.3417
  821MOL0     C 8249   7.520   9.378   4.926 -0.2003  0.0145 -0.7527
  821MOL0     C 8250   7.472   9.321   5.065  0.1587 -0.1092 -0.0864
  821MOL0     C 8251   7.320   9.281   5.066 -0.8301 -0.5262 -0.8492
  821MOL0     C 8252   7.293   9.130   5.074  0.2875 -0.5478  0.0695
  821MOL0     C 8253   7.182   9.073   4.982  0.7389 -0.0763  0.1470
  821MOL0     C 8254   7.038   9.106   5.033 -0.1188 -0.6966  0.6407
  821MOL0     C 8255   6.941   9.068   4.919  0.3583 -0.3694 -0.4069
  821MOL0     C 8256   6.799   9.117   4.942  0.6788 -0.1395 -0.8431
  821MOL0     N 8257   6.736   9.050   5.054  0.2329  0.1250  0.4574
  821MOL0     C 8258   6.664   8.931   5.047  1.1397 -0.2036  0.2313
  821MOL0     C 8259   6.599   8.930   5.169 -0.5636  0.9073  1.2749
  821MOL0     C 8260   6.531   8.801   5.216 -0.6204  0.4780 -0.1692
  821MOL0     C 8261   6.376   8.811   5.241  0.4424 -0.7669  0.3491
  821MOL0     C 8262   6.332   8.692   5.329 -0.1259 -0.5612 -1.0587
  821MOL0     C 8263   6.177   8.712   5.364 -0.7520  0.2606  0.0237
  821MOL0     O 8264   6.125   8.589   5.421 -0.0795  0.0970  0.6826
  821MOL0     C 8265   5.993   8.572   5.444 -0.5029 -0.2887 -0.2818
  821MOL0     C 8266   5.895   8.671   5.412 -1.0754 -0.6228 -0.0843
  821MOL0     C 8267   5.764   8.654   5.453  0.3268  1.2564  0.9856
  821MOL0     C 8268   5.723   8.522   5.495 -0.1156  0.4608 -0.3776
  821MOL0     C 8269   5.585   8.499   5.539 -0.0427  0.3516  0.3085
  821MOL0     O 8270   5.563   8.410   5.636 -0.3350  0.5966 -0.1473
  821MOL0     C 8271   5.441   8.347   5.649 -0.0814 -0.1023 -0.4032
  821MOL0     C 8272   5.319   8.414   5.663  0.2137  0.2255  0.0986
  821MOL0     C 8273   5.199   8.349   5.704  0.1576  0.1552  0.8253
  821MOL0     C 8274   5.202   8.217   5.729  0.3170  1.0604  0.3184
  821MOL0     O 8275   5.081   8.157   5.757  0.4574 -0.1798 -0.6330
  821MOL0     C 8276   5.062   8.017   5.707  0.0770  0.7245 -0.2089
  821MOL0     C 8277   4.920   7.960   5.725  0.3474  0.0868 -0.3018
  821MOL0     C 8278   4.888   7.829   5.658 -0.4352  0.2592  0.3359
  821MOL0     C 8279   4.736   7.775   5.674  0.9907 -1.6542 -0.2909
  821MOL0     C 8280   4.726   7.624   5.623  0.5439 -0.2356  0.2735
  821MOL0     C 8281   4.592   7.570   5.661  0.1693 -0.0153 -0.2064
  821MOL0     C 8282   4.586   7.423   5.621  0.0935 -0.2593  0.3772
  821MOL0     C 8283   4.455   7.343   5.664 -1.2274  0.7146 -0.2820
  821MOL0    Cl 8284   4.310   7.446   5.705  0.2294  0.0594  0.4080
  821MOL0     C 8285   5.320   8.140   5.714 -0.8330 -0.3251  0.6869
  821MOL0     C 8286   5.435   8.211   5.672  0.0856 -0.5176  0.2671
  821MOL0     O 8287   5.496   8.547   5.462  1.2391  0.4221  0.3168
  821MOL0     C 8288   5.817   8.428   5.527 -0.0082  0.1571  0.2764
  821MOL0     C 8289   5.953   8.456   5.502 -0.5083 -0.2940 -0.5078
  821MOL0     N 8290   6.637   9.042   5.243 -0.9998 -1.2160  0.2426
  821MOL0     N 8291   6.723   9.107   5.174  0.6192 -0.2736 -0.6278
  821MOL0     C 8292   7.871   9.420   5.013  0.2467  0.3273 -0.5517
  821MOL0     C 8293   8.000   9.370   5.001  0.0501 -0.3555 -0.5576
  821MOL0     C 8294   8.370   9.236   4.825  0.7831  0.9927 -0.8440
  821MOL0     C 8295   8.408   9.104   4.869  0.5740 -0.3998 -0.1778
  821MOL0     C 8296   8.538   9.058   4.854  0.5731 -0.5982  1.4318
  821MOL0     C 8297   8.625   9.135   4.786 -0.1977  0.2490  0.0795
  821MOL0     O 8298   8.762   9.121   4.791  0.1300  0.0031 -0.8604
  821MOL0     C 8299   8.831   9.130   4.922 -0.0675 -0.1771  0.1639
  821MOL0     C 8300   8.976   9.199   4.909 -0.2200 -0.3271 -0.0267
  821MOL0     C 8301   8.993   9.334   4.841  0.7480  0.2386 -0.1841
  821MOL0     C 8302   9.122   9.350   4.762  0.5090  0.5185 -0.2586
  821MOL0     C 8303   9.240   9.354   4.842 -0.3205 -0.1548 -0.2571
  821MOL0     C 8304   9.334   9.355   4.916 -0.6640 -0.1102 -0.2541
  821MOL0     C 8305   8.598   9.264   4.732 -0.3423  0.0462  0.0105
  821MOL0     C 8306   8.467   9.313   4.757  0.2634  0.0573 -0.2085
  821MOL0     H 8307   7.944   9.090   4.812 -0.6930  0.1785 -0.7923
  821MOL0     H 8308   7.705   9.188   4.828 -1.2585  0.0050  1.3005
  821MOL0     H 8309   7.516   9.299   4.851  3.0759 -0.1516 -0.9016
  821MOL0     H 8310   7.447   9.453   4.896 -0.2862  0.2363 -0.0220
  821MOL0     H 8311   7.477   9.410   5.128 -1.5622  0.4684 -0.7002
  821MOL0     H 8312   7.533   9.241   5.106  0.4523  0.9494  1.6292
  821MOL0     H 8313   7.276   9.319   4.974  1.6437  0.4240 -1.7165
  821MOL0     H 8314   7.256   9.325   5.144  0.1913 -0.6964  0.1101
  821MOL0     H 8315   7.381   9.072   5.043 -0.3127  0.4211 -3.9983
  821MOL0     H 8316   7.279   9.105   5.179 -0.2194  0.1962  0.1871
  821MOL0     H 8317   7.187   8.964   4.984 -2.1921 -0.3166  2.8808
  821MOL0     H 8318   7.200   9.112   4.881 -0.4642  0.4366  0.1167
  821MOL0     H 8319   7.042   9.214   5.054 -0.4468 -0.7369  0.9304
  821MOL0     H 8320   7.016   9.075   5.136  2.2336  1.7844  2.0528
  821MOL0     H 8321   6.964   9.116   4.823 -1.3677  1.4724  0.0224
  821MOL0     H 8322   6.941   8.959   4.910  3.4357 -0.5036  0.0960
  821MOL0     H 8323   6.734   9.099   4.855 -1.7353  0.5862  0.7121
  821MOL0     H 8324   6.804   9.223   4.966 -1.6651 -0.5560  1.9333
  821MOL0     H 8325   6.666   8.845   4.981  2.0893  0.6446 -0.9014
  821MOL0     H 8326   6.587   8.772   5.306 -1.5828  0.3335  0.4028
  821MOL0     H 8327   6.547   8.715   5.151 -2.3856 -0.4615  0.5496
  821MOL0     H 8328   6.321   8.804   5.147 -0.5160  2.0562  0.6253
  821MOL0     H 8329   6.349   8.908   5.284 -3.4602 -0.9958 -1.1733
  821MOL0     H 8330   6.361   8.595   5.289  3.7452 -0.2232  0.4554
  821MOL0     H 8331   6.380   8.702   5.427  0.1757  0.3627 -1.2841
  821MOL0     H 8332   6.130   8.720   5.265 -0.4050 -2.4081 -0.4345
  821MOL0     H 8333   6.156   8.807   5.413 -0.1076  1.5633 -2.0973
  821MOL0     H 8334   5.915   8.771   5.373 -1.5299 -1.2166 -1.9635
  821MOL0     H 8335   5.692   8.730   5.427  0.2943  0.1391 -2.7746
  821MOL0     H 8336   5.320   8.521   5.645  1.7222  0.7608  2.8703
  821MOL0     H 8337   5.109   8.410   5.709  2.2947  3.5031  3.8481
  821MOL0     H 8338   5.126   7.938   5.748 -3.1692 -1.5089  0.9543
  821MOL0     H 8339   5.086   8.019   5.600  3.0507 -0.7645  0.3046
  821MOL0     H 8340   4.853   8.038   5.689  1.7057  2.3211  1.7115
  821MOL0     H 8341   4.892   7.958   5.831  0.9088  3.0972 -0.0207
  821MOL0     H 8342   4.949   7.753   5.708 -0.5440 -1.9082 -2.5908
  821MOL0     H 8343   4.912   7.844   5.552  3.3589  2.1017  1.2657
  821MOL0     H 8344   4.705   7.785   5.779  0.2336 -2.1108 -0.4653
  821MOL0     H 8345   4.663   7.843   5.628  1.1577  0.2146  1.9880
  821MOL0     H 8346   4.793   7.555   5.675  1.2707 -1.3661 -2.0021
  821MOL0     H 8347   4.740   7.613   5.515 -2.3264  2.0821 -0.4610
  821MOL0     H 8348   4.518   7.629   5.606 -0.5242 -2.4116 -2.0354
  821MOL0     H 8349   4.575   7.577   5.768  0.7165 -0.6699 -0.0725
  821MOL0     H 8350   4.587   7.419   5.512  0.3858  0.8133  0.3248
  821MOL0     H 8351   4.687   7.386   5.638  1.4401  2.7793 -0.3382
  821MOL0     H 8352   4.484   7.279   5.748 -0.8603  1.8040  0.4354
  821MOL0     H 8353   4.439   7.280   5.576  0.5604 -0.0796 -0.0789
  821MOL0     H 8354   5.327   8.034   5.736 -0.4480 -0.8968 -1.8974
  821MOL0     H 8355   5.521   8.151   5.643 -0.1842 -1.2074  0.8678
  821MOL0     H 8356   5.794   8.333   5.574  1.4869  0.3311  1.4632
  821MOL0     H 8357   6.032   8.390   5.538  0.5764  0.4746 -1.4166
  821MOL0     H 8358   7.851   9.510   5.069  0.5230 -2.0096  3.6990
  821MOL0     H 8359   8.091   9.425   5.025 -0.2754  0.8834 -2.0416
  821MOL0     H 8360   8.343   9.031   4.916  2.5272 -1.2977  1.2962
  821MOL0     H 8361   8.576   8.972   4.908  1.9193 -1.2679 -0.4794
  821MOL0     H 8362   8.837   9.039   4.982 -0.7819  0.6705  1.5794
  821MOL0     H 8363   8.772   9.198   4.984  0.9265  1.1948 -0.3521
  821MOL0     H 8364   9.015   9.212   5.010 -0.1381 -0.7220 -0.0062
  821MOL0     H 8365   9.038   9.132   4.849 -2.4990 -1.8615 -0.7940
  821MOL0     H 8366   8.981   9.417   4.911 -0.6393  0.0681 -0.1898
  821MOL0     H 8367   8.899   9.335   4.785 -0.2459  1.3694  1.4144
  821MOL0     H 8368   9.127   9.256   4.707 -0.9795  0.0636  0.3054
  821MOL0     H 8369   9.108   9.433   4.693  1.9866 -0.1369 -1.3946
  821MOL0     H 8370   9.414   9.375   4.985  0.4133  0.2522 -1.5668
  821MOL0     H 8371   8.674   9.328   4.687 -1.6878  0.4341 -1.8355
  821MOL0     H 8372   8.437   9.413   4.725 -0.8228 -1.2256 -3.6626
  822MOL0     O 8373   0.260   2.457   5.080 -0.0904  0.0912  0.7137
  822MOL0     C 8374   0.247   2.353   5.141  0.1702  0.3652 -0.4173
  822MOL0     O 8375   0.213   2.233   5.081 -0.0354  0.0698 -0.1055
  822MOL0     C 8376   0.197   2.231   4.946  0.1219 -0.6314  0.1017
  822MOL0     C 8377   0.289   2.164   4.868 -0.7709  0.1919  0.0979
  822MOL0     C 8378   0.282   2.170   4.728 -0.2239  0.3787 -0.2576
  822MOL0     C 8379   0.167   2.227   4.664 -0.3043  0.7657 -0.2755
  822MOL0     O 8380   0.149   2.222   4.532  0.0291  0.4958  0.2293
  822MOL0     C 8381   0.266   2.224   4.435  1.0467 -0.1010 -0.8025
  822MOL0     C 8382   0.220   2.271   4.291 -0.2697 -0.1742 -0.3057
  822MOL0     C 8383   0.139   2.159   4.226  0.3217  0.1979 -0.0627
  822MOL0     C 8384   0.105   2.196   4.084 -0.1214  0.6328  0.0514
  822MOL0     C 8385   0.057   2.072   3.994 -0.3770  0.7375  0.1822
  822MOL0     C 8386  -0.080   2.025   4.044  0.1279  0.3684  0.0459
  822MOL0     C 8387  -0.142   1.921   3.948 -0.7919  0.6700 -0.0739
  822MOL0     C 8388  -0.283   1.894   3.989 -0.4165 -0.1979 -0.2771
  822MOL0     N 8389  -0.296   1.819   4.118 -0.0402 -0.1247  0.5617
  822MOL0     C 8390  -0.230   1.704   4.146 -0.5793 -0.2092 -0.6108
  822MOL0     C 8391  -0.286   1.669   4.267 -0.4242  0.2017  0.2364
  822MOL0     C 8392  -0.246   1.536   4.330 -0.8222 -0.0863 -0.2242
  822MOL0     C 8393  -0.178   1.553   4.459 -0.4168  0.3391 -0.0525
  822MOL0     C 8394  -0.161   1.417   4.537 -0.8204  0.3977 -0.4506
  822MOL0     C 8395  -0.092   1.435   4.675 -0.8428 -0.0026  0.7631
  822MOL0     O 8396  -0.161   1.364   4.785  1.7685  0.0331 -0.4815
  822MOL0     C 8397  -0.216   1.455   4.866  0.3471 -0.3345 -0.1375
  822MOL0     C 8398  -0.152   1.529   4.963  0.4066  0.1328  0.2478
  822MOL0     C 8399  -0.220   1.623   5.048 -0.5327 -0.3111 -0.7833
  822MOL0     C 8400  -0.361   1.629   5.055 -0.4746 -0.1732  0.0440
  822MOL0     C 8401  -0.431   1.715   5.152  1.0475  0.8832 -0.7164
  822MOL0     O 8402  -0.573   1.729   5.119  0.0652 -0.3171  0.5111
  822MOL0     C 8403  -0.665   1.815   5.184  0.0150 -0.7828 -0.4736
  822MOL0     C 8404  -0.634   1.886   5.305  0.5094  0.5696  0.1478
  822MOL0     C 8405  -0.721   1.980   5.356 -0.0049 -0.5906  0.4669
  822MOL0     C 8406  -0.853   1.993   5.304  0.1144  0.3635  0.0337
  822MOL0     O 8407  -0.963   2.062   5.350 -1.2404 -0.0105 -0.1918
  822MOL0     C 8408  -0.922   2.170   5.443 -0.2738  0.5230 -0.0686
  822MOL0     C 8409  -1.028   2.282   5.448  0.0034  0.8908  0.5288
  822MOL0     C 8410  -1.141   2.244   5.540  0.0619  0.5170 -0.5763
  822MOL0     C 8411  -1.261   2.330   5.524  0.1927  0.7443 -0.4051
  822MOL0     C 8412  -1.368   2.302   5.634  0.6965 -0.4895 -0.5621
  822MOL0     C 8413  -1.478   2.401   5.651  0.3853 -0.4175  0.1253
  822MOL0     C 8414  -1.586   2.351   5.755  0.1421  0.3311 -0.2661
  822MOL0     C 8415  -1.586   2.449   5.876  0.0510  0.7852 -0.3100
  822MOL0    Cl 8416  -1.420   2.441   5.963 -0.2431 -0.0333  0.3401
  822MOL0     C 8417  -0.894   1.915   5.192  0.6519 -0.7968 -0.5328
  822MOL0     C 8418  -0.796   1.831   5.134 -0.1479 -0.2667  0.5893
  822MOL0     O 8419  -0.368   1.771   5.239  0.0375  0.0609 -0.5538
  822MOL0     C 8420  -0.429   1.551   4.950  0.2440 -1.2687  0.3660
  822MOL0     C 8421  -0.355   1.461   4.863 -1.0038 -0.0824 -0.4055
  822MOL0     N 8422  -0.383   1.764   4.301  0.0507 -0.4244  0.5668
  822MOL0     N 8423  -0.388   1.853   4.213 -0.0800  1.2616 -1.1287
  822MOL0     C 8424   0.071   2.283   4.743 -0.1584  0.2547 -0.0676
  822MOL0     C 8425   0.083   2.288   4.882  0.5913 -0.2551  0.9397
  822MOL0     C 8426   0.235   2.361   5.284 -1.0589  0.3266 -0.4536
  822MOL0     C 8427   0.148   2.277   5.354 -0.1586 -0.9360 -0.0421
  822MOL0     C 8428   0.144   2.293   5.487 -0.1622  0.1376 -0.0019
  822MOL0     C 8429   0.222   2.374   5.563 -0.0018 -0.3572 -0.0011
  822MOL0     O 8430   0.200   2.370   5.695 -1.2182 -0.5474 -0.7662
  822MOL0     C 8431   0.268   2.467   5.792 -0.1125  0.3597 -0.1340
  822MOL0     C 8432   0.196   2.482   5.926  0.1407  0.2980 -0.0130
  822MOL0     C 8433   0.235   2.373   6.035 -0.5909  0.6464 -0.1017
  822MOL0     C 8434   0.229   2.220   5.991 -0.3078 -0.1196 -0.2819
  822MOL0     C 8435   0.087   2.200   5.987 -0.1982  0.2148  0.8990
  822MOL0     C 8436  -0.032   2.194   5.975  1.0922  0.3948 -0.0778
  822MOL0     C 8437   0.319   2.457   5.495 -0.6899 -0.6787  0.3080
  822MOL0     C 8438   0.330   2.448   5.351  0.2063 -0.4379 -1.3590
  822MOL0     H 8439   0.375   2.124   4.921  1.3823  2.9245 -1.1052
  822MOL0     H 8440   0.364   2.124   4.674  2.5876  2.3984  2.0191
  822MOL0     H 8441   0.302   2.126   4.403 -1.5786 -1.9912  1.5546
  822MOL0     H 8442   0.353   2.270   4.481  1.1047 -1.0552  0.0601
  822MOL0     H 8443   0.306   2.301   4.230  1.4720  0.0035  2.1231
  822MOL0     H 8444   0.159   2.361   4.308  1.4514  0.5771  2.3607
  822MOL0     H 8445   0.042   2.159   4.278 -0.3280  1.5688 -1.2105
  822MOL0     H 8446   0.192   2.064   4.232  1.1421  0.6338 -0.3014
  822MOL0     H 8447   0.023   2.268   4.090 -1.4922 -0.7052 -1.4419
  822MOL0     H 8448   0.185   2.247   4.030 -0.3236 -2.9819 -4.2943
  822MOL0     H 8449   0.121   1.984   3.998  1.5217  2.0133 -0.5030
  822MOL0     H 8450   0.059   2.108   3.891  0.5785  2.3124  0.7031
  822MOL0     H 8451  -0.141   2.113   4.064  2.2430  1.9314 -0.1265
  822MOL0     H 8452  -0.055   1.977   4.139  1.6927 -0.3125 -0.6733
  822MOL0     H 8453  -0.138   1.956   3.844 -0.3172 -0.2409 -0.3766
  822MOL0     H 8454  -0.092   1.824   3.956 -1.0052  0.6853  1.6757
  822MOL0     H 8455  -0.342   1.840   3.914 -1.0397  0.2527 -0.1194
  822MOL0     H 8456  -0.328   1.993   3.994  2.9953  1.6324 -2.2372
  822MOL0     H 8457  -0.143   1.667   4.093 -0.2287  1.0044 -0.9233
  822MOL0     H 8458  -0.163   1.491   4.275  1.2738  1.0458  1.8088
  822MOL0     H 8459  -0.332   1.470   4.343 -0.3984 -0.3830  1.3435
  822MOL0     H 8460  -0.234   1.625   4.520  0.8918 -0.4363  2.1965
  822MOL0     H 8461  -0.079   1.600   4.456 -0.5212  0.8478  2.2096
  822MOL0     H 8462  -0.250   1.354   4.546 -1.0192  0.7636  0.1635
  822MOL0     H 8463  -0.103   1.355   4.468  1.7917  0.0310  1.9235
  822MOL0     H 8464  -0.073   1.541   4.696 -0.6505 -0.2483  1.8990
  822MOL0     H 8465   0.005   1.385   4.675 -1.4903 -1.3962  2.6822
  822MOL0     H 8466  -0.045   1.515   4.975  0.0637 -1.1526  2.1493
  822MOL0     H 8467  -0.169   1.687   5.119 -1.4803  1.1801 -1.3915
  822MOL0     H 8468  -0.537   1.882   5.352 -0.3992 -1.7897  1.9912
  822MOL0     H 8469  -0.681   2.037   5.439 -2.2979  1.1287  0.5031
  822MOL0     H 8470  -0.827   2.215   5.415  0.6313 -1.1934  0.0832
  822MOL0     H 8471  -0.904   2.140   5.547 -0.4929  3.1976  0.8137
  822MOL0     H 8472  -1.077   2.285   5.350  0.6548 -0.4400  0.1308
  822MOL0     H 8473  -0.987   2.380   5.472  1.7375 -0.2488  2.4972
  822MOL0     H 8474  -1.095   2.269   5.636  0.1728 -0.0721 -0.4662
  822MOL0     H 8475  -1.160   2.136   5.529  1.6741  0.3375 -2.0176
  822MOL0     H 8476  -1.236   2.436   5.517 -1.9883  1.2408 -1.7296
  822MOL0     H 8477  -1.300   2.304   5.425  2.8750 -1.2606 -1.0792
  822MOL0     H 8478  -1.312   2.297   5.728 -1.3415 -0.4477  0.7308
  822MOL0     H 8479  -1.412   2.202   5.629  2.5122 -1.2514 -2.0788
  822MOL0     H 8480  -1.533   2.409   5.557 -0.6922  1.2782  0.8362
  822MOL0     H 8481  -1.439   2.500   5.678 -1.0444  0.4524 -0.8529
  822MOL0     H 8482  -1.688   2.352   5.718  0.3095 -0.4864 -0.7717
  822MOL0     H 8483  -1.558   2.248   5.780  1.2653  0.4895 -0.8256
  822MOL0     H 8484  -1.655   2.404   5.948  0.9939 -0.4560 -0.1505
  822MOL0     H 8485  -1.610   2.553   5.851 -1.3795  0.1763 -1.6841
  822MOL0     H 8486  -0.997   1.903   5.158  0.5385  0.9548 -0.9056
  822MOL0     H 8487  -0.841   1.773   5.053  1.5991  2.6315 -2.7005
  822MOL0     H 8488  -0.538   1.547   4.948  0.1447  0.3242  1.2226
  822MOL0     H 8489  -0.418   1.400   4.799 -2.2664  1.1788 -0.4079
  822MOL0     H 8490  -0.015   2.339   4.710 -2.8322 -2.8040  1.1296
  822MOL0     H 8491   0.010   2.337   4.945  1.3940  0.9412  0.9701
  822MOL0     H 8492   0.082   2.208   5.304 -1.0570 -1.9207  2.3501
  822MOL0     H 8493   0.076   2.236   5.550 -1.1542  1.2263 -0.0558
  822MOL0     H 8494   0.261   2.562   5.738  1.1656 -0.7274 -2.3385
  822MOL0     H 8495   0.371   2.440   5.815 -1.0409 -0.5883  3.6339
  822MOL0     H 8496   0.227   2.580   5.964  1.4044  0.0847 -0.4470
  822MOL0     H 8497   0.087   2.480   5.917 -0.0141  3.1603  0.3497
  822MOL0     H 8498   0.173   2.393   6.123  1.4338  0.1388  1.5243
  822MOL0     H 8499   0.339   2.398   6.057 -0.6785  1.9298 -0.9877
  822MOL0     H 8500   0.276   2.193   5.896  1.6065  2.5333 -0.1976
  822MOL0     H 8501   0.277   2.160   6.068 -0.5403 -0.0334 -0.0676
  822MOL0     H 8502  -0.138   2.186   5.980  1.2801 -2.4262  3.0001
  822MOL0     H 8503   0.379   2.520   5.560 -0.4575  1.1679 -1.5925
  822MOL0     H 8504   0.402   2.512   5.302 -0.7062  0.6055 -1.3852
  823MOL0     O 8505   8.152   4.405   5.277  0.2717  0.4502 -0.2713
  823MOL0     C 8506   8.105   4.513   5.243 -1.0655  0.0936 -0.7901
  823MOL0     O 8507   7.983   4.554   5.262 -0.3632 -0.2706 -0.0691
  823MOL0     C 8508   7.894   4.467   5.310  0.1895 -0.3128  0.1223
  823MOL0     C 8509   7.810   4.497   5.421 -0.2939 -0.2078 -0.9207
  823MOL0     C 8510   7.702   4.412   5.472 -0.1925  0.2537 -0.5142
  823MOL0     C 8511   7.687   4.291   5.399  0.3473 -0.3778 -0.0100
  823MOL0     O 8512   7.590   4.198   5.441 -0.3828  0.0590  0.0821
  823MOL0     C 8513   7.490   4.237   5.542  0.4872  1.2112 -0.0940
  823MOL0     C 8514   7.362   4.143   5.527 -0.3798 -0.1412  0.7522
  823MOL0     C 8515   7.262   4.179   5.635  0.0052  0.4222  0.1544
  823MOL0     C 8516   7.139   4.080   5.636 -0.5259 -0.6282 -0.0481
  823MOL0     C 8517   7.050   4.095   5.759 -0.7736 -0.5910  0.3168
  823MOL0     C 8518   6.981   4.242   5.760  0.5568 -0.2296 -0.2840
  823MOL0     C 8519   6.845   4.242   5.833 -0.3107  1.0777 -0.1420
  823MOL0     C 8520   6.781   4.372   5.836 -0.3307 -0.7912  0.4147
  823MOL0     N 8521   6.653   4.380   5.911 -0.2526 -0.1223  0.6783
  823MOL0     C 8522   6.544   4.303   5.875  0.0179 -0.5043 -0.8832
  823MOL0     C 8523   6.451   4.315   5.971 -0.9998 -0.4692 -0.7285
  823MOL0     C 8524   6.317   4.254   5.990  0.6055 -1.0405  0.1167
  823MOL0     C 8525   6.221   4.374   6.009  0.3065 -0.2912  0.3805
  823MOL0     C 8526   6.080   4.336   6.048 -0.1984 -0.3311  0.7220
  823MOL0     C 8527   6.075   4.238   6.163 -0.2271  0.1158 -0.0066
  823MOL0     O 8528   5.938   4.233   6.178  1.2301  0.0912 -0.4662
  823MOL0     C 8529   5.883   4.216   6.306 -0.1245 -0.5484 -0.1308
  823MOL0     C 8530   5.747   4.212   6.305 -0.4503 -0.3294 -0.3643
  823MOL0     C 8531   5.686   4.191   6.425  0.3219  0.0593  0.2927
  823MOL0     C 8532   5.750   4.189   6.551  0.4374 -0.5168  0.2774
  823MOL0     C 8533   5.675   4.167   6.673 -0.3050 -0.2122  0.2326
  823MOL0     O 8534   5.735   4.200   6.790 -0.1407 -0.4541  0.9194
  823MOL0     C 8535   5.663   4.209   6.902 -0.2323 -0.0955 -0.5475
  823MOL0     C 8536   5.704   4.147   7.018  0.5143  0.0183 -0.1272
  823MOL0     C 8537   5.638   4.152   7.141  0.0754  0.2410 -0.7701
  823MOL0     C 8538   5.523   4.226   7.145  0.3890  0.2399 -0.2844
  823MOL0     O 8539   5.461   4.218   7.271 -0.1990 -0.4873  0.4136
  823MOL0     C 8540   5.344   4.308   7.286  0.3312  0.1063 -0.6424
  823MOL0     C 8541   5.317   4.344   7.436  0.1398 -0.8224  0.4132
  823MOL0     C 8542   5.421   4.441   7.494  0.2755  0.1622 -0.2354
  823MOL0     C 8543   5.381   4.555   7.590 -0.4946 -0.1803  0.2105
  823MOL0     C 8544   5.383   4.511   7.733  0.2440 -0.3340  0.2557
  823MOL0     C 8545   5.372   4.628   7.836 -0.7164  0.5638  0.8482
  823MOL0     C 8546   5.352   4.573   7.974  0.4231  0.4807 -0.3946
  823MOL0     C 8547   5.226   4.494   8.002 -0.5782  0.4539  0.0286
  823MOL0    Cl 8548   5.073   4.590   7.948 -0.2204 -0.2253  0.2356
  823MOL0     C 8549   5.472   4.289   7.031 -0.2171  0.4354 -0.2557
  823MOL0     C 8550   5.547   4.298   6.916 -0.1030 -0.4769 -0.4199
  823MOL0     O 8551   5.556   4.133   6.661 -0.3123 -0.3765 -0.3529
  823MOL0     C 8552   5.884   4.214   6.546 -0.1440  0.3087 -0.0101
  823MOL0     C 8553   5.951   4.223   6.428 -0.5353 -0.0912 -0.4986
  823MOL0     N 8554   6.509   4.398   6.058 -0.0853  0.1010 -0.2411
  823MOL0     N 8555   6.621   4.447   6.022  0.5678  0.4407  0.1134
  823MOL0     C 8556   7.768   4.258   5.289 -0.5925  0.2174  0.8010
  823MOL0     C 8557   7.868   4.340   5.252 -0.0927 -1.2286  0.1638
  823MOL0     C 8558   8.204   4.597   5.175  0.3430  0.0701  0.0433
  823MOL0     C 8559   8.336   4.562   5.143  0.5562 -0.3717 -1.2171
  823MOL0     C 8560   8.431   4.643   5.082  0.6501  0.0962 -0.2101
  823MOL0     C 8561   8.388   4.768   5.046 -0.7054 -0.3090 -1.1427
  823MOL0     O 8562   8.476   4.865   5.005  0.8077 -0.5258 -0.6329
  823MOL0     C 8563   8.608   4.844   4.956 -0.3308  0.7792 -0.5848
  823MOL0     C 8564   8.708   4.822   5.069  0.4482  0.5767  0.2539
  823MOL0     C 8565   8.711   4.952   5.143 -0.4869  0.0983 -0.4638
  823MOL0     C 8566   8.731   4.923   5.291  0.1166  0.2358 -0.8159
  823MOL0     C 8567   8.742   5.050   5.360  0.4666  0.2022  0.4971
  823MOL0     C 8568   8.787   5.151   5.413  0.1467  0.7072  1.2774
  823MOL0     C 8569   8.261   4.810   5.078  0.3074 -0.2878  0.1611
  823MOL0     C 8570   8.173   4.729   5.147  0.2626 -0.1096 -0.0631
  823MOL0     H 8571   7.828   4.598   5.458  0.9700 -0.3275 -1.1792
  823MOL0     H 8572   7.643   4.443   5.557  1.4043  0.5092  0.5479
  823MOL0     H 8573   7.451   4.338   5.527  0.9073  1.2929 -0.6701
  823MOL0     H 8574   7.527   4.226   5.644 -2.4545  0.1497  0.9630
  823MOL0     H 8575   7.392   4.038   5.530 -1.5256 -0.4788  0.8535
  823MOL0     H 8576   7.323   4.163   5.427  1.4760 -0.0528  0.0074
  823MOL0     H 8577   7.225   4.281   5.624 -0.4068  0.1200 -1.5728
  823MOL0     H 8578   7.317   4.166   5.729 -0.6384 -0.7521  0.3886
  823MOL0     H 8579   7.092   4.097   5.539 -0.9213  1.3633  0.4285
  823MOL0     H 8580   7.187   3.983   5.649  0.4340  0.0015  1.4114
  823MOL0     H 8581   7.108   4.069   5.848  1.5906 -0.3985 -1.1023
  823MOL0     H 8582   6.979   4.011   5.754 -0.5426 -0.9183  1.8910
  823MOL0     H 8583   6.952   4.267   5.658 -3.5203 -0.9163  0.5561
  823MOL0     H 8584   7.052   4.314   5.802  0.9977 -0.2397 -0.9937
  823MOL0     H 8585   6.770   4.175   5.791 -0.1903  0.7114  0.2218
  823MOL0     H 8586   6.855   4.199   5.933 -0.0818  1.3306 -0.0550
  823MOL0     H 8587   6.762   4.407   5.734 -1.6952 -1.6411  0.3519
  823MOL0     H 8588   6.849   4.446   5.879 -2.5570  0.2706  2.2717
  823MOL0     H 8589   6.545   4.239   5.787  2.3321 -2.8073  0.6629
  823MOL0     H 8590   6.330   4.188   6.076 -2.0176 -3.5286 -1.2057
  823MOL0     H 8591   6.280   4.203   5.900  1.5150 -3.0757  0.8379
  823MOL0     H 8592   6.234   4.436   5.919  1.8820 -3.9002 -2.1480
  823MOL0     H 8593   6.257   4.438   6.090  0.2880 -0.7251  0.7343
  823MOL0     H 8594   6.029   4.431   6.066 -1.1738 -0.6205 -0.3482
  823MOL0     H 8595   6.023   4.289   5.967 -0.5819  0.9660  0.2144
  823MOL0     H 8596   6.136   4.274   6.246 -0.5696  0.3343  0.1515
  823MOL0     H 8597   6.116   4.143   6.127  0.1231  0.5606 -0.8059
  823MOL0     H 8598   5.688   4.215   6.213  0.6257  0.9990 -1.0473
  823MOL0     H 8599   5.578   4.180   6.419  0.1211  1.8837  0.0558
  823MOL0     H 8600   5.796   4.090   7.021  1.1436  0.8475 -2.1827
  823MOL0     H 8601   5.671   4.102   7.231  1.0306  0.1023 -1.1857
  823MOL0     H 8602   5.258   4.254   7.246 -1.8124  1.9488  1.2219
  823MOL0     H 8603   5.357   4.397   7.224 -1.7457 -0.0921 -1.4083
  823MOL0     H 8604   5.307   4.251   7.494 -0.2708 -1.9148 -1.3285
  823MOL0     H 8605   5.225   4.402   7.448  1.1130  0.7901  0.3765
  823MOL0     H 8606   5.456   4.497   7.406 -2.8476  3.3427  0.2949
  823MOL0     H 8607   5.507   4.379   7.520 -0.5286 -0.4002  1.2188
  823MOL0     H 8608   5.446   4.642   7.580  0.5816 -1.0813 -0.9237
  823MOL0     H 8609   5.280   4.585   7.560 -1.4617 -1.3819  2.0595
  823MOL0     H 8610   5.476   4.457   7.755 -0.4572 -1.9442 -0.5552
  823MOL0     H 8611   5.309   4.436   7.761  0.5731  1.1351  6.2051
  823MOL0     H 8612   5.286   4.693   7.815 -1.1080 -0.3236 -0.4102
  823MOL0     H 8613   5.460   4.691   7.821  1.9481 -3.3340 -2.0583
  823MOL0     H 8614   5.441   4.530   8.021  0.0694 -0.0862 -0.2387
  823MOL0     H 8615   5.336   4.671   8.020  2.1044  2.0971 -2.9905
  823MOL0     H 8616   5.224   4.474   8.110 -0.5439 -0.5376 -0.1484
  823MOL0     H 8617   5.222   4.396   7.954  0.1574 -1.2299  3.1414
  823MOL0     H 8618   5.377   4.340   7.034 -0.7139 -0.4856 -0.1178
  823MOL0     H 8619   5.512   4.344   6.824  1.3783  0.5624 -0.5108
  823MOL0     H 8620   5.946   4.207   6.635 -0.1962 -2.7126 -0.1060
  823MOL0     H 8621   6.057   4.237   6.410 -0.6090  0.9850 -0.1753
  823MOL0     H 8622   7.743   4.158   5.255 -1.4511 -0.1339  2.3608
  823MOL0     H 8623   7.924   4.312   5.163 -1.5863  0.3185 -1.3633
  823MOL0     H 8624   8.365   4.462   5.172 -0.1893  0.2789  2.2854
  823MOL0     H 8625   8.530   4.605   5.060  0.1445 -4.6315  3.9837
  823MOL0     H 8626   8.651   4.918   4.887 -0.3460 -1.1047 -2.7559
  823MOL0     H 8627   8.604   4.755   4.892 -2.3239 -0.9187  1.7156
  823MOL0     H 8628   8.684   4.737   5.134 -1.6292 -0.6350 -1.9462
  823MOL0     H 8629   8.804   4.796   5.024 -1.3839 -1.4879 -2.8320
  823MOL0     H 8630   8.622   5.014   5.126 -1.3520 -1.1307 -0.5214
  823MOL0     H 8631   8.788   5.021   5.107 -0.3648  0.6718  0.8295
  823MOL0     H 8632   8.640   4.886   5.337  0.0487  1.1479 -0.2002
  823MOL0     H 8633   8.815   4.856   5.311  2.2342  2.0245 -2.9820
  823MOL0     H 8634   8.835   5.238   5.452 -2.4744  2.6145  0.5589
  823MOL0     H 8635   8.216   4.907   5.055  0.5102 -0.4428 -0.9632
  823MOL0     H 8636   8.071   4.761   5.167 -0.9614 -3.6648  0.0108
  824MOL0     O 8637   6.699   3.840   5.933 -0.1527 -0.1018 -0.2992
  824MOL0     C 8638   6.788   3.820   6.015 -0.5947 -0.5508  0.4449
  824MOL0     O 8639   6.857   3.699   6.034 -0.3261 -1.1145 -0.7530
  824MOL0     C 8640   6.839   3.590   5.960 -0.1097 -0.8389  0.4821
  824MOL0     C 8641   6.716   3.553   5.916  0.3488 -0.7333  1.0346
  824MOL0     C 8642   6.704   3.431   5.840  1.0721 -0.6554 -0.1336
  824MOL0     C 8643   6.816   3.341   5.817 -1.1046 -0.6267 -0.4316
  824MOL0     O 8644   6.816   3.232   5.731  0.0271 -0.0382  0.5826
  824MOL0     C 8645   6.831   3.110   5.807  0.7485  0.9077  0.1996
  824MOL0     C 8646   6.813   2.967   5.737  0.0581 -0.4062  0.7643
  824MOL0     C 8647   6.674   2.940   5.675  0.3892 -0.2829 -0.6701
  824MOL0     C 8648   6.656   2.814   5.581  0.3283  0.6151  0.0221
  824MOL0     C 8649   6.541   2.804   5.487 -0.1278 -0.0420 -0.0142
  824MOL0     C 8650   6.405   2.786   5.562  0.9559 -0.6553  0.0639
  824MOL0     C 8651   6.287   2.779   5.446 -0.0267 -0.1245  0.0580
  824MOL0     C 8652   6.219   2.913   5.430  0.2808 -1.0621  0.3500
  824MOL0     N 8653   6.092   2.908   5.353  0.4970 -0.1389 -0.1462
  824MOL0     C 8654   5.963   2.952   5.380  0.2535 -0.2275 -0.7395
  824MOL0     C 8655   5.890   2.911   5.273  0.3973 -0.0400  0.1534
  824MOL0     C 8656   5.748   2.954   5.233  0.0086 -0.1251 -0.3816
  824MOL0     C 8657   5.633   2.958   5.349 -0.4396  0.0329  0.4320
  824MOL0     C 8658   5.597   2.819   5.405 -0.8742 -0.8640  0.1034
  824MOL0     C 8659   5.456   2.808   5.477 -0.0947 -1.2881  0.1016
  824MOL0     O 8660   5.446   2.677   5.517 -0.3071  1.1851 -0.2721
  824MOL0     C 8661   5.325   2.655   5.590 -0.6168 -0.3932 -0.3346
  824MOL0     C 8662   5.282   2.515   5.591  1.2410 -1.3433 -0.2629
  824MOL0     C 8663   5.162   2.467   5.652 -0.2488  0.0504 -0.3156
  824MOL0     C 8664   5.078   2.576   5.698 -0.9012 -0.2766 -0.0088
  824MOL0     C 8665   4.950   2.551   5.742  0.8540 -0.6199  1.1528
  824MOL0     O 8666   4.901   2.609   5.857 -0.4218 -0.3164  0.3429
  824MOL0     C 8667   4.788   2.566   5.906 -0.1177  0.8821  0.5024
  824MOL0     C 8668   4.785   2.546   6.045 -0.3529 -1.1726  0.4090
  824MOL0     C 8669   4.675   2.496   6.113 -0.1028  0.2343  0.3863
  824MOL0     C 8670   4.561   2.471   6.040 -0.4574  0.4943 -0.7814
  824MOL0     O 8671   4.447   2.424   6.110 -0.2594  0.2676  0.9923
  824MOL0     C 8672   4.334   2.375   6.039  0.6318  0.7379  0.4111
  824MOL0     C 8673   4.218   2.344   6.146  0.1165  0.3892 -0.1089
  824MOL0     C 8674   4.261   2.264   6.273  0.1897  0.0336 -0.1932
  824MOL0     C 8675   4.167   2.246   6.388  0.2372  0.3107 -0.4162
  824MOL0     C 8676   4.031   2.195   6.345  0.6166  0.0218  0.2880
  824MOL0     C 8677   3.927   2.197   6.459  0.4016 -0.5597  0.1271
  824MOL0     C 8678   3.786   2.225   6.393  0.7444 -0.0500 -0.0551
  824MOL0     C 8679   3.659   2.209   6.477 -0.1379  0.4701 -0.6205
  824MOL0    Cl 8680   3.645   2.334   6.601  0.5520  0.1328  0.0671
  824MOL0     C 8681   4.558   2.493   5.902 -0.5272  0.2871 -0.5703
  824MOL0     C 8682   4.666   2.544   5.843  0.6669  0.6220 -1.5226
  824MOL0     O 8683   4.890   2.471   5.669  0.2590 -0.8393 -0.3115
  824MOL0     C 8684   5.120   2.710   5.701 -0.4569 -0.2527  0.0880
  824MOL0     C 8685   5.245   2.747   5.659  0.2868 -0.3828  0.8164
  824MOL0     N 8686   5.976   2.856   5.187 -0.4247  0.6140  0.2407
  824MOL0     N 8687   6.091   2.848   5.235  0.3423  0.4266 -0.6204
  824MOL0     C 8688   6.937   3.381   5.871  0.1346 -0.2131 -0.0351
  824MOL0     C 8689   6.949   3.498   5.937  0.0800  0.1178 -0.0980
  824MOL0     C 8690   6.828   3.933   6.104  0.5710 -0.0437 -0.1011
  824MOL0     C 8691   6.948   3.929   6.170 -0.3531 -0.4124  0.3521
  824MOL0     C 8692   6.993   4.040   6.245 -0.0359 -0.1859  0.6089
  824MOL0     C 8693   6.922   4.159   6.253 -0.0145 -0.0747 -0.4364
  824MOL0     O 8694   6.968   4.264   6.333 -0.0662  0.2483 -0.4480
  824MOL0     C 8695   7.027   4.375   6.261  0.3844  0.1922 -0.6535
  824MOL0     C 8696   6.939   4.498   6.314  0.9572  0.0737  0.4226
  824MOL0     C 8697   6.990   4.635   6.274 -0.1651 -0.3703  0.0561
  824MOL0     C 8698   6.969   4.685   6.126 -0.5495  0.1779 -0.0710
  824MOL0     C 8699   7.072   4.625   6.042 -0.1461 -0.0153  0.2175
  824MOL0     C 8700   7.157   4.569   5.966  0.2135  0.2940  0.1484
  824MOL0     C 8701   6.798   4.160   6.194 -0.2040  0.4159  0.1301
  824MOL0     C 8702   6.752   4.055   6.117  0.1615  0.0234  0.5741
  824MOL0     H 8703   6.628   3.611   5.944  1.2302  0.7975  0.7221
  824MOL0     H 8704   6.610   3.409   5.791  1.8975 -4.0219 -0.4470
  824MOL0     H 8705   6.743   3.125   5.870 -0.5204  1.4089 -1.6062
  824MOL0     H 8706   6.931   3.112   5.851  0.4421  0.5792  0.9228
  824MOL0     H 8707   6.825   2.894   5.818 -1.6722  0.4756  1.8786
  824MOL0     H 8708   6.888   2.944   5.661 -1.7425 -0.3251 -1.1169
  824MOL0     H 8709   6.636   3.031   5.629 -2.7262 -0.5501  1.1065
  824MOL0     H 8710   6.614   2.929   5.765 -1.2026  0.6449 -1.5820
  824MOL0     H 8711   6.748   2.819   5.521  0.2197  1.6134 -0.0812
  824MOL0     H 8712   6.652   2.731   5.652  3.6553  0.5274  0.2946
  824MOL0     H 8713   6.556   2.720   5.420 -4.6022 -1.3424  0.2478
  824MOL0     H 8714   6.532   2.901   5.437  0.7434 -0.1400 -0.3678
  824MOL0     H 8715   6.387   2.867   5.633  3.8476  0.6480 -0.5280
  824MOL0     H 8716   6.407   2.699   5.627  2.6095 -1.6066 -1.1866
  824MOL0     H 8717   6.338   2.763   5.350  3.1168 -0.3379  1.6512
  824MOL0     H 8718   6.212   2.705   5.476 -0.9147  1.5990  2.3179
  824MOL0     H 8719   6.293   2.981   5.387 -2.9877  2.5883 -0.0301
  824MOL0     H 8720   6.193   2.973   5.518 -0.3655  1.9758 -1.7380
  824MOL0     H 8721   5.933   3.003   5.470  0.0807  1.5331 -1.7429
  824MOL0     H 8722   5.708   2.900   5.147  1.8267 -1.7846 -0.2374
  824MOL0     H 8723   5.753   3.057   5.197  4.0332  0.5480  1.6090
  824MOL0     H 8724   5.544   3.001   5.301 -0.0909 -2.1475 -2.4618
  824MOL0     H 8725   5.648   3.030   5.429 -2.3259 -0.1614  0.9985
  824MOL0     H 8726   5.606   2.737   5.333 -1.8004 -1.7043  0.9197
  824MOL0     H 8727   5.675   2.795   5.477 -0.0727 -0.9306 -0.7653
  824MOL0     H 8728   5.375   2.842   5.413  0.3612 -1.3871 -0.5342
  824MOL0     H 8729   5.465   2.883   5.556 -1.0252  0.0527 -1.0161
  824MOL0     H 8730   5.348   2.443   5.544  0.9258 -1.8534  0.0684
  824MOL0     H 8731   5.124   2.366   5.642  0.5177 -0.3563  0.7413
  824MOL0     H 8732   4.869   2.556   6.114 -3.4966  0.1077  4.4700
  824MOL0     H 8733   4.692   2.464   6.215  1.3667 -0.0044  0.0944
  824MOL0     H 8734   4.369   2.293   5.976  0.6056 -0.0936  1.4402
  824MOL0     H 8735   4.276   2.442   5.976 -2.4926 -2.7279 -0.7069
  824MOL0     H 8736   4.146   2.290   6.084  2.6953  0.4214 -3.4885
  824MOL0     H 8737   4.168   2.433   6.184 -0.2565 -0.9525  2.8441
  824MOL0     H 8738   4.353   2.307   6.313 -0.1400  0.3264  0.2642
  824MOL0     H 8739   4.285   2.166   6.231 -1.2169 -0.2966 -0.3068
  824MOL0     H 8740   4.208   2.172   6.457 -0.2165  1.2940  0.9382
  824MOL0     H 8741   4.163   2.346   6.432 -1.5931  0.7704 -1.5511
  824MOL0     H 8742   4.028   2.092   6.310 -0.6837 -0.6714  2.2658
  824MOL0     H 8743   3.989   2.257   6.264 -0.8212  0.5024  1.3607
  824MOL0     H 8744   3.952   2.266   6.541  3.3315 -1.2627 -0.0646
  824MOL0     H 8745   3.925   2.099   6.508  0.6999 -0.1188  1.0435
  824MOL0     H 8746   3.778   2.330   6.361 -0.2527  0.3701  1.4870
  824MOL0     H 8747   3.770   2.162   6.305 -0.1141 -1.4379  1.0487
  824MOL0     H 8748   3.689   2.120   6.531  0.3033 -0.4514 -2.3123
  824MOL0     H 8749   3.583   2.205   6.398 -0.2654 -3.2178 -0.4670
  824MOL0     H 8750   4.473   2.471   5.838  0.7916 -0.8080 -2.0492
  824MOL0     H 8751   4.662   2.553   5.735 -0.6116  1.0321 -1.4656
  824MOL0     H 8752   5.054   2.788   5.738  0.9557  1.7659 -1.4542
  824MOL0     H 8753   5.268   2.853   5.666 -2.1223  0.1048  3.0385
  824MOL0     H 8754   7.023   3.317   5.853 -0.1053 -0.0024 -2.3483
  824MOL0     H 8755   7.051   3.523   5.964  0.3652 -3.1145  2.4511
  824MOL0     H 8756   7.017   3.846   6.158  1.1489  0.6038  1.5212
  824MOL0     H 8757   7.093   4.038   6.288  1.5923 -0.4993 -2.8486
  824MOL0     H 8758   7.007   4.368   6.154 -0.3165  3.3827 -0.8409
  824MOL0     H 8759   7.132   4.386   6.291 -0.4367  3.3830  1.7419
  824MOL0     H 8760   6.845   4.476   6.262  2.2390 -1.8674 -1.2562
  824MOL0     H 8761   6.933   4.484   6.422  1.0691  0.8269  0.5271
  824MOL0     H 8762   7.093   4.642   6.311 -1.0158 -1.1000  2.7487
  824MOL0     H 8763   6.929   4.711   6.324  1.9565  1.0053  0.7447
  824MOL0     H 8764   6.866   4.661   6.097  0.0142 -1.8507 -0.5423
  824MOL0     H 8765   6.980   4.794   6.124  0.3509  0.1550  1.8761
  824MOL0     H 8766   7.227   4.520   5.902  1.6740 -0.3176  2.0916
  824MOL0     H 8767   6.729   4.240   6.218  0.9415  1.2804  0.6696
  824MOL0     H 8768   6.652   4.075   6.079  0.9576 -0.4067 -1.9568
  825MOL0     O 8769   2.979   2.897   3.796 -0.5403 -0.3410 -0.2229
  825MOL0     C 8770   3.057   2.803   3.780 -0.9511  0.0053 -1.0996
  825MOL0     O 8771   3.053   2.701   3.685  0.1966  0.2954  0.0727
  825MOL0     C 8772   2.948   2.679   3.603  0.2948 -0.4256  0.3350
  825MOL0     C 8773   2.887   2.790   3.546  0.5680  0.3076  0.4007
  825MOL0     C 8774   2.776   2.764   3.473 -0.1723  1.5941 -0.0205
  825MOL0     C 8775   2.728   2.630   3.440 -0.6570 -0.1582 -0.1458
  825MOL0     O 8776   2.609   2.612   3.382  0.0514  0.3077 -0.3272
  825MOL0     C 8777   2.496   2.649   3.468 -0.5140  1.0681  0.1917
  825MOL0     C 8778   2.389   2.740   3.395  0.5944 -0.7432  0.0918
  825MOL0     C 8779   2.345   2.690   3.260  1.0771 -0.1159  0.3054
  825MOL0     C 8780   2.216   2.763   3.209 -0.6438 -0.5374 -0.9328
  825MOL0     C 8781   2.198   2.732   3.063 -0.8734 -0.0886 -0.3087
  825MOL0     C 8782   2.067   2.783   3.018  1.5601 -0.7750 -0.2438
  825MOL0     C 8783   2.031   2.743   2.880  0.3424 -0.0915 -0.5743
  825MOL0     C 8784   1.898   2.806   2.836 -0.3538 -0.2772 -0.1613
  825MOL0     N 8785   1.778   2.737   2.894  0.7815 -0.8503  0.4604
  825MOL0     C 8786   1.763   2.606   2.918 -0.7581 -0.0116  0.4472
  825MOL0     C 8787   1.632   2.580   2.914  0.6693 -0.4678 -0.1953
  825MOL0     C 8788   1.567   2.450   2.919 -0.0871 -0.4059  0.8170
  825MOL0     C 8789   1.543   2.399   2.774  0.0047 -0.9442 -0.4232
  825MOL0     C 8790   1.472   2.260   2.775 -0.0535  0.1676 -1.1962
  825MOL0     C 8791   1.582   2.156   2.788 -0.2843  0.0359 -0.8104
  825MOL0     O 8792   1.534   2.025   2.826  0.3616 -0.4410  0.6368
  825MOL0     C 8793   1.495   2.007   2.960 -0.6998  0.0534  0.4707
  825MOL0     C 8794   1.487   2.097   3.066  0.4086 -1.0816  0.4871
  825MOL0     C 8795   1.444   2.051   3.190  0.1912  1.1330 -0.7179
  825MOL0     C 8796   1.414   1.914   3.210  0.6590  0.7080 -0.8512
  825MOL0     C 8797   1.340   1.874   3.336  0.9485  0.3690  0.4706
  825MOL0     O 8798   1.352   1.741   3.385 -0.8813 -0.0954 -0.3598
  825MOL0     C 8799   1.286   1.702   3.495  0.0313 -0.5752 -0.0995
  825MOL0     C 8800   1.358   1.639   3.601 -0.5623  0.6770  0.2516
  825MOL0     C 8801   1.280   1.591   3.705  0.4586 -0.3492  0.1743
  825MOL0     C 8802   1.141   1.602   3.712  0.8502 -0.5144 -0.3838
  825MOL0     O 8803   1.083   1.582   3.835  0.1108 -1.1672 -0.6936
  825MOL0     C 8804   0.981   1.485   3.847  0.0292 -0.2982 -0.2533
  825MOL0     C 8805   0.874   1.544   3.937  0.9122  0.6506  0.8755
  825MOL0     C 8806   0.919   1.640   4.050  0.7512  0.0113 -0.0550
  825MOL0     C 8807   0.803   1.669   4.154  0.5671  0.2898  0.3232
  825MOL0     C 8808   0.684   1.748   4.092 -0.4413  0.9842  0.2749
  825MOL0     C 8809   0.583   1.782   4.203 -0.3011 -0.1021  0.2519
  825MOL0     C 8810   0.441   1.747   4.160 -0.0532 -0.9744  0.8377
  825MOL0     C 8811   0.332   1.779   4.267 -0.4216  0.0522  0.4658
  825MOL0    Cl 8812   0.165   1.750   4.214 -0.3100  0.1662 -0.6512
  825MOL0     C 8813   1.070   1.660   3.606  0.2626  0.5525  0.5743
  825MOL0     C 8814   1.141   1.711   3.498  0.3241 -0.3145  0.1666
  825MOL0     O 8815   1.271   1.963   3.377 -0.1186  0.2396 -0.6176
  825MOL0     C 8816   1.422   1.828   3.107  0.9879  0.3980  0.8974
  825MOL0     C 8817   1.455   1.875   2.979 -0.9203 -0.2957  0.5488
  825MOL0     N 8818   1.561   2.696   2.910  0.4773  0.2573 -0.4785
  825MOL0     N 8819   1.650   2.788   2.908  0.3668 -0.1635  0.0493
  825MOL0     C 8820   2.800   2.525   3.477 -0.9294  0.2902  0.1453
  825MOL0     C 8821   2.917   2.546   3.554  0.3003  0.2923 -0.9689
  825MOL0     C 8822   3.185   2.827   3.850  0.2029 -0.8457 -0.3384
  825MOL0     C 8823   3.300   2.787   3.788 -0.2189  0.4369 -0.8944
  825MOL0     C 8824   3.424   2.807   3.841 -0.2478  0.6665 -0.4887
  825MOL0     C 8825   3.442   2.880   3.963  0.2430  0.6440  0.0286
  825MOL0     O 8826   3.573   2.898   4.007 -0.1296  0.5514 -1.0779
  825MOL0     C 8827   3.593   2.983   4.118  1.1704  0.1370  0.3590
  825MOL0     C 8828   3.735   2.968   4.174 -0.0606 -0.0055 -0.0655
  825MOL0     C 8829   3.746   3.074   4.285 -0.7507  0.1107  0.0267
  825MOL0     C 8830   3.880   3.058   4.369 -0.3104 -0.0939 -0.0271
  825MOL0     C 8831   3.894   3.149   4.483  0.5656 -0.4929  1.0180
  825MOL0     C 8832   3.891   3.200   4.594  0.4069 -0.3426 -0.7189
  825MOL0     C 8833   3.321   2.938   4.021  0.4430  0.7949  0.7674
  825MOL0     C 8834   3.192   2.914   3.968  0.1928 -0.3061  0.5309
  825MOL0     H 8835   2.918   2.892   3.567  4.2656 -0.8129  1.1629
  825MOL0     H 8836   2.715   2.846   3.436 -2.7067 -0.5950 -1.0041
  825MOL0     H 8837   2.529   2.704   3.556  0.0715 -1.2062  1.4853
  825MOL0     H 8838   2.448   2.558   3.505  2.0471 -0.1948  0.6694
  825MOL0     H 8839   2.452   2.829   3.382  0.0081 -0.0391  1.7921
  825MOL0     H 8840   2.307   2.755   3.466  0.6767  2.0570 -0.2907
  825MOL0     H 8841   2.327   2.582   3.264 -3.0858  0.3039 -1.5660
  825MOL0     H 8842   2.423   2.709   3.186  1.2428 -1.8267 -0.0002
  825MOL0     H 8843   2.136   2.736   3.279 -0.7356  1.2473 -0.2933
  825MOL0     H 8844   2.222   2.872   3.220  0.0482 -0.0366 -4.9275
  825MOL0     H 8845   2.198   2.623   3.049  0.8563 -0.4109  1.7095
  825MOL0     H 8846   2.281   2.769   3.003  0.4235 -1.5542  0.4903
  825MOL0     H 8847   2.061   2.893   3.019 -1.2466 -0.8399  1.5673
  825MOL0     H 8848   1.992   2.751   3.091  1.7412 -0.3475  0.1343
  825MOL0     H 8849   2.113   2.780   2.818  0.3316  3.2628  1.1696
  825MOL0     H 8850   2.023   2.634   2.875 -3.2182  0.0474 -0.4622
  825MOL0     H 8851   1.897   2.787   2.729 -0.1013  0.0987 -0.2324
  825MOL0     H 8852   1.902   2.914   2.852 -1.9015 -0.2998  0.5004
  825MOL0     H 8853   1.844   2.535   2.932  0.7082  1.7726  1.5613
  825MOL0     H 8854   1.474   2.460   2.976 -0.0600  0.3229  0.7358
  825MOL0     H 8855   1.619   2.367   2.967  1.4573  1.7464  3.1071
  825MOL0     H 8856   1.634   2.384   2.715 -0.0898 -1.2554 -0.4929
  825MOL0     H 8857   1.493   2.480   2.720  1.1937 -0.0994 -0.3118
  825MOL0     H 8858   1.401   2.250   2.857  0.0170 -3.1156 -1.4069
  825MOL0     H 8859   1.414   2.251   2.683 -1.5564  2.3980 -0.5288
  825MOL0     H 8860   1.648   2.190   2.868 -1.0631 -2.5760  1.0529
  825MOL0     H 8861   1.651   2.154   2.704  1.7928 -0.2154  0.8287
  825MOL0     H 8862   1.506   2.203   3.050 -1.7914 -0.9091 -1.6455
  825MOL0     H 8863   1.444   2.117   3.276 -0.7941 -0.5243  0.6175
  825MOL0     H 8864   1.465   1.622   3.608 -0.4238  0.8651 -1.0059
  825MOL0     H 8865   1.335   1.557   3.793  1.3210  1.6992  0.5090
  825MOL0     H 8866   1.020   1.395   3.895  1.3884  0.0972 -0.5572
  825MOL0     H 8867   0.951   1.446   3.749  0.2856  0.3634 -0.6067
  825MOL0     H 8868   0.816   1.460   3.978  0.9751  1.9526  3.9072
  825MOL0     H 8869   0.809   1.596   3.866 -2.0220 -4.2705 -0.6227
  825MOL0     H 8870   0.958   1.727   3.997 -0.1746 -0.6226 -1.8867
  825MOL0     H 8871   0.989   1.583   4.112  0.1085  0.8959  1.5576
  825MOL0     H 8872   0.764   1.582   4.208  1.8374 -0.9441 -0.6711
  825MOL0     H 8873   0.837   1.743   4.227 -0.6984  0.2883  0.9366
  825MOL0     H 8874   0.638   1.690   4.011  2.0168  1.2077 -1.3892
  825MOL0     H 8875   0.738   1.830   4.043 -0.5108  0.8657 -0.0051
  825MOL0     H 8876   0.587   1.890   4.218  0.5427  0.2257 -1.9179
  825MOL0     H 8877   0.616   1.740   4.298 -0.1424  2.1303  1.2432
  825MOL0     H 8878   0.415   1.807   4.072 -0.1863 -0.8746  0.9442
  825MOL0     H 8879   0.445   1.641   4.134  3.0197 -0.7336 -0.0134
  825MOL0     H 8880   0.341   1.881   4.306 -0.9900 -0.0903  0.9832
  825MOL0     H 8881   0.344   1.707   4.348 -2.0323  1.0995  1.7015
  825MOL0     H 8882   0.967   1.673   3.636  0.7913  0.6477  2.5283
  825MOL0     H 8883   1.094   1.757   3.412  1.1172 -0.6436 -0.4545
  825MOL0     H 8884   1.404   1.723   3.127 -0.8946  0.5042 -0.0194
  825MOL0     H 8885   1.451   1.806   2.895  0.2396  0.6035 -0.2852
  825MOL0     H 8886   2.762   2.426   3.452  1.5706 -0.7817  0.3157
  825MOL0     H 8887   2.984   2.469   3.589  0.4489 -0.3515 -2.5810
  825MOL0     H 8888   3.288   2.737   3.692  2.6711 -1.0886 -0.5988
  825MOL0     H 8889   3.510   2.767   3.789 -0.0749 -0.4933  0.6493
  825MOL0     H 8890   3.533   2.948   4.203 -1.1218 -2.5246 -2.1557
  825MOL0     H 8891   3.566   3.085   4.092 -0.4215  0.3836  2.7178
  825MOL0     H 8892   3.753   2.870   4.218 -1.9902  0.8541  2.8890
  825MOL0     H 8893   3.803   2.992   4.091 -1.2233  0.5996 -0.8758
  825MOL0     H 8894   3.667   3.059   4.360  1.0982 -0.0620  2.0468
  825MOL0     H 8895   3.742   3.169   4.230  0.0458 -1.2300 -2.4923
  825MOL0     H 8896   3.880   2.957   4.412  0.0413  0.2570  0.8040
  825MOL0     H 8897   3.977   3.069   4.319  0.6917  0.3344  1.9230
  825MOL0     H 8898   3.892   3.233   4.696 -3.8266 -0.1722 -0.5871
  825MOL0     H 8899   3.329   2.991   4.116 -1.3195  1.9545  0.3281
  825MOL0     H 8900   3.105   2.934   4.028  0.2425 -1.8528  1.1777
  826MOL0     O 8901   9.047   9.434   6.648 -0.1238  0.4406  0.9349
  826MOL0     C 8902   9.062   9.480   6.533  0.5064 -0.4213 -0.7951
  826MOL0     O 8903   9.018   9.423   6.412 -0.0202 -0.5254 -0.3153
  826MOL0     C 8904   8.936   9.317   6.417 -0.0094 -0.0528 -0.1427
  826MOL0     C 8905   8.858   9.268   6.516  0.3896  0.8389  0.2469
  826MOL0     C 8906   8.773   9.151   6.501  0.3553  0.8325  0.2014
  826MOL0     C 8907   8.750   9.099   6.377 -0.0220  1.1764 -0.2867
  826MOL0     O 8908   8.672   8.990   6.336  0.1494  1.0644  0.2128
  826MOL0     C 8909   8.601   8.925   6.441 -0.4478 -0.9540 -0.5342
  826MOL0     C 8910   8.473   9.001   6.468 -0.2626 -0.3050  0.8256
  826MOL0     C 8911   8.411   8.961   6.598 -0.3881  0.1985 -1.0424
  826MOL0     C 8912   8.333   9.081   6.647 -0.4010  0.1171  1.1416
  826MOL0     C 8913   8.247   9.059   6.779  0.3428 -0.2030 -0.7807
  826MOL0     C 8914   8.205   9.186   6.857 -0.6053  0.8010  0.7438
  826MOL0     C 8915   8.149   9.160   6.999  0.7886  0.1855  0.7814
  826MOL0     C 8916   7.993   9.162   6.994 -0.8830 -0.6665  0.6326
  826MOL0     N 8917   7.936   9.296   7.016 -0.7801 -0.0433 -0.7747
  826MOL0     C 8918   7.959   9.383   7.120 -0.1660 -0.8345  0.5384
  826MOL0     C 8919   7.909   9.507   7.085 -0.2201  0.7285 -0.4637
  826MOL0     C 8920   7.894   9.641   7.157  1.0036 -1.0742 -0.8402
  826MOL0     C 8921   7.739   9.679   7.166  0.0367  0.5542  0.3089
  826MOL0     C 8922   7.672   9.598   7.275  0.3356 -0.1456 -0.9198
  826MOL0     C 8923   7.520   9.648   7.253 -0.6500  0.1848  0.0231
  826MOL0     O 8924   7.445   9.579   7.350  0.1340 -0.0162 -0.4318
  826MOL0     C 8925   7.324   9.627   7.383  0.8784  0.3110  0.0855
  826MOL0     C 8926   7.255   9.572   7.491  0.0773  0.7133  0.0657
  826MOL0     C 8927   7.119   9.594   7.519  0.7017 -0.5635  0.5033
  826MOL0     C 8928   7.042   9.668   7.421  0.1763  0.5438 -0.1842
  826MOL0     C 8929   6.898   9.692   7.452 -0.1487  0.7278  0.1801
  826MOL0     O 8930   6.858   9.704   7.582  0.1406  0.6255  0.0387
  826MOL0     C 8931   6.720   9.680   7.595  0.7966  0.5829 -0.0493
  826MOL0     C 8932   6.626   9.776   7.565 -1.3748 -0.1599 -0.2643
  826MOL0     C 8933   6.497   9.757   7.568  0.1211  1.5834  0.1844
  826MOL0     C 8934   6.444   9.629   7.603 -0.2685  1.1410  0.4830
  826MOL0     O 8935   6.312   9.596   7.602 -0.2944  0.1202 -1.1375
  826MOL0     C 8936   6.222   9.686   7.665  0.0576  0.1225 -0.3973
  826MOL0     C 8937   6.082   9.630   7.617  0.5254 -0.6114  0.1287
  826MOL0     C 8938   5.966   9.715   7.665  0.0977 -0.1141  0.5450
  826MOL0     C 8939   5.838   9.669   7.591 -0.4010  0.4474 -0.0866
  826MOL0     C 8940   5.739   9.772   7.635  0.1879  0.1308  0.1746
  826MOL0     C 8941   5.599   9.734   7.597  0.0417  0.0008  0.1470
  826MOL0     C 8942   5.539   9.780   7.458  0.7540  0.5213 -0.0412
  826MOL0     C 8943   5.557   9.686   7.334 -0.9002 -0.9001 -0.9242
  826MOL0    Cl 8944   5.503   9.522   7.359 -0.0350  0.2958  0.0132
  826MOL0     C 8945   6.534   9.531   7.650  0.3910  0.2328  0.2359
  826MOL0     C 8946   6.671   9.563   7.657  0.0940 -0.5072 -0.0376
  826MOL0     O 8947   6.830   9.699   7.356  0.0669  0.8391 -0.2002
  826MOL0     C 8948   7.106   9.726   7.307 -1.1323  0.0917  0.1232
  826MOL0     C 8949   7.246   9.703   7.297  0.0720 -0.1007 -0.4744
  826MOL0     N 8950   7.865   9.498   6.952  0.6301  0.3364 -0.3625
  826MOL0     N 8951   7.871   9.366   6.914  0.2309 -0.1677  0.7744
  826MOL0     C 8952   8.833   9.156   6.279  0.6892 -1.2709  0.3761
  826MOL0     C 8953   8.922   9.261   6.295 -0.3714  0.6487  0.7213
  826MOL0     C 8954   9.161   9.581   6.514 -1.0484  1.0342 -0.0586
  826MOL0     C 8955   9.161   9.659   6.400  0.2803 -0.0847  0.6015
  826MOL0     C 8956   9.268   9.756   6.391  0.2314  0.4346  0.5965
  826MOL0     C 8957   9.371   9.767   6.488  0.5290 -0.5970 -0.0239
  826MOL0     O 8958   9.473   9.862   6.486  0.6971 -0.2051  0.0084
  826MOL0     C 8959   9.486   9.955   6.379 -0.7423  0.3957  0.3451
  826MOL0     C 8960   9.624  10.023   6.394 -0.0581 -0.9002  0.3213
  826MOL0     C 8961   9.614  10.149   6.484  0.2045  0.6011 -0.2322
  826MOL0     C 8962   9.747  10.225   6.516 -0.0846  0.0897  0.5730
  826MOL0     C 8963   9.864  10.173   6.447 -1.0648  1.1763  0.5593
  826MOL0     C 8964   9.954  10.137   6.374 -0.3031  0.1366 -0.4024
  826MOL0     C 8965   9.366   9.691   6.598  0.5488 -0.2621  0.7993
  826MOL0     C 8966   9.260   9.602   6.612  0.1310  1.1731  0.6993
  826MOL0     H 8967   8.853   9.318   6.613  0.0887  2.2856 -0.4944
  826MOL0     H 8968   8.731   9.101   6.587 -0.4132  2.4591  0.8106
  826MOL0     H 8969   8.661   8.914   6.532  2.1271  1.6206 -1.7640
  826MOL0     H 8970   8.576   8.822   6.412 -1.8116 -0.5113 -1.0270
  826MOL0     H 8971   8.402   8.978   6.387 -1.8346  1.9463  1.4476
  826MOL0     H 8972   8.484   9.110   6.457  0.0053 -0.1706  2.2837
  826MOL0     H 8973   8.491   8.941   6.669 -0.7629  1.0755 -0.3619
  826MOL0     H 8974   8.351   8.870   6.586 -1.6387 -0.0032  4.1666
  826MOL0     H 8975   8.397   9.168   6.666 -1.1556  0.0262  4.6478
  826MOL0     H 8976   8.263   9.112   6.569  0.1496  0.7892  0.8999
  826MOL0     H 8977   8.313   9.004   6.847  1.3818  2.6472  0.6676
  826MOL0     H 8978   8.161   8.995   6.757 -2.2602  2.8591 -0.2369
  826MOL0     H 8979   8.135   9.246   6.798 -1.1273 -1.8032 -1.5575
  826MOL0     H 8980   8.294   9.248   6.864  1.6295 -1.7524 -1.9735
  826MOL0     H 8981   8.182   9.065   7.043  3.9068  2.2613  3.4335
  826MOL0     H 8982   8.193   9.235   7.066  2.1938 -0.4176  0.5758
  826MOL0     H 8983   7.943   9.088   7.058 -0.8630 -0.9565  0.3183
  826MOL0     H 8984   7.975   9.132   6.891  1.3204 -0.4638  0.1363
  826MOL0     H 8985   8.012   9.365   7.213  0.7323  0.3658  0.2886
  826MOL0     H 8986   7.939   9.728   7.108 -3.3560  1.2862 -1.1896
  826MOL0     H 8987   7.944   9.638   7.254 -3.5839 -2.4489  1.7633
  826MOL0     H 8988   7.700   9.654   7.067 -0.9425 -3.4294  1.5071
  826MOL0     H 8989   7.728   9.785   7.189 -0.5009  0.2089  1.7246
  826MOL0     H 8990   7.690   9.495   7.243  0.1094 -0.2714 -0.6514
  826MOL0     H 8991   7.703   9.614   7.378 -1.9617 -0.3556 -0.1318
  826MOL0     H 8992   7.485   9.611   7.156 -0.5599 -0.2150  0.1409
  826MOL0     H 8993   7.518   9.757   7.261  3.2972  0.4309 -0.3261
  826MOL0     H 8994   7.307   9.519   7.569 -0.0031 -0.0453 -0.3837
  826MOL0     H 8995   7.063   9.569   7.609 -2.3840  1.6333 -0.6184
  826MOL0     H 8996   6.660   9.876   7.540  0.9661 -0.9159 -0.3646
  826MOL0     H 8997   6.434   9.843   7.549  2.2668  3.3394  0.6450
  826MOL0     H 8998   6.240   9.790   7.639  4.4647 -0.2465  0.3713
  826MOL0     H 8999   6.226   9.673   7.774  0.9943  0.5172 -0.3747
  826MOL0     H 9000   6.079   9.531   7.663  0.3437  1.4135  5.0538
  826MOL0     H 9001   6.079   9.622   7.508  1.2588 -1.7148  0.1741
  826MOL0     H 9002   5.988   9.821   7.648 -0.8070  0.4185  2.3785
  826MOL0     H 9003   5.948   9.698   7.772  0.2208  0.0104  0.5852
  826MOL0     H 9004   5.853   9.664   7.483 -0.0808 -0.6739 -0.0109
  826MOL0     H 9005   5.813   9.569   7.629  3.7857 -0.5559  0.4408
  826MOL0     H 9006   5.758   9.869   7.587 -0.5838  0.1806 -0.0349
  826MOL0     H 9007   5.739   9.802   7.740 -1.1927  3.1201 -0.5873
  826MOL0     H 9008   5.526   9.773   7.668 -1.9820  1.1225 -2.3582
  826MOL0     H 9009   5.589   9.626   7.613 -0.4766  0.1442  0.8239
  826MOL0     H 9010   5.431   9.774   7.476  0.7189 -1.0105 -0.6083
  826MOL0     H 9011   5.559   9.886   7.438  0.6869  0.4470 -0.5238
  826MOL0     H 9012   5.659   9.683   7.295  1.9922 -0.9095  5.4797
  826MOL0     H 9013   5.509   9.744   7.255 -1.5353  0.4827  0.4188
  826MOL0     H 9014   6.502   9.437   7.693 -1.2978  1.6957  2.3856
  826MOL0     H 9015   6.752   9.497   7.688 -0.6686 -1.3533  0.1906
  826MOL0     H 9016   7.056   9.786   7.232 -1.9706 -0.7188  0.0104
  826MOL0     H 9017   7.297   9.745   7.211 -1.5099  0.6851 -1.0713
  826MOL0     H 9018   8.834   9.123   6.176  1.8738  1.7923 -0.7103
  826MOL0     H 9019   8.983   9.295   6.212 -2.9710 -0.0018 -1.6173
  826MOL0     H 9020   9.079   9.655   6.330  0.4079 -0.1889  0.4569
  826MOL0     H 9021   9.266   9.826   6.308 -1.2654  0.7850  0.9086
  826MOL0     H 9022   9.402  10.025   6.366 -0.2172  0.7964 -1.0036
  826MOL0     H 9023   9.488   9.896   6.287  0.1498  0.7111  0.1583
  826MOL0     H 9024   9.688   9.950   6.445 -1.0591 -0.3624  2.4398
  826MOL0     H 9025   9.671  10.038   6.297  1.3044  3.7043  1.4702
  826MOL0     H 9026   9.574  10.122   6.582 -0.5712 -0.2431 -0.7662
  826MOL0     H 9027   9.547  10.219   6.433 -0.5888 -0.9934 -1.4886
  826MOL0     H 9028   9.738  10.333   6.499 -0.5229 -0.1859 -1.2370
  826MOL0     H 9029   9.769  10.216   6.622  3.6332  0.3357 -0.0409
  826MOL0     H 9030  10.024  10.106   6.298 -0.9009 -0.7592 -0.6040
  826MOL0     H 9031   9.443   9.700   6.674  2.5942 -0.8868 -1.1283
  826MOL0     H 9032   9.237   9.546   6.702 -4.2513  2.1212  0.3602
  827MOL0     O 9033  11.179   2.155   8.831 -0.0285 -0.0169  0.0900
  827MOL0     C 9034  11.157   2.251   8.758 -0.2917 -0.5566 -0.2755
  827MOL0     O 9035  11.249   2.351   8.722 -0.3041 -1.0304 -1.0353
  827MOL0     C 9036  11.371   2.343   8.790  0.4278 -0.1134 -0.5074
  827MOL0     C 9037  11.455   2.246   8.768 -0.0482 -0.6230 -0.4313
  827MOL0     C 9038  11.580   2.237   8.837  1.2408 -0.1529 -0.9670
  827MOL0     C 9039  11.618   2.341   8.924  0.0377 -0.8454 -0.1474
  827MOL0     O 9040  11.740   2.348   8.992 -0.0852  0.0439 -0.0622
  827MOL0     C 9041  11.836   2.233   8.964  0.1157 -0.3551  0.2675
  827MOL0     C 9042  11.974   2.274   9.034 -0.0344  0.2374  0.3384
  827MOL0     C 9043  12.092   2.177   9.030  0.5439  0.3774  0.6093
  827MOL0     C 9044  12.238   2.242   9.021 -0.1755 -0.5784 -0.6653
  827MOL0     C 9045  12.336   2.130   8.993 -0.7459  0.6718 -0.1898
  827MOL0     C 9046  12.475   2.191   8.953  0.6938  1.0532  0.7936
  827MOL0     C 9047  12.575   2.078   8.930  0.1067  0.2965  0.8894
  827MOL0     C 9048  12.710   2.142   8.884  0.8698  0.0446  1.2184
  827MOL0     N 9049  12.824   2.057   8.921  0.7070  0.1070 -0.0548
  827MOL0     C 9050  12.953   2.089   8.890  0.6464 -0.6037 -0.4548
  827MOL0     C 9051  13.029   1.992   8.950 -0.4975 -0.0805 -1.2646
  827MOL0     C 9052  13.177   1.996   8.963  0.1271  0.0636  0.7951
  827MOL0     C 9053  13.216   2.113   9.063 -0.9200  0.3290  0.1414
  827MOL0     C 9054  13.352   2.093   9.132 -0.4509 -0.1370 -0.2531
  827MOL0     C 9055  13.379   2.224   9.217  0.1167  0.5089 -0.1385
  827MOL0     O 9056  13.483   2.222   9.318 -0.3308  0.2691 -0.1950
  827MOL0     C 9057  13.467   2.292   9.434  0.6102  0.0126 -1.9674
  827MOL0     C 9058  13.369   2.247   9.526 -0.4081  0.4226  0.1196
  827MOL0     C 9059  13.343   2.322   9.637 -0.7412  0.2204 -0.3183
  827MOL0     C 9060  13.415   2.435   9.675  0.7021 -0.2856  0.1423
  827MOL0     C 9061  13.373   2.517   9.791  0.0086 -0.3220  0.8814
  827MOL0     O 9062  13.383   2.653   9.788  0.4250  0.0294  0.1340
  827MOL0     C 9063  13.332   2.717   9.892  0.5116 -0.6515 -0.5030
  827MOL0     C 9064  13.196   2.707   9.928  0.2572 -0.6737  1.2055
  827MOL0     C 9065  13.137   2.796  10.022 -0.2748 -0.3182  0.3803
  827MOL0     C 9066  13.215   2.879  10.095 -0.2089  0.0725  0.1967
  827MOL0     O 9067  13.161   2.960  10.190 -1.1840 -0.2509 -0.0814
  827MOL0     C 9068  13.237   3.070  10.256  0.0544  0.2224 -0.5421
  827MOL0     C 9069  13.131   3.171  10.311 -0.0787 -0.4447  0.3706
  827MOL0     C 9070  13.018   3.199  10.216 -0.6706  0.1090 -0.1285
  827MOL0     C 9071  12.932   3.320  10.254  0.2175 -0.2023 -0.2407
  827MOL0     C 9072  12.846   3.356  10.138 -0.4755  0.2561  1.5079
  827MOL0     C 9073  12.729   3.452  10.157  0.7854 -0.1615 -0.4520
  827MOL0     C 9074  12.620   3.430  10.052  0.1110 -0.1962 -0.1510
  827MOL0     C 9075  12.517   3.547  10.044 -0.1193  0.8419 -0.2172
  827MOL0    Cl 9076  12.396   3.515  10.178 -0.3068 -0.4398  0.4047
  827MOL0     C 9077  13.354   2.886  10.062 -0.2692  0.5958 -0.3820
  827MOL0     C 9078  13.410   2.804   9.964  0.0716  0.2838 -0.4248
  827MOL0     O 9079  13.326   2.452   9.880 -0.0173  0.3496  0.1650
  827MOL0     C 9080  13.520   2.468   9.586 -0.6642  0.6315 -0.8782
  827MOL0     C 9081  13.545   2.396   9.469  0.2247  0.9925 -0.7005
  827MOL0     N 9082  12.944   1.883   8.983  0.5147 -0.2588  0.0257
  827MOL0     N 9083  12.824   1.928   8.963  0.3295  0.1551 -0.4283
  827MOL0     C 9084  11.533   2.454   8.933  0.1506  1.1266  0.0871
  827MOL0     C 9085  11.411   2.450   8.871 -0.2577  0.6560 -0.5949
  827MOL0     C 9086  11.017   2.268   8.717 -0.6090  0.5348 -0.4166
  827MOL0     C 9087  10.920   2.163   8.742 -0.3562 -0.6111 -0.0468
  827MOL0     C 9088  10.788   2.177   8.712  0.1991  0.0976 -1.3489
  827MOL0     C 9089  10.740   2.292   8.645 -0.3722  0.1554  0.6636
  827MOL0     O 9090  10.614   2.318   8.598 -0.0278  0.0817  0.6555
  827MOL0     C 9091  10.519   2.210   8.582 -0.1878  0.0569  0.2715
  827MOL0     C 9092  10.395   2.264   8.506  0.5479 -0.2547  0.8971
  827MOL0     C 9093  10.281   2.169   8.496 -0.2504  0.2387 -0.7715
  827MOL0     C 9094  10.330   2.036   8.438 -0.8126 -0.3002  0.4763
  827MOL0     C 9095  10.214   1.958   8.406  0.4021 -0.4146  0.3876
  827MOL0     C 9096  10.137   1.884   8.356 -0.2449 -0.6561  1.2095
  827MOL0     C 9097  10.836   2.390   8.604  0.1794  0.0760 -0.3455
  827MOL0     C 9098  10.970   2.379   8.641 -0.4509  0.2087  0.4425
  827MOL0     H 9099  11.426   2.168   8.698 -2.5767 -0.8956  0.8099
  827MOL0     H 9100  11.641   2.151   8.813  2.1378  0.3350 -0.5092
  827MOL0     H 9101  11.861   2.232   8.857  2.0498 -0.7789  0.7023
  827MOL0     H 9102  11.798   2.132   8.981  3.5935 -2.0698 -1.2425
  827MOL0     H 9103  11.944   2.282   9.139 -1.8815 -3.6007  0.2917
  827MOL0     H 9104  12.017   2.371   9.006  1.7919 -1.1001 -1.8377
  827MOL0     H 9105  12.073   2.115   8.942 -1.1760  0.4896  0.8574
  827MOL0     H 9106  12.092   2.109   9.116 -0.1621  0.4758  0.6976
  827MOL0     H 9107  12.239   2.315   8.939 -1.9218  3.1841  2.3124
  827MOL0     H 9108  12.270   2.302   9.108 -1.7590  0.3247 -0.6631
  827MOL0     H 9109  12.308   2.068   8.908 -1.6734  0.3789  0.3075
  827MOL0     H 9110  12.345   2.062   9.079  0.5611  1.7864  0.6063
  827MOL0     H 9111  12.523   2.260   9.023  2.5081  1.9579 -1.1954
  827MOL0     H 9112  12.463   2.231   8.852  0.5820  1.1848  0.8585
  827MOL0     H 9113  12.605   2.040   9.029  1.7760  0.7639  0.5956
  827MOL0     H 9114  12.544   1.994   8.868 -0.9187  0.1105  1.6326
  827MOL0     H 9115  12.718   2.237   8.938 -2.7015 -0.4468  2.9314
  827MOL0     H 9116  12.708   2.163   8.777 -0.8922  0.7323  1.3478
  827MOL0     H 9117  12.992   2.182   8.849 -0.5066 -1.9062 -4.9909
  827MOL0     H 9118  13.234   2.019   8.873  1.2260 -0.8782  1.2170
  827MOL0     H 9119  13.208   1.894   8.990 -1.7542 -1.4626 -2.2848
  827MOL0     H 9120  13.144   2.111   9.145  1.9402  2.5865  2.9748
  827MOL0     H 9121  13.211   2.213   9.018 -3.2299  0.9792  1.7035
  827MOL0     H 9122  13.337   2.016   9.207 -2.7211  1.4642  1.0544
  827MOL0     H 9123  13.443   2.087   9.071 -0.0796  2.4094 -0.0803
  827MOL0     H 9124  13.291   2.248   9.277 -0.7693  1.0832 -1.6137
  827MOL0     H 9125  13.385   2.313   9.154  0.2077 -0.4809 -1.5916
  827MOL0     H 9126  13.317   2.156   9.497  0.8237  0.3257 -2.0318
  827MOL0     H 9127  13.272   2.279   9.706  0.2265 -0.7884  0.0888
  827MOL0     H 9128  13.136   2.648   9.860  1.3622  0.9999 -1.3788
  827MOL0     H 9129  13.030   2.787  10.036 -0.7318  0.1928 -2.1938
  827MOL0     H 9130  13.303   3.123  10.186  1.4756  2.0180  2.0067
  827MOL0     H 9131  13.296   3.027  10.337  1.6325  1.4070 -1.0132
  827MOL0     H 9132  13.180   3.267  10.328 -3.1451  1.3190 -0.1491
  827MOL0     H 9133  13.093   3.138  10.409  1.2102  1.1161  1.4446
  827MOL0     H 9134  12.951   3.114  10.207  2.5782 -2.4599 -2.6651
  827MOL0     H 9135  13.059   3.222  10.117 -1.0342 -1.2335 -0.6166
  827MOL0     H 9136  12.872   3.297  10.343 -1.7846  2.8799 -0.6140
  827MOL0     H 9137  12.995   3.404  10.284  1.3775 -1.3665  0.7051
  827MOL0     H 9138  12.805   3.267  10.090 -1.9933  3.1855 -3.3837
  827MOL0     H 9139  12.903   3.407  10.059 -3.8635 -0.0384 -1.3957
  827MOL0     H 9140  12.762   3.556  10.162 -1.9042  0.7587 -0.1160
  827MOL0     H 9141  12.673   3.430  10.249  2.2890 -3.3000 -0.1711
  827MOL0     H 9142  12.673   3.425   9.957  2.2061  0.8301  0.8962
  827MOL0     H 9143  12.572   3.334  10.074  1.5435 -1.6735 -2.9942
  827MOL0     H 9144  12.471   3.548   9.945 -2.0995 -1.8779  0.5666
  827MOL0     H 9145  12.556   3.649  10.055  2.2150 -0.0977  0.7321
  827MOL0     H 9146  13.421   2.953  10.116 -0.3344 -1.0796  1.9386
  827MOL0     H 9147  13.514   2.808   9.936 -0.1106  1.2243 -1.0174
  827MOL0     H 9148  13.587   2.550   9.609 -0.3052  0.3579 -0.9505
  827MOL0     H 9149  13.616   2.448   9.406  3.7901 -1.1944  1.2150
  827MOL0     H 9150  11.576   2.542   8.980  1.6018  1.0066 -0.9376
  827MOL0     H 9151  11.344   2.535   8.886  1.7665  2.5380 -1.8029
  827MOL0     H 9152  10.946   2.079   8.805  2.3163  0.0261 -0.1688
  827MOL0     H 9153  10.724   2.091   8.731 -0.1707  0.6269 -0.1092
  827MOL0     H 9154  10.491   2.179   8.683  2.9834 -2.4545  0.5370
  827MOL0     H 9155  10.562   2.126   8.526 -0.1727 -0.7605  1.4755
  827MOL0     H 9156  10.362   2.360   8.548 -2.7444 -0.6343 -0.5541
  827MOL0     H 9157  10.429   2.289   8.405  0.4548  1.7435  1.3128
  827MOL0     H 9158  10.205   2.209   8.428 -0.7539  0.2584 -0.2073
  827MOL0     H 9159  10.226   2.162   8.590  0.6534  1.0879 -0.1598
  827MOL0     H 9160  10.405   2.057   8.361  1.1402 -0.4471  2.2822
  827MOL0     H 9161  10.388   1.980   8.512  1.7960  1.6498  0.0265
  827MOL0     H 9162  10.070   1.805   8.328  1.0537 -0.8466 -1.7713
  827MOL0     H 9163  10.805   2.483   8.558 -1.5695  1.0804  2.6463
  827MOL0     H 9164  11.044   2.455   8.619  0.5804 -1.0604 -0.6128
  828MOL0     O 9165  10.892   4.344   6.004 -0.2450  0.0499 -0.9186
  828MOL0     C 9166  10.959   4.407   5.923 -0.5155  0.4793  0.3901
  828MOL0     O 9167  10.908   4.486   5.819  0.7969 -0.1958 -0.1853
  828MOL0     C 9168  10.776   4.499   5.816  0.7816 -0.1353  0.0484
  828MOL0     C 9169  10.700   4.427   5.722  0.0798 -0.1038  0.4465
  828MOL0     C 9170  10.561   4.429   5.714  0.6805  0.0009  0.2925
  828MOL0     C 9171  10.500   4.527   5.788 -0.1547  0.3044  0.3070
  828MOL0     O 9172  10.364   4.537   5.770 -0.0911 -0.2414 -0.1213
  828MOL0     C 9173  10.282   4.494   5.874 -0.0128  0.0011 -0.2294
  828MOL0     C 9174  10.136   4.522   5.835  0.2512 -1.0788 -0.4414
  828MOL0     C 9175  10.060   4.512   5.966  0.3131 -0.4471  0.3340
  828MOL0     C 9176   9.916   4.523   5.933 -0.1730  0.6837  0.6160
  828MOL0     C 9177   9.835   4.475   6.052  0.2529  0.0809 -0.0661
  828MOL0     C 9178   9.690   4.518   6.052  1.3615  0.3998 -0.5881
  828MOL0     C 9179   9.597   4.426   6.140  0.3255 -0.6574 -0.7571
  828MOL0     C 9180   9.485   4.502   6.207  0.2898  0.0619 -0.3752
  828MOL0     N 9181   9.404   4.570   6.106 -0.4313 -0.2141 -0.0448
  828MOL0     C 9182   9.306   4.499   6.037  0.0207  0.3766  0.5036
  828MOL0     C 9183   9.217   4.590   5.988 -0.9803 -0.2241 -0.0123
  828MOL0     C 9184   9.115   4.571   5.885  0.0452  0.4790 -0.0203
  828MOL0     C 9185   8.992   4.502   5.946  0.0233 -0.4443 -0.4438
  828MOL0     C 9186   8.940   4.563   6.075 -0.0754  0.5888  0.2534
  828MOL0     C 9187   8.837   4.495   6.159  0.2013  0.2598  0.3510
  828MOL0     O 9188   8.711   4.510   6.089 -0.0178  0.3601 -0.6000
  828MOL0     C 9189   8.616   4.407   6.099  0.6652 -0.1483  0.0611
  828MOL0     C 9190   8.521   4.416   6.002 -0.1123 -0.1863 -0.0080
  828MOL0     C 9191   8.427   4.313   5.982  0.8876  0.4580 -0.2350
  828MOL0     C 9192   8.410   4.211   6.077 -0.3059 -0.2463 -0.0190
  828MOL0     C 9193   8.322   4.096   6.061  0.6308 -1.4675  0.3851
  828MOL0     O 9194   8.271   4.080   5.941 -0.1395 -0.1427  0.4243
  828MOL0     C 9195   8.183   3.976   5.929  0.0970 -0.9721 -0.1485
  828MOL0     C 9196   8.227   3.872   5.859 -0.4760  0.3330 -0.2828
  828MOL0     C 9197   8.149   3.763   5.839  0.1308  0.1212 -0.3980
  828MOL0     C 9198   8.028   3.751   5.904  0.4512  1.1991 -0.2429
  828MOL0     O 9199   7.933   3.649   5.882  0.1667 -0.3021 -0.5719
  828MOL0     C 9200   7.936   3.562   5.776 -0.4230  0.4298  0.1049
  828MOL0     C 9201   7.799   3.491   5.765  0.5015  0.4230  0.0376
  828MOL0     C 9202   7.755   3.380   5.874 -0.3765 -0.0933 -0.5845
  828MOL0     C 9203   7.823   3.248   5.867 -0.5925 -0.9491  0.4124
  828MOL0     C 9204   7.724   3.140   5.900 -0.3604  0.3614  0.6816
  828MOL0     C 9205   7.766   2.997   5.911  0.3298  0.0984 -0.8033
  828MOL0     C 9206   7.643   2.910   5.952 -0.2589 -0.0976  0.0691
  828MOL0     C 9207   7.670   2.762   5.965 -0.0397  0.4596  0.0688
  828MOL0    Cl 9208   7.522   2.693   6.007 -0.4667 -0.2308  0.2052
  828MOL0     C 9209   7.979   3.859   5.985  0.2254  2.0557 -0.6092
  828MOL0     C 9210   8.058   3.977   5.992 -0.6954 -0.1265 -0.1965
  828MOL0     O 9211   8.317   4.024   6.153 -0.0955  0.3335  0.3921
  828MOL0     C 9212   8.503   4.217   6.183  0.5250  0.6585 -0.2976
  828MOL0     C 9213   8.606   4.308   6.202 -0.6071 -0.3624  0.6856
  828MOL0     N 9214   9.265   4.712   6.032 -0.4266  0.2023  0.6998
  828MOL0     N 9215   9.371   4.705   6.104  0.7781  0.5602  0.4598
  828MOL0     C 9216  10.570   4.607   5.882  0.3565  0.4602 -0.2714
  828MOL0     C 9217  10.711   4.584   5.895  0.4790 -1.1691  0.0579
  828MOL0     C 9218  11.107   4.382   5.922  0.0248 -0.7544 -0.1140
  828MOL0     C 9219  11.187   4.411   5.813  0.0990  0.2829 -0.1688
  828MOL0     C 9220  11.331   4.402   5.819 -0.0306 -0.8529  0.3898
  828MOL0     C 9221  11.389   4.359   5.936 -0.6075 -0.1628 -0.0621
  828MOL0     O 9222  11.527   4.340   5.960  0.7219  0.4266 -0.0724
  828MOL0     C 9223  11.621   4.360   5.857 -0.2265  0.5649  0.7981
  828MOL0     C 9224  11.609   4.260   5.744  0.4625 -0.9360 -0.8788
  828MOL0     C 9225  11.644   4.120   5.801  0.0861 -0.0716 -0.8340
  828MOL0     C 9226  11.571   4.013   5.717  0.1486  0.3697 -0.4930
  828MOL0     C 9227  11.602   4.025   5.576 -0.2939 -0.3626  0.4768
  828MOL0     C 9228  11.624   4.027   5.458 -0.2261 -0.1462 -0.3829
  828MOL0     C 9229  11.312   4.326   6.046 -0.7642  0.7583  0.2340
  828MOL0     C 9230  11.179   4.349   6.038 -0.4236 -0.5086 -0.1434
  828MOL0     H 9231  10.754   4.363   5.652 -0.6092  1.0223 -1.1697
  828MOL0     H 9232  10.503   4.361   5.653 -1.5863 -0.4008  2.6738
  828MOL0     H 9233  10.300   4.541   5.971 -1.8364 -1.3618  0.8292
  828MOL0     H 9234  10.293   4.385   5.879  1.1026  0.1524  2.2523
  828MOL0     H 9235  10.101   4.446   5.764  1.4872 -0.6770 -1.5280
  828MOL0     H 9236  10.131   4.620   5.786 -2.5865 -1.0456 -0.2198
  828MOL0     H 9237  10.088   4.598   6.028 -1.3936  0.7165 -0.4265
  828MOL0     H 9238  10.071   4.415   6.014 -0.1381 -0.9211 -0.5115
  828MOL0     H 9239   9.891   4.627   5.910  0.7350  0.5025 -1.4662
  828MOL0     H 9240   9.888   4.462   5.846  1.4099 -0.3072  0.7612
  828MOL0     H 9241   9.887   4.500   6.145 -0.9712 -0.7639  0.8840
  828MOL0     H 9242   9.836   4.366   6.043 -0.7741  0.0506  0.1184
  828MOL0     H 9243   9.650   4.510   5.950 -1.5727 -0.7923  0.5285
  828MOL0     H 9244   9.675   4.621   6.085 -0.3465  0.0111 -0.0335
  828MOL0     H 9245   9.555   4.343   6.082 -1.1223  1.8001 -3.4916
  828MOL0     H 9246   9.651   4.386   6.226  1.3116  1.5573 -0.2809
  828MOL0     H 9247   9.524   4.574   6.279  1.3653 -3.1259  2.4917
  828MOL0     H 9248   9.424   4.431   6.263 -0.3000 -1.3100 -2.5896
  828MOL0     H 9249   9.297   4.392   6.022 -2.6462  0.6469 -0.4304
  828MOL0     H 9250   9.157   4.514   5.802 -1.3470  0.6268 -0.8518
  828MOL0     H 9251   9.088   4.667   5.842  1.9656  0.9748 -0.2188
  828MOL0     H 9252   9.021   4.398   5.964 -0.0664 -1.2292 -4.0829
  828MOL0     H 9253   8.911   4.506   5.872  1.1201  1.0815 -1.6390
  828MOL0     H 9254   9.021   4.565   6.149  0.4526 -3.7218  0.0656
  828MOL0     H 9255   8.906   4.665   6.058 -0.9837  0.3955  0.8368
  828MOL0     H 9256   8.823   4.539   6.258  1.8388  0.3740  0.5612
  828MOL0     H 9257   8.870   4.390   6.167 -0.2319 -0.0214 -1.2200
  828MOL0     H 9258   8.526   4.492   5.925 -1.4683 -1.6278 -1.6086
  828MOL0     H 9259   8.350   4.319   5.905 -1.3250  0.5460  1.8564
  828MOL0     H 9260   8.330   3.871   5.824 -0.3200 -0.3537  0.1886
  828MOL0     H 9261   8.160   3.682   5.768 -4.7601  1.0066 -2.6300
  828MOL0     H 9262   8.019   3.490   5.777  0.0813  0.9426 -1.5291
  828MOL0     H 9263   7.953   3.621   5.685 -0.8016  0.2513 -0.0876
  828MOL0     H 9264   7.791   3.442   5.667 -3.1832  2.1946 -0.7355
  828MOL0     H 9265   7.717   3.563   5.759 -0.9600 -1.2719 -1.8717
  828MOL0     H 9266   7.647   3.364   5.869 -0.0930 -1.7165 -2.8367
  828MOL0     H 9267   7.776   3.417   5.975 -0.4302 -0.8263 -0.2977
  828MOL0     H 9268   7.861   3.235   5.765  0.4392  0.4572  0.5890
  828MOL0     H 9269   7.899   3.248   5.945 -0.9567 -0.2530  0.7781
  828MOL0     H 9270   7.640   3.138   5.829 -1.0126  0.9234  1.4191
  828MOL0     H 9271   7.690   3.175   5.998  0.6186  3.1515  0.1204
  828MOL0     H 9272   7.841   2.994   5.991 -2.8388 -0.1926  2.4341
  828MOL0     H 9273   7.808   2.963   5.816  3.6721  2.9030 -0.4976
  828MOL0     H 9274   7.600   2.939   6.048 -1.9008 -1.5804 -0.1669
  828MOL0     H 9275   7.562   2.914   5.880 -0.2087 -0.3850 -0.0037
  828MOL0     H 9276   7.745   2.730   6.038  2.5614 -0.0573 -2.6466
  828MOL0     H 9277   7.692   2.724   5.865 -4.0263  3.8982 -2.4736
  828MOL0     H 9278   7.883   3.851   6.036  1.0547 -3.5788  0.6909
  828MOL0     H 9279   8.036   4.069   6.046  2.2633  0.9179 -0.5715
  828MOL0     H 9280   8.508   4.126   6.243 -0.3728  0.6624 -0.2026
  828MOL0     H 9281   8.672   4.321   6.287  0.1345 -0.9933  0.2126
  828MOL0     H 9282  10.524   4.685   5.942  1.8328  0.8378  0.4193
  828MOL0     H 9283  10.768   4.630   5.975  1.2673  1.1580 -1.7349
  828MOL0     H 9284  11.135   4.439   5.723 -0.4598  2.6793  0.8246
  828MOL0     H 9285  11.395   4.444   5.741 -0.0553  1.8003  1.7111
  828MOL0     H 9286  11.726   4.351   5.885  0.1865  0.4788 -0.6791
  828MOL0     H 9287  11.605   4.459   5.813  0.9718 -0.2006 -1.5759
  828MOL0     H 9288  11.508   4.265   5.701  0.0672 -1.4592 -0.0410
  828MOL0     H 9289  11.684   4.289   5.670 -0.0140 -0.3267 -1.1283
  828MOL0     H 9290  11.616   4.110   5.906  4.3655  2.1227  0.7743
  828MOL0     H 9291  11.753   4.118   5.812  0.0056 -0.9423 -0.1523
  828MOL0     H 9292  11.594   3.908   5.732  1.5619  0.6974 -0.2541
  828MOL0     H 9293  11.465   4.034   5.739  0.0423 -1.7974  1.4318
  828MOL0     H 9294  11.641   4.046   5.354 -2.0758  3.0175 -0.2311
  828MOL0     H 9295  11.361   4.285   6.134  3.1600  0.3855 -1.9428
  828MOL0     H 9296  11.121   4.335   6.128  0.5270 -1.7992  0.2997
  829MOL0     O 9297  10.146   0.566   0.029 -0.1809  0.4417  0.7025
  829MOL0     C 9298  10.241   0.642   0.004 -0.6467  0.3341  0.3702
  829MOL0     O 9299  10.233   0.788   0.019 -0.4800  0.4977  0.3899
  829MOL0     C 9300  10.143   0.834   0.113  0.0792  0.6629 -1.0240
  829MOL0     C 9301  10.117   0.768   0.240  0.1876  0.3283 -0.5194
  829MOL0     C 9302  10.024   0.821   0.329 -0.1993  0.8867 -0.1308
  829MOL0     C 9303   9.965   0.943   0.302  0.2658 -0.0022  0.3061
  829MOL0     O 9304   9.883   0.981   0.402  0.6753  0.7276  0.0929
  829MOL0     C 9305   9.776   1.062   0.360 -0.0809 -0.0930  0.3110
  829MOL0     C 9306   9.789   1.195   0.431 -0.4445 -0.0530 -0.0300
  829MOL0     C 9307   9.859   1.314   0.355 -0.3661  0.6466 -0.5429
  829MOL0     C 9308   9.809   1.353   0.215  0.3832  0.1917 -0.4244
  829MOL0     C 9309   9.665   1.410   0.235 -0.3101 -0.3879 -0.7912
  829MOL0     C 9310   9.646   1.539   0.315  0.5305  0.1543  0.3822
  829MOL0     C 9311   9.737   1.652   0.267  0.0831 -0.4546 -0.2649
  829MOL0     C 9312   9.678   1.730   0.153  0.9775 -0.2206  0.3570
  829MOL0     N 9313   9.531   1.753   0.169 -0.5543  0.0605  0.0386
  829MOL0     C 9314   9.473   1.844   0.252  0.5248  0.6085  0.1422
  829MOL0     C 9315   9.345   1.810   0.248 -0.6297 -0.2658 -0.2764
  829MOL0     C 9316   9.239   1.883   0.322 -0.8859  0.5903 -0.3122
  829MOL0     C 9317   9.125   1.925   0.232 -0.2940 -0.8912  0.2939
  829MOL0     C 9318   9.028   2.004   0.319  0.6703 -0.1424 -0.3118
  829MOL0     C 9319   8.890   2.025   0.242 -0.0484 -0.1869  0.3389
  829MOL0     O 9320   8.785   2.070   0.329  0.1929  0.3450 -0.0637
  829MOL0     C 9321   8.655   2.087   0.291  0.1823 -0.4452 -0.8472
  829MOL0     C 9322   8.601   2.053   0.177 -0.0613  0.0320 -0.0308
  829MOL0     C 9323   8.468   2.080   0.149 -0.1638 -0.3780  0.1763
  829MOL0     C 9324   8.387   2.138   0.248 -0.0223 -0.6705 -0.6335
  829MOL0     C 9325   8.239   2.139   0.225  0.7112 -0.0684  0.4790
  829MOL0     O 9326   8.165   2.161   0.340 -0.0519  0.4536 -0.0479
  829MOL0     C 9327   8.035   2.187   0.336  0.1653  0.0364 -0.0440
  829MOL0     C 9328   7.973   2.309   0.319 -1.2432  0.9911 -0.5302
  829MOL0     C 9329   7.836   2.317   0.308  0.1632 -1.0354 -0.3306
  829MOL0     C 9330   7.760   2.207   0.335  0.5638  0.4696  0.5130
  829MOL0     O 9331   7.623   2.213   0.342  0.3675 -0.6545  0.2192
  829MOL0     C 9332   7.564   2.330   0.408  0.3244 -0.3675 -0.6749
  829MOL0     C 9333   7.420   2.356   0.361  0.1332  0.4704  0.1023
  829MOL0     C 9334   7.337   2.235   0.306 -0.4752  1.0170 -0.4132
  829MOL0     C 9335   7.211   2.278   0.236 -0.0042  0.9763  1.0284
  829MOL0     C 9336   7.114   2.164   0.209  0.2919  0.2977  0.8600
  829MOL0     C 9337   6.972   2.200   0.158  0.1346  1.4084  0.5297
  829MOL0     C 9338   6.971   2.283   0.031  0.0031  1.1313 -0.0116
  829MOL0     C 9339   6.836   2.279  -0.036 -0.0542 -0.1919 -0.0074
  829MOL0    Cl 9340   6.727   2.378   0.064 -0.1626  0.1531 -0.0902
  829MOL0     C 9341   7.819   2.087   0.339 -0.7564  0.2975 -0.3528
  829MOL0     C 9342   7.963   2.071   0.343  0.0324  0.4635 -0.6055
  829MOL0     O 9343   8.188   2.107   0.112 -0.0819 -0.4391 -0.0599
  829MOL0     C 9344   8.452   2.201   0.360 -1.2267  0.4357  0.4168
  829MOL0     C 9345   8.594   2.178   0.379 -0.4119  0.2997 -0.0660
  829MOL0     N 9346   9.320   1.699   0.165  0.8007 -0.2626 -1.0384
  829MOL0     N 9347   9.430   1.665   0.123 -0.0397 -0.7303 -0.4906
  829MOL0     C 9348   9.999   1.017   0.184  0.3684  0.1155 -0.0581
  829MOL0     C 9349  10.091   0.966   0.096 -0.2233 -0.2667  0.1440
  829MOL0     C 9350  10.348   0.592  -0.083  1.0361  0.3983 -0.7828
  829MOL0     C 9351  10.400   0.471  -0.074  0.1240 -0.1541 -0.2483
  829MOL0     C 9352  10.488   0.425  -0.171 -0.3984 -0.1977 -0.1219
  829MOL0     C 9353  10.534   0.500  -0.281 -0.0872 -0.9481 -0.2787
  829MOL0     O 9354  10.634   0.459  -0.352 -0.2607 -0.2022  0.0465
  829MOL0     C 9355  10.673   0.538  -0.464 -1.1780 -0.1068  1.1811
  829MOL0     C 9356  10.759   0.468  -0.571 -0.8423 -0.6159  0.4485
  829MOL0     C 9357  10.879   0.381  -0.523  0.5046 -0.2685  0.0935
  829MOL0     C 9358  10.960   0.326  -0.638  1.4757 -0.0336  0.5855
  829MOL0     C 9359  11.038   0.413  -0.715  0.3832 -0.1174 -0.1922
  829MOL0     C 9360  11.098   0.482  -0.789  0.4949 -0.4084 -0.3054
  829MOL0     C 9361  10.482   0.631  -0.290 -0.1463  0.1479  0.3499
  829MOL0     C 9362  10.394   0.672  -0.187  0.4569 -0.6302 -0.1200
  829MOL0     H 9363  10.162   0.671   0.258  1.8996  1.5475  2.4860
  829MOL0     H 9364   9.996   0.763   0.417  0.1450 -2.5399 -2.0944
  829MOL0     H 9365   9.679   1.027   0.398 -0.4728 -0.2141 -0.7776
  829MOL0     H 9366   9.773   1.084   0.253  2.5605  0.5331  0.3064
  829MOL0     H 9367   9.836   1.169   0.526 -3.1895 -4.1068  0.4875
  829MOL0     H 9368   9.688   1.227   0.456  1.3408  4.5906  2.4458
  829MOL0     H 9369   9.957   1.270   0.332 -0.2608  0.0243  0.9863
  829MOL0     H 9370   9.873   1.407   0.411 -1.4380  0.8037 -0.5183
  829MOL0     H 9371   9.879   1.422   0.167 -0.2861 -0.2015 -2.0214
  829MOL0     H 9372   9.801   1.265   0.151  2.5884 -0.5851  0.3062
  829MOL0     H 9373   9.604   1.329   0.277  1.4782 -1.8153 -0.8044
  829MOL0     H 9374   9.621   1.428   0.136 -0.2986 -0.3140 -0.7827
  829MOL0     H 9375   9.685   1.523   0.416  1.1224  0.8004  0.2619
  829MOL0     H 9376   9.543   1.574   0.315  0.6843  0.8340  3.0479
  829MOL0     H 9377   9.761   1.720   0.349 -0.7500  2.3150 -2.1820
  829MOL0     H 9378   9.831   1.607   0.235 -0.0224 -1.4126  0.7085
  829MOL0     H 9379   9.693   1.669   0.064 -1.8987  1.2614 -1.3214
  829MOL0     H 9380   9.734   1.824   0.153 -1.4781  1.3830 -1.6106
  829MOL0     H 9381   9.513   1.932   0.302 -3.1859  1.6880  1.5602
  829MOL0     H 9382   9.284   1.967   0.376  1.4561 -0.9165  0.1924
  829MOL0     H 9383   9.196   1.819   0.399 -0.2366  0.8541  0.2807
  829MOL0     H 9384   9.079   1.837   0.186 -1.4289 -1.7488  2.8823
  829MOL0     H 9385   9.167   1.992   0.156 -0.8083 -2.3621 -1.3482
  829MOL0     H 9386   9.001   1.937   0.401  2.3216 -1.7661 -1.0245
  829MOL0     H 9387   9.065   2.105   0.339 -2.7309  1.0302  0.6907
  829MOL0     H 9388   8.861   1.930   0.195  0.1982  1.0783 -2.6056
  829MOL0     H 9389   8.893   2.087   0.152  1.1046 -1.5346 -0.6056
  829MOL0     H 9390   8.667   2.009   0.104  0.0731  1.6949 -0.9742
  829MOL0     H 9391   8.417   2.048   0.059  0.2181  0.0607 -0.2002
  829MOL0     H 9392   8.038   2.395   0.326  2.3966 -1.3260 -2.4417
  829MOL0     H 9393   7.783   2.406   0.275  0.5300 -1.2431 -1.5580
  829MOL0     H 9394   7.614   2.427   0.408  1.6169 -1.0049 -1.5620
  829MOL0     H 9395   7.565   2.294   0.511  2.6573 -1.0536 -0.8876
  829MOL0     H 9396   7.410   2.437   0.289 -3.7614  0.7110  0.7499
  829MOL0     H 9397   7.364   2.399   0.444  0.9662 -2.8365  2.5885
  829MOL0     H 9398   7.323   2.178   0.398  2.1178  1.0860  0.1018
  829MOL0     H 9399   7.388   2.174   0.230 -1.7432 -0.8304  0.1590
  829MOL0     H 9400   7.167   2.365   0.284  0.0689  3.3411 -2.7792
  829MOL0     H 9401   7.239   2.302   0.133  2.1931 -0.5342  1.1899
  829MOL0     H 9402   7.111   2.102   0.298  2.7421 -0.6552  0.3553
  829MOL0     H 9403   7.170   2.110   0.132  1.1853 -1.0562  2.4061
  829MOL0     H 9404   6.923   2.251   0.241  0.3870  2.2739  0.1620
  829MOL0     H 9405   6.916   2.108   0.142  2.5988 -0.0444 -0.2505
  829MOL0     H 9406   6.998   2.388   0.045 -1.2620  1.4547  0.0815
  829MOL0     H 9407   7.050   2.246  -0.035  1.7937 -1.2468  3.2211
  829MOL0     H 9408   6.789   2.181  -0.028 -0.8897  0.1858 -0.2123
  829MOL0     H 9409   6.844   2.304  -0.143  0.7102 -0.9969 -0.1455
  829MOL0     H 9410   7.771   1.991   0.357  2.5639 -1.9772 -2.4405
  829MOL0     H 9411   8.016   1.977   0.333  1.4686  0.9889  1.4754
  829MOL0     H 9412   8.395   2.271   0.420 -0.4558  0.4997  1.0931
  829MOL0     H 9413   8.639   2.228   0.464  1.3424 -2.1868  0.5712
  829MOL0     H 9414   9.953   1.109   0.149 -0.4823 -0.0369  0.5967
  829MOL0     H 9415  10.130   1.024   0.014 -0.3704  1.6221  1.3545
  829MOL0     H 9416  10.364   0.407   0.006 -1.4623  0.8431 -0.1131
  829MOL0     H 9417  10.539   0.332  -0.148  2.1367  1.4161  1.2953
  829MOL0     H 9418  10.723   0.628  -0.425 -1.4263  0.4168  0.3112
  829MOL0     H 9419  10.585   0.574  -0.518 -0.1539 -0.4677 -0.8402
  829MOL0     H 9420  10.700   0.398  -0.630  0.4138 -0.7097 -0.7336
  829MOL0     H 9421  10.796   0.547  -0.637 -2.6022  1.5382  1.8928
  829MOL0     H 9422  10.833   0.305  -0.458 -2.5781  1.0655 -0.3363
  829MOL0     H 9423  10.958   0.426  -0.463  2.2616 -1.4274 -1.2688
  829MOL0     H 9424  11.019   0.244  -0.595  1.4854 -1.0158 -1.2108
  829MOL0     H 9425  10.897   0.287  -0.718  4.0986 -0.1445 -1.6035
  829MOL0     H 9426  11.165   0.536  -0.853 -0.7450  1.6133 -0.0101
  829MOL0     H 9427  10.511   0.699  -0.370 -0.3500  0.6872  0.7238
  829MOL0     H 9428  10.353   0.773  -0.193  1.7161 -0.0695  0.2907
  830MOL0     O 9429   5.675   2.146   0.303  0.8569 -0.0013 -0.7822
  830MOL0     C 9430   5.682   2.093   0.195  0.5883 -0.7450  1.1090
  830MOL0     O 9431   5.579   2.028   0.121 -0.0732  0.4991  0.1160
  830MOL0     C 9432   5.456   1.995   0.170  0.6715  0.5047 -1.2772
  830MOL0     C 9433   5.387   1.894   0.102  0.7085  0.8959  0.2062
  830MOL0     C 9434   5.265   1.844   0.143 -0.0575 -0.2968  0.2046
  830MOL0     C 9435   5.206   1.898   0.259 -0.5784 -0.1813  0.2792
  830MOL0     O 9436   5.092   1.844   0.309  0.9082  0.3731  0.4029
  830MOL0     C 9437   5.006   1.920   0.388  0.4550 -0.2843  0.5704
  830MOL0     C 9438   4.885   1.829   0.404  0.3805  0.5097  0.2155
  830MOL0     C 9439   4.798   1.830   0.279  0.1923 -0.2983  0.2008
  830MOL0     C 9440   4.688   1.727   0.304 -0.3211 -0.4077 -0.5196
  830MOL0     C 9441   4.580   1.709   0.196  0.4536 -0.3090  0.1493
  830MOL0     C 9442   4.486   1.592   0.229  0.2241  1.5198  0.5447
  830MOL0     C 9443   4.370   1.618   0.327 -0.4844  0.4332  0.4416
  830MOL0     C 9444   4.259   1.512   0.333 -0.1125 -0.8456 -0.5979
  830MOL0     N 9445   4.171   1.483   0.218  0.3112 -0.0071 -0.3990
  830MOL0     C 9446   4.117   1.360   0.192  0.1142  0.4628  0.1458
  830MOL0     C 9447   4.049   1.368   0.075  0.4631 -1.1549 -0.1684
  830MOL0     C 9448   3.964   1.279   0.007 -0.2697  0.3735 -0.1687
  830MOL0     C 9449   3.812   1.313   0.044 -0.7985  0.9162 -0.0379
  830MOL0     C 9450   3.719   1.278  -0.076 -0.0686  0.6334  0.1917
  830MOL0     C 9451   3.571   1.292  -0.039 -0.2564 -0.3389  0.3820
  830MOL0     O 9452   3.548   1.432  -0.027 -0.0132 -0.6570 -0.5808
  830MOL0     C 9453   3.480   1.473   0.087  0.1405  0.2703  0.3751
  830MOL0     C 9454   3.529   1.587   0.148  0.1533  0.4201  0.5358
  830MOL0     C 9455   3.470   1.649   0.259 -0.0839 -0.3641 -1.0796
  830MOL0     C 9456   3.347   1.590   0.315  0.0242 -1.4863  0.5668
  830MOL0     C 9457   3.285   1.643   0.436 -0.0030 -0.2568 -0.0360
  830MOL0     O 9458   3.165   1.593   0.470  0.6139  0.0194 -0.5322
  830MOL0     C 9459   3.098   1.635   0.581 -0.1178 -0.0931 -0.2276
  830MOL0     C 9460   2.967   1.695   0.577 -0.1294  0.0434 -0.3616
  830MOL0     C 9461   2.911   1.727   0.697  0.0543  0.5563 -0.1705
  830MOL0     C 9462   2.977   1.703   0.821  0.3554  0.2693  0.1003
  830MOL0     O 9463   2.910   1.738   0.939 -0.4349  0.4631 -0.5770
  830MOL0     C 9464   2.976   1.747   1.062 -0.2292  0.2306 -0.2621
  830MOL0     C 9465   2.882   1.789   1.173  0.5554 -0.6330 -0.8548
  830MOL0     C 9466   2.934   1.916   1.256  1.0859 -0.1458  0.8174
  830MOL0     C 9467   2.827   1.978   1.346  0.4956 -0.7852  0.5376
  830MOL0     C 9468   2.756   1.896   1.449 -0.6808  0.5896  0.4669
  830MOL0     C 9469   2.627   1.966   1.494  0.2511 -0.3151  0.2136
  830MOL0     C 9470   2.576   1.898   1.620  0.2141 -0.3894  0.1381
  830MOL0     C 9471   2.461   1.966   1.685  0.3379 -0.2500  0.4069
  830MOL0    Cl 9472   2.319   1.997   1.573 -0.1557 -0.2327  0.3497
  830MOL0     C 9473   3.107   1.646   0.817  0.1574  0.2848 -0.3958
  830MOL0     C 9474   3.163   1.614   0.699 -0.3128 -0.8103 -0.1258
  830MOL0     O 9475   3.341   1.734   0.498 -0.1354 -0.1308  0.1031
  830MOL0     C 9476   3.293   1.482   0.246 -0.5412  0.0655 -0.0336
  830MOL0     C 9477   3.365   1.423   0.143 -0.1578  0.5941  0.7194
  830MOL0     N 9478   4.060   1.501   0.033 -0.4016 -0.6540 -0.2680
  830MOL0     N 9479   4.134   1.562   0.125  0.4593  0.4428 -0.1609
  830MOL0     C 9480   5.273   2.002   0.328 -0.2959 -0.1454 -0.8609
  830MOL0     C 9481   5.399   2.052   0.285  0.4475  1.0317  0.5744
  830MOL0     C 9482   5.814   2.123   0.130 -0.0316  1.1939 -0.3914
  830MOL0     C 9483   5.906   2.205   0.183  0.2632  0.4212  0.4836
  830MOL0     C 9484   6.029   2.229   0.114  0.7661 -0.5348  0.5245
  830MOL0     C 9485   6.062   2.161  -0.008  0.5736  0.2879  0.1187
  830MOL0     O 9486   6.172   2.209  -0.085 -0.1974  0.4453 -0.2125
  830MOL0     C 9487   6.178   2.169  -0.225 -1.0174  1.0984  0.7193
  830MOL0     C 9488   6.333   2.167  -0.242  0.2068  0.3082  0.0545
  830MOL0     C 9489   6.367   2.115  -0.388 -0.1586  0.4998  0.5867
  830MOL0     C 9490   6.512   2.075  -0.406 -0.0100 -0.0628 -0.8414
  830MOL0     C 9491   6.589   2.194  -0.396  0.5977 -0.1438  0.5258
  830MOL0     C 9492   6.657   2.288  -0.380 -0.5098  1.0387  0.7380
  830MOL0     C 9493   5.965   2.075  -0.060  0.6138  0.9126 -0.8429
  830MOL0     C 9494   5.847   2.060   0.006  0.3042  0.1396 -1.7759
  830MOL0     H 9495   5.435   1.848   0.017  0.3006  0.6640  0.0970
  830MOL0     H 9496   5.211   1.783   0.071  1.0983  0.5044 -1.4044
  830MOL0     H 9497   4.966   2.011   0.341 -1.8816  0.8411  4.3241
  830MOL0     H 9498   5.057   1.949   0.480  0.9273  0.1272  0.1834
  830MOL0     H 9499   4.835   1.862   0.496  1.1012  0.7855  0.5159
  830MOL0     H 9500   4.920   1.728   0.426 -1.5333 -0.4327 -0.8325
  830MOL0     H 9501   4.862   1.816   0.191  0.7334 -0.6572  0.6462
  830MOL0     H 9502   4.756   1.929   0.259 -3.4177 -1.8367 -0.8306
  830MOL0     H 9503   4.736   1.633   0.333  2.5202  0.8246 -0.8881
  830MOL0     H 9504   4.628   1.739   0.395  0.4870 -1.4911  0.1878
  830MOL0     H 9505   4.623   1.704   0.095  1.1831 -1.3791  0.4930
  830MOL0     H 9506   4.521   1.801   0.200 -1.4350 -1.5060  2.9290
  830MOL0     H 9507   4.540   1.519   0.290  0.0692  0.5939 -0.4049
  830MOL0     H 9508   4.455   1.555   0.132  2.5850  1.3591 -0.2176
  830MOL0     H 9509   4.416   1.647   0.422  0.5693  2.0677 -0.5231
  830MOL0     H 9510   4.318   1.710   0.301 -0.2659  0.1902 -0.9466
  830MOL0     H 9511   4.202   1.540   0.422 -0.1533 -2.6802 -0.0031
  830MOL0     H 9512   4.317   1.423   0.361 -0.5877 -0.7468  0.7603
  830MOL0     H 9513   4.128   1.270   0.252  4.6073  0.1242 -0.8362
  830MOL0     H 9514   3.975   1.175   0.038 -0.9882  0.4165  0.2488
  830MOL0     H 9515   3.984   1.273  -0.101 -0.2993 -0.9468 -0.1177
  830MOL0     H 9516   3.805   1.422   0.049  0.9856  1.1157 -0.9638
  830MOL0     H 9517   3.767   1.271   0.134 -1.8757  1.8921 -0.0967
  830MOL0     H 9518   3.740   1.337  -0.165 -0.1142  0.8896  0.3502
  830MOL0     H 9519   3.741   1.172  -0.088 -0.8704  0.5864 -0.9723
  830MOL0     H 9520   3.555   1.241   0.056  0.5485 -1.0575  0.1517
  830MOL0     H 9521   3.506   1.248  -0.115  0.5780  1.3516 -1.4077
  830MOL0     H 9522   3.621   1.629   0.109  0.3037  1.7659  2.2047
  830MOL0     H 9523   3.511   1.736   0.310 -1.9478  0.1204 -0.3179
  830MOL0     H 9524   2.911   1.704   0.485  0.9117  3.0796 -0.7929
  830MOL0     H 9525   2.821   1.785   0.709  0.4727  1.4958 -1.3933
  830MOL0     H 9526   3.051   1.824   1.040 -1.0461  0.7907 -1.2246
  830MOL0     H 9527   3.019   1.655   1.100 -1.1025  0.2151  0.7261
  830MOL0     H 9528   2.880   1.711   1.250  0.4865 -0.6745 -0.8988
  830MOL0     H 9529   2.781   1.812   1.137 -0.7915  0.9182  3.3560
  830MOL0     H 9530   2.980   1.999   1.202  0.7866 -0.9641 -0.7770
  830MOL0     H 9531   3.018   1.870   1.309  0.7483 -1.3075  0.3803
  830MOL0     H 9532   2.880   2.053   1.404 -0.5926 -0.1213  0.7114
  830MOL0     H 9533   2.748   2.032   1.292  0.1145  0.2773  2.0856
  830MOL0     H 9534   2.812   1.862   1.536 -2.7223 -0.7907  1.3339
  830MOL0     H 9535   2.719   1.804   1.402  1.2239 -0.4358  0.8736
  830MOL0     H 9536   2.553   1.963   1.413  0.7582  2.5419 -0.4473
  830MOL0     H 9537   2.656   2.070   1.510  1.7725 -0.4943 -1.1360
  830MOL0     H 9538   2.540   1.797   1.595  2.6054 -1.3642  0.4274
  830MOL0     H 9539   2.665   1.884   1.681  1.4462  1.2391 -1.1994
  830MOL0     H 9540   2.494   2.067   1.708  0.7344  0.6731 -3.5465
  830MOL0     H 9541   2.424   1.919   1.777 -2.5327  0.8011 -0.0985
  830MOL0     H 9542   3.166   1.613   0.901  1.2284  0.1624 -1.1678
  830MOL0     H 9543   3.260   1.566   0.708  0.3164  0.3563 -0.4084
  830MOL0     H 9544   3.200   1.440   0.284 -0.2860 -0.0563  0.4634
  830MOL0     H 9545   3.307   1.345   0.094 -1.0023  0.1711  2.3157
  830MOL0     H 9546   5.230   2.051   0.415 -0.2150 -1.8982  0.2090
  830MOL0     H 9547   5.446   2.125   0.350  0.7463  1.8087 -0.4919
  830MOL0     H 9548   5.888   2.266   0.270 -1.5738  1.9988 -0.8977
  830MOL0     H 9549   6.085   2.309   0.163 -0.0300 -0.0976  0.7433
  830MOL0     H 9550   6.135   2.241  -0.295  2.6948 -0.1631 -3.3235
  830MOL0     H 9551   6.136   2.071  -0.251 -1.0176  1.9028 -2.7519
  830MOL0     H 9552   6.372   2.267  -0.222 -0.6814  0.1148  3.4027
  830MOL0     H 9553   6.376   2.098  -0.168  1.0070  0.9737  0.2229
  830MOL0     H 9554   6.335   2.186  -0.465 -2.1092  0.7486  1.5851
  830MOL0     H 9555   6.314   2.020  -0.400  0.2308  0.6140 -3.2862
  830MOL0     H 9556   6.539   1.999  -0.332 -2.5534  0.7485  1.0872
  830MOL0     H 9557   6.534   2.027  -0.502 -0.3843 -0.5456 -0.6903
  830MOL0     H 9558   6.732   2.362  -0.359  1.6159 -1.7819  4.3993
  830MOL0     H 9559   5.977   2.018  -0.152 -1.5350 -0.2989 -0.4499
  830MOL0     H 9560   5.767   2.006  -0.044  0.3964 -0.8162 -0.9076
  831MOL0     O 9561   8.127   8.279   3.566 -0.8235  1.0486  0.1363
  831MOL0     C 9562   8.231   8.273   3.504 -0.3308 -0.8081  0.3340
  831MOL0     O 9563   8.330   8.177   3.499  0.4297 -0.2284  0.6656
  831MOL0     C 9564   8.304   8.044   3.531 -0.7894 -0.0423 -0.8866
  831MOL0     C 9565   8.183   7.977   3.509  0.5624 -0.7221 -1.0183
  831MOL0     C 9566   8.169   7.840   3.525  0.7429  0.3448 -0.4138
  831MOL0     C 9567   8.270   7.759   3.575  0.2139 -1.2336 -0.0313
  831MOL0     O 9568   8.241   7.635   3.595 -0.2070  0.2816  0.3078
  831MOL0     C 9569   8.304   7.565   3.703 -0.2035 -0.2552 -0.0872
  831MOL0     C 9570   8.189   7.531   3.805 -0.0963 -1.0618  0.7821
  831MOL0     C 9571   8.063   7.472   3.749  0.3915 -0.0437  0.1978
  831MOL0     C 9572   7.952   7.450   3.859 -0.7813  0.8911 -0.2456
  831MOL0     C 9573   7.879   7.320   3.833  0.4710 -0.1261 -0.1825
  831MOL0     C 9574   7.787   7.295   3.951 -0.7163  0.2653  0.3857
  831MOL0     C 9575   7.705   7.164   3.924 -0.4136 -0.3524 -0.5735
  831MOL0     C 9576   7.573   7.202   3.841  0.4578 -0.1515  0.2136
  831MOL0     N 9577   7.501   7.300   3.922  0.3129  0.1175 -0.4505
  831MOL0     C 9578   7.432   7.265   4.028  0.1487  0.9420 -0.0741
  831MOL0     C 9579   7.362   7.380   4.060  0.1444  0.5427 -0.0134
  831MOL0     C 9580   7.255   7.385   4.168  0.3404  0.0370 -0.7693
  831MOL0     C 9581   7.133   7.453   4.126  1.0146  1.3720 -0.4728
  831MOL0     C 9582   7.070   7.520   4.253 -0.0844  0.8886  0.5668
  831MOL0     C 9583   6.923   7.554   4.237 -0.0419 -0.2996  0.2866
  831MOL0     O 9584   6.848   7.455   4.162  0.0072 -0.4226  0.0980
  831MOL0     C 9585   6.717   7.429   4.196  0.3764 -0.5532  0.0450
  831MOL0     C 9586   6.621   7.514   4.263 -0.1098 -0.2312 -0.4921
  831MOL0     C 9587   6.491   7.479   4.295  0.3164  0.2257  0.0431
  831MOL0     C 9588   6.443   7.353   4.267  0.8652 -0.2651 -0.1660
  831MOL0     C 9589   6.303   7.311   4.290 -0.1699  0.4681  0.4942
  831MOL0     O 9590   6.244   7.367   4.404 -0.7285 -0.0045  0.5075
  831MOL0     C 9591   6.112   7.362   4.408  0.9996  0.1462  0.9144
  831MOL0     C 9592   6.026   7.417   4.314  0.6929 -0.6865  0.2278
  831MOL0     C 9593   5.883   7.407   4.330 -0.1375 -0.8963 -0.3026
  831MOL0     C 9594   5.835   7.333   4.434 -0.2386  0.1983 -0.1761
  831MOL0     O 9595   5.696   7.307   4.436 -0.3179  0.0813  0.3415
  831MOL0     C 9596   5.636   7.204   4.516 -0.2809 -1.5430 -0.3601
  831MOL0     C 9597   5.485   7.177   4.470 -0.7071  0.1399 -0.2852
  831MOL0     C 9598   5.405   7.307   4.508  0.3814  0.1615 -0.1725
  831MOL0     C 9599   5.248   7.301   4.482  0.1958 -0.8884  0.0914
  831MOL0     C 9600   5.164   7.410   4.562  0.0869 -0.7837 -0.0351
  831MOL0     C 9601   5.017   7.396   4.525 -0.2937  0.1734  0.4741
  831MOL0     C 9602   4.923   7.491   4.602 -0.8413 -0.1106  1.0349
  831MOL0     C 9603   4.798   7.406   4.637 -0.3590  0.6131 -0.5792
  831MOL0    Cl 9604   4.675   7.501   4.723 -0.2990 -0.0381 -0.3201
  831MOL0     C 9605   5.922   7.280   4.526  0.0415 -0.4087  0.4916
  831MOL0     C 9606   6.056   7.299   4.518  0.1747 -0.3983  0.7106
  831MOL0     O 9607   6.247   7.250   4.204 -0.6446  0.2796  0.1094
  831MOL0     C 9608   6.533   7.271   4.203 -0.4966 -0.4416  0.2653
  831MOL0     C 9609   6.667   7.304   4.176 -0.4457  1.1851 -0.6017
  831MOL0     N 9610   7.398   7.480   3.975 -0.3207 -0.6212 -0.0983
  831MOL0     N 9611   7.476   7.433   3.888 -0.6006  0.0304 -0.1484
  831MOL0     C 9612   8.392   7.833   3.609  0.3753 -0.4166 -0.7980
  831MOL0     C 9613   8.411   7.969   3.581 -1.2922  0.3114  0.7102
  831MOL0     C 9614   8.261   8.402   3.433 -0.0653  0.4982 -0.1463
  831MOL0     C 9615   8.166   8.511   3.416 -0.5268  1.5130 -0.2346
  831MOL0     C 9616   8.197   8.638   3.360 -0.2469 -0.2932 -0.7357
  831MOL0     C 9617   8.327   8.654   3.315  0.1444  0.7341 -0.2484
  831MOL0     O 9618   8.356   8.783   3.272 -0.0795 -0.8381  0.1435
  831MOL0     C 9619   8.377   8.879   3.378 -0.1605  0.0533  0.2537
  831MOL0     C 9620   8.413   9.013   3.326  0.8630  0.3735  0.0111
  831MOL0     C 9621   8.302   9.092   3.245  0.3753  0.1775  0.0481
  831MOL0     C 9622   8.348   9.241   3.215  1.0914  1.0237  0.0276
  831MOL0     C 9623   8.323   9.337   3.320 -0.3403 -0.4199  0.5672
  831MOL0     C 9624   8.295   9.417   3.400 -0.7594  0.5848 -0.5125
  831MOL0     C 9625   8.424   8.555   3.320 -0.6307  0.1750 -0.7121
  831MOL0     C 9626   8.386   8.425   3.371 -0.1948  0.3759  0.1726
  831MOL0     H 9627   8.098   8.030   3.467  0.5838 -0.8077 -1.1708
  831MOL0     H 9628   8.078   7.783   3.506  2.3181 -2.3056 -0.5739
  831MOL0     H 9629   8.388   7.616   3.750 -0.5028  0.9048 -0.7774
  831MOL0     H 9630   8.343   7.470   3.665 -1.0766  0.5240 -3.1752
  831MOL0     H 9631   8.164   7.610   3.877  2.3860  0.0772  0.4949
  831MOL0     H 9632   8.230   7.449   3.865  1.5303  0.9161  2.5090
  831MOL0     H 9633   8.084   7.371   3.712  0.9693  0.1004  0.1274
  831MOL0     H 9634   8.016   7.533   3.670  1.2896  0.1440 -0.2008
  831MOL0     H 9635   7.990   7.446   3.961  0.9469  0.2928 -0.8839
  831MOL0     H 9636   7.883   7.535   3.848 -0.5403  0.9131 -1.8385
  831MOL0     H 9637   7.945   7.233   3.838 -0.3297 -0.6891  1.9200
  831MOL0     H 9638   7.828   7.326   3.737 -1.3362 -2.3197  0.5395
  831MOL0     H 9639   7.722   7.378   3.980  1.3133  1.6193  1.2394
  831MOL0     H 9640   7.841   7.279   4.044  1.9288  0.1572 -1.0724
  831MOL0     H 9641   7.760   7.081   3.878 -1.6374 -1.3753 -0.2527
  831MOL0     H 9642   7.668   7.132   4.022  0.3394 -0.3567 -0.2824
  831MOL0     H 9643   7.515   7.114   3.814 -0.2107  0.4571 -0.3887
  831MOL0     H 9644   7.589   7.258   3.748  0.2703  1.8131  1.2903
  831MOL0     H 9645   7.417   7.164   4.066  1.0978  0.4403 -0.9768
  831MOL0     H 9646   7.302   7.442   4.249  0.0826 -0.8801  0.0411
  831MOL0     H 9647   7.229   7.284   4.201  1.1207  0.5405  1.6532
  831MOL0     H 9648   7.067   7.376   4.085 -0.4337  1.2193  1.9243
  831MOL0     H 9649   7.160   7.535   4.058  1.6893  0.9319 -0.7363
  831MOL0     H 9650   7.072   7.452   4.338  3.2266 -0.6106 -0.5210
  831MOL0     H 9651   7.138   7.605   4.271  0.8500  0.5597 -1.1464
  831MOL0     H 9652   6.910   7.637   4.168  1.3553 -1.4110 -1.4024
  831MOL0     H 9653   6.880   7.570   4.336  1.0069 -2.4552  1.1640
  831MOL0     H 9654   6.663   7.611   4.289  0.6604 -0.4432 -0.9018
  831MOL0     H 9655   6.431   7.552   4.348 -0.4514 -0.1304 -0.3106
  831MOL0     H 9656   6.064   7.464   4.224  1.8303  1.2449  1.6343
  831MOL0     H 9657   5.815   7.449   4.255 -2.6003  0.2929  2.4091
  831MOL0     H 9658   5.642   7.237   4.620 -0.9983  1.9465 -1.2837
  831MOL0     H 9659   5.691   7.111   4.500  0.2043 -1.1591 -0.9895
  831MOL0     H 9660   5.447   7.095   4.531 -3.7730  0.2009 -1.9294
  831MOL0     H 9661   5.487   7.148   4.365 -1.9647 -0.5931 -0.1264
  831MOL0     H 9662   5.451   7.380   4.440  6.7740 -1.9750  1.1606
  831MOL0     H 9663   5.423   7.338   4.612  0.0798 -2.3533  0.6981
  831MOL0     H 9664   5.227   7.317   4.376 -0.3526  2.9918  0.6388
  831MOL0     H 9665   5.210   7.205   4.517  1.2895 -0.7505  1.7699
  831MOL0     H 9666   5.198   7.514   4.551  3.1164 -1.2782  2.8624
  831MOL0     H 9667   5.169   7.378   4.666 -1.4067 -0.7736  0.0618
  831MOL0     H 9668   4.986   7.294   4.549  0.2606 -1.0202 -3.2577
  831MOL0     H 9669   5.004   7.412   4.418  4.9144  1.5786 -0.2122
  831MOL0     H 9670   4.966   7.521   4.698 -0.8942  3.3769  0.0971
  831MOL0     H 9671   4.897   7.579   4.542  3.2036 -0.6219 -1.8792
  831MOL0     H 9672   4.823   7.324   4.705  0.1889 -0.3062 -1.8517
  831MOL0     H 9673   4.760   7.365   4.544  0.0997 -1.4209  0.0887
  831MOL0     H 9674   5.887   7.231   4.616 -2.8481 -1.0619 -0.8780
  831MOL0     H 9675   6.123   7.257   4.593 -0.0116 -1.3199  0.3722
  831MOL0     H 9676   6.496   7.172   4.178 -3.7483 -0.0333  2.7604
  831MOL0     H 9677   6.729   7.235   4.120  2.0052  2.1007  0.8181
  831MOL0     H 9678   8.479   7.777   3.640  1.7275 -0.6011 -4.4422
  831MOL0     H 9679   8.514   8.003   3.594 -0.7476 -0.2529 -1.6904
  831MOL0     H 9680   8.070   8.489   3.462 -0.9637 -0.8641 -2.0990
  831MOL0     H 9681   8.136   8.728   3.358  1.0238  0.6447  0.5669
  831MOL0     H 9682   8.449   8.843   3.451  1.5156  0.1430 -1.2833
  831MOL0     H 9683   8.281   8.888   3.430 -1.5868  0.4462 -2.2474
  831MOL0     H 9684   8.438   9.065   3.419 -0.3767 -0.8562  1.0750
  831MOL0     H 9685   8.500   9.009   3.259  0.2579  0.1805 -0.7820
  831MOL0     H 9686   8.211   9.091   3.306  0.6713 -1.1218  0.5032
  831MOL0     H 9687   8.288   9.045   3.147 -0.1452  0.4742 -0.0229
  831MOL0     H 9688   8.455   9.234   3.195  0.8418 -1.4727 -0.7799
  831MOL0     H 9689   8.294   9.275   3.126  0.4095 -0.9700 -0.3843
  831MOL0     H 9690   8.269   9.483   3.480 -1.9444 -0.6427  0.1694
  831MOL0     H 9691   8.528   8.569   3.292 -0.4655 -1.4332 -0.9797
  831MOL0     H 9692   8.460   8.346   3.363 -1.0716 -0.6852  1.9201
  832MOL0     O 9693   4.136   9.659   1.076  0.6843 -0.4044 -0.4155
  832MOL0     C 9694   4.155   9.552   1.134  0.1024 -1.1349 -0.4956
  832MOL0     O 9695   4.109   9.436   1.088  0.4464  0.0007  0.1277
  832MOL0     C 9696   4.032   9.439   0.969  0.5433 -0.2666  0.5045
  832MOL0     C 9697   3.894   9.481   0.973  0.1755  0.4425 -0.1573
  832MOL0     C 9698   3.803   9.467   0.867  0.2069  0.4568 -0.2387
  832MOL0     C 9699   3.843   9.408   0.743  0.7183  0.2127 -0.0702
  832MOL0     O 9700   3.771   9.388   0.631  0.5200 -0.0972  0.5897
  832MOL0     C 9701   3.630   9.392   0.636 -0.1802 -0.2803  0.3811
  832MOL0     C 9702   3.566   9.332   0.508 -0.5315  0.9440 -0.1214
  832MOL0     C 9703   3.426   9.385   0.469  0.1491  1.2979 -0.3151
  832MOL0     C 9704   3.323   9.381   0.582 -0.0276  0.5186  0.9214
  832MOL0     C 9705   3.187   9.442   0.544 -1.0404 -0.2097 -0.0344
  832MOL0     C 9706   3.110   9.343   0.463  0.1145  0.7048 -0.2375
  832MOL0     C 9707   2.977   9.391   0.440  0.2332 -0.2078  0.2097
  832MOL0     C 9708   2.911   9.284   0.348 -0.5924 -0.2864  0.2098
  832MOL0     N 9709   2.773   9.320   0.310  0.0591  0.2570  0.0000
  832MOL0     C 9710   2.753   9.420   0.220  0.3113  0.2423  0.1374
  832MOL0     C 9711   2.618   9.417   0.199 -0.7539 -1.1934  0.0109
  832MOL0     C 9712   2.546   9.472   0.083 -0.3580  0.3383 -0.6534
  832MOL0     C 9713   2.465   9.598   0.115  0.1721  0.2217 -0.1968
  832MOL0     C 9714   2.330   9.575   0.194  0.3023  0.0680  0.3911
  832MOL0     C 9715   2.249   9.705   0.232 -0.2702 -0.0421 -0.1965
  832MOL0     O 9716   2.113   9.696   0.270  0.4165  0.0698 -0.3992
  832MOL0     C 9717   2.051   9.803   0.327  0.6099 -0.6340  0.7306
  832MOL0     C 9718   2.102   9.933   0.344 -0.6371  0.3583 -0.5745
  832MOL0     C 9719   2.039  10.029   0.425 -0.4558 -0.8056 -0.3163
  832MOL0     C 9720   1.913   9.992   0.484  0.7164  0.8196 -0.4465
  832MOL0     C 9721   1.855  10.090   0.579  0.7365  0.4905  0.1217
  832MOL0     O 9722   1.739  10.058   0.646  0.2204 -0.8226  0.1065
  832MOL0     C 9723   1.681  10.136   0.745 -0.2224 -0.2482 -0.3673
  832MOL0     C 9724   1.753  10.234   0.821 -0.0705  0.1039 -0.4164
  832MOL0     C 9725   1.691  10.322   0.915  0.7531  0.4277  0.4623
  832MOL0     C 9726   1.554  10.313   0.936  0.8685 -0.9786 -0.8273
  832MOL0     O 9727   1.483  10.380   1.032 -0.1438  0.3259  0.7168
  832MOL0     C 9728   1.546  10.459   1.127  0.7659 -0.0374  0.0450
  832MOL0     C 9729   1.503  10.414   1.268  0.0221  0.8854  0.4627
  832MOL0     C 9730   1.547  10.522   1.369  0.3606  0.0945  0.7368
  832MOL0     C 9731   1.698  10.530   1.391  0.3000  0.4675  0.6281
  832MOL0     C 9732   1.742  10.607   1.511 -0.3346  0.3720 -0.6995
  832MOL0     C 9733   1.887  10.594   1.548  0.0397  1.6544  0.3525
  832MOL0     C 9734   1.977  10.624   1.425 -0.5472  0.5587  0.7668
  832MOL0     C 9735   2.126  10.651   1.470 -0.3776  0.2975 -0.0423
  832MOL0    Cl 9736   2.185  10.501   1.547  0.3320  0.0246  0.1845
  832MOL0     C 9737   1.487  10.215   0.871 -1.3719  0.9407  0.4677
  832MOL0     C 9738   1.548  10.124   0.779  0.5741 -0.5735  0.6204
  832MOL0     O 9739   1.910  10.198   0.573 -0.4351 -0.3536  0.2417
  832MOL0     C 9740   1.850   9.865   0.463 -0.4560 -0.3559  0.1361
  832MOL0     C 9741   1.926   9.782   0.382  0.8886  0.4235  0.2747
  832MOL0     N 9742   2.567   9.327   0.288  0.3742  0.3721 -0.3435
  832MOL0     N 9743   2.656   9.272   0.364  0.3788  0.2469 -0.1485
  832MOL0     C 9744   3.977   9.368   0.737 -0.0697 -0.2093  0.0811
  832MOL0     C 9745   4.066   9.377   0.846 -0.2913  0.7030  0.5585
  832MOL0     C 9746   4.249   9.560   1.249 -0.8752 -0.1864 -0.5487
  832MOL0     C 9747   4.283   9.437   1.317 -0.1953 -0.9326 -0.3458
  832MOL0     C 9748   4.374   9.435   1.426 -0.2300 -0.0708 -0.1878
  832MOL0     C 9749   4.447   9.552   1.464 -0.0364  0.1738 -0.1179
  832MOL0     O 9750   4.543   9.564   1.558 -0.6533  0.2819 -0.0404
  832MOL0     C 9751   4.604   9.441   1.610  0.4599 -0.3397 -0.0503
  832MOL0     C 9752   4.706   9.451   1.721 -0.1184  0.6640  0.4600
  832MOL0     C 9753   4.846   9.470   1.675 -0.1738 -0.0124 -0.6075
  832MOL0     C 9754   4.946   9.403   1.764 -0.2486 -0.0502 -0.6771
  832MOL0     C 9755   5.084   9.401   1.707 -0.3430  0.1333 -0.9077
  832MOL0     C 9756   5.199   9.400   1.672  0.1474  0.3006  0.0228
  832MOL0     C 9757   4.427   9.671   1.389 -0.4258  0.7836  0.6182
  832MOL0     C 9758   4.331   9.672   1.283  0.2497 -0.1318  0.3659
  832MOL0     H 9759   3.854   9.509   1.070 -2.7124  0.1362 -1.1594
  832MOL0     H 9760   3.700   9.501   0.875  0.2714  0.7546 -0.6703
  832MOL0     H 9761   3.599   9.496   0.620 -1.5197 -0.9777 -2.0657
  832MOL0     H 9762   3.584   9.356   0.729 -0.8593 -0.3172  0.0354
  832MOL0     H 9763   3.565   9.225   0.531  3.3328  0.8349  0.0330
  832MOL0     H 9764   3.639   9.351   0.430  0.7063 -0.1219  0.7259
  832MOL0     H 9765   3.386   9.331   0.382 -1.1234 -3.5809  2.8802
  832MOL0     H 9766   3.441   9.491   0.447 -2.4468  2.2364  1.8355
  832MOL0     H 9767   3.328   9.277   0.618 -0.0425  0.4588  0.7537
  832MOL0     H 9768   3.365   9.440   0.663  1.2065  0.2888  0.4724
  832MOL0     H 9769   3.228   9.520   0.479 -1.3920 -1.0262 -1.2567
  832MOL0     H 9770   3.128   9.491   0.622 -0.2587  0.2190  0.2981
  832MOL0     H 9771   3.093   9.253   0.522  2.5818 -0.1787 -0.7651
  832MOL0     H 9772   3.151   9.301   0.372  0.3295  2.5564 -1.0490
  832MOL0     H 9773   2.917   9.406   0.530 -0.4964  0.7847 -0.4132
  832MOL0     H 9774   2.983   9.491   0.395 -3.1194 -0.3247 -0.7572
  832MOL0     H 9775   2.911   9.190   0.404  3.8940 -0.4119  0.3644
  832MOL0     H 9776   2.972   9.271   0.258  1.5934  2.7168  1.1006
  832MOL0     H 9777   2.833   9.472   0.169 -0.6523  2.5616  0.8369
  832MOL0     H 9778   2.484   9.390   0.046  0.8822  0.9301 -4.5296
  832MOL0     H 9779   2.623   9.489   0.007 -0.4906 -2.5500 -1.5414
  832MOL0     H 9780   2.447   9.646   0.019  0.6523  0.3094 -0.2445
  832MOL0     H 9781   2.522   9.667   0.178 -0.2549 -0.5824  1.1228
  832MOL0     H 9782   2.268   9.522   0.121  1.8609  1.5397 -2.1751
  832MOL0     H 9783   2.337   9.518   0.287  1.9623  0.7911  0.7450
  832MOL0     H 9784   2.255   9.771   0.145 -0.1062  1.5299  0.9790
  832MOL0     H 9785   2.309   9.756   0.308 -2.0218  0.0510  1.1631
  832MOL0     H 9786   2.203   9.953   0.310  0.6092 -2.3529  1.2254
  832MOL0     H 9787   2.095  10.122   0.430 -0.1349 -1.0370  0.4722
  832MOL0     H 9788   1.857  10.253   0.797  0.0251 -0.0252 -0.1193
  832MOL0     H 9789   1.759  10.391   0.965 -1.5298  1.6684  2.0413
  832MOL0     H 9790   1.523  10.566   1.115  0.8103  1.2283  7.0466
  832MOL0     H 9791   1.655  10.464   1.120  0.7473 -1.5614 -2.2142
  832MOL0     H 9792   1.561  10.326   1.298  1.3446  1.4111 -0.4651
  832MOL0     H 9793   1.399  10.383   1.277 -0.1033  1.2515  0.2929
  832MOL0     H 9794   1.490  10.501   1.460  1.8661 -0.6219  1.5429
  832MOL0     H 9795   1.515  10.619   1.331 -0.8465 -1.1982 -1.8567
  832MOL0     H 9796   1.748  10.433   1.397 -0.7130 -0.0104  1.5745
  832MOL0     H 9797   1.747  10.577   1.305 -0.5086 -0.7511 -0.5445
  832MOL0     H 9798   1.678  10.572   1.593 -1.4512  0.1662 -1.6468
  832MOL0     H 9799   1.709  10.711   1.501 -2.8015 -0.3073 -0.1861
  832MOL0     H 9800   1.891  10.485   1.561 -1.4524  0.8414 -4.0179
  832MOL0     H 9801   1.906  10.665   1.628 -0.4933  2.9912 -0.6725
  832MOL0     H 9802   1.983  10.543   1.352 -0.4328  2.2378 -1.1922
  832MOL0     H 9803   1.942  10.718   1.381  3.4057  2.4693  1.1755
  832MOL0     H 9804   2.132  10.730   1.545 -2.0298  1.9457 -1.5218
  832MOL0     H 9805   2.195  10.678   1.390  0.8562  2.4973  1.6419
  832MOL0     H 9806   1.380  10.217   0.888 -1.0560  0.3197  2.9315
  832MOL0     H 9807   1.481  10.053   0.731  0.7656  0.2201 -0.8990
  832MOL0     H 9808   1.763   9.824   0.513  0.6944 -1.4984  1.2921
  832MOL0     H 9809   1.895   9.681   0.357 -0.9078  1.2931 -1.2303
  832MOL0     H 9810   4.000   9.305   0.651  1.3197 -0.9102  0.9364
  832MOL0     H 9811   4.164   9.331   0.838 -1.3516 -2.3566  2.9119
  832MOL0     H 9812   4.242   9.344   1.280  0.7938 -1.0838 -1.1161
  832MOL0     H 9813   4.388   9.346   1.486  0.2365 -0.0751 -0.2954
  832MOL0     H 9814   4.644   9.390   1.522  1.3314 -3.5480  2.0639
  832MOL0     H 9815   4.532   9.370   1.649  1.0322  1.1264  4.1897
  832MOL0     H 9816   4.680   9.534   1.788  0.7575  2.8128 -1.7042
  832MOL0     H 9817   4.715   9.355   1.772  6.3540  2.0877  2.9473
  832MOL0     H 9818   4.861   9.578   1.669 -2.3250  0.5554  2.2314
  832MOL0     H 9819   4.858   9.426   1.575  0.5252  4.2211 -2.6457
  832MOL0     H 9820   4.955   9.447   1.864  0.5347  0.7550 -1.0852
  832MOL0     H 9821   4.915   9.299   1.774 -2.0714  0.2662 -2.5053
  832MOL0     H 9822   5.301   9.397   1.640  0.5952  0.0005  1.4162
  832MOL0     H 9823   4.494   9.754   1.408  1.0608 -0.6237  1.8299
  832MOL0     H 9824   4.318   9.756   1.215 -0.2469 -1.0508 -0.7033
  833MOL0     O 9825   2.039   3.538  10.745  0.2160 -0.9907 -0.8548
  833MOL0     C 9826   2.092   3.586  10.645  0.5139  0.2604  0.1139
  833MOL0     O 9827   2.028   3.652  10.540  0.2657 -0.0935 -0.1448
  833MOL0     C 9828   1.891   3.654  10.523  0.6106 -0.2671 -0.1602
  833MOL0     C 9829   1.808   3.554  10.589 -0.3564  0.5064  1.4076
  833MOL0     C 9830   1.672   3.545  10.572 -0.6241  0.1878 -0.4483
  833MOL0     C 9831   1.613   3.621  10.474 -0.8286  0.3878  0.3494
  833MOL0     O 9832   1.484   3.592  10.445 -0.2863 -0.1904  0.2406
  833MOL0     C 9833   1.391   3.648  10.546 -0.1586  0.0693  0.2191
  833MOL0     C 9834   1.265   3.716  10.497 -0.3946 -0.3322  0.3181
  833MOL0     C 9835   1.280   3.800  10.369  0.2511  0.6132  0.2099
  833MOL0     C 9836   1.359   3.922  10.405  0.1339  0.0314  0.0915
  833MOL0     C 9837   1.385   3.999  10.278 -0.1503 -0.1803  0.2555
  833MOL0     C 9838   1.422   4.150  10.295  0.0958 -0.1840  0.2071
  833MOL0     C 9839   1.456   4.210  10.154 -0.2950 -0.4913 -0.7840
  833MOL0     C 9840   1.578   4.157  10.084 -0.1090  0.5752 -0.2906
  833MOL0     N 9841   1.704   4.168  10.165 -0.5138 -0.7686 -0.0079
  833MOL0     C 9842   1.774   4.290  10.178  0.8460  1.0494 -0.1373
  833MOL0     C 9843   1.888   4.255  10.235  0.1061 -0.4086  0.7939
  833MOL0     C 9844   2.017   4.341  10.249  0.2915  0.5007  0.3334
  833MOL0     C 9845   2.148   4.284  10.182  0.2126 -0.5495 -0.0526
  833MOL0     C 9846   2.145   4.263  10.039  1.0727 -0.0198  0.9571
  833MOL0     C 9847   2.278   4.255   9.970  0.3620  0.2934 -0.7402
  833MOL0     O 9848   2.380   4.191  10.054 -0.1475 -0.5559 -0.4604
  833MOL0     C 9849   2.516   4.199  10.028  0.0030  1.3539  0.3420
  833MOL0     C 9850   2.593   4.120  10.109 -1.3388  0.4467 -0.4288
  833MOL0     C 9851   2.729   4.105  10.085 -0.0618  0.2641  0.7430
  833MOL0     C 9852   2.794   4.180   9.977  0.0783 -0.3831 -0.2899
  833MOL0     C 9853   2.938   4.172   9.957  0.5278  0.4273 -0.4084
  833MOL0     O 9854   3.011   4.090  10.030  0.4686 -0.0238 -0.2717
  833MOL0     C 9855   3.149   4.088  10.028  0.1635 -0.4482  0.2155
  833MOL0     C 9856   3.214   4.079   9.906  0.0191 -0.0825 -0.0902
  833MOL0     C 9857   3.350   4.073   9.893 -0.2726 -0.2998  0.7411
  833MOL0     C 9858   3.432   4.056  10.003  0.0561 -0.6426 -0.7497
  833MOL0     O 9859   3.560   4.024   9.999 -0.4926  0.3218 -0.0030
  833MOL0     C 9860   3.630   3.993   9.878 -0.2105  0.1173 -0.7899
  833MOL0     C 9861   3.785   3.996   9.911 -0.7726  0.2357 -0.3351
  833MOL0     C 9862   3.819   3.923  10.038  0.0418  0.5767  0.0402
  833MOL0     C 9863   3.976   3.913  10.061 -0.1912  0.5172 -0.0002
  833MOL0     C 9864   4.037   3.814  10.172  1.1637  0.0841 -0.1849
  833MOL0     C 9865   3.967   3.809  10.310  0.5542 -0.0231  1.3209
  833MOL0     C 9866   4.051   3.744  10.420 -0.3612  0.5165 -0.0962
  833MOL0     C 9867   4.149   3.838  10.479 -0.0990 -0.2354 -0.7722
  833MOL0    Cl 9868   4.062   3.937  10.609  0.2111  0.0053 -0.0414
  833MOL0     C 9869   3.367   4.059  10.133  1.2513  0.6088  0.2135
  833MOL0     C 9870   3.226   4.083  10.145  0.0726  0.3852  0.6995
  833MOL0     O 9871   2.982   4.258   9.878  0.1813 -0.3813  0.5635
  833MOL0     C 9872   2.702   4.263   9.900  1.1179 -0.5070 -0.3501
  833MOL0     C 9873   2.571   4.270   9.924  0.2722  0.0875  1.0709
  833MOL0     N 9874   1.883   4.120  10.258  0.2525 -0.5775  0.1330
  833MOL0     N 9875   1.768   4.069  10.233  0.0865  0.4288  0.3593
  833MOL0     C 9876   1.690   3.729  10.415  0.9985 -0.1545 -0.4583
  833MOL0     C 9877   1.828   3.738  10.435 -0.1742 -0.3263  0.0808
  833MOL0     C 9878   2.233   3.573  10.631 -0.2738 -0.0111 -0.2573
  833MOL0     C 9879   2.313   3.672  10.564 -0.2602 -0.4685 -0.2393
  833MOL0     C 9880   2.452   3.647  10.546  1.1479 -0.3375 -0.1471
  833MOL0     C 9881   2.510   3.529  10.584 -0.5341  0.2283 -0.2429
  833MOL0     O 9882   2.638   3.506  10.532  0.7374 -0.9213  0.3025
  833MOL0     C 9883   2.701   3.373  10.561 -0.4774  0.1384 -0.2350
  833MOL0     C 9884   2.754   3.366  10.709  0.1400  0.5028  0.8587
  833MOL0     C 9885   2.834   3.486  10.758 -0.5327 -0.2787 -0.6704
  833MOL0     C 9886   2.908   3.466  10.894 -0.0788 -0.2629 -0.0729
  833MOL0     C 9887   2.973   3.338  10.899  0.3436  0.2060 -0.6253
  833MOL0     C 9888   3.022   3.227  10.916 -0.1763  0.0714  0.6026
  833MOL0     C 9889   2.431   3.436  10.654 -0.1914 -1.2074  0.2663
  833MOL0     C 9890   2.298   3.464  10.680  0.1128 -0.3163 -0.3193
  833MOL0     H 9891   1.850   3.472  10.646 -0.0311 -0.5878 -0.3407
  833MOL0     H 9892   1.609   3.474  10.626 -1.8028  2.4397  1.3440
  833MOL0     H 9893   1.445   3.724  10.604 -0.3590 -0.6459  1.3772
  833MOL0     H 9894   1.351   3.569  10.610 -2.3000 -0.1271 -1.2802
  833MOL0     H 9895   1.218   3.775  10.576 -1.5497  1.9331 -1.9504
  833MOL0     H 9896   1.192   3.641  10.465  0.1939  0.5231 -3.5397
  833MOL0     H 9897   1.176   3.819  10.341  0.0147 -0.8949 -0.0653
  833MOL0     H 9898   1.330   3.744  10.290  1.9070 -0.6161  2.0279
  833MOL0     H 9899   1.308   3.989  10.475  0.4404  0.4334 -0.0624
  833MOL0     H 9900   1.456   3.891  10.443  1.6252  2.0566 -1.7341
  833MOL0     H 9901   1.286   4.003  10.230 -0.9918  0.0850  1.9284
  833MOL0     H 9902   1.459   3.943  10.220 -0.7127 -2.1113  1.3160
  833MOL0     H 9903   1.511   4.154  10.359  0.6815 -1.4918 -0.4897
  833MOL0     H 9904   1.344   4.206  10.348  2.2258 -0.0714  3.5696
  833MOL0     H 9905   1.372   4.194  10.086 -1.7456 -0.2775  0.8679
  833MOL0     H 9906   1.465   4.318  10.169 -0.0629 -0.8061  1.8401
  833MOL0     H 9907   1.570   4.212   9.990 -2.6243 -1.6540 -1.5064
  833MOL0     H 9908   1.560   4.054  10.053 -0.8422  0.3423  0.8496
  833MOL0     H 9909   1.747   4.386  10.136 -0.1461  0.2141 -1.4537
  833MOL0     H 9910   2.041   4.367  10.352  0.5506 -1.9374  0.9340
  833MOL0     H 9911   1.982   4.434  10.204 -0.8882  0.4509  1.1259
  833MOL0     H 9912   2.169   4.189  10.232  0.8041 -0.9718 -1.0835
  833MOL0     H 9913   2.230   4.353  10.204  0.4648 -0.3462 -1.5436
  833MOL0     H 9914   2.105   4.162  10.025 -0.1804  0.1744  2.7567
  833MOL0     H 9915   2.088   4.334   9.979  0.3212 -3.9018 -3.5121
  833MOL0     H 9916   2.313   4.354   9.940 -0.7667  0.6807 -0.8297
  833MOL0     H 9917   2.270   4.191   9.882 -0.6445 -1.5858  0.6433
  833MOL0     H 9918   2.549   4.060  10.188  0.8370 -1.2849 -0.4236
  833MOL0     H 9919   2.784   4.033  10.146 -0.0310  0.6689  1.2029
  833MOL0     H 9920   3.153   4.097   9.818  0.5992  1.3639 -0.2209
  833MOL0     H 9921   3.395   4.071   9.794  1.1678  0.4914  1.3407
  833MOL0     H 9922   3.610   4.078   9.813  3.6825  2.5502  0.8109
  833MOL0     H 9923   3.613   3.891   9.841 -3.5906  1.3908 -3.2712
  833MOL0     H 9924   3.802   4.104   9.907 -3.6343  0.7624 -0.8468
  833MOL0     H 9925   3.839   3.963   9.821 -0.4869  0.9148 -0.4203
  833MOL0     H 9926   3.796   3.817  10.029  0.8133  0.1699  2.2102
  833MOL0     H 9927   3.772   3.961  10.129 -0.8570 -0.2871 -0.0499
  833MOL0     H 9928   4.017   3.887   9.963  2.5971  3.0806  0.3427
  833MOL0     H 9929   4.007   4.017  10.077 -0.4314  0.9479 -2.0758
  833MOL0     H 9930   4.141   3.845  10.189  1.6068 -0.5314 -1.6709
  833MOL0     H 9931   4.051   3.713  10.135  1.8256 -0.5363  1.6456
  833MOL0     H 9932   3.881   3.744  10.290 -0.7151  2.2687 -1.2955
  833MOL0     H 9933   3.925   3.906  10.339 -3.3273 -0.2089 -2.5984
  833MOL0     H 9934   3.998   3.696  10.502  1.5893 -0.4304  0.6636
  833MOL0     H 9935   4.111   3.670  10.367  0.7862  1.0361  0.4474
  833MOL0     H 9936   4.185   3.908  10.403 -1.6886 -0.6400 -1.9610
  833MOL0     H 9937   4.237   3.784  10.513 -0.6035 -2.9852 -3.4328
  833MOL0     H 9938   3.424   4.047  10.225  3.0595  0.3272 -0.8862
  833MOL0     H 9939   3.181   4.074  10.244 -2.8040 -0.0813 -0.5616
  833MOL0     H 9940   2.744   4.329   9.824  1.0203 -0.7916 -0.6514
  833MOL0     H 9941   2.510   4.326   9.855  1.7544 -1.9788 -2.1667
  833MOL0     H 9942   1.648   3.804  10.348 -0.9802 -0.2435  0.6193
  833MOL0     H 9943   1.881   3.820  10.388 -3.0640  2.4110  1.2676
  833MOL0     H 9944   2.277   3.754  10.503  0.6502 -0.9458 -1.4526
  833MOL0     H 9945   2.503   3.713  10.477 -3.1552  1.3956 -2.0716
  833MOL0     H 9946   2.792   3.370  10.501  1.6458  1.1380  2.6770
  833MOL0     H 9947   2.641   3.287  10.529  1.2084 -1.1575 -0.0567
  833MOL0     H 9948   2.675   3.336  10.779  1.1664 -1.3785  1.2821
  833MOL0     H 9949   2.820   3.279  10.713 -2.7377 -1.8354  2.7756
  833MOL0     H 9950   2.768   3.574  10.754  1.3999  1.3019  0.7347
  833MOL0     H 9951   2.917   3.495  10.688  0.4401 -2.2488  0.1490
  833MOL0     H 9952   2.974   3.551  10.911  0.3176 -0.4515 -0.6571
  833MOL0     H 9953   2.832   3.478  10.972 -1.8301 -0.0040 -1.7541
  833MOL0     H 9954   3.067   3.131  10.928  3.2452  1.3611 -0.6833
  833MOL0     H 9955   2.469   3.341  10.690  0.0040 -1.1026  0.3377
  833MOL0     H 9956   2.246   3.391  10.741  1.4767  0.7066  2.1913
  834MOL0     O 9957   7.368   8.760   5.066  0.2076 -0.4153  0.1060
  834MOL0     C 9958   7.419   8.793   5.169 -0.7881  0.4545 -0.9984
  834MOL0     O 9959   7.360   8.781   5.293 -0.1495  0.4281  0.2574
  834MOL0     C 9960   7.236   8.725   5.294 -0.4605  0.5179  0.3976
  834MOL0     C 9961   7.115   8.761   5.232  0.1373 -0.3088  0.2980
  834MOL0     C 9962   6.999   8.679   5.232  0.2567  0.2882  0.1710
  834MOL0     C 9963   7.004   8.557   5.300 -0.1173  0.5651  0.3611
  834MOL0     O 9964   6.904   8.458   5.307  0.0552 -0.0947  0.0727
  834MOL0     C 9965   6.774   8.485   5.258  0.1065 -1.3505  0.8958
  834MOL0     C 9966   6.690   8.381   5.324 -0.4539 -0.4646  0.6790
  834MOL0     C 9967   6.706   8.388   5.478 -0.1153  0.2945  0.0255
  834MOL0     C 9968   6.595   8.323   5.564  0.6370  1.1427 -0.7149
  834MOL0     C 9969   6.453   8.371   5.540 -0.1652 -0.4151 -0.1250
  834MOL0     C 9970   6.360   8.354   5.656 -0.6190 -1.4946  0.6142
  834MOL0     C 9971   6.374   8.223   5.731 -0.0469 -0.7879 -0.1700
  834MOL0     C 9972   6.328   8.114   5.634 -0.0959  0.1511 -0.3681
  834MOL0     N 9973   6.183   8.130   5.619  0.1732  0.3549  0.2671
  834MOL0     C 9974   6.090   8.085   5.711  0.1473 -0.1271 -0.5753
  834MOL0     C 9975   5.968   8.070   5.647  0.0596  0.2122 -0.1193
  834MOL0     C 9976   5.848   8.034   5.721  0.4864 -0.9807 -0.1808
  834MOL0     C 9977   5.753   7.934   5.659  0.1410  0.0875  0.5418
  834MOL0     C 9978   5.708   7.843   5.766  0.2132  0.1268 -0.3504
  834MOL0     C 9979   5.613   7.732   5.715 -0.0258 -1.2409 -0.6113
  834MOL0     O 9980   5.483   7.786   5.678 -0.1479  0.4411  0.2686
  834MOL0     C 9981   5.375   7.700   5.668  1.1465  0.3293 -1.0187
  834MOL0     C 9982   5.319   7.677   5.539 -1.3769  0.0717  0.0185
  834MOL0     C 9983   5.209   7.588   5.513  0.9509  0.5032 -0.5042
  834MOL0     C 9984   5.152   7.526   5.630 -0.3317 -0.0023 -0.1998
  834MOL0     C 9985   5.052   7.414   5.624 -0.0314 -0.5832 -0.9213
  834MOL0     O 9986   5.037   7.373   5.497  0.0012  0.0402  0.1537
  834MOL0     C 9987   4.923   7.313   5.466 -0.3021  0.7534  0.0375
  834MOL0     C 9988   4.847   7.362   5.365 -0.1351 -0.4276  0.3377
  834MOL0     C 9989   4.732   7.298   5.336  0.6861 -0.4576 -0.8406
  834MOL0     C 9990   4.700   7.174   5.390 -0.1967 -0.2131 -0.5976
  834MOL0     O 9991   4.590   7.112   5.343  0.0330  0.0489  0.3009
  834MOL0     C 9992   4.599   6.974   5.290  0.1939 -0.3032  0.3679
  834MOL0     C 9993   4.700   6.959   5.178  0.1934 -0.2101 -0.6745
  834MOL0     C 9994   4.706   6.809   5.124  0.4341 -0.4924 -0.2552
  834MOL0     C 9995   4.841   6.786   5.050 -0.8496  0.4520 -0.5578
  834MOL0     C 9996   4.868   6.640   5.000 -0.4245  0.2605 -0.5346
  834MOL0     C 9997   4.776   6.584   4.901  0.6296  0.0493 -0.7360
  834MOL0     C 9998   4.639   6.530   4.948 -0.7822  0.9003 -1.2772
  834MOL0     C 9999   4.658   6.388   5.025 -0.0465 -0.3667 -1.1210
  834MOL0    Cl10000   4.530   6.367   5.146  0.7676 -0.0390 -0.0452
  834MOL0     C10001   4.787   7.113   5.486  0.8163 -0.6456 -0.2182
  834MOL0     C10002   4.894   7.186   5.525 -0.4211  0.4304 -0.3138
  834MOL0     O10003   4.996   7.378   5.726  0.4251  0.1071 -0.1687
  834MOL0     C10004   5.213   7.539   5.757 -0.4400 -0.0947 -0.7856
  834MOL0     C10005   5.319   7.634   5.780  0.0004 -0.4520  0.3055
  834MOL0     N10006   5.987   8.106   5.508  0.0401  0.0659  0.5268
  834MOL0     N10007   6.110   8.142   5.500  0.5063  0.3490 -0.0912
  834MOL0     C10008   7.118   8.529   5.382  0.2232 -0.3032 -0.1581
  834MOL0     C10009   7.229   8.612   5.385  0.0116  0.7992  0.0760
  834MOL0     C10010   7.562   8.842   5.156 -0.4354 -0.0571 -0.5098
  834MOL0     C10011   7.640   8.840   5.276 -0.5149 -0.6456 -0.7038
  834MOL0     C10012   7.781   8.877   5.278 -0.5443  0.3820  0.4692
  834MOL0     C10013   7.843   8.901   5.156 -0.2169 -0.6090 -0.0378
  834MOL0     O10014   7.981   8.918   5.141 -0.2035  0.0507 -0.2544
  834MOL0     C10015   8.054   8.988   5.247 -0.0435  0.4777  0.5269
  834MOL0     C10016   8.196   9.015   5.214  0.6617  0.8513 -0.2041
  834MOL0     C10017   8.288   8.896   5.239  0.1536 -0.1231 -0.4022
  834MOL0     C10018   8.425   8.927   5.182  0.1017  0.1204  0.1242
  834MOL0     C10019   8.506   9.054   5.201  0.3437  0.2893  0.3192
  834MOL0     C10020   8.575   9.152   5.206 -0.7379  0.1617  0.6479
  834MOL0     C10021   7.773   8.887   5.041  0.0616  0.8115  0.6104
  834MOL0     C10022   7.632   8.861   5.043 -1.2540 -0.0753  0.8672
  834MOL0     H10023   7.103   8.856   5.181 -3.9261 -1.4093 -1.2070
  834MOL0     H10024   6.914   8.713   5.175  1.0404  1.3897 -0.3771
  834MOL0     H10025   6.771   8.459   5.152 -1.9917 -3.1329  1.3191
  834MOL0     H10026   6.728   8.581   5.283  1.0617  0.2346 -2.8014
  834MOL0     H10027   6.723   8.284   5.285  0.3475  0.7510 -1.8864
  834MOL0     H10028   6.589   8.401   5.287  0.0897  2.7041  0.6070
  834MOL0     H10029   6.706   8.494   5.505 -2.4926  0.3663 -0.0547
  834MOL0     H10030   6.803   8.341   5.497 -0.9279  0.0074  4.4760
  834MOL0     H10031   6.605   8.217   5.538  1.2671  0.9286  0.3292
  834MOL0     H10032   6.625   8.326   5.670 -0.4056 -0.9258 -0.3170
  834MOL0     H10033   6.404   8.316   5.459  0.2370 -0.9493 -0.0123
  834MOL0     H10034   6.452   8.476   5.509 -1.5585 -0.8915 -1.9059
  834MOL0     H10035   6.259   8.376   5.619 -1.7689 -3.6753  2.2092
  834MOL0     H10036   6.386   8.428   5.732  1.0640 -2.4375  0.9998
  834MOL0     H10037   6.477   8.200   5.758  0.7751  0.4461 -2.0029
  834MOL0     H10038   6.317   8.217   5.824  1.6236 -0.8175  0.8827
  834MOL0     H10039   6.350   8.016   5.677  1.0302 -1.2560 -3.8273
  834MOL0     H10040   6.385   8.108   5.540 -0.5397  0.5032 -0.6651
  834MOL0     H10041   6.097   8.063   5.817 -2.0254 -0.2651 -0.4156
  834MOL0     H10042   5.786   8.122   5.743 -1.3370 -2.7291  2.2606
  834MOL0     H10043   5.876   7.998   5.820 -1.3621 -0.3962  0.6100
  834MOL0     H10044   5.812   7.894   5.576  0.2746  1.3706 -0.0080
  834MOL0     H10045   5.671   7.991   5.615 -1.7988 -0.8413  2.7177
  834MOL0     H10046   5.791   7.790   5.815  0.6549  0.4872 -0.6967
  834MOL0     H10047   5.652   7.894   5.844 -0.7412 -1.9518  0.3843
  834MOL0     H10048   5.606   7.656   5.794  0.7605  0.5443  1.2632
  834MOL0     H10049   5.658   7.695   5.622  0.0102  1.7836 -1.9020
  834MOL0     H10050   5.375   7.733   5.466  1.0978 -0.2252  1.5791
  834MOL0     H10051   5.179   7.575   5.409  0.0634  0.9320 -0.3101
  834MOL0     H10052   4.862   7.457   5.315 -4.3314  0.2107 -0.0769
  834MOL0     H10053   4.667   7.336   5.257 -2.7978 -1.9421  1.0820
  834MOL0     H10054   4.504   6.938   5.248  0.6324  1.6360 -2.5862
  834MOL0     H10055   4.619   6.908   5.375  1.9373  1.1364  1.1573
  834MOL0     H10056   4.801   6.985   5.211 -0.1509 -2.0948  2.2845
  834MOL0     H10057   4.682   7.032   5.099 -0.2955  0.4467  0.0194
  834MOL0     H10058   4.610   6.801   5.070 -0.6360  2.4697  1.0089
  834MOL0     H10059   4.708   6.747   5.213  1.2838 -0.1015  0.0054
  834MOL0     H10060   4.831   6.837   4.954 -1.1635 -1.2608 -1.4548
  834MOL0     H10061   4.919   6.838   5.107 -0.3508 -0.8425 -0.0373
  834MOL0     H10062   4.889   6.575   5.085 -2.0193 -1.3627 -1.3222
  834MOL0     H10063   4.965   6.649   4.949  0.6634 -1.2857  1.1645
  834MOL0     H10064   4.820   6.503   4.841 -2.0656 -1.5211 -0.7219
  834MOL0     H10065   4.746   6.666   4.835 -1.3522  1.0758  1.3213
  834MOL0     H10066   4.594   6.592   5.025  0.7938  0.6405 -0.1007
  834MOL0     H10067   4.561   6.512   4.874 -2.3263  1.5109  0.1461
  834MOL0     H10068   4.751   6.386   5.083 -0.1184 -1.5147 -1.0375
  834MOL0     H10069   4.656   6.307   4.953  1.4156 -1.3741 -0.0914
  834MOL0     H10070   4.757   7.015   5.520 -5.0373  0.8897  0.1336
  834MOL0     H10071   4.966   7.140   5.591 -1.2982  0.7182  0.8684
  834MOL0     H10072   5.179   7.479   5.841  1.4451  0.2703  0.2864
  834MOL0     H10073   5.375   7.642   5.873  0.2418 -1.9048  0.3088
  834MOL0     H10074   7.115   8.433   5.433  1.7175 -0.8512 -1.0292
  834MOL0     H10075   7.320   8.576   5.431 -1.3052 -0.6457  1.6845
  834MOL0     H10076   7.604   8.821   5.376  1.0928  0.6456  0.1859
  834MOL0     H10077   7.826   8.874   5.377 -0.5580  3.7552  0.7081
  834MOL0     H10078   8.036   8.924   5.334  2.4253 -1.8508 -0.5271
  834MOL0     H10079   8.010   9.087   5.261 -1.6113 -0.5321  3.6132
  834MOL0     H10080   8.210   9.059   5.114  4.0616  3.0516  1.0239
  834MOL0     H10081   8.232   9.095   5.280  1.8921  1.1146 -1.1589
  834MOL0     H10082   8.244   8.804   5.199 -0.8222 -0.0672  0.4624
  834MOL0     H10083   8.310   8.887   5.346  0.2049 -0.1196 -0.4131
  834MOL0     H10084   8.490   8.855   5.233 -0.1881 -2.2001 -2.5460
  834MOL0     H10085   8.414   8.902   5.076  0.6976  0.4720 -0.0259
  834MOL0     H10086   8.626   9.246   5.209 -0.1206 -0.1963  1.4918
  834MOL0     H10087   7.816   8.894   4.942 -0.5666 -1.3469  0.1244
  834MOL0     H10088   7.582   8.840   4.949 -1.7191 -0.2543  1.1523
  835MOL0     O10089   3.075   4.294   8.119  0.0656 -0.1725  0.5780
  835MOL0     C10090   3.071   4.257   8.002 -0.2770  0.7425  0.0870
  835MOL0     O10091   2.959   4.184   7.950  0.1281  0.2616 -0.5593
  835MOL0     C10092   2.845   4.137   8.013  0.5800  0.0223 -1.4385
  835MOL0     C10093   2.739   4.096   7.931 -1.5488 -1.2437  0.4232
  835MOL0     C10094   2.629   4.028   7.993  0.1797  0.6375 -0.5275
  835MOL0     C10095   2.608   4.018   8.135 -1.7359  0.5839 -0.1383
  835MOL0     O10096   2.500   3.964   8.203 -0.2497 -0.4585  0.0567
  835MOL0     C10097   2.393   3.909   8.123 -0.5315 -0.5185 -0.7145
  835MOL0     C10098   2.282   3.854   8.215 -0.1697 -0.0855 -0.2803
  835MOL0     C10099   2.143   3.859   8.151  0.1437  0.2491 -0.4496
  835MOL0     C10100   2.023   3.812   8.235 -0.0162  0.6278  0.4743
  835MOL0     C10101   1.904   3.869   8.157 -0.7730  0.5898  0.6068
  835MOL0     C10102   1.771   3.837   8.226 -0.0228  0.6003  0.8426
  835MOL0     C10103   1.651   3.875   8.136 -0.0118  0.2282 -0.5566
  835MOL0     C10104   1.522   3.843   8.205  0.3694  0.3242 -0.1207
  835MOL0     N10105   1.409   3.872   8.122  0.2216  0.1114  0.6312
  835MOL0     C10106   1.392   3.810   7.995 -0.3538  0.0760 -0.4013
  835MOL0     C10107   1.296   3.888   7.941 -0.1932 -0.1357 -0.2751
  835MOL0     C10108   1.228   3.871   7.810 -0.0611 -0.1279  0.4933
  835MOL0     C10109   1.140   3.742   7.806 -0.2049 -0.4478 -0.3121
  835MOL0     C10110   1.018   3.746   7.892 -0.0959  0.2345  0.0244
  835MOL0     C10111   0.920   3.857   7.868 -0.0461 -0.6641  0.5903
  835MOL0     O10112   0.860   3.863   7.728 -1.4303  0.5641  0.0123
  835MOL0     C10113   0.758   3.774   7.709  0.9338  0.2857  0.4299
  835MOL0     C10114   0.777   3.629   7.692  0.5317 -0.3618  0.4071
  835MOL0     C10115   0.659   3.544   7.678  0.0535 -0.5564 -0.9342
  835MOL0     C10116   0.533   3.595   7.700  0.0586 -0.1719  0.0159
  835MOL0     C10117   0.417   3.502   7.703  0.6549  0.5278  0.6290
  835MOL0     O10118   0.431   3.390   7.619  0.0104 -0.8627 -0.8861
  835MOL0     C10119   0.338   3.291   7.609 -0.0592 -0.0989 -0.9892
  835MOL0     C10120   0.197   3.306   7.621  0.0570  0.8613  0.1007
  835MOL0     C10121   0.116   3.199   7.602  0.7270 -0.5319  1.0047
  835MOL0     C10122   0.171   3.068   7.582  0.8670 -0.1642  1.0923
  835MOL0     O10123   0.093   2.961   7.557  0.8467  0.7346  0.1481
  835MOL0     C10124  -0.029   2.952   7.621 -0.0110  0.1923  0.1437
  835MOL0     C10125  -0.053   2.811   7.667 -0.0789 -0.0373 -0.3081
  835MOL0     C10126   0.066   2.751   7.738 -0.2425 -1.2473 -0.5101
  835MOL0     C10127   0.021   2.601   7.774 -0.4355 -1.5233  0.5327
  835MOL0     C10128   0.086   2.586   7.916  0.1602  0.4705  0.6843
  835MOL0     C10129   0.237   2.589   7.931  0.1175  0.3569 -0.6334
  835MOL0     C10130   0.276   2.545   8.068  0.4700 -0.9059  0.4134
  835MOL0     C10131   0.429   2.565   8.087 -0.1434 -0.4321  0.0920
  835MOL0    Cl10132   0.476   2.524   8.250  0.3480 -0.3901  0.1192
  835MOL0     C10133   0.313   3.050   7.572 -0.0769 -0.3174  0.3063
  835MOL0     C10134   0.387   3.169   7.577 -0.5930  1.4203  1.0742
  835MOL0     O10135   0.325   3.524   7.781  0.2802 -0.5566 -0.6227
  835MOL0     C10136   0.514   3.731   7.725 -0.1782  0.7229  0.6813
  835MOL0     C10137   0.621   3.821   7.712 -0.5596 -0.0205 -0.1492
  835MOL0     N10138   1.260   3.992   8.030 -0.4240  0.0975 -0.0986
  835MOL0     N10139   1.322   3.969   8.139  0.4921 -0.5430  0.1700
  835MOL0     C10140   2.705   4.070   8.217  0.1554 -0.7043 -0.2369
  835MOL0     C10141   2.827   4.123   8.159 -0.2363  0.2243 -0.5618
  835MOL0     C10142   3.184   4.282   7.909 -0.0489 -0.1819 -0.9207
  835MOL0     C10143   3.288   4.368   7.956 -0.7860  0.7262 -0.4886
  835MOL0     C10144   3.387   4.399   7.864  0.5118  0.3316 -1.2582
  835MOL0     C10145   3.390   4.342   7.733 -0.6744  0.3799 -0.3943
  835MOL0     O10146   3.485   4.357   7.636  0.6769 -0.3935  0.1729
  835MOL0     C10147   3.589   4.452   7.654 -0.1581 -0.2054 -0.8453
  835MOL0     C10148   3.714   4.415   7.575  0.8042  0.5128  0.2489
  835MOL0     C10149   3.777   4.268   7.592 -0.0224 -0.0655  0.5313
  835MOL0     C10150   3.927   4.283   7.617 -0.6980 -0.3111  0.0839
  835MOL0     C10151   3.976   4.298   7.750 -0.6846  0.0513 -0.6083
  835MOL0     C10152   3.995   4.311   7.870  0.6798 -0.0772  0.4635
  835MOL0     C10153   3.286   4.252   7.695  0.5085  0.2504  0.0706
  835MOL0     C10154   3.182   4.226   7.780 -1.0031  0.6402  0.2113
  835MOL0     H10155   2.751   4.105   7.823 -0.3860 -0.5878  0.5914
  835MOL0     H10156   2.534   4.005   7.945 -1.3376  2.1452  1.5946
  835MOL0     H10157   2.427   3.825   8.063  0.2180 -0.6476 -0.1118
  835MOL0     H10158   2.354   3.991   8.060 -1.7828 -0.9103 -0.4807
  835MOL0     H10159   2.290   3.907   8.310  1.9893  0.1937 -0.5645
  835MOL0     H10160   2.303   3.750   8.241 -1.5561 -0.5780 -1.0190
  835MOL0     H10161   2.147   3.796   8.061  1.8348 -1.3217  0.6612
  835MOL0     H10162   2.124   3.962   8.120  0.4443  0.6108  0.5443
  835MOL0     H10163   2.021   3.703   8.248  2.1180  0.5173  0.1690
  835MOL0     H10164   2.022   3.863   8.332 -0.0806  0.7362  0.4168
  835MOL0     H10165   1.911   3.827   8.057 -2.1246  2.0667 -0.1519
  835MOL0     H10166   1.925   3.976   8.143  5.9535 -0.6093 -2.1782
  835MOL0     H10167   1.765   3.903   8.313  1.4349  0.1221  1.3337
  835MOL0     H10168   1.756   3.734   8.260  1.6941  0.3045  0.7818
  835MOL0     H10169   1.655   3.982   8.115 -0.8360  0.9967  2.6557
  835MOL0     H10170   1.649   3.820   8.042 -1.9252 -2.8220  1.0875
  835MOL0     H10171   1.515   3.895   8.301  0.0031 -0.8456  0.5004
  835MOL0     H10172   1.522   3.739   8.241 -2.1005 -0.1962 -1.4106
  835MOL0     H10173   1.419   3.714   7.952 -1.7920 -0.5256 -0.0490
  835MOL0     H10174   1.304   3.861   7.732 -0.0408  3.1927 -0.0508
  835MOL0     H10175   1.172   3.957   7.773 -1.1174 -0.4913  1.1902
  835MOL0     H10176   1.201   3.655   7.832  2.6590  2.0881  2.1961
  835MOL0     H10177   1.101   3.755   7.704 -0.9628  0.6234  0.0941
  835MOL0     H10178   0.967   3.658   7.852  1.9453 -0.3878 -1.3530
  835MOL0     H10179   1.038   3.725   7.997 -2.1016 -2.3336 -0.0140
  835MOL0     H10180   0.964   3.957   7.870  1.6476 -1.3648  0.1180
  835MOL0     H10181   0.832   3.853   7.933  0.3436  1.7914  1.3587
  835MOL0     H10182   0.874   3.591   7.661 -0.0293  0.2452 -2.4357
  835MOL0     H10183   0.662   3.436   7.662 -2.9297 -0.7801 -0.4100
  835MOL0     H10184   0.160   3.406   7.641 -1.1308  0.5371 -0.3899
  835MOL0     H10185   0.009   3.220   7.608 -0.1765 -3.0894 -2.4952
  835MOL0     H10186  -0.117   2.980   7.562  1.2091  0.8447 -1.4635
  835MOL0     H10187  -0.022   3.019   7.707 -0.6497  1.4064 -0.7043
  835MOL0     H10188  -0.069   2.754   7.575  1.0930 -0.5414 -0.2119
  835MOL0     H10189  -0.145   2.800   7.724 -0.3498 -2.2004 -1.0630
  835MOL0     H10190   0.097   2.799   7.831  2.9196  0.2162 -2.1877
  835MOL0     H10191   0.151   2.757   7.671  1.0367 -2.7814  0.8644
  835MOL0     H10192  -0.088   2.604   7.782 -0.3336  2.3573  2.6149
  835MOL0     H10193   0.061   2.528   7.702 -1.9566  0.3870 -2.4454
  835MOL0     H10194   0.058   2.492   7.964  2.0672  0.6537  2.2570
  835MOL0     H10195   0.043   2.655   7.989  0.0147  0.2871  0.7736
  835MOL0     H10196   0.265   2.693   7.909 -2.8668  1.4359  0.1682
  835MOL0     H10197   0.285   2.515   7.866  0.5577 -1.6958  1.8791
  835MOL0     H10198   0.223   2.608   8.139 -0.6960  0.1389 -1.3189
  835MOL0     H10199   0.235   2.445   8.086  0.3277 -1.1686 -1.1771
  835MOL0     H10200   0.473   2.663   8.067  0.3943 -0.5186  0.7839
  835MOL0     H10201   0.473   2.488   8.023 -0.9589  0.9598 -2.2575
  835MOL0     H10202   0.366   2.957   7.554  0.3951  0.2577 -1.4857
  835MOL0     H10203   0.495   3.167   7.566 -0.8186  1.7365 -2.3808
  835MOL0     H10204   0.412   3.765   7.742 -0.6971 -0.3088 -0.2256
  835MOL0     H10205   0.594   3.926   7.719 -0.0155  0.0060  2.7668
  835MOL0     H10206   2.697   4.047   8.322 -0.1463 -0.9803 -0.3196
  835MOL0     H10207   2.906   4.153   8.226  1.0635 -2.7052 -0.6301
  835MOL0     H10208   3.302   4.409   8.055 -0.7808  2.3675 -1.1280
  835MOL0     H10209   3.466   4.459   7.909  2.2118 -2.5812 -0.0738
  835MOL0     H10210   3.634   4.446   7.754  1.7482  0.6774 -1.5904
  835MOL0     H10211   3.562   4.556   7.637  0.7799  0.6242  2.1392
  835MOL0     H10212   3.676   4.434   7.475  0.5163  0.2184  0.2996
  835MOL0     H10213   3.796   4.483   7.600  1.0718 -0.1405  1.2396
  835MOL0     H10214   3.770   4.211   7.499  3.2011  0.0861  0.0898
  835MOL0     H10215   3.736   4.208   7.674 -0.4857 -1.6222 -0.7926
  835MOL0     H10216   3.967   4.190   7.575 -1.2648 -0.4454 -0.1663
  835MOL0     H10217   3.966   4.370   7.563  1.4234 -1.2600 -0.0217
  835MOL0     H10218   4.018   4.322   7.974  0.2541  0.4772  0.4992
  835MOL0     H10219   3.290   4.205   7.597  1.6601 -1.8121  1.0344
  835MOL0     H10220   3.101   4.163   7.746 -1.3766  1.5821 -0.6768
  836MOL0     O10221   8.283   6.079   3.419  0.7853  0.2775 -0.1702
  836MOL0     C10222   8.334   5.974   3.381  0.3877 -0.5390  0.0113
  836MOL0     O10223   8.266   5.862   3.355  0.9250  1.3467  0.4287
  836MOL0     C10224   8.128   5.861   3.370 -0.1530 -0.0345  0.1464
  836MOL0     C10225   8.051   5.895   3.262 -0.5219  0.0959 -0.2741
  836MOL0     C10226   7.913   5.882   3.272 -0.4987  0.7228  0.0405
  836MOL0     C10227   7.845   5.857   3.392 -0.1894  0.8229 -0.1970
  836MOL0     O10228   7.710   5.856   3.391 -0.0471 -0.0400 -0.1406
  836MOL0     C10229   7.640   5.876   3.517  0.2549  0.5155  0.6811
  836MOL0     C10230   7.486   5.874   3.486 -0.6001 -0.3258  0.3227
  836MOL0     C10231   7.429   6.003   3.402  1.0793 -0.0151 -1.0595
  836MOL0     C10232   7.313   5.965   3.303  0.0644 -0.0629  0.1960
  836MOL0     C10233   7.180   5.952   3.375  0.2325 -1.0702 -0.3499
  836MOL0     C10234   7.136   6.071   3.467 -0.5401 -0.4720 -0.4066
  836MOL0     C10235   6.986   6.056   3.510 -0.6696 -0.6942 -0.0189
  836MOL0     C10236   6.892   6.101   3.396  0.4676  0.8473  0.1999
  836MOL0     N10237   6.750   6.097   3.428  0.2170  0.0770 -0.2045
  836MOL0     C10238   6.670   5.981   3.410  0.1355 -0.9186  0.5501
  836MOL0     C10239   6.540   6.026   3.431 -1.6350  0.7851 -0.8178
  836MOL0     C10240   6.415   5.944   3.405  0.9346 -0.2694  0.3111
  836MOL0     C10241   6.318   5.943   3.529  0.0395 -0.2141 -0.6667
  836MOL0     C10242   6.331   5.808   3.603 -0.0724 -1.0837 -0.2397
  836MOL0     C10243   6.219   5.800   3.701  0.6298  0.3001  0.3271
  836MOL0     O10244   6.244   5.690   3.784 -0.8257 -0.1911 -0.3322
  836MOL0     C10245   6.139   5.619   3.842  0.4659 -0.4514 -0.0622
  836MOL0     C10246   6.005   5.657   3.838 -0.0664  0.7431  0.2993
  836MOL0     C10247   5.900   5.575   3.879  0.8621  0.0456 -0.0757
  836MOL0     C10248   5.921   5.457   3.959 -0.2035  0.2337  0.5110
  836MOL0     C10249   5.802   5.385   4.013 -0.3766  0.2674 -0.0739
  836MOL0     O10250   5.679   5.444   3.998 -0.4144 -0.5911 -0.4353
  836MOL0     C10251   5.566   5.354   4.007 -0.9467  1.2796  0.4759
  836MOL0     C10252   5.565   5.225   3.943  0.2794  1.0009 -0.0337
  836MOL0     C10253   5.452   5.150   3.930 -0.1676  0.1076  0.9020
  836MOL0     C10254   5.335   5.197   3.988  0.9025 -1.1571  0.1328
  836MOL0     O10255   5.239   5.102   3.979  0.6394  0.4425  0.6722
  836MOL0     C10256   5.104   5.129   4.033 -0.6024 -0.1039 -0.5610
  836MOL0     C10257   5.083   5.046   4.149  0.4062 -0.6019  0.0752
  836MOL0     C10258   5.109   4.888   4.118  0.1626  0.3801 -0.4312
  836MOL0     C10259   5.019   4.794   4.209  0.0706 -0.8961  0.4888
  836MOL0     C10260   5.013   4.644   4.178 -0.6037  0.6996  0.9199
  836MOL0     C10261   4.949   4.605   4.042  0.7582 -0.5527  0.1042
  836MOL0     C10262   4.907   4.455   4.034  0.0025 -0.6624 -0.2913
  836MOL0     C10263   4.804   4.436   3.925  0.2141 -0.7040 -0.4224
  836MOL0    Cl10264   4.860   4.482   3.761  0.0808  0.3367  0.3155
  836MOL0     C10265   5.331   5.319   4.061 -0.0447  0.5754  0.1323
  836MOL0     C10266   5.450   5.395   4.064  0.2065 -0.5327 -0.1278
  836MOL0     O10267   5.822   5.274   4.070  0.7241 -0.4653 -0.2307
  836MOL0     C10268   6.058   5.419   3.961 -1.3572  0.3179 -0.2896
  836MOL0     C10269   6.163   5.501   3.908  0.1807  1.2799 -0.0636
  836MOL0     N10270   6.550   6.153   3.486  0.0925  0.7847  0.3589
  836MOL0     N10271   6.671   6.204   3.471  0.1932  0.8080 -0.3880
  836MOL0     C10272   7.924   5.827   3.504  0.5277 -0.1816 -0.5479
  836MOL0     C10273   8.065   5.824   3.493 -0.7403  0.0030 -0.0669
  836MOL0     C10274   8.484   5.979   3.349  0.4723  0.1038 -0.5646
  836MOL0     C10275   8.544   5.859   3.297 -0.1257  0.3315 -0.0906
  836MOL0     C10276   8.677   5.851   3.267  0.0820 -0.4312 -0.2144
  836MOL0     C10277   8.766   5.959   3.306  0.8088  0.4415 -1.0128
  836MOL0     O10278   8.900   5.964   3.287  0.0977 -0.2138 -0.4508
  836MOL0     C10279   8.948   5.865   3.198  0.1994 -0.2545 -0.1977
  836MOL0     C10280   9.093   5.895   3.181 -0.0404 -0.3458  0.4846
  836MOL0     C10281   9.179   5.899   3.306 -0.6828 -0.0022 -0.7375
  836MOL0     C10282   9.323   5.919   3.268  0.3241  0.7343 -0.1088
  836MOL0     C10283   9.378   5.797   3.212  0.3632  0.0984 -0.5495
  836MOL0     C10284   9.424   5.688   3.172  0.4556 -0.1899 -0.0960
  836MOL0     C10285   8.704   6.076   3.369  0.2027  0.6893  0.3482
  836MOL0     C10286   8.565   6.087   3.379 -0.3061 -1.3063 -0.0417
  836MOL0     H10287   8.090   5.920   3.164  1.4487 -1.7226 -0.0292
  836MOL0     H10288   7.856   5.888   3.180  0.4134  0.3066 -0.5659
  836MOL0     H10289   7.667   5.969   3.567 -1.9573  0.9386  1.1800
  836MOL0     H10290   7.674   5.796   3.584  0.2411  0.3150  0.4522
  836MOL0     H10291   7.431   5.868   3.581 -0.7728 -1.6216  0.1563
  836MOL0     H10292   7.455   5.778   3.443 -0.1738 -0.2202 -0.2232
  836MOL0     H10293   7.507   6.041   3.336  2.4726 -2.8605 -1.2046
  836MOL0     H10294   7.399   6.085   3.469  0.4134 -0.2204 -1.0967
  836MOL0     H10295   7.293   6.045   3.231 -1.3069 -0.3611  0.2363
  836MOL0     H10296   7.339   5.873   3.252  1.1355  1.7489 -2.7668
  836MOL0     H10297   7.191   5.858   3.430  1.0112 -0.1155  1.1655
  836MOL0     H10298   7.107   5.936   3.295  1.9837  2.9712 -3.1489
  836MOL0     H10299   7.144   6.171   3.423  1.7751  0.3240  1.5879
  836MOL0     H10300   7.195   6.077   3.559  0.5893 -3.9579 -0.7653
  836MOL0     H10301   6.971   5.955   3.550  3.0083 -0.9711  1.0115
  836MOL0     H10302   6.954   6.129   3.584 -3.9038  1.4276 -3.1807
  836MOL0     H10303   6.904   6.033   3.311  1.5364  1.3501 -0.0674
  836MOL0     H10304   6.912   6.204   3.366 -1.9732  1.9083  1.9468
  836MOL0     H10305   6.707   5.891   3.363 -2.0627 -0.7037 -1.8303
  836MOL0     H10306   6.449   5.844   3.376 -0.8300 -0.4534 -1.3605
  836MOL0     H10307   6.359   5.988   3.322  0.1881 -1.0612  0.3876
  836MOL0     H10308   6.214   5.951   3.496  0.3883 -0.2260 -1.8065
  836MOL0     H10309   6.344   6.026   3.595  2.1706 -0.7265 -0.8124
  836MOL0     H10310   6.303   5.732   3.529 -0.5817 -3.2839  2.0857
  836MOL0     H10311   6.434   5.809   3.640  0.1093  2.0637 -0.5648
  836MOL0     H10312   6.127   5.786   3.644 -1.0551 -0.4666  3.0404
  836MOL0     H10313   6.210   5.886   3.768 -0.7527  1.5195 -1.3284
  836MOL0     H10314   5.982   5.758   3.807  1.8634  1.3914  0.8122
  836MOL0     H10315   5.796   5.593   3.855 -0.0244 -3.2664  0.7672
  836MOL0     H10316   5.652   5.178   3.898 -2.1267 -0.2356 -3.9791
  836MOL0     H10317   5.457   5.050   3.888  1.7318  0.1256  1.0061
  836MOL0     H10318   5.033   5.099   3.955  1.6862 -3.0775 -1.6678
  836MOL0     H10319   5.095   5.234   4.063  5.0049  0.5725 -0.2647
  836MOL0     H10320   4.978   5.062   4.176  0.1089 -1.0916 -0.7730
  836MOL0     H10321   5.152   5.071   4.231 -0.5734 -2.3096  1.5085
  836MOL0     H10322   5.214   4.864   4.135  0.0960  0.6916  0.4613
  836MOL0     H10323   5.106   4.853   4.014 -0.6914 -1.6253  0.2121
  836MOL0     H10324   5.063   4.805   4.309 -0.5990  0.5509  0.6508
  836MOL0     H10325   4.920   4.840   4.210  0.0560 -0.9343  1.1210
  836MOL0     H10326   4.963   4.586   4.255 -0.0828 -1.4994 -0.3223
  836MOL0     H10327   5.119   4.616   4.180 -0.6038  0.6397  0.3463
  836MOL0     H10328   5.010   4.647   3.961  1.0316  0.5518  0.8523
  836MOL0     H10329   4.856   4.662   4.046  0.1589 -1.4063 -1.2899
  836MOL0     H10330   4.999   4.397   4.015  0.1834  0.2826 -2.7290
  836MOL0     H10331   4.858   4.422   4.125 -3.7824  1.4873 -1.3407
  836MOL0     H10332   4.712   4.494   3.939  0.5644 -0.0879 -0.6168
  836MOL0     H10333   4.776   4.330   3.919 -1.7815 -0.1979 -0.8554
  836MOL0     H10334   5.252   5.357   4.124  0.9241 -2.9983  3.9209
  836MOL0     H10335   5.454   5.486   4.124  0.1339  0.1092 -1.0676
  836MOL0     H10336   6.086   5.327   4.011  0.6259  1.3136  0.5548
  836MOL0     H10337   6.264   5.462   3.909  0.0170  0.7146  2.6577
  836MOL0     H10338   7.869   5.783   3.587 -1.3413 -1.0930 -2.1880
  836MOL0     H10339   8.123   5.792   3.580  2.1551  0.6249 -1.6271
  836MOL0     H10340   8.479   5.777   3.269  0.7726 -0.0446 -1.1890
  836MOL0     H10341   8.717   5.764   3.217  2.0477  0.2018  0.1729
  836MOL0     H10342   8.903   5.865   3.099  2.7804  2.2483 -1.5101
  836MOL0     H10343   8.942   5.766   3.245 -0.9813 -0.1609 -0.1240
  836MOL0     H10344   9.128   5.825   3.105  3.9579  1.8980  0.0059
  836MOL0     H10345   9.099   5.992   3.131 -0.4563 -0.6104 -0.0996
  836MOL0     H10346   9.168   5.802   3.354  0.9397 -1.4041 -3.0022
  836MOL0     H10347   9.144   5.982   3.367 -2.1539 -3.5408  3.7483
  836MOL0     H10348   9.324   5.996   3.191 -3.5159  1.7381  0.6589
  836MOL0     H10349   9.371   5.952   3.361  0.9831 -1.7252  0.4941
  836MOL0     H10350   9.489   5.615   3.129 -0.1785  1.2381 -3.8238
  836MOL0     H10351   8.765   6.161   3.398 -0.3101  0.3718  2.5389
  836MOL0     H10352   8.526   6.169   3.438 -0.5759 -0.4901 -1.3240
  837MOL0     O10353   4.273   5.393   1.882 -0.6224  0.3475 -0.1939
  837MOL0     C10354   4.326   5.289   1.918 -0.1965 -0.2333  0.5354
  837MOL0     O10355   4.446   5.242   1.868 -0.0921  0.3839 -0.3461
  837MOL0     C10356   4.503   5.315   1.769 -0.2851 -0.5629 -0.0922
  837MOL0     C10357   4.498   5.274   1.635  0.1995  0.5557  0.1919
  837MOL0     C10358   4.561   5.348   1.531  0.7631 -0.0601  0.9624
  837MOL0     C10359   4.626   5.463   1.555  0.0135 -0.2454 -0.5685
  837MOL0     O10360   4.674   5.528   1.447  0.1375  0.1939 -0.0442
  837MOL0     C10361   4.727   5.666   1.465 -0.1406 -0.0750  0.5758
  837MOL0     C10362   4.626   5.765   1.502  0.3313 -0.0624  0.2380
  837MOL0     C10363   4.671   5.908   1.464 -0.1998 -0.4141 -0.7231
  837MOL0     C10364   4.547   5.986   1.442 -0.5227  0.2750 -0.1055
  837MOL0     C10365   4.472   6.028   1.570 -0.0819 -0.0098 -0.2583
  837MOL0     C10366   4.363   6.117   1.532  0.0189  0.1440  0.2323
  837MOL0     C10367   4.254   6.160   1.634  0.4958 -0.3649 -0.0328
  837MOL0     C10368   4.118   6.211   1.569  0.4811 -0.0269 -0.0086
  837MOL0     N10369   4.032   6.314   1.638 -0.2784  0.8409  0.4509
  837MOL0     C10370   4.018   6.325   1.775  0.2739  0.6551 -0.0153
  837MOL0     C10371   3.910   6.404   1.795  1.0083  0.5915  0.3081
  837MOL0     C10372   3.865   6.454   1.934  0.0792 -0.3540  0.4849
  837MOL0     C10373   3.739   6.382   1.984 -0.5751 -0.1729 -1.3191
  837MOL0     C10374   3.601   6.415   1.918 -0.7584 -1.1087 -0.0222
  837MOL0     C10375   3.471   6.342   1.965 -0.4052 -0.3024  0.9139
  837MOL0     O10376   3.484   6.336   2.107 -0.7382 -0.0631  0.4768
  837MOL0     C10377   3.375   6.295   2.182  0.0406 -0.1580  0.5857
  837MOL0     C10378   3.390   6.293   2.324  0.2047 -0.6998  0.2427
  837MOL0     C10379   3.287   6.243   2.404  1.1143 -0.4433 -1.0502
  837MOL0     C10380   3.158   6.214   2.347  0.3045  0.2714 -0.3888
  837MOL0     C10381   3.049   6.174   2.432 -0.6184 -0.2074  0.4073
  837MOL0     O10382   2.946   6.111   2.366 -0.3169  0.1157  0.1672
  837MOL0     C10383   2.858   6.038   2.435 -0.2746  0.9251 -0.2991
  837MOL0     C10384   2.728   6.027   2.388 -0.9100  0.0685  0.6992
  837MOL0     C10385   2.625   5.974   2.464 -0.1944 -0.0706 -0.3969
  837MOL0     C10386   2.636   5.903   2.577 -0.0827 -0.0490  0.1563
  837MOL0     O10387   2.547   5.821   2.654  0.1802 -0.3371  0.6271
  837MOL0     C10388   2.416   5.832   2.605  0.3098  1.1024  0.2809
  837MOL0     C10389   2.333   5.748   2.701  0.0821  0.4328 -0.5501
  837MOL0     C10390   2.193   5.733   2.653  0.8127  0.2932  0.1026
  837MOL0     C10391   2.171   5.628   2.542  0.7366 -0.4229 -0.1930
  837MOL0     C10392   2.045   5.545   2.566 -0.5356  0.2127 -0.4763
  837MOL0     C10393   1.923   5.632   2.585  0.2549  0.1403  0.4117
  837MOL0     C10394   1.791   5.567   2.565  0.7333  1.0463 -0.4435
  837MOL0     C10395   1.678   5.662   2.620 -0.6020 -0.2181  0.9508
  837MOL0    Cl10396   1.544   5.551   2.655 -0.8977 -0.0557  0.5439
  837MOL0     C10397   2.764   5.896   2.624 -0.6825  0.4500  1.5487
  837MOL0     C10398   2.873   5.961   2.559 -0.0301  0.6246  0.8318
  837MOL0     O10399   3.061   6.191   2.554 -0.1535 -0.5402 -0.8008
  837MOL0     C10400   3.147   6.211   2.208 -0.4218 -0.2329  0.5955
  837MOL0     C10401   3.258   6.248   2.134  1.1554  1.1872  0.1799
  837MOL0     N10402   3.859   6.445   1.675  1.5903  1.3360  0.1912
  837MOL0     N10403   3.929   6.394   1.586 -0.5182  0.0781  0.5263
  837MOL0     C10404   4.639   5.503   1.689 -0.6527 -0.7365 -0.1624
  837MOL0     C10405   4.580   5.433   1.796  0.3096 -0.0497  0.6641
  837MOL0     C10406   4.255   5.209   2.022  0.1261 -0.4171  0.3911
  837MOL0     C10407   4.152   5.268   2.095 -0.8519 -0.3532 -0.9750
  837MOL0     C10408   4.084   5.208   2.203  0.5930  0.1295  0.4209
  837MOL0     C10409   4.115   5.073   2.235  0.0555 -0.0799 -0.3820
  837MOL0     O10410   4.031   5.011   2.320 -0.0876 -0.2514  0.0914
  837MOL0     C10411   4.056   4.871   2.338 -0.1307  1.2159  0.6418
  837MOL0     C10412   3.974   4.797   2.442 -0.5721 -0.9923 -0.7662
  837MOL0     C10413   3.826   4.802   2.411 -0.5499  0.0701 -0.8986
  837MOL0     C10414   3.768   4.941   2.430 -0.1440  0.0644  0.0794
  837MOL0     C10415   3.625   4.939   2.453  0.7481  0.6411  0.3672
  837MOL0     C10416   3.503   4.931   2.456 -0.3225  0.1872  0.0871
  837MOL0     C10417   4.210   5.008   2.152 -0.5227 -0.5184 -0.2853
  837MOL0     C10418   4.283   5.076   2.054  0.2786 -1.4238  0.7843
  837MOL0     H10419   4.448   5.181   1.608  2.4411  0.3998 -4.3442
  837MOL0     H10420   4.570   5.315   1.428 -1.3515  2.0342  0.0301
  837MOL0     H10421   4.763   5.681   1.363 -0.1412 -2.3114  0.1903
  837MOL0     H10422   4.821   5.668   1.522  0.2225  1.5075 -0.0193
  837MOL0     H10423   4.606   5.770   1.609  0.5018 -4.6791  0.6555
  837MOL0     H10424   4.534   5.738   1.450  0.6730  0.1323 -0.4897
  837MOL0     H10425   4.726   5.902   1.370 -0.8905 -0.4847 -1.1203
  837MOL0     H10426   4.731   5.949   1.547 -0.4616 -0.1649 -0.6574
  837MOL0     H10427   4.577   6.077   1.389  1.3848 -0.7400 -0.8594
  837MOL0     H10428   4.475   5.928   1.384 -2.1906  1.0134  1.1459
  837MOL0     H10429   4.543   6.077   1.638 -0.6585  1.7449 -0.8699
  837MOL0     H10430   4.420   5.943   1.616  0.1808  0.3726  0.7768
  837MOL0     H10431   4.313   6.067   1.448  0.6317  0.4071 -0.2957
  837MOL0     H10432   4.409   6.211   1.499  0.8537 -0.4044 -0.2317
  837MOL0     H10433   4.237   6.080   1.707 -0.4087 -2.6786 -2.5770
  837MOL0     H10434   4.296   6.244   1.690  1.1134 -1.5419  1.3462
  837MOL0     H10435   4.045   6.133   1.546 -0.1058  0.2231  0.9418
  837MOL0     H10436   4.142   6.245   1.468 -0.2653 -1.5753 -0.7381
  837MOL0     H10437   4.089   6.290   1.850 -2.4186 -2.8792  1.1752
  837MOL0     H10438   3.842   6.561   1.936 -0.6800 -0.5152  0.7975
  837MOL0     H10439   3.942   6.431   2.007 -0.9933 -3.5561  0.7954
  837MOL0     H10440   3.735   6.396   2.092  0.0287 -2.6410 -0.9061
  837MOL0     H10441   3.747   6.273   1.968 -5.1085 -1.1829  1.5280
  837MOL0     H10442   3.590   6.522   1.936 -2.2970 -1.2545  0.1216
  837MOL0     H10443   3.605   6.406   1.809  1.2968 -2.4547  0.1137
  837MOL0     H10444   3.449   6.246   1.917 -1.3605 -0.4549  1.6497
  837MOL0     H10445   3.386   6.406   1.941  1.1780  1.6400  0.1819
  837MOL0     H10446   3.485   6.330   2.363  0.0908  0.5758 -0.6241
  837MOL0     H10447   3.300   6.259   2.511  0.5741 -0.3785 -0.9923
  837MOL0     H10448   2.697   6.088   2.304  0.7087 -1.0728 -0.7909
  837MOL0     H10449   2.528   5.978   2.415  0.5052  1.1598 -1.7321
  837MOL0     H10450   2.414   5.793   2.503 -0.1424  3.9546 -0.8737
  837MOL0     H10451   2.394   5.938   2.619 -1.6959  0.7168  0.3220
  837MOL0     H10452   2.344   5.811   2.790  1.9805  1.1976 -1.2636
  837MOL0     H10453   2.368   5.646   2.722 -2.2830 -0.5742 -1.2301
  837MOL0     H10454   2.157   5.827   2.608  3.9774  0.0929 -3.3900
  837MOL0     H10455   2.133   5.705   2.740  0.6558 -1.4721 -0.5285
  837MOL0     H10456   2.172   5.687   2.450 -0.2239 -0.0908 -0.0016
  837MOL0     H10457   2.254   5.556   2.547  1.0439  0.0101  1.1031
  837MOL0     H10458   2.057   5.484   2.656  3.4569 -0.7238 -1.4471
  837MOL0     H10459   2.036   5.472   2.484  0.8512  1.2442 -1.5955
  837MOL0     H10460   1.927   5.720   2.521  2.1856  1.0093  1.6316
  837MOL0     H10461   1.934   5.670   2.687  1.9298 -0.6927  0.5673
  837MOL0     H10462   1.775   5.545   2.460  0.6006 -2.5501  0.1961
  837MOL0     H10463   1.785   5.467   2.609  0.2556  1.2355 -0.0508
  837MOL0     H10464   1.656   5.735   2.542 -4.0018  0.0112  1.9760
  837MOL0     H10465   1.701   5.715   2.713 -2.6246  0.3915  1.1565
  837MOL0     H10466   2.783   5.840   2.715 -2.3319 -0.5775  1.3091
  837MOL0     H10467   2.971   5.966   2.606  1.3848 -1.5154 -1.6308
  837MOL0     H10468   3.056   6.172   2.163 -0.3549 -1.8194  1.7577
  837MOL0     H10469   3.248   6.232   2.027 -0.9744 -2.1141  0.7219
  837MOL0     H10470   4.704   5.585   1.719  1.4493 -2.4781  0.2433
  837MOL0     H10471   4.580   5.479   1.895 -1.6306  1.0192  0.2238
  837MOL0     H10472   4.149   5.375   2.083  1.2113 -0.3380 -1.8280
  837MOL0     H10473   4.003   5.255   2.258  0.0835  0.4798 -0.5981
  837MOL0     H10474   4.161   4.849   2.362  0.3282  4.3261  1.9830
  837MOL0     H10475   4.025   4.829   2.242 -0.2680 -1.0413  1.6287
  837MOL0     H10476   4.006   4.694   2.459  2.5281  0.1122  0.9172
  837MOL0     H10477   3.996   4.852   2.534  3.6386 -0.8829 -1.6131
  837MOL0     H10478   3.767   4.744   2.483 -1.6085  2.6778  0.4667
  837MOL0     H10479   3.800   4.764   2.311 -0.1804 -1.2668 -0.4952
  837MOL0     H10480   3.820   4.999   2.507  2.5226 -2.0840  0.0203
  837MOL0     H10481   3.782   5.010   2.346 -2.6915  1.1419  0.4527
  837MOL0     H10482   3.397   4.923   2.466 -0.1307 -1.0518  1.4086
  837MOL0     H10483   4.228   4.904   2.178 -0.8096 -0.7482 -0.9950
  837MOL0     H10484   4.376   5.040   2.011 -0.4096 -0.2914 -1.8759
  838MOL0     O10485  10.092   1.343   4.865  0.5453  0.4528 -0.8362
  838MOL0     C10486  10.126   1.389   4.754 -0.3170 -1.5904 -0.0292
  838MOL0     O10487  10.048   1.391   4.641 -0.2209  0.3038  0.6970
  838MOL0     C10488   9.927   1.315   4.633  1.0413  0.5744 -1.1005
  838MOL0     C10489   9.912   1.176   4.666 -0.6644 -0.2352  0.5462
  838MOL0     C10490   9.790   1.106   4.648  1.1641  0.6607  0.4194
  838MOL0     C10491   9.679   1.169   4.599  0.5096  1.1213  0.3460
  838MOL0     O10492   9.564   1.090   4.574 -0.4918  0.1445 -0.2889
  838MOL0     C10493   9.439   1.144   4.567 -0.0829  0.5415 -1.0749
  838MOL0     C10494   9.332   1.044   4.620 -0.4523  0.2284 -0.2200
  838MOL0     C10495   9.195   1.100   4.614  0.0480 -0.0716 -0.3258
  838MOL0     C10496   9.106   0.997   4.678 -0.3310 -1.4045  0.7579
  838MOL0     C10497   8.976   1.048   4.723  0.0628  1.7540  0.2677
  838MOL0     C10498   8.894   0.949   4.812 -0.1011 -1.0263 -0.5686
  838MOL0     C10499   8.757   1.020   4.857 -0.4373 -0.0313 -0.2253
  838MOL0     C10500   8.661   0.903   4.878 -0.2929 -0.1747  0.4243
  838MOL0     N10501   8.560   0.963   4.964 -0.0990 -0.9492 -0.5354
  838MOL0     C10502   8.468   1.052   4.917 -0.1735  0.3904  0.2242
  838MOL0     C10503   8.384   1.075   5.032 -0.2011  0.3304  0.7870
  838MOL0     C10504   8.261   1.156   5.040 -0.1185  0.6772  0.7276
  838MOL0     C10505   8.175   1.139   4.916 -0.2324  0.4617  0.4086
  838MOL0     C10506   8.047   1.218   4.944  0.8448 -0.1451 -0.5718
  838MOL0     C10507   7.949   1.242   4.826 -0.8208 -0.5624 -0.0484
  838MOL0     O10508   7.832   1.298   4.881 -0.4787  0.6648  1.0317
  838MOL0     C10509   7.727   1.218   4.920 -0.3985  0.1800 -0.4373
  838MOL0     C10510   7.720   1.078   4.929  0.0693 -0.5743 -0.3694
  838MOL0     C10511   7.614   1.007   4.992 -0.0790  0.3348  0.2914
  838MOL0     C10512   7.494   1.073   5.038 -0.5938 -0.5209  0.8838
  838MOL0     C10513   7.381   1.000   5.097 -0.2227 -0.3372 -1.0075
  838MOL0     O10514   7.390   0.872   5.145 -0.3156  0.0354 -0.6225
  838MOL0     C10515   7.274   0.816   5.184 -0.1616  0.8620 -0.0336
  838MOL0     C10516   7.165   0.796   5.091 -0.3578  0.0719 -0.1992
  838MOL0     C10517   7.053   0.709   5.122 -0.1402 -0.5836 -0.6610
  838MOL0     C10518   7.037   0.657   5.253 -0.6127 -0.3861 -1.5670
  838MOL0     O10519   6.923   0.580   5.296 -0.5175  0.4837  0.1105
  838MOL0     C10520   6.873   0.580   5.427 -1.1295 -0.0172  0.4541
  838MOL0     C10521   6.728   0.536   5.420 -0.1648 -0.4089 -1.0596
  838MOL0     C10522   6.632   0.635   5.352  0.3148 -0.5433 -0.7162
  838MOL0     C10523   6.488   0.601   5.366  0.0892  1.0872  0.6425
  838MOL0     C10524   6.399   0.677   5.265  0.7086 -0.1379  0.9928
  838MOL0     C10525   6.261   0.621   5.254  0.5183 -0.0066  0.4235
  838MOL0     C10526   6.172   0.683   5.152  0.3982  0.2469 -0.3404
  838MOL0     C10527   6.028   0.640   5.165  0.5088 -0.5518 -0.8047
  838MOL0    Cl10528   5.971   0.678   5.324  0.0103  0.1414  0.0118
  838MOL0     C10529   7.145   0.681   5.346 -1.7063  0.5291  0.5839
  838MOL0     C10530   7.261   0.749   5.305  0.1052 -0.1475 -0.6926
  838MOL0     O10531   7.280   1.068   5.110  0.5961 -0.1383  0.4705
  838MOL0     C10532   7.495   1.217   5.013  0.6747 -0.3111 -0.7102
  838MOL0     C10533   7.606   1.284   4.957  0.0195  0.3138 -0.7857
  838MOL0     N10534   8.431   0.996   5.131 -0.5419 -0.8104 -0.1249
  838MOL0     N10535   8.543   0.946   5.093  0.5779 -0.9314 -0.1562
  838MOL0     C10536   9.695   1.310   4.564 -0.5118 -0.1598  0.1225
  838MOL0     C10537   9.811   1.375   4.587 -0.7907 -0.4296  0.1518
  838MOL0     C10538  10.255   1.456   4.745 -0.4231  0.0956  0.1096
  838MOL0     C10539  10.309   1.525   4.636 -0.1782 -0.9664 -0.0953
  838MOL0     C10540  10.434   1.593   4.640  0.1453  0.1218 -0.0754
  838MOL0     C10541  10.514   1.588   4.757  0.0669 -0.0346  0.5204
  838MOL0     O10542  10.639   1.639   4.780  0.0732  0.2588  0.1005
  838MOL0     C10543  10.724   1.647   4.658 -0.0006 -1.0598  0.0257
  838MOL0     C10544  10.802   1.784   4.662  0.2511 -0.3472  0.8807
  838MOL0     C10545  10.701   1.901   4.648  0.2025  0.3783  0.0925
  838MOL0     C10546  10.636   1.942   4.775 -0.0236  1.1769  0.3801
  838MOL0     C10547  10.552   2.052   4.734  0.2850  0.7717 -0.1448
  838MOL0     C10548  10.466   2.137   4.715 -0.1989 -0.9159  0.7884
  838MOL0     C10549  10.456   1.525   4.864 -0.3932  0.8107  0.0939
  838MOL0     C10550  10.330   1.463   4.862 -0.6878  0.5296 -0.8690
  838MOL0     H10551   9.997   1.120   4.703  0.4071  1.9867  1.6492
  838MOL0     H10552   9.780   0.999   4.661  0.3891  0.1540 -3.1715
  838MOL0     H10553   9.412   1.169   4.464  0.3413 -2.4512 -2.0276
  838MOL0     H10554   9.435   1.235   4.627 -0.2337  1.2209 -2.0910
  838MOL0     H10555   9.353   1.019   4.724 -2.0594  0.5502  0.2088
  838MOL0     H10556   9.355   0.954   4.561  2.3622  0.0286  1.0112
  838MOL0     H10557   9.161   1.104   4.510 -0.6292 -0.3881 -0.1257
  838MOL0     H10558   9.195   1.199   4.661 -0.3697 -0.7037  1.0311
  838MOL0     H10559   9.096   0.907   4.617 -2.6504  0.7824 -2.3923
  838MOL0     H10560   9.151   0.953   4.767  1.6158 -2.0556 -0.4908
  838MOL0     H10561   8.915   1.073   4.636 -1.4857 -4.7430 -1.0664
  838MOL0     H10562   8.999   1.146   4.765  1.0367  2.7031 -2.2836
  838MOL0     H10563   8.938   0.914   4.906  0.4576 -0.0510 -0.4546
  838MOL0     H10564   8.878   0.862   4.747 -1.8047 -0.1114 -1.4318
  838MOL0     H10565   8.777   1.077   4.948  1.8629 -2.6010  1.0166
  838MOL0     H10566   8.717   1.086   4.779 -0.1133  1.5383  0.8932
  838MOL0     H10567   8.710   0.817   4.925 -0.0689 -1.1739 -1.5162
  838MOL0     H10568   8.622   0.853   4.788  0.9743 -1.2127  0.4124
  838MOL0     H10569   8.452   1.092   4.817  0.9560 -2.4018 -1.1852
  838MOL0     H10570   8.300   1.258   5.040  1.8010 -0.0094  2.0840
  838MOL0     H10571   8.207   1.137   5.133 -0.9563  1.2111  0.3665
  838MOL0     H10572   8.143   1.035   4.901 -0.6282  0.4264  1.4083
  838MOL0     H10573   8.225   1.168   4.823 -0.2927 -1.3469 -0.2412
  838MOL0     H10574   7.990   1.170   5.024  3.2261  1.1911  2.1341
  838MOL0     H10575   8.074   1.317   4.982  0.9738 -1.4865  3.2608
  838MOL0     H10576   7.933   1.145   4.778 -0.7251 -1.1495  1.0795
  838MOL0     H10577   7.998   1.311   4.756  2.3890 -1.5408  1.0719
  838MOL0     H10578   7.803   1.012   4.904 -0.5314 -0.6300 -2.3857
  838MOL0     H10579   7.632   0.900   4.987  1.3885  0.6214 -1.9612
  838MOL0     H10580   7.172   0.840   4.992  2.2372 -1.2920 -0.7362
  838MOL0     H10581   6.968   0.694   5.057 -0.3526  2.1025 -1.1373
  838MOL0     H10582   6.885   0.670   5.488 -1.3302 -0.2554  0.8444
  838MOL0     H10583   6.933   0.505   5.479 -0.5492  0.6907  0.8143
  838MOL0     H10584   6.699   0.521   5.524  2.1633  0.5653 -0.1954
  838MOL0     H10585   6.722   0.438   5.371 -0.5201 -0.4350 -0.9673
  838MOL0     H10586   6.662   0.638   5.247  1.1602 -2.1409 -0.5626
  838MOL0     H10587   6.650   0.731   5.400  2.0204 -1.0634 -0.2064
  838MOL0     H10588   6.478   0.493   5.348  0.5979  1.2202 -0.4728
  838MOL0     H10589   6.460   0.621   5.470 -0.1731  0.9033  0.6098
  838MOL0     H10590   6.434   0.670   5.162  0.7425 -2.3611  1.1021
  838MOL0     H10591   6.404   0.782   5.297  2.4036 -0.7311  2.8621
  838MOL0     H10592   6.222   0.606   5.356  2.5816  2.0411  1.6205
  838MOL0     H10593   6.253   0.519   5.218 -0.6684  0.9598 -2.2884
  838MOL0     H10594   6.179   0.793   5.155  1.6995  0.2024 -1.0390
  838MOL0     H10595   6.211   0.652   5.055  1.4249  0.5942 -0.0495
  838MOL0     H10596   6.006   0.534   5.152 -3.1800  0.2319 -2.2473
  838MOL0     H10597   5.971   0.675   5.078  0.2175 -0.0692 -0.4276
  838MOL0     H10598   7.142   0.638   5.446  3.9442 -0.5219  0.6851
  838MOL0     H10599   7.336   0.779   5.378 -1.8609 -1.4932  2.0869
  838MOL0     H10600   7.414   1.289   5.026  1.5927  1.0966 -2.2964
  838MOL0     H10601   7.600   1.392   4.957 -2.3027  0.2640  0.8871
  838MOL0     H10602   9.612   1.368   4.526  1.6656  0.7795 -3.7300
  838MOL0     H10603   9.812   1.483   4.577 -1.6991 -0.3355  0.9177
  838MOL0     H10604  10.252   1.536   4.545 -0.0208 -2.9194 -0.4813
  838MOL0     H10605  10.469   1.656   4.560  3.6193 -1.1349  0.2605
  838MOL0     H10606  10.668   1.640   4.564 -2.6431  0.0461  1.4056
  838MOL0     H10607  10.798   1.569   4.677  1.7215  0.9107  2.0872
  838MOL0     H10608  10.875   1.789   4.744  1.6737 -4.9209  0.1899
  838MOL0     H10609  10.867   1.772   4.574  0.1374  0.9637  0.6023
  838MOL0     H10610  10.631   1.870   4.571 -0.7727  0.3326  0.9718
  838MOL0     H10611  10.757   1.988   4.612  0.4481  0.5701  0.9154
  838MOL0     H10612  10.568   1.871   4.823 -0.0752  0.5045 -0.6594
  838MOL0     H10613  10.699   1.973   4.859  0.6231  2.8141 -0.6588
  838MOL0     H10614  10.379   2.199   4.717 -0.3235 -0.9296 -1.6611
  838MOL0     H10615  10.511   1.523   4.958  0.8246  0.5076 -0.6084
  838MOL0     H10616  10.301   1.428   4.961  0.8139  0.2027 -0.5173
  839MOL0     O10617   7.239   8.096   2.820 -0.2248  0.2822  0.1519
  839MOL0     C10618   7.347   8.036   2.836 -0.5581  0.5826  0.3586
  839MOL0     O10619   7.364   7.926   2.916 -0.0904  0.2136  0.4942
  839MOL0     C10620   7.266   7.867   2.989  0.1176  0.0696 -0.3912
  839MOL0     C10621   7.298   7.803   3.108  0.3843  0.2772  0.5968
  839MOL0     C10622   7.207   7.744   3.198 -0.0042 -0.1952 -0.0420
  839MOL0     C10623   7.064   7.762   3.170 -0.1150 -0.3279 -0.1848
  839MOL0     O10624   6.980   7.702   3.260 -0.4753 -0.6211 -0.6021
  839MOL0     C10625   6.842   7.686   3.236 -0.3569  0.2633 -0.4189
  839MOL0     C10626   6.773   7.605   3.351  0.3703 -0.1451  0.2715
  839MOL0     C10627   6.630   7.572   3.298  0.1617 -0.7722 -0.1080
  839MOL0     C10628   6.544   7.485   3.386 -0.3386 -0.0909  0.8796
  839MOL0     C10629   6.406   7.477   3.323  0.4294 -0.1314  0.3279
  839MOL0     C10630   6.282   7.432   3.412 -0.1704 -0.4152  1.0978
  839MOL0     C10631   6.172   7.370   3.341  0.0495  0.0628  0.5826
  839MOL0     C10632   6.096   7.271   3.437  1.0762  0.5471  0.6288
  839MOL0     N10633   5.953   7.284   3.413  0.1439 -0.0713  0.2838
  839MOL0     C10634   5.863   7.303   3.517 -0.5274  0.1081  0.4553
  839MOL0     C10635   5.737   7.259   3.487  0.7411  0.1822 -0.3887
  839MOL0     C10636   5.615   7.269   3.573  0.1077  0.4389  0.9170
  839MOL0     C10637   5.522   7.149   3.524  0.5086  1.0816 -0.1390
  839MOL0     C10638   5.385   7.146   3.600 -0.7705 -0.3885  0.7970
  839MOL0     C10639   5.321   7.007   3.606  0.1866 -0.1267  0.0206
  839MOL0     O10640   5.189   7.033   3.648 -0.0004 -0.2483 -0.3442
  839MOL0     C10641   5.104   6.930   3.702 -0.3030 -0.0381  0.5326
  839MOL0     C10642   5.150   6.798   3.701 -0.3108 -0.0624 -0.0816
  839MOL0     C10643   5.077   6.700   3.776 -0.2788  0.1286 -0.2249
  839MOL0     C10644   4.949   6.723   3.827  0.0589  1.6817  0.3741
  839MOL0     C10645   4.864   6.625   3.893  0.3435  0.5141 -0.1986
  839MOL0     O10646   4.742   6.667   3.947 -0.2505 -0.1086  0.1194
  839MOL0     C10647   4.660   6.596   4.035 -0.1099 -0.7251 -1.0908
  839MOL0     C10648   4.603   6.481   4.002 -0.1509  0.5616  0.0256
  839MOL0     C10649   4.505   6.423   4.087 -0.4196  0.1590 -0.6626
  839MOL0     C10650   4.461   6.490   4.199  0.1236  0.4374 -0.2990
  839MOL0     O10651   4.358   6.437   4.275 -0.1894 -0.6835  0.2044
  839MOL0     C10652   4.280   6.524   4.367  0.5323 -1.0437 -0.2396
  839MOL0     C10653   4.167   6.457   4.435 -0.5861 -0.2038  0.6315
  839MOL0     C10654   4.073   6.392   4.333 -0.9152 -0.0355  0.0296
  839MOL0     C10655   3.965   6.320   4.427 -0.2567  0.8823  0.4627
  839MOL0     C10656   3.861   6.253   4.334 -1.2051 -0.3434  0.2820
  839MOL0     C10657   3.744   6.193   4.401  0.4443  0.3581 -0.9097
  839MOL0     C10658   3.772   6.070   4.493  0.1472  0.1270  0.0180
  839MOL0     C10659   3.639   6.026   4.557  0.4168 -0.2728 -0.2094
  839MOL0    Cl10660   3.585   6.146   4.685  0.6807  0.2082 -0.1664
  839MOL0     C10661   4.523   6.614   4.225  0.3769  0.5990  0.3462
  839MOL0     C10662   4.633   6.655   4.160  0.1199 -0.0308  0.3892
  839MOL0     O10663   4.889   6.502   3.871 -0.4648 -0.2077 -0.5210
  839MOL0     C10664   4.899   6.858   3.808 -0.3533  0.4235  0.1094
  839MOL0     C10665   4.976   6.955   3.757 -1.9844  0.3291  0.3021
  839MOL0     N10666   5.743   7.198   3.359 -0.4318 -0.7133  0.1840
  839MOL0     N10667   5.874   7.213   3.319 -0.4071 -0.0123 -0.3180
  839MOL0     C10668   7.030   7.830   3.052 -0.1953  0.3935  0.0337
  839MOL0     C10669   7.128   7.878   2.967 -0.0720  0.0740  0.8833
  839MOL0     C10670   7.473   8.112   2.802  0.3509 -0.4808  0.7630
  839MOL0     C10671   7.474   8.232   2.731  0.4298  0.0094  0.1872
  839MOL0     C10672   7.592   8.273   2.668 -0.1113  0.3881 -0.4313
  839MOL0     C10673   7.713   8.211   2.686 -0.0276 -0.5782 -0.1395
  839MOL0     O10674   7.835   8.249   2.630  0.2069  0.1889 -0.7043
  839MOL0     C10675   7.838   8.369   2.554  0.2662  0.1205  0.1397
  839MOL0     C10676   7.971   8.383   2.494 -0.5882  0.3621  0.2004
  839MOL0     C10677   8.077   8.416   2.604 -0.6973 -0.4521  0.5561
  839MOL0     C10678   8.215   8.379   2.548 -0.0956 -0.3676 -0.3830
  839MOL0     C10679   8.320   8.450   2.615 -0.4849  0.4161  0.2411
  839MOL0     C10680   8.400   8.499   2.682 -0.1126 -0.5863 -0.1899
  839MOL0     C10681   7.716   8.102   2.763  0.1274 -0.0550  0.0157
  839MOL0     C10682   7.596   8.049   2.816 -0.0056 -0.4907 -0.2147
  839MOL0     H10683   7.402   7.774   3.124  0.1356 -0.0586  1.6926
  839MOL0     H10684   7.239   7.686   3.284 -1.9088 -1.2475  0.0303
  839MOL0     H10685   6.824   7.629   3.145 -2.3243 -0.1486  0.1694
  839MOL0     H10686   6.793   7.784   3.227  0.5732  0.8635  0.7331
  839MOL0     H10687   6.750   7.671   3.435 -1.0073 -0.5901  0.2758
  839MOL0     H10688   6.829   7.516   3.380  0.4526 -1.3730 -3.1901
  839MOL0     H10689   6.649   7.525   3.201  1.3467  1.2221 -0.9238
  839MOL0     H10690   6.590   7.673   3.283 -1.0051 -1.0623  0.8822
  839MOL0     H10691   6.586   7.384   3.387  0.0116 -0.1266 -2.8825
  839MOL0     H10692   6.547   7.513   3.492  2.5309  2.2591  0.3234
  839MOL0     H10693   6.406   7.418   3.231 -1.0321 -0.8569  0.7606
  839MOL0     H10694   6.372   7.574   3.286 -0.5137 -0.8317 -0.7345
  839MOL0     H10695   6.244   7.515   3.472 -2.3659 -0.1511 -0.5398
  839MOL0     H10696   6.335   7.357   3.472 -0.1648  0.1939  1.8694
  839MOL0     H10697   6.107   7.455   3.317  1.1038  1.0026  0.9486
  839MOL0     H10698   6.188   7.322   3.245 -0.7168  2.1335 -0.6459
  839MOL0     H10699   6.113   7.286   3.544 -0.1429  3.0540  0.5417
  839MOL0     H10700   6.112   7.167   3.408 -0.7031  0.3811  0.0969
  839MOL0     H10701   5.895   7.349   3.611  0.7372 -1.5034  0.8698
  839MOL0     H10702   5.563   7.364   3.559 -0.9345 -0.2534 -0.1108
  839MOL0     H10703   5.648   7.253   3.676  1.4234 -0.2503  0.4176
  839MOL0     H10704   5.571   7.051   3.525 -0.9666  0.3189  0.3486
  839MOL0     H10705   5.498   7.158   3.418 -0.0596 -2.2823 -0.4097
  839MOL0     H10706   5.403   7.185   3.701  1.4378 -5.8631  2.9086
  839MOL0     H10707   5.307   7.205   3.551 -0.1135 -0.6522 -0.6275
  839MOL0     H10708   5.378   6.944   3.675  1.2549  2.8710  2.0407
  839MOL0     H10709   5.314   6.964   3.505  3.1637  2.4330 -1.4238
  839MOL0     H10710   5.246   6.769   3.660  0.5875  2.5173 -0.0195
  839MOL0     H10711   5.124   6.603   3.782 -0.1434  0.2590  1.1267
  839MOL0     H10712   4.632   6.424   3.914 -2.1130  2.6120 -2.0826
  839MOL0     H10713   4.473   6.324   4.056 -1.1711  0.2548 -0.1984
  839MOL0     H10714   4.248   6.605   4.300 -2.3974 -1.9690 -0.1132
  839MOL0     H10715   4.349   6.548   4.448 -1.5752 -0.9130  1.6257
  839MOL0     H10716   4.107   6.523   4.497  1.2858  2.7721 -0.5013
  839MOL0     H10717   4.215   6.380   4.497  0.0415 -0.7310 -0.4537
  839MOL0     H10718   4.125   6.329   4.260  0.5397  1.2270 -0.0825
  839MOL0     H10719   4.017   6.467   4.275 -0.0113 -0.0435 -0.8867
  839MOL0     H10720   4.016   6.246   4.489 -0.0999 -0.1729 -0.8708
  839MOL0     H10721   3.915   6.387   4.498  3.4216  1.8755  2.3955
  839MOL0     H10722   3.908   6.172   4.278  0.6477  0.9257 -0.0951
  839MOL0     H10723   3.824   6.326   4.261  1.0383 -0.0887 -0.6721
  839MOL0     H10724   3.678   6.152   4.323 -0.4858  0.7359 -0.3421
  839MOL0     H10725   3.688   6.269   4.456 -0.4270  0.3867 -1.7929
  839MOL0     H10726   3.828   5.988   4.447  1.1477  1.1913 -0.7196
  839MOL0     H10727   3.831   6.105   4.577 -1.1291  1.0707  0.5544
  839MOL0     H10728   3.650   5.925   4.596  2.4522 -0.3509 -0.8514
  839MOL0     H10729   3.561   6.029   4.480  0.4702  2.6020 -0.2747
  839MOL0     H10730   4.483   6.673   4.307 -2.5404 -0.6832 -0.0170
  839MOL0     H10731   4.685   6.750   4.174 -2.0567  1.3703 -0.4878
  839MOL0     H10732   4.797   6.872   3.844  0.0038  0.2022  1.2293
  839MOL0     H10733   4.949   7.057   3.733  1.4448  0.9932 -1.4559
  839MOL0     H10734   6.924   7.820   3.028 -0.5543 -3.6202  2.2704
  839MOL0     H10735   7.088   7.909   2.871 -1.2254  1.6921  1.8435
  839MOL0     H10736   7.377   8.276   2.710 -0.3172 -2.1151 -1.1234
  839MOL0     H10737   7.583   8.359   2.602 -1.3795 -0.2605 -1.1459
  839MOL0     H10738   7.808   8.454   2.617  0.3129  2.1589 -2.4331
  839MOL0     H10739   7.762   8.364   2.476 -0.9119  1.5913  1.1277
  839MOL0     H10740   8.001   8.294   2.439 -1.7364 -0.8325  1.4215
  839MOL0     H10741   7.973   8.465   2.422 -0.1934  1.3868  1.3348
  839MOL0     H10742   8.072   8.349   2.691 -0.5870  1.4023  2.0647
  839MOL0     H10743   8.080   8.517   2.645 -1.8276 -0.4504  0.6565
  839MOL0     H10744   8.231   8.272   2.563  1.4666 -0.1349 -0.1560
  839MOL0     H10745   8.227   8.407   2.442 -2.6863  3.9177  0.2239
  839MOL0     H10746   8.483   8.534   2.741  0.3962 -2.5844  0.3609
  839MOL0     H10747   7.807   8.050   2.793 -0.2629  0.7691  2.9441
  839MOL0     H10748   7.594   7.963   2.881  0.3377  0.3319  0.9123
  840MOL0     O10749   1.257   8.480   3.998 -0.7187 -0.2330  0.4300
  840MOL0     C10750   1.290   8.375   4.057  0.1320  0.0516  0.7077
  840MOL0     O10751   1.205   8.306   4.137 -0.0180 -0.1114  0.2375
  840MOL0     C10752   1.075   8.355   4.156 -0.7414 -0.5754 -0.4087
  840MOL0     C10753   1.022   8.354   4.288 -0.7311 -0.5313 -0.4652
  840MOL0     C10754   0.895   8.405   4.312  0.6359 -0.3252  0.2700
  840MOL0     C10755   0.807   8.446   4.210 -0.1331 -0.7205  0.0724
  840MOL0     O10756   0.692   8.509   4.244 -1.0559  0.2357  0.3869
  840MOL0     C10757   0.580   8.512   4.148 -0.4794 -0.0733 -0.6858
  840MOL0     C10758   0.489   8.406   4.191  0.1512 -0.4967  0.6825
  840MOL0     C10759   0.361   8.414   4.111  0.2373 -1.1832 -0.1095
  840MOL0     C10760   0.379   8.409   3.960 -0.8976 -0.1851 -0.4493
  840MOL0     C10761   0.261   8.394   3.875  0.1684  0.0409  0.0403
  840MOL0     C10762   0.280   8.447   3.733 -0.3513  0.0120  0.3188
  840MOL0     C10763   0.149   8.472   3.663 -0.4540 -0.3833 -0.3678
  840MOL0     C10764   0.194   8.539   3.527  0.6205 -0.7680 -0.1203
  840MOL0     N10765   0.081   8.601   3.451 -1.1781 -0.3673 -0.2228
  840MOL0     C10766  -0.003   8.542   3.361 -0.3147 -0.0268  0.7804
  840MOL0     C10767  -0.066   8.637   3.293 -0.1714  0.2613  0.6703
  840MOL0     C10768  -0.159   8.619   3.174 -0.1221  0.6667 -1.7981
  840MOL0     C10769  -0.309   8.622   3.204 -0.2511 -0.5047 -0.3619
  840MOL0     C10770  -0.392   8.574   3.079 -0.0069 -0.3178 -0.6274
  840MOL0     C10771  -0.554   8.577   3.090 -1.0985 -0.3398  0.2920
  840MOL0     O10772  -0.599   8.670   3.193  0.3358  0.1819 -0.6572
  840MOL0     C10773  -0.729   8.714   3.179 -0.3535 -0.2368 -0.0947
  840MOL0     C10774  -0.838   8.632   3.188 -0.9189  0.1660 -0.3110
  840MOL0     C10775  -0.966   8.682   3.174  0.5487 -0.0635 -1.7017
  840MOL0     C10776  -0.988   8.824   3.170  0.5898 -0.6393  0.7441
  840MOL0     C10777  -1.122   8.893   3.166  0.7981 -0.0998  0.6188
  840MOL0     O10778  -1.139   9.032   3.165 -0.1521 -0.4815 -0.1225
  840MOL0     C10779  -1.275   9.071   3.174  0.0079 -0.4937  0.5927
  840MOL0     C10780  -1.339   9.095   3.294 -0.1342 -0.2979  1.0893
  840MOL0     C10781  -1.473   9.130   3.290  0.7683 -0.1277  0.2244
  840MOL0     C10782  -1.554   9.116   3.171 -0.3873 -0.1500 -0.3101
  840MOL0     O10783  -1.691   9.127   3.163  0.3327 -0.2764  0.0984
  840MOL0     C10784  -1.767   9.188   3.275 -0.1427  0.2813  0.3299
  840MOL0     C10785  -1.912   9.203   3.238  1.7806 -0.3926 -0.5251
  840MOL0     C10786  -2.012   9.253   3.352  0.3604  1.1652 -0.0607
  840MOL0     C10787  -2.159   9.230   3.317 -0.2645 -0.3683  1.3329
  840MOL0     C10788  -2.244   9.301   3.415 -1.0405  0.2970 -0.2737
  840MOL0     C10789  -2.390   9.265   3.431  0.0427  0.4086 -0.4189
  840MOL0     C10790  -2.454   9.334   3.551 -0.2914 -0.6471 -0.7795
  840MOL0     C10791  -2.403   9.294   3.691 -0.7103 -0.7234 -0.3350
  840MOL0    Cl10792  -2.453   9.120   3.728 -0.2063  0.3171  0.2016
  840MOL0     C10793  -1.489   9.090   3.058 -0.9042  0.4452  0.4498
  840MOL0     C10794  -1.355   9.072   3.052  0.3488 -0.3261 -0.0053
  840MOL0     O10795  -1.213   8.816   3.163 -0.3804 -0.7810 -0.0941
  840MOL0     C10796  -0.875   8.907   3.175 -0.5581 -0.7881 -0.0983
  840MOL0     C10797  -0.749   8.849   3.181  0.3258  0.2729 -0.4828
  840MOL0     N10798  -0.034   8.752   3.357 -0.5924 -0.1795 -0.7063
  840MOL0     N10799   0.063   8.735   3.445 -0.7056 -0.0718  0.7231
  840MOL0     C10800   0.859   8.438   4.071 -0.5945  0.4723 -1.0743
  840MOL0     C10801   0.990   8.391   4.051  0.0358  0.0438  0.4674
  840MOL0     C10802   1.424   8.323   4.050  0.6329  0.2961  1.0394
  840MOL0     C10803   1.515   8.372   3.952  0.1090  0.4390 -0.4834
  840MOL0     C10804   1.647   8.333   3.950 -0.0955 -0.0788 -0.0772
  840MOL0     C10805   1.698   8.240   4.047  0.1200  0.2579 -0.3204
  840MOL0     O10806   1.825   8.194   4.056  0.2240  0.7459  0.8334
  840MOL0     C10807   1.923   8.198   3.944  0.1820 -0.3231  0.5382
  840MOL0     C10808   2.058   8.136   3.969 -0.1919  1.5079 -0.2202
  840MOL0     C10809   2.153   8.241   4.030  0.0332  0.1501 -0.5988
  840MOL0     C10810   2.289   8.171   4.067  1.3342 -0.9299 -0.1864
  840MOL0     C10811   2.383   8.239   4.150 -0.1884  0.8686 -0.3277
  840MOL0     C10812   2.464   8.287   4.227  0.1276  0.7115 -0.2590
  840MOL0     C10813   1.600   8.188   4.136 -0.6749  1.0695  0.9152
  840MOL0     C10814   1.465   8.222   4.138 -0.1086  0.0850  0.3238
  840MOL0     H10815   1.083   8.316   4.369 -1.6439  2.4333  1.7889
  840MOL0     H10816   0.852   8.400   4.411 -0.7092 -1.3122 -0.3328
  840MOL0     H10817   0.606   8.495   4.043  0.1779  0.9294 -0.7038
  840MOL0     H10818   0.526   8.607   4.149  0.8137  0.7157  1.2426
  840MOL0     H10819   0.457   8.402   4.296  1.0735  0.2791  1.0103
  840MOL0     H10820   0.548   8.316   4.172 -2.4298 -1.5317 -3.7013
  840MOL0     H10821   0.323   8.514   4.135 -1.3248 -1.6544 -0.4822
  840MOL0     H10822   0.291   8.334   4.134  0.5754 -0.9045  2.0766
  840MOL0     H10823   0.424   8.504   3.931 -0.0801 -0.9804 -1.8881
  840MOL0     H10824   0.447   8.328   3.934 -0.5360  0.2856 -0.9929
  840MOL0     H10825   0.173   8.447   3.913 -0.2892 -0.2920 -0.5249
  840MOL0     H10826   0.237   8.287   3.867  1.9202 -0.2678 -1.8342
  840MOL0     H10827   0.333   8.371   3.675 -0.6436 -0.5395  0.7551
  840MOL0     H10828   0.328   8.545   3.734  0.0454 -0.1803  0.2130
  840MOL0     H10829   0.084   8.388   3.639 -3.1561  0.8542  2.0675
  840MOL0     H10830   0.085   8.534   3.727  0.1071  0.9442 -1.0634
  840MOL0     H10831   0.231   8.455   3.467 -1.2723 -1.1289 -0.8426
  840MOL0     H10832   0.273   8.612   3.550  0.6164 -1.9404  4.6653
  840MOL0     H10833  -0.015   8.435   3.351  1.1395 -0.0179 -1.9199
  840MOL0     H10834  -0.137   8.523   3.128  1.9916  0.4485 -0.4724
  840MOL0     H10835  -0.144   8.702   3.104  1.6344  1.0002 -1.0613
  840MOL0     H10836  -0.351   8.718   3.235 -1.0029 -0.9256 -0.0331
  840MOL0     H10837  -0.330   8.548   3.282  0.1732 -1.3026 -0.9822
  840MOL0     H10838  -0.359   8.643   3.002  0.7103  0.9151  0.7317
  840MOL0     H10839  -0.364   8.472   3.053  1.3804  0.0907 -0.8261
  840MOL0     H10840  -0.599   8.478   3.097 -2.7386 -0.0654 -3.5710
  840MOL0     H10841  -0.590   8.613   2.993  0.2205 -0.6655 -0.3420
  840MOL0     H10842  -0.829   8.526   3.206 -0.7381  0.4273  1.2946
  840MOL0     H10843  -1.052   8.618   3.160  1.4147 -1.6886  0.0048
  840MOL0     H10844  -1.291   9.092   3.392  0.4999  0.8461  0.8371
  840MOL0     H10845  -1.519   9.139   3.388  1.5605 -0.7086  0.6604
  840MOL0     H10846  -1.735   9.290   3.299  4.0245 -0.7380 -0.0657
  840MOL0     H10847  -1.759   9.127   3.366  0.5871 -1.9012 -1.1295
  840MOL0     H10848  -1.950   9.111   3.193  0.7638 -1.5516  2.4033
  840MOL0     H10849  -1.913   9.286   3.167 -1.2675  1.3690  1.3491
  840MOL0     H10850  -1.995   9.359   3.373  2.6678  0.6621  0.9344
  840MOL0     H10851  -1.999   9.196   3.444 -1.3442  0.5459 -0.1720
  840MOL0     H10852  -2.180   9.265   3.215  2.0006 -2.0843  0.1709
  840MOL0     H10853  -2.176   9.122   3.319  1.1726 -0.6688 -0.2105
  840MOL0     H10854  -2.240   9.409   3.400 -0.8581  0.5465  1.4426
  840MOL0     H10855  -2.193   9.279   3.509  2.7100 -2.4444 -2.6232
  840MOL0     H10856  -2.395   9.156   3.437  1.5002  0.1837 -2.2248
  840MOL0     H10857  -2.439   9.290   3.336 -0.0339 -0.7122 -0.6813
  840MOL0     H10858  -2.449   9.443   3.544 -0.1445 -0.1315  3.9424
  840MOL0     H10859  -2.556   9.294   3.551 -0.4852 -0.1817 -1.7088
  840MOL0     H10860  -2.442   9.346   3.779  1.5934 -1.4105  1.1635
  840MOL0     H10861  -2.294   9.295   3.682 -0.7961 -0.1808 -1.3757
  840MOL0     H10862  -1.545   9.084   2.965  0.7340  0.4102 -0.5699
  840MOL0     H10863  -1.312   9.055   2.954 -1.1095 -1.3895 -0.4976
  840MOL0     H10864  -0.867   9.015   3.180  2.2054 -0.9786  2.8958
  840MOL0     H10865  -0.659   8.909   3.175  0.3190  0.5967  1.9406
  840MOL0     H10866   0.806   8.470   3.982 -2.1040 -0.1740 -0.4312
  840MOL0     H10867   1.024   8.377   3.949 -0.7477  0.9151  0.0747
  840MOL0     H10868   1.484   8.442   3.876  1.4639  1.7663  0.1270
  840MOL0     H10869   1.716   8.365   3.874 -3.3377 -2.7296 -4.6062
  840MOL0     H10870   1.945   8.301   3.913  0.6431 -0.8646 -1.0701
  840MOL0     H10871   1.886   8.141   3.859  0.9219  0.1814 -0.1443
  840MOL0     H10872   2.036   8.054   4.038 -0.4713 -0.0364 -2.0525
  840MOL0     H10873   2.106   8.101   3.877 -0.5480 -0.1029  0.1776
  840MOL0     H10874   2.106   8.284   4.120  0.6557 -2.1491  0.9281
  840MOL0     H10875   2.168   8.326   3.964 -1.1449 -1.0330 -2.4877
  840MOL0     H10876   2.262   8.067   4.089 -2.1329 -0.3308 -1.0196
  840MOL0     H10877   2.342   8.167   3.972 -1.7553 -0.6777 -2.0848
  840MOL0     H10878   2.540   8.315   4.297  0.5699  0.1632 -0.5167
  840MOL0     H10879   1.625   8.117   4.214  0.4044 -0.5307 -0.7964
  840MOL0     H10880   1.393   8.182   4.207  0.3342  0.7658  1.1989
  841MOL0     O10881   0.756   0.517   7.625  0.2733 -0.1170 -0.1052
  841MOL0     C10882   0.695   0.493   7.731  0.1768 -0.4119  0.3392
  841MOL0     O10883   0.737   0.532   7.858  0.1161  0.5984 -0.0424
  841MOL0     C10884   0.868   0.583   7.863 -0.8369 -0.0525 -0.6304
  841MOL0     C10885   0.968   0.514   7.946  0.0184 -0.4525 -0.2599
  841MOL0     C10886   1.093   0.569   7.976 -0.3040  0.6353 -0.3755
  841MOL0     C10887   1.128   0.687   7.910  0.0294 -1.0547 -0.0507
  841MOL0     O10888   1.252   0.751   7.920 -0.3230 -0.9443  0.0237
  841MOL0     C10889   1.359   0.671   7.968 -0.8449 -0.5684  0.5990
  841MOL0     C10890   1.497   0.749   7.954  0.1412 -0.0496  0.8681
  841MOL0     C10891   1.526   0.879   8.030  0.0678  0.2750 -0.1264
  841MOL0     C10892   1.542   0.870   8.185  0.2824  0.2644 -0.8402
  841MOL0     C10893   1.692   0.849   8.218 -0.3007  0.0757 -0.2613
  841MOL0     C10894   1.781   0.978   8.181  0.4399  0.7169  0.1906
  841MOL0     C10895   1.922   0.925   8.160 -0.5466  0.6788 -0.2047
  841MOL0     C10896   2.009   0.908   8.281  0.1921 -0.2682 -0.1663
  841MOL0     N10897   1.991   0.807   8.384  0.8427 -0.0674  0.1288
  841MOL0     C10898   1.894   0.811   8.483  0.5416 -0.5252  0.1957
  841MOL0     C10899   1.890   0.685   8.531 -0.0828 -0.3329  0.4087
  841MOL0     C10900   1.800   0.645   8.646  1.0513  0.0878  0.0941
  841MOL0     C10901   1.656   0.612   8.592  0.2262  0.3534 -0.3861
  841MOL0     C10902   1.653   0.476   8.526 -1.1031 -0.8161  0.0040
  841MOL0     C10903   1.511   0.422   8.497  1.1708  0.7868  0.8608
  841MOL0     O10904   1.428   0.526   8.435 -0.6295  0.1457  0.0099
  841MOL0     C10905   1.298   0.483   8.410  0.9524 -0.4794 -0.3950
  841MOL0     C10906   1.241   0.362   8.448 -0.1246 -1.1452  0.9154
  841MOL0     C10907   1.108   0.325   8.419 -0.2676  0.3790  0.4105
  841MOL0     C10908   1.028   0.418   8.352  0.4964 -1.0646 -0.3569
  841MOL0     C10909   0.887   0.392   8.313 -0.0637  0.0576 -0.7818
  841MOL0     O10910   0.796   0.492   8.328  0.1500 -0.9061 -0.4893
  841MOL0     C10911   0.661   0.482   8.322  0.3681  0.1405 -0.4314
  841MOL0     C10912   0.566   0.565   8.399 -0.7869  1.0934 -0.4929
  841MOL0     C10913   0.427   0.553   8.373  1.0956 -0.3660  0.1023
  841MOL0     C10914   0.378   0.456   8.285  0.3264  0.3590  0.0191
  841MOL0     O10915   0.244   0.436   8.256 -0.0721  1.1908  0.9958
  841MOL0     C10916   0.140   0.498   8.338 -0.3067  0.1050  0.0427
  841MOL0     C10917  -0.002   0.438   8.321 -0.5581  0.0185 -0.0125
  841MOL0     C10918  -0.029   0.391   8.171  0.2514  0.0023 -0.2956
  841MOL0     C10919  -0.179   0.346   8.145  0.6948 -0.5498 -0.5181
  841MOL0     C10920  -0.192   0.269   8.008 -1.0388 -0.6493  0.3828
  841MOL0     C10921  -0.264   0.342   7.901 -0.3089 -0.8518 -0.6698
  841MOL0     C10922  -0.198   0.477   7.877  0.9244 -0.4053 -0.2543
  841MOL0     C10923  -0.211   0.527   7.739 -0.3166  0.4258 -0.3826
  841MOL0    Cl10924  -0.373   0.500   7.657 -0.4964  0.1352 -0.1837
  841MOL0     C10925   0.460   0.379   8.212  0.0763  0.1331 -0.0512
  841MOL0     C10926   0.600   0.388   8.225  1.0703  0.4094 -1.0779
  841MOL0     O10927   0.864   0.278   8.281  0.6149 -0.1136  0.6023
  841MOL0     C10928   1.080   0.540   8.320  0.4772 -0.0249  0.2374
  841MOL0     C10929   1.214   0.573   8.355 -0.5010 -0.0772  0.2293
  841MOL0     N10930   1.989   0.609   8.460 -0.2367 -0.3890  0.1064
  841MOL0     N10931   2.049   0.688   8.384 -0.9447 -0.2762  0.2639
  841MOL0     C10932   1.033   0.758   7.833  1.2085  0.5834  0.0291
  841MOL0     C10933   0.905   0.714   7.819 -0.1730  0.3106 -0.3556
  841MOL0     C10934   0.577   0.406   7.718 -0.9228 -0.2241  0.9334
  841MOL0     C10935   0.525   0.371   7.587 -0.4715  0.0469  0.2831
  841MOL0     C10936   0.422   0.278   7.575  0.7097  0.2527 -0.2470
  841MOL0     C10937   0.346   0.238   7.687 -0.7463 -0.3657 -0.1687
  841MOL0     O10938   0.244   0.145   7.693 -0.4465  1.1691  0.1379
  841MOL0     C10939   0.222   0.069   7.576 -0.8253 -0.3881 -0.0875
  841MOL0     C10940   0.100  -0.019   7.596  0.1776  0.4744 -0.0459
  841MOL0     C10941  -0.031   0.064   7.624 -0.1937 -0.7831 -0.5519
  841MOL0     C10942  -0.154   0.015   7.554 -0.4618 -0.1362  0.2227
  841MOL0     C10943  -0.276   0.083   7.596 -0.1542  0.1414  0.1867
  841MOL0     C10944  -0.363   0.138   7.642  0.6811  1.1564 -0.0458
  841MOL0     C10945   0.385   0.286   7.810  0.0540  0.2626  0.2216
  841MOL0     C10946   0.497   0.365   7.826  1.0387 -0.4224 -0.8589
  841MOL0     H10947   0.944   0.414   7.983  1.6613 -1.7704 -2.4806
  841MOL0     H10948   1.167   0.517   8.037  0.4085  0.3831 -1.4164
  841MOL0     H10949   1.371   0.588   7.898  1.0148  0.9564 -1.0072
  841MOL0     H10950   1.345   0.634   8.070 -0.9000  2.4395  1.7821
  841MOL0     H10951   1.517   0.777   7.850  1.1304 -0.0061  1.0573
  841MOL0     H10952   1.570   0.678   7.995 -0.0534 -0.6621  0.1518
  841MOL0     H10953   1.449   0.952   8.004 -1.7079 -2.0027 -1.6010
  841MOL0     H10954   1.611   0.927   7.979  0.1952  0.9531  0.6989
  841MOL0     H10955   1.506   0.967   8.218 -0.0490  0.0115 -0.4514
  841MOL0     H10956   1.481   0.801   8.244  0.5262  3.1539  3.1951
  841MOL0     H10957   1.726   0.762   8.162  1.8041  2.0410 -2.2731
  841MOL0     H10958   1.697   0.839   8.327  1.6926  0.0319 -0.3262
  841MOL0     H10959   1.771   1.054   8.259  0.5037  1.3762 -0.4342
  841MOL0     H10960   1.758   1.025   8.085  4.7772  2.2735 -0.2826
  841MOL0     H10961   1.915   0.827   8.111 -3.6627 -0.1462  1.6268
  841MOL0     H10962   1.970   0.995   8.091 -0.4662  0.2472 -0.5906
  841MOL0     H10963   2.006   1.001   8.339 -1.5387 -1.0963  1.1728
  841MOL0     H10964   2.111   0.890   8.245 -0.0862 -3.7207  0.3847
  841MOL0     H10965   1.833   0.895   8.512  2.0254  0.6253  0.1147
  841MOL0     H10966   1.794   0.727   8.718  1.6534  0.1697  0.0541
  841MOL0     H10967   1.845   0.563   8.703 -0.5485 -1.2137 -0.4448
  841MOL0     H10968   1.615   0.694   8.531  1.6770  3.3094  2.3407
  841MOL0     H10969   1.596   0.615   8.683  0.4185  1.2288 -0.2780
  841MOL0     H10970   1.709   0.481   8.432 -0.0598 -1.1313  0.6009
  841MOL0     H10971   1.707   0.410   8.594  2.0373 -1.0526 -2.5202
  841MOL0     H10972   1.468   0.391   8.593  0.8566  0.0219  0.4821
  841MOL0     H10973   1.520   0.339   8.426  1.1560 -0.6178  2.4381
  841MOL0     H10974   1.307   0.296   8.503  2.3902  1.1279  0.8741
  841MOL0     H10975   1.066   0.235   8.463  1.2145  0.1072  1.3374
  841MOL0     H10976   0.619   0.629   8.469  1.2689 -1.6345  0.6465
  841MOL0     H10977   0.346   0.618   8.405 -1.2472 -2.6407 -0.8885
  841MOL0     H10978   0.138   0.605   8.314 -1.5179  0.7604  2.6952
  841MOL0     H10979   0.174   0.489   8.442 -1.2647 -0.6184  0.3096
  841MOL0     H10980  -0.076   0.513   8.350  0.0961  0.8124 -0.3676
  841MOL0     H10981  -0.020   0.348   8.382 -1.8302  1.5488  2.0123
  841MOL0     H10982   0.039   0.311   8.141  3.1833  1.8183  1.0844
  841MOL0     H10983  -0.008   0.480   8.111  2.0606  0.5078  1.0167
  841MOL0     H10984  -0.215   0.283   8.227  1.4325  0.8910  0.9604
  841MOL0     H10985  -0.246   0.432   8.150  1.8947  0.3838 -0.0175
  841MOL0     H10986  -0.244   0.175   8.031 -3.0080  1.0284  3.3447
  841MOL0     H10987  -0.094   0.238   7.970 -0.5614 -1.4708  2.1930
  841MOL0     H10988  -0.371   0.358   7.921 -0.2896  0.8689 -1.6922
  841MOL0     H10989  -0.256   0.282   7.810 -3.7394 -0.8432 -1.1109
  841MOL0     H10990  -0.249   0.550   7.939 -0.0396 -0.5943 -0.8036
  841MOL0     H10991  -0.094   0.471   7.909  0.8663 -0.5876 -0.1011
  841MOL0     H10992  -0.132   0.480   7.680  0.7282  3.6382 -1.7712
  841MOL0     H10993  -0.180   0.632   7.744 -0.0446  0.4722 -2.2972
  841MOL0     H10994   0.416   0.310   8.141 -1.7078  1.4348 -0.2763
  841MOL0     H10995   0.659   0.309   8.179 -3.0494 -2.3528 -2.2696
  841MOL0     H10996   1.011   0.617   8.286  0.3317 -0.4320 -0.4038
  841MOL0     H10997   1.236   0.677   8.336 -2.5905 -0.0280 -2.7491
  841MOL0     H10998   1.053   0.850   7.780 -1.5328  1.8021  0.9170
  841MOL0     H10999   0.834   0.771   7.760  0.3686  0.6128 -0.7188
  841MOL0     H11000   0.562   0.409   7.492  1.1913 -0.5706  0.6376
  841MOL0     H11001   0.394   0.236   7.479 -1.4835 -1.8287  1.1740
  841MOL0     H11002   0.307   0.001   7.565 -2.5800 -3.1052  1.8728
  841MOL0     H11003   0.212   0.141   7.494 -4.3392 -2.4993 -1.7484
  841MOL0     H11004   0.079  -0.071   7.502 -1.5645  0.7245  0.1709
  841MOL0     H11005   0.112  -0.098   7.670  1.0771  0.5669 -0.0859
  841MOL0     H11006  -0.014   0.168   7.594 -2.7773  0.2518  1.1557
  841MOL0     H11007  -0.051   0.054   7.732  0.5923 -0.7868 -0.4020
  841MOL0     H11008  -0.145   0.029   7.446 -1.8612 -2.1921 -0.2124
  841MOL0     H11009  -0.155  -0.089   7.587  0.4311  0.6142  2.8311
  841MOL0     H11010  -0.448   0.196   7.668  1.9806  2.3827  1.6691
  841MOL0     H11011   0.328   0.260   7.899 -0.2505  1.3517  0.3560
  841MOL0     H11012   0.523   0.388   7.929  0.0338 -1.5262 -0.3376
  842MOL0     O11013   1.249   2.572   5.063  0.0990  0.5432  0.2200
  842MOL0     C11014   1.135   2.527   5.078 -0.4213  0.0426 -0.4000
  842MOL0     O11015   1.072   2.453   4.999  0.6031  0.0550  1.1056
  842MOL0     C11016   1.139   2.403   4.886  0.0539  0.4671 -0.7377
  842MOL0     C11017   1.259   2.329   4.888 -0.2856  1.1947  0.0408
  842MOL0     C11018   1.308   2.274   4.762 -0.6534  0.1683 -1.3062
  842MOL0     C11019   1.256   2.302   4.643  0.1533 -0.2819 -0.2641
  842MOL0     O11020   1.304   2.265   4.515  0.2333 -0.8176  0.0450
  842MOL0     C11021   1.407   2.171   4.503  0.3499 -0.0814  0.7899
  842MOL0     C11022   1.446   2.113   4.364 -0.0689  0.4612  0.3580
  842MOL0     C11023   1.321   2.092   4.277  0.2185  0.0213 -0.8236
  842MOL0     C11024   1.218   1.992   4.331  0.7625  0.1272 -0.4174
  842MOL0     C11025   1.083   1.992   4.256  0.0619 -0.2979 -0.3903
  842MOL0     C11026   0.993   2.122   4.306  0.6789  0.4042  0.5044
  842MOL0     C11027   0.862   2.105   4.229 -0.7250 -0.6775 -0.1549
  842MOL0     C11028   0.750   2.206   4.279  0.1690 -0.7363  0.1555
  842MOL0     N11029   0.711   2.170   4.413 -0.1785  0.5359 -0.5428
  842MOL0     C11030   0.753   2.231   4.531  0.0375 -0.0828 -0.4958
  842MOL0     C11031   0.681   2.184   4.636  0.0763  0.3705 -0.1242
  842MOL0     C11032   0.695   2.225   4.778 -1.1509 -0.6754  0.3372
  842MOL0     C11033   0.613   2.351   4.813 -0.1364 -0.3885  0.1907
  842MOL0     C11034   0.557   2.359   4.959  0.0309  1.2456  0.0086
  842MOL0     C11035   0.663   2.367   5.063  0.5533 -0.2620  0.9242
  842MOL0     O11036   0.728   2.249   5.101  0.2169  0.0930  0.5778
  842MOL0     C11037   0.683   2.210   5.221 -0.5787  0.7854 -0.0063
  842MOL0     C11038   0.556   2.151   5.230  0.2832  0.2969  0.2371
  842MOL0     C11039   0.506   2.113   5.356  0.9537 -0.6136 -0.4693
  842MOL0     C11040   0.591   2.119   5.478  0.7360 -0.3640  0.7150
  842MOL0     C11041   0.543   2.070   5.611  0.7393 -0.1445  0.6108
  842MOL0     O11042   0.441   1.978   5.604  0.5588 -0.5888  0.1379
  842MOL0     C11043   0.398   1.919   5.724  0.6051 -0.1126  0.6714
  842MOL0     C11044   0.475   1.828   5.797 -0.3979  0.4520  0.2031
  842MOL0     C11045   0.418   1.758   5.904 -0.3675  0.1559 -0.4855
  842MOL0     C11046   0.288   1.789   5.947 -0.7812 -0.2419 -0.2971
  842MOL0     O11047   0.232   1.745   6.064  0.4946 -0.2360  0.7793
  842MOL0     C11048   0.311   1.720   6.179 -0.1084  0.1996 -0.4918
  842MOL0     C11049   0.315   1.838   6.271  0.2730  0.2166  0.4166
  842MOL0     C11050   0.420   1.946   6.232 -0.4317  1.1144  0.5452
  842MOL0     C11051   0.432   2.059   6.339 -0.7963  0.3151 -0.7033
  842MOL0     C11052   0.576   2.123   6.323 -0.0776  0.2348  0.8038
  842MOL0     C11053   0.586   2.206   6.192 -0.5416  1.2250 -0.0754
  842MOL0     C11054   0.728   2.274   6.175  0.3111 -1.3580 -0.0874
  842MOL0     C11055   0.845   2.190   6.194 -0.7958 -0.6612  0.4171
  842MOL0    Cl11056   1.000   2.274   6.151 -0.0479 -0.4891  0.0060
  842MOL0     C11057   0.208   1.884   5.886 -0.7224 -0.0744 -0.5778
  842MOL0     C11058   0.262   1.943   5.769 -0.4540  1.2425  0.3394
  842MOL0     O11059   0.608   2.097   5.705  0.2147 -0.3432  0.6625
  842MOL0     C11060   0.719   2.173   5.464 -0.1138  0.5072 -0.6385
  842MOL0     C11061   0.766   2.218   5.338 -0.2903  0.0561 -0.4272
  842MOL0     N11062   0.605   2.084   4.584 -0.9092 -0.6600 -0.0613
  842MOL0     N11063   0.612   2.077   4.451  0.9246 -0.0375  0.1753
  842MOL0     C11064   1.132   2.373   4.645  0.8596  0.0520  0.2402
  842MOL0     C11065   1.073   2.424   4.764  0.3675 -0.5320 -0.3836
  842MOL0     C11066   1.069   2.571   5.199  0.4362  0.4343  0.7640
  842MOL0     C11067   0.942   2.512   5.236 -0.4236 -0.6126 -0.7609
  842MOL0     C11068   0.875   2.550   5.349 -0.2446  0.6356  0.1743
  842MOL0     C11069   0.931   2.651   5.433 -0.4458  0.4331 -0.3735
  842MOL0     O11070   0.874   2.695   5.546  0.0152 -0.6200 -0.4680
  842MOL0     C11071   0.741   2.649   5.583 -0.5780  0.0325 -0.4202
  842MOL0     C11072   0.687   2.728   5.704 -0.2739  0.3640  0.4295
  842MOL0     C11073   0.575   2.667   5.782 -0.3922  0.2449 -0.1137
  842MOL0     C11074   0.534   2.745   5.912  0.6581 -1.0192  0.5141
  842MOL0     C11075   0.651   2.748   6.000 -0.2842  0.2246 -0.1719
  842MOL0     C11076   0.747   2.764   6.070  0.1256 -0.4006  0.5749
  842MOL0     C11077   1.053   2.716   5.394 -0.2800  0.4586 -0.2916
  842MOL0     C11078   1.119   2.668   5.281 -0.0831  0.0355 -0.4474
  842MOL0     H11079   1.324   2.300   4.971  0.6826 -0.2233 -1.1524
  842MOL0     H11080   1.400   2.217   4.772  0.3536  2.1297  2.1732
  842MOL0     H11081   1.361   2.091   4.562 -1.8834 -0.7529 -1.6570
  842MOL0     H11082   1.497   2.213   4.549  0.9736  1.0693 -1.3248
  842MOL0     H11083   1.493   2.015   4.375  0.3423  0.3929 -1.7116
  842MOL0     H11084   1.516   2.176   4.309 -1.0030  1.0263 -0.2220
  842MOL0     H11085   1.350   2.050   4.180 -1.7330 -1.9584 -0.6365
  842MOL0     H11086   1.274   2.186   4.248  0.3488 -0.4808 -2.8534
  842MOL0     H11087   1.256   1.890   4.319 -1.3517 -1.0482  2.0264
  842MOL0     H11088   1.204   2.018   4.436 -2.0279  1.7086 -1.1018
  842MOL0     H11089   1.033   1.899   4.285 -1.1723  0.1925 -0.8899
  842MOL0     H11090   1.105   1.974   4.151 -3.3062 -1.1523 -1.0391
  842MOL0     H11091   1.045   2.213   4.274  1.1675 -0.5188 -1.4508
  842MOL0     H11092   0.980   2.128   4.415  1.6011 -1.1333  0.7324
  842MOL0     H11093   0.876   2.123   4.122  1.6175  1.6701  0.4487
  842MOL0     H11094   0.827   2.002   4.244  0.6069 -0.9603  1.3032
  842MOL0     H11095   0.663   2.203   4.213 -0.3676  0.9643  0.7394
  842MOL0     H11096   0.801   2.302   4.268 -0.4741 -0.6267 -2.7603
  842MOL0     H11097   0.832   2.305   4.538 -1.4234  2.0835 -3.8885
  842MOL0     H11098   0.800   2.236   4.807 -1.1681  2.4756 -0.4302
  842MOL0     H11099   0.658   2.149   4.847 -1.0251  0.5093  1.7606
  842MOL0     H11100   0.531   2.345   4.740 -0.1161 -1.0819  0.2158
  842MOL0     H11101   0.674   2.438   4.789  1.5839 -1.9417 -1.4096
  842MOL0     H11102   0.489   2.444   4.955  0.3292  1.4668 -0.3473
  842MOL0     H11103   0.495   2.272   4.985  1.6816 -0.4566 -1.4766
  842MOL0     H11104   0.629   2.438   5.139  2.9611  1.9696  0.0442
  842MOL0     H11105   0.743   2.413   5.004 -0.0212  2.5085  2.1468
  842MOL0     H11106   0.507   2.125   5.137  3.0242 -2.4944 -0.5933
  842MOL0     H11107   0.410   2.062   5.363  1.0574 -1.0123 -1.6670
  842MOL0     H11108   0.572   1.801   5.756 -0.4689  1.5846 -0.7506
  842MOL0     H11109   0.469   1.678   5.957 -3.0909 -1.5400 -0.2434
  842MOL0     H11110   0.410   1.679   6.157  0.5695  2.2189 -1.4299
  842MOL0     H11111   0.252   1.634   6.213 -1.2758  1.2941  0.3187
  842MOL0     H11112   0.327   1.801   6.373 -0.6377  3.2278  1.7457
  842MOL0     H11113   0.212   1.877   6.268 -0.2311 -1.1344 -1.9198
  842MOL0     H11114   0.408   1.981   6.129  0.7571 -0.3742 -0.1504
  842MOL0     H11115   0.508   1.881   6.238 -1.0950  0.3340  2.9834
  842MOL0     H11116   0.358   2.137   6.320 -1.3409 -0.4742 -1.8956
  842MOL0     H11117   0.420   2.019   6.440 -0.5290 -2.4708 -1.6807
  842MOL0     H11118   0.652   2.045   6.327  0.4265  0.6752  0.0125
  842MOL0     H11119   0.592   2.199   6.401 -1.9280  3.2768 -1.5352
  842MOL0     H11120   0.497   2.269   6.179 -2.4648 -1.4919 -1.2521
  842MOL0     H11121   0.584   2.136   6.107  0.9948  0.3729  0.5555
  842MOL0     H11122   0.745   2.330   6.083 -0.5039  2.2226  1.7556
  842MOL0     H11123   0.746   2.355   6.246  3.0770 -0.3722 -1.7453
  842MOL0     H11124   0.832   2.112   6.119 -1.9005 -1.8888  1.8371
  842MOL0     H11125   0.857   2.156   6.297  0.1566  0.3222  0.6524
  842MOL0     H11126   0.112   1.917   5.925  0.6945  0.5671  2.6927
  842MOL0     H11127   0.207   1.993   5.690  1.8063 -0.9985 -2.9284
  842MOL0     H11128   0.783   2.188   5.551  0.7811  2.2081 -1.5243
  842MOL0     H11129   0.865   2.259   5.323 -0.0977 -0.8661 -1.8230
  842MOL0     H11130   1.082   2.372   4.549  0.0359  0.4838  0.6507
  842MOL0     H11131   0.977   2.473   4.766 -0.2862 -1.6473 -2.1007
  842MOL0     H11132   0.895   2.438   5.171 -0.4121 -0.4395 -0.9696
  842MOL0     H11133   0.785   2.491   5.364  2.1933 -3.5555 -0.2242
  842MOL0     H11134   0.759   2.543   5.603 -0.4629  0.2240  0.5184
  842MOL0     H11135   0.662   2.648   5.507 -1.3689 -3.3890  0.3142
  842MOL0     H11136   0.769   2.731   5.776 -0.3156  0.2949  0.4804
  842MOL0     H11137   0.664   2.832   5.679  2.6562  1.1268  0.4878
  842MOL0     H11138   0.611   2.566   5.804  3.1485  1.1675 -0.9434
  842MOL0     H11139   0.484   2.668   5.722 -1.5555  0.2347  1.5897
  842MOL0     H11140   0.510   2.845   5.877 -0.7484 -1.4246  0.2906
  842MOL0     H11141   0.452   2.703   5.970 -0.1661  2.6391  2.2775
  842MOL0     H11142   0.828   2.801   6.130 -0.1731  1.6108 -0.1598
  842MOL0     H11143   1.092   2.785   5.468 -0.5442 -2.5680  2.9566
  842MOL0     H11144   1.221   2.701   5.265  0.8377 -2.0494  0.6345
  843MOL0     O11145   9.607   5.502   1.906  0.2306 -0.4927  0.2008
  843MOL0     C11146   9.557   5.598   1.843 -0.0320  0.1386 -0.3671
  843MOL0     O11147   9.431   5.596   1.802 -0.0329 -0.3885  0.3751
  843MOL0     C11148   9.351   5.492   1.837  0.3421  0.1000 -0.2148
  843MOL0     C11149   9.306   5.474   1.961 -0.2275  0.2441 -0.5635
  843MOL0     C11150   9.226   5.361   1.987  0.7116  0.5040  0.5736
  843MOL0     C11151   9.192   5.267   1.891 -0.3459  0.3922  0.3339
  843MOL0     O11152   9.102   5.163   1.892  0.4607 -0.6618 -0.6829
  843MOL0     C11153   8.979   5.182   1.968  0.7051  1.4091 -0.4731
  843MOL0     C11154   8.886   5.055   1.949  0.7213  0.4748  0.4403
  843MOL0     C11155   8.764   5.093   1.854  0.1169 -0.8268  0.7727
  843MOL0     C11156   8.800   5.114   1.710 -0.3098  0.2500 -0.6000
  843MOL0     C11157   8.670   5.125   1.636  0.0134 -0.3215 -0.0366
  843MOL0     C11158   8.683   5.145   1.483 -0.5049 -0.1619 -0.2225
  843MOL0     C11159   8.720   5.286   1.430 -1.0248 -0.3663  0.9261
  843MOL0     C11160   8.773   5.283   1.284 -1.1092  0.2097 -0.1552
  843MOL0     N11161   8.888   5.186   1.266 -0.1246  0.1760  0.2988
  843MOL0     C11162   8.999   5.176   1.347  0.6850 -0.6128 -0.8529
  843MOL0     C11163   9.059   5.071   1.298  0.5887  0.1632 -0.1743
  843MOL0     C11164   9.193   5.004   1.333  0.6703  0.0969 -0.0960
  843MOL0     C11165   9.301   5.102   1.376 -0.2859 -0.2109 -0.7540
  843MOL0     C11166   9.430   5.031   1.414  0.1038  0.1688 -0.4105
  843MOL0     C11167   9.514   5.110   1.512  0.1013  0.7810 -0.4381
  843MOL0     O11168   9.555   5.226   1.434  0.4343  0.7839 -0.3019
  843MOL0     C11169   9.646   5.311   1.498 -0.7182  1.1624  0.0196
  843MOL0     C11170   9.718   5.405   1.430 -0.4848  0.5489 -0.3946
  843MOL0     C11171   9.819   5.472   1.497 -0.1878  0.4782 -0.5040
  843MOL0     C11172   9.860   5.444   1.627 -0.4932 -0.1899  0.8319
  843MOL0     C11173   9.966   5.521   1.695  0.6322  0.0319 -0.2077
  843MOL0     O11174  10.038   5.607   1.620 -0.4958 -0.3091  0.7909
  843MOL0     C11175  10.147   5.671   1.678  0.8384 -0.7249 -0.6917
  843MOL0     C11176  10.255   5.600   1.737 -0.3696 -0.3885  0.8765
  843MOL0     C11177  10.377   5.655   1.792  0.5660 -0.7011  0.1790
  843MOL0     C11178  10.388   5.794   1.793 -1.1152  0.0618  1.2565
  843MOL0     O11179  10.486   5.875   1.847  0.1098  0.5394 -0.1138
  843MOL0     C11180  10.604   5.802   1.897  1.2045  0.2253 -0.1344
  843MOL0     C11181  10.698   5.911   1.948  0.8942 -0.0116 -0.4839
  843MOL0     C11182  10.844   5.877   1.922  0.6488  0.2756 -0.2157
  843MOL0     C11183  10.928   5.982   1.998  0.2616  0.9586 -0.2305
  843MOL0     C11184  11.071   5.929   2.020 -0.4421  0.0575 -0.4385
  843MOL0     C11185  11.175   6.040   2.053 -0.5617  0.2052 -0.8715
  843MOL0     C11186  11.196   6.139   1.933 -0.1042 -0.3983 -0.2612
  843MOL0     C11187  11.316   6.226   1.973  0.6304  0.1813  1.1175
  843MOL0    Cl11188  11.463   6.132   2.005  0.1275 -0.0780 -0.3640
  843MOL0     C11189  10.284   5.870   1.734  0.6620  0.2747 -0.3790
  843MOL0     C11190  10.168   5.813   1.665 -0.1092  0.2623 -0.5262
  843MOL0     O11191   9.981   5.491   1.813  0.3495  0.1766  0.3915
  843MOL0     C11192   9.791   5.348   1.697 -0.8686 -0.8045  0.2961
  843MOL0     C11193   9.684   5.288   1.640  0.3444 -0.4567  0.6436
  843MOL0     N11194   9.001   5.031   1.187  0.2128 -0.0514  0.2748
  843MOL0     N11195   8.884   5.084   1.171 -0.5152 -0.2246 -1.8004
  843MOL0     C11196   9.250   5.285   1.763  0.4893 -0.2306  1.0187
  843MOL0     C11197   9.327   5.399   1.732  0.5719  0.2615 -0.1091
  843MOL0     C11198   9.634   5.720   1.826  0.6011 -0.1816 -0.1147
  843MOL0     C11199   9.579   5.834   1.768  0.1526 -0.2220 -0.2797
  843MOL0     C11200   9.656   5.942   1.734 -0.3808 -0.5243  0.3256
  843MOL0     C11201   9.789   5.938   1.758 -0.4826 -1.3921 -0.0094
  843MOL0     O11202   9.879   6.044   1.718  0.7037 -0.1962 -0.4951
  843MOL0     C11203   9.842   6.169   1.784 -0.1266 -0.2768 -0.0102
  843MOL0     C11204   9.923   6.291   1.728 -0.4641 -0.6761 -0.0252
  843MOL0     C11205  10.039   6.326   1.815 -0.1101 -0.1486  0.3276
  843MOL0     C11206  10.133   6.435   1.759 -0.1614  0.4594 -0.6148
  843MOL0     C11207  10.230   6.466   1.855  0.8351 -0.2163 -0.7435
  843MOL0     C11208  10.318   6.494   1.931 -0.6763 -0.3616 -0.8096
  843MOL0     C11209   9.848   5.834   1.827  0.5850  0.5577  0.1552
  843MOL0     C11210   9.770   5.722   1.859  0.3920  0.1238  0.4259
  843MOL0     H11211   9.346   5.544   2.034 -1.0451  1.7105 -1.4552
  843MOL0     H11212   9.201   5.332   2.088 -2.3662 -1.6192 -0.6552
  843MOL0     H11213   8.921   5.264   1.924 -0.4478  1.6342  1.3685
  843MOL0     H11214   8.988   5.204   2.074 -2.8205  3.5292 -0.4626
  843MOL0     H11215   8.861   5.019   2.049  2.7865 -0.0591  0.8160
  843MOL0     H11216   8.955   4.980   1.908  0.3397  1.1107 -1.4870
  843MOL0     H11217   8.702   5.172   1.897  0.9969  0.4747 -0.2778
  843MOL0     H11218   8.698   5.006   1.849  1.1677 -1.5557 -1.3884
  843MOL0     H11219   8.842   5.211   1.685 -1.7481  0.3530 -2.9461
  843MOL0     H11220   8.874   5.040   1.676  0.4344  1.1445 -0.9603
  843MOL0     H11221   8.622   5.215   1.675  2.7024  0.2473  2.2489
  843MOL0     H11222   8.610   5.034   1.632 -0.8962  0.2970 -1.2608
  843MOL0     H11223   8.580   5.125   1.455 -0.9100 -1.7083  2.0743
  843MOL0     H11224   8.749   5.067   1.444  0.4379  0.3487  0.2916
  843MOL0     H11225   8.632   5.351   1.430 -0.2728  0.7784 -1.0782
  843MOL0     H11226   8.800   5.321   1.496  1.5398 -2.8483 -0.6045
  843MOL0     H11227   8.823   5.379   1.266  1.4699 -0.8941  0.7361
  843MOL0     H11228   8.689   5.268   1.215 -0.8862  1.0324 -0.6232
  843MOL0     H11229   9.030   5.237   1.431  1.2347  1.4553 -2.4876
  843MOL0     H11230   9.230   4.954   1.243  1.3809 -1.6258  1.0955
  843MOL0     H11231   9.180   4.928   1.410  2.4957 -0.1182  0.0433
  843MOL0     H11232   9.269   5.172   1.454 -1.0358  2.0972 -2.9910
  843MOL0     H11233   9.337   5.162   1.292 -0.8452 -0.5665 -1.2591
  843MOL0     H11234   9.404   4.933   1.455 -1.9986 -0.0472 -2.0791
  843MOL0     H11235   9.485   5.017   1.321 -2.0383 -0.6155 -1.6044
  843MOL0     H11236   9.595   5.041   1.536 -1.8166 -1.3989  0.0964
  843MOL0     H11237   9.461   5.117   1.608  2.3988 -2.3013  1.2304
  843MOL0     H11238   9.699   5.411   1.324  1.5807  1.0772 -0.7919
  843MOL0     H11239   9.854   5.563   1.450  0.9209  0.2850 -0.0807
  843MOL0     H11240  10.242   5.493   1.749 -0.5696 -0.4596  0.0519
  843MOL0     H11241  10.454   5.585   1.820  1.1661  0.2840  1.0413
  843MOL0     H11242  10.656   5.731   1.832  2.7051 -1.1038  2.3498
  843MOL0     H11243  10.568   5.737   1.977 -2.7462  1.2335 -0.8660
  843MOL0     H11244  10.677   5.930   2.053 -4.9844  0.6061 -1.4451
  843MOL0     H11245  10.679   6.007   1.899  2.3363 -0.0974 -1.2561
  843MOL0     H11246  10.863   5.866   1.815  1.2922 -1.6431  0.0640
  843MOL0     H11247  10.861   5.784   1.976 -3.0201  0.6450  1.9354
  843MOL0     H11248  10.934   6.064   1.925 -3.6642 -0.3473 -2.3185
  843MOL0     H11249  10.869   6.009   2.086 -3.5548 -0.8831 -1.9792
  843MOL0     H11250  11.103   5.862   1.938  2.6836  1.2748 -0.3653
  843MOL0     H11251  11.072   5.861   2.106  3.1083  0.7532  0.2175
  843MOL0     H11252  11.267   5.992   2.088 -2.0583 -1.7608  0.6079
  843MOL0     H11253  11.137   6.092   2.141  1.9218 -0.4889  0.7114
  843MOL0     H11254  11.192   6.085   1.838  1.9001 -0.2023 -0.4968
  843MOL0     H11255  11.119   6.217   1.930  0.1773  0.0761  2.2102
  843MOL0     H11256  11.300   6.282   2.066 -4.7783 -0.4136  0.8214
  843MOL0     H11257  11.337   6.287   1.885  0.6503 -0.2461  0.8232
  843MOL0     H11258  10.281   5.979   1.736 -0.1865  0.2697  1.8051
  843MOL0     H11259  10.094   5.877   1.617 -1.0155  0.0073  0.4829
  843MOL0     H11260   9.811   5.328   1.802 -0.8068 -0.0487  0.4355
  843MOL0     H11261   9.624   5.216   1.695 -3.0377 -0.0057 -2.0672
  843MOL0     H11262   9.230   5.213   1.684 -1.3043  0.6805  0.5812
  843MOL0     H11263   9.364   5.408   1.630  0.8187 -0.1646 -0.0608
  843MOL0     H11264   9.471   5.840   1.756  0.4646  1.8908 -2.9136
  843MOL0     H11265   9.617   6.037   1.700  1.2897 -0.0370 -0.3470
  843MOL0     H11266   9.844   6.156   1.892  1.6017  1.9043  0.2864
  843MOL0     H11267   9.742   6.207   1.758  0.6532 -0.3481 -3.6258
  843MOL0     H11268   9.963   6.274   1.627  0.3213  0.8320 -0.0028
  843MOL0     H11269   9.865   6.381   1.704 -0.1850 -0.2536  0.8555
  843MOL0     H11270  10.092   6.233   1.837 -0.9131 -0.8308 -0.5178
  843MOL0     H11271   9.991   6.362   1.907 -2.5170  1.6332 -1.4663
  843MOL0     H11272  10.179   6.391   1.669  1.4031 -1.3759  0.9889
  843MOL0     H11273  10.075   6.525   1.735 -1.4711 -0.6258 -1.6659
  843MOL0     H11274  10.395   6.525   1.999 -0.9515 -3.7687  1.2667
  843MOL0     H11275   9.951   5.842   1.861  0.1202  2.7949  1.1827
  843MOL0     H11276   9.803   5.627   1.900 -1.5158 -2.2076 -2.9115
  844MOL0     O11277  10.484   9.206   3.486  0.7952  0.6881  0.2916
  844MOL0     C11278  10.505   9.316   3.533  0.0999 -0.5084  0.7524
  844MOL0     O11279  10.409   9.400   3.591  0.1343  0.3863 -0.2981
  844MOL0     C11280  10.279   9.355   3.594  1.4922  0.0273 -1.2558
  844MOL0     C11281  10.175   9.447   3.552 -0.6969  0.1843  0.8083
  844MOL0     C11282  10.035   9.411   3.558  0.2597 -0.0140  0.8041
  844MOL0     C11283  10.004   9.286   3.616 -0.8663 -1.3342  1.4121
  844MOL0     O11284   9.874   9.253   3.641  0.7837  0.4983 -0.2726
  844MOL0     C11285   9.763   9.349   3.629  0.2733  0.5808 -1.1652
  844MOL0     C11286   9.651   9.294   3.722 -0.0437 -0.0715 -1.6311
  844MOL0     C11287   9.664   9.332   3.874 -0.2285  0.4687 -0.2181
  844MOL0     C11288   9.805   9.299   3.923 -0.2086 -0.1744  0.1903
  844MOL0     C11289   9.809   9.324   4.075  0.2977  0.8762 -1.1781
  844MOL0     C11290   9.924   9.255   4.147 -0.1160  0.2637 -0.2209
  844MOL0     C11291  10.051   9.311   4.104 -0.6895 -0.4771 -0.5310
  844MOL0     C11292  10.168   9.236   4.159 -0.2172  0.2854  0.0556
  844MOL0     N11293  10.290   9.300   4.131 -0.0897  0.3898 -0.0100
  844MOL0     C11294  10.337   9.362   4.014 -0.5681  0.0098  0.6719
  844MOL0     C11295  10.459   9.408   4.044 -0.4503  1.2679 -0.7218
  844MOL0     C11296  10.550   9.495   3.967  0.2023  0.3630  0.2881
  844MOL0     C11297  10.692   9.496   4.022 -0.1211  0.9465 -0.0044
  844MOL0     C11298  10.779   9.377   4.006 -1.7675  0.2716  0.0351
  844MOL0     C11299  10.922   9.380   4.058  0.5665 -0.0428 -0.2094
  844MOL0     O11300  10.993   9.494   3.995 -0.4770 -0.7734 -0.5058
  844MOL0     C11301  11.140   9.498   3.980  0.6629  0.4088  0.4829
  844MOL0     C11302  11.225   9.399   4.032  0.1626  0.3878 -0.3788
  844MOL0     C11303  11.362   9.404   4.025  1.1403 -0.3232  0.5831
  844MOL0     C11304  11.416   9.499   3.931 -1.4494 -0.3812 -0.1992
  844MOL0     C11305  11.562   9.492   3.911 -0.3924 -0.5037  0.0664
  844MOL0     O11306  11.632   9.381   3.950 -0.1441  0.2762 -0.2737
  844MOL0     C11307  11.758   9.346   3.904  0.2103  0.6292  0.0904
  844MOL0     C11308  11.869   9.433   3.884  0.5535 -0.8554  0.6816
  844MOL0     C11309  12.002   9.391   3.842  0.7452 -0.6167 -0.2678
  844MOL0     C11310  12.021   9.258   3.796  0.3130 -0.1566 -0.3623
  844MOL0     O11311  12.137   9.211   3.736 -0.3764 -0.7393 -0.1912
  844MOL0     C11312  12.247   9.299   3.718 -0.6483  0.6078 -0.6952
  844MOL0     C11313  12.249   9.353   3.576  0.0808 -0.2556 -0.5403
  844MOL0     C11314  12.316   9.263   3.472  0.2109  0.7272 -0.1838
  844MOL0     C11315  12.308   9.305   3.328 -0.6053  0.3571  0.2241
  844MOL0     C11316  12.347   9.197   3.233  0.7143 -0.5818  0.5148
  844MOL0     C11317  12.349   9.251   3.089  0.2704 -0.2447 -0.6420
  844MOL0     C11318  12.407   9.141   2.991  0.5761  0.0298 -0.2945
  844MOL0     C11319  12.377   9.194   2.854 -0.1849  0.3189 -0.1698
  844MOL0    Cl11320  12.476   9.335   2.790  0.3306 -0.3346 -0.5041
  844MOL0     C11321  11.920   9.168   3.830  0.6928 -0.3471  0.0704
  844MOL0     C11322  11.793   9.213   3.881 -0.4950 -0.5812 -0.0522
  844MOL0     O11323  11.616   9.599   3.867 -0.6362 -0.2129  0.3027
  844MOL0     C11324  11.338   9.601   3.879  0.4071 -0.2583  0.0952
  844MOL0     C11325  11.203   9.610   3.913 -0.1383  0.0052  0.0865
  844MOL0     N11326  10.485   9.361   4.169  0.2978 -0.1576 -0.3390
  844MOL0     N11327  10.388   9.304   4.222  0.3147 -0.0545  0.7239
  844MOL0     C11328  10.100   9.193   3.653  0.1645  0.1815 -1.0810
  844MOL0     C11329  10.236   9.223   3.638 -0.4655  0.1505 -0.2931
  844MOL0     C11330  10.653   9.360   3.543  0.3867  0.0007 -0.3756
  844MOL0     C11331  10.753   9.289   3.473 -1.0453 -0.1911  0.1267
  844MOL0     C11332  10.881   9.335   3.477  0.0171 -0.3735  0.7470
  844MOL0     C11333  10.915   9.454   3.549 -0.3959  0.0542  0.3010
  844MOL0     O11334  11.046   9.493   3.535 -0.5662  0.0698 -0.6528
  844MOL0     C11335  11.083   9.622   3.586 -0.3841 -0.3330 -0.7611
  844MOL0     C11336  11.096   9.726   3.480 -0.1226 -0.6395 -0.2884
  844MOL0     C11337  10.967   9.749   3.398  0.5012  0.6040 -0.3576
  844MOL0     C11338  10.975   9.846   3.283 -0.5363  0.0419  0.9769
  844MOL0     C11339  10.867   9.836   3.177 -0.6968 -0.0711 -0.8421
  844MOL0     C11340  10.767   9.833   3.103  0.0697 -0.0077  0.3070
  844MOL0     C11341  10.816   9.523   3.618  0.6009  0.4432  0.8697
  844MOL0     C11342  10.686   9.478   3.613 -0.5009 -0.6567  0.3381
  844MOL0     H11343  10.206   9.543   3.512 -0.3860  0.2937  1.2955
  844MOL0     H11344   9.965   9.485   3.521  0.8589 -0.6931 -1.8988
  844MOL0     H11345   9.725   9.365   3.528 -1.7922  4.0218 -0.0063
  844MOL0     H11346   9.799   9.442   3.673 -1.8177 -0.0810  2.3650
  844MOL0     H11347   9.662   9.186   3.717 -0.7635 -0.2310 -0.3218
  844MOL0     H11348   9.551   9.320   3.686 -1.3083  0.1983  1.6487
  844MOL0     H11349   9.587   9.276   3.928  1.0397 -0.0364  1.1220
  844MOL0     H11350   9.649   9.439   3.894  1.1540  0.2349  2.5331
  844MOL0     H11351   9.828   9.193   3.904  1.0298  0.1005  0.0626
  844MOL0     H11352   9.885   9.357   3.877 -0.4539 -1.1552 -1.5924
  844MOL0     H11353   9.716   9.290   4.122  0.0874 -0.0846 -2.2336
  844MOL0     H11354   9.824   9.430   4.095  1.9410  0.6182 -0.9289
  844MOL0     H11355   9.917   9.146   4.135 -0.9590  0.1704  0.9457
  844MOL0     H11356   9.927   9.264   4.256  2.2339 -4.1411  0.3331
  844MOL0     H11357  10.059   9.314   3.995 -0.0043 -1.3369 -0.5231
  844MOL0     H11358  10.055   9.409   4.151  0.6150 -1.5831  1.8297
  844MOL0     H11359  10.165   9.135   4.115 -0.4302  0.1782  0.3108
  844MOL0     H11360  10.157   9.219   4.267  1.7961  0.2402  0.2961
  844MOL0     H11361  10.284   9.383   3.922  0.2392 -2.5429 -0.4589
  844MOL0     H11362  10.506   9.594   3.979  2.3842  1.2633  1.6239
  844MOL0     H11363  10.555   9.473   3.860 -0.1890 -0.6644  0.4699
  844MOL0     H11364  10.678   9.515   4.129 -2.2500 -0.0249 -0.0663
  844MOL0     H11365  10.753   9.580   3.986  1.4813 -0.5767 -1.0315
  844MOL0     H11366  10.746   9.296   4.072 -0.6668 -1.7195 -1.7333
  844MOL0     H11367  10.779   9.336   3.905  3.1124 -1.1851  0.3805
  844MOL0     H11368  10.969   9.287   4.024 -2.3591 -1.9110  0.4849
  844MOL0     H11369  10.916   9.390   4.166  1.5148  3.3443 -0.3543
  844MOL0     H11370  11.182   9.319   4.091 -3.2878 -0.3712 -3.5089
  844MOL0     H11371  11.429   9.334   4.073 -1.0816 -2.6472  0.5200
  844MOL0     H11372  11.861   9.541   3.893 -2.4157 -1.0235  0.8436
  844MOL0     H11373  12.073   9.472   3.852 -2.4815  2.1301  3.7746
  844MOL0     H11374  12.339   9.245   3.739 -0.8189  0.0103 -1.4506
  844MOL0     H11375  12.253   9.375   3.797  0.0793 -2.1897  2.1077
  844MOL0     H11376  12.305   9.447   3.573 -1.1350  0.4773 -1.8513
  844MOL0     H11377  12.147   9.365   3.538 -0.0453  1.4023  0.2244
  844MOL0     H11378  12.273   9.162   3.479  0.3692  0.7155  0.7034
  844MOL0     H11379  12.421   9.256   3.501 -0.4867 -1.4920  2.2030
  844MOL0     H11380  12.206   9.337   3.306 -1.4129 -1.1711  1.5516
  844MOL0     H11381  12.388   9.379   3.317  1.7830 -1.8471  1.4760
  844MOL0     H11382  12.268   9.121   3.235 -2.5563  2.3951 -2.1029
  844MOL0     H11383  12.446   9.166   3.268 -0.9364 -2.6658  3.8452
  844MOL0     H11384  12.403   9.345   3.076 -1.4921  0.6000 -2.3816
  844MOL0     H11385  12.243   9.261   3.065  0.7340  2.8382 -1.7877
  844MOL0     H11386  12.514   9.116   2.993  0.1675 -2.2212  3.5106
  844MOL0     H11387  12.339   9.057   3.009 -0.4898  0.7470 -0.8728
  844MOL0     H11388  12.274   9.228   2.845 -0.4754 -0.5643 -0.2226
  844MOL0     H11389  12.389   9.108   2.787 -1.8768 -0.7445  0.8228
  844MOL0     H11390  11.940   9.065   3.802 -0.3488 -0.3416 -0.7626
  844MOL0     H11391  11.711   9.145   3.899  0.0030 -0.9058  1.0722
  844MOL0     H11392  11.377   9.681   3.817 -1.1578 -0.6033 -1.4166
  844MOL0     H11393  11.124   9.683   3.894  0.6898  1.0770  0.6892
  844MOL0     H11394  10.081   9.100   3.705 -0.2346  0.5727 -0.5194
  844MOL0     H11395  10.316   9.156   3.667  0.5027  0.7238 -1.5303
  844MOL0     H11396  10.748   9.192   3.425  0.7235 -1.4392  2.2589
  844MOL0     H11397  10.964   9.279   3.434 -0.3731 -0.5592  0.2191
  844MOL0     H11398  11.180   9.610   3.635 -0.9086 -3.6698 -0.3051
  844MOL0     H11399  11.022   9.658   3.670 -0.5704 -4.0646  0.8877
  844MOL0     H11400  11.128   9.821   3.524 -2.1307 -0.3274  0.6182
  844MOL0     H11401  11.180   9.694   3.418 -1.9758  0.0209 -3.3513
  844MOL0     H11402  10.896   9.801   3.463 -0.0367  1.2630 -1.4365
  844MOL0     H11403  10.928   9.662   3.345  0.3514  1.0246 -0.9578
  844MOL0     H11404  10.961   9.946   3.325 -1.3952 -0.5257  2.0923
  844MOL0     H11405  11.078   9.839   3.247  0.0024 -1.7853  2.6786
  844MOL0     H11406  10.678   9.823   3.045 -1.3608  0.9279  2.2321
  844MOL0     H11407  10.831   9.608   3.684 -1.6665 -0.2654  2.3968
  844MOL0     H11408  10.624   9.547   3.669 -1.0625 -0.2275 -0.7778
  845MOL0     O11409   1.087   8.629   6.564 -0.5331 -0.3008  0.5807
  845MOL0     C11410   1.087   8.518   6.617  0.2143 -0.6871  0.3178
  845MOL0     O11411   0.984   8.436   6.620  0.3278 -0.3882 -0.5772
  845MOL0     C11412   0.868   8.471   6.561 -0.8341  0.0261 -0.5087
  845MOL0     C11413   0.854   8.462   6.424 -0.9123 -0.4693  0.7763
  845MOL0     C11414   0.732   8.487   6.369  0.4413  0.2815  0.4367
  845MOL0     C11415   0.617   8.518   6.452 -0.0712  1.0532  1.0402
  845MOL0     O11416   0.493   8.512   6.388 -0.0011 -0.4769 -0.2603
  845MOL0     C11417   0.412   8.629   6.390  0.3903  0.6441 -0.1302
  845MOL0     C11418   0.276   8.574   6.448 -1.4463  0.5879  0.0926
  845MOL0     C11419   0.278   8.541   6.602 -0.5808 -0.0565 -0.2102
  845MOL0     C11420   0.281   8.661   6.694 -1.2740  0.8272  0.6370
  845MOL0     C11421   0.304   8.613   6.844  0.2738 -0.3646 -0.3361
  845MOL0     C11422   0.383   8.712   6.929  0.3803  0.3878  0.3963
  845MOL0     C11423   0.403   8.677   7.082  1.5528  0.4238  0.2657
  845MOL0     C11424   0.272   8.658   7.158  0.2241  0.3346 -0.6215
  845MOL0     N11425   0.184   8.772   7.170  0.0021  1.0453  0.0626
  845MOL0     C11426   0.233   8.895   7.170 -0.7071  0.1681  0.5727
  845MOL0     C11427   0.125   8.978   7.182  0.3600 -1.0904  0.5460
  845MOL0     C11428   0.101   9.129   7.162 -0.3152  0.0188  0.4915
  845MOL0     C11429   0.190   9.179   7.040  0.9100  0.0589  0.6004
  845MOL0     C11430   0.167   9.329   7.012 -0.2362 -0.3188  0.8944
  845MOL0     C11431   0.025   9.352   6.932 -0.2448  0.0133 -0.5843
  845MOL0     O11432  -0.078   9.307   7.028  0.0837  0.2010  0.4836
  845MOL0     C11433  -0.207   9.321   6.988 -0.2897 -0.6426  0.4207
  845MOL0     C11434  -0.272   9.206   6.961  0.0044 -0.2421  0.8450
  845MOL0     C11435  -0.398   9.205   6.895 -0.2908 -0.4252  0.4059
  845MOL0     C11436  -0.469   9.322   6.872  0.7607  0.0377 -0.4164
  845MOL0     C11437  -0.613   9.317   6.837  0.0170  0.9339  0.6169
  845MOL0     O11438  -0.661   9.191   6.862  0.7228 -0.2475  0.2210
  845MOL0     C11439  -0.789   9.172   6.825  0.5999  0.5074  0.6055
  845MOL0     C11440  -0.822   9.132   6.697 -0.2342  1.0970  0.0808
  845MOL0     C11441  -0.963   9.106   6.665 -0.3585 -0.4113 -0.1949
  845MOL0     C11442  -1.066   9.123   6.763  0.1093 -0.5307 -0.6984
  845MOL0     O11443  -1.197   9.108   6.733 -0.2287 -0.1742  0.0592
  845MOL0     C11444  -1.237   9.026   6.619 -0.4851 -0.1628 -0.2772
  845MOL0     C11445  -1.393   8.994   6.611 -0.1384 -0.2323  0.0539
  845MOL0     C11446  -1.429   8.940   6.474 -0.9000  0.3208  0.0943
  845MOL0     C11447  -1.557   8.852   6.479 -0.8648  0.2227  0.1956
  845MOL0     C11448  -1.525   8.701   6.533 -0.4637 -0.0149  0.0748
  845MOL0     C11449  -1.569   8.611   6.419  0.2177 -0.6137  0.0905
  845MOL0     C11450  -1.713   8.587   6.422 -0.7306  0.0811  0.8154
  845MOL0     C11451  -1.765   8.532   6.290 -0.2885  0.5037 -1.3367
  845MOL0    Cl11452  -1.928   8.455   6.320  0.1843  0.1371 -0.1795
  845MOL0     C11453  -1.033   9.168   6.887 -0.3621 -0.4210  0.8414
  845MOL0     C11454  -0.892   9.190   6.915  0.1187  0.4849  0.2125
  845MOL0     O11455  -0.678   9.415   6.788 -1.0660  0.4510 -0.0611
  845MOL0     C11456  -0.410   9.441   6.903 -1.0269 -0.6042 -0.2174
  845MOL0     C11457  -0.274   9.439   6.951 -0.2442  0.0445 -0.2823
  845MOL0     N11458   0.012   8.897   7.172  0.4484  0.3414  0.6691
  845MOL0     N11459   0.047   8.774   7.166  0.0683 -0.0480 -0.6870
  845MOL0     C11460   0.635   8.539   6.582 -0.2070  0.0283 -0.4157
  845MOL0     C11461   0.760   8.517   6.639  0.1409  0.4433  0.0184
  845MOL0     C11462   1.210   8.470   6.665  0.7101  0.7731 -0.8086
  845MOL0     C11463   1.226   8.344   6.734 -0.5872 -0.3001 -0.2008
  845MOL0     C11464   1.356   8.287   6.749  0.1423  0.2076  0.6523
  845MOL0     C11465   1.468   8.360   6.721  1.0257 -0.1711  0.9065
  845MOL0     O11466   1.578   8.291   6.766 -0.8136 -0.1958 -0.1431
  845MOL0     C11467   1.704   8.359   6.764 -0.5880  0.4718  0.6906
  845MOL0     C11468   1.808   8.278   6.852  0.1185 -0.2078 -0.7403
  845MOL0     C11469   1.943   8.349   6.866  0.1863 -1.4650  0.0894
  845MOL0     C11470   2.029   8.291   6.976 -0.3187  0.0301  0.2287
  845MOL0     C11471   1.992   8.327   7.119  0.2658  0.0638  0.0495
  845MOL0     C11472   1.965   8.378   7.231 -1.2902 -0.2427 -0.2215
  845MOL0     C11473   1.456   8.493   6.669 -0.4604  0.1725  0.0428
  845MOL0     C11474   1.325   8.544   6.638  0.9287  0.5508 -0.0637
  845MOL0     H11475   0.942   8.435   6.366  0.0666 -1.8951  2.8297
  845MOL0     H11476   0.736   8.480   6.260  1.5701  4.6815  0.0015
  845MOL0     H11477   0.399   8.675   6.291 -1.8943  2.7642  1.0532
  845MOL0     H11478   0.447   8.708   6.457 -1.3052  1.7505 -0.4764
  845MOL0     H11479   0.254   8.481   6.395  5.2203 -0.7056 -1.3447
  845MOL0     H11480   0.196   8.644   6.424 -1.5455 -0.1124 -1.8060
  845MOL0     H11481   0.358   8.469   6.624  0.7877  1.9287  1.7189
  845MOL0     H11482   0.182   8.492   6.617  0.0298 -1.4542 -0.6658
  845MOL0     H11483   0.359   8.729   6.658 -0.3435  0.2221  1.4832
  845MOL0     H11484   0.181   8.706   6.685 -0.7969  1.6626 -1.0350
  845MOL0     H11485   0.358   8.518   6.844 -1.9306 -1.6739 -1.5265
  845MOL0     H11486   0.207   8.587   6.887  0.4256  0.0404  0.2709
  845MOL0     H11487   0.344   8.811   6.908  0.4255 -0.3429 -4.2968
  845MOL0     H11488   0.483   8.702   6.885 -0.1435 -0.0122 -0.7558
  845MOL0     H11489   0.471   8.591   7.081 -0.4246 -1.2114 -0.8634
  845MOL0     H11490   0.467   8.751   7.131  4.5856 -1.9796  0.2147
  845MOL0     H11491   0.311   8.624   7.255 -0.9429  1.3675  0.2382
  845MOL0     H11492   0.226   8.572   7.108  1.3200 -0.6524  0.0066
  845MOL0     H11493   0.340   8.913   7.183  0.4099 -5.0427  0.7825
  845MOL0     H11494   0.150   9.175   7.248  4.1654  0.8565 -2.1719
  845MOL0     H11495  -0.005   9.155   7.160 -0.1239  0.8092  0.1546
  845MOL0     H11496   0.172   9.127   6.945 -1.7355 -3.4706  2.7486
  845MOL0     H11497   0.293   9.163   7.074  1.1725 -0.1013 -0.2599
  845MOL0     H11498   0.180   9.380   7.108 -4.5481  2.3214  0.3611
  845MOL0     H11499   0.255   9.371   6.962 -1.4503  0.6674 -0.5021
  845MOL0     H11500   0.021   9.301   6.835 -0.4105 -1.2560  0.0841
  845MOL0     H11501   0.019   9.461   6.926 -3.2129  0.0872  1.8564
  845MOL0     H11502  -0.212   9.116   6.974  0.8442 -0.5216 -3.3999
  845MOL0     H11503  -0.438   9.109   6.863 -2.6257  0.5474  0.1817
  845MOL0     H11504  -0.748   9.111   6.620 -1.5477  0.1752 -0.9793
  845MOL0     H11505  -0.992   9.078   6.564  0.5881 -0.6461 -0.4176
  845MOL0     H11506  -1.179   8.933   6.617  0.9763  0.6892  0.8629
  845MOL0     H11507  -1.222   9.084   6.527 -1.0694 -0.3005 -0.4702
  845MOL0     H11508  -1.449   9.087   6.616  1.0397  0.8375 -3.5014
  845MOL0     H11509  -1.432   8.929   6.689 -2.5100  1.1696  0.1354
  845MOL0     H11510  -1.351   8.874   6.433 -2.4592 -2.4679  1.3077
  845MOL0     H11511  -1.448   9.018   6.400 -2.3779 -2.0530 -2.1685
  845MOL0     H11512  -1.639   8.895   6.538 -2.0424 -0.8962 -0.5625
  845MOL0     H11513  -1.603   8.842   6.380  1.4170  0.8402 -0.9841
  845MOL0     H11514  -1.575   8.675   6.627 -1.1124 -1.7517 -0.7079
  845MOL0     H11515  -1.419   8.691   6.557  0.0651  1.6883 -1.3165
  845MOL0     H11516  -1.511   8.518   6.428 -1.2736 -2.1120 -3.7508
  845MOL0     H11517  -1.544   8.656   6.323 -2.0152  1.0431  0.1976
  845MOL0     H11518  -1.738   8.517   6.502 -0.8123 -1.1411 -0.2482
  845MOL0     H11519  -1.764   8.681   6.446 -2.6092 -1.3461  2.8407
  845MOL0     H11520  -1.699   8.450   6.262 -2.0978 -0.9976 -1.4510
  845MOL0     H11521  -1.772   8.609   6.212  1.9322 -1.4885 -3.6995
  845MOL0     H11522  -1.101   9.200   6.965 -0.9375  2.0177 -0.5318
  845MOL0     H11523  -0.870   9.207   7.020 -1.8237  2.1661  0.4337
  845MOL0     H11524  -0.452   9.538   6.878  1.7937  1.8743  3.4431
  845MOL0     H11525  -0.217   9.531   6.948  0.3847 -0.3571 -2.2378
  845MOL0     H11526   0.557   8.564   6.653 -0.9334 -0.4549 -1.0258
  845MOL0     H11527   0.782   8.536   6.743  3.7917 -2.2468 -0.0709
  845MOL0     H11528   1.135   8.286   6.749 -0.0116 -1.2120 -0.1881
  845MOL0     H11529   1.363   8.187   6.789 -1.3942  0.2989  1.1936
  845MOL0     H11530   1.700   8.461   6.803  1.8880  0.8534  0.1210
  845MOL0     H11531   1.728   8.363   6.658  1.7471  0.0780  1.1364
  845MOL0     H11532   1.764   8.276   6.952 -0.4598  2.6347 -0.8520
  845MOL0     H11533   1.809   8.178   6.806 -2.7224 -0.6762  0.0287
  845MOL0     H11534   1.947   8.456   6.888  0.8509 -1.7586  1.4976
  845MOL0     H11535   2.001   8.332   6.775 -0.8422 -1.9840 -0.4896
  845MOL0     H11536   2.042   8.182   6.979 -1.0001 -0.0560  3.7064
  845MOL0     H11537   2.132   8.323   6.959  0.4236 -0.9290  2.5328
  845MOL0     H11538   1.939   8.429   7.321  1.0039 -0.0614  0.3990
  845MOL0     H11539   1.550   8.537   6.638  0.0055 -1.7950 -1.5746
  845MOL0     H11540   1.317   8.641   6.589  0.1331  0.1925 -0.6653
  846MOL0     O11541   1.534   3.940  11.233  0.7530  0.0881 -0.3975
  846MOL0     C11542   1.623   3.947  11.321 -0.7091 -0.4786 -0.7242
  846MOL0     O11543   1.617   4.014  11.437 -0.2787  0.3053 -0.8624
  846MOL0     C11544   1.511   4.090  11.458  0.7299 -0.6155 -0.2228
  846MOL0     C11545   1.382   4.034  11.474  0.1355  0.0352 -0.4799
  846MOL0     C11546   1.270   4.116  11.505 -0.1013 -0.4224  0.3164
  846MOL0     C11547   1.294   4.258  11.519 -0.2629 -0.5393  0.5241
  846MOL0     O11548   1.195   4.353  11.547 -0.1750  0.4803  0.1112
  846MOL0     C11549   1.058   4.315  11.513  0.2236  0.4019  0.0814
  846MOL0     C11550   0.989   4.430  11.449 -0.2221 -0.2460 -0.5943
  846MOL0     C11551   1.039   4.455  11.309 -0.1352  0.3690 -0.2329
  846MOL0     C11552   0.951   4.553  11.226 -0.1210  0.0022 -0.1954
  846MOL0     C11553   0.949   4.513  11.081 -0.4711 -0.9703 -0.6898
  846MOL0     C11554   0.849   4.402  11.063 -0.3162 -0.9088  0.5647
  846MOL0     C11555   0.811   4.376  10.919  0.0902  0.7416  0.2365
  846MOL0     C11556   0.722   4.479  10.846  0.6020  0.4927  0.0976
  846MOL0     N11557   0.620   4.532  10.934 -0.5940 -0.0235 -0.6291
  846MOL0     C11558   0.520   4.457  10.993  0.6572 -0.0699 -0.3208
  846MOL0     C11559   0.477   4.532  11.101 -0.1762 -0.0939 -0.1026
  846MOL0     C11560   0.354   4.501  11.182 -0.3188 -0.0990  1.0842
  846MOL0     C11561   0.228   4.570  11.116 -0.7258 -0.1311 -0.5929
  846MOL0     C11562   0.110   4.548  11.210  0.2660 -0.5333  0.0415
  846MOL0     C11563   0.002   4.655  11.191  0.5813 -0.0112  0.1663
  846MOL0     O11564  -0.095   4.649  11.288 -0.8804  0.3674 -0.0332
  846MOL0     C11565  -0.201   4.741  11.291  0.0692 -0.5483 -0.0055
  846MOL0     C11566  -0.238   4.829  11.187  1.2518 -0.3565 -0.6712
  846MOL0     C11567  -0.356   4.907  11.194  0.4860  0.1336  0.1475
  846MOL0     C11568  -0.440   4.887  11.303 -0.1220 -0.4640  0.5590
  846MOL0     C11569  -0.576   4.961  11.294 -0.6786  0.0719  0.0682
  846MOL0     O11570  -0.588   5.093  11.272  0.5724 -0.4369  0.1791
  846MOL0     C11571  -0.714   5.143  11.245  0.7120 -0.5049  0.2641
  846MOL0     C11572  -0.791   5.122  11.127  0.2726  0.1933  0.5142
  846MOL0     C11573  -0.917   5.183  11.113  0.2588  0.5951 -0.1875
  846MOL0     C11574  -0.978   5.256  11.213  0.8773 -0.1035  0.3019
  846MOL0     O11575  -1.093   5.328  11.196  0.2057 -0.4765  0.2127
  846MOL0     C11576  -1.216   5.256  11.164 -0.0921 -1.2738  0.4541
  846MOL0     C11577  -1.312   5.350  11.076 -0.6873 -0.5461  0.6881
  846MOL0     C11578  -1.365   5.473  11.142  0.7517  0.2559  1.0381
  846MOL0     C11579  -1.406   5.583  11.049 -0.3722  0.2726 -0.1951
  846MOL0     C11580  -1.522   5.559  10.955  0.1320  0.0384 -0.2117
  846MOL0     C11581  -1.562   5.687  10.875  0.1496  0.5462  0.0704
  846MOL0     C11582  -1.634   5.789  10.965  0.1633 -0.8054 -0.2288
  846MOL0     C11583  -1.770   5.752  11.031 -0.8711  0.5185  0.0738
  846MOL0    Cl11584  -1.886   5.752  10.893 -0.3261 -0.0416  0.2052
  846MOL0     C11585  -0.902   5.276  11.326  0.2978  0.6390  0.0724
  846MOL0     C11586  -0.763   5.232  11.333  0.2662  0.0555  0.1061
  846MOL0     O11587  -0.666   4.882  11.298  0.6306  0.1832  0.3068
  846MOL0     C11588  -0.402   4.801  11.398  0.4249  0.0555  0.1644
  846MOL0     C11589  -0.286   4.726  11.396 -0.1332 -0.2351  0.1158
  846MOL0     N11590   0.526   4.662  11.080 -0.3898 -0.2371  0.1840
  846MOL0     N11591   0.622   4.651  10.990 -0.2071 -0.2901  0.1701
  846MOL0     C11592   1.427   4.307  11.501  0.0168 -0.8235 -0.6091
  846MOL0     C11593   1.531   4.226  11.472  0.1029  0.8609  1.0828
  846MOL0     C11594   1.746   3.871  11.297  0.1447 -1.1496  0.5190
  846MOL0     C11595   1.860   3.886  11.384  0.9341 -0.0061 -0.2174
  846MOL0     C11596   1.974   3.820  11.357  0.3723 -0.2323  0.1026
  846MOL0     C11597   1.990   3.749  11.235 -0.3991  0.2877 -0.2463
  846MOL0     O11598   2.114   3.684  11.219  0.1060  0.3267 -0.0565
  846MOL0     C11599   2.168   3.669  11.086 -0.2179  0.4091 -0.3847
  846MOL0     C11600   2.324   3.651  11.093  0.6544 -1.3061 -0.3591
  846MOL0     C11601   2.401   3.649  10.958  0.1850  0.0183 -0.2736
  846MOL0     C11602   2.548   3.620  10.983  1.0365  0.3065 -0.5655
  846MOL0     C11603   2.572   3.482  11.031  0.1283 -1.3546 -0.0219
  846MOL0     C11604   2.559   3.365  11.063 -0.2551 -0.5746 -0.9406
  846MOL0     C11605   1.887   3.752  11.140  0.1959 -0.9732 -0.1401
  846MOL0     C11606   1.765   3.811  11.179 -0.4769  0.4801 -0.4337
  846MOL0     H11607   1.361   3.927  11.479  0.1976  0.0330 -0.2402
  846MOL0     H11608   1.171   4.072  11.512  0.5607 -1.7051  3.0779
  846MOL0     H11609   1.011   4.274  11.603 -2.7998  1.6596 -0.8038
  846MOL0     H11610   1.052   4.238  11.434 -2.0280  2.2435 -1.6989
  846MOL0     H11611   1.017   4.520  11.504 -0.1169 -1.5650  1.6413
  846MOL0     H11612   0.881   4.422  11.436 -0.0801 -0.3426 -1.7714
  846MOL0     H11613   1.041   4.357  11.261  0.8794  0.1331  0.2584
  846MOL0     H11614   1.140   4.497  11.311  1.1165 -2.3952 -0.6370
  846MOL0     H11615   0.850   4.572  11.264 -0.9819 -0.3875 -2.1910
  846MOL0     H11616   0.999   4.651  11.238 -1.5871  0.6750  0.3051
  846MOL0     H11617   1.044   4.467  11.052 -0.6795 -2.4365  0.7762
  846MOL0     H11618   0.930   4.608  11.030 -2.5548 -1.0018 -0.0333
  846MOL0     H11619   0.764   4.421  11.131 -0.4985 -3.0992  1.0513
  846MOL0     H11620   0.891   4.309  11.102  0.2130 -0.4673  1.0635
  846MOL0     H11621   0.902   4.377  10.858 -1.5362 -2.1313 -2.5894
  846MOL0     H11622   0.774   4.273  10.919  1.4479  0.2200 -0.9774
  846MOL0     H11623   0.675   4.442  10.755  1.7975  1.9457 -1.1752
  846MOL0     H11624   0.794   4.557  10.817  0.6878 -0.3853 -2.3022
  846MOL0     H11625   0.473   4.365  10.962 -0.3945 -0.6830  2.7198
  846MOL0     H11626   0.387   4.540  11.278  3.4764 -0.2206  0.0253
  846MOL0     H11627   0.334   4.393  11.183 -0.5817 -0.3087 -3.4525
  846MOL0     H11628   0.208   4.532  11.015 -0.7744  0.1519 -0.6925
  846MOL0     H11629   0.251   4.677  11.107  0.6543 -0.4243 -0.8086
  846MOL0     H11630   0.068   4.448  11.192  0.3520 -0.5052 -0.3261
  846MOL0     H11631   0.147   4.550  11.313 -1.3112 -0.1922  0.6408
  846MOL0     H11632  -0.042   4.638  11.092 -1.6836 -1.1440  1.3014
  846MOL0     H11633   0.033   4.760  11.201 -1.0480  0.3458  1.9187
  846MOL0     H11634  -0.184   4.835  11.093  1.1489 -2.5972 -0.9099
  846MOL0     H11635  -0.373   4.978  11.114 -2.8897  0.7728  1.2416
  846MOL0     H11636  -0.744   5.075  11.040 -1.3669 -1.0426  0.2574
  846MOL0     H11637  -0.977   5.171  11.023  0.7172  1.0452 -0.5640
  846MOL0     H11638  -1.263   5.232  11.260  0.9176  0.9813  1.5850
  846MOL0     H11639  -1.190   5.165  11.110  0.1800 -0.3101 -1.0930
  846MOL0     H11640  -1.407   5.300  11.054 -1.1020  0.6299 -0.3355
  846MOL0     H11641  -1.273   5.376  10.977  0.4492  1.6532  1.6527
  846MOL0     H11642  -1.295   5.507  11.218 -0.1848 -1.3242  2.6735
  846MOL0     H11643  -1.451   5.451  11.206  0.2715  1.1779  0.7357
  846MOL0     H11644  -1.445   5.668  11.106 -0.9946 -0.5190  0.5843
  846MOL0     H11645  -1.312   5.624  11.011 -0.9740  1.2462 -0.6505
  846MOL0     H11646  -1.611   5.517  11.002 -0.5227  1.2154 -0.3590
  846MOL0     H11647  -1.497   5.482  10.882 -3.8680 -2.2871  0.6047
  846MOL0     H11648  -1.640   5.656  10.804  1.5995 -2.6319 -0.2996
  846MOL0     H11649  -1.477   5.728  10.819  1.9875 -0.3153  2.1214
  846MOL0     H11650  -1.566   5.823  11.044 -3.1798 -0.4103  2.7605
  846MOL0     H11651  -1.657   5.879  10.907 -0.9748 -0.8198  0.1731
  846MOL0     H11652  -1.800   5.824  11.108 -1.7203 -0.6368  0.8594
  846MOL0     H11653  -1.754   5.651  11.069 -0.1514  0.4046 -0.5093
  846MOL0     H11654  -0.950   5.341  11.399 -2.9011  0.1304 -1.3822
  846MOL0     H11655  -0.711   5.253  11.426 -1.6596 -0.0956  1.2868
  846MOL0     H11656  -0.473   4.781  11.478  0.4826  0.7905  0.4037
  846MOL0     H11657  -0.267   4.657  11.478 -2.4060 -2.0428 -0.7429
  846MOL0     H11658   1.456   4.411  11.514  2.8705 -1.7643  1.9868
  846MOL0     H11659   1.628   4.273  11.457 -0.0068  0.9721  0.7083
  846MOL0     H11660   1.851   3.958  11.465 -3.2448 -0.8794  0.3598
  846MOL0     H11661   2.057   3.823  11.428 -0.6881  2.6476  1.3734
  846MOL0     H11662   2.163   3.768  11.039 -0.1244  0.3763 -0.4639
  846MOL0     H11663   2.127   3.590  11.022  1.2365 -1.4480  0.8757
  846MOL0     H11664   2.372   3.722  11.161  1.9040 -0.4633 -2.0365
  846MOL0     H11665   2.344   3.555  11.141  2.8084  0.0837  1.7796
  846MOL0     H11666   2.393   3.742  10.901 -2.0575 -1.8025 -3.2208
  846MOL0     H11667   2.355   3.571  10.897 -0.3231 -1.3091  1.7031
  846MOL0     H11668   2.590   3.647  10.886 -1.3053  4.2850 -0.6844
  846MOL0     H11669   2.584   3.692  11.056 -0.6845 -2.0561  2.9058
  846MOL0     H11670   2.547   3.264  11.096  1.8259 -0.4336  0.3900
  846MOL0     H11671   1.895   3.689  11.052 -2.2560 -4.9376  2.1683
  846MOL0     H11672   1.687   3.798  11.105 -2.2373 -0.2278  1.4493
  847MOL0     O11673   9.925   3.820   0.036 -0.2106  0.7984  0.2784
  847MOL0     C11674   9.896   3.878   0.142 -0.0932 -0.0293  0.3641
  847MOL0     O11675   9.931   3.839   0.270 -0.2331 -0.1525  0.4256
  847MOL0     C11676  10.038   3.754   0.273  0.5561  1.0398  0.8450
  847MOL0     C11677  10.166   3.792   0.237  0.5467 -0.5776 -0.6932
  847MOL0     C11678  10.281   3.707   0.256 -0.3970 -0.2886 -0.0662
  847MOL0     C11679  10.264   3.576   0.300  0.2040 -0.3190 -0.2040
  847MOL0     O11680  10.372   3.491   0.314 -0.1743 -0.2230  0.1690
  847MOL0     C11681  10.354   3.342   0.321 -0.2821 -0.9314  0.3630
  847MOL0     C11682  10.497   3.298   0.346  0.2327 -0.6885 -0.2994
  847MOL0     C11683  10.537   3.338   0.490 -0.0354  0.3378  0.6809
  847MOL0     C11684  10.662   3.268   0.525 -0.4854  0.1761 -0.2266
  847MOL0     C11685  10.709   3.304   0.661 -0.6374  0.1312  0.7107
  847MOL0     C11686  10.823   3.208   0.704 -1.1985 -0.6268 -0.5237
  847MOL0     C11687  10.844   3.219   0.851  0.0972  0.3614  0.1824
  847MOL0     C11688  10.921   3.345   0.905  0.2589  0.2531  1.0422
  847MOL0     N11689  11.060   3.339   0.860  1.0053  0.5522 -0.4132
  847MOL0     C11690  11.159   3.278   0.935 -0.1307 -0.4914  0.2782
  847MOL0     C11691  11.275   3.331   0.884 -0.5019  0.2895 -0.5937
  847MOL0     C11692  11.414   3.313   0.951 -0.9604 -0.2234  0.4008
  847MOL0     C11693  11.523   3.304   0.842  0.1569  0.1705 -0.2672
  847MOL0     C11694  11.649   3.222   0.884  0.6069 -1.0555  0.0627
  847MOL0     C11695  11.654   3.163   1.027 -0.0055  0.8966 -0.9272
  847MOL0     O11696  11.647   3.249   1.144 -0.2336 -0.3902  0.1805
  847MOL0     C11697  11.750   3.332   1.164  0.2145  0.1258  0.4876
  847MOL0     C11698  11.853   3.268   1.236 -0.2485 -0.3900  0.3881
  847MOL0     C11699  11.965   3.340   1.273 -0.0514 -0.4075 -0.5850
  847MOL0     C11700  11.974   3.480   1.243  0.3198  0.8889  0.7136
  847MOL0     C11701  12.092   3.559   1.273  0.8716 -0.2054 -0.0578
  847MOL0     O11702  12.159   3.538   1.391  0.1711  0.2836  0.2574
  847MOL0     C11703  12.290   3.575   1.411 -0.7104 -1.1223  0.3981
  847MOL0     C11704  12.370   3.621   1.301  0.8708  0.5079 -0.0202
  847MOL0     C11705  12.484   3.697   1.330 -1.0170 -0.8732  0.7352
  847MOL0     C11706  12.531   3.710   1.462  0.1170  0.3704 -0.2907
  847MOL0     O11707  12.651   3.776   1.485 -0.0035 -0.5137  0.5350
  847MOL0     C11708  12.673   3.836   1.617  1.4189  0.6013  0.5454
  847MOL0     C11709  12.799   3.915   1.609  0.3811 -0.1651  0.6864
  847MOL0     C11710  12.921   3.826   1.560  0.3675 -0.9163  0.1785
  847MOL0     C11711  12.922   3.773   1.412 -0.0083 -0.0956 -0.8937
  847MOL0     C11712  13.060   3.783   1.336 -0.7136 -0.3965  0.1153
  847MOL0     C11713  13.177   3.712   1.392  0.0114  0.9271 -0.5003
  847MOL0     C11714  13.288   3.680   1.293 -0.1310  0.4327  0.0057
  847MOL0     C11715  13.346   3.800   1.218  0.3795 -0.5321  0.5684
  847MOL0    Cl11716  13.464   3.867   1.334  0.2670  0.1580 -0.5401
  847MOL0     C11717  12.449   3.657   1.568  0.1410  0.2402 -0.6186
  847MOL0     C11718  12.334   3.596   1.542 -0.4525  0.2813 -0.7740
  847MOL0     O11719  12.107   3.652   1.193  0.0916  0.2838  0.2862
  847MOL0     C11720  11.856   3.539   1.183  0.4101  0.6646 -1.2258
  847MOL0     C11721  11.747   3.470   1.139 -0.4448  0.1757  0.4764
  847MOL0     N11722  11.248   3.407   0.767  0.4549 -0.4341  0.6570
  847MOL0     N11723  11.116   3.404   0.756  0.2328 -0.3708  0.6595
  847MOL0     C11724  10.134   3.539   0.350 -0.7153  0.1328  0.0885
  847MOL0     C11725  10.021   3.631   0.340  0.3312  0.3946 -0.4323
  847MOL0     C11726   9.786   3.981   0.127  0.2810  0.4403 -0.5693
  847MOL0     C11727   9.735   4.048   0.235  0.0292  0.1179 -0.7910
  847MOL0     C11728   9.636   4.146   0.224  0.2944  0.2905 -0.3755
  847MOL0     C11729   9.562   4.167   0.110  0.7543 -0.1598  0.1871
  847MOL0     O11730   9.455   4.256   0.119  0.6685  0.1419  0.4782
  847MOL0     C11731   9.368   4.295   0.006 -0.9346  0.5633  0.0021
  847MOL0     C11732   9.230   4.317   0.067 -0.2692  0.1232 -0.4881
  847MOL0     C11733   9.137   4.395  -0.028  0.0309  0.0392 -0.4884
  847MOL0     C11734   9.067   4.511   0.047 -0.3996 -0.0729 -0.1460
  847MOL0     C11735   8.997   4.600  -0.051 -0.7921  0.2160  0.5268
  847MOL0     C11736   8.940   4.671  -0.138  1.1643  1.0692  0.1288
  847MOL0     C11737   9.608   4.094  -0.008 -0.3012 -0.0968 -0.2280
  847MOL0     C11738   9.723   4.002   0.003 -0.4682  0.1379 -0.2704
  847MOL0     H11739  10.176   3.890   0.191 -3.3938 -0.2497 -1.2166
  847MOL0     H11740  10.381   3.744   0.235  0.3060 -2.8359 -1.6501
  847MOL0     H11741  10.324   3.304   0.223 -0.9039 -1.1865  0.6487
  847MOL0     H11742  10.279   3.322   0.398 -2.1412  3.0155 -0.1673
  847MOL0     H11743  10.563   3.348   0.274  0.3820  2.4830  1.7997
  847MOL0     H11744  10.512   3.191   0.335  1.8682 -0.4273 -0.9169
  847MOL0     H11745  10.463   3.295   0.559  0.9661 -1.4016  0.7191
  847MOL0     H11746  10.545   3.446   0.505  2.7460  0.1673  0.8073
  847MOL0     H11747  10.641   3.160   0.523  0.9017 -0.0996 -0.8516
  847MOL0     H11748  10.732   3.298   0.447  0.7932  0.4055  0.9627
  847MOL0     H11749  10.631   3.284   0.735 -0.0647  0.7913  1.5151
  847MOL0     H11750  10.732   3.410   0.677 -2.0619  0.9029 -1.8408
  847MOL0     H11751  10.916   3.234   0.652 -0.9447 -1.4460 -0.5013
  847MOL0     H11752  10.813   3.101   0.682 -0.7846 -1.0459  1.1871
  847MOL0     H11753  10.744   3.202   0.893  0.0372 -0.6890 -0.3718
  847MOL0     H11754  10.906   3.134   0.879  0.7396  0.5353 -0.6468
  847MOL0     H11755  10.917   3.359   1.013  2.7118 -0.3335  1.2642
  847MOL0     H11756  10.864   3.429   0.865 -0.6663 -0.9895 -0.4038
  847MOL0     H11757  11.145   3.212   1.020  0.2988 -1.9353 -0.7338
  847MOL0     H11758  11.405   3.222   1.009  1.4867 -0.6894  0.1508
  847MOL0     H11759  11.426   3.398   1.019  0.1612  1.0354 -1.2862
  847MOL0     H11760  11.556   3.403   0.808  0.0937  0.4866  0.5728
  847MOL0     H11761  11.486   3.249   0.755  1.5162 -1.5033  0.1654
  847MOL0     H11762  11.660   3.139   0.813 -2.3548  0.6969 -2.7097
  847MOL0     H11763  11.738   3.286   0.871 -0.4980  0.1158 -2.4941
  847MOL0     H11764  11.746   3.104   1.031  0.5153  1.7559  0.2150
  847MOL0     H11765  11.581   3.083   1.046 -0.7248  2.3869  3.9148
  847MOL0     H11766  11.838   3.163   1.259  0.0100 -0.8120 -1.2026
  847MOL0     H11767  12.050   3.298   1.327  1.2485  3.4406  0.7354
  847MOL0     H11768  12.353   3.594   1.197 -2.2900 -0.1267  0.5735
  847MOL0     H11769  12.552   3.738   1.256  3.2007  0.6382  4.9882
  847MOL0     H11770  12.678   3.768   1.703  5.0447 -2.5561 -1.8314
  847MOL0     H11771  12.596   3.913   1.632 -2.2209 -3.0921  2.5681
  847MOL0     H11772  12.821   3.948   1.711 -0.2804 -1.0703  1.1333
  847MOL0     H11773  12.796   4.009   1.552  0.6815 -0.9351 -0.6463
  847MOL0     H11774  12.921   3.742   1.629  0.0960 -1.7084 -0.7631
  847MOL0     H11775  13.006   3.894   1.577 -1.6840  1.9772 -0.2998
  847MOL0     H11776  12.889   3.669   1.409  0.7386 -0.3163 -3.1724
  847MOL0     H11777  12.850   3.842   1.366 -1.2666  0.1319  1.2505
  847MOL0     H11778  13.084   3.890   1.342  1.2580 -0.9090  2.9716
  847MOL0     H11779  13.049   3.764   1.228  1.4109  2.4607 -0.7313
  847MOL0     H11780  13.140   3.614   1.423 -1.9682  0.6258 -3.3516
  847MOL0     H11781  13.212   3.761   1.483  2.7353 -1.1688 -0.2786
  847MOL0     H11782  13.372   3.634   1.346 -0.7580  2.0278  2.5331
  847MOL0     H11783  13.247   3.604   1.226 -0.3967  0.2217  0.4033
  847MOL0     H11784  13.268   3.865   1.177  0.1995 -1.6929 -1.0162
  847MOL0     H11785  13.404   3.764   1.132  0.2961 -0.4630  0.4835
  847MOL0     H11786  12.507   3.649   1.659  1.1925  2.6031 -1.0112
  847MOL0     H11787  12.272   3.576   1.629  3.0140  0.0511  1.8536
  847MOL0     H11788  11.855   3.647   1.176 -0.8597  0.6393 -1.6446
  847MOL0     H11789  11.664   3.530   1.103  3.5618  4.7459 -2.5642
  847MOL0     H11790  10.104   3.440   0.384  1.0323 -0.4431  0.0538
  847MOL0     H11791   9.926   3.595   0.377  1.8881  0.6051  4.6818
  847MOL0     H11792   9.781   4.034   0.332  2.5300 -1.3907 -2.0688
  847MOL0     H11793   9.601   4.207   0.307  1.5532  2.1883 -1.1644
  847MOL0     H11794   9.358   4.219  -0.073 -1.2411 -1.8524  2.2332
  847MOL0     H11795   9.404   4.383  -0.048 -0.3916  0.1187 -0.3779
  847MOL0     H11796   9.192   4.215   0.078  1.1996 -0.3869  0.1873
  847MOL0     H11797   9.233   4.357   0.169 -1.1231 -2.8986  0.8267
  847MOL0     H11798   9.061   4.324  -0.061 -1.6076  0.3718  2.1876
  847MOL0     H11799   9.182   4.440  -0.117  0.4404 -1.0537 -0.8410
  847MOL0     H11800   8.990   4.471   0.114  0.6377 -0.7251  0.6936
  847MOL0     H11801   9.134   4.571   0.109 -1.0838 -0.2281  0.7681
  847MOL0     H11802   8.888   4.730  -0.210 -0.2434 -0.5769 -0.2577
  847MOL0     H11803   9.561   4.117  -0.103  0.4762  0.0563 -0.5801
  847MOL0     H11804   9.755   3.959  -0.091  1.2722  1.2737 -0.2515
  848MOL0     O11805  10.836   1.727   1.243  0.3201  0.0749 -0.3790
  848MOL0     C11806  10.896   1.797   1.162 -0.2853  0.2752  0.0468
  848MOL0     O11807  10.845   1.861   1.048 -0.5461  0.7059  0.2081
  848MOL0     C11808  10.717   1.836   1.010 -0.3063  0.0495 -0.0861
  848MOL0     C11809  10.690   1.734   0.922  0.6857  0.2697  0.1751
  848MOL0     C11810  10.565   1.734   0.860  0.3073 -0.1079 -0.4185
  848MOL0     C11811  10.462   1.814   0.906  0.5130 -0.2317  0.1747
  848MOL0     O11812  10.334   1.805   0.847  0.2173  0.4530 -0.0933
  848MOL0     C11813  10.212   1.815   0.931 -0.3824  0.2764  0.7280
  848MOL0     C11814  10.111   1.734   0.854  0.6224 -0.1431 -0.3639
  848MOL0     C11815  10.065   1.807   0.730  0.2242  0.1122  0.0681
  848MOL0     C11816   9.922   1.862   0.733  0.0818 -0.0222  0.0953
  848MOL0     C11817   9.874   1.902   0.594  0.0855 -0.1399 -1.5014
  848MOL0     C11818   9.725   1.965   0.592 -0.6327 -0.3743  0.3429
  848MOL0     C11819   9.721   2.114   0.621 -0.6063  0.5944 -0.2652
  848MOL0     C11820   9.587   2.178   0.580  0.1351 -0.7716 -0.0963
  848MOL0     N11821   9.481   2.109   0.648 -0.2107  0.5595  0.3927
  848MOL0     C11822   9.446   2.133   0.776 -0.4414 -0.2102  1.2012
  848MOL0     C11823   9.329   2.066   0.806  0.3293  0.4359  0.6361
  848MOL0     C11824   9.252   2.074   0.934  0.7138 -0.2307  0.2947
  848MOL0     C11825   9.157   2.188   0.943 -0.2848  0.8268 -0.5824
  848MOL0     C11826   9.092   2.192   1.084  0.1095  0.0161  0.2320
  848MOL0     C11827   8.959   2.269   1.095 -0.7464  0.2593  0.1558
  848MOL0     O11828   8.928   2.261   1.236  0.1938  0.5199  0.7004
  848MOL0     C11829   8.800   2.308   1.275 -0.1680  0.9574  0.0488
  848MOL0     C11830   8.767   2.297   1.413 -0.2409 -0.3854 -0.3856
  848MOL0     C11831   8.631   2.321   1.458  0.1193  1.0870 -0.5794
  848MOL0     C11832   8.529   2.346   1.364  0.3228 -0.7371 -0.4721
  848MOL0     C11833   8.395   2.391   1.414 -0.8568 -0.3208 -0.5116
  848MOL0     O11834   8.295   2.377   1.331  0.2237 -0.2410 -0.8591
  848MOL0     C11835   8.165   2.396   1.366 -0.8124 -1.0873 -0.6734
  848MOL0     C11836   8.108   2.374   1.493 -0.4635 -0.1788 -0.9929
  848MOL0     C11837   7.964   2.383   1.508  0.6039 -0.0118 -0.5460
  848MOL0     C11838   7.874   2.401   1.396 -0.6807  0.2722 -0.5238
  848MOL0     O11839   7.748   2.432   1.410 -0.2132 -1.1143  0.1136
  848MOL0     C11840   7.676   2.444   1.530 -0.1606 -0.2694  0.1017
  848MOL0     C11841   7.523   2.407   1.514 -0.8980  0.1033  0.4696
  848MOL0     C11842   7.507   2.257   1.490 -0.2911 -0.2903 -0.0246
  848MOL0     C11843   7.359   2.203   1.477 -0.9357  0.1618  0.3374
  848MOL0     C11844   7.272   2.303   1.399  0.3123 -0.8324  0.9087
  848MOL0     C11845   7.134   2.237   1.381 -1.3937 -0.4776 -0.7779
  848MOL0     C11846   7.055   2.308   1.277 -0.3632  0.0321  0.4991
  848MOL0     C11847   6.918   2.234   1.273 -0.4851 -0.1502 -1.1108
  848MOL0    Cl11848   6.932   2.056   1.236  0.2157 -0.1725 -0.3238
  848MOL0     C11849   7.930   2.415   1.271 -0.1033  0.2790  0.8470
  848MOL0     C11850   8.074   2.417   1.264  0.1827  0.5681  0.1195
  848MOL0     O11851   8.390   2.427   1.532 -0.8113  0.1407 -0.2374
  848MOL0     C11852   8.557   2.337   1.226 -0.1652  0.7530 -0.1688
  848MOL0     C11853   8.689   2.321   1.185  0.2566 -0.1881 -0.0206
  848MOL0     N11854   9.296   1.998   0.691  0.8587 -0.5575  0.2227
  848MOL0     N11855   9.382   2.032   0.602 -0.7910  0.5355 -0.2727
  848MOL0     C11856  10.486   1.919   0.998 -0.3045  0.6948  0.6006
  848MOL0     C11857  10.618   1.926   1.046  0.4539 -0.3697 -0.5804
  848MOL0     C11858  11.037   1.806   1.174 -0.5027  0.8372 -0.0755
  848MOL0     C11859  11.123   1.840   1.077 -0.8151  0.1243 -0.1563
  848MOL0     C11860  11.262   1.842   1.099  0.3000  0.4557  0.3334
  848MOL0     C11861  11.326   1.805   1.216 -0.3755 -1.0333 -0.4964
  848MOL0     O11862  11.456   1.801   1.243  0.3239  0.1450  0.6101
  848MOL0     C11863  11.550   1.884   1.165 -0.0432  0.6942 -0.1646
  848MOL0     C11864  11.540   2.039   1.170  0.6303 -0.1093  0.2145
  848MOL0     C11865  11.559   2.093   1.315  0.0451  0.0938  0.5352
  848MOL0     C11866  11.530   2.241   1.337  0.9256 -0.5488  0.7676
  848MOL0     C11867  11.606   2.334   1.255  0.2408 -0.3736  0.3728
  848MOL0     C11868  11.661   2.422   1.191 -0.0605  0.2591 -0.4113
  848MOL0     C11869  11.235   1.755   1.316 -0.1847 -0.2998  1.2161
  848MOL0     C11870  11.098   1.755   1.295 -0.2355  0.8660  0.1122
  848MOL0     H11871  10.758   1.656   0.890 -0.2180 -1.0388  1.3835
  848MOL0     H11872  10.536   1.657   0.789  1.5114 -0.8976 -0.0847
  848MOL0     H11873  10.175   1.917   0.946  0.3741  0.7222 -0.3174
  848MOL0     H11874  10.227   1.776   1.032  2.1698  1.3157  0.8102
  848MOL0     H11875  10.022   1.704   0.910  0.6899 -2.0818 -1.2105
  848MOL0     H11876  10.154   1.637   0.829  0.1160 -0.2846 -0.7085
  848MOL0     H11877  10.076   1.732   0.651  4.6880  1.3620 -0.7625
  848MOL0     H11878  10.139   1.884   0.708  1.9101 -0.6065  2.7624
  848MOL0     H11879   9.854   1.783   0.766  0.8427 -2.0478 -2.7670
  848MOL0     H11880   9.929   1.941   0.808 -0.3674 -0.2670  0.3998
  848MOL0     H11881   9.890   1.827   0.515  0.4431 -0.8493 -0.7735
  848MOL0     H11882   9.946   1.982   0.571 -1.6532  2.2282  0.8112
  848MOL0     H11883   9.667   1.921   0.674  0.9396 -0.6654  1.3392
  848MOL0     H11884   9.680   1.946   0.494  1.3169  2.1935 -1.1746
  848MOL0     H11885   9.739   2.126   0.728  0.1240  3.4431 -0.6104
  848MOL0     H11886   9.804   2.170   0.576 -0.0945 -1.2714 -1.8161
  848MOL0     H11887   9.573   2.170   0.472 -1.3018 -1.7779  0.1338
  848MOL0     H11888   9.586   2.284   0.608 -1.6610 -0.7225 -0.2243
  848MOL0     H11889   9.492   2.189   0.856 -0.5718 -0.0703  1.1776
  848MOL0     H11890   9.320   2.072   1.020  0.9067 -0.6829  0.1321
  848MOL0     H11891   9.190   1.984   0.941 -0.7797  0.7117 -0.2323
  848MOL0     H11892   9.074   2.180   0.872  1.6597  1.6826 -3.0906
  848MOL0     H11893   9.211   2.278   0.916  0.2750  0.1744 -1.7288
  848MOL0     H11894   9.078   2.088   1.114  2.4005 -0.5277 -0.4278
  848MOL0     H11895   9.163   2.249   1.145 -3.0103  0.2594  4.1263
  848MOL0     H11896   8.886   2.223   1.027 -0.7590 -0.6006  0.7392
  848MOL0     H11897   8.980   2.371   1.061  3.6526 -0.0098  1.5544
  848MOL0     H11898   8.841   2.282   1.490  0.3082 -1.6078 -1.1100
  848MOL0     H11899   8.612   2.306   1.564 -1.2148  0.5329 -0.8875
  848MOL0     H11900   8.163   2.357   1.584 -1.8002  1.9024  0.2986
  848MOL0     H11901   7.937   2.366   1.612  3.2355 -1.8073 -0.0570
  848MOL0     H11902   7.689   2.545   1.568 -1.7780  0.2686 -0.7103
  848MOL0     H11903   7.715   2.374   1.605 -0.4026 -1.9529 -1.2876
  848MOL0     H11904   7.483   2.459   1.426  0.0093  0.8395  0.4785
  848MOL0     H11905   7.474   2.450   1.602 -0.9501  1.9135 -0.3788
  848MOL0     H11906   7.556   2.201   1.570 -0.1226  1.1166  0.8786
  848MOL0     H11907   7.554   2.221   1.398 -0.4890 -0.1711 -0.1720
  848MOL0     H11908   7.356   2.107   1.426 -2.3240  1.7578 -2.8559
  848MOL0     H11909   7.312   2.196   1.576 -0.4529  1.6165  0.7104
  848MOL0     H11910   7.307   2.310   1.295 -0.6558 -0.0281  0.6255
  848MOL0     H11911   7.269   2.402   1.445 -1.8678  1.8383 -4.1424
  848MOL0     H11912   7.088   2.241   1.480 -1.1201 -1.9416 -0.5694
  848MOL0     H11913   7.151   2.132   1.356  0.3462 -0.7045  1.0709
  848MOL0     H11914   7.050   2.416   1.291 -0.8594  0.2798 -1.3735
  848MOL0     H11915   7.101   2.286   1.180 -2.5105 -2.4530 -0.0619
  848MOL0     H11916   6.859   2.284   1.196 -0.2749  3.9730  1.1346
  848MOL0     H11917   6.871   2.235   1.372 -3.1786 -0.1407 -2.3205
  848MOL0     H11918   7.889   2.424   1.170  4.4187 -2.2743 -1.5641
  848MOL0     H11919   8.128   2.444   1.174  0.6045  0.2495  0.2760
  848MOL0     H11920   8.477   2.351   1.154  0.1900  0.2593 -0.6661
  848MOL0     H11921   8.696   2.308   1.078  0.8658 -2.8755  0.2818
  848MOL0     H11922  10.403   1.982   1.028 -1.7149 -2.4993  4.1544
  848MOL0     H11923  10.637   2.004   1.120 -1.0087 -0.9868  0.4870
  848MOL0     H11924  11.097   1.861   0.974 -2.3655 -0.8200  0.0168
  848MOL0     H11925  11.321   1.875   1.013 -1.5519  2.4248 -0.2523
  848MOL0     H11926  11.555   1.847   1.063  2.4589  1.7576 -0.4979
  848MOL0     H11927  11.647   1.852   1.205 -1.7428 -0.2704  3.6862
  848MOL0     H11928  11.620   2.089   1.115  2.2387 -1.1164  1.5323
  848MOL0     H11929  11.442   2.058   1.124  0.9835 -1.0753 -0.9503
  848MOL0     H11930  11.659   2.070   1.352 -0.6536 -0.1402  2.3961
  848MOL0     H11931  11.490   2.032   1.374  3.7003 -0.9536  4.1035
  848MOL0     H11932  11.423   2.253   1.318  0.9693  2.6712  1.8501
  848MOL0     H11933  11.551   2.263   1.442  5.5256  0.5031 -0.1712
  848MOL0     H11934  11.724   2.484   1.131  0.7806  1.9106  2.0632
  848MOL0     H11935  11.280   1.734   1.413 -1.4148 -0.4392  1.7706
  848MOL0     H11936  11.029   1.731   1.375 -0.1918  1.7885  0.4302
  849MOL0     O11937   1.742   8.943   7.099 -0.2904 -0.4414  0.2396
  849MOL0     C11938   1.803   8.960   7.207 -0.5055 -1.1043  0.3541
  849MOL0     O11939   1.788   9.064   7.295  0.2658 -0.3518 -0.0397
  849MOL0     C11940   1.677   9.147   7.284 -0.7342  0.3802 -0.0167
  849MOL0     C11941   1.605   9.180   7.402 -0.5003  0.7182 -0.5070
  849MOL0     C11942   1.492   9.256   7.406  0.2477  1.0160 -0.3054
  849MOL0     C11943   1.446   9.309   7.275 -0.6282  0.9298 -0.4027
  849MOL0     O11944   1.339   9.384   7.247 -0.3644  0.0792 -0.1444
  849MOL0     C11945   1.258   9.435   7.357  0.1330  0.1311 -0.0513
  849MOL0     C11946   1.110   9.443   7.307  0.2083  0.0434  0.2994
  849MOL0     C11947   1.053   9.308   7.276  0.9798 -0.6682 -0.1037
  849MOL0     C11948   1.146   9.194   7.250 -0.3540 -0.3721 -0.5150
  849MOL0     C11949   1.067   9.064   7.224  0.7720  0.2834 -0.5244
  849MOL0     C11950   0.952   9.021   7.319  0.2825 -0.3024 -0.3834
  849MOL0     C11951   0.935   8.871   7.310 -1.3026  0.0565  0.4021
  849MOL0     C11952   0.859   8.814   7.435  0.7625 -0.1008 -0.0740
  849MOL0     N11953   0.723   8.863   7.420  0.4598  0.4541 -0.8747
  849MOL0     C11954   0.672   8.990   7.464  0.1373 -0.3739 -0.9577
  849MOL0     C11955   0.537   8.989   7.425  0.1546  0.9450 -0.9696
  849MOL0     C11956   0.419   9.074   7.461 -0.6350  0.6767  0.1631
  849MOL0     C11957   0.460   9.216   7.467 -0.2180  0.1505  0.6972
  849MOL0     C11958   0.345   9.317   7.462 -0.6620 -0.0760  0.8407
  849MOL0     C11959   0.235   9.303   7.566  0.3152 -0.5607 -0.6039
  849MOL0     O11960   0.290   9.312   7.707  0.7391  0.6641 -0.7127
  849MOL0     C11961   0.211   9.288   7.823  0.5392 -0.3323  0.0476
  849MOL0     C11962   0.258   9.314   7.950 -0.6529 -0.3849  0.7678
  849MOL0     C11963   0.176   9.311   8.065  0.5670  0.0083 -0.0668
  849MOL0     C11964   0.041   9.280   8.054 -0.0787 -0.2204 -0.5365
  849MOL0     C11965  -0.057   9.299   8.167  0.6004 -0.2762  0.2565
  849MOL0     O11966  -0.182   9.274   8.151  0.0522  0.6495  0.6661
  849MOL0     C11967  -0.279   9.284   8.253  0.4427  0.7106  0.4015
  849MOL0     C11968  -0.396   9.350   8.222 -0.8810 -0.2203 -0.1261
  849MOL0     C11969  -0.496   9.368   8.316  0.6179 -0.4587  0.0254
  849MOL0     C11970  -0.482   9.311   8.442  0.1816  0.4168  0.5655
  849MOL0     O11971  -0.584   9.318   8.524 -0.3485 -0.3756 -0.1063
  849MOL0     C11972  -0.590   9.221   8.630  0.4957  0.7156  0.6874
  849MOL0     C11973  -0.719   9.232   8.704  0.4785  0.6056  1.0702
  849MOL0     C11974  -0.694   9.178   8.844  1.1147 -0.1494 -0.3239
  849MOL0     C11975  -0.820   9.179   8.938  0.4725 -0.3879 -0.1742
  849MOL0     C11976  -0.891   9.317   8.963 -0.4266 -0.1239  0.9646
  849MOL0     C11977  -1.008   9.289   9.050  0.8274 -1.1011  0.6557
  849MOL0     C11978  -1.097   9.421   9.054  0.7276  0.3680  0.2351
  849MOL0     C11979  -1.192   9.415   9.179 -0.0932 -1.0362  0.3334
  849MOL0    Cl11980  -1.123   9.464   9.337 -0.2996 -0.2279 -0.1728
  849MOL0     C11981  -0.360   9.244   8.474  0.5788  0.2891 -0.6421
  849MOL0     C11982  -0.263   9.230   8.376  0.1525  0.0220 -0.3858
  849MOL0     O11983  -0.011   9.338   8.276  0.6926  0.4205 -0.0915
  849MOL0     C11984  -0.005   9.240   7.921  0.0363 -0.2438  0.3586
  849MOL0     C11985   0.078   9.244   7.814  0.0953  0.5229  0.3691
  849MOL0     N11986   0.514   8.872   7.357 -1.6606  0.8758 -0.8895
  849MOL0     N11987   0.620   8.802   7.351 -0.5120  0.4983  0.6810
  849MOL0     C11988   1.520   9.293   7.157 -0.3057 -0.0407  0.3349
  849MOL0     C11989   1.638   9.216   7.164 -0.3494  0.1104  0.3243
  849MOL0     C11990   1.911   8.871   7.218 -0.9182  0.4821  0.3441
  849MOL0     C11991   1.979   8.860   7.337 -0.2508  0.7131  0.0309
  849MOL0     C11992   2.095   8.771   7.349 -0.6488  0.0528  0.0770
  849MOL0     C11993   2.147   8.705   7.231 -1.2913 -0.2720 -0.2402
  849MOL0     O11994   2.251   8.616   7.234  0.1116 -0.8780 -0.9711
  849MOL0     C11995   2.289   8.571   7.364 -1.0348  0.7103  0.6102
  849MOL0     C11996   2.379   8.449   7.369  0.5054 -0.2513  0.3557
  849MOL0     C11997   2.321   8.328   7.284 -1.1797 -0.2469 -0.4159
  849MOL0     C11998   2.424   8.239   7.214 -0.1774 -0.7598 -0.8069
  849MOL0     C11999   2.396   8.098   7.245  0.0204  0.2793 -0.0398
  849MOL0     C12000   2.378   7.982   7.267  1.0518 -0.2856  0.9934
  849MOL0     C12001   2.082   8.719   7.118 -0.1591 -0.4446  0.9322
  849MOL0     C12002   1.958   8.790   7.112 -0.0097 -0.2904 -0.4475
  849MOL0     H12003   1.639   9.122   7.488  1.0135  0.3848 -1.2936
  849MOL0     H12004   1.432   9.258   7.497  2.9754  1.3738  1.6278
  849MOL0     H12005   1.291   9.536   7.384 -2.7024  1.2463 -0.4993
  849MOL0     H12006   1.262   9.378   7.450 -3.3935  2.9154  2.0663
  849MOL0     H12007   1.116   9.504   7.216  0.9047 -0.7402 -0.1987
  849MOL0     H12008   1.041   9.500   7.369 -1.6474  1.9412 -3.1740
  849MOL0     H12009   0.978   9.321   7.197  0.1612 -3.0885  0.1968
  849MOL0     H12010   0.992   9.282   7.363 -0.6216 -1.2859 -1.3622
  849MOL0     H12011   1.212   9.212   7.164  3.1502 -1.2533  1.7543
  849MOL0     H12012   1.201   9.183   7.345 -0.4292  1.2938 -0.2426
  849MOL0     H12013   1.131   8.975   7.229 -2.5846 -2.3474  0.1247
  849MOL0     H12014   1.024   9.071   7.124 -1.6499 -1.0080  0.3425
  849MOL0     H12015   0.856   9.066   7.293 -1.0251  0.1834  4.3467
  849MOL0     H12016   0.977   9.037   7.424  1.4623 -3.2570 -0.1012
  849MOL0     H12017   0.876   8.859   7.219 -1.3224  0.6137  0.3358
  849MOL0     H12018   1.031   8.821   7.296 -0.9616  0.9981 -0.7339
  849MOL0     H12019   0.891   8.843   7.536  0.5607 -0.3931  0.0773
  849MOL0     H12020   0.870   8.706   7.421  3.5207  0.2931 -1.6423
  849MOL0     H12021   0.715   9.072   7.520 -2.8459  1.4228 -1.1011
  849MOL0     H12022   0.376   9.036   7.554  2.5964  2.0418  2.3847
  849MOL0     H12023   0.342   9.057   7.386 -2.8399  0.2531  2.3828
  849MOL0     H12024   0.536   9.236   7.391  2.3942 -0.4822  2.9823
  849MOL0     H12025   0.519   9.241   7.556  1.7445  2.3895 -1.0682
  849MOL0     H12026   0.395   9.410   7.491  0.2328 -0.8227  1.7782
  849MOL0     H12027   0.310   9.318   7.359  1.6725 -3.0077 -0.1516
  849MOL0     H12028   0.190   9.204   7.557  1.6241 -1.1843 -0.6186
  849MOL0     H12029   0.163   9.384   7.558  0.5507 -0.1922  0.7005
  849MOL0     H12030   0.355   9.362   7.958 -0.6135 -0.0434 -1.3015
  849MOL0     H12031   0.219   9.353   8.156  0.0041  2.1772 -0.7317
  849MOL0     H12032  -0.397   9.386   8.120  0.9196  2.8347  0.7709
  849MOL0     H12033  -0.583   9.428   8.292 -0.1433 -0.3199  2.7939
  849MOL0     H12034  -0.512   9.243   8.703 -0.3446  0.3328  1.7475
  849MOL0     H12035  -0.566   9.121   8.594  0.7026  1.2833 -0.8090
  849MOL0     H12036  -0.789   9.169   8.648  0.7662 -2.7059  4.0654
  849MOL0     H12037  -0.752   9.336   8.699 -1.6662 -0.0298  0.9997
  849MOL0     H12038  -0.612   9.239   8.883  2.5185 -1.9582 -0.3148
  849MOL0     H12039  -0.662   9.074   8.832  1.5333  0.0700 -1.2885
  849MOL0     H12040  -0.891   9.107   8.895  0.9077 -0.9555  0.0483
  849MOL0     H12041  -0.794   9.144   9.038  1.1148 -1.1042 -0.5777
  849MOL0     H12042  -0.915   9.366   8.868  0.5167 -2.4270 -0.5442
  849MOL0     H12043  -0.828   9.385   9.023  0.6784  2.2133 -2.5471
  849MOL0     H12044  -0.970   9.263   9.150 -0.9896 -0.4631  1.5526
  849MOL0     H12045  -1.069   9.207   9.012 -1.6077  0.4532  0.9653
  849MOL0     H12046  -1.039   9.511   9.075 -0.9197  0.8809  2.9829
  849MOL0     H12047  -1.153   9.433   8.960 -0.9425 -4.6876  0.2893
  849MOL0     H12048  -1.239   9.316   9.185  0.3328 -1.2284  0.4851
  849MOL0     H12049  -1.277   9.480   9.155 -1.5064 -2.1870  1.9836
  849MOL0     H12050  -0.348   9.217   8.579  0.2343  1.7713 -0.2073
  849MOL0     H12051  -0.170   9.180   8.401  1.6843  3.2008  0.8556
  849MOL0     H12052  -0.107   9.205   7.907 -0.4102  0.0167  2.5759
  849MOL0     H12053   0.049   9.208   7.715  3.0358 -1.5363  0.1031
  849MOL0     H12054   1.486   9.326   7.060 -0.2900  2.2082  1.0520
  849MOL0     H12055   1.701   9.193   7.078  2.1407  1.1926  1.7559
  849MOL0     H12056   1.953   8.919   7.424  3.1126  1.2078  0.8264
  849MOL0     H12057   2.138   8.781   7.448 -3.3128  1.0051  1.2323
  849MOL0     H12058   2.199   8.538   7.417 -0.9020 -0.6380  0.0410
  849MOL0     H12059   2.343   8.649   7.418  2.9870 -0.9181 -0.6735
  849MOL0     H12060   2.479   8.472   7.332  0.0092  1.7022  0.1022
  849MOL0     H12061   2.378   8.426   7.476 -0.5632 -1.9542  0.0238
  849MOL0     H12062   2.246   8.360   7.211 -1.1366 -1.3315 -0.9596
  849MOL0     H12063   2.251   8.271   7.346 -0.0317 -1.8109 -0.4790
  849MOL0     H12064   2.429   8.259   7.107 -0.5985  1.9103 -0.3918
  849MOL0     H12065   2.526   8.255   7.251 -0.1706  0.7625 -1.4449
  849MOL0     H12066   2.347   7.879   7.266 -2.1743  0.5011 -2.0366
  849MOL0     H12067   2.120   8.666   7.031 -1.6514 -0.8158  0.4760
  849MOL0     H12068   1.895   8.784   7.023  0.9125 -2.8220 -1.0201
  850MOL0     O12069   4.620   8.060   8.789 -0.4172 -0.0861 -0.9153
  850MOL0     C12070   4.701   8.136   8.725 -0.7816  0.3290 -0.5227
  850MOL0     O12071   4.667   8.242   8.645 -0.4929  0.0842  0.0056
  850MOL0     C12072   4.540   8.276   8.593 -0.4174  0.2892  0.6349
  850MOL0     C12073   4.427   8.197   8.607 -1.1849  0.4887 -0.5112
  850MOL0     C12074   4.304   8.241   8.550  0.1758 -0.1636  0.0606
  850MOL0     C12075   4.294   8.363   8.479  0.1256  0.8346 -0.3532
  850MOL0     O12076   4.184   8.418   8.410 -0.2223  0.5402  0.3416
  850MOL0     C12077   4.096   8.317   8.362  0.3881 -0.1783  0.5211
  850MOL0     C12078   3.979   8.376   8.274  1.0042  1.2707  0.1774
  850MOL0     C12079   3.872   8.278   8.252 -0.0130  0.6578  0.5260
  850MOL0     C12080   3.753   8.335   8.160 -0.0912 -0.2935 -0.5231
  850MOL0     C12081   3.665   8.230   8.092  0.6572 -1.0416  0.4339
  850MOL0     C12082   3.543   8.302   8.022 -0.1315 -0.0871 -0.7510
  850MOL0     C12083   3.438   8.204   7.980 -0.0365 -0.0627 -0.3461
  850MOL0     C12084   3.308   8.266   7.913 -0.0171  0.0850 -0.4542
  850MOL0     N12085   3.204   8.301   8.014 -0.2346 -0.0053  0.0473
  850MOL0     C12086   3.096   8.371   7.971 -0.0146  1.2612  0.5261
  850MOL0     C12087   3.021   8.379   8.077 -0.4758 -0.2714 -0.4183
  850MOL0     C12088   2.883   8.437   8.089 -0.1127 -0.4469  0.3189
  850MOL0     C12089   2.780   8.331   8.125 -0.7038 -0.0303 -0.1706
  850MOL0     C12090   2.653   8.386   8.189  0.0270 -0.0069  0.4776
  850MOL0     C12091   2.610   8.527   8.137 -0.3424  0.7211 -0.1237
  850MOL0     O12092   2.549   8.498   8.017  0.3471  0.3699 -0.0757
  850MOL0     C12093   2.470   8.594   7.971  0.4271 -0.4085  0.3662
  850MOL0     C12094   2.384   8.550   7.872  0.2603  0.5403 -0.0316
  850MOL0     C12095   2.299   8.635   7.801  1.0339  0.1146  0.8271
  850MOL0     C12096   2.311   8.776   7.828 -0.4054 -0.4763  0.1109
  850MOL0     C12097   2.218   8.866   7.762  0.8172 -0.6399 -0.3940
  850MOL0     O12098   2.233   9.003   7.774  0.3639  0.0870 -0.0411
  850MOL0     C12099   2.153   9.095   7.693  0.1154  0.0775 -1.1724
  850MOL0     C12100   2.224   9.213   7.653  0.4905  0.0931  0.7405
  850MOL0     C12101   2.163   9.318   7.581  0.7090  0.2116 -0.8079
  850MOL0     C12102   2.035   9.302   7.536  0.1979 -0.0609  0.1849
  850MOL0     O12103   1.972   9.398   7.465 -0.0674 -0.1134  0.2586
  850MOL0     C12104   2.039   9.444   7.345 -0.1526 -0.0798 -0.7684
  850MOL0     C12105   1.991   9.591   7.340  0.2586 -0.4898  0.4312
  850MOL0     C12106   2.061   9.673   7.226  0.2358 -0.3626 -0.4120
  850MOL0     C12107   2.184   9.758   7.278  0.8373  0.5473  0.1340
  850MOL0     C12108   2.222   9.867   7.170 -0.5520  0.4737 -0.2666
  850MOL0     C12109   2.335   9.949   7.223  0.4895 -0.6670 -0.1277
  850MOL0     C12110   2.350  10.083   7.141  0.0850  0.1740 -0.3457
  850MOL0     C12111   2.484  10.152   7.175 -0.9220 -0.7646 -0.5885
  850MOL0    Cl12112   2.620  10.038   7.132  0.1713 -0.1035 -0.1412
  850MOL0     C12113   1.965   9.190   7.575  0.7179 -0.7533  0.5577
  850MOL0     C12114   2.015   9.095   7.660 -0.1537 -0.4510 -0.1349
  850MOL0     O12115   2.132   8.820   7.693  0.3662  0.4828  0.2066
  850MOL0     C12116   2.400   8.824   7.926 -0.5143 -0.3294  0.0080
  850MOL0     C12117   2.475   8.727   7.998 -0.2117 -0.6131 -0.2018
  850MOL0     N12118   3.091   8.329   8.188  0.0540 -0.8569  0.0763
  850MOL0     N12119   3.201   8.285   8.149 -0.5987  0.1009  0.1335
  850MOL0     C12120   4.414   8.440   8.465 -0.0337  0.3908 -0.3212
  850MOL0     C12121   4.533   8.397   8.520  0.1338 -0.5103  0.5808
  850MOL0     C12122   4.840   8.109   8.749 -0.5752  0.0496 -0.0054
  850MOL0     C12123   4.940   8.169   8.680 -1.0141  0.3220 -0.3014
  850MOL0     C12124   5.075   8.149   8.707  0.1621 -0.8565  0.4427
  850MOL0     C12125   5.120   8.077   8.810  0.2824  0.6401  0.2740
  850MOL0     O12126   5.249   8.079   8.851 -0.0535  0.1579  0.3739
  850MOL0     C12127   5.355   8.115   8.762 -0.8033  0.0902  0.3418
  850MOL0     C12128   5.484   8.055   8.823 -0.0393  0.5150 -0.2672
  850MOL0     C12129   5.499   7.902   8.803  0.6082  0.8071  0.0365
  850MOL0     C12130   5.398   7.833   8.899  0.0819  0.3732  0.3314
  850MOL0     C12131   5.433   7.689   8.900  0.0794 -0.1020 -1.1928
  850MOL0     C12132   5.480   7.574   8.887 -0.2020  0.9557 -0.5112
  850MOL0     C12133   5.024   8.002   8.878 -0.6585 -0.9886  0.3421
  850MOL0     C12134   4.886   8.022   8.852 -0.0558 -0.0517 -0.4820
  850MOL0     H12135   4.425   8.101   8.659 -2.2895  0.3912 -0.7196
  850MOL0     H12136   4.210   8.186   8.558 -0.3686  0.2815 -2.4984
  850MOL0     H12137   4.044   8.290   8.454 -0.0004  0.4367  0.4887
  850MOL0     H12138   4.138   8.230   8.310  1.1000  1.3178 -1.5134
  850MOL0     H12139   4.015   8.396   8.173 -0.6834  1.6622 -0.3822
  850MOL0     H12140   3.941   8.465   8.325  0.7336  2.6021 -2.2280
  850MOL0     H12141   3.832   8.244   8.348 -0.2337  2.4559  1.1075
  850MOL0     H12142   3.916   8.190   8.204 -0.5752  0.3499  0.5779
  850MOL0     H12143   3.686   8.405   8.212  0.6895 -1.8592  2.8475
  850MOL0     H12144   3.796   8.388   8.075  0.9779 -1.0145 -0.4531
  850MOL0     H12145   3.626   8.167   8.173  1.7509 -0.7627  1.2010
  850MOL0     H12146   3.711   8.153   8.029 -1.2726 -0.7685 -1.4212
  850MOL0     H12147   3.580   8.363   7.940  1.4833 -1.7292 -1.3217
  850MOL0     H12148   3.491   8.362   8.097  1.4882  1.2549 -0.6421
  850MOL0     H12149   3.480   8.120   7.923  0.8260  0.5961 -0.7083
  850MOL0     H12150   3.405   8.151   8.070 -1.6470  0.1404 -0.7872
  850MOL0     H12151   3.277   8.184   7.847  1.4484  1.2741 -2.7650
  850MOL0     H12152   3.334   8.353   7.852  0.9402 -0.3936 -0.7539
  850MOL0     H12153   3.068   8.406   7.872  1.6676  5.1546  1.2777
  850MOL0     H12154   2.848   8.492   8.001 -1.3223  1.0192  1.6546
  850MOL0     H12155   2.896   8.503   8.175 -1.8347 -1.0531  1.0856
  850MOL0     H12156   2.827   8.253   8.186  3.0596  0.1862 -2.5264
  850MOL0     H12157   2.746   8.272   8.039 -1.2379  0.3799 -0.2461
  850MOL0     H12158   2.575   8.312   8.167  1.0055 -0.4606 -1.7535
  850MOL0     H12159   2.657   8.405   8.296 -2.1835  1.4759  0.3578
  850MOL0     H12160   2.694   8.597   8.130 -0.2482  0.8176  1.5917
  850MOL0     H12161   2.548   8.577   8.211 -0.0790  1.6345 -0.5074
  850MOL0     H12162   2.378   8.446   7.844  0.4028  0.5729 -0.1845
  850MOL0     H12163   2.236   8.596   7.722 -2.5532  0.4210  3.2590
  850MOL0     H12164   2.331   9.213   7.675  0.8315 -3.8887 -0.1753
  850MOL0     H12165   2.230   9.393   7.542  1.4179  0.2329  0.3962
  850MOL0     H12166   2.003   9.391   7.256  0.4119 -1.5486 -0.1560
  850MOL0     H12167   2.147   9.429   7.344 -0.2819 -1.0760 -1.7565
  850MOL0     H12168   2.008   9.636   7.438 -1.4915  0.3685  0.3793
  850MOL0     H12169   1.883   9.598   7.324  0.3565  3.2399  0.4403
  850MOL0     H12170   1.988   9.744   7.186 -0.5000 -1.6586 -1.4462
  850MOL0     H12171   2.081   9.599   7.148  0.5265 -1.3030  0.5383
  850MOL0     H12172   2.152   9.812   7.368  1.5022  1.9965 -0.4688
  850MOL0     H12173   2.263   9.684   7.293 -0.9686 -1.8879 -1.5083
  850MOL0     H12174   2.132   9.927   7.156 -1.2382 -0.7338 -1.3598
  850MOL0     H12175   2.247   9.823   7.073 -2.4990 -2.1326  0.2682
  850MOL0     H12176   2.429   9.897   7.203  0.8838  0.5603 -1.6467
  850MOL0     H12177   2.320   9.962   7.330 -0.8292  1.3654 -0.4976
  850MOL0     H12178   2.332  10.072   7.034 -2.5299 -1.1996  0.1551
  850MOL0     H12179   2.277  10.153   7.183  2.1951  1.1435  1.9852
  850MOL0     H12180   2.482  10.188   7.278 -2.0811 -0.6168 -0.6555
  850MOL0     H12181   2.490  10.244   7.116  0.8547 -0.0940  0.5493
  850MOL0     H12182   1.861   9.182   7.546  1.1826  1.9466 -2.3513
  850MOL0     H12183   1.953   9.010   7.686 -1.6099  0.3734 -0.7793
  850MOL0     H12184   2.406   8.929   7.952 -0.9115 -0.1597 -0.5638
  850MOL0     H12185   2.543   8.773   8.070 -1.5758  0.6822  0.3200
  850MOL0     H12186   4.405   8.534   8.411 -0.9041  2.4452  3.1204
  850MOL0     H12187   4.618   8.465   8.521 -0.4219  0.1916  2.2323
  850MOL0     H12188   4.912   8.234   8.598  0.9395 -2.0393 -3.0576
  850MOL0     H12189   5.143   8.205   8.644 -0.8005 -0.0825  0.0586
  850MOL0     H12190   5.362   8.223   8.751  2.2085  0.3279  2.8259
  850MOL0     H12191   5.339   8.080   8.660  1.2642  1.5891 -0.5748
  850MOL0     H12192   5.563   8.115   8.778 -0.5110  2.3497  1.2012
  850MOL0     H12193   5.482   8.076   8.931 -1.8550 -1.3819  0.1230
  850MOL0     H12194   5.604   7.878   8.818  0.9731  0.2438 -2.9162
  850MOL0     H12195   5.474   7.870   8.702  1.6392 -1.5964  0.4820
  850MOL0     H12196   5.398   7.868   9.003 -1.8648 -1.1210  0.8849
  850MOL0     H12197   5.293   7.840   8.869  0.2298  2.7014  0.1691
  850MOL0     H12198   5.529   7.482   8.861  0.7169 -0.0300  3.8882
  850MOL0     H12199   5.078   7.941   8.949  2.0478  0.9482  0.1080
  850MOL0     H12200   4.816   7.968   8.916  0.9533  0.0393  0.7365
  851MOL0     O12201   9.760   2.875   3.614 -0.3019 -0.4093  0.5924
  851MOL0     C12202   9.774   2.841   3.731 -0.3924  0.5000 -0.4387
  851MOL0     O12203   9.674   2.791   3.805  0.3521  0.6492 -0.5197
  851MOL0     C12204   9.561   2.744   3.752 -0.0595 -0.5854  0.4184
  851MOL0     C12205   9.529   2.704   3.617  0.3102  0.3831 -0.1035
  851MOL0     C12206   9.403   2.649   3.592  0.6139  0.9563 -0.7020
  851MOL0     C12207   9.296   2.633   3.684 -0.3126  0.1774 -0.8886
  851MOL0     O12208   9.178   2.589   3.635 -0.9390  0.5661 -0.0753
  851MOL0     C12209   9.061   2.678   3.645  0.1121 -0.0079  0.2083
  851MOL0     C12210   9.041   2.755   3.515  0.0879 -0.5035  0.4963
  851MOL0     C12211   9.128   2.873   3.488  0.6666 -0.0058 -1.3069
  851MOL0     C12212   9.093   2.994   3.577 -0.2274 -0.4131  1.3674
  851MOL0     C12213   9.182   3.114   3.541 -0.4347 -0.2760  0.4429
  851MOL0     C12214   9.270   3.162   3.653 -1.2806 -0.7386  0.0106
  851MOL0     C12215   9.383   3.048   3.667  0.6642 -0.1091  0.3724
  851MOL0     C12216   9.465   3.077   3.792 -0.1718 -0.5842  0.2175
  851MOL0     N12217   9.551   3.199   3.761 -0.4347 -0.0542  0.3046
  851MOL0     C12218   9.647   3.225   3.665 -0.2021 -0.3238  0.6033
  851MOL0     C12219   9.730   3.324   3.716 -0.1589  0.2445  0.6681
  851MOL0     C12220   9.846   3.373   3.637  0.4233 -0.0229  0.6810
  851MOL0     C12221   9.969   3.278   3.637 -0.4350 -0.2217  0.6112
  851MOL0     C12222  10.083   3.331   3.546 -0.4702 -0.4750 -0.5626
  851MOL0     C12223  10.189   3.222   3.519 -0.2516  0.4018  0.3520
  851MOL0     O12224  10.127   3.108   3.451  0.3198 -0.3844  0.1296
  851MOL0     C12225  10.178   3.079   3.326  0.3734 -0.8047 -0.2309
  851MOL0     C12226  10.079   3.047   3.233  0.1395  0.3143 -0.0943
  851MOL0     C12227  10.120   3.045   3.098 -0.2093  0.5890 -0.0340
  851MOL0     C12228  10.254   3.053   3.054 -0.9013 -0.6726  0.1012
  851MOL0     C12229  10.286   3.045   2.908  0.8704  0.2100  0.6720
  851MOL0     O12230  10.406   3.082   2.869 -0.2792  0.2437 -0.3567
  851MOL0     C12231  10.452   3.088   2.742 -0.3581  0.0064 -0.0781
  851MOL0     C12232  10.554   3.180   2.714  0.2488  0.6625  0.7096
  851MOL0     C12233  10.609   3.185   2.585  0.5001  0.1181  0.8899
  851MOL0     C12234  10.562   3.110   2.480  0.7068  0.5774 -0.2687
  851MOL0     O12235  10.599   3.096   2.351  0.3875 -1.1910 -0.3017
  851MOL0     C12236  10.710   3.176   2.304  0.5695  0.1553  0.4903
  851MOL0     C12237  10.735   3.151   2.163  0.6964  0.0736 -0.5786
  851MOL0     C12238  10.873   3.184   2.128  0.1874 -0.2242  0.1395
  851MOL0     C12239  10.925   3.130   1.994  0.8058 -0.5885  0.2291
  851MOL0     C12240  11.056   3.171   1.938  0.0657  0.6388  0.6666
  851MOL0     C12241  11.050   3.317   1.898  0.7245  0.0138  0.1881
  851MOL0     C12242  10.920   3.361   1.818 -0.6067 -0.8070  0.8022
  851MOL0     C12243  10.960   3.510   1.765 -0.0336  0.2410  0.1627
  851MOL0    Cl12244  11.088   3.510   1.632 -0.3374  0.2096  0.0275
  851MOL0     C12245  10.461   3.012   2.509 -0.8693 -0.2256 -0.2588
  851MOL0     C12246  10.406   3.006   2.639  0.3813 -0.2878 -0.4570
  851MOL0     O12247  10.188   3.020   2.830 -0.1733 -0.9932  0.1820
  851MOL0     C12248  10.352   3.067   3.148  0.1185  0.1703 -0.3336
  851MOL0     C12249  10.321   3.085   3.283  0.5769 -0.8641 -0.4318
  851MOL0     N12250   9.681   3.365   3.830 -0.2684  0.6024  0.1360
  851MOL0     N12251   9.576   3.287   3.860  0.2749 -0.6841  0.7804
  851MOL0     C12252   9.331   2.666   3.821  0.0740  0.6380  0.3005
  851MOL0     C12253   9.461   2.722   3.854 -0.1679  0.6126  0.5464
  851MOL0     C12254   9.903   2.869   3.813  0.6088  0.5091  0.1857
  851MOL0     C12255   9.924   2.845   3.949 -0.7948 -0.4971  0.1658
  851MOL0     C12256  10.034   2.904   4.013  0.1374  0.0130  0.2008
  851MOL0     C12257  10.131   2.969   3.947  1.1727 -0.3931 -0.3624
  851MOL0     O12258  10.241   3.013   4.015 -0.4331 -0.1203 -0.5302
  851MOL0     C12259  10.256   3.155   4.026 -0.3241 -0.4141  0.4722
  851MOL0     C12260  10.142   3.220   4.091  0.2133 -0.0329  0.3847
  851MOL0     C12261  10.106   3.199   4.240  0.2435  0.0832 -0.1333
  851MOL0     C12262  10.225   3.230   4.339  0.2122 -0.0880 -0.5906
  851MOL0     C12263  10.169   3.212   4.476  0.1462 -0.2916  0.5093
  851MOL0     C12264  10.114   3.213   4.586 -1.0645 -0.0763  0.1962
  851MOL0     C12265  10.119   2.986   3.809  0.7130 -0.1891  0.6354
  851MOL0     C12266  10.012   2.934   3.745  0.0093  0.9271  0.4059
  851MOL0     H12267   9.597   2.712   3.533  2.0867 -0.5888  1.1814
  851MOL0     H12268   9.371   2.626   3.491  4.1338  2.1629 -2.2545
  851MOL0     H12269   9.070   2.745   3.731 -1.4730  0.6041 -0.0612
  851MOL0     H12270   8.978   2.612   3.671  0.7209 -0.3434  1.3520
  851MOL0     H12271   8.938   2.789   3.503 -1.2958 -4.7865 -2.2595
  851MOL0     H12272   9.055   2.687   3.430  0.1281  1.1254 -0.8456
  851MOL0     H12273   9.121   2.908   3.385  3.2143 -0.1897 -1.6065
  851MOL0     H12274   9.232   2.843   3.504  1.3024  1.9201 -1.4826
  851MOL0     H12275   8.988   3.024   3.567  0.2837  0.6745 -1.9622
  851MOL0     H12276   9.097   2.962   3.682 -2.7662 -1.8941  1.1007
  851MOL0     H12277   9.122   3.198   3.504 -1.7608 -2.7774 -3.8433
  851MOL0     H12278   9.249   3.089   3.458 -0.3535 -1.6209  0.8795
  851MOL0     H12279   9.206   3.187   3.738 -2.8018  0.2170 -1.3667
  851MOL0     H12280   9.323   3.251   3.617 -0.9320 -0.7439  0.4953
  851MOL0     H12281   9.336   2.950   3.675  0.0036  0.0198 -1.3269
  851MOL0     H12282   9.445   3.040   3.577  2.3005 -1.6546  1.5870
  851MOL0     H12283   9.543   3.004   3.815 -1.1173 -1.6365  0.1472
  851MOL0     H12284   9.415   3.097   3.887  3.3767  1.9615  1.8163
  851MOL0     H12285   9.659   3.166   3.574 -0.6370  0.8419 -0.2398
  851MOL0     H12286   9.868   3.473   3.676  0.0560  1.0681 -1.7574
  851MOL0     H12287   9.819   3.381   3.532 -1.5079 -1.8283  0.9707
  851MOL0     H12288   9.940   3.177   3.604  3.7085 -0.6480 -2.6180
  851MOL0     H12289  10.024   3.272   3.731  0.6707  0.8344  0.0535
  851MOL0     H12290  10.043   3.352   3.447 -1.2659 -4.8016 -1.3669
  851MOL0     H12291  10.133   3.421   3.584 -0.9813 -0.0299 -0.9338
  851MOL0     H12292  10.243   3.192   3.609  1.9652  2.6116 -0.1185
  851MOL0     H12293  10.258   3.275   3.453 -0.4990  0.6784  0.3105
  851MOL0     H12294   9.976   3.033   3.264  0.8120 -1.7437  1.5017
  851MOL0     H12295  10.037   3.030   3.029 -0.6777  2.4375  0.0545
  851MOL0     H12296  10.597   3.240   2.794  1.9980  1.1767 -0.5544
  851MOL0     H12297  10.685   3.252   2.547 -0.1655 -1.2959 -3.5507
  851MOL0     H12298  10.794   3.151   2.369 -0.3744  0.6510  1.9531
  851MOL0     H12299  10.692   3.283   2.322  0.0282  0.1052  0.2848
  851MOL0     H12300  10.670   3.216   2.103 -0.6963  0.3757  1.1814
  851MOL0     H12301  10.723   3.043   2.148 -0.9503 -0.2284  2.2070
  851MOL0     H12302  10.942   3.133   2.196  2.6668 -1.3526 -2.9356
  851MOL0     H12303  10.877   3.293   2.129 -0.9717 -0.1260 -1.5872
  851MOL0     H12304  10.940   3.022   2.006  0.0414 -0.6587  0.5662
  851MOL0     H12305  10.843   3.123   1.922  2.2441 -1.3749 -1.4024
  851MOL0     H12306  11.063   3.112   1.845  0.9174 -0.5284  1.4470
  851MOL0     H12307  11.140   3.141   2.001 -0.1485  0.3816  0.8309
  851MOL0     H12308  11.139   3.327   1.835  1.0613 -1.5619  0.3797
  851MOL0     H12309  11.060   3.377   1.989 -3.7129  0.7151  0.4454
  851MOL0     H12310  10.897   3.303   1.729  2.0017 -0.4626 -0.1849
  851MOL0     H12311  10.832   3.375   1.882 -0.0386 -2.0956  1.9148
  851MOL0     H12312  10.989   3.574   1.849  1.7078  1.7798 -1.4953
  851MOL0     H12313  10.873   3.563   1.726 -0.0302  0.5816  0.6103
  851MOL0     H12314  10.426   2.942   2.434 -2.3808  1.3639 -1.1068
  851MOL0     H12315  10.331   2.928   2.652 -1.4881  1.1882 -1.8921
  851MOL0     H12316  10.458   3.062   3.126 -0.1040 -1.4250 -1.2689
  851MOL0     H12317  10.395   3.109   3.359  0.8997 -3.5264  0.2022
  851MOL0     H12318   9.262   2.634   3.898 -0.1036 -1.1028 -0.5422
  851MOL0     H12319   9.489   2.741   3.958  0.2004 -1.8384  0.9479
  851MOL0     H12320   9.848   2.796   4.010 -1.4114  0.1952 -0.0257
  851MOL0     H12321  10.049   2.901   4.121  2.1875  0.0206 -0.0479
  851MOL0     H12322  10.271   3.209   3.932 -0.6175 -2.4171 -0.7890
  851MOL0     H12323  10.345   3.169   4.088 -0.4097 -0.1318  0.5321
  851MOL0     H12324  10.159   3.328   4.076 -2.1377  0.3405  0.1044
  851MOL0     H12325  10.056   3.191   4.030 -0.7809  0.3209  1.5796
  851MOL0     H12326  10.075   3.095   4.252 -0.5665  0.2035 -1.1104
  851MOL0     H12327  10.018   3.261   4.262  0.6725  0.5722  0.2472
  851MOL0     H12328  10.310   3.160   4.336 -0.6958 -1.7934  4.1942
  851MOL0     H12329  10.266   3.331   4.348 -0.0841 -0.1405  3.5204
  851MOL0     H12330  10.059   3.208   4.678  0.2590  0.3408  1.0423
  851MOL0     H12331  10.207   3.026   3.761 -0.4604  2.2634  0.3518
  851MOL0     H12332  10.006   2.948   3.637 -0.5554 -2.4611 -0.1181
  852MOL0     O12333  10.158   4.203  10.076 -0.1185 -1.0775  0.0731
  852MOL0     C12334  10.202   4.312  10.104 -0.2064 -0.0714  0.5871
  852MOL0     O12335  10.127   4.424  10.118  0.7195  0.1608  0.3387
  852MOL0     C12336   9.988   4.423  10.134  0.4052 -0.4468 -0.9141
  852MOL0     C12337   9.906   4.389  10.022 -0.5846  0.2596  0.8116
  852MOL0     C12338   9.768   4.384  10.033 -0.6310 -0.6467  0.6145
  852MOL0     C12339   9.705   4.397  10.160 -0.1047 -0.0256 -1.4674
  852MOL0     O12340   9.569   4.376  10.176  0.5707 -0.5856  0.1353
  852MOL0     C12341   9.501   4.444  10.283  0.5281  0.3816  0.6469
  852MOL0     C12342   9.346   4.442  10.288 -0.5754  0.1475  0.4840
  852MOL0     C12343   9.288   4.532  10.396 -0.0382 -0.5808  1.1614
  852MOL0     C12344   9.144   4.493  10.436  0.5956  0.5261  0.0026
  852MOL0     C12345   9.096   4.562  10.565 -0.6229 -0.6688 -0.2002
  852MOL0     C12346   8.954   4.517  10.595 -0.2690 -0.4371 -0.2336
  852MOL0     C12347   8.877   4.585  10.708 -0.9826  0.2872  0.3558
  852MOL0     C12348   8.755   4.506  10.753  0.6929  0.0746 -1.8643
  852MOL0     N12349   8.695   4.593  10.860  0.3167  0.4762 -0.0286
  852MOL0     C12350   8.651   4.546  10.985  0.4976  0.2744 -0.2140
  852MOL0     C12351   8.613   4.659  11.056  0.3964  0.6695 -0.5402
  852MOL0     C12352   8.550   4.658  11.191 -0.2780 -0.0986  0.1659
  852MOL0     C12353   8.408   4.712  11.190  0.0452  0.6855 -0.2125
  852MOL0     C12354   8.302   4.610  11.144  0.0062 -0.1925 -0.0238
  852MOL0     C12355   8.172   4.682  11.106 -0.8353 -0.4471 -0.4211
  852MOL0     O12356   8.081   4.577  11.118 -0.0804  0.8882 -0.0368
  852MOL0     C12357   7.941   4.598  11.120 -0.1597  0.6546 -0.5702
  852MOL0     C12358   7.864   4.677  11.024  0.8510 -0.3200 -0.6374
  852MOL0     C12359   7.720   4.689  11.031 -0.6051  0.4772  0.6660
  852MOL0     C12360   7.652   4.630  11.136 -0.7669  0.6363  0.5589
  852MOL0     C12361   7.512   4.636  11.146  0.5819 -0.2354  0.8572
  852MOL0     O12362   7.440   4.577  11.248  0.2862  0.1583  0.1529
  852MOL0     C12363   7.301   4.592  11.240  0.8528 -0.3676 -0.0064
  852MOL0     C12364   7.210   4.519  11.157 -0.0124  0.0350 -0.2849
  852MOL0     C12365   7.073   4.545  11.167  0.5166  1.1714 -0.0240
  852MOL0     C12366   7.024   4.646  11.242 -0.4180 -0.3273 -0.1943
  852MOL0     O12367   6.889   4.649  11.243 -0.5258 -0.0105 -0.5960
  852MOL0     C12368   6.812   4.771  11.288 -0.9462  0.1121 -0.7836
  852MOL0     C12369   6.665   4.753  11.255  0.4710 -0.0219 -0.5765
  852MOL0     C12370   6.574   4.877  11.297 -0.3691 -0.0481  0.5592
  852MOL0     C12371   6.434   4.850  11.235  0.5654 -0.1055 -0.6182
  852MOL0     C12372   6.360   4.979  11.209  0.4389 -0.3197 -0.1591
  852MOL0     C12373   6.371   5.090  11.312 -0.3721 -0.2118 -0.7822
  852MOL0     C12374   6.249   5.181  11.305 -0.3112 -0.4607 -0.5324
  852MOL0     C12375   6.132   5.146  11.395 -0.4498  0.4334  0.1925
  852MOL0    Cl12376   6.183   5.176  11.566 -0.3300 -0.1411 -0.1876
  852MOL0     C12377   7.114   4.730  11.309 -0.1945  0.0425  0.0839
  852MOL0     C12378   7.246   4.700  11.311 -0.9007 -0.3975 -0.1102
  852MOL0     O12379   7.464   4.700  11.050  0.2509  0.4393  0.2390
  852MOL0     C12380   7.733   4.559  11.231 -0.3213  0.5680  0.7390
  852MOL0     C12381   7.873   4.534  11.218  0.3384  1.0374  0.5045
  852MOL0     N12382   8.629   4.769  10.971 -0.8021  0.2686  0.3141
  852MOL0     N12383   8.676   4.734  10.857 -0.7688  0.2412  0.1373
  852MOL0     C12384   9.787   4.422  10.272 -0.1922  0.2955  0.6170
  852MOL0     C12385   9.928   4.427  10.264 -0.4747 -0.8383 -0.3053
  852MOL0     C12386  10.339   4.331  10.145  0.6301  0.2380 -0.4045
  852MOL0     C12387  10.431   4.224  10.128  0.2113 -0.2926  0.0750
  852MOL0     C12388  10.564   4.233  10.151  0.0955  0.5241 -0.8574
  852MOL0     C12389  10.617   4.350  10.202  0.2723 -0.8412  0.2542
  852MOL0     O12390  10.752   4.368  10.244  0.2184 -0.3296  0.2410
  852MOL0     C12391  10.819   4.257  10.315 -0.5017  0.9850  0.9756
  852MOL0     C12392  10.901   4.174  10.219 -0.2207 -0.3807 -0.7839
  852MOL0     C12393  10.984   4.070  10.294  0.1928  0.5458  0.0250
  852MOL0     C12394  10.899   3.959  10.353 -0.4427 -0.2656  0.3807
  852MOL0     C12395  10.816   3.882  10.261  0.2695  0.8594  1.3549
  852MOL0     C12396  10.730   3.831  10.189  0.0991 -0.3664 -0.4586
  852MOL0     C12397  10.533   4.462  10.222  0.7728  0.3460 -0.5673
  852MOL0     C12398  10.396   4.457  10.193 -0.3896  0.1161 -0.2650
  852MOL0     H12399   9.953   4.355   9.930 -3.0454  1.9566 -1.2297
  852MOL0     H12400   9.722   4.357   9.939  1.2055 -0.0898 -0.4965
  852MOL0     H12401   9.533   4.548  10.275  0.3085  0.3239 -1.4547
  852MOL0     H12402   9.531   4.394  10.376 -0.9821 -1.3190  0.2892
  852MOL0     H12403   9.308   4.345  10.320 -0.8282  1.3207  4.1866
  852MOL0     H12404   9.310   4.485  10.194  2.4314  1.7155 -0.0813
  852MOL0     H12405   9.283   4.632  10.353  0.2944 -1.0427  0.0292
  852MOL0     H12406   9.360   4.548  10.477 -1.6597  0.6032  2.4464
  852MOL0     H12407   9.084   4.534  10.354 -0.1323  0.8151  0.6745
  852MOL0     H12408   9.146   4.383  10.434  2.5177  0.4372  2.3231
  852MOL0     H12409   9.109   4.669  10.551 -0.1665 -0.4308  1.7474
  852MOL0     H12410   9.155   4.541  10.654 -0.1730 -0.6659 -0.4979
  852MOL0     H12411   8.955   4.409  10.614 -2.0272 -0.3484  0.6164
  852MOL0     H12412   8.898   4.538  10.504  1.4940 -1.0536 -1.5092
  852MOL0     H12413   8.944   4.601  10.792 -1.4938  0.3748  0.7518
  852MOL0     H12414   8.844   4.680  10.664 -1.0197  0.0269 -0.1870
  852MOL0     H12415   8.788   4.412  10.797  0.8131  2.4843  4.2610
  852MOL0     H12416   8.678   4.496  10.676  0.0803 -2.8547 -0.9968
  852MOL0     H12417   8.649   4.446  11.026  0.1219  0.8232  1.1804
  852MOL0     H12418   8.612   4.725  11.251  0.5041 -0.9831  0.3638
  852MOL0     H12419   8.549   4.556  11.229  4.4341 -1.6411 -2.9795
  852MOL0     H12420   8.400   4.806  11.135  0.3679  0.6946 -0.2459
  852MOL0     H12421   8.388   4.735  11.295  0.1393 -1.8075  0.4147
  852MOL0     H12422   8.333   4.557  11.053 -0.5243 -0.4970 -0.0292
  852MOL0     H12423   8.281   4.526  11.211 -1.6280  0.4972  0.3652
  852MOL0     H12424   8.175   4.711  11.001  0.7145 -1.9253 -0.8085
  852MOL0     H12425   8.158   4.769  11.171 -2.5068  2.8484 -4.6977
  852MOL0     H12426   7.920   4.717  10.941  2.2866 -1.6164 -0.3307
  852MOL0     H12427   7.666   4.758  10.967 -1.5923 -1.8795 -1.2022
  852MOL0     H12428   7.253   4.443  11.092 -0.4761 -0.0447 -0.4989
  852MOL0     H12429   7.004   4.480  11.114 -0.9155  1.0195  1.9464
  852MOL0     H12430   6.863   4.849  11.230  2.9248 -1.9080 -0.4288
  852MOL0     H12431   6.829   4.794  11.394  2.1827  2.2282 -1.5852
  852MOL0     H12432   6.623   4.664  11.303 -4.1358  2.3809  0.4296
  852MOL0     H12433   6.648   4.740  11.148 -1.7101  0.8177 -0.3730
  852MOL0     H12434   6.613   4.970  11.255  0.9808 -0.5605  0.6510
  852MOL0     H12435   6.566   4.895  11.405 -1.7406  0.8721  0.3268
  852MOL0     H12436   6.440   4.791  11.143 -0.1884  0.8676 -1.3107
  852MOL0     H12437   6.379   4.783  11.302  1.2116 -0.2602 -0.2304
  852MOL0     H12438   6.254   4.956  11.201  0.3784  0.3983 -1.8293
  852MOL0     H12439   6.387   5.019  11.111  0.4774  1.1259  0.4233
  852MOL0     H12440   6.457   5.156  11.298  1.5087 -1.7089  2.5885
  852MOL0     H12441   6.377   5.040  11.409  1.0266  1.0206 -0.2037
  852MOL0     H12442   6.272   5.279  11.349  1.0348 -0.8293 -0.3532
  852MOL0     H12443   6.220   5.202  11.201  0.1511 -2.0875 -1.0146
  852MOL0     H12444   6.120   5.040  11.370  1.6530 -0.2466  1.7071
  852MOL0     H12445   6.034   5.188  11.371 -0.9480 -0.2535  0.9556
  852MOL0     H12446   7.074   4.813  11.368 -0.5350  0.3231 -0.5235
  852MOL0     H12447   7.314   4.764  11.367 -0.0412 -0.2503 -1.2851
  852MOL0     H12448   7.681   4.510  11.313  2.1688 -1.5122  1.2375
  852MOL0     H12449   7.922   4.465  11.286  1.0575  1.5270  0.4937
  852MOL0     H12450   9.746   4.412  10.372 -0.0324 -0.2663  0.6312
  852MOL0     H12451   9.985   4.437  10.356 -0.5860  1.3655 -0.4235
  852MOL0     H12452  10.398   4.121  10.118 -1.2388 -0.0285  1.6288
  852MOL0     H12453  10.633   4.150  10.147 -1.3465 -0.7581 -0.0531
  852MOL0     H12454  10.744   4.195  10.366 -2.3443  0.0784 -2.5306
  852MOL0     H12455  10.882   4.301  10.393 -3.5521  0.9873  3.6918
  852MOL0     H12456  10.832   4.117  10.156 -1.8679 -2.7433  2.8664
  852MOL0     H12457  10.971   4.236  10.161  2.0653 -0.9694  1.2019
  852MOL0     H12458  11.044   4.116  10.373 -3.1101  2.9110  1.3666
  852MOL0     H12459  11.052   4.018  10.226 -0.2351  0.1272 -0.0862
  852MOL0     H12460  10.962   3.896  10.416  0.0850  0.0383  0.1704
  852MOL0     H12461  10.832   3.999  10.430 -0.4354  1.5611 -0.5069
  852MOL0     H12462  10.652   3.782  10.134  2.6758 -1.8520 -3.0236
  852MOL0     H12463  10.576   4.551  10.266 -1.3235  0.8855  0.5374
  852MOL0     H12464  10.324   4.538  10.205 -2.1838 -1.6527  1.9853
  853MOL0     O12465   1.771   3.732   2.063 -0.4046 -0.1572 -0.2288
  853MOL0     C12466   1.779   3.808   1.969 -0.1194  0.0058 -0.0113
  853MOL0     O12467   1.677   3.864   1.906  0.3248  0.1223  0.1537
  853MOL0     C12468   1.560   3.794   1.936 -0.0847 -0.6915 -0.0123
  853MOL0     C12469   1.459   3.858   2.002 -0.0629  0.3363 -0.6859
  853MOL0     C12470   1.334   3.796   2.032  0.3506  0.2567 -0.2642
  853MOL0     C12471   1.314   3.667   1.993 -0.0232 -0.1237 -0.0892
  853MOL0     O12472   1.193   3.619   2.002  0.1731 -0.2469  0.6774
  853MOL0     C12473   1.152   3.491   1.966  0.3744  0.1079  0.1339
  853MOL0     C12474   1.002   3.477   2.004  0.4259 -0.2413  0.4184
  853MOL0     C12475   0.954   3.337   1.962  0.6078 -0.3311 -0.0069
  853MOL0     C12476   0.808   3.333   1.997 -0.1412  0.6901 -0.6700
  853MOL0     C12477   0.751   3.191   1.964 -0.4510  0.2070 -0.1783
  853MOL0     C12478   0.597   3.201   1.977  0.2202  0.0842 -0.0765
  853MOL0     C12479   0.563   3.217   2.126  0.8744 -0.1093  0.1123
  853MOL0     C12480   0.415   3.185   2.152  0.0291 -0.6350  0.3569
  853MOL0     N12481   0.363   3.204   2.288  0.1883 -0.2031  0.2915
  853MOL0     C12482   0.392   3.116   2.391  0.1505 -0.1798  0.6493
  853MOL0     C12483   0.324   3.170   2.494 -0.2472 -0.0281  0.8222
  853MOL0     C12484   0.305   3.116   2.625  0.0229 -0.1360  0.1753
  853MOL0     C12485   0.158   3.122   2.674 -0.1196  0.1340  0.1830
  853MOL0     C12486   0.047   3.034   2.598  0.8707 -0.0972 -0.6716
  853MOL0     C12487   0.095   2.878   2.613  0.0927 -0.0055  0.2740
  853MOL0     O12488  -0.019   2.792   2.592  0.0998  0.0638  0.1020
  853MOL0     C12489  -0.094   2.736   2.694  0.8813 -0.0666  0.2905
  853MOL0     C12490  -0.059   2.680   2.818 -0.1608  0.5974  0.0257
  853MOL0     C12491  -0.152   2.617   2.903  0.1272  0.4895 -0.6092
  853MOL0     C12492  -0.286   2.597   2.865 -0.1144 -0.0177 -0.6361
  853MOL0     C12493  -0.379   2.541   2.963 -0.1171  0.3337 -0.3303
  853MOL0     O12494  -0.333   2.514   3.089  0.0745  0.0569  0.4206
  853MOL0     C12495  -0.418   2.497   3.193  0.3722 -0.4109  0.8672
  853MOL0     C12496  -0.412   2.385   3.271 -0.7274 -0.7290  0.0512
  853MOL0     C12497  -0.509   2.366   3.372  0.1674  1.0899 -0.3320
  853MOL0     C12498  -0.610   2.456   3.402  0.0957  0.7490  0.2250
  853MOL0     O12499  -0.699   2.418   3.506  0.8343 -0.3202  0.1842
  853MOL0     C12500  -0.809   2.500   3.541 -0.2153 -0.5698 -0.5329
  853MOL0     C12501  -0.923   2.505   3.435  0.3119 -0.2226 -0.2713
  853MOL0     C12502  -1.007   2.627   3.459  0.7057 -1.0013  0.1466
  853MOL0     C12503  -1.100   2.683   3.351  0.3754  0.2626  0.3827
  853MOL0     C12504  -1.190   2.570   3.310  0.7112  0.3985 -0.0319
  853MOL0     C12505  -1.294   2.643   3.220  0.1616  0.0445 -0.6854
  853MOL0     C12506  -1.402   2.545   3.156 -0.1316  0.4673 -0.2458
  853MOL0     C12507  -1.466   2.429   3.242 -0.0669 -0.4466 -0.1768
  853MOL0    Cl12508  -1.536   2.509   3.388  0.2924  0.1294  0.2260
  853MOL0     C12509  -0.610   2.581   3.333 -0.1089  0.3072 -0.3510
  853MOL0     C12510  -0.516   2.595   3.224  0.2120 -0.0357 -0.1900
  853MOL0     O12511  -0.502   2.534   2.934  0.0439 -0.1030 -0.3553
  853MOL0     C12512  -0.316   2.634   2.737  0.3626 -0.0093 -0.9681
  853MOL0     C12513  -0.228   2.709   2.660 -0.8803 -0.2469  0.2829
  853MOL0     N12514   0.263   3.288   2.457 -0.2346  0.0838  0.6074
  853MOL0     N12515   0.287   3.315   2.340  0.3191 -0.3838 -1.0347
  853MOL0     C12516   1.419   3.599   1.924 -0.0921 -0.0755 -0.1357
  853MOL0     C12517   1.542   3.661   1.893  0.4976 -1.2386  1.1787
  853MOL0     C12518   1.920   3.847   1.925  0.4637  0.4875  0.6972
  853MOL0     C12519   1.941   3.939   1.821  0.3845 -0.8258  0.2138
  853MOL0     C12520   2.064   3.962   1.769  0.8773  0.2731  0.0571
  853MOL0     C12521   2.177   3.917   1.834 -1.1162 -0.2494  0.5015
  853MOL0     O12522   2.303   3.965   1.795 -0.0291 -0.3073  0.1463
  853MOL0     C12523   2.406   3.963   1.893 -0.4574  0.3120  0.2603
  853MOL0     C12524   2.518   4.060   1.851  0.3701  0.6524 -0.1134
  853MOL0     C12525   2.633   4.078   1.954  0.2868  0.2249 -0.0549
  853MOL0     C12526   2.722   4.191   1.923  0.3450  1.1911 -0.7485
  853MOL0     C12527   2.818   4.158   1.814  0.7887  0.1119 -0.2195
  853MOL0     C12528   2.903   4.116   1.736 -0.0797  0.6876 -1.3456
  853MOL0     C12529   2.164   3.811   1.929  0.5307  0.5223 -0.6267
  853MOL0     C12530   2.035   3.790   1.983  0.1432 -1.0115  0.1255
  853MOL0     H12531   1.474   3.959   2.038  0.8791 -0.5977  1.7261
  853MOL0     H12532   1.248   3.840   2.081  1.4746  0.4536  1.6010
  853MOL0     H12533   1.208   3.419   2.027 -1.2283  0.0975  1.6661
  853MOL0     H12534   1.164   3.482   1.858 -0.2150  0.1169  0.0653
  853MOL0     H12535   0.945   3.554   1.952 -0.8762 -0.6928  1.1169
  853MOL0     H12536   0.991   3.496   2.111  1.5478  3.0941  0.0468
  853MOL0     H12537   1.008   3.251   2.005 -1.6871 -2.4476 -1.1078
  853MOL0     H12538   0.972   3.337   1.854  1.3590 -2.3087  0.0671
  853MOL0     H12539   0.796   3.354   2.103 -3.8591 -0.5249 -0.7154
  853MOL0     H12540   0.756   3.404   1.933  1.6479  1.2740 -1.5417
  853MOL0     H12541   0.790   3.117   2.035  2.0570  1.8535  0.3020
  853MOL0     H12542   0.778   3.172   1.860 -2.8006  2.2569 -1.2742
  853MOL0     H12543   0.549   3.109   1.941  0.6824  0.5712 -2.0578
  853MOL0     H12544   0.547   3.280   1.920  0.2486 -0.5751 -1.0492
  853MOL0     H12545   0.615   3.146   2.191  1.2357  1.1380  1.2327
  853MOL0     H12546   0.579   3.319   2.163 -1.7913  0.3907  0.1113
  853MOL0     H12547   0.382   3.085   2.121  1.3258 -0.6515 -1.1016
  853MOL0     H12548   0.366   3.257   2.086  2.1225 -1.4050 -2.2528
  853MOL0     H12549   0.441   3.020   2.382 -0.3714 -0.4289  0.4003
  853MOL0     H12550   0.367   3.179   2.690 -0.0324 -0.0972  0.1903
  853MOL0     H12551   0.336   3.012   2.639  0.8338  0.2531  1.5581
  853MOL0     H12552   0.121   3.224   2.669  1.1250  0.5520 -1.5122
  853MOL0     H12553   0.160   3.102   2.781  0.0876  1.1506  0.3773
  853MOL0     H12554  -0.049   3.038   2.649  0.8619 -0.7742 -0.6346
  853MOL0     H12555   0.023   3.073   2.498 -1.1247  0.0190 -0.1785
  853MOL0     H12556   0.144   2.860   2.709 -0.1388  0.6406  0.5245
  853MOL0     H12557   0.174   2.861   2.540 -0.3239  0.9906 -0.4249
  853MOL0     H12558   0.043   2.688   2.855  0.3206 -1.5552 -0.6653
  853MOL0     H12559  -0.116   2.599   3.004  0.2827  1.4943 -0.4675
  853MOL0     H12560  -0.329   2.317   3.258 -0.3949 -0.7050  1.7496
  853MOL0     H12561  -0.494   2.278   3.434  1.8453  2.6160  1.5798
  853MOL0     H12562  -0.776   2.603   3.555 -1.6199 -0.2632  0.7091
  853MOL0     H12563  -0.844   2.463   3.637  4.3720 -0.3435  1.4751
  853MOL0     H12564  -0.988   2.418   3.451 -2.9304  2.3226  1.7975
  853MOL0     H12565  -0.875   2.500   3.337 -0.2871  1.1195 -0.6464
  853MOL0     H12566  -0.953   2.711   3.503 -2.2376  0.2972  1.5187
  853MOL0     H12567  -1.078   2.600   3.538 -1.0689  1.1167 -0.6231
  853MOL0     H12568  -1.167   2.764   3.382 -2.9300 -0.4233 -3.9535
  853MOL0     H12569  -1.041   2.717   3.266  0.6897 -1.7785 -0.2669
  853MOL0     H12570  -1.238   2.515   3.391 -3.4233  1.6325 -1.3491
  853MOL0     H12571  -1.143   2.496   3.245 -1.9724  0.3289 -2.0788
  853MOL0     H12572  -1.242   2.695   3.139  0.7863  0.0192 -0.3120
  853MOL0     H12573  -1.348   2.724   3.270 -2.1001  0.1585 -3.1163
  853MOL0     H12574  -1.478   2.607   3.107  1.3667  1.5681 -1.2689
  853MOL0     H12575  -1.344   2.503   3.073  1.5213 -1.0311  1.5794
  853MOL0     H12576  -1.406   2.346   3.280 -1.6597 -1.4748  0.1897
  853MOL0     H12577  -1.536   2.370   3.182  1.4518 -1.7516 -0.7289
  853MOL0     H12578  -0.694   2.649   3.334 -1.1336 -0.9065  1.3453
  853MOL0     H12579  -0.512   2.688   3.168 -0.4014 -0.3028 -0.6946
  853MOL0     H12580  -0.407   2.609   2.683 -0.3362  0.5318 -0.0674
  853MOL0     H12581  -0.254   2.727   2.557  0.6425  1.4347  0.1406
  853MOL0     H12582   1.399   3.495   1.897 -0.1838 -0.6243  1.9069
  853MOL0     H12583   1.615   3.609   1.831 -0.0766 -1.3237  0.5613
  853MOL0     H12584   1.850   3.975   1.774  0.7207 -1.1033 -0.6756
  853MOL0     H12585   2.083   4.028   1.685  0.9862 -0.7239 -0.7161
  853MOL0     H12586   2.449   3.863   1.883 -2.2307 -0.5630  1.0036
  853MOL0     H12587   2.374   3.988   1.994  1.0873  0.8877  0.6462
  853MOL0     H12588   2.561   4.020   1.759 -2.1187 -1.7035 -0.3586
  853MOL0     H12589   2.477   4.161   1.839 -1.6167  0.4790  3.6617
  853MOL0     H12590   2.690   3.985   1.968 -1.7215 -1.2740 -1.2373
  853MOL0     H12591   2.577   4.090   2.047 -1.0459 -2.0353 -0.4878
  853MOL0     H12592   2.664   4.282   1.903  0.0193  1.0769 -0.3375
  853MOL0     H12593   2.787   4.216   2.008  2.7041 -0.1939 -2.0365
  853MOL0     H12594   2.989   4.080   1.684  1.0981 -4.7585  3.3198
  853MOL0     H12595   2.255   3.772   1.975  2.0530  0.9089 -3.1362
  853MOL0     H12596   2.017   3.711   2.056  0.6585  0.4395  1.8971
  854MOL0     O12597   1.175   5.032  11.251  0.0649  0.0351 -0.0152
  854MOL0     C12598   1.226   5.142  11.242  0.2212 -0.8578 -0.8099
  854MOL0     O12599   1.158   5.262  11.236  0.2088 -0.7176 -0.2657
  854MOL0     C12600   1.019   5.266  11.252 -0.1442  0.2987 -1.3866
  854MOL0     C12601   0.929   5.245  11.150  0.3619  1.0838  0.2524
  854MOL0     C12602   0.802   5.250  11.168  0.1361  1.1351 -0.3202
  854MOL0     C12603   0.748   5.294  11.287  0.4865  0.9084 -0.9350
  854MOL0     O12604   0.618   5.309  11.282 -0.0647 -0.1716 -0.6896
  854MOL0     C12605   0.541   5.355  11.392  0.3602 -0.5058  0.6321
  854MOL0     C12606   0.394   5.317  11.344 -0.5563 -0.1531 -0.3232
  854MOL0     C12607   0.274   5.378  11.425  0.7031  0.8998  0.3638
  854MOL0     C12608   0.149   5.341  11.341 -0.6552 -0.7841 -0.3921
  854MOL0     C12609   0.027   5.362  11.428  1.1299 -0.0988  0.0617
  854MOL0     C12610  -0.111   5.336  11.378 -0.6757  0.3895  0.8417
  854MOL0     C12611  -0.211   5.350  11.491  0.7922 -0.4035  0.3957
  854MOL0     C12612  -0.348   5.298  11.436  0.1249  0.2172  0.5341
  854MOL0     N12613  -0.449   5.343  11.528  0.0912  0.2724 -0.0296
  854MOL0     C12614  -0.467   5.478  11.572  0.4211 -0.2265  0.6920
  854MOL0     C12615  -0.552   5.467  11.676  0.0239  0.2092  0.9109
  854MOL0     C12616  -0.609   5.585  11.741 -0.2913 -0.6514  0.0805
  854MOL0     C12617  -0.736   5.636  11.676 -0.0637 -0.0694  0.6335
  854MOL0     C12618  -0.850   5.543  11.708  0.1906 -0.3724  0.6417
  854MOL0     C12619  -0.967   5.557  11.612  0.3061  0.2048  0.0863
  854MOL0     O12620  -1.015   5.691  11.603  0.8379 -0.0830  0.3573
  854MOL0     C12621  -1.145   5.715  11.566  0.3359 -0.1361  0.3355
  854MOL0     C12622  -1.209   5.832  11.608 -0.6168  0.3860  0.2542
  854MOL0     C12623  -1.346   5.864  11.592  0.8050 -0.3846  0.0452
  854MOL0     C12624  -1.415   5.771  11.518  0.5976 -0.0449  0.3818
  854MOL0     C12625  -1.549   5.812  11.491 -0.1769 -0.5545 -0.1926
  854MOL0     O12626  -1.626   5.841  11.607 -0.7111  0.2063 -0.0490
  854MOL0     C12627  -1.759   5.835  11.607  0.5341  0.2151  0.5734
  854MOL0     C12628  -1.836   5.716  11.582  0.3999 -0.2241 -0.2983
  854MOL0     C12629  -1.975   5.714  11.585 -0.0965  0.2078 -0.1429
  854MOL0     C12630  -2.052   5.831  11.605  0.8422 -0.4007  0.0002
  854MOL0     O12631  -2.191   5.824  11.602 -0.6369 -0.5379 -0.7045
  854MOL0     C12632  -2.257   5.944  11.573  0.1951 -0.7627 -0.3475
  854MOL0     C12633  -2.302   6.018  11.704  0.6102 -0.5491 -1.0478
  854MOL0     C12634  -2.440   5.978  11.747  1.0765  0.1367  0.2184
  854MOL0     C12635  -2.477   6.031  11.883  0.4114  0.4390 -0.1085
  854MOL0     C12636  -2.614   5.960  11.910 -0.5732 -0.4034 -0.4930
  854MOL0     C12637  -2.670   6.017  12.041 -0.4630 -0.2762 -0.6346
  854MOL0     C12638  -2.749   5.927  12.124 -0.3118  0.0618  0.2785
  854MOL0     C12639  -2.789   5.982  12.261 -0.0693  0.5747  0.6504
  854MOL0    Cl12640  -2.647   5.991  12.377  0.0884 -0.1311  0.1489
  854MOL0     C12641  -1.977   5.954  11.618 -0.3511  0.8124 -0.5028
  854MOL0     C12642  -1.839   5.950  11.621 -0.9807 -0.6337  0.4436
  854MOL0     O12643  -1.592   5.807  11.376 -0.8384  0.1646  0.5446
  854MOL0     C12644  -1.357   5.649  11.478  0.1652  0.8509 -0.4773
  854MOL0     C12645  -1.227   5.622  11.503  0.6097  0.2886 -0.2795
  854MOL0     N12646  -0.587   5.339  11.703  0.3173  0.3239  0.8430
  854MOL0     N12647  -0.530   5.263  11.604  0.3631  0.1190 -0.1701
  854MOL0     C12648   0.842   5.313  11.398 -0.5193 -0.0556  0.4146
  854MOL0     C12649   0.975   5.302  11.380 -0.7072  0.0903 -0.3861
  854MOL0     C12650   1.371   5.145  11.244  0.5317  0.4125 -0.2109
  854MOL0     C12651   1.442   5.261  11.238  0.0363  0.2873  0.1391
  854MOL0     C12652   1.579   5.250  11.240 -0.5143 -0.8561  0.5141
  854MOL0     C12653   1.648   5.133  11.235 -0.0589 -0.0608  0.0993
  854MOL0     O12654   1.786   5.138  11.237 -1.0553 -0.0727  0.0304
  854MOL0     C12655   1.845   5.039  11.318  0.6394  0.2167  0.4051
  854MOL0     C12656   1.991   5.049  11.300 -0.4228  0.7138 -1.1118
  854MOL0     C12657   2.041   5.159  11.390  0.5703  1.0128  0.3506
  854MOL0     C12658   2.159   5.106  11.469 -1.7867  0.7859 -0.3014
  854MOL0     C12659   2.269   5.082  11.372  0.2358  0.5146  0.2967
  854MOL0     C12660   2.356   5.054  11.284  0.3454  0.6155 -0.0375
  854MOL0     C12661   1.571   5.018  11.217  0.1485  0.4595 -0.7385
  854MOL0     C12662   1.440   5.025  11.224  0.3578  0.5692  1.0691
  854MOL0     H12663   0.967   5.222  11.051 -3.8607 -5.3256 -0.5019
  854MOL0     H12664   0.738   5.216  11.087  0.0340 -3.0830  1.2602
  854MOL0     H12665   0.557   5.459  11.422 -0.4147 -0.0857 -0.3355
  854MOL0     H12666   0.547   5.298  11.485  0.0491  1.4180  1.8743
  854MOL0     H12667   0.379   5.208  11.349 -0.5742 -0.1446 -0.2014
  854MOL0     H12668   0.382   5.349  11.240  1.1195 -1.0186 -0.8255
  854MOL0     H12669   0.273   5.487  11.434 -1.4354  0.7323  4.8721
  854MOL0     H12670   0.261   5.344  11.528  0.1342  0.9152  0.3000
  854MOL0     H12671   0.150   5.401  11.250  3.7326 -1.3805 -0.9332
  854MOL0     H12672   0.151   5.236  11.312 -0.5098 -0.5667 -1.2056
  854MOL0     H12673   0.036   5.466  11.461  0.5386 -0.6971  2.2783
  854MOL0     H12674   0.036   5.297  11.515  0.9658 -0.2310 -0.0202
  854MOL0     H12675  -0.123   5.239  11.329 -0.2522  1.2319 -1.0414
  854MOL0     H12676  -0.131   5.407  11.297 -1.5812  1.8152  2.2622
  854MOL0     H12677  -0.170   5.285  11.569 -0.3282 -1.5690  0.0489
  854MOL0     H12678  -0.212   5.456  11.518  0.2007  0.0640 -1.3334
  854MOL0     H12679  -0.367   5.192  11.419 -0.9894  0.5502 -0.3774
  854MOL0     H12680  -0.362   5.336  11.335 -0.2201  1.1811  0.9272
  854MOL0     H12681  -0.419   5.569  11.539 -1.9242  1.1289  0.7767
  854MOL0     H12682  -0.533   5.663  11.755  1.2644 -1.9256 -0.8299
  854MOL0     H12683  -0.637   5.551  11.841  2.6775 -2.9006  0.2819
  854MOL0     H12684  -0.713   5.642  11.569  4.7019 -1.0671  1.3635
  854MOL0     H12685  -0.761   5.738  11.706 -1.6671 -0.0296 -0.6821
  854MOL0     H12686  -0.821   5.440  11.683  0.7435  0.4048 -2.2941
  854MOL0     H12687  -0.892   5.558  11.808 -5.1232  1.6989 -1.5908
  854MOL0     H12688  -1.044   5.486  11.645  0.0989  0.4981  0.2413
  854MOL0     H12689  -0.927   5.534  11.513 -0.5157  0.0565 -0.2206
  854MOL0     H12690  -1.149   5.901  11.666 -2.9427  2.5775  0.2442
  854MOL0     H12691  -1.394   5.956  11.624 -1.8819 -1.3792 -0.8052
  854MOL0     H12692  -1.786   5.622  11.565  2.3803  0.2099  2.4395
  854MOL0     H12693  -2.030   5.621  11.580 -0.1145  0.0930  1.7327
  854MOL0     H12694  -2.343   5.922  11.510  0.0264  1.2018 -0.8552
  854MOL0     H12695  -2.192   6.006  11.510  0.9727 -2.0914 -0.8851
  854MOL0     H12696  -2.296   6.126  11.687  2.6006 -0.3398  0.6304
  854MOL0     H12697  -2.237   5.996  11.789 -2.0770  0.6912  1.4723
  854MOL0     H12698  -2.434   5.869  11.754  2.5495  0.1036 -1.0845
  854MOL0     H12699  -2.507   6.003  11.665  0.9307  1.5932  0.7553
  854MOL0     H12700  -2.408   6.011  11.965  0.6623  0.4405 -0.3206
  854MOL0     H12701  -2.493   6.139  11.877  0.3578  0.4293 -0.1423
  854MOL0     H12702  -2.598   5.852  11.922  0.8960 -0.0838  0.7170
  854MOL0     H12703  -2.683   5.972  11.826 -0.9430  1.7363  0.0562
  854MOL0     H12704  -2.736   6.101  12.019  2.2364  1.7275 -1.5984
  854MOL0     H12705  -2.587   6.049  12.104 -1.2142 -0.1976  0.3410
  854MOL0     H12706  -2.836   5.887  12.071 -0.0526  1.0523 -0.9237
  854MOL0     H12707  -2.684   5.840  12.139 -0.0766  0.3414  0.9280
  854MOL0     H12708  -2.862   5.915  12.308  0.1230 -0.5611 -0.5833
  854MOL0     H12709  -2.851   6.071  12.248 -1.7065 -0.5936  0.0897
  854MOL0     H12710  -2.026   6.050  11.631 -0.4572  0.6317  0.4539
  854MOL0     H12711  -1.795   6.046  11.643  0.9317 -1.7141  1.7079
  854MOL0     H12712  -1.412   5.563  11.442  1.3440 -0.0844 -0.1105
  854MOL0     H12713  -1.188   5.524  11.478 -1.2733 -0.4641 -0.4184
  854MOL0     H12714   0.807   5.335  11.499  3.0275 -0.2224  1.8181
  854MOL0     H12715   1.038   5.315  11.467 -1.9307 -2.0318  0.8967
  854MOL0     H12716   1.401   5.360  11.255  0.7922  0.9616 -1.6583
  854MOL0     H12717   1.636   5.341  11.251 -0.4852 -1.0147  1.7911
  854MOL0     H12718   1.822   4.937  11.285  4.0489 -0.3599 -0.5474
  854MOL0     H12719   1.819   5.043  11.424 -1.5770  0.2780 -0.0966
  854MOL0     H12720   2.045   4.959  11.329  0.4423  2.0780  1.8632
  854MOL0     H12721   2.015   5.072  11.195  0.4879 -0.3623 -1.1571
  854MOL0     H12722   1.961   5.197  11.455  0.3742 -4.9128  4.3391
  854MOL0     H12723   2.067   5.248  11.333 -1.4729  0.8030 -1.0309
  854MOL0     H12724   2.201   5.170  11.548 -0.4196 -0.3378 -0.0879
  854MOL0     H12725   2.122   5.024  11.532 -1.2256  2.1294  1.8924
  854MOL0     H12726   2.422   5.019  11.207  0.4407  0.9017 -0.0873
  854MOL0     H12727   1.624   4.923  11.212  2.4148  1.4111  2.2205
  854MOL0     H12728   1.388   4.930  11.230  3.2241 -1.1373  0.5747
  855MOL0     O12729   6.247   0.491   2.265  0.2177  0.5221 -0.4162
  855MOL0     C12730   6.302   0.594   2.276  0.1194 -0.0980  0.5768
  855MOL0     O12731   6.300   0.675   2.386 -0.0860  0.3127  0.5636
  855MOL0     C12732   6.225   0.662   2.500 -0.4018 -0.0752 -0.5285
  855MOL0     C12733   6.244   0.757   2.605 -0.1254  0.1551 -0.0931
  855MOL0     C12734   6.156   0.750   2.713 -0.0902 -0.5459 -0.7200
  855MOL0     C12735   6.060   0.655   2.723  0.7391  0.1716 -0.0335
  855MOL0     O12736   5.983   0.644   2.844 -0.8088  0.0126 -0.0991
  855MOL0     C12737   6.076   0.624   2.950  0.4792  0.6417 -0.4895
  855MOL0     C12738   5.985   0.548   3.061 -0.4868 -0.0073 -0.0941
  855MOL0     C12739   6.070   0.467   3.153  0.9883 -0.2084 -0.0009
  855MOL0     C12740   6.117   0.562   3.262 -0.1860 -0.9243 -0.1259
  855MOL0     C12741   6.217   0.501   3.356  0.4290 -0.0138 -0.3692
  855MOL0     C12742   6.308   0.607   3.404 -0.3523  0.0384 -0.3128
  855MOL0     C12743   6.414   0.558   3.505 -1.1110  1.4152 -0.6293
  855MOL0     C12744   6.508   0.670   3.548 -0.9407  0.8736  0.4656
  855MOL0     N12745   6.599   0.627   3.657 -0.3394  1.0980  0.8711
  855MOL0     C12746   6.690   0.522   3.658  0.0153  0.9299 -0.6333
  855MOL0     C12747   6.746   0.527   3.786  0.1067  0.2316 -0.5609
  855MOL0     C12748   6.834   0.441   3.859  0.0343 -0.2484 -0.6474
  855MOL0     C12749   6.853   0.306   3.780 -0.6703 -0.8545  0.3400
  855MOL0     C12750   6.938   0.204   3.862  0.5100  0.8080  0.2643
  855MOL0     C12751   7.077   0.259   3.892 -0.5637 -1.1234 -0.1210
  855MOL0     O12752   7.183   0.158   3.913 -0.9424  0.0938 -0.8001
  855MOL0     C12753   7.306   0.205   3.883  0.5414  0.7817 -0.5157
  855MOL0     C12754   7.352   0.335   3.849 -0.1425 -0.3661  0.0823
  855MOL0     C12755   7.480   0.366   3.836  0.0914  0.6885 -1.1378
  855MOL0     C12756   7.579   0.260   3.838  0.4919 -0.0300 -1.0424
  855MOL0     C12757   7.722   0.281   3.793  0.0606  0.7222  0.4773
  855MOL0     O12758   7.753   0.403   3.734  0.1908  0.3810 -0.0537
  855MOL0     C12759   7.881   0.417   3.689  1.3534 -0.5243 -0.3252
  855MOL0     C12760   7.908   0.421   3.553 -0.3692 -0.7735  0.9203
  855MOL0     C12761   8.039   0.450   3.497 -0.3896 -0.3380 -0.4560
  855MOL0     C12762   8.151   0.461   3.583 -1.0565 -0.6677  0.8031
  855MOL0     O12763   8.287   0.468   3.545  0.3772  0.9970 -0.2354
  855MOL0     C12764   8.318   0.508   3.413  0.4063  0.8219 -0.3251
  855MOL0     C12765   8.467   0.533   3.416 -0.0248 -0.1720  0.6375
  855MOL0     C12766   8.545   0.408   3.447 -0.8478  1.8794 -0.6756
  855MOL0     C12767   8.699   0.439   3.458  0.1212  0.1289 -0.4464
  855MOL0     C12768   8.783   0.312   3.487 -0.0108  0.2859 -0.2672
  855MOL0     C12769   8.929   0.342   3.506 -0.4754  0.2085 -0.9736
  855MOL0     C12770   9.015   0.215   3.516 -0.3368 -0.2448 -0.0865
  855MOL0     C12771   9.149   0.277   3.564  0.0673 -0.1585 -0.2606
  855MOL0    Cl12772   9.286   0.148   3.551 -0.4848  0.3073 -0.3728
  855MOL0     C12773   8.121   0.443   3.722 -1.0859 -0.0535  0.1012
  855MOL0     C12774   7.993   0.426   3.770 -0.0867 -0.6806 -0.0474
  855MOL0     O12775   7.798   0.190   3.803 -0.1447 -0.1541 -0.3883
  855MOL0     C12776   7.531   0.124   3.856 -1.2337 -0.9885  0.8168
  855MOL0     C12777   7.398   0.100   3.888 -0.1244 -0.5592 -0.2325
  855MOL0     N12778   6.693   0.630   3.855 -0.4807 -0.8585  0.2501
  855MOL0     N12779   6.610   0.695   3.771  0.0711  0.6329  0.3858
  855MOL0     C12780   6.027   0.575   2.621 -0.8021 -0.2409 -0.2322
  855MOL0     C12781   6.117   0.570   2.508  0.7924 -0.3985 -0.7125
  855MOL0     C12782   6.369   0.654   2.156 -0.2478 -0.3037 -0.0997
  855MOL0     C12783   6.314   0.627   2.023  0.9974  0.3545 -0.6833
  855MOL0     C12784   6.366   0.690   1.915 -0.8359 -0.5516  0.0855
  855MOL0     C12785   6.474   0.771   1.920 -1.2619  0.7933 -0.2022
  855MOL0     O12786   6.525   0.832   1.806  1.0731  0.6751  0.3647
  855MOL0     C12787   6.462   0.855   1.677  0.2139  0.2888  1.0990
  855MOL0     C12788   6.557   0.838   1.554 -0.3101 -0.9357  0.3005
  855MOL0     C12789   6.663   0.955   1.537  0.4901 -0.5025  0.8984
  855MOL0     C12790   6.784   0.914   1.615 -0.4340 -0.9107 -0.2951
  855MOL0     C12791   6.888   1.014   1.603  0.2190  0.3445 -0.1174
  855MOL0     C12792   6.986   1.095   1.602 -0.0444  0.5091  0.4123
  855MOL0     C12793   6.546   0.782   2.049 -0.8480 -1.1629  0.1078
  855MOL0     C12794   6.488   0.727   2.167 -0.7902 -1.1141 -0.6121
  855MOL0     H12795   6.332   0.820   2.599  0.3415 -0.1367  2.6057
  855MOL0     H12796   6.183   0.825   2.787 -2.2882 -1.9224  1.6275
  855MOL0     H12797   6.104   0.720   2.994  0.5604 -0.7904  2.9182
  855MOL0     H12798   6.153   0.550   2.924  1.0580  1.1987 -0.3803
  855MOL0     H12799   5.922   0.473   3.012  1.3554 -1.3740 -0.5053
  855MOL0     H12800   5.918   0.619   3.111  0.3176 -0.0874  1.1602
  855MOL0     H12801   6.146   0.413   3.096 -1.0084 -2.3966 -0.7432
  855MOL0     H12802   6.008   0.395   3.207  0.8861  0.0820  0.2709
  855MOL0     H12803   6.158   0.649   3.209 -1.4672 -1.6444 -2.4424
  855MOL0     H12804   6.026   0.599   3.310 -1.2216  0.3590 -2.8331
  855MOL0     H12805   6.282   0.422   3.317  1.4639  0.8843 -0.5027
  855MOL0     H12806   6.159   0.472   3.444 -0.9606  0.3287 -1.1359
  855MOL0     H12807   6.246   0.679   3.459 -2.7359 -3.0448  1.3442
  855MOL0     H12808   6.351   0.658   3.317  1.3432 -0.4929  0.1771
  855MOL0     H12809   6.370   0.521   3.598  0.9859  1.5256  0.4490
  855MOL0     H12810   6.478   0.480   3.461 -3.1454  0.4334 -2.0264
  855MOL0     H12811   6.446   0.755   3.578 -0.9796  0.5132  1.4332
  855MOL0     H12812   6.561   0.701   3.457 -2.4968 -0.5833 -1.0104
  855MOL0     H12813   6.706   0.442   3.587 -0.7842 -0.3668  0.5936
  855MOL0     H12814   6.791   0.410   3.954  0.0629  0.8039 -0.2886
  855MOL0     H12815   6.930   0.482   3.891  1.5253 -0.4459 -4.3196
  855MOL0     H12816   6.889   0.331   3.680 -0.7397  0.3551  0.6023
  855MOL0     H12817   6.755   0.257   3.774 -0.3266 -1.4525 -4.1772
  855MOL0     H12818   6.882   0.178   3.952  0.2948 -1.3121 -0.4267
  855MOL0     H12819   6.953   0.111   3.806  1.8312  1.3970 -0.4123
  855MOL0     H12820   7.063   0.332   3.973  1.4394  0.9948 -1.5441
  855MOL0     H12821   7.111   0.326   3.812  0.9207  0.7434  1.9344
  855MOL0     H12822   7.289   0.421   3.826  1.8720  0.7648 -1.4645
  855MOL0     H12823   7.507   0.469   3.813 -1.7281  1.2058 -1.1809
  855MOL0     H12824   7.823   0.418   3.486  1.0929  0.3675 -1.1019
  855MOL0     H12825   8.054   0.440   3.390  1.3582 -4.2883 -0.0181
  855MOL0     H12826   8.264   0.602   3.400  0.3781  0.8240 -0.1951
  855MOL0     H12827   8.288   0.437   3.336 -0.0128  1.6562 -0.9539
  855MOL0     H12828   8.486   0.604   3.497 -0.3608 -1.2218  1.6606
  855MOL0     H12829   8.497   0.572   3.319 -0.4412  2.4822  1.4846
  855MOL0     H12830   8.528   0.337   3.366 -1.6509 -0.0520  1.1129
  855MOL0     H12831   8.519   0.352   3.537  1.0162 -2.1605 -2.3744
  855MOL0     H12832   8.742   0.478   3.366 -1.1581  0.4618 -0.9205
  855MOL0     H12833   8.724   0.513   3.535  2.9916  2.2841 -3.1978
  855MOL0     H12834   8.764   0.260   3.392 -0.0469  0.9149 -0.6081
  855MOL0     H12835   8.738   0.259   3.571  0.1813  1.3251  0.5154
  855MOL0     H12836   8.933   0.395   3.602  0.2129  1.0984 -1.4928
  855MOL0     H12837   8.969   0.409   3.431 -1.6769  3.4118  1.0398
  855MOL0     H12838   8.981   0.145   3.594  1.2756 -2.0254 -0.9138
  855MOL0     H12839   9.031   0.162   3.422 -0.2320 -1.8756  0.8025
  855MOL0     H12840   9.147   0.330   3.659  1.2914  0.9321 -0.8162
  855MOL0     H12841   9.178   0.353   3.490 -2.4664  1.8563  0.6661
  855MOL0     H12842   8.190   0.443   3.806 -2.6226  0.6635  1.4157
  855MOL0     H12843   7.972   0.427   3.876 -0.4644  1.8447 -0.0691
  855MOL0     H12844   7.596   0.037   3.860 -1.7824 -1.3734  1.8809
  855MOL0     H12845   7.361  -0.000   3.908  1.1653 -0.9699  0.1738
  855MOL0     H12846   5.936   0.517   2.629 -0.3526 -0.8916  0.3154
  855MOL0     H12847   6.084   0.497   2.435  1.2993 -2.7428  1.2758
  855MOL0     H12848   6.233   0.555   2.022 -0.4807  1.9541 -1.3360
  855MOL0     H12849   6.317   0.670   1.821 -3.9233 -0.4549  1.5551
  855MOL0     H12850   6.429   0.959   1.672  0.3471  0.3137 -2.8780
  855MOL0     H12851   6.367   0.804   1.656  0.3369  1.0313 -1.6855
  855MOL0     H12852   6.603   0.739   1.541 -2.0973 -1.4483 -3.2333
  855MOL0     H12853   6.494   0.853   1.467  4.9291  2.1030 -3.5082
  855MOL0     H12854   6.625   1.052   1.571 -1.7119 -0.4446 -1.4790
  855MOL0     H12855   6.697   0.964   1.434 -0.0111 -2.1157  0.5560
  855MOL0     H12856   6.757   0.911   1.721  0.7382 -1.7037 -0.0067
  855MOL0     H12857   6.816   0.816   1.579  2.0826 -0.6182  0.9516
  855MOL0     H12858   7.072   1.158   1.602 -0.4486  1.1228  2.2653
  855MOL0     H12859   6.647   0.821   2.040 -0.2492 -3.1089 -4.0289
  855MOL0     H12860   6.539   0.745   2.261 -0.5867 -2.0194 -0.5422
  856MOL0     O12861   2.384   8.495   3.423  0.6810 -0.1800  0.3981
  856MOL0     C12862   2.439   8.573   3.344  0.7839  0.3783  0.2016
  856MOL0     O12863   2.391   8.610   3.219  0.5227  0.3867  0.3375
  856MOL0     C12864   2.258   8.606   3.218  0.0559 -0.4454 -0.2553
  856MOL0     C12865   2.181   8.696   3.306 -1.8361  1.2252 -0.0865
  856MOL0     C12866   2.044   8.702   3.284 -0.2465  0.2829 -0.7791
  856MOL0     C12867   1.979   8.625   3.188  0.8677 -0.2304 -0.1518
  856MOL0     O12868   1.846   8.633   3.160  0.5452 -0.3992  0.0945
  856MOL0     C12869   1.765   8.753   3.209  0.7190  0.5408  0.5675
  856MOL0     C12870   1.634   8.732   3.136 -0.3479 -0.5943  0.5854
  856MOL0     C12871   1.529   8.840   3.174 -0.3012  0.0462  0.2511
  856MOL0     C12872   1.388   8.823   3.106 -0.8244 -0.1038 -0.3137
  856MOL0     C12873   1.269   8.895   3.178  0.2233  0.1653  0.3014
  856MOL0     C12874   1.184   8.806   3.271 -1.6264  0.4050 -0.4822
  856MOL0     C12875   1.267   8.738   3.373  0.4576  0.1402 -0.8925
  856MOL0     C12876   1.200   8.627   3.449  0.5952  0.1209  0.6276
  856MOL0     N12877   1.082   8.679   3.511  0.4330 -0.9279  0.3710
  856MOL0     C12878   1.081   8.762   3.616  0.3690  0.3006 -0.4807
  856MOL0     C12879   0.962   8.820   3.614  0.2260 -0.1055 -0.2410
  856MOL0     C12880   0.922   8.947   3.702  0.5752 -0.2823 -0.0496
  856MOL0     C12881   0.944   8.920   3.856  0.6111  0.2448  0.2839
  856MOL0     C12882   0.858   8.806   3.913 -0.8117  0.0928 -0.3585
  856MOL0     C12883   0.883   8.791   4.067 -0.0004  0.1649  0.4116
  856MOL0     O12884   0.867   8.914   4.132  0.2033 -0.4641  0.0239
  856MOL0     C12885   0.738   8.953   4.170 -0.0653  0.3522  0.3986
  856MOL0     C12886   0.707   9.087   4.152 -0.0695  0.9405  0.4030
  856MOL0     C12887   0.579   9.128   4.199  0.1971  0.0092 -0.0742
  856MOL0     C12888   0.476   9.045   4.240 -0.0273  0.0120  0.4190
  856MOL0     C12889   0.334   9.090   4.252 -0.0229 -0.1267  0.0344
  856MOL0     O12890   0.247   9.007   4.306  0.7578  0.4086 -0.3572
  856MOL0     C12891   0.111   9.049   4.305 -1.2047  0.0836  0.0080
  856MOL0     C12892   0.049   9.077   4.420  0.9473 -0.8277 -0.0538
  856MOL0     C12893  -0.081   9.119   4.410 -0.4677  0.0887  0.4901
  856MOL0     C12894  -0.149   9.126   4.293  0.6793 -0.1940 -0.7775
  856MOL0     O12895  -0.274   9.173   4.293  0.9077  0.2018 -0.2189
  856MOL0     C12896  -0.366   9.084   4.353 -0.9212  0.4366  0.0774
  856MOL0     C12897  -0.509   9.117   4.322 -0.3254  0.0043  0.6019
  856MOL0     C12898  -0.601   8.999   4.367 -0.6692 -0.4511 -0.4789
  856MOL0     C12899  -0.753   9.023   4.359 -0.3306  0.8339  0.2878
  856MOL0     C12900  -0.838   8.901   4.400 -0.2465 -0.4273 -0.9286
  856MOL0     C12901  -0.983   8.955   4.384  0.0085 -0.4347 -0.0430
  856MOL0     C12902  -1.077   8.835   4.407 -0.8742  0.2971  0.3325
  856MOL0     C12903  -1.220   8.874   4.399 -0.2410  0.6986 -0.6514
  856MOL0    Cl12904  -1.261   9.010   4.515 -0.2829 -0.0323 -0.1392
  856MOL0     C12905  -0.091   9.088   4.170 -0.0134 -0.8873  0.3338
  856MOL0     C12906   0.046   9.042   4.175 -0.2786 -0.2537 -0.4025
  856MOL0     O12907   0.312   9.213   4.231  0.3386 -0.1953 -1.1116
  856MOL0     C12908   0.510   8.912   4.258  0.2207  0.1175  0.0725
  856MOL0     C12909   0.645   8.871   4.231  0.4385  0.2343  0.7648
  856MOL0     N12910   0.889   8.755   3.516 -0.0974  0.0405 -0.1058
  856MOL0     N12911   0.963   8.669   3.450 -0.5598 -0.3356 -0.1303
  856MOL0     C12912   2.056   8.531   3.115  0.0192 -0.4340  1.3387
  856MOL0     C12913   2.194   8.523   3.130 -0.2375 -0.1887  1.0187
  856MOL0     C12914   2.572   8.624   3.385  1.2605  0.6836 -0.6303
  856MOL0     C12915   2.651   8.690   3.293 -0.3045  0.3473  0.4322
  856MOL0     C12916   2.775   8.730   3.333 -1.1210  0.5805 -0.5659
  856MOL0     C12917   2.831   8.694   3.455  0.3290  0.1039  0.6084
  856MOL0     O12918   2.960   8.716   3.492  0.5588 -0.4864  1.1035
  856MOL0     C12919   3.047   8.780   3.401 -0.6452 -0.9638 -0.2926
  856MOL0     C12920   3.185   8.793   3.474 -0.0005 -0.5103 -0.4395
  856MOL0     C12921   3.270   8.901   3.403  0.7428 -0.1049  0.4590
  856MOL0     C12922   3.410   8.915   3.470  0.5691 -0.5033 -0.5732
  856MOL0     C12923   3.397   8.971   3.601  0.1573  1.2062  0.4960
  856MOL0     C12924   3.394   9.019   3.712 -0.4170 -0.0411 -0.7766
  856MOL0     C12925   2.747   8.632   3.546  0.0950 -0.7248 -0.4044
  856MOL0     C12926   2.616   8.607   3.514  0.7564 -0.1836  0.1718
  856MOL0     H12927   2.232   8.750   3.385  1.8772 -2.9506  0.7785
  856MOL0     H12928   1.984   8.775   3.338 -1.0896  0.8397 -2.3854
  856MOL0     H12929   1.802   8.850   3.174 -0.6648  0.5284 -1.0576
  856MOL0     H12930   1.758   8.752   3.318 -0.9588  2.1297  0.5150
  856MOL0     H12931   1.609   8.628   3.160  2.4764 -1.4365  0.3020
  856MOL0     H12932   1.647   8.738   3.028  0.1493 -1.3287  0.5930
  856MOL0     H12933   1.564   8.939   3.146 -0.7146  0.1456  0.0807
  856MOL0     H12934   1.516   8.845   3.283 -1.1126  3.5097  0.0969
  856MOL0     H12935   1.400   8.849   3.000 -4.3027  0.4814 -0.6787
  856MOL0     H12936   1.361   8.717   3.110  0.7466 -0.4916  2.3628
  856MOL0     H12937   1.198   8.928   3.101 -2.0302 -2.8509  0.9104
  856MOL0     H12938   1.317   8.981   3.226  1.7026  2.0140 -3.9343
  856MOL0     H12939   1.128   8.732   3.214 -0.5699  0.2372 -1.3372
  856MOL0     H12940   1.113   8.866   3.329 -0.3826  0.3445  1.2067
  856MOL0     H12941   1.358   8.695   3.329  1.3664  2.2989 -1.2555
  856MOL0     H12942   1.299   8.814   3.445  1.7656 -1.0415 -0.1679
  856MOL0     H12943   1.278   8.601   3.521 -0.2226  2.0022  2.3103
  856MOL0     H12944   1.179   8.541   3.385 -0.7023 -0.6648  2.0365
  856MOL0     H12945   1.170   8.784   3.673 -0.5029  2.4493  0.1484
  856MOL0     H12946   0.813   8.953   3.701  0.5498 -0.2555  1.3706
  856MOL0     H12947   0.975   9.037   3.673 -0.0461  0.0769 -0.0944
  856MOL0     H12948   0.916   9.012   3.909  0.1907  1.5756 -2.1010
  856MOL0     H12949   1.051   8.913   3.876  0.6122  1.7783  0.9664
  856MOL0     H12950   0.758   8.843   3.886 -0.3751  0.5265 -1.4246
  856MOL0     H12951   0.880   8.715   3.858  1.4958  0.7935 -0.7184
  856MOL0     H12952   0.978   8.744   4.094  0.6682  2.2775  1.9349
  856MOL0     H12953   0.820   8.713   4.112 -2.2431 -0.3784 -3.1643
  856MOL0     H12954   0.781   9.152   4.108  0.9698 -0.7020 -0.3669
  856MOL0     H12955   0.557   9.233   4.184 -1.0685 -0.3980 -1.2837
  856MOL0     H12956   0.099   9.073   4.516 -3.2061 -2.6694  2.2616
  856MOL0     H12957  -0.130   9.143   4.504  1.4756 -0.8633  1.8372
  856MOL0     H12958  -0.349   9.084   4.461  1.6166 -3.9872 -0.0674
  856MOL0     H12959  -0.341   8.981   4.326  2.8067  1.6328 -1.8056
  856MOL0     H12960  -0.535   9.148   4.221 -2.3402  0.3744  1.1920
  856MOL0     H12961  -0.530   9.201   4.389 -2.0095 -0.1446  0.2986
  856MOL0     H12962  -0.583   8.989   4.475  3.9143  4.0759 -0.4095
  856MOL0     H12963  -0.576   8.908   4.312  0.9825 -0.5624  0.3787
  856MOL0     H12964  -0.786   9.109   4.418  3.3027  1.4015  1.7244
  856MOL0     H12965  -0.779   9.049   4.256 -3.5643  0.4208  0.8744
  856MOL0     H12966  -0.821   8.874   4.504  2.5623  1.2879 -0.8293
  856MOL0     H12967  -0.808   8.818   4.335  2.2449 -0.9387  0.7389
  856MOL0     H12968  -1.007   8.996   4.285  1.9559 -1.8549 -1.1708
  856MOL0     H12969  -1.015   9.036   4.450  0.0088  2.0005 -2.8020
  856MOL0     H12970  -1.058   8.764   4.326  2.5703 -0.6174  1.7630
  856MOL0     H12971  -1.060   8.789   4.505 -0.4587 -0.0602  0.0952
  856MOL0     H12972  -1.285   8.798   4.444 -4.1402  2.9074 -2.1326
  856MOL0     H12973  -1.259   8.906   4.302 -0.8196  0.4160 -0.5158
  856MOL0     H12974  -0.139   9.080   4.073 -0.3702  0.5032  0.3731
  856MOL0     H12975   0.102   9.024   4.085  0.5676 -0.4587  0.1539
  856MOL0     H12976   0.437   8.845   4.303 -0.4678  0.3022 -0.7378
  856MOL0     H12977   0.678   8.770   4.255 -1.2552 -0.4974  0.1426
  856MOL0     H12978   2.018   8.474   3.031 -2.9190  1.1489  1.4447
  856MOL0     H12979   2.253   8.457   3.068 -1.6877  0.0722 -0.7017
  856MOL0     H12980   2.615   8.715   3.193 -1.4287  2.5565  1.3035
  856MOL0     H12981   2.835   8.768   3.252  1.1494 -2.7988 -0.6378
  856MOL0     H12982   3.011   8.877   3.367  0.0784 -0.1204  1.2067
  856MOL0     H12983   3.064   8.720   3.311  3.5059 -2.0999  1.0069
  856MOL0     H12984   3.163   8.836   3.573  0.5016 -2.0746  0.3922
  856MOL0     H12985   3.238   8.699   3.491 -2.3463 -1.8439  0.0377
  856MOL0     H12986   3.225   9.000   3.415  2.2420  0.9141 -1.7059
  856MOL0     H12987   3.280   8.876   3.297 -2.1680  0.3681 -0.0101
  856MOL0     H12988   3.457   8.818   3.489  0.2401 -0.2673  1.6773
  856MOL0     H12989   3.468   8.974   3.399 -3.1567  3.6794 -0.5830
  856MOL0     H12990   3.391   9.042   3.816 -1.0310  0.4887 -0.9054
  856MOL0     H12991   2.789   8.623   3.646 -1.3055  0.4568  0.3239
  856MOL0     H12992   2.551   8.566   3.591 -1.9701  3.6606  0.1613
  857MOL0     O12993   5.831   4.145   0.378  0.0254 -0.2322  0.6924
  857MOL0     C12994   5.917   4.085   0.318  0.1171 -0.0659 -0.0167
  857MOL0     O12995   5.899   3.973   0.241 -0.5892  0.0128  0.4493
  857MOL0     C12996   5.775   3.912   0.236 -0.5396 -0.4296  0.3604
  857MOL0     C12997   5.721   3.882   0.117 -0.3620 -0.4096 -0.0560
  857MOL0     C12998   5.598   3.814   0.117  0.0102 -0.8136 -0.2288
  857MOL0     C12999   5.530   3.783   0.237  0.3880 -0.1887  0.3755
  857MOL0     O13000   5.403   3.730   0.245 -0.0509  0.5030 -0.7892
  857MOL0     C13001   5.323   3.708   0.131 -0.1111 -0.5295  0.2265
  857MOL0     C13002   5.177   3.697   0.165 -0.2045  0.0493 -0.4185
  857MOL0     C13003   5.068   3.695   0.058 -0.3468  0.2231  0.4673
  857MOL0     C13004   5.041   3.836  -0.000 -0.1503 -0.5330 -0.0364
  857MOL0     C13005   4.921   3.830  -0.094  0.1082 -0.6694  0.1125
  857MOL0     C13006   4.789   3.862  -0.017 -0.4808  0.0278  0.4143
  857MOL0     C13007   4.790   3.999   0.059 -0.0678  0.1765  0.1890
  857MOL0     C13008   4.678   4.014   0.151  1.2809  0.3574  0.1401
  857MOL0     N13009   4.672   4.151   0.196 -0.8116  0.5968 -0.0872
  857MOL0     C13010   4.569   4.232   0.225  0.2589  0.3499 -0.3961
  857MOL0     C13011   4.612   4.349   0.278  0.9054  0.8020 -0.0214
  857MOL0     C13012   4.526   4.474   0.298 -0.3053  1.4591  0.6757
  857MOL0     C13013   4.412   4.465   0.404  0.6747  0.7569  0.5652
  857MOL0     C13014   4.300   4.357   0.371 -0.5048 -1.0112  0.5919
  857MOL0     C13015   4.180   4.398   0.449 -0.2594  0.5378 -0.3930
  857MOL0     O13016   4.092   4.293   0.466 -0.5042  0.0125  0.3547
  857MOL0     C13017   3.979   4.315   0.541  0.1991 -0.4934 -0.5951
  857MOL0     C13018   3.943   4.427   0.619 -0.1911  0.0178 -1.3654
  857MOL0     C13019   3.822   4.434   0.691 -0.2757  0.7195 -0.9853
  857MOL0     C13020   3.734   4.317   0.687 -0.6649  0.0033 -0.3875
  857MOL0     C13021   3.607   4.330   0.764 -0.2460  0.4953  0.8687
  857MOL0     O13022   3.512   4.233   0.742 -0.4068  0.6614 -0.0129
  857MOL0     C13023   3.395   4.243   0.815 -0.4191  0.3086  0.2453
  857MOL0     C13024   3.292   4.334   0.780 -0.2438  0.3628 -0.1247
  857MOL0     C13025   3.173   4.330   0.862 -0.0016 -0.7065  1.1902
  857MOL0     C13026   3.153   4.241   0.970  0.0286 -0.4510 -0.2060
  857MOL0     O13027   3.036   4.242   1.037 -0.2706 -0.2424 -0.2359
  857MOL0     C13028   2.969   4.369   1.073 -0.8717  0.0775  0.7316
  857MOL0     C13029   2.869   4.359   1.188 -0.2185  0.4353  0.9398
  857MOL0     C13030   2.791   4.219   1.173  0.1877  0.3250 -0.2054
  857MOL0     C13031   2.709   4.191   1.301  0.6118 -0.2720 -0.1501
  857MOL0     C13032   2.583   4.276   1.326 -0.7123 -0.0586  0.0296
  857MOL0     C13033   2.535   4.280   1.467 -0.3832  0.0006 -0.0596
  857MOL0     C13034   2.494   4.147   1.530 -0.9719  0.4122 -0.4132
  857MOL0     C13035   2.380   4.076   1.446  0.9223  0.0813 -0.6629
  857MOL0    Cl13036   2.230   4.179   1.408  0.1508  0.6716 -0.4078
  857MOL0     C13037   3.260   4.160   1.003 -0.6623  0.4525  0.0837
  857MOL0     C13038   3.374   4.152   0.929 -0.0733 -0.5947  0.3162
  857MOL0     O13039   3.585   4.432   0.830  0.2654  0.4162 -0.7480
  857MOL0     C13040   3.772   4.212   0.608  0.4143  0.4599 -0.1734
  857MOL0     C13041   3.884   4.207   0.538 -0.3338 -0.8522  0.5819
  857MOL0     N13042   4.747   4.335   0.293 -0.0493  0.5778 -0.0894
  857MOL0     N13043   4.777   4.217   0.248 -0.4654 -0.4907  0.7758
  857MOL0     C13044   5.589   3.814   0.359  0.3828 -0.4722  0.1330
  857MOL0     C13045   5.709   3.883   0.355  0.5367 -0.7742 -0.3064
  857MOL0     C13046   6.051   4.137   0.310  0.3129 -0.3625  0.0139
  857MOL0     C13047   6.088   4.273   0.347 -0.3257  0.2031  0.2626
  857MOL0     C13048   6.220   4.321   0.355  0.7167  0.2628  0.1226
  857MOL0     C13049   6.318   4.246   0.302 -0.1475 -0.0425  0.0516
  857MOL0     O13050   6.440   4.310   0.292  0.2510 -0.0042 -0.5393
  857MOL0     C13051   6.551   4.228   0.255  0.3369  1.4670 -0.0118
  857MOL0     C13052   6.670   4.326   0.232 -0.2800 -0.3245 -0.3743
  857MOL0     C13053   6.787   4.259   0.158 -0.3878  0.3713  0.0896
  857MOL0     C13054   6.886   4.367   0.117 -0.5767 -0.1522  0.2975
  857MOL0     C13055   6.963   4.433   0.227  0.2129  0.0181  0.8704
  857MOL0     C13056   7.024   4.452   0.326 -0.0147  0.7572 -0.2939
  857MOL0     C13057   6.285   4.117   0.255  0.6953  0.2864  0.6889
  857MOL0     C13058   6.159   4.064   0.265  0.9322 -0.6633 -0.5917
  857MOL0     H13059   5.776   3.911   0.028 -1.8908  0.3349 -0.8057
  857MOL0     H13060   5.545   3.776   0.030 -0.5855  0.0038 -0.2301
  857MOL0     H13061   5.351   3.612   0.086 -5.1723 -0.9918 -2.6643
  857MOL0     H13062   5.326   3.792   0.062  0.6767 -1.1343 -0.4946
  857MOL0     H13063   5.152   3.777   0.235 -1.4732  1.0578 -1.9663
  857MOL0     H13064   5.168   3.601   0.216  0.7010  0.0760 -0.1959
  857MOL0     H13065   4.977   3.648   0.097 -0.0687 -2.1465 -1.5181
  857MOL0     H13066   5.104   3.631  -0.023  2.8133  1.1126  1.0231
  857MOL0     H13067   5.041   3.915   0.075 -2.5983 -1.1026  0.6599
  857MOL0     H13068   5.124   3.857  -0.068  0.6536  2.3512  1.6818
  857MOL0     H13069   4.912   3.727  -0.131 -0.1367 -0.9781  1.0158
  857MOL0     H13070   4.930   3.888  -0.187 -0.4527 -1.5269 -0.4929
  857MOL0     H13071   4.782   3.790   0.065 -0.1205 -0.2764  0.1777
  857MOL0     H13072   4.702   3.854  -0.081 -1.3553 -1.5030  1.7063
  857MOL0     H13073   4.881   4.031   0.112  3.1689 -0.5445 -4.4114
  857MOL0     H13074   4.764   4.083  -0.007 -2.9937 -0.0452  0.8832
  857MOL0     H13075   4.677   3.936   0.227  0.2267  0.6158  0.4107
  857MOL0     H13076   4.587   4.006   0.091 -1.4715  4.1445  3.2818
  857MOL0     H13077   4.466   4.206   0.203  0.1318  0.3713  0.1725
  857MOL0     H13078   4.484   4.511   0.204 -1.1032  1.7938  1.1476
  857MOL0     H13079   4.588   4.553   0.340  2.3219  0.5333 -1.1935
  857MOL0     H13080   4.375   4.566   0.424  1.9816  1.8023 -1.8606
  857MOL0     H13081   4.461   4.448   0.500  0.3333  4.9950  1.7136
  857MOL0     H13082   4.272   4.332   0.269 -0.4051 -3.8951  1.1803
  857MOL0     H13083   4.336   4.262   0.411  1.6287 -1.0587 -1.2453
  857MOL0     H13084   4.143   4.475   0.380  1.6395 -0.7327 -3.0237
  857MOL0     H13085   4.211   4.434   0.548 -0.3772 -1.3054  0.3460
  857MOL0     H13086   4.008   4.513   0.628  2.2472 -1.2970 -4.4509
  857MOL0     H13087   3.809   4.515   0.762 -0.4507 -0.8915  0.9065
  857MOL0     H13088   3.315   4.407   0.703 -2.1804 -0.8954 -2.0220
  857MOL0     H13089   3.094   4.393   0.822  0.8343  0.1694  0.8938
  857MOL0     H13090   2.907   4.420   0.998 -0.2633 -1.5201 -0.9352
  857MOL0     H13091   3.049   4.434   1.111  1.2784 -2.0034  0.0147
  857MOL0     H13092   2.792   4.436   1.183 -0.9392 -0.3403 -1.0818
  857MOL0     H13093   2.916   4.354   1.287  0.5128 -0.7206  0.5615
  857MOL0     H13094   2.860   4.134   1.178 -1.5787 -1.1222  2.9061
  857MOL0     H13095   2.722   4.206   1.090  0.6048 -0.7086 -0.4155
  857MOL0     H13096   2.669   4.089   1.303  0.3482 -0.2971  4.9428
  857MOL0     H13097   2.765   4.206   1.393  1.4716 -0.9631 -0.5433
  857MOL0     H13098   2.503   4.241   1.260  0.9074 -1.4716 -1.2727
  857MOL0     H13099   2.606   4.381   1.308 -1.1068 -0.1894 -1.3102
  857MOL0     H13100   2.444   4.341   1.467  0.3072  1.1317 -2.0695
  857MOL0     H13101   2.607   4.326   1.535  0.2964 -1.4707  0.2497
  857MOL0     H13102   2.578   4.077   1.537 -1.5160 -0.2588 -0.3594
  857MOL0     H13103   2.450   4.165   1.628  1.1075 -5.0414  1.9312
  857MOL0     H13104   2.344   3.992   1.507 -1.1571 -0.0100 -1.9450
  857MOL0     H13105   2.420   4.033   1.353  2.0330 -0.3341 -0.0260
  857MOL0     H13106   3.259   4.094   1.090 -0.9193 -0.0776 -0.3114
  857MOL0     H13107   3.454   4.082   0.950 -0.8627 -2.1680 -1.6171
  857MOL0     H13108   3.700   4.132   0.597 -0.8449  1.7115 -1.3119
  857MOL0     H13109   3.896   4.120   0.474  1.2762 -0.1309 -0.1405
  857MOL0     H13110   5.556   3.789   0.459 -0.5295  1.3635  0.3398
  857MOL0     H13111   5.761   3.923   0.442 -4.7695  4.0255  1.2650
  857MOL0     H13112   6.016   4.344   0.385 -0.6562 -0.7453  1.4471
  857MOL0     H13113   6.239   4.419   0.398 -1.8323  1.6248 -1.5556
  857MOL0     H13114   6.530   4.170   0.165 -1.6872 -3.9136  3.4452
  857MOL0     H13115   6.568   4.160   0.338  0.1920  0.1688 -1.0164
  857MOL0     H13116   6.627   4.403   0.167 -2.4752  1.3484  2.7757
  857MOL0     H13117   6.691   4.371   0.330 -5.0616 -0.2828  0.8585
  857MOL0     H13118   6.750   4.212   0.066  0.4508  0.8722 -0.5092
  857MOL0     H13119   6.834   4.200   0.237  0.0312  3.6594  2.4883
  857MOL0     H13120   6.950   4.325   0.039 -1.1452  0.0299 -0.2765
  857MOL0     H13121   6.825   4.445   0.070 -1.5061 -0.2760  1.2709
  857MOL0     H13122   7.074   4.448   0.420  1.7094 -1.4428 -1.2173
  857MOL0     H13123   6.356   4.042   0.224 -0.2331  1.4959 -5.6649
  857MOL0     H13124   6.132   3.965   0.231  0.6696 -1.2333  1.1696
  858MOL0     O13125  10.415   5.628   7.044  0.3811  0.0466 -0.3889
  858MOL0     C13126  10.430   5.509   7.019 -1.0257 -0.3117 -0.0083
  858MOL0     O13127  10.334   5.416   6.989  0.9618  0.4272 -0.1174
  858MOL0     C13128  10.203   5.464   6.982 -0.0271  0.6491 -0.0319
  858MOL0     C13129  10.110   5.460   7.094 -0.0330  0.5851  0.0117
  858MOL0     C13130   9.975   5.489   7.073  0.2748 -0.2513 -0.3057
  858MOL0     C13131   9.930   5.537   6.952  0.2893 -0.6135  0.5363
  858MOL0     O13132   9.797   5.575   6.919  0.5235 -0.3802  0.6309
  858MOL0     C13133   9.691   5.507   6.982 -0.6479  0.1399  1.1424
  858MOL0     C13134   9.584   5.470   6.876 -0.2841  0.0647  0.0343
  858MOL0     C13135   9.504   5.345   6.925 -0.5561 -0.1191 -0.5232
  858MOL0     C13136   9.375   5.332   6.844  0.2546 -0.0176 -0.0554
  858MOL0     C13137   9.289   5.218   6.879  0.2872  0.5644 -0.0517
  858MOL0     C13138   9.191   5.180   6.768 -0.3640 -0.1693  0.5918
  858MOL0     C13139   9.069   5.277   6.752 -0.3964 -0.0934  0.5447
  858MOL0     C13140   8.977   5.243   6.641  0.4521 -0.1843  0.3635
  858MOL0     N13141   8.900   5.118   6.662  0.4936  0.0745 -0.3429
  858MOL0     C13142   8.768   5.100   6.677  0.8391  0.2800  0.5318
  858MOL0     C13143   8.747   4.964   6.687  0.2951  0.1759  0.0118
  858MOL0     C13144   8.613   4.898   6.707  0.0755 -0.8620  0.0393
  858MOL0     C13145   8.549   4.959   6.828 -0.1596 -0.3075 -1.2271
  858MOL0     C13146   8.626   4.933   6.951  0.3313 -0.0425 -0.1149
  858MOL0     C13147   8.559   5.000   7.073 -0.0213 -0.3521 -0.1556
  858MOL0     O13148   8.530   5.139   7.055  0.5549  0.4052  0.3293
  858MOL0     C13149   8.628   5.230   7.061  0.1352  0.2868  0.2592
  858MOL0     C13150   8.602   5.360   7.009  0.9966  0.2529 -1.2443
  858MOL0     C13151   8.694   5.462   6.992  0.2714  0.5779  0.3441
  858MOL0     C13152   8.822   5.434   7.044 -0.0850  0.1405 -0.2955
  858MOL0     C13153   8.935   5.527   7.022 -0.2847 -0.0311 -0.0507
  858MOL0     O13154   9.055   5.486   7.056  0.2034 -0.0328 -0.7650
  858MOL0     C13155   9.168   5.568   7.047  0.9489  0.6683  0.7243
  858MOL0     C13156   9.240   5.585   7.162 -0.0160 -0.1069 -0.2865
  858MOL0     C13157   9.350   5.671   7.161  0.1189 -0.2349  0.2736
  858MOL0     C13158   9.381   5.746   7.045 -0.9177  0.5150  0.1508
  858MOL0     O13159   9.494   5.816   7.054 -0.2404 -0.1142  0.4703
  858MOL0     C13160   9.575   5.863   6.949  0.7279  0.1434  0.0003
  858MOL0     C13161   9.666   5.953   7.025  0.0995  0.2616  0.3763
  858MOL0     C13162   9.785   5.995   6.926 -0.2310 -0.6738 -0.1879
  858MOL0     C13163   9.868   6.104   7.002  0.0881  0.3048  0.6193
  858MOL0     C13164   9.947   6.195   6.912  0.0449 -0.2301  1.0772
  858MOL0     C13165  10.066   6.142   6.824  1.0430 -0.2125 -0.3879
  858MOL0     C13166  10.176   6.063   6.907  0.4699 -0.1911 -0.8747
  858MOL0     C13167  10.239   6.142   7.021  0.2884 -0.0760 -0.1437
  858MOL0    Cl13168  10.296   6.309   6.970 -0.1400  0.0523 -0.2299
  858MOL0     C13169   9.308   5.725   6.927 -0.5237 -0.0241  0.1264
  858MOL0     C13170   9.197   5.637   6.930  0.5032  0.1329  0.2992
  858MOL0     O13171   8.908   5.642   6.992 -0.2814  0.7406 -0.3720
  858MOL0     C13172   8.848   5.309   7.103  0.3624 -0.0228  0.8366
  858MOL0     C13173   8.751   5.213   7.125 -0.0422 -0.3836  0.4839
  858MOL0     N13174   8.873   4.904   6.676 -0.2191  0.0268  0.1129
  858MOL0     N13175   8.961   5.000   6.663  0.5591 -0.0316 -0.1179
  858MOL0     C13176  10.016   5.553   6.846 -0.5348  0.3990 -0.9529
  858MOL0     C13177  10.149   5.502   6.858 -0.4457  0.3649  0.3594
  858MOL0     C13178  10.577   5.462   7.018 -0.0281 -1.1368 -0.2026
  858MOL0     C13179  10.681   5.539   7.076 -0.6271  0.1748 -0.8024
  858MOL0     C13180  10.812   5.482   7.101 -0.2852  0.6240 -0.8617
  858MOL0     C13181  10.849   5.359   7.042  0.6326  0.1184  0.1018
  858MOL0     O13182  10.973   5.321   7.086 -0.0935  0.2487 -0.4856
  858MOL0     C13183  11.029   5.202   7.015 -0.0663  0.6006 -0.6113
  858MOL0     C13184  11.184   5.187   7.021  0.3019 -0.2687  0.0315
  858MOL0     C13185  11.256   5.259   7.127  1.0314 -0.3709 -1.2898
  858MOL0     C13186  11.255   5.410   7.115 -0.3905 -0.2439 -0.9023
  858MOL0     C13187  11.352   5.480   7.199 -0.3927  0.3275  0.3138
  858MOL0     C13188  11.413   5.547   7.284  1.1457  0.2852 -0.6241
  858MOL0     C13189  10.749   5.293   6.970  0.9546 -0.5211 -0.6405
  858MOL0     C13190  10.616   5.343   6.962  0.7340  0.7220 -1.0870
  858MOL0     H13191  10.133   5.420   7.192 -0.4223 -1.7556 -0.7982
  858MOL0     H13192   9.901   5.489   7.152 -0.0654  2.0432 -0.5393
  858MOL0     H13193   9.654   5.575   7.059  0.5132  0.8782  1.0925
  858MOL0     H13194   9.725   5.414   7.029  2.8528  1.4108  1.4818
  858MOL0     H13195   9.623   5.442   6.778  1.0899  1.9095  0.0140
  858MOL0     H13196   9.521   5.557   6.854 -0.2913 -0.1013 -0.6278
  858MOL0     H13197   9.471   5.358   7.029 -4.3147 -5.0245 -0.7244
  858MOL0     H13198   9.558   5.251   6.920  1.2924  0.7022  2.0324
  858MOL0     H13199   9.316   5.423   6.862  1.1566  0.2207  1.9335
  858MOL0     H13200   9.403   5.323   6.739  0.0649 -0.1010 -0.1000
  858MOL0     H13201   9.238   5.238   6.974  0.3807  1.2807 -0.1488
  858MOL0     H13202   9.353   5.130   6.890  2.7158  2.2876  0.4233
  858MOL0     H13203   9.165   5.079   6.802  0.7618 -0.4608  0.6514
  858MOL0     H13204   9.249   5.160   6.678 -0.9300 -3.5714  0.8422
  858MOL0     H13205   9.012   5.287   6.845 -0.7042 -1.2858  0.4896
  858MOL0     H13206   9.108   5.377   6.730  1.0489 -0.8006 -0.2621
  858MOL0     H13207   9.026   5.228   6.545  0.6181 -1.7997  0.6671
  858MOL0     H13208   8.912   5.328   6.616 -1.3668 -1.1914  1.4598
  858MOL0     H13209   8.682   5.166   6.682 -0.9458 -2.0010  3.4197
  858MOL0     H13210   8.620   4.789   6.715  0.2890 -0.9808 -1.4405
  858MOL0     H13211   8.548   4.919   6.622  1.2640 -0.3240 -0.7805
  858MOL0     H13212   8.446   4.922   6.835 -0.3206  0.4650  1.7189
  858MOL0     H13213   8.539   5.067   6.813  2.0038  0.0918 -0.1160
  858MOL0     H13214   8.631   4.826   6.975  1.9151 -0.0521 -0.3706
  858MOL0     H13215   8.732   4.961   6.948  0.4949 -0.6615 -0.5549
  858MOL0     H13216   8.620   4.994   7.164  0.4409 -0.1953 -0.4577
  858MOL0     H13217   8.464   4.948   7.089  1.4672 -3.2122  0.1378
  858MOL0     H13218   8.499   5.374   6.979  0.1820  0.5946  1.4168
  858MOL0     H13219   8.662   5.552   6.941  2.8856  0.5303 -1.5583
  858MOL0     H13220   9.206   5.543   7.256 -1.4046  0.5478 -0.4762
  858MOL0     H13221   9.407   5.680   7.253 -1.3982  1.6161  1.1005
  858MOL0     H13222   9.513   5.922   6.881  0.3452 -1.0080 -0.6732
  858MOL0     H13223   9.623   5.783   6.894 -1.0258 -1.6300  0.9239
  858MOL0     H13224   9.705   5.913   7.119 -2.1691  0.6175  1.5448
  858MOL0     H13225   9.607   6.040   7.055  0.9291  0.9086  0.1961
  858MOL0     H13226   9.740   6.017   6.829 -0.0180 -2.4062 -0.7099
  858MOL0     H13227   9.846   5.909   6.897  0.8674  0.0017  0.0770
  858MOL0     H13228   9.791   6.175   7.032  1.5908  1.5644  1.7115
  858MOL0     H13229   9.917   6.070   7.094 -0.0465 -2.7331 -0.3083
  858MOL0     H13230   9.982   6.279   6.973 -0.1719  2.9058 -2.7538
  858MOL0     H13231   9.870   6.229   6.843  3.6708  3.1205 -1.8211
  858MOL0     H13232  10.113   6.223   6.768 -2.6106  2.0597 -0.5466
  858MOL0     H13233  10.010   6.082   6.750  0.8886 -2.4660  1.4309
  858MOL0     H13234  10.119   5.978   6.946 -0.7581  0.7673 -0.5471
  858MOL0     H13235  10.252   6.032   6.835  1.2060  0.3163 -0.3412
  858MOL0     H13236  10.328   6.092   7.060 -0.4382 -1.1329  0.2060
  858MOL0     H13237  10.176   6.151   7.110 -0.9734 -2.4381 -0.6891
  858MOL0     H13238   9.336   5.769   6.832 -1.6889 -2.4611 -1.4630
  858MOL0     H13239   9.127   5.613   6.850  0.1826 -0.9193  0.8766
  858MOL0     H13240   8.944   5.286   7.148  0.8937  1.2910  0.4494
  858MOL0     H13241   8.787   5.121   7.172  2.9868  0.8166  0.7160
  858MOL0     H13242   9.993   5.591   6.748 -1.8024  0.5978 -0.5968
  858MOL0     H13243  10.211   5.495   6.770 -1.4338  0.4812 -0.3658
  858MOL0     H13244  10.663   5.629   7.133 -1.1328 -0.7264  0.5145
  858MOL0     H13245  10.883   5.535   7.164 -1.5405 -0.5248  1.6847
  858MOL0     H13246  10.999   5.197   6.909 -0.7707  0.7788 -0.4246
  858MOL0     H13247  10.983   5.111   7.055  1.1186  0.2681  0.0036
  858MOL0     H13248  11.218   5.085   7.001  2.3604  0.7035 -1.8264
  858MOL0     H13249  11.221   5.249   6.939  0.2788  1.6408  1.3916
  858MOL0     H13250  11.361   5.228   7.122  1.3423  0.3066  0.3502
  858MOL0     H13251  11.205   5.229   7.219  2.2012 -2.2201 -1.1906
  858MOL0     H13252  11.281   5.426   7.010 -0.2945 -2.7688 -1.3468
  858MOL0     H13253  11.161   5.451   7.154  0.1064 -0.0123  0.0685
  858MOL0     H13254  11.448   5.605   7.367 -1.6095 -1.2427  1.8115
  858MOL0     H13255  10.783   5.193   6.946  1.5187 -0.8338  1.2684
  858MOL0     H13256  10.551   5.265   6.923  0.5452 -0.2906  1.1424
  859MOL0     O13257   2.923  11.222   1.856 -0.2809 -0.0087  0.3001
  859MOL0     C13258   2.911  11.156   1.752 -0.5197 -0.7502  0.1897
  859MOL0     O13259   2.797  11.146   1.677  0.0813 -0.0205 -0.0475
  859MOL0     C13260   2.689  11.210   1.735 -0.0781  0.2518 -0.8837
  859MOL0     C13261   2.605  11.158   1.835 -0.0124  0.1164  0.0505
  859MOL0     C13262   2.478  11.211   1.861 -0.8998 -0.4379  0.3947
  859MOL0     C13263   2.433  11.325   1.782 -0.9638  0.1636 -0.7089
  859MOL0     O13264   2.310  11.389   1.797 -0.1811  0.4608 -0.2421
  859MOL0     C13265   2.279  11.412   1.935  0.6325  0.3136 -0.1013
  859MOL0     C13266   2.159  11.508   1.948  0.4608 -1.1461 -0.6121
  859MOL0     C13267   2.081  11.520   2.074  0.5204  0.2801 -0.1434
  859MOL0     C13268   2.150  11.592   2.180  0.3760 -0.0735 -0.3559
  859MOL0     C13269   2.053  11.646   2.285  0.4934  1.0900 -0.7842
  859MOL0     C13270   1.956  11.750   2.240 -0.4707 -0.0815 -0.4196
  859MOL0     C13271   1.875  11.812   2.349 -0.1480  0.4741  0.1739
  859MOL0     C13272   1.737  11.873   2.308 -0.0545 -0.1397  0.1053
  859MOL0     N13273   1.691  11.981   2.402 -0.6552  0.8689 -0.6226
  859MOL0     C13274   1.611  12.088   2.370  0.9707 -0.4619  0.0147
  859MOL0     C13275   1.612  12.162   2.489 -0.5330 -0.5802 -0.0009
  859MOL0     C13276   1.511  12.274   2.527  0.2500 -0.0457  0.1230
  859MOL0     C13277   1.412  12.235   2.637 -1.1556 -0.0029 -0.8649
  859MOL0     C13278   1.314  12.343   2.682 -0.9389  0.6057 -0.0308
  859MOL0     C13279   1.188  12.283   2.741 -0.5000 -0.3890 -0.8526
  859MOL0     O13280   1.219  12.176   2.840 -0.1355  0.2058 -0.2904
  859MOL0     C13281   1.116  12.116   2.909  0.7817 -0.7389  1.4865
  859MOL0     C13282   0.981  12.164   2.900  0.2085  0.4738 -0.1189
  859MOL0     C13283   0.870  12.105   2.966 -0.5557  0.4980  0.5419
  859MOL0     C13284   0.898  11.994   3.049 -0.6224  0.6491  0.0928
  859MOL0     C13285   0.786  11.947   3.130 -0.4404  0.9527  0.2811
  859MOL0     O13286   0.671  12.014   3.114 -0.4419  0.1128  0.3614
  859MOL0     C13287   0.554  12.000   3.177 -0.0961  0.1756 -0.1962
  859MOL0     C13288   0.545  11.947   3.307 -0.3380 -0.2669  0.0763
  859MOL0     C13289   0.413  11.917   3.355  0.0925 -0.7349 -0.0486
  859MOL0     C13290   0.301  11.956   3.287  1.5656 -0.9993  0.6690
  859MOL0     O13291   0.162  11.943   3.325 -0.5371  0.6687  0.2335
  859MOL0     C13292   0.125  11.840   3.413  0.7718 -0.5532  0.0305
  859MOL0     C13293  -0.028  11.807   3.399 -0.4865  0.7040 -0.1467
  859MOL0     C13294  -0.059  11.698   3.516 -0.4599  0.1121  1.2194
  859MOL0     C13295  -0.201  11.663   3.507  0.7628 -0.8991  0.2665
  859MOL0     C13296  -0.246  11.552   3.600 -0.6998  0.1873 -0.0621
  859MOL0     C13297  -0.397  11.548   3.611 -0.6196 -0.5043  0.1647
  859MOL0     C13298  -0.427  11.426   3.696  0.4158 -0.3245  0.0137
  859MOL0     C13299  -0.579  11.393   3.695  0.0658  0.4722  0.7524
  859MOL0    Cl13300  -0.616  11.282   3.838 -0.2814  0.0972 -0.0685
  859MOL0     C13301   0.317  12.037   3.170 -0.2326 -0.3723 -0.6329
  859MOL0     C13302   0.439  12.062   3.119 -0.2287  0.5241  0.5757
  859MOL0     O13303   0.809  11.862   3.209  0.2565  0.3014 -0.0529
  859MOL0     C13304   1.029  11.943   3.054  0.3251  0.1067  0.5131
  859MOL0     C13305   1.139  12.006   2.987  0.0450  0.1562  0.3853
  859MOL0     N13306   1.686  12.095   2.583 -0.1140  0.2830 -0.3495
  859MOL0     N13307   1.728  11.982   2.531  0.0876 -0.5160 -0.2759
  859MOL0     C13308   2.506  11.364   1.668  0.0768 -0.6174 -0.1693
  859MOL0     C13309   2.637  11.315   1.655  0.4310 -0.6442  0.9163
  859MOL0     C13310   3.031  11.086   1.690 -0.6336  0.4315 -0.2297
  859MOL0     C13311   3.151  11.076   1.761 -0.0114  0.8714  0.5884
  859MOL0     C13312   3.266  11.015   1.698 -0.0023  0.8985  0.4286
  859MOL0     C13313   3.259  10.953   1.571  0.0798 -0.1367 -0.6851
  859MOL0     O13314   3.356  10.881   1.510  0.4778  0.0391  0.7123
  859MOL0     C13315   3.425  10.775   1.576  1.1602  0.0970 -0.3885
  859MOL0     C13316   3.549  10.727   1.490 -0.2488 -0.0417 -0.3215
  859MOL0     C13317   3.657  10.832   1.508 -0.0998  0.1013 -0.1243
  859MOL0     C13318   3.778  10.801   1.418 -0.1283 -0.3281 -1.1296
  859MOL0     C13319   3.749  10.846   1.279 -0.9028  0.0450  0.1986
  859MOL0     C13320   3.719  10.869   1.164  0.3824 -0.8820 -0.9359
  859MOL0     C13321   3.138  10.961   1.505  1.0172 -0.4693 -0.8651
  859MOL0     C13322   3.025  11.026   1.561  0.4793  0.2161  0.3291
  859MOL0     H13323   2.633  11.068   1.889 -1.2679  0.9992  2.3554
  859MOL0     H13324   2.409  11.166   1.932 -1.1135  0.6703  0.9156
  859MOL0     H13325   2.356  11.450   2.003  1.5875 -4.5155  1.9306
  859MOL0     H13326   2.252  11.314   1.977  0.6165  0.3415 -0.0469
  859MOL0     H13327   2.091  11.464   1.875 -2.5535  3.7040 -1.1938
  859MOL0     H13328   2.181  11.611   1.916 -0.6799 -1.0239 -1.0640
  859MOL0     H13329   2.052  11.421   2.110  3.7155 -0.1115  1.7034
  859MOL0     H13330   1.990  11.580   2.058 -0.0847  0.5410  3.3297
  859MOL0     H13331   2.215  11.525   2.238  1.0094  0.2364 -0.6994
  859MOL0     H13332   2.197  11.678   2.133 -0.0287  0.4912  0.2539
  859MOL0     H13333   2.115  11.682   2.368 -1.7392 -0.0219  1.5010
  859MOL0     H13334   1.999  11.561   2.327  2.0753  0.2974 -0.2741
  859MOL0     H13335   1.883  11.713   2.167  0.2936 -1.1157 -0.6714
  859MOL0     H13336   2.023  11.820   2.189 -2.4498  0.6754 -2.1281
  859MOL0     H13337   1.846  11.742   2.428  0.4534 -0.5596 -0.4843
  859MOL0     H13338   1.934  11.894   2.390  0.1514  0.6446 -0.5837
  859MOL0     H13339   1.666  11.792   2.289  2.7471 -2.4868 -1.0533
  859MOL0     H13340   1.746  11.927   2.213 -0.5946 -1.1531 -0.5431
  859MOL0     H13341   1.549  12.097   2.282  0.7547 -0.6396  0.1467
  859MOL0     H13342   1.467  12.313   2.435  1.8692  1.0154 -0.2449
  859MOL0     H13343   1.572  12.352   2.573  0.2894 -0.3341  0.5606
  859MOL0     H13344   1.470  12.221   2.729 -1.1218  2.1267 -0.5179
  859MOL0     H13345   1.362  12.146   2.597  3.4957 -2.0153 -3.0741
  859MOL0     H13346   1.355  12.399   2.766 -1.5540 -0.8887  1.3078
  859MOL0     H13347   1.283  12.406   2.598 -1.8282  0.0959 -0.0896
  859MOL0     H13348   1.137  12.249   2.651  2.5542  1.0060 -3.2882
  859MOL0     H13349   1.124  12.363   2.780 -1.0999 -1.8545  1.3817
  859MOL0     H13350   0.956  12.244   2.831 -1.2977  0.0966 -0.0492
  859MOL0     H13351   0.769  12.143   2.954 -0.3016  0.7643 -0.9915
  859MOL0     H13352   0.636  11.930   3.364 -1.0954  0.3423  1.5318
  859MOL0     H13353   0.403  11.876   3.456 -1.6923  0.9491  0.5048
  859MOL0     H13354   0.151  11.863   3.517  1.5905  0.0537 -0.3001
  859MOL0     H13355   0.186  11.758   3.374 -0.6409 -0.5288 -2.4664
  859MOL0     H13356  -0.052  11.777   3.296  1.9862  2.9319 -1.5148
  859MOL0     H13357  -0.077  11.903   3.410  0.4514  1.1533  0.2280
  859MOL0     H13358  -0.035  11.753   3.608 -1.5011  2.5666  0.1142
  859MOL0     H13359   0.005  11.611   3.499 -0.9633  0.1245 -1.0392
  859MOL0     H13360  -0.263  11.752   3.526  1.0606 -0.6448  0.0592
  859MOL0     H13361  -0.234  11.635   3.406  3.3768 -3.4521  0.0040
  859MOL0     H13362  -0.205  11.574   3.699 -1.7106  1.9785  0.0185
  859MOL0     H13363  -0.200  11.461   3.562 -0.5781 -1.2250  3.1480
  859MOL0     H13364  -0.444  11.540   3.513  0.1483  0.2211 -0.2746
  859MOL0     H13365  -0.444  11.633   3.661 -3.3488 -1.9080  0.1572
  859MOL0     H13366  -0.369  11.341   3.659  0.9530  1.1083 -2.6709
  859MOL0     H13367  -0.406  11.452   3.800  0.7757 -0.4792 -0.0192
  859MOL0     H13368  -0.603  11.348   3.598  2.0156 -4.5743  2.2801
  859MOL0     H13369  -0.636  11.486   3.702  0.5737  1.0244 -1.4816
  859MOL0     H13370   0.230  12.072   3.116 -0.3782  2.6193  1.3128
  859MOL0     H13371   0.465  12.106   3.023  3.3306 -2.7797 -0.2551
  859MOL0     H13372   1.037  11.852   3.112  0.4942 -1.1426 -1.3714
  859MOL0     H13373   1.235  11.956   2.991 -1.2808 -2.9936 -2.0488
  859MOL0     H13374   2.457  11.434   1.600  2.2292  1.7363  0.5242
  859MOL0     H13375   2.693  11.342   1.566  0.3036 -2.1286  0.3683
  859MOL0     H13376   3.167  11.127   1.855  3.7533  0.7961  0.1340
  859MOL0     H13377   3.359  11.005   1.753  0.5999  0.3733 -0.6681
  859MOL0     H13378   3.351  10.696   1.592 -0.0844  1.0897 -1.0315
  859MOL0     H13379   3.459  10.810   1.674  0.2994  0.2336 -0.1261
  859MOL0     H13380   3.582  10.626   1.515 -2.2447 -0.1637  2.3167
  859MOL0     H13381   3.517  10.715   1.386 -2.1610  0.2430  0.1851
  859MOL0     H13382   3.694  10.827   1.611  0.4022  2.7440 -0.1059
  859MOL0     H13383   3.618  10.934   1.503  0.6341  0.4740  1.1610
  859MOL0     H13384   3.860  10.864   1.451  0.3777 -0.8891 -1.2946
  859MOL0     H13385   3.793  10.692   1.415 -0.9371 -0.4956  0.2205
  859MOL0     H13386   3.705  10.907   1.065 -1.8360 -0.7906 -0.6221
  859MOL0     H13387   3.120  10.898   1.418 -2.1267  1.6719 -1.9334
  859MOL0     H13388   2.939  11.017   1.495  2.2296  1.3051 -2.2926
  860MOL0     O13389   6.467   5.294   4.888  0.2628  0.4987 -0.5315
  860MOL0     C13390   6.467   5.192   4.830 -0.1040  1.1127  0.6291
  860MOL0     O13391   6.561   5.093   4.835  0.2426 -0.0921 -0.3833
  860MOL0     C13392   6.694   5.120   4.844  0.3926 -1.1798 -1.4045
  860MOL0     C13393   6.764   5.050   4.945  0.0521 -0.1274 -0.8118
  860MOL0     C13394   6.901   5.067   4.966  0.6831 -0.8989  0.7013
  860MOL0     C13395   6.978   5.167   4.895  0.7898 -0.0467 -0.0682
  860MOL0     O13396   7.115   5.169   4.911  0.4649  0.4187 -0.6713
  860MOL0     C13397   7.181   5.291   4.927 -0.3025 -0.9605 -0.5818
  860MOL0     C13398   7.319   5.261   4.982  0.2178  0.5383  1.1379
  860MOL0     C13399   7.383   5.380   5.029 -0.8854 -0.1123 -0.4773
  860MOL0     C13400   7.535   5.341   5.068  0.3985 -0.8355 -0.5800
  860MOL0     C13401   7.555   5.220   5.171  0.1701  0.3839  0.1102
  860MOL0     C13402   7.702   5.178   5.194 -1.0786  0.2629 -0.1005
  860MOL0     C13403   7.759   5.248   5.310  0.2125  0.5799 -0.8570
  860MOL0     C13404   7.904   5.191   5.357  0.3192  0.0296  0.2632
  860MOL0     N13405   7.909   5.055   5.415 -0.0593 -0.8716 -0.4744
  860MOL0     C13406   7.914   5.024   5.547 -0.8448  0.1945  0.6999
  860MOL0     C13407   7.953   4.894   5.549 -0.3548  0.5194 -0.5120
  860MOL0     C13408   8.006   4.819   5.674 -0.8518  0.1672  0.6243
  860MOL0     C13409   7.920   4.787   5.792 -0.1416 -0.0661  0.4092
  860MOL0     C13410   7.803   4.697   5.746 -0.4146 -0.4542 -0.8723
  860MOL0     C13411   7.705   4.688   5.858  0.2027  0.1681 -0.1410
  860MOL0     O13412   7.750   4.612   5.971 -0.6664 -0.0236  0.4007
  860MOL0     C13413   7.667   4.587   6.075 -0.9603  0.0505  0.4177
  860MOL0     C13414   7.729   4.524   6.183 -0.0837 -1.1627  1.0369
  860MOL0     C13415   7.653   4.488   6.298 -0.1861 -0.2757 -0.2984
  860MOL0     C13416   7.519   4.522   6.308  0.3747  0.0369  0.5431
  860MOL0     C13417   7.448   4.501   6.441  0.8133  0.3918  0.6862
  860MOL0     O13418   7.312   4.533   6.451 -0.3295  0.0694 -0.3325
  860MOL0     C13419   7.231   4.499   6.563 -1.1612 -0.1562 -0.2919
  860MOL0     C13420   7.256   4.378   6.635  0.6081  0.5043 -0.9765
  860MOL0     C13421   7.170   4.348   6.737 -0.6058 -0.2819 -0.5787
  860MOL0     C13422   7.068   4.437   6.778  0.6241 -0.9589 -0.0843
  860MOL0     O13423   6.984   4.425   6.882  0.6253 -0.5324 -0.0211
  860MOL0     C13424   6.972   4.298   6.942  0.2556  0.2883 -0.1248
  860MOL0     C13425   6.870   4.305   7.063 -0.2561  0.5133 -0.1208
  860MOL0     C13426   6.949   4.344   7.191 -0.6149 -0.6461 -0.0843
  860MOL0     C13427   6.866   4.362   7.314 -0.7174 -0.5905 -0.2964
  860MOL0     C13428   6.792   4.491   7.304 -0.0771 -1.1073  0.6209
  860MOL0     C13429   6.702   4.508   7.424 -0.5095  0.7147 -0.5970
  860MOL0     C13430   6.641   4.636   7.442  0.3765 -0.1419 -0.3737
  860MOL0     C13431   6.745   4.753   7.435  0.0829 -0.0939  0.3671
  860MOL0    Cl13432   6.878   4.720   7.546  0.2555 -0.2597  0.0474
  860MOL0     C13433   7.044   4.550   6.704 -0.2495  0.4223 -1.5168
  860MOL0     C13434   7.129   4.582   6.595  0.7894 -0.5351  0.4965
  860MOL0     O13435   7.513   4.478   6.541 -0.8740 -0.2900  0.1142
  860MOL0     C13436   7.458   4.583   6.198  0.2068  0.3706 -1.0776
  860MOL0     C13437   7.527   4.606   6.074 -0.8328 -0.2838 -0.5724
  860MOL0     N13438   7.971   4.853   5.416  0.6950 -1.6098 -0.2811
  860MOL0     N13439   7.937   4.952   5.339  0.0568 -0.3565 -0.8604
  860MOL0     C13440   6.905   5.250   4.806 -0.6225 -0.0235 -0.2560
  860MOL0     C13441   6.763   5.225   4.775 -0.3071  0.6598 -0.7421
  860MOL0     C13442   6.353   5.152   4.751  1.4552 -0.7227  0.0330
  860MOL0     C13443   6.227   5.220   4.771  0.3081 -0.2075 -0.1716
  860MOL0     C13444   6.121   5.191   4.692  0.5210 -0.2486 -0.6260
  860MOL0     C13445   6.111   5.079   4.603 -0.5299  0.4946 -1.0189
  860MOL0     O13446   5.987   5.049   4.534 -0.1431  0.2335 -0.4781
  860MOL0     C13447   5.972   4.930   4.455  0.3556  0.3020  0.9913
  860MOL0     C13448   5.961   4.806   4.540 -0.3288  1.1796  0.6100
  860MOL0     C13449   5.826   4.798   4.612 -0.4379 -0.0029  0.1599
  860MOL0     C13450   5.803   4.682   4.712 -0.6580 -0.3511 -0.1411
  860MOL0     C13451   5.714   4.581   4.660  0.4389 -0.3582 -0.5625
  860MOL0     C13452   5.645   4.497   4.602 -0.1031 -0.1858 -0.0459
  860MOL0     C13453   6.239   5.017   4.579 -0.2886  0.5452  0.4221
  860MOL0     C13454   6.352   5.056   4.653  0.6511 -0.8521 -0.1205
  860MOL0     H13455   6.723   4.965   4.999  1.5462 -0.4670 -0.1751
  860MOL0     H13456   6.963   4.990   5.010  1.4197 -1.8369 -1.8124
  860MOL0     H13457   7.125   5.370   4.978  0.3751 -1.5630  1.1694
  860MOL0     H13458   7.191   5.334   4.827  1.6081  1.3700  0.5105
  860MOL0     H13459   7.375   5.205   4.907 -0.5851 -1.7746  2.1737
  860MOL0     H13460   7.312   5.196   5.070  2.8909  1.9990  2.5365
  860MOL0     H13461   7.325   5.418   5.112 -0.4273 -1.5691  0.5554
  860MOL0     H13462   7.388   5.448   4.944 -1.1792  0.8199  0.2459
  860MOL0     H13463   7.589   5.325   4.974  1.9875 -2.8008  0.5914
  860MOL0     H13464   7.590   5.423   5.115  0.3663 -1.1060 -0.0682
  860MOL0     H13465   7.500   5.133   5.136 -0.9576  1.2704 -0.3851
  860MOL0     H13466   7.508   5.243   5.267 -0.8279  0.3003 -0.3454
  860MOL0     H13467   7.764   5.199   5.105 -2.8977  3.7855 -0.7288
  860MOL0     H13468   7.697   5.070   5.210 -2.7950  0.5666  1.7289
  860MOL0     H13469   7.787   5.348   5.277  3.1883 -0.7728 -2.8973
  860MOL0     H13470   7.687   5.258   5.391  0.7230 -2.4037  0.0999
  860MOL0     H13471   7.955   5.258   5.427  3.1329 -0.0352 -1.5585
  860MOL0     H13472   7.974   5.183   5.273  0.5198 -0.5230  0.4755
  860MOL0     H13473   7.931   5.097   5.625  1.3620  1.6592 -0.9967
  860MOL0     H13474   8.088   4.874   5.721  0.8526 -3.1531  1.8897
  860MOL0     H13475   8.051   4.726   5.637  0.2194  0.4833  1.0942
  860MOL0     H13476   7.885   4.887   5.818  0.4323  0.3108 -0.2349
  860MOL0     H13477   7.973   4.748   5.880 -0.3198  1.8618  1.4195
  860MOL0     H13478   7.747   4.739   5.661 -0.3731 -1.4778 -1.4116
  860MOL0     H13479   7.841   4.599   5.716 -2.3507 -1.2574 -0.8408
  860MOL0     H13480   7.622   4.629   5.818  1.0136 -2.4454  1.7852
  860MOL0     H13481   7.662   4.785   5.885  0.6725  0.6691 -1.1109
  860MOL0     H13482   7.833   4.503   6.162 -0.2509 -0.3077 -0.8725
  860MOL0     H13483   7.719   4.459   6.380  0.2327  1.5674  0.0733
  860MOL0     H13484   7.321   4.299   6.598  0.2526  0.4795 -1.5704
  860MOL0     H13485   7.186   4.250   6.781 -0.3151  0.4020  0.9088
  860MOL0     H13486   7.072   4.277   6.979  0.3197  0.1381 -0.3806
  860MOL0     H13487   6.935   4.231   6.864 -0.2062 -0.6362  0.8684
  860MOL0     H13488   6.831   4.205   7.085 -2.1164  1.4561  1.1451
  860MOL0     H13489   6.779   4.363   7.045 -0.3480 -0.3255 -2.9190
  860MOL0     H13490   6.997   4.440   7.171 -3.0259  0.5907 -0.3115
  860MOL0     H13491   7.020   4.263   7.212 -0.7384 -0.6054  0.5183
  860MOL0     H13492   6.805   4.274   7.338  0.2303 -0.4481  3.1615
  860MOL0     H13493   6.938   4.375   7.395  2.3510  2.3881 -3.1688
  860MOL0     H13494   6.727   4.495   7.216  1.2273  0.0034 -0.3288
  860MOL0     H13495   6.863   4.574   7.297 -0.8703 -0.5118 -0.7871
  860MOL0     H13496   6.766   4.490   7.511  2.0986  1.7075 -2.1716
  860MOL0     H13497   6.626   4.430   7.420  0.4273 -0.1610 -1.9385
  860MOL0     H13498   6.559   4.639   7.370 -1.0750 -2.1406  1.0841
  860MOL0     H13499   6.591   4.651   7.538  1.1735  0.2019  0.0021
  860MOL0     H13500   6.710   4.846   7.481 -1.9665 -0.3845 -0.5297
  860MOL0     H13501   6.765   4.791   7.335 -2.0851  1.7685  0.5701
  860MOL0     H13502   6.964   4.613   6.742  1.4386  1.2841  0.8952
  860MOL0     H13503   7.114   4.674   6.539 -0.7560 -2.3859 -2.3667
  860MOL0     H13504   7.353   4.606   6.213 -0.1337 -1.5827 -0.1263
  860MOL0     H13505   7.478   4.659   5.994 -0.9091 -0.1434 -0.4336
  860MOL0     H13506   6.950   5.331   4.749 -2.7218  1.1671 -0.3132
  860MOL0     H13507   6.707   5.272   4.696 -1.1112  3.3496  1.2758
  860MOL0     H13508   6.226   5.304   4.839 -2.0351  0.6929 -1.2170
  860MOL0     H13509   6.028   5.244   4.707  1.5188  1.3230  0.1997
  860MOL0     H13510   6.060   4.926   4.390  0.0283 -1.1311  0.6135
  860MOL0     H13511   5.883   4.936   4.392 -0.5611  2.0851  2.3717
  860MOL0     H13512   5.969   4.724   4.469  1.8524  2.0054 -0.1911
  860MOL0     H13513   6.051   4.801   4.603 -1.5126  1.5545  2.4142
  860MOL0     H13514   5.742   4.807   4.542  0.0462 -1.0499 -0.5663
  860MOL0     H13515   5.825   4.888   4.675  2.4814 -0.0220  0.3761
  860MOL0     H13516   5.900   4.635   4.726 -0.8590 -0.4990  0.8852
  860MOL0     H13517   5.762   4.720   4.806 -1.2132 -1.9523  0.2893
  860MOL0     H13518   5.578   4.420   4.570 -0.7477 -0.7364  2.4204
  860MOL0     H13519   6.229   4.938   4.506  0.3966 -1.1446  2.0883
  860MOL0     H13520   6.444   5.000   4.634  1.1559  0.6961 -2.8005
  861MOL0     O13521   7.675   4.342   0.971  0.2807  0.2588 -0.1013
  861MOL0     C13522   7.699   4.380   1.087 -1.2025  0.4955 -0.5324
  861MOL0     O13523   7.611   4.377   1.190  0.1958  0.0568 -0.0291
  861MOL0     C13524   7.482   4.393   1.152  0.1195 -0.6635 -0.1041
  861MOL0     C13525   7.435   4.528   1.130 -0.5961  0.0565 -0.6722
  861MOL0     C13526   7.296   4.543   1.123  0.1615 -0.9857 -0.4167
  861MOL0     C13527   7.204   4.441   1.139 -0.4378 -0.7436 -0.2440
  861MOL0     O13528   7.073   4.460   1.130 -0.0324 -0.7234 -0.2477
  861MOL0     C13529   7.023   4.594   1.119 -0.1725  0.4043 -0.9670
  861MOL0     C13530   6.865   4.599   1.094 -1.2347  0.3177  0.9034
  861MOL0     C13531   6.775   4.520   1.199 -0.9147 -0.4844  0.3044
  861MOL0     C13532   6.627   4.542   1.158 -0.6787 -0.5180 -0.3951
  861MOL0     C13533   6.531   4.513   1.271  0.9242  0.1384  0.8214
  861MOL0     C13534   6.385   4.505   1.214  1.1953  0.1094 -0.3251
  861MOL0     C13535   6.273   4.470   1.309 -0.6806 -0.3115 -0.4701
  861MOL0     C13536   6.257   4.318   1.343 -0.3650  0.0361  0.9330
  861MOL0     N13537   6.153   4.252   1.260  0.1217 -1.1066  0.1894
  861MOL0     C13538   6.026   4.294   1.275  0.9700  1.5426  0.6706
  861MOL0     C13539   5.951   4.187   1.215  0.7309 -0.7225 -0.4084
  861MOL0     C13540   5.797   4.195   1.224 -0.8006  0.3406 -0.5872
  861MOL0     C13541   5.742   4.071   1.150  0.2396 -0.8276  0.1514
  861MOL0     C13542   5.605   4.042   1.209  0.5946 -0.2949 -0.3377
  861MOL0     C13543   5.528   3.942   1.117  0.7844 -0.3723 -0.2943
  861MOL0     O13544   5.396   3.929   1.176  0.1811  0.2289 -0.6090
  861MOL0     C13545   5.299   3.843   1.129 -0.4120 -0.5068 -0.2088
  861MOL0     C13546   5.330   3.738   1.045  1.1926 -1.3008 -0.0531
  861MOL0     C13547   5.226   3.659   0.986  0.4447  0.1984 -0.0047
  861MOL0     C13548   5.088   3.679   1.021  0.6616 -1.0516 -0.8047
  861MOL0     C13549   4.981   3.597   0.962 -0.8116 -0.7814 -0.2831
  861MOL0     O13550   4.856   3.637   0.989  0.1664 -0.1752  0.3493
  861MOL0     C13551   4.765   3.548   0.953 -0.3810 -0.5358 -0.1440
  861MOL0     C13552   4.698   3.560   0.832 -0.5220  0.2126  0.0059
  861MOL0     C13553   4.584   3.475   0.804  0.1644 -0.0838  0.6958
  861MOL0     C13554   4.543   3.382   0.897 -0.3419 -0.3951  0.4967
  861MOL0     O13555   4.421   3.316   0.873  0.7921 -0.0926  0.6686
  861MOL0     C13556   4.348   3.265   0.984  0.2319  0.3471 -0.3496
  861MOL0     C13557   4.209   3.203   0.948  0.4143  1.1489 -0.1503
  861MOL0     C13558   4.149   3.119   1.065 -0.2031 -0.0323 -0.3689
  861MOL0     C13559   4.000   3.094   1.040  0.1599 -0.1013  0.4858
  861MOL0     C13560   3.942   3.059   1.176 -0.1357  0.5278 -0.2359
  861MOL0     C13561   3.798   2.991   1.166 -0.3363 -0.0436  0.5616
  861MOL0     C13562   3.813   2.856   1.073  0.9722  0.0794  0.3592
  861MOL0     C13563   3.700   2.747   1.081  0.2575  0.6310 -1.4764
  861MOL0    Cl13564   3.542   2.837   1.056 -0.1043  0.0157 -0.2868
  861MOL0     C13565   4.625   3.367   1.014 -0.9524  0.6206  0.1282
  861MOL0     C13566   4.725   3.450   1.039 -0.3494  1.5182  0.1210
  861MOL0     O13567   5.011   3.500   0.899 -0.4171 -0.4511  0.4764
  861MOL0     C13568   5.063   3.787   1.114 -0.4052  0.6397  0.5022
  861MOL0     C13569   5.164   3.860   1.173 -0.9076  0.0661 -0.2568
  861MOL0     N13570   6.043   4.108   1.147 -0.3944  0.8188  0.5865
  861MOL0     N13571   6.162   4.152   1.172 -0.0610 -0.2765 -0.1171
  861MOL0     C13572   7.254   4.316   1.146  0.4616  0.5142  0.7763
  861MOL0     C13573   7.385   4.288   1.160 -0.1999 -1.4744 -0.1290
  861MOL0     C13574   7.835   4.447   1.105  0.5044  0.4737 -0.1754
  861MOL0     C13575   7.856   4.521   1.220 -0.5136  0.5285 -0.5805
  861MOL0     C13576   7.977   4.583   1.252 -0.7142  0.1080  0.4695
  861MOL0     C13577   8.083   4.558   1.165  0.3685  0.0078 -0.6105
  861MOL0     O13578   8.209   4.616   1.181 -1.3054 -0.0171 -0.6464
  861MOL0     C13579   8.224   4.746   1.252  0.6243 -0.1481  0.4254
  861MOL0     C13580   8.189   4.857   1.149 -0.4356  0.1372  0.1583
  861MOL0     C13581   8.199   5.001   1.201 -0.6070  1.0069  0.5039
  861MOL0     C13582   8.345   5.038   1.244  0.2437  0.5611 -0.0952
  861MOL0     C13583   8.334   5.169   1.315  0.0045  0.1623 -0.2395
  861MOL0     C13584   8.348   5.292   1.353 -0.5664  0.0568 -0.3450
  861MOL0     C13585   8.059   4.492   1.042  0.1914  0.1341  0.3225
  861MOL0     C13586   7.937   4.436   1.016  0.4051 -0.0882  0.1660
  861MOL0     H13587   7.516   4.600   1.135 -0.7205  0.2963 -1.8451
  861MOL0     H13588   7.258   4.644   1.131  2.1444 -0.2550  0.3913
  861MOL0     H13589   7.082   4.646   1.043  2.8884 -0.8769  0.3212
  861MOL0     H13590   7.041   4.650   1.211  0.0042  0.9152 -1.3088
  861MOL0     H13591   6.862   4.553   0.995  1.4379 -3.0948  2.2003
  861MOL0     H13592   6.833   4.701   1.072 -1.9028 -0.2016 -0.6781
  861MOL0     H13593   6.787   4.560   1.301  0.4162  2.1385 -0.7925
  861MOL0     H13594   6.810   4.417   1.190  0.6974  0.2007 -1.8872
  861MOL0     H13595   6.631   4.650   1.139  1.6001 -0.8628 -2.3729
  861MOL0     H13596   6.598   4.494   1.063 -1.4616  0.3152 -0.5955
  861MOL0     H13597   6.550   4.595   1.341  4.4566  1.5439 -1.4882
  861MOL0     H13598   6.554   4.418   1.321 -0.1194 -1.5220 -1.6569
  861MOL0     H13599   6.362   4.443   1.127  1.0341  1.4402 -1.2657
  861MOL0     H13600   6.365   4.604   1.171  0.5754 -0.6578 -1.8873
  861MOL0     H13601   6.288   4.523   1.403 -0.3058 -0.1566 -0.6134
  861MOL0     H13602   6.178   4.518   1.287  0.0939  1.8867  0.7456
  861MOL0     H13603   6.228   4.318   1.448 -0.7967  3.4316  0.9258
  861MOL0     H13604   6.352   4.265   1.330 -0.5062  0.2042 -1.0124
  861MOL0     H13605   5.975   4.365   1.340 -0.7872  0.0286  1.0490
  861MOL0     H13606   5.746   4.283   1.184 -0.5686 -0.7454 -3.5306
  861MOL0     H13607   5.773   4.192   1.330  1.5252 -1.5010 -0.0152
  861MOL0     H13608   5.805   3.982   1.157  0.1465 -0.8774  0.3571
  861MOL0     H13609   5.742   4.084   1.041  1.5805 -1.9908 -0.0229
  861MOL0     H13610   5.612   4.016   1.315  2.7091 -0.9063 -0.5938
  861MOL0     H13611   5.529   4.121   1.210  0.7360 -0.0380 -2.7560
  861MOL0     H13612   5.579   3.847   1.100  2.3093  0.3627 -0.0327
  861MOL0     H13613   5.505   3.989   1.021 -1.4165 -1.5701 -0.4023
  861MOL0     H13614   5.431   3.723   1.011  2.0938  0.5957  1.5835
  861MOL0     H13615   5.242   3.565   0.935 -0.9225 -0.4842  0.7414
  861MOL0     H13616   4.737   3.641   0.771  0.9263 -1.1647 -1.0055
  861MOL0     H13617   4.529   3.478   0.710 -1.8623 -4.0335  1.5256
  861MOL0     H13618   4.338   3.351   1.052 -1.4723  0.7219 -1.0216
  861MOL0     H13619   4.402   3.178   1.022  0.4725  1.3662  1.8166
  861MOL0     H13620   4.218   3.140   0.860 -2.2293 -0.8817  0.8933
  861MOL0     H13621   4.133   3.280   0.933 -0.7674  0.3342  1.3279
  861MOL0     H13622   4.161   3.181   1.154  0.0259  0.2123 -0.5661
  861MOL0     H13623   4.204   3.025   1.081  0.2970  0.0546 -1.4275
  861MOL0     H13624   3.961   3.191   1.009 -2.2612 -0.0147  3.3306
  861MOL0     H13625   3.988   3.022   0.958 -1.2551  1.1778 -0.4994
  861MOL0     H13626   3.942   3.153   1.233  0.5046 -0.5775  1.6672
  861MOL0     H13627   4.009   2.986   1.221 -1.7397 -1.5252 -1.0278
  861MOL0     H13628   3.722   3.056   1.122 -2.0625 -2.9555 -1.0920
  861MOL0     H13629   3.763   2.971   1.268  0.9081 -0.8071  0.8584
  861MOL0     H13630   3.814   2.881   0.966  1.3628 -1.9542 -0.1651
  861MOL0     H13631   3.909   2.810   1.097  1.4519  2.2401  2.9537
  861MOL0     H13632   3.702   2.711   1.184  2.1645  3.2986 -0.4784
  861MOL0     H13633   3.721   2.658   1.020 -0.2125 -2.1056  2.0442
  861MOL0     H13634   4.594   3.283   1.076  0.6410  0.2169  0.4301
  861MOL0     H13635   4.799   3.421   1.113  2.2648  0.6756 -2.6073
  861MOL0     H13636   4.960   3.810   1.138 -0.1264  1.0488  1.3265
  861MOL0     H13637   5.140   3.932   1.250  1.7323 -2.1524  2.9147
  861MOL0     H13638   7.198   4.224   1.158  3.6727 -1.8104 -0.4702
  861MOL0     H13639   7.406   4.183   1.176  3.5480 -1.0914 -1.4000
  861MOL0     H13640   7.770   4.521   1.287  0.4156 -1.1212  0.7096
  861MOL0     H13641   7.986   4.659   1.329 -1.4830 -1.7174  2.4420
  861MOL0     H13642   8.324   4.767   1.291  1.4324  1.9160 -2.4481
  861MOL0     H13643   8.155   4.748   1.337 -1.6861  0.5510 -1.3658
  861MOL0     H13644   8.262   4.851   1.068 -0.2308  2.1739  0.1360
  861MOL0     H13645   8.090   4.853   1.102 -0.1565  2.7620 -0.8569
  861MOL0     H13646   8.141   4.998   1.294  1.6729  2.2303  2.0732
  861MOL0     H13647   8.161   5.081   1.137  1.5602  3.8810  2.5374
  861MOL0     H13648   8.400   4.966   1.305 -1.4952 -3.5898 -2.9957
  861MOL0     H13649   8.407   5.048   1.154  0.7597  0.5737  0.2610
  861MOL0     H13650   8.357   5.395   1.380 -1.5635  0.3892 -1.1858
  861MOL0     H13651   8.136   4.477   0.967  0.4797 -0.3091  0.6966
  861MOL0     H13652   7.923   4.391   0.918 -1.0545  1.3379 -0.3232
  862MOL0     O13653   6.973   2.536  10.223 -0.0695  0.6067 -0.0771
  862MOL0     C13654   7.039   2.429  10.206  0.9277  0.1572  0.2432
  862MOL0     O13655   6.979   2.305  10.198  0.6210 -0.6043  0.7492
  862MOL0     C13656   6.846   2.303  10.207 -0.0403  0.0384  0.3849
  862MOL0     C13657   6.760   2.379  10.293  0.3733  0.4284  0.0996
  862MOL0     C13658   6.625   2.368  10.282 -0.4025 -0.1891 -0.1400
  862MOL0     C13659   6.563   2.279  10.193 -0.5428 -0.3078 -0.3858
  862MOL0     O13660   6.434   2.280  10.171  0.1040  0.5258 -1.3929
  862MOL0     C13661   6.369   2.150  10.188  0.0229 -0.1247 -0.0077
  862MOL0     C13662   6.228   2.170  10.203  0.1149 -0.8482 -0.1792
  862MOL0     C13663   6.142   2.044  10.212  0.4972  0.9830  0.2385
  862MOL0     C13664   6.001   2.099  10.225  0.3327 -0.1832  0.5235
  862MOL0     C13665   5.905   1.979  10.218 -0.7409 -1.3005  0.1504
  862MOL0     C13666   5.761   2.029  10.216 -0.1501 -0.7859 -0.2959
  862MOL0     C13667   5.681   1.902  10.193 -0.2794 -0.4044 -0.6542
  862MOL0     C13668   5.538   1.946  10.167  0.9213 -0.3230 -0.5441
  862MOL0     N13669   5.446   1.826  10.176 -0.3133  0.8906  0.7193
  862MOL0     C13670   5.332   1.826  10.257 -0.9516  0.5419 -0.8252
  862MOL0     C13671   5.267   1.711  10.235 -0.4196 -0.0202 -0.1671
  862MOL0     C13672   5.135   1.652  10.290 -0.5729 -1.3319 -0.1898
  862MOL0     C13673   5.016   1.681  10.195 -0.1670  0.0102 -0.1508
  862MOL0     C13674   4.902   1.583  10.216  0.7875  0.0741  0.3727
  862MOL0     C13675   4.778   1.631  10.143  0.1720 -0.2427 -0.4564
  862MOL0     O13676   4.736   1.750  10.206 -0.2391 -0.4441  0.5459
  862MOL0     C13677   4.603   1.780  10.221 -0.9113 -0.6712 -0.0000
  862MOL0     C13678   4.490   1.748  10.153 -0.0570 -0.0500 -0.2466
  862MOL0     C13679   4.361   1.786  10.193  0.5213  0.7057 -0.0780
  862MOL0     C13680   4.340   1.857  10.311 -0.5820  0.3026 -0.3268
  862MOL0     C13681   4.200   1.870  10.365  0.6288 -0.4353  0.0937
  862MOL0     O13682   4.092   1.854  10.282  0.0296 -0.9503 -0.3224
  862MOL0     C13683   3.962   1.865  10.335 -0.3279 -0.0397  0.2758
  862MOL0     C13684   3.920   1.761  10.413 -1.3714  1.0264 -0.3576
  862MOL0     C13685   3.785   1.747  10.449 -0.7512  0.2274  0.3668
  862MOL0     C13686   3.696   1.848  10.405  0.5945 -0.1222  0.0644
  862MOL0     O13687   3.562   1.859  10.449 -0.3242 -0.0599  0.0629
  862MOL0     C13688   3.512   1.763  10.534  0.5584 -0.3400 -0.1070
  862MOL0     C13689   3.357   1.739  10.522  0.3589 -0.2039 -0.1673
  862MOL0     C13690   3.265   1.859  10.552 -0.0998 -0.7128 -0.6035
  862MOL0     C13691   3.291   1.902  10.707 -0.2651  1.0406 -0.3005
  862MOL0     C13692   3.164   1.936  10.779 -0.2207  0.1843  0.7871
  862MOL0     C13693   3.053   1.825  10.773 -0.7405  0.4396  0.2446
  862MOL0     C13694   2.963   1.843  10.895 -0.0702  0.8246  0.4490
  862MOL0     C13695   2.843   1.739  10.899  0.2604  0.3200  0.2055
  862MOL0    Cl13696   2.740   1.748  10.750 -0.0751  0.5148 -0.0564
  862MOL0     C13697   3.744   1.965  10.340 -0.5089  0.4381  0.1974
  862MOL0     C13698   3.877   1.964  10.301  0.0008 -0.0105 -0.1104
  862MOL0     O13699   4.192   1.887  10.484 -0.3780 -0.5719 -0.4129
  862MOL0     C13700   4.455   1.893  10.382 -0.1405 -0.0117 -0.3817
  862MOL0     C13701   4.583   1.854  10.341  0.0499  0.6261  0.5524
  862MOL0     N13702   5.345   1.631  10.150 -0.8436 -0.1783 -0.2590
  862MOL0     N13703   5.454   1.697  10.123  0.6208 -0.3227 -0.0227
  862MOL0     C13704   6.646   2.184  10.122 -0.1673 -0.3333 -0.0788
  862MOL0     C13705   6.790   2.201  10.121 -0.7240 -0.2617 -0.6341
  862MOL0     C13706   7.185   2.439  10.178 -1.0472 -0.4305 -0.1605
  862MOL0     C13707   7.263   2.560  10.199 -0.4353 -0.0285  0.3047
  862MOL0     C13708   7.403   2.555  10.179  0.1651 -1.1637 -0.2144
  862MOL0     C13709   7.463   2.449  10.106 -0.6922  0.1728 -0.3994
  862MOL0     O13710   7.604   2.463  10.079  0.4572 -0.1389 -0.1997
  862MOL0     C13711   7.682   2.346  10.054 -0.0509 -0.7470  0.2056
  862MOL0     C13712   7.820   2.403  10.032 -1.2562 -0.1091  0.6341
  862MOL0     C13713   7.837   2.533   9.942  0.1151  1.0065  0.2291
  862MOL0     C13714   7.974   2.517   9.868  0.2233  0.4152 -0.3176
  862MOL0     C13715   7.958   2.430   9.756 -0.8176  0.2262  0.4350
  862MOL0     C13716   7.947   2.343   9.669  0.0734 -0.1573  0.1622
  862MOL0     C13717   7.385   2.340  10.071  0.1336 -0.1097 -0.7315
  862MOL0     C13718   7.251   2.335  10.111  0.9767 -0.1405  0.8362
  862MOL0     H13719   6.791   2.451  10.368  0.4594 -0.4015  0.8789
  862MOL0     H13720   6.560   2.444  10.326 -1.5892  0.5260 -2.9474
  862MOL0     H13721   6.412   2.118  10.284  1.7487  1.9752  0.0124
  862MOL0     H13722   6.397   2.083  10.106 -0.6589 -0.8943  0.3724
  862MOL0     H13723   6.197   2.243  10.129  0.8586  0.1058  0.4303
  862MOL0     H13724   6.219   2.217  10.302  1.1252  0.3499 -0.6501
  862MOL0     H13725   6.166   1.988  10.303  2.0636 -0.1242 -0.8055
  862MOL0     H13726   6.154   1.981  10.124  2.1866 -1.2879  1.9670
  862MOL0     H13727   5.985   2.151  10.320  3.1501 -2.4709  2.4149
  862MOL0     H13728   5.976   2.167  10.143 -2.1096 -1.0319  0.4961
  862MOL0     H13729   5.927   1.904  10.295 -2.3299 -0.6405  1.3176
  862MOL0     H13730   5.919   1.930  10.121  0.5364 -1.4446  0.3940
  862MOL0     H13731   5.758   2.095  10.128  0.4300  1.4961  1.2927
  862MOL0     H13732   5.735   2.089  10.304 -0.6979 -0.8916 -0.3826
  862MOL0     H13733   5.724   1.852  10.105 -0.6548  1.3736 -1.9142
  862MOL0     H13734   5.692   1.849  10.288  0.4749  0.8307 -0.0272
  862MOL0     H13735   5.532   2.005  10.075  0.4111  0.9168  0.2645
  862MOL0     H13736   5.503   2.005  10.252 -0.8246 -0.1975 -1.3140
  862MOL0     H13737   5.295   1.903  10.325  1.8696  0.3498  1.1126
  862MOL0     H13738   5.107   1.698  10.385 -1.6134 -0.2845 -0.9793
  862MOL0     H13739   5.144   1.544  10.309 -1.3581 -1.3815 -0.0851
  862MOL0     H13740   5.050   1.675  10.091 -3.0413 -2.1754 -1.1079
  862MOL0     H13741   4.993   1.783  10.226  0.8380 -1.0117  4.7810
  862MOL0     H13742   4.932   1.480  10.191  0.1350 -0.3580  1.2783
  862MOL0     H13743   4.875   1.582  10.322 -4.2140  0.1790 -0.6760
  862MOL0     H13744   4.701   1.554  10.134  0.4470 -0.5487 -0.1916
  862MOL0     H13745   4.803   1.645  10.038  0.2351 -2.3032 -0.7594
  862MOL0     H13746   4.494   1.679  10.069  0.3708 -1.7390  1.0980
  862MOL0     H13747   4.280   1.744  10.134  0.3394  1.1154 -0.1212
  862MOL0     H13748   3.983   1.677  10.440  0.6056  1.7833 -2.3057
  862MOL0     H13749   3.750   1.661  10.504  1.1403 -1.3033 -0.7063
  862MOL0     H13750   3.544   1.777  10.638 -1.0372  0.9165  0.2528
  862MOL0     H13751   3.551   1.662  10.517  5.1325  0.7655  2.2231
  862MOL0     H13752   3.316   1.658  10.582 -2.7792  1.8698  0.7575
  862MOL0     H13753   3.329   1.702  10.423  0.3099  0.1394 -0.2833
  862MOL0     H13754   3.167   1.815  10.528 -1.2806  2.3431 -1.9152
  862MOL0     H13755   3.279   1.937  10.477 -0.6741 -0.7549 -0.7582
  862MOL0     H13756   3.348   1.823  10.757 -2.8447 -2.1972 -2.0085
  862MOL0     H13757   3.344   1.997  10.715 -2.0185  2.2832 -2.4392
  862MOL0     H13758   3.130   2.024  10.724 -1.0290 -1.3280 -1.2473
  862MOL0     H13759   3.193   1.962  10.882  1.0255  0.4319  0.3972
  862MOL0     H13760   3.107   1.731  10.783 -3.1417 -0.8644  2.3378
  862MOL0     H13761   2.994   1.822  10.681 -1.8117  0.1607  0.9163
  862MOL0     H13762   3.026   1.831  10.983 -1.3505 -1.1117  1.1627
  862MOL0     H13763   2.918   1.943  10.888 -0.1213  0.7662 -0.0827
  862MOL0     H13764   2.786   1.750  10.992 -0.9013 -0.6046 -0.3823
  862MOL0     H13765   2.878   1.636  10.902 -0.6075  0.0157  3.1905
  862MOL0     H13766   3.674   2.046  10.328 -2.4071 -1.0947  0.4993
  862MOL0     H13767   3.913   2.055  10.254 -4.0826  0.5639 -2.6341
  862MOL0     H13768   4.456   1.954  10.472 -0.3566  1.0131 -1.0626
  862MOL0     H13769   4.654   1.902  10.407  0.6009  0.3335  0.1747
  862MOL0     H13770   6.597   2.107  10.063  1.7810 -2.0308  0.4395
  862MOL0     H13771   6.857   2.143  10.060 -0.2189  0.5817 -0.9015
  862MOL0     H13772   7.216   2.643  10.250  1.2703  1.3338 -0.2589
  862MOL0     H13773   7.468   2.631  10.221  2.6358 -1.7761 -2.6600
  862MOL0     H13774   7.654   2.309   9.955 -0.5688  1.0255 -0.3540
  862MOL0     H13775   7.683   2.267  10.129  1.2638 -1.4780 -0.5558
  862MOL0     H13776   7.877   2.434  10.120  2.9656  3.5872 -2.8967
  862MOL0     H13777   7.876   2.318   9.993 -0.3148  1.1428 -0.8641
  862MOL0     H13778   7.847   2.627   9.997 -1.4560  1.3877 -0.0780
  862MOL0     H13779   7.750   2.544   9.877 -1.3109  2.3715  2.2348
  862MOL0     H13780   8.017   2.615   9.845  1.0175 -0.4025 -2.6078
  862MOL0     H13781   8.042   2.484   9.948 -1.4557  2.3270  2.0486
  862MOL0     H13782   7.929   2.275   9.588  0.3416 -1.3636  1.0906
  862MOL0     H13783   7.434   2.264  10.011 -1.2628 -0.8528 -0.9682
  862MOL0     H13784   7.191   2.249  10.084  0.8704 -0.1973  1.2577
  863MOL0     O13785   8.347   3.419   5.973  0.0767  0.0561  0.6221
  863MOL0     C13786   8.355   3.520   6.042  1.0148  0.2907  0.4458
  863MOL0     O13787   8.272   3.549   6.142  0.8427 -0.6746 -0.2628
  863MOL0     C13788   8.164   3.464   6.182  0.1228 -0.2521 -0.1955
  863MOL0     C13789   8.180   3.330   6.210  1.0368 -0.2898  0.5976
  863MOL0     C13790   8.070   3.251   6.256 -0.0139 -0.8886 -0.0704
  863MOL0     C13791   7.941   3.308   6.260  1.1692  0.2104 -0.3779
  863MOL0     O13792   7.823   3.240   6.290  0.3025 -0.2898 -0.5931
  863MOL0     C13793   7.830   3.101   6.325  0.4499  0.1097 -0.0408
  863MOL0     C13794   7.688   3.050   6.320 -0.4853 -0.0928  0.1133
  863MOL0     C13795   7.612   3.085   6.448  0.2017 -0.2503  1.1503
  863MOL0     C13796   7.476   3.030   6.453  0.0689 -0.1121 -0.8223
  863MOL0     C13797   7.393   3.106   6.555  0.2290 -0.6586  0.3092
  863MOL0     C13798   7.251   3.057   6.558  0.3533  0.6408 -0.0517
  863MOL0     C13799   7.158   3.138   6.649  0.4840 -0.2718 -0.2945
  863MOL0     C13800   7.024   3.069   6.661  0.6524 -0.5279 -0.4203
  863MOL0     N13801   6.943   3.139   6.758 -0.1072 -0.0173 -0.6168
  863MOL0     C13802   6.944   3.140   6.887 -0.8219  0.2814  0.8481
  863MOL0     C13803   6.832   3.215   6.923 -0.2697  0.0783  1.0881
  863MOL0     C13804   6.788   3.221   7.062 -0.0956 -0.5578 -0.4283
  863MOL0     C13805   6.660   3.146   7.088  0.0304  0.4337  0.5959
  863MOL0     C13806   6.635   3.133   7.234 -0.5084  0.2578 -0.9773
  863MOL0     C13807   6.489   3.088   7.279 -0.2191 -0.7588  0.2870
  863MOL0     O13808   6.439   2.987   7.191 -0.0978  0.5520 -0.0884
  863MOL0     C13809   6.309   2.948   7.214 -0.3930 -0.4750  0.8077
  863MOL0     C13810   6.216   3.017   7.293  0.7319  0.4030 -0.2320
  863MOL0     C13811   6.086   2.975   7.297 -0.2535  0.2804  0.9980
  863MOL0     C13812   6.039   2.860   7.231 -0.1202 -0.6686 -0.5401
  863MOL0     C13813   5.894   2.818   7.239 -0.1816 -0.3763 -0.3882
  863MOL0     O13814   5.854   2.720   7.159 -0.4153 -0.0303  0.0747
  863MOL0     C13815   5.729   2.709   7.120  0.7771  0.1405  0.4772
  863MOL0     C13816   5.646   2.640   7.205  0.7868  0.0067  0.2776
  863MOL0     C13817   5.505   2.614   7.167  0.1196 -0.0248 -0.7173
  863MOL0     C13818   5.445   2.681   7.064 -1.1846 -0.0542 -0.1735
  863MOL0     O13819   5.313   2.655   7.042  0.7343  0.8371  0.6317
  863MOL0     C13820   5.253   2.746   6.953  1.1578 -0.3181  0.6366
  863MOL0     C13821   5.099   2.735   6.952 -0.0712  0.4740  0.5225
  863MOL0     C13822   5.047   2.602   6.901 -0.3890 -0.5837  0.4095
  863MOL0     C13823   4.896   2.600   6.910 -0.2121 -0.1199  0.3665
  863MOL0     C13824   4.830   2.466   6.880 -0.1665  0.1754 -0.3112
  863MOL0     C13825   4.837   2.368   6.999  0.1640 -0.3637  1.1954
  863MOL0     C13826   4.754   2.245   6.971 -0.2021  0.0637 -0.2255
  863MOL0     C13827   4.669   2.201   7.095  0.8071  0.3469  0.9043
  863MOL0    Cl13828   4.539   2.322   7.135 -0.2671 -0.1155  0.3520
  863MOL0     C13829   5.524   2.775   6.990  0.7066 -0.2899 -0.1080
  863MOL0     C13830   5.665   2.780   7.015  0.5747  0.1281  0.9599
  863MOL0     O13831   5.823   2.868   7.323  0.3425 -0.3291 -0.5537
  863MOL0     C13832   6.134   2.776   7.178  0.5575  0.2676  0.1285
  863MOL0     C13833   6.261   2.834   7.162  0.1629 -0.1923 -0.1845
  863MOL0     N13834   6.776   3.272   6.814 -0.9638 -0.3674  0.4923
  863MOL0     N13835   6.850   3.235   6.718  0.1807  0.0413  0.3548
  863MOL0     C13836   7.930   3.443   6.222 -0.1502 -0.2416  0.0625
  863MOL0     C13837   8.045   3.521   6.190 -0.5907 -0.2173 -0.7381
  863MOL0     C13838   8.454   3.630   6.001  0.8184  0.4798  0.5866
  863MOL0     C13839   8.539   3.601   5.892  0.3014 -0.3714  0.3137
  863MOL0     C13840   8.641   3.690   5.861 -0.2640 -0.3628 -0.0617
  863MOL0     C13841   8.659   3.810   5.922  0.8015  0.1546 -0.5124
  863MOL0     O13842   8.753   3.905   5.865  0.8839 -0.0305 -0.2304
  863MOL0     C13843   8.775   4.028   5.931  0.5955  0.1027  0.2658
  863MOL0     C13844   8.922   4.069   5.898  0.6746 -0.7882 -0.4567
  863MOL0     C13845   9.032   3.980   5.962  0.9806  0.8519 -0.3830
  863MOL0     C13846   9.163   4.055   5.986 -0.3775  0.5156  0.2553
  863MOL0     C13847   9.166   4.144   6.113  0.2068 -0.0174 -0.4885
  863MOL0     C13848   9.167   4.219   6.208 -0.0006  0.2931  0.3109
  863MOL0     C13849   8.567   3.838   6.027 -0.5141  0.0672  0.6026
  863MOL0     C13850   8.470   3.751   6.067  0.3935 -0.5709 -0.9340
  863MOL0     H13851   8.278   3.284   6.199  1.0271  0.1380 -2.0062
  863MOL0     H13852   8.094   3.152   6.295  3.5909 -0.5986 -1.2485
  863MOL0     H13853   7.871   3.099   6.427  1.2999  1.8355 -0.3035
  863MOL0     H13854   7.902   3.038   6.273 -0.3799 -2.5855  1.8616
  863MOL0     H13855   7.698   2.942   6.308 -1.5514 -0.4472  2.0352
  863MOL0     H13856   7.634   3.091   6.233 -0.1556  1.6746  0.6980
  863MOL0     H13857   7.616   3.194   6.455  1.0833 -0.2566  0.7940
  863MOL0     H13858   7.668   3.043   6.532  2.0474 -0.8393 -0.2998
  863MOL0     H13859   7.431   3.036   6.354  0.5505  0.0897 -1.0321
  863MOL0     H13860   7.485   2.923   6.476  2.1515  0.6097  2.4090
  863MOL0     H13861   7.390   3.209   6.520  3.3263 -0.5918 -0.0014
  863MOL0     H13862   7.441   3.111   6.653  1.3798  1.5791 -0.3253
  863MOL0     H13863   7.255   2.949   6.577 -0.7381  0.8360  1.4436
  863MOL0     H13864   7.203   3.055   6.460 -1.1243  0.2622  0.6444
  863MOL0     H13865   7.197   3.146   6.751 -0.3397 -1.4648  0.1444
  863MOL0     H13866   7.139   3.238   6.610 -2.9480 -0.4710  0.5262
  863MOL0     H13867   7.051   2.969   6.697 -0.6984 -0.7034  0.1493
  863MOL0     H13868   6.981   3.059   6.561 -0.2243 -0.9778 -0.0100
  863MOL0     H13869   7.008   3.078   6.949 -1.8554 -1.4691  0.2427
  863MOL0     H13870   6.790   3.330   7.069  0.3507 -0.4255 -2.1185
  863MOL0     H13871   6.861   3.191   7.137  0.0556  3.4800  1.3426
  863MOL0     H13872   6.655   3.047   7.042 -0.7897  1.0209 -0.6601
  863MOL0     H13873   6.583   3.209   7.042  0.4834  1.0318  0.6366
  863MOL0     H13874   6.703   3.057   7.274  1.6059  3.7322  2.8195
  863MOL0     H13875   6.664   3.231   7.272  2.7840  0.2855 -3.1362
  863MOL0     H13876   6.430   3.180   7.273  3.2673  1.5639 -1.7686
  863MOL0     H13877   6.478   3.057   7.384 -3.8785 -0.8123 -0.0004
  863MOL0     H13878   6.236   3.113   7.339 -1.4367  1.1489 -0.7206
  863MOL0     H13879   6.011   3.034   7.349 -0.5499  0.0588  0.8275
  863MOL0     H13880   5.680   2.602   7.301  0.3432  3.5961  2.0441
  863MOL0     H13881   5.449   2.539   7.221  2.3231  0.0975  1.9315
  863MOL0     H13882   5.287   2.737   6.849 -0.7000  0.3820 -0.0909
  863MOL0     H13883   5.284   2.848   6.978 -1.5223  0.2678  1.9527
  863MOL0     H13884   5.059   2.820   6.897  0.7042  0.0788 -0.6750
  863MOL0     H13885   5.053   2.744   7.051 -2.0624  2.0921 -0.4905
  863MOL0     H13886   5.083   2.522   6.966 -0.7199  0.1057  1.4599
  863MOL0     H13887   5.068   2.567   6.799 -0.1736 -1.0561  0.6130
  863MOL0     H13888   4.882   2.626   7.016  0.8533 -2.3095  1.0940
  863MOL0     H13889   4.861   2.673   6.836  3.2144 -0.3182 -1.6759
  863MOL0     H13890   4.872   2.402   6.802 -0.1544  0.2407 -0.3584
  863MOL0     H13891   4.723   2.474   6.860 -1.3283 -4.9357  2.1212
  863MOL0     H13892   4.788   2.423   7.080 -0.0683  1.0657  0.1206
  863MOL0     H13893   4.940   2.341   7.023  0.5415  1.2283  1.5154
  863MOL0     H13894   4.689   2.235   6.884 -3.8238  0.1261  2.2511
  863MOL0     H13895   4.820   2.158   6.963 -2.7393 -2.0752  0.3368
  863MOL0     H13896   4.735   2.199   7.182  0.9093  1.5886  0.8731
  863MOL0     H13897   4.619   2.106   7.075 -2.4120  2.1699 -0.5162
  863MOL0     H13898   5.480   2.840   6.915  2.6927  3.0540  1.3817
  863MOL0     H13899   5.720   2.859   6.964  0.7020  0.6219  1.8346
  863MOL0     H13900   6.108   2.689   7.118 -1.3250  1.5173 -0.9888
  863MOL0     H13901   6.331   2.774   7.105  3.2603  4.2186 -1.5793
  863MOL0     H13902   7.834   3.492   6.232 -0.4052 -0.3360 -1.7023
  863MOL0     H13903   8.043   3.629   6.182 -0.3553  0.3057  3.6363
  863MOL0     H13904   8.523   3.511   5.835 -0.9354 -0.1227  0.2427
  863MOL0     H13905   8.718   3.668   5.788  0.3179  2.4933 -0.4107
  863MOL0     H13906   8.764   4.014   6.039 -0.9291 -0.4838  0.0623
  863MOL0     H13907   8.706   4.104   5.895 -0.6737 -1.2522 -0.2822
  863MOL0     H13908   8.918   4.087   5.790 -2.4936  1.8692 -0.0600
  863MOL0     H13909   8.933   4.170   5.939  0.6202 -1.4201  1.1729
  863MOL0     H13910   9.051   3.894   5.897  0.8827 -0.7907  1.6322
  863MOL0     H13911   9.004   3.935   6.058  2.9528 -2.7006 -1.2878
  863MOL0     H13912   9.248   3.987   5.981  0.5193  1.4022  2.0920
  863MOL0     H13913   9.165   4.115   5.894 -5.0276  2.7117  1.2392
  863MOL0     H13914   9.168   4.284   6.293 -0.5054  2.5110 -1.2687
  863MOL0     H13915   8.565   3.935   6.076  4.1631  1.2362 -0.9455
  863MOL0     H13916   8.407   3.779   6.152  2.0269  0.7438 -0.1001
  864MOL0     O13917   7.044   6.745   9.553  0.5852  0.5219  0.5283
  864MOL0     C13918   7.049   6.701   9.669 -0.2561  0.1834  0.1836
  864MOL0     O13919   6.945   6.652   9.743 -1.1808 -0.3937 -0.7211
  864MOL0     C13920   6.819   6.644   9.704 -0.4312  0.5700  0.1318
  864MOL0     C13921   6.720   6.617   9.798  0.2829 -0.1611 -0.4397
  864MOL0     C13922   6.586   6.593   9.764  0.8934 -0.3926  0.0507
  864MOL0     C13923   6.544   6.610   9.631 -0.2202  0.3084  0.3637
  864MOL0     O13924   6.418   6.587   9.572  0.2733  0.1833 -0.2737
  864MOL0     C13925   6.297   6.619   9.649 -0.6645  0.8517  0.5344
  864MOL0     C13926   6.224   6.489   9.693  0.8569 -0.0370  0.5024
  864MOL0     C13927   6.108   6.525   9.788 -0.4004  0.0512 -0.0684
  864MOL0     C13928   6.010   6.633   9.718  1.0358  0.0884 -0.7713
  864MOL0     C13929   5.872   6.631   9.778  0.2505 -1.0141  0.1456
  864MOL0     C13930   5.791   6.743   9.721 -0.2699 -0.7357 -0.5173
  864MOL0     C13931   5.645   6.760   9.780 -0.5600 -0.4859 -0.1544
  864MOL0     C13932   5.642   6.775   9.937  0.1226  1.2425  0.2016
  864MOL0     N13933   5.514   6.821   9.987 -1.0088 -0.0308  0.6734
  864MOL0     C13934   5.394   6.754   9.997  0.2439  1.1238 -0.0998
  864MOL0     C13935   5.319   6.841  10.066 -0.0183 -0.5586 -0.9215
  864MOL0     C13936   5.184   6.810  10.116 -0.0495  0.1477 -0.9424
  864MOL0     C13937   5.173   6.778  10.269 -0.4006  0.0161 -1.4450
  864MOL0     C13938   5.275   6.677  10.326  0.8957 -0.7407  0.3033
  864MOL0     C13939   5.276   6.676  10.472 -0.8942 -0.1988 -0.4716
  864MOL0     O13940   5.171   6.588  10.523 -0.6413  0.0277 -0.0466
  864MOL0     C13941   5.057   6.629  10.578  0.5349  0.1322 -0.0742
  864MOL0     C13942   5.024   6.762  10.613 -0.2846 -0.2410  0.7655
  864MOL0     C13943   4.892   6.788  10.647 -0.3591 -0.2829 -0.5415
  864MOL0     C13944   4.799   6.684  10.657 -0.3740  0.2488  0.1503
  864MOL0     C13945   4.663   6.718  10.713 -0.3429  0.4150  0.7045
  864MOL0     O13946   4.581   6.609  10.708  0.0547 -0.3607 -0.0335
  864MOL0     C13947   4.449   6.621  10.766 -0.7426 -0.2393 -0.2920
  864MOL0     C13948   4.396   6.518  10.845 -0.7423 -0.0425 -1.0100
  864MOL0     C13949   4.278   6.530  10.914  1.6407  0.1015 -0.1368
  864MOL0     C13950   4.197   6.638  10.879  0.6219 -0.1304 -0.4091
  864MOL0     O13951   4.063   6.654  10.924  0.0663  0.3518 -0.3426
  864MOL0     C13952   4.040   6.608  11.060  0.0128 -0.3024 -0.4695
  864MOL0     C13953   3.892   6.635  11.086  0.1244  0.1221 -0.4460
  864MOL0     C13954   3.845   6.599  11.226 -0.0752  0.4301 -0.2372
  864MOL0     C13955   3.701   6.650  11.248 -1.1927  0.4592  0.0756
  864MOL0     C13956   3.641   6.639  11.381  0.5674  0.2938 -0.2168
  864MOL0     C13957   3.509   6.718  11.391  0.5512  1.1185  0.3332
  864MOL0     C13958   3.468   6.694  11.530  0.1732  0.2084 -0.7414
  864MOL0     C13959   3.328   6.758  11.559 -0.0400 -0.2619  0.1883
  864MOL0    Cl13960   3.198   6.645  11.513  0.3176  0.3911 -0.1898
  864MOL0     C13961   4.240   6.738  10.789  0.0475  0.2141 -0.6230
  864MOL0     C13962   4.369   6.729  10.742 -0.0415 -0.9116 -0.3550
  864MOL0     O13963   4.646   6.825  10.766  0.1381 -0.6532  0.0236
  864MOL0     C13964   4.836   6.556  10.621  0.6143 -0.0453  0.1293
  864MOL0     C13965   4.967   6.528  10.577  0.4388 -0.1347 -0.4412
  864MOL0     N13966   5.391   6.952  10.111 -0.2806 -0.2101  0.0570
  864MOL0     N13967   5.510   6.934  10.067 -0.5217  0.2838 -0.2885
  864MOL0     C13968   6.642   6.633   9.530  0.1625  0.5803  0.1241
  864MOL0     C13969   6.776   6.644   9.570 -0.1703 -0.0318 -0.3895
  864MOL0     C13970   7.182   6.717   9.742  0.4967 -0.4862  0.3103
  864MOL0     C13971   7.279   6.810   9.689 -0.0371  0.5700  0.3088
  864MOL0     C13972   7.407   6.806   9.736 -0.4856  0.2533  1.0241
  864MOL0     C13973   7.448   6.729   9.842 -0.6538  0.0229  0.1458
  864MOL0     O13974   7.565   6.733   9.906 -0.2689 -0.1983 -0.3246
  864MOL0     C13975   7.668   6.809   9.838  0.0648  0.1234  0.1803
  864MOL0     C13976   7.764   6.713   9.772  1.0478 -0.5056 -0.3556
  864MOL0     C13977   7.901   6.773   9.759 -0.1758  0.1928  0.0057
  864MOL0     C13978   7.995   6.675   9.678 -1.2693 -0.2932 -0.0532
  864MOL0     C13979   8.128   6.718   9.680 -0.7157  0.0018 -0.1429
  864MOL0     C13980   8.245   6.743   9.695  0.5937 -0.6153 -0.3579
  864MOL0     C13981   7.352   6.650   9.895  0.5952 -0.3772 -0.0630
  864MOL0     C13982   7.216   6.645   9.856 -0.4503  0.6806 -0.3552
  864MOL0     H13983   6.762   6.618   9.899  0.4061 -0.0109 -0.4919
  864MOL0     H13984   6.512   6.567   9.840  0.9290 -1.6565 -0.3164
  864MOL0     H13985   6.222   6.668   9.586 -0.9729  1.1745  1.1347
  864MOL0     H13986   6.326   6.679   9.736  1.5022 -0.5888  0.8703
  864MOL0     H13987   6.296   6.420   9.737  1.8470  0.9158  0.4239
  864MOL0     H13988   6.181   6.439   9.606  1.0425  0.1234  0.3159
  864MOL0     H13989   6.138   6.581   9.877  1.4231  0.0811 -0.6613
  864MOL0     H13990   6.053   6.437   9.823 -0.9294  1.1274  1.9827
  864MOL0     H13991   6.052   6.733   9.735 -1.8455  1.0718  1.4832
  864MOL0     H13992   5.999   6.614   9.611  1.6799 -0.7847 -0.6813
  864MOL0     H13993   5.889   6.644   9.885  0.8357  0.7983 -0.1393
  864MOL0     H13994   5.819   6.538   9.753 -0.5639 -0.1146 -1.7651
  864MOL0     H13995   5.790   6.747   9.612  1.9267  1.9028 -0.5515
  864MOL0     H13996   5.849   6.831   9.750  0.2589 -1.6405  1.3354
  864MOL0     H13997   5.592   6.848   9.743  0.2953  0.7582  1.4792
  864MOL0     H13998   5.597   6.667   9.749 -0.5275 -1.3695  2.2243
  864MOL0     H13999   5.720   6.847   9.963  1.6577 -0.4147  0.3756
  864MOL0     H14000   5.666   6.676   9.977 -0.4280  1.8087  1.9890
  864MOL0     H14001   5.375   6.650   9.971  1.4721  0.3847  1.7358
  864MOL0     H14002   5.150   6.718  10.068 -1.5334 -0.4114  1.0702
  864MOL0     H14003   5.106   6.879  10.082  1.1094  2.2797  0.4394
  864MOL0     H14004   5.077   6.744  10.308  0.4773  0.7175  1.5302
  864MOL0     H14005   5.186   6.877  10.314 -2.2402 -0.4117  0.0930
  864MOL0     H14006   5.250   6.578  10.287 -3.5080  0.1156  0.4261
  864MOL0     H14007   5.371   6.722  10.299 -0.5635  1.1594 -2.0888
  864MOL0     H14008   5.274   6.777  10.514 -0.3201  1.0325 -3.1942
  864MOL0     H14009   5.372   6.634  10.503 -1.3514 -0.9396 -0.0318
  864MOL0     H14010   5.103   6.836  10.605  0.3947 -1.1885 -4.2082
  864MOL0     H14011   4.872   6.893  10.667 -2.0561 -0.8864  1.3025
  864MOL0     H14012   4.452   6.425  10.844 -3.0916 -1.5414 -0.6887
  864MOL0     H14013   4.249   6.456  10.988  1.7696  0.3358  0.1496
  864MOL0     H14014   4.097   6.668  11.132 -3.0156 -0.2555  2.0616
  864MOL0     H14015   4.060   6.501  11.071 -2.3138 -1.0691 -2.7690
  864MOL0     H14016   3.826   6.592  11.010 -1.3115  1.3565  0.0630
  864MOL0     H14017   3.878   6.744  11.086  1.6031  0.4213  2.5383
  864MOL0     H14018   3.908   6.640  11.307 -2.5357 -1.9980  3.2149
  864MOL0     H14019   3.853   6.492  11.244  3.5535  0.6513  0.2533
  864MOL0     H14020   3.697   6.749  11.203 -0.5005 -0.4575 -2.1624
  864MOL0     H14021   3.638   6.588  11.183 -0.0990  2.1826 -2.8547
  864MOL0     H14022   3.710   6.681  11.455  0.1679  0.2720  0.1726
  864MOL0     H14023   3.609   6.536  11.398  1.0364  0.7160  4.9384
  864MOL0     H14024   3.435   6.683  11.318  0.0684  0.2456  1.2253
  864MOL0     H14025   3.522   6.826  11.378 -0.9835  1.4288  1.2102
  864MOL0     H14026   3.461   6.589  11.559  2.4527  0.2510  0.1633
  864MOL0     H14027   3.541   6.746  11.593  1.7122 -2.5484 -0.0764
  864MOL0     H14028   3.325   6.852  11.503  3.9759 -0.1526 -0.0933
  864MOL0     H14029   3.314   6.771  11.667  1.5563 -0.7888  0.4741
  864MOL0     H14030   4.180   6.817  10.747  1.0052  0.5773 -1.3452
  864MOL0     H14031   4.406   6.799  10.667  1.3955  1.0642  2.0637
  864MOL0     H14032   4.762   6.478  10.636  1.7329 -1.0816  0.3636
  864MOL0     H14033   4.987   6.423  10.558 -0.9671 -0.7460  1.1329
  864MOL0     H14034   6.614   6.622   9.426  1.8156 -1.9224 -0.1534
  864MOL0     H14035   6.840   6.640   9.482  1.3224  0.2203  0.6632
  864MOL0     H14036   7.266   6.865   9.596  0.1930  0.0903 -0.0122
  864MOL0     H14037   7.478   6.868   9.683  0.9338 -3.7401 -2.2425
  864MOL0     H14038   7.728   6.851   9.919  2.2118 -2.2078 -0.0661
  864MOL0     H14039   7.649   6.883   9.760 -0.3302  1.1230  1.1908
  864MOL0     H14040   7.768   6.619   9.829 -0.4199 -0.1854  0.3270
  864MOL0     H14041   7.736   6.699   9.667 -1.0705  4.1596 -0.6324
  864MOL0     H14042   7.958   6.812   9.843  1.8322 -1.7846 -0.3363
  864MOL0     H14043   7.877   6.851   9.686  0.0011 -0.7301 -1.0843
  864MOL0     H14044   7.997   6.576   9.723 -1.5969  0.7282  2.3580
  864MOL0     H14045   7.959   6.660   9.576  1.3897  1.3803 -1.3323
  864MOL0     H14046   8.339   6.793   9.704  0.0939 -0.0240  2.4247
  864MOL0     H14047   7.378   6.578   9.972  1.0005  0.6036  0.7292
  864MOL0     H14048   7.148   6.573   9.899 -3.5256  3.1424 -0.7586
  865MOL0     O14049   9.615   3.655   1.733 -0.5401 -0.0491 -0.7918
  865MOL0     C14050   9.643   3.771   1.766  0.9467 -0.3352  0.0789
  865MOL0     O14051   9.575   3.843   1.853  0.3849  0.2888  0.1877
  865MOL0     C14052   9.457   3.795   1.905 -0.2659  0.2077 -0.9722
  865MOL0     C14053   9.333   3.827   1.843  0.1675 -0.0794 -1.3985
  865MOL0     C14054   9.217   3.761   1.882 -0.1621  0.1523  0.2867
  865MOL0     C14055   9.214   3.666   1.984 -0.0628  0.6086 -0.9447
  865MOL0     O14056   9.100   3.603   2.040  0.7054 -0.4706 -0.6436
  865MOL0     C14057   8.972   3.650   2.011 -0.6476  0.0942  0.0011
  865MOL0     C14058   8.876   3.597   2.115  0.5100 -0.8877 -0.9277
  865MOL0     C14059   8.792   3.488   2.048 -0.5136  0.3177  0.4074
  865MOL0     C14060   8.698   3.422   2.139 -0.1582  0.6048  0.0625
  865MOL0     C14061   8.589   3.349   2.057  0.2268 -0.3380 -0.9188
  865MOL0     C14062   8.460   3.318   2.132 -0.4148  0.4644 -0.3969
  865MOL0     C14063   8.477   3.239   2.266 -0.6043  0.0302 -0.0410
  865MOL0     C14064   8.345   3.167   2.309  0.4694  0.4639 -0.1469
  865MOL0     N14065   8.234   3.254   2.319 -0.4812 -0.1207 -1.0005
  865MOL0     C14066   8.132   3.255   2.230 -0.0045 -1.3898  0.2363
  865MOL0     C14067   8.059   3.366   2.253 -0.3673 -0.7447 -1.4689
  865MOL0     C14068   7.930   3.419   2.192 -0.1829  0.5398  0.4316
  865MOL0     C14069   7.944   3.461   2.053  0.0832 -0.4305 -0.4282
  865MOL0     C14070   8.023   3.597   2.061  0.5500 -0.4054  0.2071
  865MOL0     C14071   8.141   3.591   1.964 -0.5056 -0.3223  0.1167
  865MOL0     O14072   8.202   3.721   1.953  0.0569 -0.7730  0.3006
  865MOL0     C14073   8.330   3.733   1.909 -0.1964 -0.3444 -0.2891
  865MOL0     C14074   8.423   3.784   1.993 -0.4645  0.0379 -0.7627
  865MOL0     C14075   8.558   3.800   1.949  0.1019 -0.6898  0.7195
  865MOL0     C14076   8.593   3.758   1.818  0.5292  0.0849 -0.1031
  865MOL0     C14077   8.727   3.785   1.757  0.6437 -0.6669 -0.1363
  865MOL0     O14078   8.751   3.757   1.625  0.8145  0.9003  0.1351
  865MOL0     C14079   8.878   3.756   1.577  0.2905  0.1198 -0.3403
  865MOL0     C14080   8.960   3.650   1.599  0.3774  0.2247 -0.5701
  865MOL0     C14081   9.090   3.654   1.549  0.6557 -0.4643 -0.9785
  865MOL0     C14082   9.140   3.767   1.476  0.3536  0.2489  0.0523
  865MOL0     O14083   9.271   3.780   1.437  0.2766 -0.1560 -0.1641
  865MOL0     C14084   9.357   3.662   1.446 -0.2294 -0.7755  0.1289
  865MOL0     C14085   9.503   3.701   1.405 -0.3107  0.5379  0.2414
  865MOL0     C14086   9.504   3.731   1.255 -0.8707  1.0842 -0.3212
  865MOL0     C14087   9.634   3.812   1.236  0.4329  0.3575  0.5609
  865MOL0     C14088   9.647   3.830   1.077 -0.2628 -0.0910  0.1800
  865MOL0     C14089   9.777   3.899   1.036 -0.3410 -0.4213  0.2208
  865MOL0     C14090   9.781   4.039   1.083 -0.7011  0.2750  0.4065
  865MOL0     C14091   9.906   4.120   1.028 -0.1769  0.2172 -0.2310
  865MOL0    Cl14092  10.061   4.055   1.091 -0.0360 -0.0611 -0.0014
  865MOL0     C14093   9.047   3.862   1.450 -0.7253  0.3805  0.8823
  865MOL0     C14094   8.912   3.863   1.495  0.3898  0.5979  0.4126
  865MOL0     O14095   8.817   3.827   1.831 -0.2233 -0.1408  0.6195
  865MOL0     C14096   8.504   3.696   1.742  0.2011 -0.4600  0.3562
  865MOL0     C14097   8.362   3.698   1.775 -1.4501  0.3159 -0.0025
  865MOL0     N14098   8.124   3.435   2.355  0.2571  0.3806  0.4357
  865MOL0     N14099   8.214   3.365   2.406 -0.6287 -0.2007  1.0944
  865MOL0     C14100   9.334   3.640   2.041 -0.1296 -0.1756  0.4252
  865MOL0     C14101   9.455   3.702   2.009 -0.2219 -0.1423  1.1215
  865MOL0     C14102   9.759   3.835   1.702 -0.4747 -0.1601  0.1939
  865MOL0     C14103   9.783   3.800   1.564 -1.0330 -0.1623 -0.3644
  865MOL0     C14104   9.889   3.864   1.494  0.5896 -0.2516 -0.5379
  865MOL0     C14105   9.966   3.970   1.564  0.5160  0.0396  0.6763
  865MOL0     O14106  10.050   4.033   1.472 -0.1110 -0.1584 -0.7906
  865MOL0     C14107  10.116   4.161   1.503  0.9817 -0.0021  0.1832
  865MOL0     C14108  10.224   4.150   1.614  1.1653  0.3634  0.9248
  865MOL0     C14109  10.353   4.118   1.536  0.0044  0.0170 -0.1191
  865MOL0     C14110  10.471   4.113   1.636 -0.7136 -0.4157  1.4564
  865MOL0     C14111  10.573   4.200   1.582 -0.2701  0.1622 -0.3445
  865MOL0     C14112  10.657   4.267   1.532 -1.0255 -0.6595 -0.9590
  865MOL0     C14113   9.931   4.013   1.691  0.0746  0.4989 -0.1953
  865MOL0     C14114   9.833   3.939   1.762 -0.1296 -0.8306  0.1507
  865MOL0     H14115   9.328   3.892   1.755  1.1522 -0.6084 -1.8667
  865MOL0     H14116   9.127   3.798   1.832  1.4227  0.9622 -2.1635
  865MOL0     H14117   8.930   3.610   1.918 -2.6778 -1.1243  1.3586
  865MOL0     H14118   8.981   3.758   2.024 -3.1745  0.4946 -0.9921
  865MOL0     H14119   8.817   3.683   2.149  0.1309 -2.4473  2.8763
  865MOL0     H14120   8.929   3.563   2.204  2.0576  3.1636 -0.0807
  865MOL0     H14121   8.857   3.406   2.015 -1.1124 -0.7557  1.7988
  865MOL0     H14122   8.732   3.536   1.971  0.9062 -0.3924 -1.2018
  865MOL0     H14123   8.749   3.349   2.202 -1.9170 -0.1958  0.6354
  865MOL0     H14124   8.652   3.508   2.190  0.1477  0.7992  0.0151
  865MOL0     H14125   8.633   3.256   2.018  1.3772 -0.3669  0.3654
  865MOL0     H14126   8.575   3.408   1.966 -1.3467 -1.3794 -1.3829
  865MOL0     H14127   8.407   3.259   2.056 -2.8849  1.8284  0.1616
  865MOL0     H14128   8.399   3.408   2.142 -2.1094 -0.5746 -1.1135
  865MOL0     H14129   8.552   3.160   2.254 -1.0918 -0.8465  2.1328
  865MOL0     H14130   8.502   3.310   2.345 -2.0284  1.2159 -0.6196
  865MOL0     H14131   8.356   3.127   2.411 -2.1874  1.6275  0.6670
  865MOL0     H14132   8.319   3.088   2.239 -0.2441  1.2818 -0.8137
  865MOL0     H14133   8.117   3.170   2.164 -0.1229  0.7391 -2.6862
  865MOL0     H14134   7.895   3.510   2.241 -1.2683  0.0685  0.5533
  865MOL0     H14135   7.858   3.337   2.199  1.1073 -0.9189 -1.7004
  865MOL0     H14136   7.841   3.475   2.017  0.0359 -1.9678 -0.9759
  865MOL0     H14137   7.986   3.382   1.990 -0.8327  0.1517 -1.8135
  865MOL0     H14138   7.955   3.681   2.042 -0.9318 -1.0746  2.2628
  865MOL0     H14139   8.068   3.620   2.157  1.5312  1.2817 -0.6064
  865MOL0     H14140   8.114   3.566   1.861  2.3969 -2.1529 -0.3005
  865MOL0     H14141   8.201   3.505   1.993 -1.0953 -0.2709  1.5634
  865MOL0     H14142   8.393   3.813   2.093 -0.2990 -1.7629 -0.1624
  865MOL0     H14143   8.640   3.853   1.996  1.1521  0.8615 -2.6000
  865MOL0     H14144   8.919   3.568   1.657  0.0011  1.6031  1.2064
  865MOL0     H14145   9.152   3.570   1.578  2.7847  1.5758  0.8280
  865MOL0     H14146   9.325   3.579   1.383 -2.5783  0.0436  0.1443
  865MOL0     H14147   9.353   3.625   1.549  0.6081 -1.0901  0.0536
  865MOL0     H14148   9.572   3.618   1.418  0.3280  1.2677  1.7699
  865MOL0     H14149   9.532   3.784   1.470  2.4670 -0.0448 -0.1436
  865MOL0     H14150   9.429   3.795   1.209  0.2273  0.9884 -2.3895
  865MOL0     H14151   9.503   3.629   1.214 -0.1765  0.3224  1.4416
  865MOL0     H14152   9.633   3.909   1.287 -2.2767  0.5155  0.3158
  865MOL0     H14153   9.722   3.754   1.267  1.3659  0.9674 -0.7879
  865MOL0     H14154   9.562   3.888   1.039 -0.9354 -0.2260  1.4061
  865MOL0     H14155   9.655   3.727   1.039  1.0974 -0.4903  1.4531
  865MOL0     H14156   9.775   3.905   0.926 -1.0509 -1.3891  0.1661
  865MOL0     H14157   9.863   3.841   1.070  1.6064  1.6772 -0.8629
  865MOL0     H14158   9.691   4.097   1.063  0.9268  2.6721 -0.4481
  865MOL0     H14159   9.790   4.032   1.192 -1.6620 -2.1501  0.3952
  865MOL0     H14160   9.889   4.225   1.050 -0.5702 -0.2066  1.6227
  865MOL0     H14161   9.903   4.118   0.918  0.3388 -1.0749 -0.2414
  865MOL0     H14162   9.082   3.945   1.389 -2.7744  0.6691  0.0152
  865MOL0     H14163   8.856   3.946   1.452  1.6434  0.9456 -0.6261
  865MOL0     H14164   8.542   3.655   1.649  0.4783  0.3547  0.1095
  865MOL0     H14165   8.287   3.651   1.712 -0.5990  0.6785 -1.3370
  865MOL0     H14166   9.331   3.555   2.108 -0.7531  0.1368  0.7983
  865MOL0     H14167   9.547   3.670   2.056  0.1568 -0.3244  0.2679
  865MOL0     H14168   9.740   3.722   1.502  1.1980  0.2933 -2.6868
  865MOL0     H14169   9.912   3.837   1.391  2.4092  0.6194 -0.4047
  865MOL0     H14170  10.040   4.226   1.547 -1.7398 -4.4787  2.8493
  865MOL0     H14171  10.154   4.196   1.407  0.0933  0.4484 -0.0165
  865MOL0     H14172  10.233   4.242   1.673 -3.3293  1.8521 -0.2951
  865MOL0     H14173  10.196   4.069   1.683 -0.3697 -1.3617 -1.5435
  865MOL0     H14174  10.362   4.196   1.460  0.4540 -1.0737 -1.2055
  865MOL0     H14175  10.340   4.023   1.485  1.4376 -0.0549 -0.4005
  865MOL0     H14176  10.438   4.160   1.729 -3.8737  2.0950 -0.6901
  865MOL0     H14177  10.506   4.013   1.661 -2.0641 -0.5783  2.8646
  865MOL0     H14178  10.740   4.327   1.500  0.1028 -0.8128  1.3826
  865MOL0     H14179   9.981   4.093   1.745  0.3008  0.2435 -0.0203
  865MOL0     H14180   9.809   3.964   1.865 -1.0223 -1.5364  0.1203
  866MOL0     O14181  10.530   4.842   2.333 -0.3611 -0.1164  0.6568
  866MOL0     C14182  10.582   4.831   2.225  0.1073  0.3608  0.4229
  866MOL0     O14183  10.534   4.768   2.117  0.7686  0.1512  0.0254
  866MOL0     C14184  10.401   4.757   2.126  0.6466 -0.4257  0.6630
  866MOL0     C14185  10.314   4.861   2.083  1.0308 -0.0165  0.0661
  866MOL0     C14186  10.172   4.843   2.092 -0.0595  0.0110  0.2306
  866MOL0     C14187  10.119   4.735   2.160 -0.6471  0.6058  0.3110
  866MOL0     O14188   9.985   4.720   2.195  0.9939 -0.0247 -0.1991
  866MOL0     C14189   9.940   4.724   2.331 -0.2294  0.4493 -0.1247
  866MOL0     C14190   9.786   4.710   2.346  0.8072 -0.2141  0.1577
  866MOL0     C14191   9.730   4.572   2.308 -0.3210 -0.1101  0.0880
  866MOL0     C14192   9.811   4.452   2.365  0.0334 -0.5565  0.1090
  866MOL0     C14193   9.817   4.448   2.515 -0.8139  0.7476 -0.2368
  866MOL0     C14194   9.883   4.317   2.564 -0.9209 -1.3610  0.3263
  866MOL0     C14195   9.807   4.181   2.531  0.5684 -0.1432  0.0380
  866MOL0     C14196   9.861   4.055   2.611  1.0912  0.3329  0.4820
  866MOL0     N14197  10.012   4.059   2.629  0.5107  0.4243 -0.0424
  866MOL0     C14198  10.101   3.990   2.552 -0.0253  0.2598  0.1063
  866MOL0     C14199  10.220   4.003   2.620  0.1283  0.4284 -0.3566
  866MOL0     C14200  10.350   3.964   2.578  0.6901  0.4501 -0.2324
  866MOL0     C14201  10.419   4.080   2.516 -0.3051 -0.1671 -0.1243
  866MOL0     C14202  10.568   4.066   2.510  0.8494  0.1709 -0.0513
  866MOL0     C14203  10.611   3.988   2.389  0.1852 -0.1973  0.6821
  866MOL0     O14204  10.749   3.944   2.381  0.0491  0.8311 -0.2196
  866MOL0     C14205  10.855   4.019   2.321 -0.3134 -1.4019  0.7691
  866MOL0     C14206  10.977   3.948   2.295 -0.1894 -0.3615  0.4371
  866MOL0     C14207  11.086   4.010   2.231 -0.8816  0.3133  0.4193
  866MOL0     C14208  11.078   4.147   2.194  0.7803 -0.9410 -0.8969
  866MOL0     C14209  11.208   4.205   2.145  0.1557  0.2786 -0.1446
  866MOL0     O14210  11.202   4.323   2.091 -0.2092 -0.1084  0.7267
  866MOL0     C14211  11.293   4.361   1.992  0.5129 -0.2941 -0.4071
  866MOL0     C14212  11.351   4.271   1.900 -0.5629 -0.5552  0.1068
  866MOL0     C14213  11.448   4.311   1.807  0.3551 -0.3207 -0.1635
  866MOL0     C14214  11.482   4.448   1.805  0.0107 -1.1091 -0.0180
  866MOL0     O14215  11.579   4.506   1.721 -0.6785 -0.3861 -0.8747
  866MOL0     C14216  11.616   4.429   1.603 -0.3785 -0.3210  0.3896
  866MOL0     C14217  11.696   4.518   1.497 -0.3375  0.4532 -0.0838
  866MOL0     C14218  11.823   4.583   1.555 -0.6221 -0.3304 -0.2450
  866MOL0     C14219  11.953   4.500   1.549  0.0874  0.0858  0.1140
  866MOL0     C14220  12.072   4.575   1.589 -0.4858 -0.8359  0.1533
  866MOL0     C14221  12.194   4.487   1.561 -0.6415  0.5994  1.2046
  866MOL0     C14222  12.319   4.573   1.578  0.6961  0.6486 -0.2818
  866MOL0     C14223  12.442   4.477   1.561  0.2369  0.4828 -0.2757
  866MOL0    Cl14224  12.478   4.411   1.728  0.2068 -0.4637  0.3154
  866MOL0     C14225  11.429   4.540   1.895  1.0785 -0.3046  0.6927
  866MOL0     C14226  11.339   4.494   1.993 -0.1835 -0.6161  0.1053
  866MOL0     O14227  11.309   4.129   2.149  0.5560 -0.0651  0.0025
  866MOL0     C14228  10.964   4.225   2.225 -0.6080  0.0888  0.1088
  866MOL0     C14229  10.853   4.156   2.288 -0.6754  0.1782 -0.3422
  866MOL0     N14230  10.192   4.084   2.733 -0.4087 -0.6660  0.3647
  866MOL0     N14231  10.074   4.107   2.745  0.5046  0.3315  0.4141
  866MOL0     C14232  10.206   4.631   2.193 -0.0282 -0.1651 -0.1297
  866MOL0     C14233  10.343   4.645   2.185 -1.3829 -0.1555  0.2385
  866MOL0     C14234  10.727   4.850   2.227 -0.4843 -0.5261 -0.3215
  866MOL0     C14235  10.795   4.885   2.343  0.3933 -0.1161  0.2926
  866MOL0     C14236  10.934   4.917   2.333  0.0310  0.9780 -0.0070
  866MOL0     C14237  11.004   4.898   2.218 -0.0453 -0.0936 -0.2733
  866MOL0     O14238  11.137   4.899   2.208  0.1503 -0.5697  0.2918
  866MOL0     C14239  11.227   4.936   2.309  0.0534 -0.5102 -0.5469
  866MOL0     C14240  11.355   4.937   2.224  0.5727 -0.5136  0.0571
  866MOL0     C14241  11.358   5.062   2.120  0.2147  0.4746 -0.5707
  866MOL0     C14242  11.436   5.013   2.002  0.2394  1.0187 -0.6050
  866MOL0     C14243  11.572   4.954   2.036  0.4479 -0.4657 -0.5199
  866MOL0     C14244  11.673   4.894   2.056 -0.1232  0.0282 -0.7641
  866MOL0     C14245  10.942   4.858   2.106 -0.3995  0.3562  0.0652
  866MOL0     C14246  10.806   4.838   2.111 -0.2121  0.6883  0.8954
  866MOL0     H14247  10.358   4.945   2.030  2.2428  1.4147  3.1117
  866MOL0     H14248  10.101   4.912   2.046 -2.9494 -3.1603 -0.4458
  866MOL0     H14249   9.960   4.821   2.377  4.5098 -0.0406 -0.6032
  866MOL0     H14250   9.995   4.658   2.400 -0.3699  2.7646  2.3816
  866MOL0     H14251   9.731   4.793   2.301 -0.5419 -1.2627 -0.2210
  866MOL0     H14252   9.784   4.737   2.451  3.8435  0.8277  0.0366
  866MOL0     H14253   9.720   4.548   2.202  0.8619 -1.4878  0.2618
  866MOL0     H14254   9.629   4.564   2.350 -0.1021 -2.0267  0.3386
  866MOL0     H14255   9.760   4.361   2.331  3.9743 -1.7927 -3.4531
  866MOL0     H14256   9.908   4.449   2.313  1.9596  1.7900  3.1823
  866MOL0     H14257   9.717   4.444   2.560 -0.5081 -1.7467  0.4018
  866MOL0     H14258   9.864   4.534   2.564  0.2532 -0.0560  0.1878
  866MOL0     H14259   9.893   4.319   2.673  2.5164 -2.2401  0.1518
  866MOL0     H14260   9.989   4.311   2.538 -0.6712  1.9189  0.1827
  866MOL0     H14261   9.699   4.182   2.546  0.6124 -0.7442  0.4400
  866MOL0     H14262   9.829   4.148   2.428  0.6281  0.4631 -0.1470
  866MOL0     H14263   9.831   3.968   2.552  1.5537  1.1937 -1.0977
  866MOL0     H14264   9.802   4.066   2.702  0.8798  4.1611  0.0508
  866MOL0     H14265  10.082   3.947   2.454 -2.0903 -1.1252  1.0499
  866MOL0     H14266  10.341   3.872   2.520  0.7251 -0.3088  0.9167
  866MOL0     H14267  10.410   3.941   2.667  3.3582  3.0938 -1.1561
  866MOL0     H14268  10.412   4.172   2.575  2.5310 -0.4900  0.8548
  866MOL0     H14269  10.381   4.108   2.417  2.3094 -1.3075 -1.5621
  866MOL0     H14270  10.614   4.160   2.480 -0.8476  0.7975 -0.7978
  866MOL0     H14271  10.604   4.028   2.606 -1.0203  1.3871  1.1959
  866MOL0     H14272  10.594   4.036   2.292  0.6425  0.4478  0.9116
  866MOL0     H14273  10.557   3.893   2.380  0.5225 -0.2128 -3.4510
  866MOL0     H14274  10.971   3.843   2.322  1.6529 -1.2871 -2.3538
  866MOL0     H14275  11.165   3.942   2.202 -1.6291 -1.8049  2.9443
  866MOL0     H14276  11.324   4.168   1.921 -0.8227 -0.5535 -0.2215
  866MOL0     H14277  11.496   4.231   1.750  2.4642  0.1993  0.7882
  866MOL0     H14278  11.527   4.389   1.554  0.2353 -3.1052  1.3546
  866MOL0     H14279  11.683   4.347   1.629  0.8484  0.5298  0.0336
  866MOL0     H14280  11.621   4.589   1.461 -3.6126 -3.4506 -1.8126
  866MOL0     H14281  11.714   4.473   1.399  1.3720  0.9522 -0.0498
  866MOL0     H14282  11.807   4.609   1.661  1.4281 -0.9254  0.2717
  866MOL0     H14283  11.847   4.681   1.512  0.4190  0.6137  2.2739
  866MOL0     H14284  11.954   4.418   1.621  1.3835 -0.7599 -0.8253
  866MOL0     H14285  11.950   4.453   1.450  1.1247  0.4118 -0.0775
  866MOL0     H14286  12.062   4.609   1.692 -2.7172  1.3643 -0.6842
  866MOL0     H14287  12.081   4.660   1.521  3.3146 -1.1988 -0.0195
  866MOL0     H14288  12.189   4.450   1.457  1.7886 -1.2807  1.6575
  866MOL0     H14289  12.198   4.400   1.627 -0.6094 -2.1550 -2.1348
  866MOL0     H14290  12.325   4.654   1.505  1.9024 -0.6411 -1.6810
  866MOL0     H14291  12.324   4.617   1.679  1.6488  0.7448 -0.3549
  866MOL0     H14292  12.532   4.528   1.523 -0.6675  2.0922 -0.3304
  866MOL0     H14293  12.423   4.396   1.489 -0.5137  1.2161 -0.9259
  866MOL0     H14294  11.470   4.640   1.891 -2.3236  1.4599  3.7342
  866MOL0     H14295  11.289   4.562   2.062  0.6510  2.4783 -2.1417
  866MOL0     H14296  10.965   4.332   2.209  1.7911  0.3833  1.6470
  866MOL0     H14297  10.761   4.208   2.312  0.6601  2.4795  0.1387
  866MOL0     H14298  10.160   4.543   2.235 -1.4923 -0.5028 -2.2569
  866MOL0     H14299  10.409   4.569   2.226 -1.8626  1.0971  3.5741
  866MOL0     H14300  10.736   4.893   2.434  0.0572 -1.0386  0.1631
  866MOL0     H14301  10.974   4.957   2.426  1.2639  0.5654 -0.3418
  866MOL0     H14302  11.219   4.859   2.386 -2.4510  0.7497  0.5717
  866MOL0     H14303  11.198   5.034   2.349 -0.9884 -0.5505 -1.1686
  866MOL0     H14304  11.442   4.949   2.289  0.1925 -1.8658  0.8675
  866MOL0     H14305  11.354   4.837   2.180  1.6452  0.3918 -2.1971
  866MOL0     H14306  11.418   5.145   2.157  1.8905 -0.8331 -0.2047
  866MOL0     H14307  11.258   5.094   2.090  0.4301 -1.3893 -3.7340
  866MOL0     H14308  11.374   4.931   1.966  0.5229 -0.4659  2.0756
  866MOL0     H14309  11.443   5.089   1.923 -0.1355  0.4744 -1.1774
  866MOL0     H14310  11.767   4.855   2.088 -0.6863 -0.7743 -0.0281
  866MOL0     H14311  10.993   4.834   2.013  1.3914 -2.7491  1.7334
  866MOL0     H14312  10.752   4.809   2.021  0.7283 -0.3723  0.6528
  867MOL0     O14313  10.565   7.734   1.452  0.4074  0.5709 -0.0193
  867MOL0     C14314  10.661   7.654   1.471  1.4480  0.4472 -0.1279
  867MOL0     O14315  10.642   7.516   1.478 -0.7102  0.1245  0.3387
  867MOL0     C14316  10.521   7.461   1.458 -0.8380 -0.0137  1.2824
  867MOL0     C14317  10.494   7.368   1.352  0.1950 -0.3445  0.3525
  867MOL0     C14318  10.377   7.290   1.357 -0.0610 -0.5406 -0.3674
  867MOL0     C14319  10.285   7.327   1.448  0.6450  0.3807 -0.7772
  867MOL0     O14320  10.172   7.254   1.436  0.6504  0.0570  0.8997
  867MOL0     C14321  10.057   7.325   1.382  0.4928 -1.3448 -0.2361
  867MOL0     C14322   9.929   7.231   1.365 -0.0354  0.3415 -0.7204
  867MOL0     C14323   9.865   7.209   1.502 -0.5792 -0.0186  0.1458
  867MOL0     C14324   9.809   7.338   1.565  1.0066  0.4876 -0.3544
  867MOL0     C14325   9.738   7.315   1.700 -0.5539  0.1771 -0.0633
  867MOL0     C14326   9.699   7.451   1.761  0.6354  0.7854 -0.9008
  867MOL0     C14327   9.641   7.436   1.909 -0.1647 -0.1942 -0.5353
  867MOL0     C14328   9.621   7.576   1.988  0.9766 -0.1555  0.3483
  867MOL0     N14329   9.502   7.648   1.919  0.4272  0.3287 -0.5342
  867MOL0     C14330   9.513   7.757   1.840  0.1299  0.9409  0.0588
  867MOL0     C14331   9.385   7.777   1.798 -0.0140 -0.5438  0.3354
  867MOL0     C14332   9.331   7.889   1.714  0.2280  0.0640 -0.4480
  867MOL0     C14333   9.440   7.976   1.657 -0.3189 -0.6869 -0.2649
  867MOL0     C14334   9.530   7.906   1.553  0.8661  0.9473  0.7601
  867MOL0     C14335   9.676   7.960   1.542 -0.6990  0.2176 -0.3728
  867MOL0     O14336   9.746   7.969   1.665 -0.3234  0.5520 -0.2218
  867MOL0     C14337   9.873   8.025   1.660  0.0456 -0.6788  1.3021
  867MOL0     C14338   9.907   8.102   1.768  0.1542  0.4428  0.3520
  867MOL0     C14339  10.026   8.174   1.774 -0.5211  0.0214 -0.4074
  867MOL0     C14340  10.118   8.159   1.674 -0.1980 -0.0452  0.5316
  867MOL0     C14341  10.258   8.218   1.699  0.1675 -0.4635 -0.6432
  867MOL0     O14342  10.347   8.193   1.604 -0.1885  0.1276 -0.1541
  867MOL0     C14343  10.474   8.182   1.642 -0.3929 -0.0123  0.2119
  867MOL0     C14344  10.526   8.053   1.674  0.4649  0.3400  0.8207
  867MOL0     C14345  10.655   8.032   1.706 -0.0273 -0.3112  0.1792
  867MOL0     C14346  10.743   8.146   1.714 -0.1375  0.6314  0.4316
  867MOL0     O14347  10.883   8.132   1.747  0.7024  0.0255  0.0947
  867MOL0     C14348  10.980   8.205   1.684 -0.5433 -0.1785 -0.2696
  867MOL0     C14349  11.029   8.332   1.749 -0.0821  0.5689 -0.0746
  867MOL0     C14350  11.080   8.293   1.891  0.2944 -0.7759 -0.1857
  867MOL0     C14351  11.210   8.377   1.928  0.5469  0.4597  0.1749
  867MOL0     C14352  11.332   8.326   1.849  1.0080  0.5797  0.6996
  867MOL0     C14353  11.447   8.397   1.897 -0.6975  0.0189 -0.4236
  867MOL0     C14354  11.586   8.366   1.825 -0.6926  0.0138 -0.2854
  867MOL0     C14355  11.714   8.409   1.904  0.5970 -0.3495 -0.1332
  867MOL0    Cl14356  11.700   8.579   1.959 -0.0433  0.3011  0.1078
  867MOL0     C14357  10.692   8.272   1.684  0.3317 -0.0491 -0.2804
  867MOL0     C14358  10.558   8.290   1.656 -0.2457  0.2958  0.3507
  867MOL0     O14359  10.282   8.272   1.812 -0.2778 -0.0344  0.0423
  867MOL0     C14360  10.086   8.092   1.552  0.1355 -0.6130 -0.0617
  867MOL0     C14361   9.957   8.036   1.547 -0.4961  0.6446  0.2742
  867MOL0     N14362   9.299   7.699   1.877 -0.2648  0.2838 -0.8426
  867MOL0     N14363   9.374   7.632   1.960 -0.0847  0.5581  0.8635
  867MOL0     C14364  10.306   7.420   1.543  0.9325  0.3364  0.1425
  867MOL0     C14365  10.420   7.487   1.550 -0.8252  0.1715  1.3894
  867MOL0     C14366  10.800   7.703   1.484  0.5662 -0.3614  0.4616
  867MOL0     C14367  10.828   7.831   1.520  0.2580 -0.3321 -0.2641
  867MOL0     C14368  10.963   7.883   1.534  0.6181  0.0791 -0.0141
  867MOL0     C14369  11.074   7.796   1.502  0.7536 -0.3456  0.3053
  867MOL0     O14370  11.193   7.856   1.486 -0.0555  0.1950  0.0251
  867MOL0     C14371  11.304   7.766   1.467  0.4804  0.0982  0.5944
  867MOL0     C14372  11.435   7.849   1.469  0.1323  0.4538  0.7749
  867MOL0     C14373  11.455   7.924   1.597 -0.7261  0.7486 -0.4147
  867MOL0     C14374  11.583   8.001   1.581  0.8850  0.3713  0.9464
  867MOL0     C14375  11.673   8.011   1.697  1.1097 -0.3517  0.3144
  867MOL0     C14376  11.715   8.027   1.808 -0.4798 -0.5219 -0.6931
  867MOL0     C14377  11.036   7.657   1.479 -0.5171  0.6821 -0.5064
  867MOL0     C14378  10.910   7.613   1.468  1.0777  0.0558 -0.0137
  867MOL0     H14379  10.561   7.359   1.268 -2.4605 -1.6290 -1.7699
  867MOL0     H14380  10.359   7.216   1.279 -1.3909 -0.6558  0.0308
  867MOL0     H14381  10.082   7.363   1.282  0.3221 -0.9878 -0.1454
  867MOL0     H14382  10.042   7.408   1.451 -2.4746 -0.1755 -2.1052
  867MOL0     H14383   9.948   7.144   1.302  0.6061 -0.8605  1.0871
  867MOL0     H14384   9.852   7.288   1.311  0.0619  1.2848  0.1043
  867MOL0     H14385   9.941   7.167   1.568 -0.7434  0.5588  0.7208
  867MOL0     H14386   9.775   7.147   1.493  0.1019 -0.8415 -1.3219
  867MOL0     H14387   9.894   7.403   1.587  0.0866  1.4207  0.5358
  867MOL0     H14388   9.742   7.394   1.499  0.7074  0.9203  0.3074
  867MOL0     H14389   9.804   7.259   1.768 -1.9881  0.0337  1.2632
  867MOL0     H14390   9.651   7.250   1.684  1.4188 -2.6640 -0.0436
  867MOL0     H14391   9.619   7.489   1.698 -0.6570 -0.4427 -0.0663
  867MOL0     H14392   9.782   7.523   1.762 -0.9740  2.7564  0.7795
  867MOL0     H14393   9.543   7.388   1.911 -0.1255 -0.2368  1.5451
  867MOL0     H14394   9.713   7.376   1.965  1.6701  2.1546 -0.2133
  867MOL0     H14395   9.712   7.637   1.989  0.9860 -0.1064  3.0977
  867MOL0     H14396   9.596   7.547   2.090 -1.3009  0.7568  0.1027
  867MOL0     H14397   9.612   7.793   1.813  1.3458 -2.1262 -0.0572
  867MOL0     H14398   9.260   7.945   1.775  1.2204  1.4480 -0.5265
  867MOL0     H14399   9.280   7.844   1.628  1.4457 -0.6577 -0.8154
  867MOL0     H14400   9.502   8.003   1.743  0.0202  1.1289 -1.0397
  867MOL0     H14401   9.405   8.067   1.608 -2.6970 -0.9052  0.9194
  867MOL0     H14402   9.532   7.796   1.558  1.0907  0.9887  1.9179
  867MOL0     H14403   9.485   7.928   1.456 -3.8165 -1.7427  2.0083
  867MOL0     H14404   9.674   8.055   1.488  1.6693 -0.5761 -2.0303
  867MOL0     H14405   9.733   7.902   1.469  1.1479  2.5029 -0.8779
  867MOL0     H14406   9.850   8.106   1.860  0.1711  0.1344  0.3773
  867MOL0     H14407  10.046   8.211   1.874 -0.4789 -0.8738 -0.0739
  867MOL0     H14408  10.453   7.973   1.668 -1.8530  2.2979  1.2870
  867MOL0     H14409  10.681   7.931   1.735 -2.6942 -1.3956 -0.8521
  867MOL0     H14410  10.940   8.240   1.589 -1.7251  1.3055  0.7290
  867MOL0     H14411  11.072   8.147   1.669 -1.3032 -2.2611  2.2631
  867MOL0     H14412  10.952   8.409   1.765 -0.1947  0.9802 -2.3294
  867MOL0     H14413  11.107   8.372   1.684  2.3404 -1.7602  1.2258
  867MOL0     H14414  11.102   8.186   1.893  0.3237 -0.7731 -0.3463
  867MOL0     H14415  11.001   8.312   1.963  1.2606 -3.0901  1.6291
  867MOL0     H14416  11.203   8.486   1.921  2.6372  0.6032 -0.4292
  867MOL0     H14417  11.238   8.363   2.033  0.9399 -0.1819 -0.0080
  867MOL0     H14418  11.310   8.343   1.743  1.3177 -1.1004  0.3397
  867MOL0     H14419  11.349   8.218   1.854 -2.2974 -0.2744 -2.1707
  867MOL0     H14420  11.454   8.368   2.002 -1.1444 -4.6447 -1.4886
  867MOL0     H14421  11.443   8.506   1.896  2.9277  0.2716 -0.3370
  867MOL0     H14422  11.583   8.258   1.806 -3.8610 -0.5725  2.5732
  867MOL0     H14423  11.605   8.426   1.736  2.1303  0.5010  0.5325
  867MOL0     H14424  11.799   8.406   1.835 -0.6218 -0.0213 -1.7240
  867MOL0     H14425  11.716   8.336   1.985 -1.8264  0.5520  0.8214
  867MOL0     H14426  10.763   8.353   1.670  1.5202 -1.3610 -2.2716
  867MOL0     H14427  10.529   8.390   1.626  0.9623  1.2059  2.0088
  867MOL0     H14428  10.158   8.081   1.472  1.5666 -1.8821  1.3455
  867MOL0     H14429   9.936   7.982   1.455 -1.9422  2.8650 -0.8016
  867MOL0     H14430  10.222   7.441   1.609 -0.2941 -2.0294 -0.5727
  867MOL0     H14431  10.432   7.571   1.617 -2.3894  2.0102 -0.4644
  867MOL0     H14432  10.755   7.910   1.531  0.5647 -0.1555  0.6023
  867MOL0     H14433  10.981   7.989   1.549  1.5901 -0.0527 -0.1918
  867MOL0     H14434  11.300   7.721   1.367  2.3639 -0.1437  0.5987
  867MOL0     H14435  11.299   7.682   1.535  3.6076  1.3854  2.6152
  867MOL0     H14436  11.522   7.790   1.438 -1.0121  0.9429 -4.2941
  867MOL0     H14437  11.433   7.931   1.396  0.4451  0.3256  0.6190
  867MOL0     H14438  11.460   7.841   1.669  2.9569 -0.2646 -1.5887
  867MOL0     H14439  11.369   7.981   1.633 -0.7158 -0.5740  1.9094
  867MOL0     H14440  11.643   7.972   1.494 -0.7898  0.5778 -0.3299
  867MOL0     H14441  11.572   8.102   1.541 -0.3253 -1.1457 -3.0563
  867MOL0     H14442  11.748   8.045   1.908 -1.3852  0.2022 -0.4997
  867MOL0     H14443  11.107   7.580   1.451 -3.1111 -1.2571 -2.2273
  867MOL0     H14444  10.891   7.508   1.453 -0.4703  0.3315 -0.1604
  868MOL0     O14445   8.297   3.781   2.326  0.4511 -0.3582 -0.0116
  868MOL0     C14446   8.324   3.898   2.339  0.3667  0.3544  0.2549
  868MOL0     O14447   8.235   3.992   2.387  0.2476 -0.3202  1.0211
  868MOL0     C14448   8.099   3.980   2.365 -0.3768 -0.0422 -1.0375
  868MOL0     C14449   8.040   3.905   2.265  0.6264  1.0110  0.4525
  868MOL0     C14450   7.896   3.907   2.239  0.6447  0.4141 -0.3617
  868MOL0     C14451   7.813   3.972   2.331 -0.6637 -0.9795 -0.2356
  868MOL0     O14452   7.672   3.960   2.304 -0.0429 -0.9286 -1.0706
  868MOL0     C14453   7.579   4.000   2.406  0.1052 -0.1903 -0.3804
  868MOL0     C14454   7.434   3.996   2.353 -0.5328  0.0918  0.7132
  868MOL0     C14455   7.403   3.848   2.318 -1.0562 -1.1367 -0.0191
  868MOL0     C14456   7.259   3.847   2.252 -0.7107  0.0168 -0.0679
  868MOL0     C14457   7.185   3.714   2.277 -0.2034 -0.9093 -1.0118
  868MOL0     C14458   7.057   3.707   2.195 -0.2728 -0.0197 -0.5671
  868MOL0     C14459   6.989   3.569   2.219 -0.2935 -0.7905  0.5872
  868MOL0     C14460   6.842   3.573   2.169  1.9413 -0.1613  0.1598
  868MOL0     N14461   6.760   3.461   2.214  0.5391  0.0721  0.1207
  868MOL0     C14462   6.712   3.354   2.140  0.1570  0.2927 -1.0510
  868MOL0     C14463   6.659   3.256   2.221  0.5273  0.7069  0.1861
  868MOL0     C14464   6.574   3.135   2.181  0.3864 -0.2906  0.4431
  868MOL0     C14465   6.419   3.177   2.171 -0.7341  0.8254 -0.3185
  868MOL0     C14466   6.343   3.060   2.109  1.5700  0.4402 -0.8387
  868MOL0     C14467   6.197   3.097   2.114  0.1186  0.6097 -0.9003
  868MOL0     O14468   6.124   2.999   2.053 -0.1815  0.6688 -0.1319
  868MOL0     C14469   5.990   2.985   2.065 -0.6050 -0.3694 -0.4477
  868MOL0     C14470   5.932   2.859   2.038  1.5490 -0.2368  0.4371
  868MOL0     C14471   5.793   2.846   2.036 -0.1089 -0.7847  0.5802
  868MOL0     C14472   5.700   2.947   2.065 -0.0620 -0.1335  0.4555
  868MOL0     C14473   5.557   2.910   2.051 -0.9711  1.4758 -1.0982
  868MOL0     O14474   5.533   2.771   2.043  0.5753 -0.5866 -0.0228
  868MOL0     C14475   5.400   2.736   2.011  1.4788  0.0105  0.2318
  868MOL0     C14476   5.297   2.715   2.112 -0.9013  0.4816  0.0941
  868MOL0     C14477   5.174   2.638   2.087  0.1685 -0.0132 -0.7467
  868MOL0     C14478   5.144   2.589   1.958 -0.4090 -0.1021  0.5984
  868MOL0     O14479   5.044   2.504   1.926 -0.3428  0.5076  0.0673
  868MOL0     C14480   4.953   2.459   2.036  0.7168  0.2945  0.2324
  868MOL0     C14481   4.853   2.368   1.966 -0.4889 -0.4040 -0.2563
  868MOL0     C14482   4.922   2.258   1.883  0.1139  0.1407 -0.1390
  868MOL0     C14483   4.820   2.158   1.822 -0.7468  0.2948 -0.0088
  868MOL0     C14484   4.883   2.047   1.741  0.4999  0.4615 -0.2710
  868MOL0     C14485   4.775   1.959   1.680  0.2813 -0.5635  0.5369
  868MOL0     C14486   4.699   1.871   1.781  0.2028 -0.3503 -0.7325
  868MOL0     C14487   4.595   1.795   1.705  0.3885  0.2229  0.2436
  868MOL0    Cl14488   4.665   1.677   1.594 -0.3216  0.0995 -0.0768
  868MOL0     C14489   5.235   2.625   1.857  0.9189 -0.7107  0.5684
  868MOL0     C14490   5.359   2.696   1.883  0.7519  0.8939  0.1569
  868MOL0     O14491   5.479   3.001   2.039  0.1489 -0.1321  0.3460
  868MOL0     C14492   5.753   3.076   2.099  0.7018 -0.2922 -0.3797
  868MOL0     C14493   5.893   3.092   2.093 -0.0976  1.1795 -0.9277
  868MOL0     N14494   6.673   3.306   2.347 -0.4445 -0.4701 -0.0986
  868MOL0     N14495   6.734   3.430   2.344  0.3190 -0.8520 -0.1365
  868MOL0     C14496   7.875   4.043   2.437 -0.5223  0.7122 -0.5187
  868MOL0     C14497   8.014   4.040   2.456 -0.0151 -0.0069  0.6064
  868MOL0     C14498   8.466   3.939   2.347  0.2379  0.2656 -0.1400
  868MOL0     C14499   8.568   3.836   2.341  0.6932  0.7239  0.2588
  868MOL0     C14500   8.702   3.870   2.357  0.4495  0.9167  0.2626
  868MOL0     C14501   8.742   4.005   2.386 -0.1188 -1.0259 -0.3306
  868MOL0     O14502   8.875   4.041   2.392 -0.2999 -0.3489 -0.1400
  868MOL0     C14503   8.977   3.955   2.340 -0.7993  0.3156  0.4777
  868MOL0     C14504   9.026   3.845   2.439 -0.2149  0.4428 -0.6799
  868MOL0     C14505   9.120   3.741   2.380  0.4187 -0.1920 -0.2153
  868MOL0     C14506   9.249   3.788   2.336  0.0328 -0.0984  0.0549
  868MOL0     C14507   9.325   3.851   2.446 -0.2755  0.3882 -0.0028
  868MOL0     C14508   9.394   3.912   2.534  0.4383  0.2486 -1.2795
  868MOL0     C14509   8.645   4.100   2.388 -0.1583  1.2341  0.4384
  868MOL0     C14510   8.507   4.080   2.361 -0.0707  0.8911  0.7159
  868MOL0     H14511   8.108   3.859   2.195  0.0698  0.4758  0.2502
  868MOL0     H14512   7.841   3.846   2.169  0.6775 -0.4979  0.3845
  868MOL0     H14513   7.603   4.098   2.447 -1.5382 -0.2149  0.7398
  868MOL0     H14514   7.580   3.938   2.497 -2.0988  1.3343  0.7743
  868MOL0     H14515   7.435   4.061   2.265  0.4337  0.2487  0.8389
  868MOL0     H14516   7.359   4.045   2.416  1.3114  4.5726 -0.2346
  868MOL0     H14517   7.398   3.798   2.416 -2.4332 -0.5833  0.2223
  868MOL0     H14518   7.479   3.806   2.252  1.7066  0.4906  1.9111
  868MOL0     H14519   7.202   3.927   2.300 -0.7618 -0.5633  0.8784
  868MOL0     H14520   7.263   3.863   2.144 -1.0251  0.2317 -0.0499
  868MOL0     H14521   7.158   3.708   2.383  0.1917 -1.2332 -0.9270
  868MOL0     H14522   7.238   3.620   2.259  0.3788 -1.5227  3.0158
  868MOL0     H14523   7.078   3.720   2.089  0.4544 -0.4418 -0.4810
  868MOL0     H14524   6.987   3.787   2.221  0.5913 -0.0360  2.1630
  868MOL0     H14525   7.039   3.498   2.153 -1.0901 -1.1687  0.3800
  868MOL0     H14526   7.008   3.534   2.321  3.2325 -2.2500 -0.3975
  868MOL0     H14527   6.823   3.584   2.062  3.4850 -3.0188 -0.4960
  868MOL0     H14528   6.790   3.664   2.200  3.5356 -0.1967  3.3116
  868MOL0     H14529   6.712   3.335   2.033 -0.5963 -1.8739 -0.7190
  868MOL0     H14530   6.599   3.045   2.237 -0.7288 -0.3969  0.7978
  868MOL0     H14531   6.616   3.129   2.080  1.8264  1.7056  0.8685
  868MOL0     H14532   6.403   3.260   2.103  1.3125 -0.1434 -2.0913
  868MOL0     H14533   6.381   3.198   2.272 -3.4694  0.9776 -1.2983
  868MOL0     H14534   6.370   3.048   2.003 -2.6904 -1.7519 -1.8912
  868MOL0     H14535   6.356   2.964   2.160 -3.3679  0.4651  0.9482
  868MOL0     H14536   6.187   3.196   2.068 -0.4791  0.9644 -0.0388
  868MOL0     H14537   6.176   3.111   2.220  2.8795  0.0359 -0.2141
  868MOL0     H14538   5.992   2.773   2.011  0.4792 -1.6032  2.2054
  868MOL0     H14539   5.769   2.743   2.011  1.6632 -0.5740 -2.6257
  868MOL0     H14540   5.329   2.748   2.210 -4.3485  0.2737  1.4230
  868MOL0     H14541   5.115   2.633   2.178  0.7361  0.1334 -0.3601
  868MOL0     H14542   4.909   2.546   2.086  0.7209  0.4051  0.0445
  868MOL0     H14543   4.997   2.399   2.116 -0.5818  1.4123  1.8432
  868MOL0     H14544   4.789   2.418   1.893  0.5173 -4.0599 -4.0366
  868MOL0     H14545   4.799   2.325   2.051  4.3517 -3.1348  1.8482
  868MOL0     H14546   4.989   2.200   1.947  0.8150  0.7197 -0.3353
  868MOL0     H14547   4.980   2.308   1.806  0.7066  0.1010  0.2741
  868MOL0     H14548   4.756   2.120   1.902 -2.6539  1.5336 -0.8521
  868MOL0     H14549   4.754   2.217   1.757  0.1663  1.1721 -0.1643
  868MOL0     H14550   4.934   1.978   1.808 -1.1821  0.2359  0.8595
  868MOL0     H14551   4.953   2.089   1.669 -1.4440  2.1847 -1.2760
  868MOL0     H14552   4.830   1.881   1.626 -0.6442 -1.2189  0.5108
  868MOL0     H14553   4.713   2.018   1.612  1.5807  0.0241 -0.1600
  868MOL0     H14554   4.765   1.806   1.840 -1.5497  0.4003  2.2923
  868MOL0     H14555   4.649   1.952   1.835  1.2660  1.0731 -1.7794
  868MOL0     H14556   4.528   1.857   1.645 -1.0915  0.3803  1.9916
  868MOL0     H14557   4.528   1.744   1.774  0.4480  1.9090  1.6189
  868MOL0     H14558   5.213   2.593   1.756 -0.8586 -2.1104  1.3414
  868MOL0     H14559   5.433   2.692   1.804  1.1276 -0.4368  0.5487
  868MOL0     H14560   5.708   3.174   2.111  1.2636  0.3062 -2.7495
  868MOL0     H14561   5.926   3.189   2.128  0.9447 -0.2782  2.6307
  868MOL0     H14562   7.808   4.082   2.514  0.3181  1.5456 -0.1978
  868MOL0     H14563   8.058   4.070   2.551 -0.1432 -0.6454  0.8697
  868MOL0     H14564   8.553   3.730   2.328 -0.0314  0.3993  3.0338
  868MOL0     H14565   8.773   3.789   2.345 -0.6097 -0.6397  3.2413
  868MOL0     H14566   9.068   4.011   2.317 -1.9984  1.5518 -1.5395
  868MOL0     H14567   8.947   3.914   2.243  1.0464 -0.0334  0.0212
  868MOL0     H14568   9.081   3.890   2.522 -0.1338  1.6353 -1.3622
  868MOL0     H14569   8.935   3.797   2.477 -0.7634  1.6712 -0.3893
  868MOL0     H14570   9.073   3.699   2.290 -1.9359  3.5746 -0.9474
  868MOL0     H14571   9.128   3.661   2.454 -0.2206  2.3425  2.8093
  868MOL0     H14572   9.309   3.700   2.308 -0.3714  0.4833 -2.9989
  868MOL0     H14573   9.239   3.858   2.253  2.2065 -0.8697 -0.9593
  868MOL0     H14574   9.451   3.958   2.612 -2.7708 -0.1450  1.5781
  868MOL0     H14575   8.693   4.196   2.408 -0.1297  0.7270  3.2390
  868MOL0     H14576   8.431   4.156   2.352 -3.5926 -2.2259  1.6556
  869MOL0     O14577   9.743   0.650   8.516  0.3278 -0.0735 -0.3917
  869MOL0     C14578   9.801   0.562   8.460  0.5936  0.6404 -0.9695
  869MOL0     O14579   9.755   0.444   8.416 -0.3000  0.6469 -0.2260
  869MOL0     C14580   9.627   0.398   8.414 -0.5201  0.6515  0.4518
  869MOL0     C14581   9.531   0.456   8.334  0.2216 -0.1753 -0.4911
  869MOL0     C14582   9.398   0.408   8.333  0.1050  0.2912  0.0609
  869MOL0     C14583   9.358   0.316   8.435 -0.4388  0.6152  0.3487
  869MOL0     O14584   9.230   0.265   8.461  0.5412  0.1030 -0.4068
  869MOL0     C14585   9.123   0.312   8.383 -0.1838 -0.0585  0.0884
  869MOL0     C14586   8.997   0.235   8.440  0.0210 -0.2954 -0.6724
  869MOL0     C14587   8.955   0.303   8.577 -0.0659 -0.2306  0.0526
  869MOL0     C14588   8.819   0.249   8.623 -0.4521 -0.4823  0.1297
  869MOL0     C14589   8.762   0.302   8.754 -0.1329 -0.2544  0.0186
  869MOL0     C14590   8.659   0.218   8.810 -0.2043 -0.2255  0.1070
  869MOL0     C14591   8.580   0.288   8.925 -0.1526 -0.8344 -0.1814
  869MOL0     C14592   8.454   0.364   8.881  0.2972 -0.2211  0.2479
  869MOL0     N14593   8.366   0.405   8.994  0.3739 -0.1784 -0.2313
  869MOL0     C14594   8.353   0.537   9.036  0.8706  0.3775  0.3168
  869MOL0     C14595   8.254   0.535   9.130  0.0891 -0.7065  1.3989
  869MOL0     C14596   8.199   0.653   9.206  0.0358  0.5184 -0.1258
  869MOL0     C14597   8.068   0.711   9.151 -0.1362  0.2924 -1.1811
  869MOL0     C14598   7.951   0.622   9.199  0.6051  0.0429 -0.3941
  869MOL0     C14599   7.823   0.652   9.126 -0.7636 -0.6753  0.8177
  869MOL0     O14600   7.714   0.614   9.201  0.0252  0.2011 -0.6522
  869MOL0     C14601   7.585   0.637   9.158  0.0012  0.8077  0.0153
  869MOL0     C14602   7.474   0.607   9.243 -0.5149  0.4449  0.1776
  869MOL0     C14603   7.340   0.640   9.226 -0.1035 -0.1364 -0.6921
  869MOL0     C14604   7.310   0.702   9.103 -0.0025 -0.4121 -0.1563
  869MOL0     C14605   7.180   0.757   9.082 -0.1209  0.3449 -0.2410
  869MOL0     O14606   7.084   0.717   9.166 -0.1860  0.3717  0.8005
  869MOL0     C14607   6.957   0.774   9.165  0.0340 -0.5016  0.0174
  869MOL0     C14608   6.943   0.913   9.138 -0.2295  0.6246 -0.5034
  869MOL0     C14609   6.810   0.968   9.149 -0.1275  0.1143  0.9115
  869MOL0     C14610   6.700   0.886   9.171 -0.3333  0.0163 -0.0349
  869MOL0     O14611   6.576   0.938   9.194  0.0455 -0.6260 -0.2330
  869MOL0     C14612   6.527   1.018   9.083  0.1668 -0.4993  0.5574
  869MOL0     C14613   6.377   1.046   9.096 -0.6614 -0.8312  1.1964
  869MOL0     C14614   6.284   0.919   9.085 -0.6858  0.3140  0.2414
  869MOL0     C14615   6.131   0.949   9.057 -0.8730  0.3321 -0.2547
  869MOL0     C14616   6.057   0.815   9.054  0.1826  1.0017  0.2211
  869MOL0     C14617   5.904   0.830   9.080 -0.4537  0.1558 -1.0054
  869MOL0     C14618   5.850   0.693   9.100  0.0831  1.0804 -0.6086
  869MOL0     C14619   5.702   0.694   9.116  0.0413 -0.3425  0.0001
  869MOL0    Cl14620   5.644   0.538   9.187  0.4406 -0.1314 -0.0700
  869MOL0     C14621   6.724   0.754   9.198 -0.3707  0.3138 -0.6611
  869MOL0     C14622   6.848   0.697   9.196  0.9917 -0.3517 -0.5089
  869MOL0     O14623   7.168   0.837   8.989 -1.2521 -0.4683 -0.0391
  869MOL0     C14624   7.423   0.720   9.005  0.5436  0.7240 -0.8163
  869MOL0     C14625   7.557   0.692   9.042 -0.3117 -0.2029  0.5584
  869MOL0     N14626   8.215   0.407   9.145  0.0496  0.4580  0.0576
  869MOL0     N14627   8.278   0.330   9.070 -0.3058 -0.0067 -0.1440
  869MOL0     C14628   9.452   0.259   8.516  0.4777  0.2483  0.9656
  869MOL0     C14629   9.588   0.288   8.492  0.6791  1.2383 -0.8287
  869MOL0     C14630   9.954   0.582   8.443 -0.0987  0.7013  0.1846
  869MOL0     C14631  10.024   0.678   8.522 -0.3941 -0.1385 -0.5680
  869MOL0     C14632  10.161   0.690   8.506 -0.8407 -0.6999  0.0924
  869MOL0     C14633  10.232   0.618   8.415 -0.2598 -0.0803  0.2996
  869MOL0     O14634  10.359   0.643   8.406 -0.2031  0.6519 -0.3050
  869MOL0     C14635  10.432   0.572   8.308 -0.0421  0.0110 -0.6586
  869MOL0     C14636  10.569   0.643   8.307 -0.0705  0.2452 -1.0920
  869MOL0     C14637  10.654   0.610   8.431 -0.1773  0.8271  0.4955
  869MOL0     C14638  10.757   0.509   8.386  0.8096  0.4226 -1.0972
  869MOL0     C14639  10.875   0.581   8.345 -0.9632  0.2063  0.0052
  869MOL0     C14640  10.965   0.646   8.287  0.3729 -0.0449 -0.2802
  869MOL0     C14641  10.165   0.514   8.348 -0.3302  0.0961 -0.4323
  869MOL0     C14642  10.028   0.488   8.361  0.1749 -0.6048 -0.3455
  869MOL0     H14643   9.561   0.536   8.266  0.1311  0.2982  0.0217
  869MOL0     H14644   9.334   0.464   8.266  1.7003  0.5025 -1.3825
  869MOL0     H14645   9.129   0.276   8.279 -0.3222 -0.2553  0.1473
  869MOL0     H14646   9.111   0.421   8.387 -0.4463 -0.0657 -0.3736
  869MOL0     H14647   9.040   0.137   8.461  2.3966  0.9551  0.8166
  869MOL0     H14648   8.915   0.232   8.368  0.4810 -1.4418 -1.1712
  869MOL0     H14649   8.949   0.410   8.557 -2.0002  1.0083  5.4816
  869MOL0     H14650   9.022   0.285   8.662 -1.2940 -0.5609  0.9902
  869MOL0     H14651   8.737   0.275   8.555  0.6953  0.7689 -0.8368
  869MOL0     H14652   8.832   0.141   8.622  3.1327 -0.2370  2.8713
  869MOL0     H14653   8.729   0.405   8.739 -0.2091  0.0127  1.7876
  869MOL0     H14654   8.848   0.307   8.820 -0.8453  0.0024  0.9469
  869MOL0     H14655   8.687   0.117   8.840 -2.1389 -1.0781 -0.7948
  869MOL0     H14656   8.581   0.208   8.734  0.2098  0.8573 -0.4893
  869MOL0     H14657   8.534   0.204   8.977 -3.7568  1.5891  0.9158
  869MOL0     H14658   8.642   0.358   8.982  1.2693 -0.4041 -2.1232
  869MOL0     H14659   8.396   0.302   8.812  1.1556  0.5270 -1.1720
  869MOL0     H14660   8.478   0.453   8.822  1.9008  0.1370  1.3769
  869MOL0     H14661   8.397   0.627   8.995  0.1306  1.1510  1.1664
  869MOL0     H14662   8.274   0.733   9.211 -0.2522  0.7240  1.3163
  869MOL0     H14663   8.175   0.611   9.304 -1.5606 -0.9629 -1.0913
  869MOL0     H14664   8.078   0.712   9.042 -0.9824 -2.8997 -1.3983
  869MOL0     H14665   8.060   0.808   9.201  3.8025 -0.1243  0.6364
  869MOL0     H14666   7.983   0.518   9.189 -1.7962 -0.7502 -0.3981
  869MOL0     H14667   7.941   0.637   9.307  2.1464 -4.1399  0.5324
  869MOL0     H14668   7.815   0.601   9.029 -2.9367  1.1486 -0.0609
  869MOL0     H14669   7.819   0.758   9.102  4.9872 -0.1679  0.6777
  869MOL0     H14670   7.504   0.566   9.339  1.0245 -1.0855 -0.9123
  869MOL0     H14671   7.266   0.639   9.306  2.0579  0.4657  1.4331
  869MOL0     H14672   7.018   0.987   9.111 -2.2016  1.6824 -3.4876
  869MOL0     H14673   6.811   1.075   9.132  1.1012 -0.3168 -2.7138
  869MOL0     H14674   6.547   0.959   8.993 -1.9455 -0.8907  0.2832
  869MOL0     H14675   6.584   1.110   9.071 -0.7817 -0.1473 -1.9621
  869MOL0     H14676   6.346   1.109   9.012  4.7062  2.1354  1.0059
  869MOL0     H14677   6.353   1.088   9.194 -0.0341 -1.4785  1.6380
  869MOL0     H14678   6.298   0.869   9.182 -1.2261  0.6153  0.4807
  869MOL0     H14679   6.322   0.844   9.015 -3.8968 -0.7983 -0.4510
  869MOL0     H14680   6.105   1.020   9.137 -0.1681  0.0067  0.2853
  869MOL0     H14681   6.121   1.007   8.965  0.9903 -0.7297 -1.2042
  869MOL0     H14682   6.109   0.761   9.134  1.8316 -2.2765 -2.7955
  869MOL0     H14683   6.071   0.763   8.959 -0.7173  0.2138  0.5079
  869MOL0     H14684   5.856   0.882   8.997 -0.6007  0.3625 -0.7910
  869MOL0     H14685   5.886   0.887   9.172 -1.7194  1.1606 -1.8327
  869MOL0     H14686   5.863   0.635   9.008  1.4646  1.7100 -0.8446
  869MOL0     H14687   5.906   0.638   9.176  0.5107  1.1421 -0.8754
  869MOL0     H14688   5.655   0.696   9.018 -1.5473 -1.0888  0.7197
  869MOL0     H14689   5.676   0.782   9.175  0.6131  1.0800 -1.8104
  869MOL0     H14690   6.640   0.691   9.226 -0.7282  0.9135 -0.3474
  869MOL0     H14691   6.862   0.589   9.197  0.6544 -0.3896  0.4770
  869MOL0     H14692   7.390   0.760   8.910  0.7026  0.3299 -1.0426
  869MOL0     H14693   7.636   0.727   8.976  1.4826 -2.3090  1.4747
  869MOL0     H14694   9.412   0.185   8.584  0.5639 -0.7755 -0.0656
  869MOL0     H14695   9.661   0.238   8.555 -1.9301 -1.9988 -0.1445
  869MOL0     H14696   9.971   0.737   8.597  0.0837 -0.3059 -0.0943
  869MOL0     H14697  10.213   0.761   8.568 -0.7776 -2.1364  1.7759
  869MOL0     H14698  10.394   0.584   8.206 -0.2974  1.3390 -0.4248
  869MOL0     H14699  10.445   0.465   8.326  1.3695  0.4775  1.4081
  869MOL0     H14700  10.616   0.609   8.215 -2.2005 -1.0645 -1.7627
  869MOL0     H14701  10.567   0.751   8.288  3.5698  1.1844  2.3675
  869MOL0     H14702  10.606   0.571   8.520 -0.4431  1.0409  0.4476
  869MOL0     H14703  10.698   0.706   8.461 -1.7548  1.3489  1.2233
  869MOL0     H14704  10.784   0.448   8.473 -1.6498  2.8396  1.5778
  869MOL0     H14705  10.722   0.447   8.303 -1.0704 -0.4295  0.2617
  869MOL0     H14706  11.031   0.706   8.227 -0.1405 -1.5240 -2.4434
  869MOL0     H14707  10.231   0.459   8.282  3.1656  4.4846 -1.0653
  869MOL0     H14708   9.977   0.409   8.308  0.4680  0.9347 -3.1078
  870MOL0     O14709  10.545  10.484   5.428 -0.3222  0.0628  0.5160
  870MOL0     C14710  10.600  10.532   5.534 -0.9724 -0.9338 -0.8362
  870MOL0     O14711  10.541  10.599   5.635  0.0276 -0.4177 -0.4474
  870MOL0     C14712  10.412  10.630   5.613 -0.1063 -0.0815 -0.0359
  870MOL0     C14713  10.387  10.754   5.557 -0.0471  0.3058 -0.3746
  870MOL0     C14714  10.256  10.794   5.534 -0.7869 -0.1740 -0.6095
  870MOL0     C14715  10.149  10.715   5.561 -0.7356 -0.2483 -0.6754
  870MOL0     O14716  10.024  10.747   5.527 -0.0988 -0.5565 -0.2986
  870MOL0     C14717   9.924  10.781   5.631  0.0122  0.0321  0.3690
  870MOL0     C14718   9.824  10.673   5.625  0.0931 -0.3575 -0.0130
  870MOL0     C14719   9.717  10.724   5.722  0.7316  0.4915 -0.5567
  870MOL0     C14720   9.598  10.623   5.717  0.1818  0.1240  0.2627
  870MOL0     C14721   9.468  10.673   5.779  0.6472 -0.0037 -0.0877
  870MOL0     C14722   9.358  10.561   5.768  0.6129  0.1173 -0.8900
  870MOL0     C14723   9.225  10.606   5.836 -0.4721 -0.7189 -0.0338
  870MOL0     C14724   9.152  10.714   5.765 -0.8286  0.4942 -0.4192
  870MOL0     N14725   9.010  10.724   5.794  1.2051  0.1247 -0.2431
  870MOL0     C14726   8.931  10.618   5.760  0.1650  1.1330 -0.6457
  870MOL0     C14727   8.806  10.648   5.804  0.3659 -0.4373 -0.7215
  870MOL0     C14728   8.681  10.566   5.786 -0.0508 -0.5686 -0.0068
  870MOL0     C14729   8.592  10.613   5.658  0.2368  0.3139  0.5401
  870MOL0     C14730   8.459  10.550   5.644 -0.4178  1.2624 -0.8716
  870MOL0     C14731   8.361  10.597   5.526  0.3692  0.0892  0.3623
  870MOL0     O14732   8.254  10.506   5.518  0.3498 -0.3116  0.2889
  870MOL0     C14733   8.154  10.529   5.426 -0.2030 -0.8039  0.3152
  870MOL0     C14734   8.161  10.616   5.323  0.5663 -0.5006 -0.1645
  870MOL0     C14735   8.048  10.650   5.248  0.0827  0.3947  0.6335
  870MOL0     C14736   7.925  10.592   5.269  0.1601  0.0669 -0.9924
  870MOL0     C14737   7.807  10.627   5.185 -0.6833  0.6780  0.0728
  870MOL0     O14738   7.826  10.700   5.070  0.2950  0.5577  0.2770
  870MOL0     C14739   7.714  10.733   4.998  0.1935  0.7594  0.5486
  870MOL0     C14740   7.713  10.703   4.860 -1.5333 -0.4410  0.4945
  870MOL0     C14741   7.613  10.758   4.778  0.8137  0.2907 -0.2052
  870MOL0     C14742   7.506  10.838   4.826  0.3962  0.4817 -0.4465
  870MOL0     O14743   7.398  10.852   4.740  0.1339  0.2913  0.3559
  870MOL0     C14744   7.266  10.831   4.788 -0.1557 -0.2788  0.3695
  870MOL0     C14745   7.208  10.757   4.663 -0.0059  0.2787  0.1132
  870MOL0     C14746   7.056  10.732   4.665  0.2023 -0.3109 -0.8025
  870MOL0     C14747   7.012  10.609   4.593  1.1007  1.0144 -0.4123
  870MOL0     C14748   6.858  10.605   4.580  0.7764  0.2440 -0.0860
  870MOL0     C14749   6.803  10.460   4.569 -0.2350  0.0983 -0.5205
  870MOL0     C14750   6.863  10.377   4.446 -0.5235 -0.4853  0.8265
  870MOL0     C14751   6.798  10.244   4.422 -0.5841  0.3869  0.5198
  870MOL0    Cl14752   6.646  10.265   4.340 -0.0096 -0.9030 -0.2057
  870MOL0     C14753   7.504  10.860   4.961  0.4828  0.0746 -0.3983
  870MOL0     C14754   7.615  10.821   5.042 -0.4697  0.3183  0.1875
  870MOL0     O14755   7.703  10.596   5.227  0.5198  0.4028  0.1984
  870MOL0     C14756   7.918  10.496   5.374 -0.3282  0.2826 -0.1199
  870MOL0     C14757   8.038  10.457   5.437  0.3903  0.3988 -0.6559
  870MOL0     N14758   8.810  10.772   5.854  0.3814 -1.9382  0.5943
  870MOL0     N14759   8.933  10.818   5.853  0.1003  0.3087  0.5318
  870MOL0     C14760  10.172  10.586   5.600  0.0181 -0.7267  0.1701
  870MOL0     C14761  10.303  10.542   5.630 -0.1267 -0.0345  0.0641
  870MOL0     C14762  10.737  10.503   5.555  0.1185 -0.4010  0.0750
  870MOL0     C14763  10.815  10.463   5.446  0.4776 -0.8065  0.5401
  870MOL0     C14764  10.947  10.458   5.458  0.0397 -0.0202  0.4876
  870MOL0     C14765  11.014  10.480   5.582  0.3454 -0.3373 -0.3899
  870MOL0     O14766  11.148  10.460   5.593  0.7188  0.2527 -0.1015
  870MOL0     C14767  11.237  10.549   5.524  0.5523  0.0238 -1.3517
  870MOL0     C14768  11.270  10.663   5.620 -0.2099 -0.1221  1.0852
  870MOL0     C14769  11.347  10.631   5.742 -0.2055  0.7839  0.2541
  870MOL0     C14770  11.484  10.563   5.720 -0.6389 -0.3453  0.5639
  870MOL0     C14771  11.574  10.623   5.624  0.5199 -1.0215  0.3029
  870MOL0     C14772  11.647  10.653   5.536 -0.0166  0.5122  0.0221
  870MOL0     C14773  10.935  10.505   5.697 -0.2124  0.2356  0.5289
  870MOL0     C14774  10.799  10.527   5.676 -0.8113  0.8564  0.2891
  870MOL0     H14775  10.472  10.820   5.541 -1.3653  1.7373 -1.8101
  870MOL0     H14776  10.235  10.895   5.498  0.4355  0.1408 -0.4839
  870MOL0     H14777   9.875  10.868   5.587  0.7752  2.0687  3.2548
  870MOL0     H14778   9.960  10.811   5.729  1.6555 -0.1966 -0.1370
  870MOL0     H14779   9.853  10.575   5.664  1.9534 -0.1438 -0.7555
  870MOL0     H14780   9.789  10.664   5.522  4.0432 -0.7534 -1.4615
  870MOL0     H14781   9.690  10.829   5.711  1.4031  0.3908 -4.9180
  870MOL0     H14782   9.748  10.720   5.827 -4.5653 -2.5800  1.2889
  870MOL0     H14783   9.582  10.602   5.611  3.3330 -0.4789 -0.2078
  870MOL0     H14784   9.621  10.529   5.769 -0.3897  0.3369  0.9039
  870MOL0     H14785   9.436  10.764   5.726 -0.4782  0.1270  0.7635
  870MOL0     H14786   9.484  10.683   5.886 -0.6138  0.0008  0.1210
  870MOL0     H14787   9.399  10.468   5.809  0.4025 -1.5123 -4.0696
  870MOL0     H14788   9.339  10.542   5.663  1.2238  1.5223 -1.2876
  870MOL0     H14789   9.160  10.522   5.865 -0.8319 -0.7292 -0.8397
  870MOL0     H14790   9.249  10.637   5.938 -1.2951  0.2903 -0.1245
  870MOL0     H14791   9.165  10.697   5.657 -0.3184 -0.2078 -0.2570
  870MOL0     H14792   9.195  10.809   5.797 -0.2827 -1.0810  4.3887
  870MOL0     H14793   8.943  10.531   5.697 -3.5167  0.7959 -1.1280
  870MOL0     H14794   8.623  10.583   5.877 -1.6807 -0.4630 -1.0170
  870MOL0     H14795   8.716  10.462   5.787 -0.7318 -0.8270  2.1264
  870MOL0     H14796   8.637  10.582   5.563 -2.9795 -0.0232 -1.0275
  870MOL0     H14797   8.581  10.722   5.660 -1.2851  0.1624  1.5243
  870MOL0     H14798   8.469  10.441   5.642 -1.4683  1.1610 -1.6341
  870MOL0     H14799   8.417  10.576   5.741  0.0661  2.1907 -0.8985
  870MOL0     H14800   8.412  10.586   5.430  1.9047  2.6493  0.7875
  870MOL0     H14801   8.332  10.702   5.534  0.3979  0.0108  1.6538
  870MOL0     H14802   8.259  10.656   5.300 -0.1282  0.4435 -1.6413
  870MOL0     H14803   8.061  10.728   5.174 -1.9147  0.5185  0.3479
  870MOL0     H14804   7.806  10.656   4.829  2.1386  4.7579  2.3049
  870MOL0     H14805   7.607  10.738   4.672 -2.4478  0.7325 -0.1965
  870MOL0     H14806   7.230  10.931   4.813  2.2234  1.0033 -0.9761
  870MOL0     H14807   7.270  10.758   4.869 -0.1238 -0.7425 -0.0437
  870MOL0     H14808   7.266  10.665   4.652 -1.0796 -0.4384  0.3165
  870MOL0     H14809   7.233  10.812   4.572  3.4296  0.5575  1.0890
  870MOL0     H14810   7.002  10.817   4.624  0.9790  0.4687 -0.2358
  870MOL0     H14811   7.022  10.724   4.768  1.0656  1.8609 -0.2901
  870MOL0     H14812   7.059  10.623   4.495  0.5561  2.2914 -0.5039
  870MOL0     H14813   7.048  10.521   4.648 -0.8624  0.3276 -0.1737
  870MOL0     H14814   6.812  10.662   4.499 -2.1139 -0.9858  0.5625
  870MOL0     H14815   6.812  10.651   4.668  0.8770 -1.0983  0.6890
  870MOL0     H14816   6.694  10.469   4.566 -0.4672  2.3632  4.6180
  870MOL0     H14817   6.836  10.407   4.658  0.5194  2.0206  0.3843
  870MOL0     H14818   6.842  10.429   4.352 -1.9231 -1.8590  0.3431
  870MOL0     H14819   6.972  10.366   4.455 -0.5623 -1.8392 -0.1333
  870MOL0     H14820   6.774  10.190   4.513 -1.0433  1.8817  1.3098
  870MOL0     H14821   6.876  10.194   4.363  0.7050  1.4518  1.2699
  870MOL0     H14822   7.419  10.908   5.008 -0.3800  0.4341 -2.2520
  870MOL0     H14823   7.614  10.842   5.149 -0.2835  1.0102  0.0592
  870MOL0     H14824   7.829  10.442   5.402  0.9243 -0.2165  3.4801
  870MOL0     H14825   8.045  10.379   5.511  0.7608 -0.1894 -1.2981
  870MOL0     H14826  10.097  10.511   5.618  0.2263 -1.5310 -2.0062
  870MOL0     H14827  10.302  10.451   5.689 -2.9368  0.3875  0.8316
  870MOL0     H14828  10.771  10.423   5.355 -0.7419  3.9130 -1.2480
  870MOL0     H14829  11.016  10.438   5.376  1.1938  0.2867  1.3527
  870MOL0     H14830  11.185  10.593   5.438 -3.9710 -1.3971  0.3376
  870MOL0     H14831  11.321  10.495   5.479  0.4100 -0.8635 -0.5846
  870MOL0     H14832  11.310  10.747   5.562  0.6679 -2.2168 -1.5251
  870MOL0     H14833  11.172  10.699   5.653 -0.7730 -1.6134  1.1231
  870MOL0     H14834  11.273  10.578   5.803 -1.7681 -0.0432 -2.2121
  870MOL0     H14835  11.363  10.720   5.804 -0.1540  0.4205  0.7669
  870MOL0     H14836  11.540  10.559   5.814  1.2802 -3.1744 -0.5751
  870MOL0     H14837  11.464  10.461   5.687 -0.4452  0.0123 -0.7078
  870MOL0     H14838  11.727  10.667   5.467 -1.0715 -0.6927 -1.5281
  870MOL0     H14839  10.984  10.504   5.793 -0.9227 -1.3617  0.9080
  870MOL0     H14840  10.745  10.543   5.769  2.0979  0.1435  2.2280
  871MOL0     O14841   3.677   2.433   1.252 -0.0931  0.1327  0.2323
  871MOL0     C14842   3.655   2.444   1.371  0.8620  0.6147 -0.0739
  871MOL0     O14843   3.723   2.527   1.458  0.0244 -0.2746 -0.6339
  871MOL0     C14844   3.837   2.600   1.425  0.5391 -0.1016 -0.0469
  871MOL0     C14845   3.873   2.687   1.533 -0.6643 -0.8706  0.2479
  871MOL0     C14846   3.999   2.754   1.531 -0.3029 -0.4518 -0.1716
  871MOL0     C14847   4.086   2.742   1.413 -0.2271  0.4858 -0.1799
  871MOL0     O14848   4.192   2.827   1.401 -0.1688 -0.4801  0.0737
  871MOL0     C14849   4.288   2.813   1.294  0.5145  0.1607  0.2967
  871MOL0     C14850   4.389   2.921   1.312 -0.3417 -0.0207  0.1786
  871MOL0     C14851   4.468   2.911   1.447 -0.2214  0.0770  0.5994
  871MOL0     C14852   4.602   2.990   1.418 -0.5175 -0.2734  0.1041
  871MOL0     C14853   4.688   3.010   1.545  0.1424 -0.1813  0.6224
  871MOL0     C14854   4.798   3.123   1.535 -0.5864 -0.0392 -1.0024
  871MOL0     C14855   4.899   3.102   1.643  0.5834  0.9472  0.2124
  871MOL0     C14856   5.027   3.046   1.594 -0.2166  1.0245  0.6403
  871MOL0     N14857   5.014   2.906   1.549 -0.9504 -0.1954  0.4490
  871MOL0     C14858   4.971   2.812   1.633 -0.3192 -0.0705 -0.1519
  871MOL0     C14859   4.964   2.704   1.550 -0.0173  0.6223 -0.1323
  871MOL0     C14860   4.918   2.564   1.598  0.4978  0.3429 -0.5509
  871MOL0     C14861   4.848   2.487   1.488  0.0007  0.2683  0.0646
  871MOL0     C14862   4.702   2.522   1.453 -0.2872 -0.4315  0.0029
  871MOL0     C14863   4.620   2.545   1.574  1.5904 -0.4359 -0.2167
  871MOL0     O14864   4.475   2.536   1.537  0.1742 -0.0928  0.4295
  871MOL0     C14865   4.415   2.409   1.538 -0.4870 -0.8599 -0.3593
  871MOL0     C14866   4.471   2.281   1.580 -0.2522 -0.5508  0.8239
  871MOL0     C14867   4.393   2.174   1.569  0.5690 -0.0293  0.5602
  871MOL0     C14868   4.272   2.171   1.510  0.4721 -0.6534 -0.6352
  871MOL0     C14869   4.190   2.054   1.504  0.5408 -0.4205 -0.5552
  871MOL0     O14870   4.054   2.066   1.517  0.6628 -0.3327  0.4044
  871MOL0     C14871   3.965   1.964   1.547  0.3370 -0.5157 -0.4815
  871MOL0     C14872   3.991   1.838   1.578 -0.2315  0.8963 -0.8865
  871MOL0     C14873   3.894   1.739   1.612 -0.4655  0.3575  0.4202
  871MOL0     C14874   3.760   1.774   1.595  0.2027 -0.0480 -0.2556
  871MOL0     O14875   3.642   1.699   1.610 -0.9482  0.0449  0.3879
  871MOL0     C14876   3.647   1.561   1.564 -0.5793 -0.4015 -0.5004
  871MOL0     C14877   3.518   1.511   1.635  0.6778 -0.4944 -0.2305
  871MOL0     C14878   3.391   1.596   1.615 -0.4011  0.2087  0.1040
  871MOL0     C14879   3.256   1.553   1.678 -0.0219 -0.5164  1.1787
  871MOL0     C14880   3.246   1.569   1.828 -0.4245 -0.3849  0.0826
  871MOL0     C14881   3.141   1.479   1.887  0.4191 -0.1852  0.5149
  871MOL0     C14882   3.141   1.500   2.040 -0.1076 -0.0071 -0.1885
  871MOL0     C14883   3.092   1.362   2.096  0.9534  0.0907 -0.0548
  871MOL0    Cl14884   3.062   1.395   2.267 -0.1622  0.0047  0.0311
  871MOL0     C14885   3.724   1.914   1.568 -0.6691 -0.0674 -0.4240
  871MOL0     C14886   3.832   2.007   1.549  0.0572 -0.0387  0.0270
  871MOL0     O14887   4.251   1.953   1.482  0.5989 -0.2632 -0.7184
  871MOL0     C14888   4.215   2.289   1.451 -0.2046  0.7462  0.3375
  871MOL0     C14889   4.283   2.410   1.475  0.9509  0.6108  0.2115
  871MOL0     N14890   4.994   2.744   1.418  0.9786  0.3759 -0.0187
  871MOL0     N14891   5.036   2.861   1.424 -0.7258 -0.2430 -0.0186
  871MOL0     C14892   4.038   2.673   1.307  0.2448  0.4873  0.0820
  871MOL0     C14893   3.921   2.598   1.317 -0.0954  0.5651  0.4955
  871MOL0     C14894   3.546   2.356   1.429 -0.1571 -0.3236 -0.3626
  871MOL0     C14895   3.491   2.380   1.554  0.0944 -0.3723  0.7376
  871MOL0     C14896   3.386   2.307   1.598 -0.6874  0.4053  0.0376
  871MOL0     C14897   3.337   2.202   1.518 -0.4011  0.0499 -0.1334
  871MOL0     O14898   3.246   2.118   1.579  0.9522 -0.1330 -0.3394
  871MOL0     C14899   3.220   1.978   1.544 -0.2695 -0.0061  0.1589
  871MOL0     C14900   3.152   1.890   1.651 -0.5563  0.5656 -0.6971
  871MOL0     C14901   3.038   1.953   1.725 -0.6200 -0.4823 -0.0437
  871MOL0     C14902   2.980   1.875   1.837  0.1752 -0.3375 -0.0824
  871MOL0     C14903   2.863   1.941   1.895  1.1963 -1.3909  0.1485
  871MOL0     C14904   2.770   1.998   1.945 -0.7239 -0.4684 -1.1086
  871MOL0     C14905   3.385   2.187   1.390 -0.1214  0.0067 -0.1538
  871MOL0     C14906   3.492   2.264   1.348  0.6179  0.7763 -0.2853
  871MOL0     H14907   3.806   2.701   1.617 -1.5855  3.3091 -1.0019
  871MOL0     H14908   4.036   2.821   1.608  1.0261 -1.8994  0.5195
  871MOL0     H14909   4.255   2.823   1.190  1.9052  3.7235  0.0399
  871MOL0     H14910   4.331   2.713   1.301  0.2841  0.0866  0.6672
  871MOL0     H14911   4.335   3.015   1.298 -1.6745 -1.0824 -2.6518
  871MOL0     H14912   4.460   2.926   1.228 -0.4901  1.0668  0.1146
  871MOL0     H14913   4.490   2.808   1.477 -4.1007 -0.3346  2.7800
  871MOL0     H14914   4.409   2.953   1.530  0.3839  0.3524  0.8953
  871MOL0     H14915   4.654   2.947   1.333  1.8058  0.8774  0.8474
  871MOL0     H14916   4.573   3.089   1.382 -0.2037 -0.3045 -0.2437
  871MOL0     H14917   4.735   2.914   1.570  1.5663  0.3794  0.2330
  871MOL0     H14918   4.624   3.028   1.631 -1.2483 -3.3647  0.4272
  871MOL0     H14919   4.752   3.221   1.549  0.4348  0.2494  0.6201
  871MOL0     H14920   4.852   3.120   1.441  0.6275 -1.0724 -0.3087
  871MOL0     H14921   4.917   3.195   1.698 -3.9209 -0.7512  5.5753
  871MOL0     H14922   4.851   3.055   1.729 -0.6221  2.1442  0.2374
  871MOL0     H14923   5.099   3.045   1.677 -0.0720 -0.4677  0.5223
  871MOL0     H14924   5.077   3.108   1.520  0.8694 -0.2086  0.3040
  871MOL0     H14925   4.947   2.820   1.739  2.6692 -1.3544  0.7138
  871MOL0     H14926   4.850   2.573   1.683 -0.4320  1.1629 -1.3561
  871MOL0     H14927   5.003   2.508   1.639  0.2387  0.2534 -0.1211
  871MOL0     H14928   4.848   2.386   1.530 -0.5436 -0.1820 -0.9860
  871MOL0     H14929   4.908   2.475   1.397 -2.6378 -2.6921 -1.4834
  871MOL0     H14930   4.693   2.614   1.394 -1.2400  0.4676  1.4865
  871MOL0     H14931   4.655   2.446   1.389 -0.0354  0.6145 -1.4820
  871MOL0     H14932   4.645   2.648   1.601 -2.0078  0.4971  0.0824
  871MOL0     H14933   4.644   2.472   1.652  0.9668  0.0598  0.4630
  871MOL0     H14934   4.568   2.275   1.628  0.2005  1.4599  0.2373
  871MOL0     H14935   4.432   2.076   1.596  0.2608 -0.1330  0.6422
  871MOL0     H14936   4.093   1.802   1.582 -0.8122 -0.7725  0.4307
  871MOL0     H14937   3.931   1.642   1.643  0.6967 -0.2385 -2.5154
  871MOL0     H14938   3.732   1.510   1.609  0.4634 -0.9698 -2.9521
  871MOL0     H14939   3.643   1.561   1.455 -0.7438  1.4845 -0.5200
  871MOL0     H14940   3.542   1.501   1.741 -1.5565 -2.0681  0.2182
  871MOL0     H14941   3.491   1.409   1.605  1.0178 -0.5561 -0.3245
  871MOL0     H14942   3.380   1.602   1.506  0.3435 -0.2709 -0.0004
  871MOL0     H14943   3.410   1.698   1.649  0.6744  0.3700 -0.9035
  871MOL0     H14944   3.170   1.601   1.630  1.2781 -0.2854 -1.0578
  871MOL0     H14945   3.255   1.445   1.662  0.7814 -0.3536 -0.1283
  871MOL0     H14946   3.241   1.673   1.861  1.9857  0.3159 -1.4476
  871MOL0     H14947   3.347   1.542   1.862  0.8880  2.9983 -0.6980
  871MOL0     H14948   3.157   1.373   1.862  1.2367  0.2861 -1.1107
  871MOL0     H14949   3.046   1.514   1.846  2.3698  3.4993 -1.3239
  871MOL0     H14950   3.246   1.510   2.068  1.2437 -2.4578 -3.6052
  871MOL0     H14951   3.078   1.582   2.074  2.3622  1.6521  0.6533
  871MOL0     H14952   3.166   1.284   2.077 -1.2822 -2.6607  1.6794
  871MOL0     H14953   3.000   1.332   2.046  2.7437 -0.8273 -3.0495
  871MOL0     H14954   3.623   1.952   1.559  0.2674  2.7625 -0.0679
  871MOL0     H14955   3.806   2.109   1.521 -0.6641 -0.4336 -0.8173
  871MOL0     H14956   4.113   2.294   1.415  0.1930  2.8252 -0.6575
  871MOL0     H14957   4.238   2.506   1.452 -1.9294 -0.5799  0.3704
  871MOL0     H14958   4.099   2.671   1.217  0.6375  3.5477  0.1783
  871MOL0     H14959   3.902   2.541   1.227 -0.9527  1.8776 -0.1912
  871MOL0     H14960   3.529   2.453   1.624  1.6711 -0.7516  0.3167
  871MOL0     H14961   3.342   2.324   1.696 -2.0337  0.2164 -0.5177
  871MOL0     H14962   3.315   1.936   1.508  0.2140  0.1905  1.1703
  871MOL0     H14963   3.154   1.973   1.456  0.6138  0.1841 -0.5292
  871MOL0     H14964   3.114   1.799   1.605 -1.0043 -0.5725  1.7370
  871MOL0     H14965   3.233   1.875   1.723 -0.2976  3.3410 -0.2831
  871MOL0     H14966   2.959   1.968   1.651 -0.9913  0.0245  0.4369
  871MOL0     H14967   3.064   2.049   1.771 -3.5748  1.7358 -2.5506
  871MOL0     H14968   2.955   1.774   1.801 -0.2164  0.1901 -1.3501
  871MOL0     H14969   3.050   1.864   1.920 -0.0437  1.0320  0.2978
  871MOL0     H14970   2.684   2.050   1.982  0.3584  0.4386  0.2324
  871MOL0     H14971   3.349   2.109   1.323 -1.2036 -2.1998  2.7668
  871MOL0     H14972   3.520   2.246   1.245 -0.1964 -1.9746 -0.0983
  872MOL0     O14973   4.120   4.526   4.313 -0.1646  0.0457 -0.1845
  872MOL0     C14974   4.061   4.592   4.223 -0.2569  0.5833 -0.9258
  872MOL0     O14975   3.925   4.628   4.220  0.2290  0.5154  0.3452
  872MOL0     C14976   3.828   4.579   4.308 -1.3832  0.0060  0.3644
  872MOL0     C14977   3.692   4.570   4.263 -0.2658 -0.2889 -0.4313
  872MOL0     C14978   3.592   4.532   4.350  0.1746  0.0010  0.0570
  872MOL0     C14979   3.617   4.491   4.484 -0.1620  0.3735  0.0829
  872MOL0     O14980   3.527   4.423   4.565  0.0983 -0.0723  0.0084
  872MOL0     C14981   3.403   4.388   4.494 -0.0837  0.2283  1.1214
  872MOL0     C14982   3.292   4.350   4.593  0.1368  1.0582 -0.4858
  872MOL0     C14983   3.323   4.208   4.653  0.0623 -0.3890  0.0187
  872MOL0     C14984   3.233   4.185   4.776 -1.3691 -0.4438 -0.1428
  872MOL0     C14985   3.295   4.066   4.862 -0.0166  0.7430 -0.0295
  872MOL0     C14986   3.281   3.939   4.768  0.2555 -0.4148  0.3482
  872MOL0     C14987   3.287   3.806   4.842  0.1763  0.2104  0.6835
  872MOL0     C14988   3.254   3.684   4.755  0.5230 -0.3746  0.8518
  872MOL0     N14989   3.267   3.565   4.844 -0.3468  0.3130  0.8532
  872MOL0     C14990   3.171   3.494   4.900 -0.1667  0.5408 -0.3331
  872MOL0     C14991   3.228   3.397   4.976 -0.0528 -1.0457  0.0675
  872MOL0     C14992   3.149   3.280   5.039  0.1884 -0.0406  0.8084
  872MOL0     C14993   3.136   3.156   4.951 -0.2987 -0.3178 -0.1211
  872MOL0     C14994   3.043   3.175   4.826  0.4483  0.0954 -0.0215
  872MOL0     C14995   2.900   3.195   4.840  0.5011  0.0836 -0.3007
  872MOL0     O14996   2.851   3.123   4.954  0.5130  0.3175 -0.2573
  872MOL0     C14997   2.713   3.105   4.969  0.3541  0.3531  0.1055
  872MOL0     C14998   2.622   3.081   4.867 -0.5884 -0.4622  0.0658
  872MOL0     C14999   2.492   3.048   4.892 -0.2181 -0.2657 -0.3948
  872MOL0     C15000   2.444   3.056   5.022  0.0178  0.6956 -0.0983
  872MOL0     C15001   2.301   3.033   5.055 -0.5823 -0.1810 -0.5706
  872MOL0     O15002   2.283   2.975   5.183 -0.3324  0.6824 -0.1539
  872MOL0     C15003   2.153   2.942   5.209  0.5492  0.3308  0.1279
  872MOL0     C15004   2.084   3.021   5.299 -0.1066  0.7340  0.0009
  872MOL0     C15005   1.954   3.000   5.333  0.2286 -0.1593 -0.4215
  872MOL0     C15006   1.880   2.903   5.265 -1.2251  0.0673  0.1335
  872MOL0     O15007   1.748   2.876   5.269 -0.4435  0.1471 -0.2379
  872MOL0     C15008   1.679   2.908   5.391 -0.7909  0.1471  0.2273
  872MOL0     C15009   1.550   2.833   5.391  0.8352 -0.0889  0.6512
  872MOL0     C15010   1.573   2.697   5.437  0.2628  0.8595 -0.0171
  872MOL0     C15011   1.458   2.608   5.431 -0.3771  0.0532  0.0180
  872MOL0     C15012   1.485   2.462   5.484  0.5652 -0.6799  0.1560
  872MOL0     C15013   1.358   2.376   5.486 -0.2606  0.5203  0.3180
  872MOL0     C15014   1.324   2.321   5.352  0.0664 -0.4937  0.7864
  872MOL0     C15015   1.187   2.253   5.358  0.0474  0.3963  0.2065
  872MOL0    Cl15016   1.141   2.174   5.206  0.2570 -0.5379  0.2612
  872MOL0     C15017   1.944   2.826   5.165  0.0416 -0.4530  0.8791
  872MOL0     C15018   2.084   2.840   5.132  0.0457 -0.0125 -0.3900
  872MOL0     O15019   2.211   3.053   4.974  0.2553 -0.3407  0.8204
  872MOL0     C15020   2.527   3.086   5.130 -0.3586  0.5370  0.2304
  872MOL0     C15021   2.669   3.099   5.100  1.1282  0.1955 -0.5582
  872MOL0     N15022   3.368   3.415   4.957 -0.2383  0.1443  0.1284
  872MOL0     N15023   3.388   3.519   4.885 -0.6814  0.1384 -0.1381
  872MOL0     C15024   3.745   4.508   4.531 -0.3761 -0.2219  0.0404
  872MOL0     C15025   3.850   4.562   4.448 -0.5434  0.1392 -0.9261
  872MOL0     C15026   4.132   4.614   4.100 -0.5395  0.4174 -0.0340
  872MOL0     C15027   4.267   4.582   4.077 -0.1785  0.8888  0.4485
  872MOL0     C15028   4.329   4.614   3.952  0.3025  0.2666 -0.5519
  872MOL0     C15029   4.258   4.641   3.838 -0.1866  0.0192 -0.4516
  872MOL0     O15030   4.319   4.652   3.719  0.1497 -0.2227  0.0941
  872MOL0     C15031   4.341   4.790   3.674 -0.2053 -0.1622  0.3492
  872MOL0     C15032   4.475   4.777   3.589 -0.4410 -0.2471  0.3456
  872MOL0     C15033   4.516   4.914   3.513  0.3671 -0.3075 -0.3831
  872MOL0     C15034   4.652   4.917   3.455  0.0866  0.0006 -0.0978
  872MOL0     C15035   4.659   4.842   3.327  0.4392 -0.5339 -0.4133
  872MOL0     C15036   4.657   4.781   3.226 -0.6022  0.2359 -0.4033
  872MOL0     C15037   4.120   4.663   3.854 -0.1111  0.0925 -0.0247
  872MOL0     C15038   4.060   4.649   3.984 -0.6061  0.0430  0.5628
  872MOL0     H15039   3.670   4.577   4.157 -0.6926  1.4088 -0.2730
  872MOL0     H15040   3.494   4.528   4.303  0.0218  0.3786  0.3346
  872MOL0     H15041   3.426   4.315   4.416 -1.4027  0.4385  0.5097
  872MOL0     H15042   3.347   4.463   4.437 -3.6634 -2.6483  0.4694
  872MOL0     H15043   3.196   4.332   4.545 -0.7079 -0.2970  1.5954
  872MOL0     H15044   3.292   4.434   4.663 -0.9864 -0.3526  1.2842
  872MOL0     H15045   3.429   4.202   4.678  0.6641  1.2171 -1.8852
  872MOL0     H15046   3.304   4.134   4.575 -0.4237  1.2945 -1.5477
  872MOL0     H15047   3.222   4.278   4.834 -0.2928 -0.9233  0.8741
  872MOL0     H15048   3.132   4.157   4.747 -1.3455  1.5226 -2.5074
  872MOL0     H15049   3.240   4.043   4.954 -0.1615 -0.6949 -0.4419
  872MOL0     H15050   3.400   4.083   4.885 -0.1039  1.2325  0.0194
  872MOL0     H15051   3.355   3.942   4.688 -0.6277 -1.3792 -0.5260
  872MOL0     H15052   3.188   3.935   4.710 -0.0930  3.1494  0.3839
  872MOL0     H15053   3.393   3.801   4.870  0.8058  0.1486 -1.5502
  872MOL0     H15054   3.229   3.807   4.935 -1.6558  1.7907 -0.4059
  872MOL0     H15055   3.320   3.671   4.668 -1.4931 -3.8175 -0.3303
  872MOL0     H15056   3.151   3.688   4.719  1.3970  1.6914 -1.7552
  872MOL0     H15057   3.065   3.512   4.880 -0.2260  0.2242 -0.3057
  872MOL0     H15058   3.046   3.309   5.063  0.5330  2.0012  0.0656
  872MOL0     H15059   3.204   3.248   5.128  1.6899  5.2931  2.1749
  872MOL0     H15060   3.101   3.071   5.011 -2.6076  1.4316  1.1890
  872MOL0     H15061   3.241   3.130   4.934 -0.0237 -0.8574  2.0443
  872MOL0     H15062   3.086   3.264   4.778  0.6068  1.3734  2.3648
  872MOL0     H15063   3.063   3.090   4.760  1.1572  1.7206 -2.0319
  872MOL0     H15064   2.846   3.165   4.749 -3.5545  0.3584  1.8198
  872MOL0     H15065   2.896   3.304   4.844  0.9773  0.4744 -4.7342
  872MOL0     H15066   2.660   3.079   4.765 -0.1152 -3.3329  0.2192
  872MOL0     H15067   2.419   3.031   4.813  0.5141 -3.3508 -0.4956
  872MOL0     H15068   2.143   3.107   5.332  0.0539  0.8459 -0.5682
  872MOL0     H15069   1.904   3.065   5.405  1.8696 -0.4463  1.0572
  872MOL0     H15070   1.649   3.013   5.379  0.7118  0.4278 -1.6369
  872MOL0     H15071   1.739   2.883   5.479 -2.1277 -2.1727  0.5417
  872MOL0     H15072   1.489   2.830   5.300  0.5535 -1.1493  0.8590
  872MOL0     H15073   1.471   2.876   5.453 -0.6548  2.4972 -2.6657
  872MOL0     H15074   1.604   2.694   5.542 -1.5351  1.2852  0.5554
  872MOL0     H15075   1.656   2.657   5.379 -0.4847 -1.2893  0.3115
  872MOL0     H15076   1.367   2.652   5.471 -1.4599  0.0863 -2.3280
  872MOL0     H15077   1.437   2.604   5.323  0.5637  0.9921 -0.2178
  872MOL0     H15078   1.534   2.465   5.582  0.2269 -0.2946  0.3204
  872MOL0     H15079   1.563   2.410   5.428  1.1537 -1.0745  1.3160
  872MOL0     H15080   1.273   2.426   5.532 -0.8939  0.5229 -0.7983
  872MOL0     H15081   1.376   2.295   5.557 -1.4517  2.7274  3.3121
  872MOL0     H15082   1.320   2.403   5.280 -1.0854 -1.4021 -0.2360
  872MOL0     H15083   1.392   2.240   5.324 -1.4734 -1.8980  0.9896
  872MOL0     H15084   1.114   2.327   5.392  0.3863  1.1812 -0.7383
  872MOL0     H15085   1.191   2.179   5.439  1.7231 -1.7985 -1.7465
  872MOL0     H15086   1.887   2.749   5.113 -1.9392 -0.7105  3.2279
  872MOL0     H15087   2.136   2.779   5.059 -0.8770  0.5477 -1.5494
  872MOL0     H15088   2.494   3.102   5.232 -1.0723 -1.9316  0.4565
  872MOL0     H15089   2.740   3.127   5.178 -0.8541  0.8122  1.1310
  872MOL0     H15090   3.777   4.476   4.630  0.9619  1.6558  0.2710
  872MOL0     H15091   3.953   4.564   4.483 -0.6343 -0.7979 -0.5709
  872MOL0     H15092   4.333   4.539   4.153  1.3592  0.5754 -1.0052
  872MOL0     H15093   4.436   4.594   3.952  0.0489 -1.7684  2.2798
  872MOL0     H15094   4.354   4.855   3.761  1.4500  1.1484 -0.8071
  872MOL0     H15095   4.261   4.828   3.611 -0.1860 -1.7956 -0.7201
  872MOL0     H15096   4.559   4.742   3.649  0.9580  1.1783 -0.7031
  872MOL0     H15097   4.457   4.692   3.522  1.9372 -1.5711  1.2629
  872MOL0     H15098   4.519   4.994   3.587  1.1833 -2.1263  1.6597
  872MOL0     H15099   4.433   4.942   3.447 -1.3288  0.1677  1.8047
  872MOL0     H15100   4.688   5.015   3.424 -3.3728  0.8052 -2.1425
  872MOL0     H15101   4.723   4.866   3.520  0.5853  0.9102  0.0912
  872MOL0     H15102   4.678   4.710   3.148  1.9713  2.8836 -2.3221
  872MOL0     H15103   4.056   4.691   3.771 -0.8476  0.0437  0.5091
  872MOL0     H15104   3.954   4.673   3.991 -0.3711  1.5707 -0.5150
  873MOL0     O15105   5.825  11.102   5.234  0.7441 -0.0073 -0.8963
  873MOL0     C15106   5.890  11.149   5.326 -0.5227  0.4713  0.7065
  873MOL0     O15107   5.838  11.191   5.448  0.2961 -0.3390 -0.1576
  873MOL0     C15108   5.703  11.163   5.463  0.3469  0.2617  0.3255
  873MOL0     C15109   5.597  11.253   5.450  0.6111 -0.1045 -0.3234
  873MOL0     C15110   5.462  11.218   5.480  0.2287 -0.8937  0.0181
  873MOL0     C15111   5.430  11.084   5.502  0.2518 -0.3398  0.1486
  873MOL0     O15112   5.305  11.032   5.513  0.2628 -0.1607  0.0342
  873MOL0     C15113   5.194  11.122   5.521 -0.8278  0.1791  0.2774
  873MOL0     C15114   5.066  11.054   5.573 -0.6168 -1.0477  1.2868
  873MOL0     C15115   4.960  11.161   5.597 -0.9228  0.2868  0.2039
  873MOL0     C15116   4.841  11.108   5.666  0.1431 -0.7726 -0.2787
  873MOL0     C15117   4.839  11.088   5.825  0.2802  0.3707  0.2645
  873MOL0     C15118   4.708  11.051   5.896  0.3821 -0.5619  0.1448
  873MOL0     C15119   4.744  11.036   6.043  0.6202 -0.8125 -0.2895
  873MOL0     C15120   4.623  10.987   6.138  0.1241 -0.0539  0.1172
  873MOL0     N15121   4.614  10.839   6.130 -0.5797  1.0689  0.4382
  873MOL0     C15122   4.703  10.744   6.188  0.5729 -0.2842 -0.0634
  873MOL0     C15123   4.660  10.629   6.136 -0.1268 -0.2195  0.1197
  873MOL0     C15124   4.714  10.501   6.186  0.2521  0.9572  0.3034
  873MOL0     C15125   4.646  10.454   6.324  0.5655 -0.6277  0.4771
  873MOL0     C15126   4.495  10.412   6.315 -0.1594  0.1900  0.4029
  873MOL0     C15127   4.452  10.330   6.440 -0.6827 -0.0844 -0.0173
  873MOL0     O15128   4.437  10.426   6.555  0.0416 -0.3179 -0.4861
  873MOL0     C15129   4.314  10.476   6.602 -0.4346  0.6218  0.8367
  873MOL0     C15130   4.311  10.548   6.717 -0.1142  0.1290  0.1586
  873MOL0     C15131   4.189  10.572   6.780 -0.3373 -0.3313  0.8199
  873MOL0     C15132   4.065  10.533   6.723 -0.2989 -0.2330 -0.4259
  873MOL0     C15133   3.931  10.563   6.784 -0.0974  0.5405 -0.4050
  873MOL0     O15134   3.921  10.557   6.914 -0.3624 -0.3650  0.7421
  873MOL0     C15135   3.793  10.550   6.963 -0.0096  0.0786 -0.0329
  873MOL0     C15136   3.752  10.643   7.058  0.0613 -0.1976 -1.1648
  873MOL0     C15137   3.619  10.639   7.114  0.0122 -0.1638 -0.3163
  873MOL0     C15138   3.531  10.534   7.074  0.1489 -0.2334  0.4013
  873MOL0     O15139   3.416  10.529   7.145  0.1995 -0.2136  0.3345
  873MOL0     C15140   3.322  10.414   7.131 -0.9531  0.0410 -0.0594
  873MOL0     C15141   3.211  10.414   7.238 -0.6628 -0.0765  0.4587
  873MOL0     C15142   3.131  10.540   7.226  0.0934 -0.9658 -0.7241
  873MOL0     C15143   3.011  10.537   7.324  0.1507  0.5229  0.2265
  873MOL0     C15144   3.065  10.541   7.473  0.9737  0.5046  0.7007
  873MOL0     C15145   2.951  10.535   7.568  0.0604  1.2060 -0.2747
  873MOL0     C15146   2.997  10.560   7.716 -0.6191 -0.2130  0.2204
  873MOL0     C15147   2.890  10.548   7.822  0.0201 -0.2893 -0.1936
  873MOL0    Cl15148   2.769  10.674   7.786  0.4350 -0.1169 -0.1835
  873MOL0     C15149   3.579  10.435   6.984  0.5951 -0.0915 -0.1350
  873MOL0     C15150   3.704  10.443   6.929 -0.1599 -0.0180  0.1430
  873MOL0     O15151   3.840  10.588   6.716  0.1797  0.7018 -0.2665
  873MOL0     C15152   4.071  10.474   6.594  0.3386 -0.4152  0.1968
  873MOL0     C15153   4.191  10.437   6.544 -0.2546 -0.1148  0.7880
  873MOL0     N15154   4.555  10.651   6.056  0.1062 -0.2426 -0.1310
  873MOL0     N15155   4.523  10.771   6.049  0.4742  0.3769  0.3008
  873MOL0     C15156   5.535  10.995   5.509  1.3931  0.2202  0.4076
  873MOL0     C15157   5.672  11.032   5.500  0.3001  0.4522 -0.3916
  873MOL0     C15158   6.031  11.156   5.306 -0.5521  0.4741  0.0900
  873MOL0     C15159   6.093  11.085   5.194 -0.0452 -0.9928 -0.4472
  873MOL0     C15160   6.239  11.083   5.174  0.9650 -0.2643 -0.7849
  873MOL0     C15161   6.318  11.145   5.273  0.0243 -0.4180  0.7093
  873MOL0     O15162   6.455  11.154   5.265 -0.0799  0.4232  0.1785
  873MOL0     C15163   6.530  11.080   5.166  0.6727  0.1185  0.2370
  873MOL0     C15164   6.609  10.958   5.225  0.2763  1.2749 -0.9519
  873MOL0     C15165   6.683  10.873   5.122 -0.8931 -0.2475  0.2657
  873MOL0     C15166   6.738  10.737   5.180  0.2428 -0.3500 -0.2421
  873MOL0     C15167   6.657  10.624   5.166  0.4964  0.4197  0.3389
  873MOL0     C15168   6.578  10.533   5.156  0.6482 -0.0922  0.5529
  873MOL0     C15169   6.262  11.213   5.377  0.4437  0.1324  0.0933
  873MOL0     C15170   6.122  11.212   5.397  1.0019  0.4731  0.7796
  873MOL0     H15171   5.632  11.351   5.421  0.0823 -0.7177 -3.3721
  873MOL0     H15172   5.393  11.302   5.487  0.3008 -0.5862 -2.2929
  873MOL0     H15173   5.161  11.153   5.422 -3.7177 -1.5152  0.5933
  873MOL0     H15174   5.224  11.207   5.583 -0.2298  0.3721 -0.2619
  873MOL0     H15175   5.089  11.013   5.671  1.1167 -2.7050  0.2439
  873MOL0     H15176   5.028  10.980   5.502  1.0124  1.3600 -2.3745
  873MOL0     H15177   4.919  11.200   5.504  2.8619  2.2166 -0.8780
  873MOL0     H15178   4.989  11.254   5.647  3.9942  1.1689 -3.4795
  873MOL0     H15179   4.761  11.181   5.658 -2.3353 -3.2788 -0.0386
  873MOL0     H15180   4.806  11.022   5.608  1.9126 -0.0567 -2.5477
  873MOL0     H15181   4.874  11.185   5.860 -1.2196  1.3415 -0.8109
  873MOL0     H15182   4.912  11.010   5.849 -0.6704  0.2636  3.1569
  873MOL0     H15183   4.662  10.956   5.864  0.4241 -0.6250  0.2713
  873MOL0     H15184   4.641  11.134   5.875 -0.5370 -1.9377 -2.8448
  873MOL0     H15185   4.830  10.968   6.040 -0.4958 -2.2772 -3.6641
  873MOL0     H15186   4.774  11.135   6.081  6.1243 -1.6307 -1.6033
  873MOL0     H15187   4.528  11.033   6.110  0.4276 -0.4941 -1.7166
  873MOL0     H15188   4.651  11.031   6.234  3.2653 -0.1200 -0.6688
  873MOL0     H15189   4.785  10.759   6.257  2.0277  1.1033 -1.9773
  873MOL0     H15190   4.823  10.492   6.195 -0.0647 -2.4398  2.2746
  873MOL0     H15191   4.679  10.427   6.113 -0.5253  1.0265  0.5994
  873MOL0     H15192   4.656  10.533   6.399  2.3237 -3.4728  3.4979
  873MOL0     H15193   4.708  10.373   6.363  1.6066 -0.1627 -0.1413
  873MOL0     H15194   4.424  10.495   6.301 -0.5776  0.0396  1.5417
  873MOL0     H15195   4.490  10.342   6.231 -3.8059 -0.3530  0.9011
  873MOL0     H15196   4.538  10.269   6.469 -1.9982 -0.9154  2.3050
  873MOL0     H15197   4.359  10.276   6.419 -0.8830 -1.1170  3.0840
  873MOL0     H15198   4.394  10.597   6.767 -1.7087  0.6934  2.4109
  873MOL0     H15199   4.177  10.622   6.876 -0.0322  0.7438  0.3168
  873MOL0     H15200   3.818  10.724   7.086 -2.1986  1.9622 -1.7111
  873MOL0     H15201   3.585  10.720   7.177 -3.4018  3.7466 -6.1642
  873MOL0     H15202   3.383  10.322   7.130 -1.8023 -0.5910  1.7543
  873MOL0     H15203   3.280  10.414   7.030  1.0495  0.0722 -0.9465
  873MOL0     H15204   3.257  10.399   7.336  3.1130  2.0827 -0.7881
  873MOL0     H15205   3.148  10.328   7.210  1.6768 -1.8264  0.2577
  873MOL0     H15206   3.095  10.554   7.124  2.0072 -1.3587 -1.4952
  873MOL0     H15207   3.197  10.625   7.249 -2.0412  0.9865 -1.3842
  873MOL0     H15208   2.953  10.629   7.309 -0.3747 -0.0360 -1.3297
  873MOL0     H15209   2.950  10.450   7.302 -3.0724  3.1644 -2.2975
  873MOL0     H15210   3.127  10.629   7.491  0.0068  0.7876  3.0365
  873MOL0     H15211   3.134  10.459   7.493 -0.4095 -1.2879 -1.3828
  873MOL0     H15212   2.903  10.437   7.564 -0.6363  1.4990  0.5185
  873MOL0     H15213   2.871  10.609   7.553 -2.1484 -0.6913  1.4290
  873MOL0     H15214   3.084  10.502   7.748 -0.2245  0.4804  0.4262
  873MOL0     H15215   3.031  10.664   7.718 -0.2767 -0.2200 -2.0818
  873MOL0     H15216   2.936  10.581   7.915 -1.8858 -1.0873  1.0848
  873MOL0     H15217   2.840  10.453   7.843 -1.0026  0.8079  2.6947
  873MOL0     H15218   3.516  10.349   6.963  1.6802 -1.2363  1.0851
  873MOL0     H15219   3.732  10.366   6.858 -2.4201 -2.2954  1.5745
  873MOL0     H15220   3.978  10.446   6.545  0.5292 -0.9627  0.1378
  873MOL0     H15221   4.187  10.383   6.450  2.9163 -2.0670  1.6164
  873MOL0     H15222   5.517  10.890   5.532  4.6026 -0.1131  1.9392
  873MOL0     H15223   5.745  10.952   5.512  0.6572  0.8598  0.1611
  873MOL0     H15224   6.035  11.048   5.110 -1.0568 -1.0606  0.2662
  873MOL0     H15225   6.262  11.047   5.075 -2.1915  2.3120 -2.6669
  873MOL0     H15226   6.609  11.136   5.114 -0.4180  0.4564 -1.1114
  873MOL0     H15227   6.457  11.040   5.095  0.0414  3.2806 -1.0480
  873MOL0     H15228   6.678  10.984   5.306 -1.0993 -4.1078  2.4383
  873MOL0     H15229   6.535  10.895   5.276 -0.4090  2.7230 -0.0576
  873MOL0     H15230   6.769  10.921   5.076 -1.9328  1.7580  0.2997
  873MOL0     H15231   6.614  10.847   5.042 -0.2882  0.1680 -0.3997
  873MOL0     H15232   6.822  10.708   5.116 -1.6594 -0.4353 -2.8577
  873MOL0     H15233   6.779  10.756   5.279 -1.6982  2.6408  0.1146
  873MOL0     H15234   6.506  10.456   5.139  0.4638 -0.3563  2.3714
  873MOL0     H15235   6.318  11.245   5.464  0.6446 -0.7890  0.3150
  873MOL0     H15236   6.090  11.266   5.486  1.7158  0.8392  0.8205
  874MOL0     O15237   9.243  11.194  10.428 -0.5234 -0.3310  0.1366
  874MOL0     C15238   9.136  11.254  10.417  0.8879  0.3492 -0.5249
  874MOL0     O15239   9.098  11.327  10.301 -0.8098  0.3778 -0.5262
  874MOL0     C15240   9.187  11.376  10.210  0.7803 -0.3269  0.0890
  874MOL0     C15241   9.325  11.373  10.219 -0.2774  0.3283 -0.8921
  874MOL0     C15242   9.422  11.419  10.115  0.5164  0.3603 -0.1659
  874MOL0     C15243   9.367  11.458   9.995 -0.2772 -0.0531  0.2905
  874MOL0     O15244   9.447  11.499   9.892  0.0526  0.6084 -0.3268
  874MOL0     C15245   9.583  11.505   9.915  0.1667  0.0174 -0.6805
  874MOL0     C15246   9.653  11.552   9.779 -0.4621 -0.9936 -0.0056
  874MOL0     C15247   9.660  11.439   9.678 -0.5700  0.1617 -0.4374
  874MOL0     C15248   9.718  11.489   9.547 -0.4685  0.2161  0.7896
  874MOL0     C15249   9.739  11.361   9.458  0.4658 -0.2177  0.2900
  874MOL0     C15250   9.803  11.394   9.323  0.9838 -0.9918  0.0854
  874MOL0     C15251   9.950  11.415   9.345  0.4988 -0.2017  0.1680
  874MOL0     C15252  10.020  11.427   9.199  0.8564  0.5710 -0.3198
  874MOL0     N15253  10.167  11.424   9.200  0.3187  0.0020  0.2354
  874MOL0     C15254  10.238  11.312   9.224  0.2679 -0.1220  0.2228
  874MOL0     C15255  10.367  11.363   9.238  0.3344 -0.7229 -0.2405
  874MOL0     C15256  10.475  11.288   9.297  0.6265 -0.4623  0.3133
  874MOL0     C15257  10.472  11.317   9.453  0.8595 -0.1733 -0.0112
  874MOL0     C15258  10.570  11.232   9.530  0.7684 -0.6223 -0.0418
  874MOL0     C15259  10.581  11.254   9.676 -0.0417  0.6166  0.5535
  874MOL0     O15260  10.605  11.393   9.706 -0.4213 -0.0250  0.2541
  874MOL0     C15261  10.704  11.463   9.646 -0.2482 -0.2253  0.4768
  874MOL0     C15262  10.833  11.410   9.630  0.3867  1.0319 -0.4354
  874MOL0     C15263  10.936  11.482   9.571  1.9961 -0.2965  0.2257
  874MOL0     C15264  10.922  11.608   9.529 -0.0287  0.0772  0.2158
  874MOL0     C15265  11.029  11.694   9.463 -0.0308  0.0994 -0.4889
  874MOL0     O15266  11.156  11.670   9.502 -0.8330 -0.1075 -0.6510
  874MOL0     C15267  11.247  11.760   9.450  0.0415  0.0602  0.9378
  874MOL0     C15268  11.295  11.861   9.539  0.0446  0.3597  0.4059
  874MOL0     C15269  11.384  11.963   9.482  0.2320 -0.2408  0.4626
  874MOL0     C15270  11.444  11.949   9.362  0.9182 -0.6735 -0.2616
  874MOL0     O15271  11.526  12.047   9.316 -0.2261 -0.1795  0.4427
  874MOL0     C15272  11.565  12.046   9.166  0.8402 -0.0586 -0.9511
  874MOL0     C15273  11.689  11.962   9.126 -0.6353  0.6277  0.3463
  874MOL0     C15274  11.804  12.018   9.201  0.1396  0.1803  0.4703
  874MOL0     C15275  11.942  11.978   9.139  0.0741 -0.1736 -0.2902
  874MOL0     C15276  12.060  12.015   9.227  0.3890  0.5054 -0.8761
  874MOL0     C15277  12.176  11.984   9.149 -0.1429  0.0289 -0.6366
  874MOL0     C15278  12.304  11.957   9.237  0.1512 -0.1410 -0.5354
  874MOL0     C15279  12.418  11.921   9.142  0.6465 -0.1593  0.4374
  874MOL0    Cl15280  12.576  11.899   9.226 -0.5664  0.1651  0.4542
  874MOL0     C15281  11.414  11.832   9.293  0.0383 -0.3735  0.4983
  874MOL0     C15282  11.313  11.739   9.328  0.0571 -0.4760 -0.2121
  874MOL0     O15283  10.989  11.769   9.374  0.1107 -0.2385 -0.2528
  874MOL0     C15284  10.793  11.658   9.523 -0.7772 -0.4819 -0.6702
  874MOL0     C15285  10.686  11.584   9.578  0.3805  0.0867  0.1373
  874MOL0     N15286  10.364  11.498   9.215  0.2701 -0.2471  0.0776
  874MOL0     N15287  10.244  11.524   9.180 -0.3442 -0.6557 -0.0132
  874MOL0     C15288   9.230  11.470   9.981 -0.2915 -0.1030  0.5745
  874MOL0     C15289   9.145  11.436  10.080 -0.7543  0.3782 -0.2183
  874MOL0     C15290   9.034  11.225  10.526 -0.3737 -0.1743 -0.3742
  874MOL0     C15291   8.893  11.270  10.513 -0.3478  0.5453  0.1922
  874MOL0     C15292   8.813  11.251  10.627 -0.2272  0.9796 -1.2823
  874MOL0     C15293   8.856  11.185  10.742 -0.1441 -0.0999  0.1762
  874MOL0     O15294   8.780  11.170  10.856 -0.0603 -0.4007  0.0435
  874MOL0     C15295   8.657  11.243  10.873  0.7872 -0.4383 -0.2793
  874MOL0     C15296   8.594  11.194  10.999  0.4926  0.1407  1.6187
  874MOL0     C15297   8.633  11.282  11.112  0.3694  0.3936 -0.1929
  874MOL0     C15298   8.541  11.250  11.228  0.2101 -0.2081  0.7782
  874MOL0     C15299   8.555  11.356  11.329 -1.5813 -0.0662 -0.0089
  874MOL0     C15300   8.565  11.453  11.402  1.1677  0.1295  0.1004
  874MOL0     C15301   8.981  11.119  10.740  0.9573  0.5307  0.2263
  874MOL0     C15302   9.067  11.142  10.637 -0.8020 -1.1242 -0.1007
  874MOL0     H15303   9.372  11.324  10.303 -1.3052 -1.0007 -1.0439
  874MOL0     H15304   9.529  11.414  10.130  0.3790 -1.0156  0.5488
  874MOL0     H15305   9.641  11.421   9.953  3.1455  3.2290  2.5786
  874MOL0     H15306   9.600  11.580   9.992 -4.0024  0.4227  0.0912
  874MOL0     H15307   9.748  11.599   9.803 -0.6131 -0.6369 -0.1093
  874MOL0     H15308   9.603  11.636   9.731  2.8729 -0.0806 -2.1365
  874MOL0     H15309   9.559  11.399   9.667 -0.1619 -0.7866 -0.8017
  874MOL0     H15310   9.721  11.365   9.729 -0.6779  2.0659  2.7577
  874MOL0     H15311   9.654  11.562   9.496 -0.0718  0.2947  0.3926
  874MOL0     H15312   9.815  11.534   9.571 -1.7401  2.5123  2.0543
  874MOL0     H15313   9.640  11.315   9.453  0.4760 -0.3891  1.3944
  874MOL0     H15314   9.805  11.288   9.506  3.4808  2.2550  0.2349
  874MOL0     H15315   9.754  11.471   9.263 -2.7883 -2.4550  0.9948
  874MOL0     H15316   9.793  11.305   9.260 -2.4515  1.3838 -3.1822
  874MOL0     H15317   9.971  11.506   9.403  0.8601 -1.1287  1.5387
  874MOL0     H15318   9.987  11.324   9.393 -1.6241 -1.1985  0.0007
  874MOL0     H15319   9.981  11.515   9.147  2.8293  2.2276  0.8581
  874MOL0     H15320   9.986  11.354   9.125  0.8246  2.9882 -2.8466
  874MOL0     H15321  10.207  11.208   9.233 -0.5211  0.1484  0.7597
  874MOL0     H15322  10.574  11.312   9.255  0.7802 -1.1918  0.2492
  874MOL0     H15323  10.462  11.182   9.273 -0.5716 -0.1455 -0.5146
  874MOL0     H15324  10.373  11.295   9.493  1.2227  2.2155  2.5722
  874MOL0     H15325  10.496  11.424   9.458  3.7303 -0.1374 -5.9956
  874MOL0     H15326  10.530  11.132   9.510  1.2547 -1.0980  1.2433
  874MOL0     H15327  10.665  11.251   9.480  0.8027  0.6787  0.4798
  874MOL0     H15328  10.661  11.188   9.712  0.9710  0.5743 -1.6277
  874MOL0     H15329  10.489  11.221   9.725  1.4281 -0.9311  2.4422
  874MOL0     H15330  10.852  11.312   9.673  0.5494  1.0318 -0.5069
  874MOL0     H15331  11.037  11.445   9.559  1.8404 -1.0357  1.1197
  874MOL0     H15332  11.260  11.856   9.641 -2.1506  0.1349 -0.3046
  874MOL0     H15333  11.408  12.043   9.552 -2.0934 -1.3539  2.7183
  874MOL0     H15334  11.587  12.150   9.141  0.2272  0.5712  0.9413
  874MOL0     H15335  11.478  12.017   9.106 -1.2887  1.6910  1.0717
  874MOL0     H15336  11.705  11.979   9.019 -1.5054 -2.4535 -0.3626
  874MOL0     H15337  11.681  11.854   9.141  1.2279  0.0670 -2.0321
  874MOL0     H15338  11.794  11.984   9.304  0.1845  0.9172  0.7262
  874MOL0     H15339  11.798  12.127   9.192  1.3421  0.1608 -1.0596
  874MOL0     H15340  11.925  11.870   9.141 -3.2392  0.2015 -1.3146
  874MOL0     H15341  11.940  12.021   9.038  0.0625  1.1691  0.2694
  874MOL0     H15342  12.051  11.976   9.329 -0.0241  0.0551 -1.0817
  874MOL0     H15343  12.058  12.124   9.236  1.0496  0.5075 -0.7275
  874MOL0     H15344  12.188  12.063   9.074  5.0892  0.7816  0.5565
  874MOL0     H15345  12.161  11.888   9.098  1.3434 -1.2070  1.1338
  874MOL0     H15346  12.332  12.039   9.303 -1.3646 -1.8322  2.4506
  874MOL0     H15347  12.279  11.875   9.305  1.5154  1.8204  2.5840
  874MOL0     H15348  12.428  12.008   9.076 -0.0705 -0.3188  0.0967
  874MOL0     H15349  12.387  11.840   9.075 -0.1158 -0.9340  1.6845
  874MOL0     H15350  11.465  11.812   9.199 -1.4057  0.0059 -0.3910
  874MOL0     H15351  11.281  11.653   9.269 -1.7926 -1.4476  2.0546
  874MOL0     H15352  10.777  11.759   9.487 -0.3077 -1.0928 -2.7085
  874MOL0     H15353  10.586  11.627   9.570  1.4255  2.7391  0.2126
  874MOL0     H15354   9.197  11.509   9.885  3.1707 -0.3991 -0.8983
  874MOL0     H15355   9.042  11.439  10.046 -1.1478 -2.2959  0.4933
  874MOL0     H15356   8.855  11.324  10.427 -2.8752  1.5179  1.7952
  874MOL0     H15357   8.710  11.286  10.627  0.2034  2.8229  2.7972
  874MOL0     H15358   8.595  11.221  10.785  0.3518  0.9938 -0.3624
  874MOL0     H15359   8.679  11.350  10.878 -1.6298  0.1796 -1.2574
  874MOL0     H15360   8.488  11.193  10.972  1.8026 -0.0061 -5.7732
  874MOL0     H15361   8.633  11.094  11.018  4.4589  0.8514 -1.4068
  874MOL0     H15362   8.629  11.386  11.078 -0.4088  0.9484  1.4706
  874MOL0     H15363   8.737  11.260  11.138 -0.3510 -0.7037  2.0662
  874MOL0     H15364   8.441  11.242  11.184 -0.3799  3.5301  1.0981
  874MOL0     H15365   8.575  11.153  11.265  2.0368  0.1083  0.0566
  874MOL0     H15366   8.555  11.535  11.470 -2.0690  0.5338 -0.7136
  874MOL0     H15367   9.029  11.042  10.800  1.6121  1.4866  0.9658
  874MOL0     H15368   9.166  11.099  10.627  0.0249  0.5247  0.7622
  875MOL0     O15369  10.342   1.889   1.280  0.2367  0.0651 -0.3130
  875MOL0     C15370  10.309   1.932   1.390  0.0659 -0.0694 -0.3731
  875MOL0     O15371  10.184   1.921   1.445 -0.0210 -0.4745  0.3265
  875MOL0     C15372  10.078   1.892   1.363  0.5563  0.2134 -0.4972
  875MOL0     C15373  10.063   1.764   1.300 -0.3864  0.6890  0.3124
  875MOL0     C15374   9.946   1.737   1.235 -0.3988 -0.2245  0.5836
  875MOL0     C15375   9.844   1.828   1.215 -0.1575 -0.0227 -0.5337
  875MOL0     O15376   9.734   1.797   1.140  0.1792 -0.5016  0.2471
  875MOL0     C15377   9.714   1.670   1.087  0.8189 -0.5731  0.7816
  875MOL0     C15378   9.585   1.675   1.003 -0.3391 -0.4420 -0.0081
  875MOL0     C15379   9.462   1.717   1.086  0.3114  0.1798  0.1241
  875MOL0     C15380   9.404   1.597   1.169 -0.1735  0.9381  0.0515
  875MOL0     C15381   9.284   1.644   1.248 -0.1041 -0.0421  0.0640
  875MOL0     C15382   9.250   1.552   1.368  1.0765 -0.7418 -0.6356
  875MOL0     C15383   9.209   1.410   1.327 -0.6640 -0.3280 -0.2146
  875MOL0     C15384   9.121   1.392   1.205 -0.2373  0.5050 -0.2939
  875MOL0     N15385   8.994   1.453   1.230 -1.0400  0.5274 -0.6360
  875MOL0     C15386   8.920   1.421   1.343 -0.0621  0.7384 -0.1691
  875MOL0     C15387   8.829   1.518   1.355  0.9610  0.1038  0.2364
  875MOL0     C15388   8.734   1.573   1.456  0.6425 -0.4607 -0.9017
  875MOL0     C15389   8.590   1.566   1.392 -0.5781 -0.2458  0.1574
  875MOL0     C15390   8.550   1.423   1.364 -0.4702  0.0726 -0.7767
  875MOL0     C15391   8.402   1.420   1.317  0.0567 -0.2376  0.1878
  875MOL0     O15392   8.302   1.478   1.402  0.2057  0.2025  0.1995
  875MOL0     C15393   8.167   1.442   1.377  0.0198  0.6217 -1.0481
  875MOL0     C15394   8.102   1.325   1.326 -1.0459  0.1559  0.5911
  875MOL0     C15395   7.974   1.317   1.296  0.0590 -0.0088  0.7328
  875MOL0     C15396   7.888   1.428   1.330  0.5564 -0.5007  0.2259
  875MOL0     C15397   7.737   1.435   1.297  0.3162 -1.3858 -0.1833
  875MOL0     O15398   7.704   1.331   1.212  0.4063 -0.4684 -0.0361
  875MOL0     C15399   7.578   1.298   1.162 -0.7022 -0.4358  0.4355
  875MOL0     C15400   7.474   1.276   1.259  0.2346  0.2535  0.4178
  875MOL0     C15401   7.357   1.207   1.221 -0.6304 -0.4403  0.9334
  875MOL0     C15402   7.337   1.173   1.086 -0.4988  0.4950 -0.4580
  875MOL0     O15403   7.225   1.105   1.052  0.6981  0.3366  0.2609
  875MOL0     C15404   7.120   1.069   1.142 -0.0038 -1.1261 -0.3326
  875MOL0     C15405   7.011   1.003   1.074  0.9426 -0.4890 -0.5144
  875MOL0     C15406   6.931   0.911   1.163 -0.1973 -0.6802 -0.5440
  875MOL0     C15407   6.827   0.838   1.079 -1.2089  0.4793 -0.1033
  875MOL0     C15408   6.729   0.767   1.174  1.2485 -0.0405  0.5214
  875MOL0     C15409   6.631   0.675   1.100  0.0454 -0.8567 -0.8911
  875MOL0     C15410   6.514   0.645   1.197 -0.0569  0.2312  0.8629
  875MOL0     C15411   6.444   0.523   1.145  0.4509  0.1701  0.5893
  875MOL0    Cl15412   6.327   0.570   1.027 -0.3389 -0.1757  0.0267
  875MOL0     C15413   7.428   1.211   1.000  0.6052 -1.0741  1.4770
  875MOL0     C15414   7.548   1.267   1.034 -0.5566 -0.5005  0.2256
  875MOL0     O15415   7.661   1.526   1.343  0.4697  0.4268 -0.7765
  875MOL0     C15416   7.950   1.529   1.396 -0.1019 -0.3537 -0.6673
  875MOL0     C15417   8.081   1.545   1.407 -0.2198  0.2977  0.7479
  875MOL0     N15418   8.838   1.599   1.240 -0.1578 -0.0474  0.5898
  875MOL0     N15419   8.950   1.567   1.173  0.5010 -0.1861 -0.3178
  875MOL0     C15420   9.861   1.953   1.277 -0.2047  0.3053  0.4071
  875MOL0     C15421   9.975   1.983   1.347  0.2030 -0.6691 -0.0862
  875MOL0     C15422  10.423   1.964   1.478  0.4464  0.8376  0.0354
  875MOL0     C15423  10.397   2.015   1.612  0.6462  0.6388  1.0876
  875MOL0     C15424  10.501   2.039   1.703 -0.3845 -0.7062 -0.2038
  875MOL0     C15425  10.635   2.008   1.667  0.5582  0.7257 -0.0488
  875MOL0     O15426  10.746   2.031   1.748  0.2613  0.0530  0.3993
  875MOL0     C15427  10.732   1.997   1.888 -0.0239 -0.3921 -0.8221
  875MOL0     C15428  10.768   1.842   1.910 -0.0904 -0.3273  0.9618
  875MOL0     C15429  10.883   1.799   1.809  0.0160  0.0325 -0.3561
  875MOL0     C15430  10.899   1.646   1.813  0.1659 -0.0220  0.1447
  875MOL0     C15431  11.024   1.606   1.741  0.6935 -0.0092 -0.5208
  875MOL0     C15432  11.131   1.593   1.692 -0.6678  0.1791 -0.5244
  875MOL0     C15433  10.656   1.954   1.542  0.4936 -0.4665 -0.3005
  875MOL0     C15434  10.558   1.934   1.450 -0.0002 -0.3911  0.1068
  875MOL0     H15435  10.149   1.698   1.297 -0.1798  0.9926 -2.4454
  875MOL0     H15436   9.944   1.648   1.172 -0.4316  1.0223 -1.2366
  875MOL0     H15437   9.710   1.599   1.171 -1.1103 -1.2130  0.1986
  875MOL0     H15438   9.797   1.655   1.018 -1.2736  2.1486 -2.6147
  875MOL0     H15439   9.552   1.584   0.951 -1.2950  0.1546 -0.4734
  875MOL0     H15440   9.596   1.754   0.928 -0.6400 -1.1276 -0.7890
  875MOL0     H15441   9.383   1.746   1.016 -1.2205  0.2122  1.7713
  875MOL0     H15442   9.482   1.805   1.149  1.6397  0.8771 -1.2208
  875MOL0     H15443   9.375   1.525   1.092 -0.5384  0.5562  0.5417
  875MOL0     H15444   9.476   1.552   1.238 -0.9832 -1.3761 -0.5133
  875MOL0     H15445   9.209   1.643   1.168 -1.2617 -4.0498  0.9830
  875MOL0     H15446   9.297   1.751   1.266  1.3804  0.0483 -1.2739
  875MOL0     H15447   9.166   1.594   1.424 -0.0181 -2.4233 -0.9377
  875MOL0     H15448   9.339   1.548   1.432 -0.4644 -0.8805  1.5851
  875MOL0     H15449   9.302   1.359   1.301 -0.9253 -0.6693 -0.4837
  875MOL0     H15450   9.158   1.371   1.416 -2.0904  0.3214 -0.7136
  875MOL0     H15451   9.118   1.285   1.179 -3.3496  0.9404 -2.2962
  875MOL0     H15452   9.158   1.441   1.114  0.0379  1.8252  0.5083
  875MOL0     H15453   8.935   1.355   1.428  2.6625  1.2587 -0.1570
  875MOL0     H15454   8.761   1.677   1.476  1.0050 -0.2123 -2.4816
  875MOL0     H15455   8.746   1.512   1.546 -0.6346  1.7357  0.8314
  875MOL0     H15456   8.574   1.627   1.303 -1.1695  0.0008  0.4252
  875MOL0     H15457   8.528   1.607   1.473  0.3443 -2.5254  2.1444
  875MOL0     H15458   8.623   1.384   1.291  2.1136 -0.2381  1.7945
  875MOL0     H15459   8.556   1.374   1.461 -3.0057 -0.1550 -0.6780
  875MOL0     H15460   8.374   1.315   1.308 -1.7514  0.2465 -0.2226
  875MOL0     H15461   8.387   1.457   1.215  0.3014 -0.0935  0.2033
  875MOL0     H15462   8.172   1.245   1.302 -0.0079  0.4191  2.5645
  875MOL0     H15463   7.942   1.232   1.235  0.0387 -1.6185  2.8901
  875MOL0     H15464   7.483   1.283   1.367 -1.8762 -0.3925  0.6864
  875MOL0     H15465   7.292   1.180   1.303 -1.0679 -0.9632  0.4223
  875MOL0     H15466   7.080   1.160   1.187  2.5525  0.8040 -1.6903
  875MOL0     H15467   7.165   0.999   1.213  1.5122 -1.3064 -1.4002
  875MOL0     H15468   7.041   0.953   0.982 -0.7179  0.9617 -1.9421
  875MOL0     H15469   6.934   1.078   1.052  0.2665 -0.6359  1.1904
  875MOL0     H15470   6.887   0.970   1.244 -1.4198 -0.7134 -1.1502
  875MOL0     H15471   6.995   0.838   1.213 -2.3601 -0.8657  2.2710
  875MOL0     H15472   6.772   0.899   1.007 -1.6268 -1.3875 -1.4598
  875MOL0     H15473   6.877   0.771   1.009 -1.6148 -0.3503  0.3811
  875MOL0     H15474   6.667   0.841   1.225  2.3627  0.7315  0.8052
  875MOL0     H15475   6.781   0.703   1.245  1.7042 -0.0695  0.1700
  875MOL0     H15476   6.680   0.579   1.083 -1.2307 -2.0503  1.7005
  875MOL0     H15477   6.592   0.721   1.008 -0.9613  1.2823  0.5394
  875MOL0     H15478   6.556   0.639   1.298  0.4154  1.2689  0.7441
  875MOL0     H15479   6.446   0.731   1.191 -0.2674  0.0659  0.8772
  875MOL0     H15480   6.379   0.484   1.224 -3.2550  3.9828 -0.1863
  875MOL0     H15481   6.501   0.445   1.093  1.7993  1.8803 -0.6072
  875MOL0     H15482   7.419   1.201   0.893  2.4424  1.6604  0.9498
  875MOL0     H15483   7.627   1.268   0.960  0.1400 -2.4126  0.8656
  875MOL0     H15484   7.891   1.619   1.408 -0.0081 -0.4885  1.0919
  875MOL0     H15485   8.120   1.641   1.439  0.6745  1.4885 -3.3416
  875MOL0     H15486   9.786   2.026   1.250 -1.0053 -0.6105  0.1150
  875MOL0     H15487   9.995   2.075   1.400  0.2499  0.2385 -1.6045
  875MOL0     H15488  10.297   2.043   1.642  1.1440  3.7028  0.2792
  875MOL0     H15489  10.487   2.097   1.794  2.4060 -0.5651  0.2434
  875MOL0     H15490  10.629   2.013   1.921 -0.5150 -1.2994 -1.8564
  875MOL0     H15491  10.796   2.061   1.950 -1.0757  1.1566 -1.2562
  875MOL0     H15492  10.809   1.846   2.012 -0.3982  4.4254  1.1037
  875MOL0     H15493  10.679   1.778   1.906 -1.5013  1.5760  0.2869
  875MOL0     H15494  10.970   1.857   1.839 -0.1737 -0.3393  1.0298
  875MOL0     H15495  10.864   1.819   1.704 -0.3085  0.3412 -0.2399
  875MOL0     H15496  10.909   1.599   1.911  0.5504 -1.4747 -0.5547
  875MOL0     H15497  10.815   1.589   1.772 -1.1590  1.8901  0.0909
  875MOL0     H15498  11.230   1.611   1.654 -1.8814  1.9944 -3.0836
  875MOL0     H15499  10.760   1.934   1.518  0.7682 -0.4823  0.8611
  875MOL0     H15500  10.579   1.892   1.352 -3.5801  1.9486 -1.9282
  876MOL0     O15501  10.225   9.394  10.949 -0.1569  0.0747  0.3729
  876MOL0     C15502  10.309   9.312  10.934  0.6326 -0.4116  0.3679
  876MOL0     O15503  10.341   9.214  11.023 -0.4282 -0.4289  0.6408
  876MOL0     C15504  10.273   9.233  11.142 -0.4738  0.2561 -0.3958
  876MOL0     C15505  10.349   9.279  11.245 -0.4774  0.5552  0.3110
  876MOL0     C15506  10.288   9.309  11.371 -0.0570 -0.4841  0.1288
  876MOL0     C15507  10.151   9.297  11.379 -1.2038  0.2976  0.3401
  876MOL0     O15508  10.083   9.343  11.493 -0.0402  0.4564 -0.0034
  876MOL0     C15509  10.143   9.317  11.631  0.1594  0.1511  0.0997
  876MOL0     C15510  10.071   9.413  11.732 -0.2986  0.0609  0.0752
  876MOL0     C15511   9.911   9.394  11.716  0.0335  0.0974  0.3725
  876MOL0     C15512   9.849   9.494  11.825 -0.0090  0.2124 -0.0822
  876MOL0     C15513   9.692   9.501  11.812  0.4521  0.5043 -0.5118
  876MOL0     C15514   9.645   9.540  11.672  0.4652 -0.0410 -0.7066
  876MOL0     C15515   9.517   9.631  11.683  0.0664  1.6233  0.7372
  876MOL0     C15516   9.442   9.636  11.552  0.5215 -0.1116 -0.0467
  876MOL0     N15517   9.305   9.689  11.566 -0.2379  0.4934  0.5053
  876MOL0     C15518   9.226   9.747  11.469 -0.2590 -0.4826 -0.4242
  876MOL0     C15519   9.102   9.768  11.530 -0.8719  0.2062  1.3154
  876MOL0     C15520   8.978   9.810  11.453 -0.0646 -0.8780 -0.1766
  876MOL0     C15521   8.875   9.695  11.430  0.2687  0.7068 -0.6413
  876MOL0     C15522   8.769   9.741  11.332 -0.1922 -0.0738  0.0910
  876MOL0     C15523   8.644   9.644  11.327 -0.4953 -1.4415  0.9815
  876MOL0     O15524   8.694   9.518  11.309  0.3812  0.0973  0.1835
  876MOL0     C15525   8.599   9.418  11.308 -0.0320 -0.0647  1.0307
  876MOL0     C15526   8.463   9.439  11.302 -0.1203 -0.6990  0.0152
  876MOL0     C15527   8.366   9.336  11.292  0.3634  1.1487  0.2009
  876MOL0     C15528   8.405   9.203  11.283 -0.4648 -0.4818 -0.5811
  876MOL0     C15529   8.315   9.092  11.301  0.5943 -0.5408  0.3013
  876MOL0     O15530   8.188   9.136  11.330 -0.1257  0.2912  1.0698
  876MOL0     C15531   8.093   9.048  11.357  0.0444  0.7482  0.4062
  876MOL0     C15532   8.088   8.998  11.486  0.2662 -0.1438 -0.2112
  876MOL0     C15533   7.975   8.917  11.526 -0.1074 -1.2347 -0.0410
  876MOL0     C15534   7.879   8.873  11.428  0.7185 -0.5401  0.0003
  876MOL0     O15535   7.780   8.782  11.451 -0.0738 -0.5364 -0.0721
  876MOL0     C15536   7.759   8.730  11.583 -0.1811  0.4185  0.1254
  876MOL0     C15537   7.677   8.826  11.670 -0.3830 -0.1521 -0.2201
  876MOL0     C15538   7.529   8.832  11.634 -0.3273  0.5137  0.1023
  876MOL0     C15539   7.446   8.723  11.700  0.1602  0.2827  0.8657
  876MOL0     C15540   7.316   8.720  11.633  0.7069  0.2505 -0.2732
  876MOL0     C15541   7.230   8.626  11.722  0.3977 -0.0307  0.2536
  876MOL0     C15542   7.091   8.613  11.677  0.6705 -0.1187  0.2407
  876MOL0     C15543   7.007   8.528  11.771 -0.1895 -0.4317 -0.2320
  876MOL0    Cl15544   6.967   8.607  11.928  0.3942  0.3238 -0.1527
  876MOL0     C15545   7.892   8.920  11.298  0.2580 -1.0974 -0.6945
  876MOL0     C15546   7.992   9.016  11.268  0.7917  0.2822  0.2463
  876MOL0     O15547   8.356   8.976  11.297 -0.3156  0.3346  0.7673
  876MOL0     C15548   8.546   9.178  11.293  0.2803  0.2130 -0.5897
  876MOL0     C15549   8.640   9.284  11.306 -0.3767 -0.2684  0.0706
  876MOL0     N15550   9.113   9.734  11.665 -0.3985  0.2998  0.2994
  876MOL0     N15551   9.235   9.687  11.684 -0.0529  0.2874  0.8900
  876MOL0     C15552  10.078   9.232  11.269  0.3705 -0.0553 -0.8913
  876MOL0     C15553  10.141   9.206  11.154  0.8111 -0.3543  0.0585
  876MOL0     C15554  10.382   9.323  10.805 -0.1524  0.1620 -0.0025
  876MOL0     C15555  10.490   9.231  10.780  0.6757  1.1322  0.8651
  876MOL0     C15556  10.560   9.235  10.658 -0.0163 -0.0923  0.0347
  876MOL0     C15557  10.515   9.325  10.561 -0.3292  0.6638  0.0917
  876MOL0     O15558  10.576   9.329  10.433  0.1876 -0.5437 -0.6524
  876MOL0     C15559  10.689   9.245  10.407 -0.9039 -1.3303  0.0591
  876MOL0     C15560  10.747   9.263  10.263 -0.3820  0.8069 -0.0018
  876MOL0     C15561  10.876   9.186  10.264  0.0318  0.5292 -0.0760
  876MOL0     C15562  10.950   9.199  10.126  0.3319  0.7573  0.2431
  876MOL0     C15563  10.883   9.121  10.017  0.2200 -0.9212 -0.7730
  876MOL0     C15564  10.856   9.070   9.911 -0.3305  0.4254 -0.7470
  876MOL0     C15565  10.415   9.413  10.588  0.6924  0.4248 -0.3370
  876MOL0     C15566  10.347   9.414  10.709  0.2289  0.4553  0.0482
  876MOL0     H15567  10.455   9.288  11.222 -0.7681  1.1386 -0.8850
  876MOL0     H15568  10.349   9.344  11.453 -1.4757 -1.5930  1.7284
  876MOL0     H15569  10.251   9.325  11.642  0.0667  0.5154  0.7908
  876MOL0     H15570  10.129   9.211  11.657  0.7275 -0.5984 -2.3884
  876MOL0     H15571  10.097   9.516  11.710  0.0483 -0.2926 -1.2141
  876MOL0     H15572  10.101   9.383  11.834 -2.5561 -0.2130  0.7186
  876MOL0     H15573   9.891   9.286  11.725  3.6977 -0.8836 -1.2564
  876MOL0     H15574   9.877   9.435  11.620 -0.1602 -1.3414 -0.2003
  876MOL0     H15575   9.872   9.454  11.925 -1.7250 -0.0413  0.2479
  876MOL0     H15576   9.896   9.591  11.808  0.6757 -0.2582 -0.9520
  876MOL0     H15577   9.644   9.564  11.888 -0.4550 -2.7788  1.8531
  876MOL0     H15578   9.651   9.402  11.831 -0.7284  1.1226  0.3243
  876MOL0     H15579   9.627   9.453  11.608  2.5020 -3.0703  2.4909
  876MOL0     H15580   9.722   9.601  11.625 -0.6268 -0.2273 -2.8571
  876MOL0     H15581   9.453   9.596  11.763 -1.5867 -0.7895 -1.4905
  876MOL0     H15582   9.544   9.732  11.718  2.0147  0.3028  3.4065
  876MOL0     H15583   9.421   9.537  11.510 -2.6022  0.0244  0.9649
  876MOL0     H15584   9.499   9.701  11.485  1.2432 -0.5247  0.1590
  876MOL0     H15585   9.244   9.769  11.365  2.3342  1.4413  0.3360
  876MOL0     H15586   9.019   9.851  11.360 -1.6156 -0.5400 -0.7310
  876MOL0     H15587   8.927   9.884  11.516  1.2048 -0.0696 -0.0530
  876MOL0     H15588   8.830   9.672  11.527 -1.1503  2.8862 -0.7159
  876MOL0     H15589   8.928   9.615  11.377 -1.0415 -1.2348  0.8448
  876MOL0     H15590   8.735   9.841  11.358 -1.7814 -0.8601  1.1978
  876MOL0     H15591   8.811   9.756  11.232 -3.1029  1.2963 -1.0200
  876MOL0     H15592   8.577   9.681  11.249  0.3641  0.6606  1.1719
  876MOL0     H15593   8.575   9.654  11.412  0.3109  2.0429  1.3777
  876MOL0     H15594   8.408   9.532  11.301  0.1773 -0.4988  0.8392
  876MOL0     H15595   8.262   9.362  11.303  0.6446  2.9831 -0.9363
  876MOL0     H15596   8.156   9.040  11.560  0.3508  2.1609 -1.5122
  876MOL0     H15597   7.981   8.893  11.632 -1.1517  0.4265  0.4389
  876MOL0     H15598   7.849   8.707  11.641 -1.2179  0.1924  1.7230
  876MOL0     H15599   7.713   8.631  11.571 -2.1200  1.1501  1.0753
  876MOL0     H15600   7.723   8.925  11.656  3.1163 -1.3491  1.6270
  876MOL0     H15601   7.684   8.799  11.775 -0.2287  2.4410  0.5105
  876MOL0     H15602   7.533   8.832  11.524  1.0688 -1.0303  0.1063
  876MOL0     H15603   7.490   8.929  11.664  0.5594  1.4770 -1.6519
  876MOL0     H15604   7.495   8.626  11.684  1.0899  0.8961 -0.1769
  876MOL0     H15605   7.438   8.736  11.808  0.5718  2.2253  0.6973
  876MOL0     H15606   7.336   8.675  11.536  1.3049  4.6845 -2.4636
  876MOL0     H15607   7.271   8.819  11.623 -3.4123 -1.4633 -0.7812
  876MOL0     H15608   7.215   8.666  11.823 -2.6722  0.8705 -0.4573
  876MOL0     H15609   7.274   8.526  11.723  0.8101  0.1097 -1.3954
  876MOL0     H15610   7.037   8.708  11.679 -1.2761 -1.1930  1.1939
  876MOL0     H15611   7.081   8.577  11.574 -1.9673  0.3499  0.2837
  876MOL0     H15612   7.059   8.436  11.795  0.4631 -0.0517 -0.1796
  876MOL0     H15613   6.909   8.509  11.725 -1.1405  5.1352 -1.3280
  876MOL0     H15614   7.821   8.885  11.224 -0.7449  1.7604 -1.1897
  876MOL0     H15615   7.993   9.064  11.171 -2.1260  3.3109  1.5150
  876MOL0     H15616   8.584   9.078  11.276  0.4917 -0.0049  1.0126
  876MOL0     H15617   8.748   9.280  11.315 -0.4090  1.6587  2.5263
  876MOL0     H15618   9.973   9.209  11.282  0.3861  0.6417  0.7017
  876MOL0     H15619  10.079   9.168  11.073  0.9730  0.6970 -0.5739
  876MOL0     H15620  10.525   9.156  10.851  1.5708  0.0399 -0.6735
  876MOL0     H15621  10.642   9.167  10.642 -1.9044 -2.5344  0.1101
  876MOL0     H15622  10.677   9.139  10.432 -2.6586 -1.1349  0.2083
  876MOL0     H15623  10.776   9.286  10.459  0.9679 -2.7639 -1.7434
  876MOL0     H15624  10.682   9.228  10.182  2.1076 -0.5566 -1.5242
  876MOL0     H15625  10.769   9.369  10.252  3.5392  0.2962  1.4972
  876MOL0     H15626  10.866   9.080  10.287  1.0066 -0.3112 -3.0469
  876MOL0     H15627  10.941   9.227  10.342  2.2358 -0.5186 -1.2475
  876MOL0     H15628  10.939   9.305  10.101  0.5655  0.8766  0.6399
  876MOL0     H15629  11.056   9.175  10.126  0.1633 -0.0369  0.0557
  876MOL0     H15630  10.824   9.029   9.817  0.2184  0.6508 -1.0346
  876MOL0     H15631  10.391   9.497  10.523 -1.6127 -0.7064 -1.0460
  876MOL0     H15632  10.259   9.475  10.725  0.7838  1.1575  0.4700
  877MOL0     O15633   4.135  11.292  11.218  0.0974  0.0696 -0.9755
  877MOL0     C15634   4.249  11.259  11.252  0.0414  0.1355  0.5497
  877MOL0     O15635   4.279  11.175  11.353  0.0088 -0.5787  0.8274
  877MOL0     C15636   4.166  11.102  11.387 -0.2965 -0.1450 -0.6096
  877MOL0     C15637   4.095  11.148  11.501 -1.2387 -0.0281 -0.3665
  877MOL0     C15638   3.987  11.071  11.549  0.0374  0.2846 -0.0691
  877MOL0     C15639   3.946  10.962  11.480  0.5984  0.2980 -0.9047
  877MOL0     O15640   3.835  10.884  11.522 -0.1555  0.4282  0.4812
  877MOL0     C15641   3.880  10.774  11.602 -0.2081 -0.3223 -0.0224
  877MOL0     C15642   3.768  10.668  11.593 -0.8163 -0.0881 -0.0247
  877MOL0     C15643   3.631  10.722  11.631 -0.0150  0.9808  0.3626
  877MOL0     C15644   3.614  10.704  11.779  0.2329 -0.5423 -0.4191
  877MOL0     C15645   3.583  10.840  11.852  0.0296  0.0423  0.1728
  877MOL0     C15646   3.546  10.818  12.006 -0.1260 -0.3306  0.7984
  877MOL0     C15647   3.446  10.932  12.048  0.1004  0.3881  0.8194
  877MOL0     C15648   3.501  11.069  12.024 -0.1407 -0.5283  0.0130
  877MOL0     N15649   3.432  11.187  12.078 -0.4237 -0.1562  0.6791
  877MOL0     C15650   3.306  11.231  12.042  0.1433  0.3108  0.3006
  877MOL0     C15651   3.275  11.334  12.113  0.2956 -0.3216 -0.0229
  877MOL0     C15652   3.167  11.433  12.085 -0.8425 -0.0603 -0.3138
  877MOL0     C15653   3.028  11.358  12.100  0.6735  0.6666 -0.4682
  877MOL0     C15654   2.918  11.445  12.046 -0.0649  0.4431 -0.0825
  877MOL0     C15655   2.782  11.386  12.081  0.3429 -0.6068 -0.1877
  877MOL0     O15656   2.690  11.491  12.109  0.1356 -0.7936 -0.0483
  877MOL0     C15657   2.553  11.456  12.114 -0.5797  0.0065 -0.2179
  877MOL0     C15658   2.466  11.567  12.089 -0.9177  0.2694  0.5046
  877MOL0     C15659   2.333  11.544  12.077  0.2566  1.2338  0.2152
  877MOL0     C15660   2.284  11.413  12.093  0.3159  0.8117  0.6053
  877MOL0     C15661   2.135  11.390  12.077  0.4409  0.1353  0.1275
  877MOL0     O15662   2.088  11.267  12.109 -0.4279 -0.0838  0.2465
  877MOL0     C15663   1.955  11.237  12.101 -0.4779 -0.2984 -0.0931
  877MOL0     C15664   1.899  11.169  11.996  0.2394  0.6090 -0.7081
  877MOL0     C15665   1.756  11.158  11.988 -0.2213  0.6694 -0.6201
  877MOL0     C15666   1.672  11.204  12.090 -0.1149 -0.7340  0.4671
  877MOL0     O15667   1.542  11.190  12.063  0.0957  0.5437  0.0583
  877MOL0     C15668   1.462  11.191  12.179  0.1379 -0.0195  0.3973
  877MOL0     C15669   1.319  11.145  12.155  0.2007 -0.8586 -0.0431
  877MOL0     C15670   1.255  11.123  12.292  0.8457 -0.5249  0.0196
  877MOL0     C15671   1.228  11.236  12.394 -0.0674 -0.2627  0.3752
  877MOL0     C15672   1.127  11.209  12.507 -1.1446 -0.3578  0.3847
  877MOL0     C15673   1.091  11.339  12.579  0.4051  0.3211  0.1124
  877MOL0     C15674   1.206  11.389  12.673  0.6180 -0.5893  0.8518
  877MOL0     C15675   1.153  11.483  12.769 -0.3670 -0.5347 -0.3927
  877MOL0    Cl15676   1.077  11.620  12.692 -0.1150  0.0072  0.1359
  877MOL0     C15677   1.735  11.267  12.202 -0.1371  0.0187  0.0067
  877MOL0     C15678   1.874  11.284  12.209 -0.7547  0.3435  0.7031
  877MOL0     O15679   2.065  11.477  12.028  0.0994 -0.1871 -0.2241
  877MOL0     C15680   2.366  11.297  12.108  0.3709 -0.0529 -0.2333
  877MOL0     C15681   2.500  11.326  12.127 -0.4714  0.0610 -0.1302
  877MOL0     N15682   3.376  11.353  12.200 -0.6566 -0.2468 -0.2220
  877MOL0     N15683   3.470  11.265  12.181  0.6840 -0.0551  0.0448
  877MOL0     C15684   4.017  10.924  11.363  0.0564  0.4759  0.5472
  877MOL0     C15685   4.127  10.991  11.317  0.1684  0.0940  0.4483
  877MOL0     C15686   4.364  11.320  11.179  0.5820 -0.7106  0.1543
  877MOL0     C15687   4.340  11.420  11.091 -0.1664  0.5437  0.8989
  877MOL0     C15688   4.449  11.480  11.021 -0.0479  0.1833 -0.0663
  877MOL0     C15689   4.578  11.438  11.046  0.0029 -0.6769 -0.0229
  877MOL0     O15690   4.669  11.501  10.959 -0.4816 -0.4108  0.7103
  877MOL0     C15691   4.812  11.487  10.969  0.5784  1.3401  0.5062
  877MOL0     C15692   4.859  11.569  11.092  0.3046 -0.7702 -0.6477
  877MOL0     C15693   5.004  11.620  11.067 -0.2837 -0.1556  0.1660
  877MOL0     C15694   5.106  11.510  11.074  0.3386 -0.6503  0.3192
  877MOL0     C15695   5.239  11.564  11.047 -0.6285 -0.1537 -0.0568
  877MOL0     C15696   5.353  11.618  11.031  0.0120  0.1056  0.3267
  877MOL0     C15697   4.610  11.334  11.130 -0.3727  0.1865 -0.4639
  877MOL0     C15698   4.496  11.279  11.201 -0.2816 -0.3888  0.2581
  877MOL0     H15699   4.123  11.237  11.558 -1.3742 -1.2237  1.6660
  877MOL0     H15700   3.934  11.099  11.639 -2.1779 -2.1170 -0.5139
  877MOL0     H15701   3.901  10.810  11.703  3.7992  1.9993 -1.4706
  877MOL0     H15702   3.969  10.728  11.559  1.1521  2.1756 -0.0506
  877MOL0     H15703   3.806  10.577  11.640  0.7924 -0.3510 -1.7321
  877MOL0     H15704   3.764  10.629  11.491  1.4248 -0.6741  0.0632
  877MOL0     H15705   3.557  10.661  11.579  2.1542 -1.0110 -0.5995
  877MOL0     H15706   3.625  10.828  11.607 -1.4627  1.0409  0.8878
  877MOL0     H15707   3.525  10.641  11.794 -0.9419  1.0216 -0.5300
  877MOL0     H15708   3.700  10.646  11.812 -0.7573 -1.4818  0.6166
  877MOL0     H15709   3.495  10.881  11.801 -0.8182  1.3042  2.4925
  877MOL0     H15710   3.668  10.903  11.826 -1.3022  1.2797 -1.4458
  877MOL0     H15711   3.635  10.834  12.067 -0.3454  0.6242  0.8751
  877MOL0     H15712   3.519  10.715  12.031  1.1582 -0.5427  1.4346
  877MOL0     H15713   3.342  10.917  12.017  0.1816  2.3425 -0.6245
  877MOL0     H15714   3.456  10.914  12.156  2.5896 -2.4418  0.2276
  877MOL0     H15715   3.519  11.091  11.918  1.6727 -1.9061 -0.0240
  877MOL0     H15716   3.599  11.057  12.072  0.4894 -2.1689 -1.5483
  877MOL0     H15717   3.249  11.189  11.959  0.6902 -0.6051  0.3729
  877MOL0     H15718   3.176  11.477  11.986 -0.7166 -0.7733 -0.6289
  877MOL0     H15719   3.180  11.510  12.162 -0.7769 -0.1522 -0.2318
  877MOL0     H15720   3.015  11.338  12.207  0.6430 -0.4074 -0.6567
  877MOL0     H15721   3.008  11.260  12.054 -3.0423  0.0247  2.0146
  877MOL0     H15722   2.918  11.541  12.100  4.0236  0.4481  0.2219
  877MOL0     H15723   2.936  11.461  11.939  0.2194  2.4616  0.2105
  877MOL0     H15724   2.795  11.327  12.171  1.3083  0.8923  0.6979
  877MOL0     H15725   2.754  11.327  11.993  4.3071  0.2792 -2.2660
  877MOL0     H15726   2.500  11.669  12.074 -0.2340  0.0755  0.7382
  877MOL0     H15727   2.267  11.630  12.062 -0.4445  0.6614 -0.0171
  877MOL0     H15728   1.964  11.125  11.921  1.2500  1.0510 -0.1037
  877MOL0     H15729   1.715  11.117  11.896  0.9039 -0.1109 -0.7894
  877MOL0     H15730   1.446  11.292  12.217 -6.2257 -0.4473  0.0392
  877MOL0     H15731   1.497  11.126  12.260 -0.4444 -0.6244  0.1828
  877MOL0     H15732   1.315  11.055  12.092  0.0033 -0.1506 -1.0687
  877MOL0     H15733   1.271  11.216  12.087  0.2578  0.6757  1.4728
  877MOL0     H15734   1.308  11.050  12.353 -0.0382 -0.7433  0.5314
  877MOL0     H15735   1.159  11.074  12.273 -0.4564  1.9676 -0.3245
  877MOL0     H15736   1.327  11.267  12.430 -0.8161 -0.5026  2.8081
  877MOL0     H15737   1.194  11.319  12.332 -0.7052 -0.6864  0.1504
  877MOL0     H15738   1.169  11.130  12.569 -1.2329  0.4213  1.4640
  877MOL0     H15739   1.038  11.169  12.457 -2.5548  0.2906  2.2629
  877MOL0     H15740   1.006  11.333  12.647 -1.0516  1.2134 -1.5565
  877MOL0     H15741   1.064  11.421  12.512  1.8414 -0.0042 -0.9061
  877MOL0     H15742   1.240  11.302  12.730  0.5588 -0.3770  1.2085
  877MOL0     H15743   1.288  11.424  12.609 -0.7744  1.3210  0.0148
  877MOL0     H15744   1.241  11.519  12.823 -1.0292  0.3418  0.1432
  877MOL0     H15745   1.083  11.435  12.838  0.3657 -3.0604 -1.3239
  877MOL0     H15746   1.674  11.315  12.277  1.2179 -0.9260  1.7834
  877MOL0     H15747   1.913  11.345  12.290 -4.2417  4.1388 -0.1437
  877MOL0     H15748   2.333  11.194  12.120  0.9405 -0.0764  1.3881
  877MOL0     H15749   2.572  11.252  12.161  1.7601  2.3408  0.4488
  877MOL0     H15750   3.983  10.844  11.299  4.0894  0.5798 -2.0576
  877MOL0     H15751   4.187  10.945  11.240  2.7894  2.3538  0.9820
  877MOL0     H15752   4.239  11.449  11.064 -0.6954 -0.9345  1.1974
  877MOL0     H15753   4.444  11.555  10.943 -2.0387  0.4360  0.2562
  877MOL0     H15754   4.864  11.524  10.880  2.4033  1.5580  1.6323
  877MOL0     H15755   4.845  11.384  10.984  1.0136  1.0658 -1.9888
  877MOL0     H15756   4.809  11.663  11.118  3.9654  1.2997 -0.4304
  877MOL0     H15757   4.850  11.508  11.183 -0.8826  0.8775  0.4000
  877MOL0     H15758   5.030  11.685  11.152  2.3396 -0.3768 -0.3878
  877MOL0     H15759   5.014  11.671  10.971 -5.5543 -1.1209 -1.2193
  877MOL0     H15760   5.102  11.453  11.167 -0.8793 -3.0151 -1.0935
  877MOL0     H15761   5.092  11.432  10.999  0.4988  0.0799 -0.4970
  877MOL0     H15762   5.442  11.662  10.991  0.6352 -1.6587 -0.2890
  877MOL0     H15763   4.713  11.310  11.155 -0.3617  0.3281 -0.3738
  877MOL0     H15764   4.524  11.186  11.248  1.7670 -0.2959 -0.6564
  878MOL0     O15765   0.455   7.068   0.612  0.4167 -0.3959 -0.7477
  878MOL0     C15766   0.337   7.064   0.590  0.7324  0.9705 -0.7627
  878MOL0     O15767   0.231   7.042   0.682  0.8209 -0.2052  0.7928
  878MOL0     C15768   0.264   7.046   0.814 -0.2838  0.2592 -0.5078
  878MOL0     C15769   0.255   7.169   0.875 -0.3526  0.4292 -0.3040
  878MOL0     C15770   0.283   7.175   1.018  0.3053  0.3898  0.6906
  878MOL0     C15771   0.319   7.069   1.088  0.5140 -0.1751  0.4237
  878MOL0     O15772   0.330   7.072   1.222  0.0447 -0.0718 -0.1332
  878MOL0     C15773   0.450   7.009   1.268  0.0225  0.8536 -0.2670
  878MOL0     C15774   0.464   7.047   1.416 -0.5720  0.0139 -1.1087
  878MOL0     C15775   0.519   7.189   1.450 -0.1497  0.1204 -1.0426
  878MOL0     C15776   0.659   7.216   1.383  0.7346 -0.9310  0.9019
  878MOL0     C15777   0.782   7.136   1.445 -0.6399 -0.6233  0.1191
  878MOL0     C15778   0.909   7.159   1.359 -0.2440  0.1061 -0.5688
  878MOL0     C15779   0.956   7.303   1.359 -0.1789  1.0800  0.1097
  878MOL0     C15780   1.107   7.328   1.347  0.6685  0.1778  1.1147
  878MOL0     N15781   1.159   7.303   1.207 -0.4549  0.3401 -0.6201
  878MOL0     C15782   1.169   7.401   1.114  0.7595 -0.1103  1.1374
  878MOL0     C15783   1.223   7.337   1.003  0.1972 -0.3577 -0.8458
  878MOL0     C15784   1.254   7.403   0.865  0.3677 -0.8282 -0.0823
  878MOL0     C15785   1.131   7.378   0.774 -0.5428 -0.1842  0.7211
  878MOL0     C15786   1.120   7.238   0.722 -0.4504 -0.0652 -0.2062
  878MOL0     C15787   1.001   7.222   0.633  0.0312  0.5065  0.9826
  878MOL0     O15788   0.974   7.338   0.554 -0.3741  0.0154  0.6675
  878MOL0     C15789   0.856   7.382   0.506 -0.4833  0.1933  0.0707
  878MOL0     C15790   0.865   7.510   0.456  0.4965  0.2828 -0.8146
  878MOL0     C15791   0.744   7.576   0.420 -0.2559 -0.6581  0.6791
  878MOL0     C15792   0.614   7.522   0.440 -1.3181  0.3884 -0.7312
  878MOL0     C15793   0.492   7.585   0.391  0.8969 -0.2634  0.0785
  878MOL0     O15794   0.371   7.515   0.392  1.2011 -0.4203 -0.0310
  878MOL0     C15795   0.252   7.594   0.402  0.0670  0.5927 -0.1152
  878MOL0     C15796   0.181   7.614   0.524  0.0021 -0.3636  0.0221
  878MOL0     C15797   0.074   7.698   0.539  0.1689  0.1525  0.1530
  878MOL0     C15798   0.032   7.769   0.423  0.3052 -0.5839 -0.5753
  878MOL0     O15799  -0.055   7.870   0.444 -0.0029 -0.4088  0.2885
  878MOL0     C15800  -0.125   7.937   0.334 -0.1223 -0.2314  0.6638
  878MOL0     C15801  -0.233   8.029   0.395  0.1665 -0.2335 -0.2428
  878MOL0     C15802  -0.281   7.984   0.535 -0.2827  0.3478  0.5731
  878MOL0     C15803  -0.384   8.089   0.589 -1.0749 -0.2822  0.3360
  878MOL0     C15804  -0.453   8.016   0.712 -0.3440 -0.7392 -0.6493
  878MOL0     C15805  -0.534   8.123   0.788 -0.5364 -0.5686 -0.1559
  878MOL0     C15806  -0.658   8.173   0.711 -0.6576  0.1278  1.0826
  878MOL0     C15807  -0.757   8.250   0.781  0.5640 -0.2258  0.7615
  878MOL0    Cl15808  -0.675   8.369   0.885  0.0801  0.3227  0.1697
  878MOL0     C15809   0.087   7.740   0.298 -0.2715 -0.3887  0.7417
  878MOL0     C15810   0.197   7.654   0.289 -0.5874  0.3796  0.3509
  878MOL0     O15811   0.500   7.708   0.364 -0.1087  0.1880  0.0415
  878MOL0     C15812   0.606   7.389   0.494 -0.0718  0.5261 -0.6013
  878MOL0     C15813   0.727   7.323   0.524 -0.6513  0.3127  0.6162
  878MOL0     N15814   1.241   7.206   1.040  0.2381 -0.0463 -0.1689
  878MOL0     N15815   1.204   7.185   1.160 -0.8213  0.2087 -0.6395
  878MOL0     C15816   0.329   6.949   1.017  0.2594 -0.1994  0.8871
  878MOL0     C15817   0.305   6.932   0.875 -0.2325 -0.2335  0.4444
  878MOL0     C15818   0.297   7.072   0.452  0.2674  0.3029  0.6668
  878MOL0     C15819   0.372   7.125   0.342 -0.3591  0.2846  0.5427
  878MOL0     C15820   0.335   7.120   0.203 -0.4303 -0.7075  0.3401
  878MOL0     C15821   0.211   7.057   0.181 -0.1319 -0.4182 -0.4857
  878MOL0     O15822   0.155   7.060   0.050 -0.3814  0.1992 -0.4181
  878MOL0     C15823   0.089   7.183   0.008  0.2826  0.3434 -0.4778
  878MOL0     C15824  -0.067   7.157  -0.030 -1.0003 -0.2005 -0.4253
  878MOL0     C15825  -0.083   7.053  -0.139  1.0201  0.2572 -0.4289
  878MOL0     C15826  -0.138   7.098  -0.278  0.3052  0.8376  0.0994
  878MOL0     C15827  -0.287   7.106  -0.310 -0.1356  0.4304  0.7814
  878MOL0     C15828  -0.410   7.101  -0.328  0.3949 -0.0711  0.0567
  878MOL0     C15829   0.133   7.004   0.283  0.5125  0.3190  0.7745
  878MOL0     C15830   0.173   7.011   0.408 -0.0503  1.1790  0.0342
  878MOL0     H15831   0.224   7.260   0.825 -0.0910  1.6504  1.6260
  878MOL0     H15832   0.288   7.271   1.068  0.6957  1.3425 -1.1053
  878MOL0     H15833   0.542   7.033   1.214  1.1523 -2.9495 -0.2937
  878MOL0     H15834   0.436   6.901   1.262  2.8487  0.4691 -1.6288
  878MOL0     H15835   0.534   6.976   1.460 -1.6171 -0.8125 -0.7519
  878MOL0     H15836   0.370   7.028   1.469  0.5780  2.1335  1.9505
  878MOL0     H15837   0.521   7.208   1.557 -0.2212  0.0846 -1.0346
  878MOL0     H15838   0.459   7.268   1.403  1.8681  0.6713 -2.8457
  878MOL0     H15839   0.664   7.185   1.278  1.6351 -3.4877  1.6234
  878MOL0     H15840   0.682   7.323   1.384 -1.6304 -0.3112 -0.8972
  878MOL0     H15841   0.760   7.030   1.431 -1.7458 -0.7233  2.2272
  878MOL0     H15842   0.793   7.142   1.554 -0.0804  1.2923  0.0042
  878MOL0     H15843   0.886   7.128   1.257 -0.9823 -0.5162 -0.2218
  878MOL0     H15844   0.983   7.087   1.395 -1.3928 -2.2654 -2.6270
  878MOL0     H15845   0.901   7.368   1.290 -0.4625 -1.4676 -2.2331
  878MOL0     H15846   0.921   7.321   1.461 -4.3821 -0.6238 -0.7973
  878MOL0     H15847   1.164   7.265   1.417  0.7723 -0.1225  0.7647
  878MOL0     H15848   1.126   7.432   1.374  2.1914  0.2666 -0.2179
  878MOL0     H15849   1.152   7.507   1.130  0.1595 -0.4541  2.9925
  878MOL0     H15850   1.349   7.374   0.820  0.2270  0.0954 -1.0172
  878MOL0     H15851   1.266   7.509   0.890 -0.8672 -0.7828  0.3683
  878MOL0     H15852   1.148   7.444   0.689  0.5471 -1.1170  0.1993
  878MOL0     H15853   1.037   7.414   0.817 -0.9774  2.1141 -1.8942
  878MOL0     H15854   1.204   7.203   0.661  0.2318 -0.5743  0.9880
  878MOL0     H15855   1.113   7.174   0.810 -0.2805 -1.2810 -1.0405
  878MOL0     H15856   0.914   7.201   0.696 -0.7912  0.2386 -0.1998
  878MOL0     H15857   1.012   7.132   0.571 -0.0985  1.1766 -0.0480
  878MOL0     H15858   0.962   7.558   0.445  1.8857 -1.0576  3.6279
  878MOL0     H15859   0.753   7.664   0.358 -0.1029 -0.6480  0.7138
  878MOL0     H15860   0.226   7.564   0.610 -2.3734 -3.8647 -0.5446
  878MOL0     H15861   0.028   7.712   0.637  0.9606  0.2359  0.5198
  878MOL0     H15862  -0.180   7.867   0.270 -0.0150  0.9437 -0.7753
  878MOL0     H15863  -0.059   7.988   0.264  1.4459 -2.8490  0.1279
  878MOL0     H15864  -0.322   8.053   0.337 -0.9099 -2.5013  0.3447
  878MOL0     H15865  -0.191   8.123   0.431 -3.0287  0.9889  0.5450
  878MOL0     H15866  -0.195   7.976   0.602  1.4554 -0.3489 -1.6004
  878MOL0     H15867  -0.338   7.891   0.525 -1.9817  1.2073  1.8844
  878MOL0     H15868  -0.321   8.178   0.595 -1.1091  0.3617 -4.6215
  878MOL0     H15869  -0.456   8.120   0.513 -0.4038  0.6363  0.0535
  878MOL0     H15870  -0.384   7.967   0.781  0.1528  1.1498  0.2668
  878MOL0     H15871  -0.525   7.940   0.679 -2.1961  0.7277 -0.1653
  878MOL0     H15872  -0.477   8.213   0.814 -0.9639 -0.2994 -0.1294
  878MOL0     H15873  -0.564   8.070   0.879 -1.1940 -1.4996 -0.8905
  878MOL0     H15874  -0.634   8.236   0.625 -1.1722  3.7016  3.3249
  878MOL0     H15875  -0.710   8.079   0.689 -4.8675  1.5364  3.7645
  878MOL0     H15876  -0.833   8.184   0.824 -1.9212 -0.0540 -2.8852
  878MOL0     H15877  -0.821   8.306   0.712 -0.5981 -0.6245  1.4743
  878MOL0     H15878   0.046   7.769   0.202  2.9641 -0.1226 -0.7166
  878MOL0     H15879   0.226   7.621   0.190  1.6353 -0.1486  1.1269
  878MOL0     H15880   0.516   7.337   0.525  0.3825 -0.0486 -0.2211
  878MOL0     H15881   0.717   7.230   0.579  1.9333  0.1318  0.8925
  878MOL0     H15882   0.348   6.857   1.072 -0.6084 -0.5923  0.5540
  878MOL0     H15883   0.319   6.834   0.829  0.4540 -0.2654  0.7192
  878MOL0     H15884   0.470   7.166   0.364  0.4337 -1.5883  0.7537
  878MOL0     H15885   0.387   7.176   0.126 -1.0642 -2.5551 -1.5156
  878MOL0     H15886   0.157   7.222  -0.068  2.7068 -0.6945  1.0409
  878MOL0     H15887   0.091   7.245   0.098 -1.0240 -0.7776  0.3769
  878MOL0     H15888  -0.122   7.133   0.061 -0.3563  1.3142  0.4057
  878MOL0     H15889  -0.109   7.253  -0.061  1.2648  0.3388 -2.0703
  878MOL0     H15890  -0.155   6.980  -0.100  1.2494 -0.4429 -1.2744
  878MOL0     H15891   0.014   7.007  -0.158  0.3846 -0.7853 -1.3132
  878MOL0     H15892  -0.104   7.199  -0.302  1.0543  0.7117  0.5943
  878MOL0     H15893  -0.081   7.034  -0.345 -2.3531  1.0405 -2.5850
  878MOL0     H15894  -0.517   7.100  -0.331  0.3510  1.2498 -2.9122
  878MOL0     H15895   0.036   6.959   0.262  0.6363  0.4394 -0.0901
  878MOL0     H15896   0.127   6.944   0.480 -0.5705  1.1477 -0.3279
  879MOL0     O15897  10.136   7.836   8.811 -0.3780  1.0800  0.2121
  879MOL0     C15898  10.159   7.721   8.859  0.6822  0.1643 -1.3738
  879MOL0     O15899  10.067   7.639   8.919 -0.4338 -0.3437  0.3522
  879MOL0     C15900   9.945   7.697   8.942 -0.5129 -0.4840 -0.0659
  879MOL0     C15901   9.928   7.784   9.055  0.1961 -0.3134 -0.2782
  879MOL0     C15902   9.798   7.825   9.088 -0.0824 -0.1739  0.3013
  879MOL0     C15903   9.689   7.805   9.002 -0.4325 -0.6584 -0.3879
  879MOL0     O15904   9.570   7.859   9.013 -0.2865 -0.8752 -0.3719
  879MOL0     C15905   9.576   7.998   9.058 -0.1477 -0.1229 -0.6793
  879MOL0     C15906   9.433   8.047   9.025 -0.1106  0.3479  0.5009
  879MOL0     C15907   9.433   8.195   9.063  0.7151  0.2720 -0.4847
  879MOL0     C15908   9.297   8.254   9.022 -0.2767 -0.2769  0.5868
  879MOL0     C15909   9.282   8.404   9.037  0.7019  0.2983 -0.3639
  879MOL0     C15910   9.162   8.461   8.954  0.8791  0.6681  0.2485
  879MOL0     C15911   9.027   8.391   8.996  0.7786 -0.0757 -0.3838
  879MOL0     C15912   8.924   8.437   8.895  0.1330 -0.3191  0.1064
  879MOL0     N15913   8.786   8.406   8.934  0.2296  0.4620  0.2190
  879MOL0     C15914   8.690   8.476   9.009  0.0851 -0.0803 -0.4104
  879MOL0     C15915   8.577   8.406   8.993  0.1911  0.5452 -0.5357
  879MOL0     C15916   8.461   8.433   9.073  1.2905 -0.2695  1.1481
  879MOL0     C15917   8.449   8.333   9.190 -0.2716  0.3068 -0.1374
  879MOL0     C15918   8.574   8.347   9.275  0.0338 -0.0237  0.0264
  879MOL0     C15919   8.543   8.350   9.427  0.3316 -0.2303  0.6909
  879MOL0     O15920   8.504   8.216   9.475 -0.5582  0.3132  0.0534
  879MOL0     C15921   8.465   8.197   9.608 -0.5010 -0.2783  0.7620
  879MOL0     C15922   8.410   8.080   9.649  0.7975 -0.2365  0.0828
  879MOL0     C15923   8.369   8.068   9.778  0.3450 -0.2560  0.6811
  879MOL0     C15924   8.382   8.166   9.878 -0.3314  0.1942  0.3676
  879MOL0     C15925   8.322   8.155  10.006 -0.9745 -0.7904  0.1303
  879MOL0     O15926   8.255   8.042  10.036  0.5360 -0.5205 -0.1348
  879MOL0     C15927   8.257   8.001  10.165 -0.0373 -0.6779  0.0471
  879MOL0     C15928   8.362   7.932  10.223  0.1027 -0.2412  0.2063
  879MOL0     C15929   8.342   7.894  10.363 -0.4378  0.0595  0.4829
  879MOL0     C15930   8.211   7.912  10.423 -0.4255  0.8543 -0.1290
  879MOL0     O15931   8.179   7.858  10.551  0.1269  0.7210  0.7161
  879MOL0     C15932   8.281   7.798  10.627  0.7875  0.7131 -0.9129
  879MOL0     C15933   8.213   7.734  10.750 -0.0200  0.0367 -0.7934
  879MOL0     C15934   8.138   7.605  10.697 -0.4617 -0.6111 -0.9701
  879MOL0     C15935   8.028   7.561  10.794  0.2620  0.2005 -1.5207
  879MOL0     C15936   8.081   7.522  10.939 -0.7865 -0.0248  0.5071
  879MOL0     C15937   8.006   7.613  11.041 -0.6726 -0.3384 -0.8206
  879MOL0     C15938   8.061   7.616  11.181 -0.2135  0.9071 -0.6965
  879MOL0     C15939   8.207   7.648  11.203  0.0110 -0.1005  0.0100
  879MOL0    Cl15940   8.243   7.815  11.169  0.5209  0.1601 -0.0364
  879MOL0     C15941   8.111   7.979  10.358 -0.6990  0.5349 -0.9537
  879MOL0     C15942   8.135   8.022  10.232  0.6447  1.1007 -0.9652
  879MOL0     O15943   8.359   8.245  10.086  0.2343 -0.4589 -0.4790
  879MOL0     C15944   8.443   8.289   9.831 -0.6721  0.2995 -0.0242
  879MOL0     C15945   8.481   8.308   9.697 -0.3310 -0.1482 -0.5427
  879MOL0     N15946   8.606   8.285   8.930 -0.6610  0.0380 -0.1489
  879MOL0     N15947   8.729   8.285   8.901  0.1040 -0.1451  0.0332
  879MOL0     C15948   9.704   7.726   8.896  0.0602 -0.7980  0.0560
  879MOL0     C15949   9.829   7.672   8.862 -0.6562  0.4177  0.3308
  879MOL0     C15950  10.295   7.667   8.851 -0.2047  1.0526 -0.8191
  879MOL0     C15951  10.337   7.563   8.948 -0.3068 -1.0183  1.4380
  879MOL0     C15952  10.469   7.517   8.937  0.0073  0.7583  0.9524
  879MOL0     C15953  10.561   7.578   8.861 -0.3014 -0.3323 -0.0621
  879MOL0     O15954  10.692   7.539   8.847 -0.0642  0.0333 -0.1786
  879MOL0     C15955  10.751   7.434   8.915 -0.3491 -0.4773 -0.4235
  879MOL0     C15956  10.908   7.453   8.903  0.0795 -0.9745 -0.4421
  879MOL0     C15957  10.950   7.436   8.757 -0.9893  0.6823  0.6275
  879MOL0     C15958  11.097   7.458   8.748  0.2764  0.2555  0.2138
  879MOL0     C15959  11.176   7.364   8.837 -0.0546 -1.2513  0.0994
  879MOL0     C15960  11.227   7.290   8.923  0.1579  0.0769  0.3061
  879MOL0     C15961  10.526   7.687   8.772 -0.0903  0.3729 -0.3189
  879MOL0     C15962  10.391   7.727   8.769  0.2547  0.4633 -0.6725
  879MOL0     H15963  10.010   7.812   9.120 -1.3847  1.8431  0.9578
  879MOL0     H15964   9.798   7.889   9.176 -2.9931  0.0504  0.2257
  879MOL0     H15965   9.650   8.054   9.000 -0.4563 -0.3158 -1.2623
  879MOL0     H15966   9.601   8.008   9.164  0.7071 -2.4541 -0.5982
  879MOL0     H15967   9.363   7.994   9.092  0.2387 -0.1725  0.4603
  879MOL0     H15968   9.415   8.029   8.919  3.1037  1.4531 -0.3176
  879MOL0     H15969   9.520   8.251   9.026  2.8878 -2.4295  0.1395
  879MOL0     H15970   9.440   8.182   9.172  1.6584  0.4107 -0.5162
  879MOL0     H15971   9.282   8.225   8.917  2.9884  1.4397 -0.4989
  879MOL0     H15972   9.217   8.207   9.079  1.1075 -1.2507  1.8029
  879MOL0     H15973   9.370   8.443   8.987  0.7894  1.4410  0.6523
  879MOL0     H15974   9.287   8.439   9.141 -2.7945  1.5076 -0.4796
  879MOL0     H15975   9.179   8.440   8.848 -0.7835 -1.2824  0.3031
  879MOL0     H15976   9.154   8.568   8.978 -1.8809  0.8752 -1.2282
  879MOL0     H15977   9.033   8.282   8.987 -0.2516 -0.1482 -0.3839
  879MOL0     H15978   8.997   8.411   9.099 -1.3297 -0.3303 -0.8963
  879MOL0     H15979   8.938   8.387   8.799 -2.4065 -0.0641 -0.4590
  879MOL0     H15980   8.934   8.546   8.897  0.9098 -0.3663 -0.5866
  879MOL0     H15981   8.709   8.564   9.070  1.7313 -0.9508  0.3975
  879MOL0     H15982   8.370   8.411   9.017  2.6649 -3.1716 -0.1292
  879MOL0     H15983   8.460   8.534   9.116  0.9004  0.2849 -0.0956
  879MOL0     H15984   8.433   8.231   9.152  0.5705 -0.9519  2.6478
  879MOL0     H15985   8.357   8.360   9.242  0.5630  2.2376  0.3973
  879MOL0     H15986   8.635   8.258   9.258  0.6073  0.4258 -0.3032
  879MOL0     H15987   8.623   8.443   9.255  1.0424 -0.8364 -1.6230
  879MOL0     H15988   8.462   8.422   9.446  0.3626  0.1847 -0.6221
  879MOL0     H15989   8.636   8.380   9.475 -0.6625  0.2690  2.3866
  879MOL0     H15990   8.401   7.993   9.585  0.4976  0.8865 -1.4855
  879MOL0     H15991   8.327   7.969   9.797 -0.5408 -0.5101 -2.1351
  879MOL0     H15992   8.442   7.921  10.152 -1.6370 -1.5979 -1.6709
  879MOL0     H15993   8.429   7.853  10.412 -0.2400 -1.8896 -1.3641
  879MOL0     H15994   8.353   7.871  10.665 -1.5465  3.3100 -1.1644
  879MOL0     H15995   8.330   7.713  10.577  1.2072  0.7630 -0.5842
  879MOL0     H15996   8.134   7.798  10.791  1.2043 -0.2998  2.2920
  879MOL0     H15997   8.293   7.719  10.822  1.3430  1.2343 -1.9821
  879MOL0     H15998   8.218   7.535  10.673  0.9372  0.6601 -0.1330
  879MOL0     H15999   8.087   7.632  10.603 -2.5574  1.7431  0.7122
  879MOL0     H16000   7.951   7.637  10.809  0.2010 -0.2646  0.8965
  879MOL0     H16001   7.975   7.478  10.747 -2.0532  1.1675 -0.7179
  879MOL0     H16002   8.186   7.545  10.960 -1.1994 -0.7442  4.1348
  879MOL0     H16003   8.064   7.418  10.968 -2.1293  0.1771  0.5439
  879MOL0     H16004   7.901   7.586  11.053 -0.6322 -0.1503  0.0062
  879MOL0     H16005   8.006   7.719  11.013 -2.2454 -0.4561 -1.3703
  879MOL0     H16006   8.000   7.684  11.242  0.6468  1.7729 -0.7731
  879MOL0     H16007   8.035   7.521  11.228 -0.4044  0.0717 -2.4326
  879MOL0     H16008   8.273   7.584  11.144  1.5012  0.4979  0.9657
  879MOL0     H16009   8.240   7.640  11.307  2.1107 -0.8578 -0.6710
  879MOL0     H16010   8.011   7.992  10.398 -0.2301  2.4645 -0.2970
  879MOL0     H16011   8.047   8.054  10.176 -0.3542  0.1866  0.0074
  879MOL0     H16012   8.448   8.375   9.897 -3.5949  0.4967  0.0999
  879MOL0     H16013   8.512   8.407   9.666  1.5525 -1.2739 -2.5446
  879MOL0     H16014   9.617   7.720   8.832  1.4291 -0.7973 -1.8936
  879MOL0     H16015   9.839   7.605   8.778  0.9466  0.2893  0.5916
  879MOL0     H16016  10.262   7.516   9.010  0.4792 -1.8775  1.7675
  879MOL0     H16017  10.492   7.421   8.983  1.0759  0.4964 -0.0775
  879MOL0     H16018  10.718   7.335   8.881 -1.9342  0.1732 -0.9048
  879MOL0     H16019  10.728   7.428   9.021  1.2627  1.5505  0.0927
  879MOL0     H16020  10.934   7.554   8.937 -4.2513 -0.5677  2.4415
  879MOL0     H16021  10.962   7.383   8.967  0.7041  2.1497  2.7564
  879MOL0     H16022  10.902   7.509   8.691  0.4022  0.2428 -0.9477
  879MOL0     H16023  10.921   7.334   8.728 -0.4144  0.4272  0.9297
  879MOL0     H16024  11.139   7.456   8.647 -0.8219 -0.0911 -0.2508
  879MOL0     H16025  11.125   7.556   8.786  0.3482  0.8279 -1.2324
  879MOL0     H16026  11.269   7.226   8.998  0.2897  1.1039  1.1356
  879MOL0     H16027  10.606   7.740   8.722  1.2839 -0.5439  0.8494
  879MOL0     H16028  10.352   7.808   8.708 -1.2026 -0.4329 -0.9804
  880MOL0     O16029   0.729   0.875   8.450  0.7444  0.8652  0.0419
  880MOL0     C16030   0.755   0.988   8.465  0.6847 -0.3215  0.3257
  880MOL0     O16031   0.661   1.090   8.455 -0.0436  0.3616 -0.0736
  880MOL0     C16032   0.526   1.046   8.448 -0.0461  0.7890 -0.6769
  880MOL0     C16033   0.460   0.984   8.339  0.6321  0.2366  0.0323
  880MOL0     C16034   0.332   0.936   8.365 -1.0021 -0.2266  0.1259
  880MOL0     C16035   0.272   0.934   8.496  0.4071 -0.1958  0.0556
  880MOL0     O16036   0.150   0.866   8.518 -0.3873  0.3751 -0.5591
  880MOL0     C16037   0.058   0.946   8.593 -0.1729 -0.0327  0.0598
  880MOL0     C16038  -0.057   0.851   8.622  0.2680  0.3498 -0.1845
  880MOL0     C16039  -0.171   0.916   8.706 -0.4183  0.4574  1.0910
  880MOL0     C16040  -0.291   0.825   8.692  0.4351  0.1256 -0.4089
  880MOL0     C16041  -0.411   0.890   8.741 -0.4241 -0.6796  0.5878
  880MOL0     C16042  -0.542   0.818   8.749  0.3955 -0.1705  0.1591
  880MOL0     C16043  -0.642   0.928   8.778  0.5915  0.0080  0.2170
  880MOL0     C16044  -0.799   0.864   8.785 -0.2081 -0.6003  0.6684
  880MOL0     N16045  -0.909   0.963   8.775  0.2085 -0.1727  0.8378
  880MOL0     C16046  -0.920   1.072   8.860  1.7363 -0.1768  1.2548
  880MOL0     C16047  -1.027   1.141   8.805 -0.2038  0.3531 -0.0902
  880MOL0     C16048  -1.089   1.263   8.866 -0.3584 -0.3507 -0.0513
  880MOL0     C16049  -1.236   1.246   8.877  0.4603 -0.7195  0.2507
  880MOL0     C16050  -1.290   1.349   8.979 -0.3851  0.3073  0.2113
  880MOL0     C16051  -1.444   1.364   8.953  0.2751 -0.2374  0.8648
  880MOL0     O16052  -1.517   1.423   9.057 -0.2232 -0.5785 -0.5220
  880MOL0     C16053  -1.647   1.464   9.029 -1.1372 -0.0293 -0.0009
  880MOL0     C16054  -1.703   1.441   8.905  0.6520 -0.5144  0.2518
  880MOL0     C16055  -1.826   1.508   8.873  0.9063  0.3185 -0.1271
  880MOL0     C16056  -1.898   1.585   8.968 -0.4969 -0.2479 -0.6510
  880MOL0     C16057  -2.025   1.650   8.936 -1.2455  0.9466 -0.5478
  880MOL0     O16058  -2.100   1.694   9.040 -0.2492 -0.2901 -0.5799
  880MOL0     C16059  -2.234   1.696   9.031  0.5062  0.5989  0.0281
  880MOL0     C16060  -2.292   1.790   9.118 -0.4323  0.1074  0.0598
  880MOL0     C16061  -2.435   1.795   9.139 -0.8200 -0.8008  0.6149
  880MOL0     C16062  -2.516   1.718   9.055 -0.6983 -0.9163 -0.3897
  880MOL0     O16063  -2.652   1.732   9.062  0.0427 -0.3221 -0.0856
  880MOL0     C16064  -2.715   1.633   9.149  0.4836 -0.6150 -0.8296
  880MOL0     C16065  -2.855   1.686   9.186 -0.4112  0.2962 -0.0493
  880MOL0     C16066  -2.937   1.612   9.288 -0.1975  0.2724  0.3592
  880MOL0     C16067  -3.085   1.642   9.278  1.5320 -0.3916  0.1077
  880MOL0     C16068  -3.132   1.754   9.366  0.1415  0.1014  0.3711
  880MOL0     C16069  -3.285   1.770   9.367  0.0996  0.5010  0.1869
  880MOL0     C16070  -3.332   1.862   9.484 -0.3563  1.0943 -0.3606
  880MOL0     C16071  -3.488   1.867   9.484 -0.0580  0.3478  0.4666
  880MOL0    Cl16072  -3.529   2.044   9.529  0.6889 -0.6618  0.0008
  880MOL0     C16073  -2.456   1.625   8.964  0.0574  0.3129  0.2622
  880MOL0     C16074  -2.314   1.606   8.960  0.0107 -0.1764  0.3514
  880MOL0     O16075  -2.055   1.652   8.821 -0.0641 -0.6231 -0.1159
  880MOL0     C16076  -1.846   1.597   9.101 -0.7492  0.6483  0.0462
  880MOL0     C16077  -1.718   1.533   9.127  0.1290 -0.4085  0.0906
  880MOL0     N16078  -1.069   1.084   8.686  0.4368  0.5451 -0.1296
  880MOL0     N16079  -0.993   0.972   8.665  0.4944  0.0471 -0.8100
  880MOL0     C16080   0.345   0.995   8.603 -0.3896  1.2273 -0.4835
  880MOL0     C16081   0.465   1.051   8.573 -0.5531  0.4230 -1.3621
  880MOL0     C16082   0.901   1.026   8.503 -0.0625  0.1512  0.5957
  880MOL0     C16083   1.008   0.958   8.449  0.9133  0.1179 -0.4425
  880MOL0     C16084   1.141   1.001   8.459  0.2999 -0.4775 -0.4089
  880MOL0     C16085   1.170   1.108   8.545  0.4168  0.1504  0.2251
  880MOL0     O16086   1.297   1.154   8.584 -0.4132  0.1251  0.1416
  880MOL0     C16087   1.409   1.078   8.537 -1.4187  0.5977  0.5533
  880MOL0     C16088   1.537   1.130   8.599  0.1259  0.0197 -0.5334
  880MOL0     C16089   1.558   1.070   8.748 -0.2563 -0.4327 -0.1575
  880MOL0     C16090   1.679   1.128   8.818  0.2311  0.5045 -0.1859
  880MOL0     C16091   1.801   1.064   8.776  1.2013  0.2191  0.9873
  880MOL0     C16092   1.912   1.016   8.740  0.2979  0.3034 -1.2819
  880MOL0     C16093   1.055   1.167   8.610 -0.0021  0.0250  0.4319
  880MOL0     C16094   0.929   1.132   8.583  0.1574 -0.3726  0.3220
  880MOL0     H16095   0.504   0.978   8.240 -2.5179 -0.4755 -1.4384
  880MOL0     H16096   0.289   0.873   8.288  0.6567 -1.2525 -0.0043
  880MOL0     H16097   0.032   1.033   8.532 -1.2079 -0.2846  0.1101
  880MOL0     H16098   0.097   0.991   8.685  2.6599  0.6221 -1.3486
  880MOL0     H16099  -0.017   0.767   8.681  3.6347  0.4238 -2.1051
  880MOL0     H16100  -0.095   0.816   8.526  1.3111 -0.3953 -0.3483
  880MOL0     H16101  -0.193   1.016   8.669  2.0802  2.0705  3.5828
  880MOL0     H16102  -0.136   0.933   8.808  0.5236  2.5974  0.4701
  880MOL0     H16103  -0.309   0.801   8.586  1.8360  0.0094 -0.6383
  880MOL0     H16104  -0.287   0.732   8.750  3.0418  0.6237  0.2909
  880MOL0     H16105  -0.419   0.982   8.682  0.2780  0.6777  2.5100
  880MOL0     H16106  -0.386   0.935   8.837  0.0984  1.3599 -0.4339
  880MOL0     H16107  -0.556   0.734   8.818  0.2739 -0.7829 -0.6012
  880MOL0     H16108  -0.563   0.784   8.647  0.7138  4.2624 -1.6048
  880MOL0     H16109  -0.619   0.975   8.874  2.0874  0.8435 -0.5225
  880MOL0     H16110  -0.640   1.003   8.699  2.0835 -0.1850  0.0518
  880MOL0     H16111  -0.808   0.812   8.881  1.2451  1.0830  1.7809
  880MOL0     H16112  -0.806   0.798   8.698  1.6479  2.3994 -1.9754
  880MOL0     H16113  -0.859   1.091   8.948  0.4579  1.2944  1.8695
  880MOL0     H16114  -1.061   1.352   8.808 -2.2972 -0.4860 -1.2904
  880MOL0     H16115  -1.058   1.270   8.971 -2.9503  1.3168  0.6897
  880MOL0     H16116  -1.263   1.143   8.904  1.4317 -0.8134  0.8953
  880MOL0     H16117  -1.279   1.271   8.780 -0.2049  3.5938  1.4666
  880MOL0     H16118  -1.283   1.304   9.079  1.7931  1.6579  0.7297
  880MOL0     H16119  -1.250   1.449   8.962 -0.2421  0.5160  1.6869
  880MOL0     H16120  -1.492   1.267   8.941 -0.8509  0.2598  1.1824
  880MOL0     H16121  -1.446   1.424   8.861 -0.1404 -1.8047 -0.1795
  880MOL0     H16122  -1.665   1.376   8.827  1.1387 -1.5041  1.2798
  880MOL0     H16123  -1.864   1.496   8.772 -1.8471  0.0095  0.8424
  880MOL0     H16124  -2.224   1.860   9.165 -2.8280  0.6477  3.1051
  880MOL0     H16125  -2.466   1.856   9.223 -0.5577  2.0414 -1.2383
  880MOL0     H16126  -2.658   1.611   9.240 -0.7299 -0.0809  0.0817
  880MOL0     H16127  -2.734   1.540   9.096 -1.8812 -0.6078 -0.1065
  880MOL0     H16128  -2.908   1.688   9.091 -1.7603  2.3628  0.6780
  880MOL0     H16129  -2.838   1.790   9.216  1.5373  0.6589 -2.1683
  880MOL0     H16130  -2.900   1.637   9.388 -0.9008  0.3542  0.6006
  880MOL0     H16131  -2.905   1.510   9.264  0.9738  1.5317 -4.7855
  880MOL0     H16132  -3.114   1.657   9.174  1.2687 -0.2214  0.2039
  880MOL0     H16133  -3.144   1.558   9.317 -0.6207  1.9816  2.3320
  880MOL0     H16134  -3.080   1.845   9.335  3.8304 -1.6153  1.0168
  880MOL0     H16135  -3.096   1.731   9.466  0.4469 -0.1276  0.2093
  880MOL0     H16136  -3.337   1.674   9.371  0.7471  0.1471  0.4036
  880MOL0     H16137  -3.318   1.810   9.271  1.3694 -1.6133 -1.2175
  880MOL0     H16138  -3.301   1.812   9.575  1.4125 -0.1337 -1.5719
  880MOL0     H16139  -3.288   1.962   9.475 -0.8351  1.5523  1.8134
  880MOL0     H16140  -3.534   1.811   9.566 -0.8662 -1.5885 -1.2099
  880MOL0     H16141  -3.534   1.825   9.394 -3.2710  2.7523  0.7851
  880MOL0     H16142  -2.530   1.570   8.907  0.6105 -0.5965  0.3883
  880MOL0     H16143  -2.267   1.523   8.908 -2.0009 -1.0391 -0.1649
  880MOL0     H16144  -1.905   1.639   9.182 -0.8073  0.1393  0.2694
  880MOL0     H16145  -1.686   1.531   9.230 -3.4976 -0.5061  1.3872
  880MOL0     H16146   0.300   0.984   8.701 -2.2344 -0.3687 -1.4462
  880MOL0     H16147   0.527   1.089   8.654  0.4944 -1.4077 -1.2507
  880MOL0     H16148   0.983   0.871   8.389  2.0372  0.3966 -1.3679
  880MOL0     H16149   1.220   0.945   8.410 -0.5745 -1.5077 -0.6961
  880MOL0     H16150   1.428   1.077   8.429  2.0848  0.7171  1.0519
  880MOL0     H16151   1.400   0.972   8.559  0.5602  0.3855  0.5033
  880MOL0     H16152   1.622   1.106   8.535 -0.1031  0.0608 -0.8546
  880MOL0     H16153   1.544   1.239   8.594  2.9162 -0.0217  0.6939
  880MOL0     H16154   1.562   0.961   8.749 -1.6535 -0.5222  1.9112
  880MOL0     H16155   1.464   1.102   8.794 -0.9590 -0.2882 -1.6155
  880MOL0     H16156   1.681   1.237   8.808  5.5929  0.4471 -3.7731
  880MOL0     H16157   1.679   1.109   8.926 -0.3019  1.2105 -0.0558
  880MOL0     H16158   2.004   0.985   8.695 -0.7962 -0.8413 -2.8516
  880MOL0     H16159   1.061   1.250   8.679 -1.2183 -0.6429  1.3844
  880MOL0     H16160   0.853   1.199   8.621  0.7927  0.4934  0.0997
  881MOL0     O16161   0.764  11.047   0.887  0.1618 -0.8405 -0.3056
  881MOL0     C16162   0.782  11.167   0.862  0.1334  0.3874 -0.3278
  881MOL0     O16163   0.716  11.276   0.921 -0.0105  0.5508  0.2820
  881MOL0     C16164   0.611  11.254   1.008 -0.3487 -1.1876 -0.5572
  881MOL0     C16165   0.480  11.287   0.975 -0.5816 -0.3668 -1.6734
  881MOL0     C16166   0.380  11.264   1.062 -0.5440  0.3638  0.8818
  881MOL0     C16167   0.402  11.216   1.189 -0.3655 -0.2186 -1.4452
  881MOL0     O16168   0.293  11.199   1.273 -0.1593  0.2387  0.1693
  881MOL0     C16169   0.316  11.204   1.415  0.4239  0.4558 -0.1861
  881MOL0     C16170   0.200  11.190   1.511  1.6855  0.1655 -0.7239
  881MOL0     C16171   0.230  11.283   1.638 -0.2438 -0.2581  0.2792
  881MOL0     C16172   0.120  11.266   1.750 -0.9385 -0.1421  0.1012
  881MOL0     C16173   0.114  11.346   1.878 -0.1732  0.8665  0.1627
  881MOL0     C16174   0.088  11.500   1.840  0.5426  0.1374  0.5187
  881MOL0     C16175   0.035  11.570   1.950 -0.0693 -0.1342 -0.7277
  881MOL0     C16176   0.119  11.564   2.079 -0.9643 -1.0498 -0.9502
  881MOL0     N16177   0.029  11.624   2.184  0.7382  0.0096  0.8128
  881MOL0     C16178   0.015  11.761   2.218  0.0786  1.1188 -0.3446
  881MOL0     C16179  -0.026  11.761   2.344  0.6281 -0.3847  0.5856
  881MOL0     C16180  -0.029  11.886   2.427  0.1160  0.3892  0.0899
  881MOL0     C16181  -0.164  11.951   2.454 -0.0618  0.1422 -0.3946
  881MOL0     C16182  -0.242  11.872   2.554  0.4393  0.4507  0.1066
  881MOL0     C16183  -0.392  11.893   2.566  0.2926 -0.6695  0.4846
  881MOL0     O16184  -0.413  12.025   2.621  0.1150  0.6539  0.4282
  881MOL0     C16185  -0.537  12.081   2.627  0.1228  0.5877  0.1205
  881MOL0     C16186  -0.647  12.010   2.629  0.6435  0.0694  0.5394
  881MOL0     C16187  -0.775  12.067   2.645 -0.3618  0.2190  0.0283
  881MOL0     C16188  -0.792  12.208   2.653  0.1140  0.6881 -0.2082
  881MOL0     C16189  -0.930  12.271   2.661 -0.4786 -0.2259 -0.4318
  881MOL0     O16190  -0.934  12.406   2.671 -0.1819 -0.3311 -0.5836
  881MOL0     C16191  -1.052  12.470   2.668 -0.3337 -0.3802  0.6234
  881MOL0     C16192  -1.146  12.424   2.577 -0.0531 -0.3910  0.1039
  881MOL0     C16193  -1.270  12.476   2.575  0.8818 -0.4096  0.8750
  881MOL0     C16194  -1.304  12.592   2.648  0.9856  0.5300  0.3947
  881MOL0     O16195  -1.430  12.652   2.639 -0.1878 -0.0567  0.1201
  881MOL0     C16196  -1.483  12.655   2.503  0.7437  0.1309 -0.1908
  881MOL0     C16197  -1.585  12.767   2.485 -0.8766 -0.1780 -0.7343
  881MOL0     C16198  -1.639  12.759   2.349 -0.0434  0.3908  0.1272
  881MOL0     C16199  -1.698  12.893   2.320  0.2997 -0.5160  0.5129
  881MOL0     C16200  -1.790  12.881   2.196  0.0849  0.4737  0.3923
  881MOL0     C16201  -1.902  12.982   2.215  0.4244  0.8765  0.0034
  881MOL0     C16202  -1.855  13.129   2.217  0.6670 -0.6514  0.3523
  881MOL0     C16203  -1.971  13.227   2.212  1.3551  0.5917  0.4905
  881MOL0    Cl16204  -2.069  13.245   2.358 -0.0265  0.1386  0.3338
  881MOL0     C16205  -1.208  12.651   2.731  0.0952  1.0854  0.0796
  881MOL0     C16206  -1.079  12.592   2.737 -0.0960 -0.2701 -0.2072
  881MOL0     O16207  -1.028  12.196   2.671 -0.5877  0.1319 -0.2520
  881MOL0     C16208  -0.670  12.277   2.651 -0.0243  0.1758 -0.6004
  881MOL0     C16209  -0.544  12.216   2.635 -0.1435  0.2908  0.0309
  881MOL0     N16210  -0.032  11.627   2.385 -0.4102  0.4909 -0.5909
  881MOL0     N16211  -0.005  11.543   2.290 -0.5034  0.1309  0.3472
  881MOL0     C16212   0.536  11.183   1.229  0.2244  0.1274  0.6001
  881MOL0     C16213   0.641  11.196   1.133  0.2258 -0.6602  0.4115
  881MOL0     C16214   0.876  11.204   0.756 -0.0877  0.2443  0.0935
  881MOL0     C16215   0.953  11.113   0.690  0.0828  0.7316 -0.9634
  881MOL0     C16216   1.019  11.157   0.575  0.7208 -0.1323 -0.8942
  881MOL0     C16217   1.006  11.283   0.515 -0.2045 -0.0258 -0.1354
  881MOL0     O16218   1.064  11.322   0.395  0.0806 -0.4756  0.1695
  881MOL0     C16219   1.161  11.239   0.331  0.1852  0.0260 -0.2951
  881MOL0     C16220   1.281  11.324   0.275  0.4084 -0.5236  0.6292
  881MOL0     C16221   1.353  11.411   0.377  0.7161  0.6947  0.8310
  881MOL0     C16222   1.443  11.339   0.472 -0.1105 -0.0226  0.2863
  881MOL0     C16223   1.559  11.274   0.406  0.5874 -0.1381  0.2505
  881MOL0     C16224   1.649  11.238   0.340  0.2814 -0.4493 -0.6491
  881MOL0     C16225   0.930  11.372   0.587  0.4902  1.1184  0.3388
  881MOL0     C16226   0.875  11.339   0.703  0.2862 -0.0212  0.7401
  881MOL0     H16227   0.465  11.335   0.879  0.7914  1.3011 -1.1131
  881MOL0     H16228   0.280  11.279   1.024 -0.8921 -2.4457  0.5193
  881MOL0     H16229   0.356  11.305   1.427  1.5110  0.4565 -2.9704
  881MOL0     H16230   0.384  11.125   1.449 -0.3249 -1.6499 -3.1963
  881MOL0     H16231   0.184  11.086   1.540 -2.2797  1.5476  3.1345
  881MOL0     H16232   0.104  11.223   1.470  1.0666  0.2320  0.7097
  881MOL0     H16233   0.247  11.387   1.610  0.2030 -0.4185 -0.0738
  881MOL0     H16234   0.323  11.255   1.690  0.1970  0.7647  0.0689
  881MOL0     H16235   0.024  11.285   1.701 -1.6226 -1.4800  0.8691
  881MOL0     H16236   0.123  11.160   1.774 -1.0390  0.3707  2.5993
  881MOL0     H16237   0.207  11.341   1.935  1.0143 -0.9515 -1.7957
  881MOL0     H16238   0.049  11.299   1.952  0.8750 -0.7332  0.1130
  881MOL0     H16239   0.018  11.489   1.757  0.4518 -1.0627  0.7445
  881MOL0     H16240   0.177  11.548   1.798  0.8027 -0.1954  0.6852
  881MOL0     H16241   0.018  11.675   1.925  0.1614  0.0036 -0.3074
  881MOL0     H16242  -0.060  11.519   1.967  0.2415 -1.0446 -1.6398
  881MOL0     H16243   0.211  11.623   2.072  0.0774 -1.6373  3.9711
  881MOL0     H16244   0.157  11.465   2.106 -1.1787 -1.3524 -1.7228
  881MOL0     H16245   0.040  11.845   2.153 -0.5463  1.2988 -0.3575
  881MOL0     H16246   0.029  11.958   2.369 -0.2826  0.3913 -0.3136
  881MOL0     H16247   0.025  11.873   2.521  4.0633 -3.1581 -2.3337
  881MOL0     H16248  -0.212  11.953   2.355 -1.0196  2.6159  0.0434
  881MOL0     H16249  -0.147  12.056   2.482 -3.0822  0.1789  1.7183
  881MOL0     H16250  -0.243  11.771   2.512 -1.5752 -0.0946  1.3148
  881MOL0     H16251  -0.192  11.859   2.650  0.1833  0.6229  0.2631
  881MOL0     H16252  -0.442  11.823   2.633 -0.1808 -0.7405  0.0613
  881MOL0     H16253  -0.444  11.881   2.470  1.7026  0.4040 -0.4576
  881MOL0     H16254  -0.652  11.901   2.634 -1.2725  0.1652  3.6107
  881MOL0     H16255  -0.861  12.001   2.648  0.9972 -1.9050 -2.8922
  881MOL0     H16256  -1.137  12.343   2.506  1.1699 -0.7486  0.6428
  881MOL0     H16257  -1.346  12.426   2.516 -3.8146  0.1293  5.7728
  881MOL0     H16258  -1.522  12.556   2.478  3.0455 -1.0578  0.6177
  881MOL0     H16259  -1.402  12.676   2.432  1.1364 -1.2048 -0.1603
  881MOL0     H16260  -1.521  12.853   2.506 -0.4827 -1.1198  2.3534
  881MOL0     H16261  -1.665  12.785   2.557 -0.8156  1.2668 -1.0021
  881MOL0     H16262  -1.704  12.673   2.340  2.1709 -1.7033  2.3492
  881MOL0     H16263  -1.559  12.740   2.277 -1.0240  0.5415 -1.0188
  881MOL0     H16264  -1.767  12.920   2.400  0.1947  0.1856  0.1917
  881MOL0     H16265  -1.635  12.983   2.319 -1.9923  1.1641 -0.0907
  881MOL0     H16266  -1.828  12.779   2.196  3.0123 -0.8295 -2.9095
  881MOL0     H16267  -1.723  12.891   2.109  1.3193  0.6698  1.3302
  881MOL0     H16268  -1.962  12.962   2.304  0.0755 -1.1025 -0.6271
  881MOL0     H16269  -1.973  12.979   2.132 -0.2880  1.1935  0.5921
  881MOL0     H16270  -1.804  13.148   2.312  1.3439  2.3092 -0.5077
  881MOL0     H16271  -1.783  13.148   2.137  0.2313  1.0949  0.3435
  881MOL0     H16272  -2.029  13.192   2.127  0.6570  0.6540  0.9351
  881MOL0     H16273  -1.949  13.333   2.193 -1.9535  1.6927  2.0281
  881MOL0     H16274  -1.229  12.745   2.781 -1.5687  1.4240 -1.1262
  881MOL0     H16275  -0.999  12.644   2.788 -1.3227  0.9071  0.5826
  881MOL0     H16276  -0.671  12.384   2.667  0.3781  0.3658 -1.7507
  881MOL0     H16277  -0.447  12.264   2.643  1.0747 -1.8249 -1.1372
  881MOL0     H16278   0.560  11.122   1.316  0.3778 -1.5095 -0.5413
  881MOL0     H16279   0.746  11.171   1.143  1.2851  2.3253 -1.7967
  881MOL0     H16280   0.969  11.010   0.720 -1.3675  0.7785  0.0678
  881MOL0     H16281   1.083  11.084   0.527  0.1728  0.3935 -2.4900
  881MOL0     H16282   1.105  11.188   0.252 -1.3251  5.0240 -2.8363
  881MOL0     H16283   1.202  11.168   0.404 -3.0872  1.4514  3.2629
  881MOL0     H16284   1.354  11.268   0.216 -0.9191 -2.5704  0.8296
  881MOL0     H16285   1.230  11.400   0.214  1.6769 -0.1096  0.0396
  881MOL0     H16286   1.286  11.482   0.425  0.8919  2.1819 -1.0017
  881MOL0     H16287   1.418  11.467   0.309  0.8646  0.9054  1.1442
  881MOL0     H16288   1.473  11.411   0.549  1.4537  1.8566 -1.9165
  881MOL0     H16289   1.389  11.253   0.512 -0.0373 -0.3637 -0.3327
  881MOL0     H16290   1.727  11.197   0.280 -0.4276 -0.7189 -1.4137
  881MOL0     H16291   0.907  11.470   0.545 -1.2496 -0.1021 -1.7672
  881MOL0     H16292   0.814  11.417   0.747 -3.2802 -1.9961 -0.3283
  882MOL0     O16293   1.726  10.131   3.897 -0.8961  0.0456  0.0075
  882MOL0     C16294   1.810  10.119   3.805 -0.2194 -0.1965 -0.0958
  882MOL0     O16295   1.800  10.029   3.700  1.0653 -0.5742 -0.7648
  882MOL0     C16296   1.677   9.963   3.684 -0.0721  0.0792 -0.6984
  882MOL0     C16297   1.655   9.840   3.747  0.5832 -0.3860 -0.6235
  882MOL0     C16298   1.529   9.780   3.732 -0.4141  0.9676 -0.0873
  882MOL0     C16299   1.445   9.837   3.644  0.4162  0.4133 -0.4961
  882MOL0     O16300   1.331   9.769   3.628  0.1791  0.2917  0.5997
  882MOL0     C16301   1.216   9.851   3.575  0.2684 -0.5986 -0.3345
  882MOL0     C16302   1.087   9.778   3.603  0.1086 -0.2539  0.2007
  882MOL0     C16303   0.962   9.839   3.554  0.1470  0.0422 -0.8803
  882MOL0     C16304   0.845   9.750   3.615  0.0769 -0.1186 -0.0591
  882MOL0     C16305   0.708   9.793   3.570  0.8176 -0.0343 -0.1807
  882MOL0     C16306   0.593   9.718   3.635 -0.0813  0.2111 -0.7432
  882MOL0     C16307   0.463   9.795   3.614 -0.4626 -0.3933 -0.0760
  882MOL0     C16308   0.402   9.809   3.476 -0.1810 -0.4347  0.8071
  882MOL0     N16309   0.282   9.880   3.493  1.0681 -0.5870 -0.5130
  882MOL0     C16310   0.271  10.020   3.505 -0.5106  0.7093 -0.8111
  882MOL0     C16311   0.140  10.048   3.494  0.4583 -0.6707 -0.6132
  882MOL0     C16312   0.075  10.185   3.521  0.2751  0.6127 -0.1890
  882MOL0     C16313  -0.077  10.185   3.495  0.1088  0.1010 -0.0573
  882MOL0     C16314  -0.141  10.305   3.548  0.5999  0.2539  0.9267
  882MOL0     C16315  -0.293  10.304   3.498  0.7737  0.0715 -0.5185
  882MOL0     O16316  -0.356  10.178   3.529 -0.0532 -0.0979 -0.0732
  882MOL0     C16317  -0.488  10.189   3.525 -0.1224 -1.1274  0.1367
  882MOL0     C16318  -0.559  10.178   3.411  0.7016  0.3956 -0.0046
  882MOL0     C16319  -0.703  10.191   3.417 -0.1204 -0.0480 -0.6908
  882MOL0     C16320  -0.769  10.226   3.538 -0.8668  1.3998  0.4045
  882MOL0     C16321  -0.912  10.252   3.548  0.0875  0.7324  0.1686
  882MOL0     O16322  -0.988  10.207   3.433  0.1166 -0.2424 -0.9449
  882MOL0     C16323  -1.113  10.258   3.411 -0.2338 -0.7958  1.6136
  882MOL0     C16324  -1.184  10.348   3.488  0.8570 -0.0596 -0.7027
  882MOL0     C16325  -1.310  10.395   3.468  0.0277  0.2799  0.1428
  882MOL0     C16326  -1.373  10.356   3.351 -0.8516  0.0654  0.3582
  882MOL0     O16327  -1.502  10.385   3.319  0.4675  0.3866 -0.2414
  882MOL0     C16328  -1.569  10.478   3.407 -0.8463 -0.1495 -0.1298
  882MOL0     C16329  -1.708  10.514   3.372 -0.3734  0.1139  0.2401
  882MOL0     C16330  -1.791  10.390   3.378  0.6132  0.0611 -0.1768
  882MOL0     C16331  -1.944  10.413   3.350  0.0447 -0.6083 -0.7797
  882MOL0     C16332  -2.016  10.281   3.372  0.4628 -0.2173  0.1463
  882MOL0     C16333  -2.168  10.309   3.372 -0.8372  1.1677  0.2510
  882MOL0     C16334  -2.257  10.180   3.381 -0.6124 -0.0687  0.1200
  882MOL0     C16335  -2.388  10.201   3.307  0.4885 -0.4910  0.1734
  882MOL0    Cl16336  -2.478  10.340   3.371  0.5581 -0.3341  0.4122
  882MOL0     C16337  -1.299  10.270   3.259  0.0284  0.6911  0.2627
  882MOL0     C16338  -1.171  10.220   3.286 -0.2392 -0.8584 -0.6923
  882MOL0     O16339  -0.950  10.310   3.650 -0.7348 -0.0914 -0.4993
  882MOL0     C16340  -0.690  10.227   3.661 -1.9535 -0.5566 -0.8145
  882MOL0     C16341  -0.550  10.200   3.648 -0.4414 -0.0615 -0.2392
  882MOL0     N16342   0.071   9.929   3.473  0.3691 -0.3131  0.1770
  882MOL0     N16343   0.155   9.831   3.475  0.6064  0.0700 -0.8663
  882MOL0     C16344   1.476   9.950   3.566 -0.1617 -0.7611  0.2520
  882MOL0     C16345   1.594  10.014   3.590  0.3178  0.7481  0.2096
  882MOL0     C16346   1.931  10.198   3.821  0.2234  0.3903 -0.4523
  882MOL0     C16347   2.049  10.138   3.773 -0.1967 -0.2279 -0.9793
  882MOL0     C16348   2.173  10.200   3.806  0.2699  0.0713 -0.3627
  882MOL0     C16349   2.176  10.320   3.876  0.3045  0.0175  0.8205
  882MOL0     O16350   2.289  10.391   3.903 -0.4791  0.8149 -0.2594
  882MOL0     C16351   2.416  10.323   3.925 -1.0018 -0.6706 -0.0221
  882MOL0     C16352   2.499  10.367   3.807 -0.6115  0.0903  0.8804
  882MOL0     C16353   2.583  10.486   3.840  1.0733  0.7498  0.3687
  882MOL0     C16354   2.666  10.531   3.718 -0.8688  0.5157 -0.9496
  882MOL0     C16355   2.590  10.568   3.604  0.2542 -0.4466 -0.0387
  882MOL0     C16356   2.516  10.606   3.510  0.4644 -0.2499 -0.9874
  882MOL0     C16357   2.052  10.377   3.905  0.4639 -0.6077  0.0279
  882MOL0     C16358   1.929  10.316   3.888 -0.4393  0.1736 -0.4313
  882MOL0     H16359   1.726   9.789   3.812 -2.0238 -0.4053  2.4563
  882MOL0     H16360   1.496   9.685   3.774  2.7135 -1.4375 -2.6125
  882MOL0     H16361   1.225   9.860   3.466  1.7421 -1.3502 -0.2943
  882MOL0     H16362   1.207   9.948   3.623 -3.0357 -0.2487 -1.3539
  882MOL0     H16363   1.091   9.752   3.709  2.1896  2.0385  0.7937
  882MOL0     H16364   1.100   9.680   3.555 -0.4956  0.2325 -1.0106
  882MOL0     H16365   0.946   9.851   3.446 -1.1251 -0.1682 -0.7402
  882MOL0     H16366   0.955   9.940   3.597 -0.7223  0.9422 -2.9682
  882MOL0     H16367   0.861   9.644   3.590  2.8491  0.3960 -0.7143
  882MOL0     H16368   0.850   9.753   3.724  1.3707  1.4255 -0.1442
  882MOL0     H16369   0.701   9.794   3.461 -1.7763 -3.7923 -0.2440
  882MOL0     H16370   0.707   9.896   3.608  1.1316 -0.5517  1.3254
  882MOL0     H16371   0.614   9.703   3.742 -3.0079  0.3410 -0.0584
  882MOL0     H16372   0.584   9.614   3.600 -0.6078 -1.1801  3.0214
  882MOL0     H16373   0.388   9.736   3.668  0.9198 -1.1304  1.1280
  882MOL0     H16374   0.476   9.892   3.662  1.6510 -0.8095  0.3174
  882MOL0     H16375   0.388   9.713   3.426  2.6043  0.5340 -2.1413
  882MOL0     H16376   0.477   9.871   3.426  1.0824 -2.6950 -0.2598
  882MOL0     H16377   0.349  10.090   3.536  0.5344 -0.8343  0.2358
  882MOL0     H16378   0.118  10.249   3.444 -0.7479 -0.0309 -1.3485
  882MOL0     H16379   0.087  10.221   3.623 -1.2081  0.6118  0.0085
  882MOL0     H16380  -0.115  10.091   3.537  5.2007 -2.6868 -0.7885
  882MOL0     H16381  -0.104  10.175   3.389 -1.1102  1.9958  0.0326
  882MOL0     H16382  -0.144  10.303   3.657 -4.0719 -0.8415  0.9829
  882MOL0     H16383  -0.089  10.396   3.517 -0.0100 -0.0901 -1.2385
  882MOL0     H16384  -0.304  10.329   3.393  0.1196  1.4887 -0.1364
  882MOL0     H16385  -0.350  10.385   3.546  0.9995 -0.8186  1.3374
  882MOL0     H16386  -0.526  10.157   3.310 -1.7569 -1.0299 -0.5863
  882MOL0     H16387  -0.755  10.190   3.322 -1.5837  1.2222  0.0473
  882MOL0     H16388  -1.140  10.395   3.575 -0.6306  2.0680 -1.0283
  882MOL0     H16389  -1.349  10.458   3.548 -1.0266 -1.9297  1.4741
  882MOL0     H16390  -1.512  10.572   3.405 -1.6400  0.3242 -0.8874
  882MOL0     H16391  -1.576  10.430   3.505  0.2399  0.5831  0.3334
  882MOL0     H16392  -1.714  10.557   3.272  1.4410 -0.2217 -0.0639
  882MOL0     H16393  -1.755  10.582   3.443  0.4821  0.4081  0.5421
  882MOL0     H16394  -1.784  10.344   3.477 -2.8278  1.8712  1.0724
  882MOL0     H16395  -1.765  10.317   3.301 -1.1397 -0.2932 -0.4769
  882MOL0     H16396  -1.982  10.485   3.423 -1.6695 -1.0656 -1.1707
  882MOL0     H16397  -1.965  10.452   3.250 -0.1971 -1.5195 -1.0981
  882MOL0     H16398  -1.984  10.242   3.470 -2.5533  0.2395  1.4090
  882MOL0     H16399  -1.989  10.208   3.295 -2.0490 -1.3937  0.2843
  882MOL0     H16400  -2.192  10.355   3.275 -2.3683 -0.5791 -0.2702
  882MOL0     H16401  -2.199  10.371   3.456 -2.5369 -1.0393  1.3484
  882MOL0     H16402  -2.196  10.102   3.335  0.7638 -0.1439  1.9381
  882MOL0     H16403  -2.265  10.153   3.487  2.2830 -0.1839  0.4029
  882MOL0     H16404  -2.452  10.113   3.325 -2.7070  1.7098  0.3417
  882MOL0     H16405  -2.373  10.220   3.201 -3.0225 -0.8922 -0.5399
  882MOL0     H16406  -1.348  10.242   3.166  0.5894  2.9821 -0.7869
  882MOL0     H16407  -1.119  10.156   3.215 -2.7599 -2.1440 -1.4814
  882MOL0     H16408  -0.746  10.239   3.753  0.6173 -0.5179  0.8457
  882MOL0     H16409  -0.494  10.200   3.741  0.5760  1.3679 -0.8159
  882MOL0     H16410   1.412   9.991   3.489  1.1961 -0.2602 -0.6498
  882MOL0     H16411   1.604  10.095   3.519 -3.7263  3.0451  1.9324
  882MOL0     H16412   2.051  10.042   3.723 -1.4824 -1.2743  0.8945
  882MOL0     H16413   2.264  10.143   3.792  0.7612 -0.1003  2.6830
  882MOL0     H16414   2.420  10.215   3.941  0.1775 -0.6900 -0.4074
  882MOL0     H16415   2.460  10.365   4.016  1.3840  1.9464 -2.2224
  882MOL0     H16416   2.564  10.285   3.775  1.8403  1.8955  0.9105
  882MOL0     H16417   2.431  10.386   3.724 -3.8457 -0.9093  3.1197
  882MOL0     H16418   2.641  10.467   3.931 -0.4973 -0.7198  1.1185
  882MOL0     H16419   2.519  10.573   3.857  1.5754  0.8151  2.1923
  882MOL0     H16420   2.715  10.620   3.758 -1.6156  1.0572 -1.2237
  882MOL0     H16421   2.743  10.458   3.689 -0.6853  1.0597 -1.8843
  882MOL0     H16422   2.464  10.624   3.419 -2.2440 -0.6356  0.3795
  882MOL0     H16423   2.049  10.473   3.955  0.0557 -1.9283  2.7349
  882MOL0     H16424   1.836  10.368   3.906  1.0267  2.5661  0.5949
  883MOL0     O16425   8.031  10.486   6.746 -0.3584  0.3996 -0.2142
  883MOL0     C16426   8.117  10.406   6.786 -0.2662  0.5545  0.8793
  883MOL0     O16427   8.101  10.276   6.819 -0.5955  0.8280 -0.1368
  883MOL0     C16428   7.979  10.243   6.844  0.1723 -1.3138 -0.5714
  883MOL0     C16429   7.912  10.301   6.953  0.3610  0.3841  0.5192
  883MOL0     C16430   7.780  10.280   6.961 -0.2974  0.6726  0.1228
  883MOL0     C16431   7.715  10.190   6.873 -0.8036 -0.0631 -0.2632
  883MOL0     O16432   7.586  10.161   6.895 -0.0829 -0.2879 -0.8456
  883MOL0     C16433   7.496  10.227   6.806  0.5467 -0.0586 -0.0518
  883MOL0     C16434   7.362  10.257   6.881  0.0598 -0.5100 -0.5121
  883MOL0     C16435   7.256  10.332   6.793  1.0281  1.0302  0.1162
  883MOL0     C16436   7.134  10.384   6.884 -0.7457  0.1735 -0.4797
  883MOL0     C16437   7.021  10.425   6.789 -0.1793  0.6164  0.5285
  883MOL0     C16438   6.972  10.325   6.686 -0.6719 -0.7307 -0.8309
  883MOL0     C16439   6.917  10.190   6.756 -0.0403 -0.1889  0.5842
  883MOL0     C16440   6.800  10.211   6.853  1.0383 -0.1048 -0.1787
  883MOL0     N16441   6.675  10.270   6.785 -0.0368  0.3072 -0.5735
  883MOL0     C16442   6.646  10.401   6.786 -0.2632  0.3170 -0.3422
  883MOL0     C16443   6.527  10.410   6.722  0.5310  0.1713 -1.4149
  883MOL0     C16444   6.467  10.539   6.676  0.1035 -0.9426  0.8960
  883MOL0     C16445   6.319  10.516   6.636 -0.4800 -0.4055  1.1712
  883MOL0     C16446   6.307  10.486   6.479 -0.1344  0.2488 -0.8671
  883MOL0     C16447   6.189  10.393   6.442  0.6958  0.1370 -0.6559
  883MOL0     O16448   6.062  10.457   6.468 -0.3463  0.3715  0.1063
  883MOL0     C16449   5.967  10.412   6.558  0.4712 -0.0977 -0.5820
  883MOL0     C16450   5.837  10.460   6.540  0.5458 -1.1348  0.3125
  883MOL0     C16451   5.724  10.411   6.620 -0.2617  0.1352 -0.2403
  883MOL0     C16452   5.750  10.318   6.728 -0.2694 -0.4577 -0.8988
  883MOL0     C16453   5.640  10.267   6.822  0.4244 -0.9683  0.6012
  883MOL0     O16454   5.671  10.194   6.935 -0.0624 -0.1575 -0.3879
  883MOL0     C16455   5.576  10.169   7.031 -0.4185  0.4488 -0.6092
  883MOL0     C16456   5.544  10.251   7.138  0.6596 -0.4594  0.3439
  883MOL0     C16457   5.450  10.216   7.233 -1.3088 -0.2934 -0.3128
  883MOL0     C16458   5.381  10.094   7.223 -1.0184  0.0332  0.0936
  883MOL0     O16459   5.298  10.040   7.311  0.1232 -0.2195  0.3826
  883MOL0     C16460   5.231  10.134   7.396 -0.1145 -0.2645 -0.2073
  883MOL0     C16461   5.138  10.059   7.488  0.3310  0.2067 -0.1435
  883MOL0     C16462   5.205  10.019   7.616  1.0207  0.2123 -1.3044
  883MOL0     C16463   5.132   9.901   7.687  0.2258  1.2013 -0.3118
  883MOL0     C16464   5.201   9.864   7.826 -0.2585 -0.6166  0.7725
  883MOL0     C16465   5.114   9.747   7.894 -0.0402  0.0556  0.4277
  883MOL0     C16466   5.053   9.631   7.820  0.7921  0.7460 -0.0578
  883MOL0     C16467   5.154   9.540   7.761  0.1518  0.3668  0.1573
  883MOL0    Cl16468   5.069   9.404   7.692  0.4695 -0.0057  0.3396
  883MOL0     C16469   5.411  10.018   7.112 -0.0120 -0.1147  0.4650
  883MOL0     C16470   5.504  10.055   7.019 -0.6926  0.2288 -0.0915
  883MOL0     O16471   5.527  10.304   6.798  0.2454 -0.5915  0.2168
  883MOL0     C16472   5.892  10.282   6.753  0.5314 -0.0862  0.3301
  883MOL0     C16473   5.993  10.311   6.658  0.2045  0.0455  0.3173
  883MOL0     N16474   6.487  10.284   6.681  1.0101  0.8571 -0.5593
  883MOL0     N16475   6.577  10.199   6.731  0.3157 -0.8344  0.7148
  883MOL0     C16476   7.774  10.124   6.774 -0.3528 -0.1368  0.8752
  883MOL0     C16477   7.904  10.163   6.752 -0.2879 -0.2043  0.4988
  883MOL0     C16478   8.263  10.449   6.792  0.8364 -0.0112 -0.9119
  883MOL0     C16479   8.359  10.367   6.845 -0.4394  0.1899 -0.3289
  883MOL0     C16480   8.499  10.399   6.843  0.3113 -0.7824 -0.2252
  883MOL0     C16481   8.541  10.519   6.794  1.0079  0.5820  0.7761
  883MOL0     O16482   8.676  10.536   6.812  0.4337  0.7647  0.0739
  883MOL0     C16483   8.724  10.661   6.750 -0.0122 -0.1276 -0.0508
  883MOL0     C16484   8.875  10.676   6.793  0.0582 -0.2869  0.4517
  883MOL0     C16485   8.897  10.823   6.778  0.7157  0.2087 -0.6178
  883MOL0     C16486   9.037  10.864   6.817  0.2107  0.0024 -0.5376
  883MOL0     C16487   9.049  10.909   6.959  0.6138  0.8930  0.4619
  883MOL0     C16488   9.053  10.934   7.079 -0.4361  0.5493 -0.5874
  883MOL0     C16489   8.445  10.602   6.733 -0.2780 -0.8306  0.4108
  883MOL0     C16490   8.307  10.578   6.750 -0.8867 -0.4244 -0.0017
  883MOL0     H16491   7.960  10.364   7.027  3.0732 -0.0201 -0.8033
  883MOL0     H16492   7.731  10.329   7.045  1.1342  2.5986 -0.0914
  883MOL0     H16493   7.470  10.160   6.724 -1.2994 -2.3028  2.1889
  883MOL0     H16494   7.541  10.317   6.762  0.3440 -1.5619 -3.6525
  883MOL0     H16495   7.398  10.316   6.966 -2.5939  0.8772 -0.2358
  883MOL0     H16496   7.308  10.166   6.910 -2.1932  0.4310 -1.4496
  883MOL0     H16497   7.225  10.263   6.715  0.2773  1.8585 -0.3321
  883MOL0     H16498   7.310  10.403   6.729  0.5636 -1.3714 -3.1742
  883MOL0     H16499   7.105  10.304   6.953 -1.7967  0.1334 -0.9549
  883MOL0     H16500   7.163  10.471   6.942 -0.9593 -0.5165  0.6988
  883MOL0     H16501   7.043  10.518   6.737 -2.4882  2.5055  2.6646
  883MOL0     H16502   6.938  10.453   6.856 -0.6077 -1.4193  0.9198
  883MOL0     H16503   7.056  10.307   6.619  0.3712 -4.2829  1.1256
  883MOL0     H16504   6.896  10.366   6.619 -1.8935 -2.2702 -0.4619
  883MOL0     H16505   6.882  10.117   6.683  2.8269 -2.8648  1.6840
  883MOL0     H16506   7.004  10.151   6.811  0.6417 -0.0273 -0.3591
  883MOL0     H16507   6.826  10.273   6.939 -0.0843  0.7852 -0.4547
  883MOL0     H16508   6.784  10.108   6.886  0.7200 -0.1466 -0.4577
  883MOL0     H16509   6.711  10.488   6.795  1.3746 -0.3843 -3.6399
  883MOL0     H16510   6.526  10.565   6.588  5.2884 -3.0725  3.3072
  883MOL0     H16511   6.480  10.617   6.751 -1.4203  0.1249  0.1152
  883MOL0     H16512   6.267  10.610   6.656  1.0867  1.2577 -1.9575
  883MOL0     H16513   6.265  10.436   6.688 -0.0464 -2.5548 -1.4573
  883MOL0     H16514   6.309  10.582   6.428 -1.7228 -0.1932 -1.8380
  883MOL0     H16515   6.392  10.425   6.447 -0.8748  0.0281 -2.5215
  883MOL0     H16516   6.194  10.296   6.493 -0.8743  0.9518  1.1482
  883MOL0     H16517   6.193  10.364   6.337  0.5048 -1.8267 -0.1749
  883MOL0     H16518   5.815  10.531   6.462  0.6265 -1.7419 -0.2790
  883MOL0     H16519   5.622  10.443   6.606 -0.3742  0.4534  1.1353
  883MOL0     H16520   5.598  10.344   7.150  0.9886 -0.7399  1.1136
  883MOL0     H16521   5.443  10.290   7.312  1.6856 -0.6813  0.4392
  883MOL0     H16522   5.168  10.200   7.336 -0.7409 -1.4799 -0.9447
  883MOL0     H16523   5.292  10.186   7.470 -0.9855 -2.8448  2.4967
  883MOL0     H16524   5.085   9.977   7.439 -0.5967  1.0578 -0.6101
  883MOL0     H16525   5.063  10.130   7.522  0.2190  0.4710 -0.9269
  883MOL0     H16526   5.188  10.111   7.672 -0.0971 -0.5819 -0.2661
  883MOL0     H16527   5.312   9.999   7.617  1.1308  0.6223 -2.7946
  883MOL0     H16528   5.027   9.926   7.705  0.1169  2.4533 -2.3173
  883MOL0     H16529   5.134   9.814   7.621  2.1617 -2.1531  3.7121
  883MOL0     H16530   5.205   9.945   7.900 -0.0636 -2.1626  2.5167
  883MOL0     H16531   5.304   9.830   7.811  0.0168  0.1750  0.7853
  883MOL0     H16532   5.026   9.793   7.941 -0.8839 -1.4763  0.4029
  883MOL0     H16533   5.187   9.705   7.964  1.2443 -2.0334 -2.0182
  883MOL0     H16534   5.000   9.584   7.903  5.2689 -0.8184  2.2334
  883MOL0     H16535   4.981   9.663   7.744 -0.6432 -0.7289  0.6099
  883MOL0     H16536   5.221   9.507   7.840 -1.3660 -1.9094  0.5664
  883MOL0     H16537   5.200   9.597   7.679 -1.4704 -2.0964 -2.6830
  883MOL0     H16538   5.358   9.924   7.102 -0.0666  0.0023 -0.3832
  883MOL0     H16539   5.518  10.001   6.926  0.2115  2.9951 -1.6628
  883MOL0     H16540   5.910  10.222   6.842  0.5570  1.6293  1.5416
  883MOL0     H16541   6.091  10.275   6.690 -0.7787 -0.7317  2.6958
  883MOL0     H16542   7.735  10.041   6.717 -0.9140 -2.1079  3.9072
  883MOL0     H16543   7.946  10.131   6.658  0.5364 -0.4993  0.9556
  883MOL0     H16544   8.331  10.272   6.890 -1.4214  1.4459  1.8791
  883MOL0     H16545   8.583  10.348   6.888 -0.1157 -0.8517  0.5151
  883MOL0     H16546   8.660  10.742   6.786 -0.7634 -0.0122 -1.5927
  883MOL0     H16547   8.723  10.654   6.641  1.8325  3.4027 -0.4213
  883MOL0     H16548   8.892  10.644   6.896 -0.2187  0.8811  0.8793
  883MOL0     H16549   8.935  10.619   6.722 -2.7304 -5.9349  2.0900
  883MOL0     H16550   8.828  10.880   6.841  1.0901  3.0361 -2.5850
  883MOL0     H16551   8.888  10.850   6.673  1.4985 -1.4355 -1.1409
  883MOL0     H16552   9.106  10.782   6.795  0.4371 -0.0736  0.4208
  883MOL0     H16553   9.062  10.957   6.764  0.0986 -0.3033 -1.1420
  883MOL0     H16554   9.060  10.963   7.182 -0.3354  1.3436 -0.8096
  883MOL0     H16555   8.481  10.693   6.685  2.4195 -2.1624 -0.2767
  883MOL0     H16556   8.242  10.646   6.697  0.1016 -0.1603 -0.9179
  884MOL0     O16557  11.041  11.235   3.408 -0.9070 -0.1266 -0.4605
  884MOL0     C16558  11.021  11.152   3.316 -0.5700 -0.6612 -0.1242
  884MOL0     O16559  10.902  11.093   3.289 -0.4500 -0.4588 -0.1386
  884MOL0     C16560  10.795  11.117   3.363  0.0349  0.0496 -0.1085
  884MOL0     C16561  10.705  11.221   3.330 -0.0626  0.0134  0.3085
  884MOL0     C16562  10.592  11.227   3.412  0.3914 -1.5418 -0.4226
  884MOL0     C16563  10.565  11.144   3.516  0.9511 -0.5590  1.0447
  884MOL0     O16564  10.449  11.168   3.580 -0.2809 -0.3284 -0.3364
  884MOL0     C16565  10.430  11.096   3.708 -0.1947  0.5251 -0.0265
  884MOL0     C16566  10.336  11.176   3.800  0.3271 -0.5424 -0.0906
  884MOL0     C16567  10.292  11.092   3.932  0.1148  0.4264 -0.4025
  884MOL0     C16568  10.158  11.157   3.984 -0.5711  0.0131 -0.3930
  884MOL0     C16569  10.104  11.053   4.090  0.2670 -0.5448  0.6971
  884MOL0     C16570   9.965  11.102   4.122 -0.3744  0.2333 -0.0773
  884MOL0     C16571   9.904  10.992   4.217 -1.3971 -0.5682  0.4151
  884MOL0     C16572   9.883  10.858   4.149 -0.0102 -1.0222  0.2961
  884MOL0     N16573   9.787  10.763   4.203 -0.1966 -0.4735  0.0504
  884MOL0     C16574   9.718  10.767   4.319  0.4366 -0.5104  0.9021
  884MOL0     C16575   9.645  10.656   4.330  0.1304  0.6222 -0.4606
  884MOL0     C16576   9.572  10.618   4.462 -0.5612 -0.2103  0.4919
  884MOL0     C16577   9.430  10.670   4.469 -0.5488  0.3296 -0.0013
  884MOL0     C16578   9.334  10.624   4.359 -0.1396  0.6298 -0.3746
  884MOL0     C16579   9.196  10.697   4.362 -0.8415  0.5866  0.0794
  884MOL0     O16580   9.120  10.654   4.480 -0.4777  0.3632 -0.0708
  884MOL0     C16581   9.043  10.540   4.467 -0.4355 -0.5470 -0.0043
  884MOL0     C16582   9.042  10.445   4.359  0.3674 -0.5308  0.0285
  884MOL0     C16583   8.942  10.348   4.365  0.0571  0.7883 -0.1914
  884MOL0     C16584   8.861  10.327   4.480  0.2294  0.0935  0.6298
  884MOL0     C16585   8.749  10.229   4.470 -0.3087 -0.2955 -0.4883
  884MOL0     O16586   8.649  10.250   4.560 -0.5169  0.3652 -0.5177
  884MOL0     C16587   8.540  10.166   4.576 -0.4421 -0.6871 -0.6279
  884MOL0     C16588   8.556  10.025   4.578  0.6705 -0.6420 -0.3239
  884MOL0     C16589   8.446   9.944   4.588 -0.0985 -0.2025 -0.4803
  884MOL0     C16590   8.317   9.987   4.609  0.2597 -1.0337  0.1371
  884MOL0     O16591   8.199   9.918   4.610  0.6347 -0.3887 -0.0300
  884MOL0     C16592   8.207   9.777   4.590 -0.6445  0.0520 -0.9091
  884MOL0     C16593   8.081   9.708   4.637  0.2144 -0.5617  0.1944
  884MOL0     C16594   7.965   9.748   4.546  0.3254  0.2561 -0.1665
  884MOL0     C16595   7.833   9.676   4.578 -0.1681  0.3372 -0.1564
  884MOL0     C16596   7.751   9.668   4.453 -0.3853  0.8309 -0.4103
  884MOL0     C16597   7.599   9.641   4.483 -0.1981  0.0661  0.5440
  884MOL0     C16598   7.574   9.489   4.515  0.5138  1.0351  0.3830
  884MOL0     C16599   7.428   9.449   4.537  0.6193 -0.5707  0.5997
  884MOL0    Cl16600   7.338   9.468   4.381 -0.3316 -0.3168 -0.2055
  884MOL0     C16601   8.299  10.129   4.612  0.1560  0.6587  0.4330
  884MOL0     C16602   8.403  10.223   4.590  0.2071  0.3467 -0.3299
  884MOL0     O16603   8.763  10.130   4.396 -1.0294 -0.0807  0.1859
  884MOL0     C16604   8.895  10.405   4.595  0.3949  0.6958  0.0341
  884MOL0     C16605   8.980  10.505   4.587  0.5836 -0.2885 -0.3321
  884MOL0     N16606   9.651  10.583   4.215 -0.3101 -0.0362  0.4301
  884MOL0     N16607   9.736  10.650   4.139  0.1611 -0.1975  0.1957
  884MOL0     C16608  10.651  11.040   3.543  0.9186 -1.3163 -0.2832
  884MOL0     C16609  10.776  11.037   3.477  0.8622 -0.4431  0.6314
  884MOL0     C16610  11.130  11.142   3.229 -0.7905  0.1313  0.0898
  884MOL0     C16611  11.223  11.251   3.229 -0.3342 -0.0400  0.9050
  884MOL0     C16612  11.337  11.251   3.142  1.0720  0.5017 -0.4760
  884MOL0     C16613  11.351  11.140   3.050 -0.8713  0.4947  0.1787
  884MOL0     O16614  11.445  11.119   2.952  0.6952  0.3641 -0.4232
  884MOL0     C16615  11.545  11.202   2.914  0.5694 -0.4529 -0.4870
  884MOL0     C16616  11.603  11.168   2.780  0.3912 -0.3718  0.0769
  884MOL0     C16617  11.689  11.281   2.717 -0.7034 -0.4661 -0.2005
  884MOL0     C16618  11.777  11.237   2.601  0.7253  0.2074  0.1848
  884MOL0     C16619  11.883  11.140   2.655  0.1119  0.1312 -0.3092
  884MOL0     C16620  11.971  11.076   2.704 -0.1091 -0.1067 -0.6098
  884MOL0     C16621  11.266  11.030   3.054  1.2821  0.0921  0.2052
  884MOL0     C16622  11.153  11.024   3.145 -0.0183  0.7163  0.6194
  884MOL0     H16623  10.724  11.292   3.251  0.1695 -0.7003 -0.2914
  884MOL0     H16624  10.532  11.318   3.418  0.6845 -1.3588 -0.2182
  884MOL0     H16625  10.520  11.098   3.771 -0.4215  3.0456  0.3082
  884MOL0     H16626  10.384  10.999   3.688 -1.6019  1.3827 -1.1195
  884MOL0     H16627  10.255  11.208   3.734  1.5657  1.4419 -0.7598
  884MOL0     H16628  10.379  11.270   3.838 -3.1837  0.9438  0.6208
  884MOL0     H16629  10.372  11.098   4.006 -0.8889  0.1355  0.7471
  884MOL0     H16630  10.273  10.986   3.915 -5.5066  1.0127  0.1615
  884MOL0     H16631  10.179  11.259   4.015 -1.8750  0.6931 -1.6310
  884MOL0     H16632  10.088  11.159   3.900 -1.6162  0.4767  0.4545
  884MOL0     H16633  10.163  11.040   4.182 -0.4922 -1.1969  1.1034
  884MOL0     H16634  10.092  10.955   4.043  2.6754  0.2107 -1.7802
  884MOL0     H16635   9.901  11.113   4.034 -2.9984  2.3584  1.9170
  884MOL0     H16636   9.964  11.195   4.181 -2.5525 -0.4699  1.1189
  884MOL0     H16637   9.967  10.984   4.306 -0.6438  1.9079  0.1764
  884MOL0     H16638   9.803  11.026   4.240 -1.7693  0.8601 -2.8172
  884MOL0     H16639   9.973  10.796   4.143  1.5511  0.7219  3.6013
  884MOL0     H16640   9.857  10.869   4.043  1.7701 -0.0798 -0.0876
  884MOL0     H16641   9.719  10.845   4.395 -4.4854 -0.5084  1.2993
  884MOL0     H16642   9.629  10.676   4.535 -1.1952  1.4912 -0.2925
  884MOL0     H16643   9.576  10.510   4.478  1.1790 -0.6681 -2.4677
  884MOL0     H16644   9.424  10.779   4.474 -2.9678  0.2095  0.9436
  884MOL0     H16645   9.385  10.645   4.566 -1.7856  1.9633 -0.0970
  884MOL0     H16646   9.374  10.625   4.257 -1.0664 -1.4191 -0.8093
  884MOL0     H16647   9.314  10.518   4.372 -2.6840  0.8979 -1.5306
  884MOL0     H16648   9.154  10.683   4.262  5.1089  2.2954 -3.1647
  884MOL0     H16649   9.207  10.804   4.379 -0.2825  0.9002 -2.0116
  884MOL0     H16650   9.096  10.474   4.269  0.7298  2.4563  1.0823
  884MOL0     H16651   8.927  10.298   4.270  0.6406  0.3845 -0.0771
  884MOL0     H16652   8.656   9.983   4.569  1.6995  1.1973  1.5883
  884MOL0     H16653   8.461   9.837   4.577 -0.9853 -0.3460 -0.3695
  884MOL0     H16654   8.281   9.735   4.659 -0.1781  0.6176 -1.0577
  884MOL0     H16655   8.230   9.753   4.486  0.0807  1.7850 -1.1728
  884MOL0     H16656   8.044   9.742   4.734 -2.2778  0.3652 -0.9701
  884MOL0     H16657   8.085   9.598   4.641  0.7142 -0.5804  4.9179
  884MOL0     H16658   7.997   9.729   4.443  1.4421 -1.5391  0.4660
  884MOL0     H16659   7.948   9.856   4.550 -1.6497 -0.0520  1.1554
  884MOL0     H16660   7.844   9.571   4.606 -1.2651  0.3136  0.2138
  884MOL0     H16661   7.780   9.738   4.651 -1.8694  0.9042 -1.7924
  884MOL0     H16662   7.777   9.582   4.391 -3.0291 -1.0264  0.8776
  884MOL0     H16663   7.760   9.759   4.393 -0.9070  1.7250  0.8320
  884MOL0     H16664   7.544   9.664   4.392  0.1536 -1.7596 -0.1654
  884MOL0     H16665   7.559   9.704   4.563 -2.0561 -0.9527  0.4650
  884MOL0     H16666   7.624   9.420   4.447 -1.5428 -1.2257  1.0225
  884MOL0     H16667   7.614   9.471   4.616 -1.0841 -1.7894  0.6183
  884MOL0     H16668   7.383   9.505   4.619  1.0277  1.8071 -0.6840
  884MOL0     H16669   7.440   9.342   4.556  2.0282 -0.9729 -2.0112
  884MOL0     H16670   8.199  10.167   4.632  1.6097  5.0075  0.3421
  884MOL0     H16671   8.382  10.328   4.603 -2.2428 -0.2879  1.6457
  884MOL0     H16672   8.855  10.379   4.692  0.4912  2.1344  0.4759
  884MOL0     H16673   9.002  10.561   4.678  1.5971 -0.8998 -0.1907
  884MOL0     H16674  10.623  10.956   3.606 -0.9959 -2.7932 -2.8742
  884MOL0     H16675  10.851  10.965   3.507  4.6695  3.0813  0.5033
  884MOL0     H16676  11.211  11.340   3.290 -0.3480  1.3810 -1.0637
  884MOL0     H16677  11.398  11.341   3.141  3.0707 -0.7693  0.3922
  884MOL0     H16678  11.621  11.204   2.993 -0.8907  0.5939  0.9545
  884MOL0     H16679  11.504  11.303   2.921  1.8323 -0.0226  2.8246
  884MOL0     H16680  11.666  11.079   2.793  1.4599  0.1629 -1.2001
  884MOL0     H16681  11.516  11.134   2.723  0.0513  0.7239 -0.0753
  884MOL0     H16682  11.747  11.326   2.799 -1.4880  0.0758  0.0664
  884MOL0     H16683  11.620  11.359   2.686  1.3431  2.7485  2.6044
  884MOL0     H16684  11.723  11.175   2.529  0.1582  2.5142 -1.5032
  884MOL0     H16685  11.814  11.315   2.532  0.2004 -2.0387 -2.8341
  884MOL0     H16686  12.045  11.008   2.739 -0.1620  0.2135  0.1507
  884MOL0     H16687  11.269  10.959   2.972 -0.0042  2.8017 -2.4075
  884MOL0     H16688  11.092  10.934   3.154  4.5068 -2.5518  1.9809
  885MOL0     O16689   9.241   2.743   7.598 -0.3971 -0.7081  0.7373
  885MOL0     C16690   9.249   2.688   7.706 -0.4855 -0.1698  0.0134
  885MOL0     O16691   9.369   2.670   7.768  0.0811 -0.4015 -0.3566
  885MOL0     C16692   9.487   2.722   7.737 -0.0632  0.0461  0.0450
  885MOL0     C16693   9.516   2.850   7.680 -0.2737  0.5623  0.8959
  885MOL0     C16694   9.648   2.879   7.646  0.0570  0.4963  0.2353
  885MOL0     C16695   9.755   2.802   7.682  0.4511  0.0974 -0.5818
  885MOL0     O16696   9.876   2.848   7.647 -0.7266 -0.2848  0.2425
  885MOL0     C16697   9.921   2.836   7.512 -0.2752 -0.6876 -0.6550
  885MOL0     C16698  10.016   2.952   7.473  0.0971  0.9256  0.4286
  885MOL0     C16699   9.974   3.090   7.502  0.5764 -0.3302  0.0397
  885MOL0     C16700   9.966   3.194   7.391 -1.0184 -0.9878 -0.1048
  885MOL0     C16701   9.863   3.155   7.285  0.1013  0.1152  0.1148
  885MOL0     C16702   9.828   3.264   7.177  0.0349 -0.1041 -0.5183
  885MOL0     C16703   9.951   3.325   7.101  0.3475  0.4981 -0.2997
  885MOL0     C16704  10.023   3.225   7.026  0.1251  0.6241 -1.2547
  885MOL0     N16705  10.150   3.270   6.983 -0.2068 -0.2143 -0.4444
  885MOL0     C16706  10.237   3.188   6.920  0.0187  0.0474 -0.5101
  885MOL0     C16707  10.335   3.267   6.892 -0.9752 -0.3760 -0.4626
  885MOL0     C16708  10.459   3.215   6.831 -0.3341  0.4071  0.4548
  885MOL0     C16709  10.567   3.184   6.923  0.2562  0.4151 -0.2891
  885MOL0     C16710  10.527   3.054   6.997 -0.7684 -0.3673 -0.7046
  885MOL0     C16711  10.654   3.013   7.082  0.0767  1.3675 -0.4518
  885MOL0     O16712  10.762   2.982   7.001 -0.1805  0.0636  0.6177
  885MOL0     C16713  10.862   2.910   7.053  1.0230  0.2123 -0.0606
  885MOL0     C16714  10.917   2.820   6.961 -0.4505  0.2012  0.1344
  885MOL0     C16715  11.035   2.741   6.997 -0.2322  0.2522 -0.0183
  885MOL0     C16716  11.105   2.765   7.110 -1.2128 -0.2640 -1.1518
  885MOL0     C16717  11.228   2.701   7.160 -0.1026 -0.5596 -0.3232
  885MOL0     O16718  11.282   2.748   7.276 -0.3090  0.3951  0.7263
  885MOL0     C16719  11.385   2.683   7.334  0.4085  0.0135 -1.0158
  885MOL0     C16720  11.499   2.760   7.357 -0.3389  0.1877  0.2711
  885MOL0     C16721  11.600   2.710   7.433 -0.3749  0.8522 -1.2244
  885MOL0     C16722  11.600   2.577   7.487 -0.2991  0.0350  0.1441
  885MOL0     O16723  11.711   2.531   7.566 -0.9023 -0.4216  0.1535
  885MOL0     C16724  11.818   2.624   7.595 -0.4373 -0.5769  1.1365
  885MOL0     C16725  11.925   2.524   7.632  0.1967  0.7444  0.1476
  885MOL0     C16726  12.060   2.576   7.690 -0.1014  0.8563  0.1847
  885MOL0     C16727  12.048   2.667   7.811  0.2085 -0.0420  0.4030
  885MOL0     C16728  12.185   2.678   7.881 -0.2797  0.9524 -0.3163
  885MOL0     C16729  12.276   2.782   7.810 -0.0466 -0.5310 -0.3086
  885MOL0     C16730  12.419   2.765   7.864  1.2526  0.5318  0.2084
  885MOL0     C16731  12.498   2.889   7.881 -0.0373  0.8297  0.9720
  885MOL0    Cl16732  12.434   2.988   8.006  0.2659 -0.0951  0.2523
  885MOL0     C16733  11.487   2.498   7.469 -0.4071  0.0379  0.5690
  885MOL0     C16734  11.377   2.551   7.386 -0.2308 -1.1185 -0.6361
  885MOL0     O16735  11.280   2.617   7.095 -0.7052 -0.1554  0.5738
  885MOL0     C16736  11.048   2.862   7.198  0.6959  0.7630  0.2974
  885MOL0     C16737  10.930   2.936   7.166  0.5899 -0.2721  0.6578
  885MOL0     N16738  10.317   3.388   6.936 -0.1974  0.2847 -0.2200
  885MOL0     N16739  10.202   3.393   6.994  0.3232 -0.0920  0.0866
  885MOL0     C16740   9.736   2.689   7.749  0.0616  0.1147 -0.0817
  885MOL0     C16741   9.602   2.644   7.774 -1.0990  0.1330 -1.0932
  885MOL0     C16742   9.133   2.600   7.750 -0.8049 -0.1096  0.3795
  885MOL0     C16743   9.013   2.606   7.676 -0.4180  0.6868 -0.6056
  885MOL0     C16744   8.900   2.532   7.709  0.2463  0.1470  0.2792
  885MOL0     C16745   8.908   2.438   7.817  0.1909  0.0583 -0.4075
  885MOL0     O16746   8.811   2.342   7.850  0.2107  0.3091  0.5899
  885MOL0     C16747   8.753   2.361   7.978  0.5582 -0.1913 -0.6817
  885MOL0     C16748   8.672   2.496   7.977 -0.3538 -0.0834 -0.7528
  885MOL0     C16749   8.548   2.486   7.880  0.4517  0.5293  0.4696
  885MOL0     C16750   8.408   2.512   7.948 -0.8048 -0.2939  0.7523
  885MOL0     C16751   8.374   2.413   8.047  0.5940 -0.2350 -0.1726
  885MOL0     C16752   8.334   2.351   8.135 -0.7498 -1.0430  0.0028
  885MOL0     C16753   9.033   2.429   7.887  0.2717  0.7424 -0.9583
  885MOL0     C16754   9.145   2.504   7.858 -0.2504 -0.0712 -0.0142
  885MOL0     H16755   9.427   2.903   7.648 -1.5270 -2.5236 -1.2058
  885MOL0     H16756   9.672   2.974   7.600  0.4500 -0.8587 -2.5406
  885MOL0     H16757   9.838   2.842   7.441 -0.9039 -0.2410  0.1053
  885MOL0     H16758   9.968   2.739   7.492 -5.0273 -3.2476 -0.7397
  885MOL0     H16759  10.016   2.941   7.364 -3.2214 -5.5195  0.6154
  885MOL0     H16760  10.111   2.925   7.519  0.3228 -2.7694 -1.7810
  885MOL0     H16761  10.047   3.131   7.572 -0.8373 -0.9321  1.9355
  885MOL0     H16762   9.876   3.076   7.549  0.6153 -3.8337 -0.6524
  885MOL0     H16763   9.947   3.286   7.447 -1.4273 -0.5522 -0.9457
  885MOL0     H16764  10.064   3.207   7.345 -2.1992  0.2455 -2.4414
  885MOL0     H16765   9.769   3.127   7.333 -0.9771  0.2816 -1.7570
  885MOL0     H16766   9.909   3.077   7.224 -0.1985 -0.0274  0.0716
  885MOL0     H16767   9.789   3.353   7.227  0.6483 -0.5676  0.8360
  885MOL0     H16768   9.750   3.225   7.111 -2.3619  0.2616  1.8905
  885MOL0     H16769   9.901   3.393   7.031 -1.4289 -0.2344  0.2165
  885MOL0     H16770  10.013   3.374   7.177 -1.6311  3.0631 -0.2092
  885MOL0     H16771   9.967   3.185   6.941  1.2298 -2.7622 -0.5508
  885MOL0     H16772  10.048   3.142   7.092 -0.3253 -0.6021 -2.5744
  885MOL0     H16773  10.233   3.081   6.901  0.6403 -0.0318 -0.2205
  885MOL0     H16774  10.493   3.287   6.757  0.2963 -1.4202 -1.1372
  885MOL0     H16775  10.421   3.128   6.776  2.3797  0.1072 -1.1540
  885MOL0     H16776  10.584   3.271   6.987 -1.4089 -0.4854  1.4704
  885MOL0     H16777  10.648   3.167   6.851 -1.4837 -1.8677 -1.8192
  885MOL0     H16778  10.447   3.074   7.069  3.5277  3.6161  3.7016
  885MOL0     H16779  10.499   2.975   6.926  0.8566 -1.7785  0.1581
  885MOL0     H16780  10.638   2.928   7.150  2.1479  1.5219  0.3004
  885MOL0     H16781  10.677   3.097   7.148 -2.6073 -0.2715  2.9416
  885MOL0     H16782  10.851   2.820   6.874  1.4790  0.1472 -1.4076
  885MOL0     H16783  11.080   2.678   6.921  0.2028 -0.9270  1.1778
  885MOL0     H16784  11.510   2.862   7.321 -0.7422 -0.2642 -1.2370
  885MOL0     H16785  11.681   2.783   7.431  0.4430 -0.0429 -2.6231
  885MOL0     H16786  11.780   2.687   7.676 -1.5625 -1.2760  1.1760
  885MOL0     H16787  11.852   2.688   7.513 -0.5384 -0.8934  0.8448
  885MOL0     H16788  11.953   2.466   7.544  0.7104  1.0198  0.1231
  885MOL0     H16789  11.882   2.456   7.706  0.8368  0.0596 -0.0947
  885MOL0     H16790  12.122   2.619   7.610  0.0542  0.2451 -0.0338
  885MOL0     H16791  12.113   2.484   7.717 -1.0578  0.7156  1.6570
  885MOL0     H16792  12.009   2.763   7.778  0.9799 -0.6253 -2.5099
  885MOL0     H16793  11.977   2.614   7.875  0.1831 -1.8229 -1.0036
  885MOL0     H16794  12.234   2.581   7.895  4.0824  3.1026  1.0497
  885MOL0     H16795  12.157   2.706   7.983 -2.0628 -1.8524  0.0831
  885MOL0     H16796  12.245   2.885   7.830 -0.1729 -0.6049 -0.1190
  885MOL0     H16797  12.277   2.759   7.703  1.5250 -4.4515  0.3767
  885MOL0     H16798  12.414   2.714   7.961 -1.0214 -0.1875 -0.2259
  885MOL0     H16799  12.469   2.702   7.790 -0.9107 -1.8704  0.6815
  885MOL0     H16800  12.501   2.942   7.785  1.0305  1.5848  1.4085
  885MOL0     H16801  12.593   2.844   7.910 -1.5673 -3.5018  0.0847
  885MOL0     H16802  11.486   2.406   7.525 -1.4639  0.2929  1.0103
  885MOL0     H16803  11.290   2.486   7.386  0.1275 -1.6642  1.4382
  885MOL0     H16804  11.083   2.884   7.298 -0.9095 -0.5528  1.2136
  885MOL0     H16805  10.894   3.028   7.213  0.2972  1.1497 -2.1636
  885MOL0     H16806   9.825   2.641   7.789 -0.5855 -0.6043  0.5294
  885MOL0     H16807   9.594   2.547   7.820 -0.0823  0.4394 -0.2318
  885MOL0     H16808   8.999   2.661   7.583 -1.3189 -1.5502 -1.8807
  885MOL0     H16809   8.810   2.517   7.652 -1.0661 -1.5405  2.6172
  885MOL0     H16810   8.831   2.364   8.055 -1.5660  0.3592  1.5927
  885MOL0     H16811   8.688   2.278   8.007  1.0328  0.1961  1.7335
  885MOL0     H16812   8.632   2.499   8.079 -1.1044 -1.0223 -1.0022
  885MOL0     H16813   8.740   2.579   7.957  1.4457 -1.7765 -2.0421
  885MOL0     H16814   8.548   2.392   7.824  1.2670  0.4469  0.5864
  885MOL0     H16815   8.577   2.562   7.806 -1.8643 -0.3646 -1.4729
  885MOL0     H16816   8.396   2.617   7.975  4.0509  1.1617 -1.6859
  885MOL0     H16817   8.336   2.484   7.870  0.9042 -0.5780 -0.7821
  885MOL0     H16818   8.288   2.306   8.220 -0.7989 -0.6409  0.1913
  885MOL0     H16819   9.032   2.365   7.975  0.3129  3.9582  1.5632
  885MOL0     H16820   9.226   2.488   7.929 -1.1047 -0.3999  0.9102
  886MOL0     O16821   8.202  10.416   1.104 -0.2435 -0.3645  0.0262
  886MOL0     C16822   8.170  10.487   1.005 -0.1655  0.5468  0.0261
  886MOL0     O16823   8.055  10.483   0.938  0.0976 -0.0308  0.7746
  886MOL0     C16824   7.971  10.378   0.957  0.7415 -0.7346 -0.0433
  886MOL0     C16825   7.991  10.263   0.882 -0.5916 -0.1166 -0.4319
  886MOL0     C16826   7.913  10.156   0.893 -0.2968  1.0206  0.0021
  886MOL0     C16827   7.788  10.168   0.965 -0.4473  0.3951 -0.7406
  886MOL0     O16828   7.696  10.075   0.977  0.5473  0.4091 -0.0913
  886MOL0     C16829   7.681   9.979   0.874  0.7063 -0.6934  1.0461
  886MOL0     C16830   7.557   9.893   0.893 -0.3532 -0.5225 -0.4888
  886MOL0     C16831   7.600   9.769   0.977  0.3622  0.1340 -0.0170
  886MOL0     C16832   7.482   9.690   1.031 -0.1083 -1.0626 -0.7408
  886MOL0     C16833   7.516   9.584   1.140 -0.2374  0.6227 -0.2614
  886MOL0     C16834   7.490   9.434   1.117  0.2778 -0.5317  0.0951
  886MOL0     C16835   7.531   9.374   0.983  0.3887 -1.1342 -0.2124
  886MOL0     C16836   7.514   9.229   0.982  0.3386 -0.1319 -0.9395
  886MOL0     N16837   7.383   9.178   1.020  0.2097  0.0918 -0.4059
  886MOL0     C16838   7.276   9.195   0.941 -0.0436 -1.4127  0.6443
  886MOL0     C16839   7.176   9.146   1.011  0.4136  1.3055  0.7308
  886MOL0     C16840   7.031   9.132   0.965 -0.2826 -0.2850 -0.1661
  886MOL0     C16841   6.971   8.993   0.983 -0.2045  0.4459  0.2597
  886MOL0     C16842   6.815   8.997   0.999  0.2606  0.1971  0.3287
  886MOL0     C16843   6.757   8.860   0.990 -0.0685 -0.1620  1.0390
  886MOL0     O16844   6.619   8.867   1.040 -0.3009 -0.4623  0.2225
  886MOL0     C16845   6.538   8.762   1.056  0.6889  0.0444 -0.9570
  886MOL0     C16846   6.554   8.637   1.012  0.2165  1.2347  0.1702
  886MOL0     C16847   6.455   8.538   1.031 -0.2980 -0.4603 -0.3959
  886MOL0     C16848   6.340   8.573   1.099 -0.5968  0.2972 -0.7382
  886MOL0     C16849   6.238   8.472   1.131  0.0509 -0.4141  0.1180
  886MOL0     O16850   6.112   8.507   1.166  0.2513  0.4585  0.6653
  886MOL0     C16851   6.028   8.414   1.223 -0.3241  1.0543  0.6827
  886MOL0     C16852   5.988   8.295   1.165  0.1790  0.1984  0.2812
  886MOL0     C16853   5.892   8.206   1.221 -0.0578 -0.0900  1.0164
  886MOL0     C16854   5.849   8.232   1.349  0.1775  1.2656  0.3800
  886MOL0     O16855   5.766   8.139   1.405 -0.5529  0.1051 -0.1783
  886MOL0     C16856   5.620   8.147   1.376  0.3864 -0.0759 -0.1880
  886MOL0     C16857   5.529   8.215   1.480 -0.1681 -0.0773  0.1912
  886MOL0     C16858   5.381   8.175   1.467  0.3934 -0.0543  0.6504
  886MOL0     C16859   5.319   8.265   1.355 -0.6680  0.5160 -2.1358
  886MOL0     C16860   5.166   8.252   1.343 -0.3565 -0.0794 -1.0676
  886MOL0     C16861   5.114   8.301   1.210 -0.2248  0.2057 -0.8013
  886MOL0     C16862   5.117   8.196   1.092  0.7124  0.1511 -0.2052
  886MOL0     C16863   5.065   8.243   0.951  0.6367 -0.9525 -0.4999
  886MOL0    Cl16864   4.898   8.315   0.959 -0.1325  0.3905 -0.4821
  886MOL0     C16865   5.891   8.352   1.406 -0.1227 -0.7856  0.4781
  886MOL0     C16866   5.982   8.438   1.348 -0.6657 -0.0600 -0.0810
  886MOL0     O16867   6.280   8.360   1.131  0.1212  0.0229 -0.2731
  886MOL0     C16868   6.323   8.696   1.158 -0.5314  0.8885  0.0313
  886MOL0     C16869   6.425   8.791   1.137  0.7290 -0.5427 -0.3280
  886MOL0     N16870   7.215   9.098   1.129  1.1650  0.0200 -0.1927
  886MOL0     N16871   7.340   9.121   1.137  0.5497 -0.4145 -0.2825
  886MOL0     C16872   7.761  10.287   1.038  0.5837  0.1630 -0.1692
  886MOL0     C16873   7.850  10.396   1.036 -0.3159  0.7910 -0.0115
  886MOL0     C16874   8.264  10.586   0.961  0.5935  0.2486  0.3104
  886MOL0     C16875   8.395  10.595   1.004 -0.3874 -0.3962 -0.5079
  886MOL0     C16876   8.480  10.682   0.945 -0.2259  0.0272 -0.0311
  886MOL0     C16877   8.444  10.775   0.848 -0.8448  0.4752  0.1447
  886MOL0     O16878   8.533  10.856   0.785 -0.2347 -0.4815  0.0341
  886MOL0     C16879   8.503  10.994   0.806  0.2370  0.6046 -0.0581
  886MOL0     C16880   8.613  11.078   0.891  0.0011  0.4054  0.1650
  886MOL0     C16881   8.749  11.061   0.829 -0.0866 -0.2845 -0.2612
  886MOL0     C16882   8.853  11.160   0.886  0.6543  0.3563 -0.2879
  886MOL0     C16883   8.986  11.134   0.843 -0.1714 -0.1059  1.0120
  886MOL0     C16884   9.093  11.103   0.810 -0.9259 -0.2789 -0.2497
  886MOL0     C16885   8.307  10.777   0.817 -0.0183  0.1100 -0.3710
  886MOL0     C16886   8.217  10.681   0.863  1.0568  0.1797  0.2318
  886MOL0     H16887   8.083  10.247   0.828  0.2038 -1.3418  1.2182
  886MOL0     H16888   7.945  10.061   0.854  2.7595  1.3679  1.3861
  886MOL0     H16889   7.773   9.923   0.855  0.0586 -1.0628 -1.4131
  886MOL0     H16890   7.669  10.030   0.778 -0.0292 -2.9023 -0.1209
  886MOL0     H16891   7.511   9.856   0.801 -2.5587  2.9744 -0.9721
  886MOL0     H16892   7.480   9.951   0.945  1.4634  1.0280  0.6105
  886MOL0     H16893   7.662   9.796   1.063  0.3391  0.8835 -0.2315
  886MOL0     H16894   7.649   9.697   0.910 -0.6268  0.8205 -1.5271
  886MOL0     H16895   7.421   9.765   1.083  2.1184 -0.0239  0.5562
  886MOL0     H16896   7.412   9.657   0.954 -0.2853 -1.4140 -0.4308
  886MOL0     H16897   7.467   9.622   1.230 -0.9303 -4.8747  2.1134
  886MOL0     H16898   7.623   9.585   1.163  0.0746  0.0704 -1.5946
  886MOL0     H16899   7.381   9.423   1.118  0.3086 -0.9198 -0.6075
  886MOL0     H16900   7.538   9.374   1.195 -0.0419 -1.0596 -0.1071
  886MOL0     H16901   7.480   9.430   0.905  0.8782 -0.1428  0.1583
  886MOL0     H16902   7.638   9.399   0.985  0.1969 -0.2894  2.0752
  886MOL0     H16903   7.588   9.195   1.055 -2.1283  2.6709  3.3099
  886MOL0     H16904   7.543   9.182   0.888 -1.5610 -2.3922 -0.5063
  886MOL0     H16905   7.274   9.246   0.845  1.3018 -0.2014  1.2356
  886MOL0     H16906   7.029   9.156   0.858 -0.0520  1.9015  0.2615
  886MOL0     H16907   6.966   9.201   1.020 -0.2714 -0.2933 -0.1423
  886MOL0     H16908   7.009   8.945   1.074  2.5752  3.8848  1.1232
  886MOL0     H16909   6.997   8.939   0.892  1.3990  2.3772 -0.5056
  886MOL0     H16910   6.805   9.046   1.096  2.6932  0.0522  0.7047
  886MOL0     H16911   6.771   9.056   0.918 -0.9853  1.3671  1.7958
  886MOL0     H16912   6.821   8.794   1.049  0.9114  0.4123  0.6353
  886MOL0     H16913   6.753   8.815   0.890 -0.0420 -0.6920  1.2749
  886MOL0     H16914   6.638   8.614   0.948  0.2345 -0.1678  0.6727
  886MOL0     H16915   6.475   8.435   1.007  2.1406 -0.2285  0.3355
  886MOL0     H16916   6.030   8.271   1.067 -0.4835  2.3795 -0.5923
  886MOL0     H16917   5.862   8.110   1.180  0.7191 -0.0092  0.2246
  886MOL0     H16918   5.588   8.042   1.376 -0.5046  0.1878 -0.6591
  886MOL0     H16919   5.600   8.189   1.277 -2.5827  1.0018  0.7762
  886MOL0     H16920   5.543   8.322   1.467 -1.9873  0.3064  1.0861
  886MOL0     H16921   5.570   8.185   1.577  2.7439  1.2004 -0.5368
  886MOL0     H16922   5.343   8.190   1.568  4.4628 -1.9513  2.6921
  886MOL0     H16923   5.373   8.067   1.451  0.7651 -0.0621  0.4941
  886MOL0     H16924   5.354   8.364   1.386 -1.4858  0.0028  0.7071
  886MOL0     H16925   5.360   8.242   1.257 -0.8317 -0.6943 -1.9333
  886MOL0     H16926   5.123   8.311   1.424 -0.2391 -1.0757 -0.2670
  886MOL0     H16927   5.134   8.150   1.364 -0.4662  0.5329  2.3464
  886MOL0     H16928   5.170   8.393   1.190 -0.6323  1.2221  2.1946
  886MOL0     H16929   5.014   8.338   1.231  0.6626  2.9261 -1.0502
  886MOL0     H16930   5.219   8.156   1.095  1.5575  2.0217 -2.1007
  886MOL0     H16931   5.053   8.109   1.112  0.0494  0.6184 -0.2823
  886MOL0     H16932   5.085   8.173   0.869 -0.0058 -0.6808 -0.8919
  886MOL0     H16933   5.128   8.329   0.927 -1.9485  1.1980 -0.0476
  886MOL0     H16934   5.853   8.369   1.506  0.8047 -0.5138  0.7949
  886MOL0     H16935   6.014   8.527   1.399 -0.1424 -0.8678  1.0290
  886MOL0     H16936   6.233   8.729   1.210  1.3080  4.0055  1.5546
  886MOL0     H16937   6.409   8.890   1.180  1.9475 -0.7404  0.6377
  886MOL0     H16938   7.667  10.287   1.092  1.7124  1.4250  1.9444
  886MOL0     H16939   7.824  10.485   1.092  0.1711  0.5585  0.6009
  886MOL0     H16940   8.423  10.526   1.082  0.8977 -1.6499 -2.0141
  886MOL0     H16941   8.583  10.682   0.981 -0.5752 -0.5930  1.0190
  886MOL0     H16942   8.408  10.997   0.861 -0.1270 -3.0363 -0.2749
  886MOL0     H16943   8.487  11.041   0.709  1.0770 -2.5745 -1.8651
  886MOL0     H16944   8.579  11.182   0.900  3.6548  1.7105  0.5291
  886MOL0     H16945   8.612  11.031   0.990  2.0493  1.6079  0.8221
  886MOL0     H16946   8.738  11.076   0.721  1.1412 -1.1098 -0.5190
  886MOL0     H16947   8.795  10.962   0.843  1.7404  0.4916 -0.5223
  886MOL0     H16948   8.841  11.268   0.876  1.8567  0.5940  0.5984
  886MOL0     H16949   8.865  11.137   0.992 -1.2465 -0.6677 -0.2421
  886MOL0     H16950   9.197  11.088   0.787 -1.5328 -1.3417 -2.6008
  886MOL0     H16951   8.274  10.849   0.742  1.0770  1.3798  0.3276
  886MOL0     H16952   8.113  10.676   0.832  1.6388 -1.7205 -1.6571
  887MOL0     O16953   0.448   2.769   2.337  0.3776 -0.5689 -0.7650
  887MOL0     C16954   0.412   2.674   2.270  1.1048  0.4140  0.2179
  887MOL0     O16955   0.463   2.640   2.153 -0.2222  0.0689 -0.1507
  887MOL0     C16956   0.589   2.668   2.106 -0.1979  0.1860 -0.0477
  887MOL0     C16957   0.700   2.674   2.197  0.2862 -0.6707  0.0656
  887MOL0     C16958   0.824   2.711   2.151  0.0697 -0.5746  0.2604
  887MOL0     C16959   0.853   2.736   2.018 -0.2422  0.3785 -0.1686
  887MOL0     O16960   0.975   2.773   1.973  0.1703  0.0900  0.8116
  887MOL0     C16961   1.083   2.681   2.010 -0.4391 -0.7139  0.2479
  887MOL0     C16962   1.176   2.748   2.113 -0.3707  0.1691  0.3862
  887MOL0     C16963   1.289   2.658   2.169  0.2877  0.1609 -0.4782
  887MOL0     C16964   1.349   2.712   2.293  0.1150  0.0924  0.3492
  887MOL0     C16965   1.450   2.610   2.363 -0.4950 -0.2600 -0.3596
  887MOL0     C16966   1.556   2.542   2.285  0.7225  0.1622 -0.4307
  887MOL0     C16967   1.653   2.482   2.382  0.0944  0.8157 -0.1073
  887MOL0     C16968   1.741   2.585   2.451 -0.5140  0.2761  0.1449
  887MOL0     N16969   1.864   2.527   2.513  0.1455  0.2659 -0.6255
  887MOL0     C16970   1.982   2.510   2.449  0.6795 -0.5832  0.3867
  887MOL0     C16971   2.056   2.418   2.522  0.0693 -0.1638 -0.4242
  887MOL0     C16972   2.200   2.377   2.494  0.1967 -0.0161 -0.3843
  887MOL0     C16973   2.301   2.475   2.564  0.6162 -0.4308  0.2638
  887MOL0     C16974   2.275   2.457   2.717  0.2043 -0.4795 -0.3223
  887MOL0     C16975   2.382   2.546   2.780 -0.1393 -0.3878 -0.4155
  887MOL0     O16976   2.415   2.507   2.901  0.0495 -0.2337 -0.8679
  887MOL0     C16977   2.538   2.552   2.949  0.1680  0.9212  0.3122
  887MOL0     C16978   2.603   2.494   3.057  0.6197  0.2077 -0.0074
  887MOL0     C16979   2.730   2.526   3.097 -0.5249  0.5337  0.1512
  887MOL0     C16980   2.795   2.639   3.046  0.0726 -0.1735  0.2652
  887MOL0     C16981   2.935   2.671   3.095  0.0464  0.1437 -0.1555
  887MOL0     O16982   3.008   2.564   3.144  0.7904 -0.8541 -0.1183
  887MOL0     C16983   3.141   2.579   3.189  1.4028  0.5123 -0.1018
  887MOL0     C16984   3.239   2.678   3.150  0.9880  0.7146 -0.4439
  887MOL0     C16985   3.367   2.663   3.208 -0.0905 -0.3964 -0.0004
  887MOL0     C16986   3.409   2.569   3.306 -0.4408  0.2923  0.5164
  887MOL0     O16987   3.534   2.578   3.355 -0.7596 -0.7491  0.1552
  887MOL0     C16988   3.648   2.591   3.262  0.1805  0.3475  0.7851
  887MOL0     C16989   3.779   2.550   3.329 -0.2420 -0.5982  0.2463
  887MOL0     C16990   3.889   2.529   3.222 -0.8444  0.1062  0.4430
  887MOL0     C16991   4.027   2.538   3.285 -0.4476  1.0680  0.0843
  887MOL0     C16992   4.140   2.564   3.188  0.2998 -0.0518  0.2693
  887MOL0     C16993   4.287   2.562   3.241  1.1299 -0.5840 -0.4300
  887MOL0     C16994   4.401   2.547   3.136  0.6178  0.2280 -0.4113
  887MOL0     C16995   4.537   2.560   3.200 -0.8807 -0.4635 -0.5326
  887MOL0    Cl16996   4.560   2.703   3.299  0.2861 -0.1032  0.2534
  887MOL0     C16997   3.314   2.476   3.337  0.3811 -0.7110  0.0748
  887MOL0     C16998   3.185   2.480   3.278 -0.4685  1.0375 -0.5579
  887MOL0     O16999   2.976   2.787   3.068  0.3080  0.4229 -0.3665
  887MOL0     C17000   2.729   2.705   2.943 -0.8896 -0.6359 -0.3381
  887MOL0     C17001   2.606   2.663   2.890  0.0349 -0.7659 -0.3039
  887MOL0     N17002   1.978   2.381   2.626  0.6116  0.3369 -0.4370
  887MOL0     N17003   1.862   2.449   2.628 -0.1211 -0.3011  0.0033
  887MOL0     C17004   0.749   2.712   1.934 -0.4609  0.4393 -0.3332
  887MOL0     C17005   0.616   2.691   1.972 -1.0633 -0.0177 -0.2619
  887MOL0     C17006   0.295   2.594   2.315 -0.0433 -0.4203  1.0468
  887MOL0     C17007   0.242   2.612   2.442 -1.1444 -0.6629  0.1459
  887MOL0     C17008   0.129   2.546   2.487  0.3519 -0.3278  0.5994
  887MOL0     C17009   0.059   2.460   2.403 -0.3518  0.5861  1.2828
  887MOL0     O17010  -0.075   2.413   2.417  0.1358 -0.4543  0.2854
  887MOL0     C17011  -0.105   2.380   2.549 -0.0473  0.0720 -0.2839
  887MOL0     C17012  -0.053   2.243   2.592 -0.2964  0.5047  0.4565
  887MOL0     C17013  -0.063   2.229   2.746 -0.2422  0.1621 -0.1779
  887MOL0     C17014   0.030   2.304   2.836  0.2819  0.7017 -0.0586
  887MOL0     C17015   0.170   2.271   2.809 -0.6648  0.5854 -1.0468
  887MOL0     C17016   0.285   2.239   2.761  1.0601 -0.8848  0.5921
  887MOL0     C17017   0.110   2.444   2.275 -1.1672  0.4287 -0.7441
  887MOL0     C17018   0.229   2.503   2.229 -0.4725 -0.2205 -0.4529
  887MOL0     H17019   0.691   2.641   2.300  2.1438  1.8613  1.1406
  887MOL0     H17020   0.902   2.704   2.226 -0.9764 -3.9953  1.1825
  887MOL0     H17021   1.143   2.675   1.918  1.5936  0.2012  1.4462
  887MOL0     H17022   1.049   2.580   2.032  1.3429 -1.6295 -0.8775
  887MOL0     H17023   1.118   2.785   2.198 -2.2334 -0.3836 -0.5654
  887MOL0     H17024   1.221   2.839   2.073  0.6293 -0.0380  1.0009
  887MOL0     H17025   1.365   2.641   2.093  0.5031 -1.2142  0.0024
  887MOL0     H17026   1.252   2.558   2.197 -1.4962  1.6706  3.3410
  887MOL0     H17027   1.405   2.803   2.268 -0.1050  0.0842 -0.1755
  887MOL0     H17028   1.269   2.735   2.364  1.4646 -0.9496  2.2965
  887MOL0     H17029   1.392   2.530   2.411  1.6064 -0.0049  2.9025
  887MOL0     H17030   1.502   2.662   2.444 -0.2589 -0.9811 -0.0357
  887MOL0     H17031   1.607   2.600   2.208  0.3623 -0.5102 -1.1994
  887MOL0     H17032   1.512   2.459   2.230  0.6911  1.6863 -2.8378
  887MOL0     H17033   1.604   2.416   2.454 -0.8740  2.0857  0.4267
  887MOL0     H17034   1.720   2.419   2.323 -0.4245  0.0775  0.0703
  887MOL0     H17035   1.688   2.630   2.535 -0.7232 -1.1004  0.7748
  887MOL0     H17036   1.759   2.650   2.365 -3.0223  1.5104  0.4476
  887MOL0     H17037   2.018   2.553   2.357 -2.0973  0.3963 -0.3321
  887MOL0     H17038   2.222   2.383   2.387  0.7158 -0.1412 -0.2861
  887MOL0     H17039   2.216   2.277   2.537  0.0913  0.7815  1.6086
  887MOL0     H17040   2.271   2.577   2.539 -0.1217 -1.0793 -1.7028
  887MOL0     H17041   2.400   2.462   2.520  1.0749  1.3859  0.6723
  887MOL0     H17042   2.175   2.480   2.757  1.0453 -2.1032  3.1236
  887MOL0     H17043   2.294   2.355   2.753  1.4651  1.3104  4.9777
  887MOL0     H17044   2.339   2.646   2.782  0.9456  0.1737 -2.4579
  887MOL0     H17045   2.464   2.557   2.709 -0.8686  4.1573 -0.8127
  887MOL0     H17046   2.550   2.414   3.109  1.8998 -0.3877  0.4340
  887MOL0     H17047   2.774   2.485   3.187 -0.7380  1.9181  0.9119
  887MOL0     H17048   3.224   2.761   3.082 -0.7801  1.1794  0.4664
  887MOL0     H17049   3.437   2.743   3.189  2.7274 -1.2378  5.0722
  887MOL0     H17050   3.662   2.696   3.233 -0.6074  1.3104  3.5986
  887MOL0     H17051   3.629   2.535   3.170 -0.1102  4.4707 -1.9075
  887MOL0     H17052   3.762   2.459   3.387 -1.4808 -0.1127  0.6835
  887MOL0     H17053   3.802   2.625   3.405 -2.6732  0.1100  0.3753
  887MOL0     H17054   3.892   2.607   3.145 -2.7331 -1.2497 -1.0965
  887MOL0     H17055   3.878   2.431   3.174  2.0975 -1.5315  2.7870
  887MOL0     H17056   4.033   2.616   3.361 -2.8803 -1.4933  3.1865
  887MOL0     H17057   4.041   2.444   3.339  0.0351  1.1194  0.0524
  887MOL0     H17058   4.143   2.656   3.129 -0.8134 -0.0694  0.1568
  887MOL0     H17059   4.139   2.490   3.108  0.9036  2.0917 -1.8230
  887MOL0     H17060   4.290   2.478   3.311 -0.4885  0.8638  1.5143
  887MOL0     H17061   4.288   2.664   3.280 -1.0849 -0.1097 -1.4378
  887MOL0     H17062   4.389   2.454   3.079 -0.2897  0.5111 -0.7076
  887MOL0     H17063   4.380   2.629   3.066  1.5224  0.7749 -0.0531
  887MOL0     H17064   4.623   2.554   3.132  0.5263 -0.6500  1.1862
  887MOL0     H17065   4.548   2.466   3.255  1.4428  1.0416  1.7970
  887MOL0     H17066   3.339   2.397   3.406 -0.6299 -0.9564  0.1857
  887MOL0     H17067   3.109   2.407   3.301  0.6471  0.8524  3.0871
  887MOL0     H17068   2.792   2.785   2.908  3.2332 -1.6941  3.7324
  887MOL0     H17069   2.571   2.712   2.799 -0.0452  0.2826  0.2659
  887MOL0     H17070   0.775   2.725   1.829  0.4418  0.4961 -0.1090
  887MOL0     H17071   0.536   2.684   1.900 -1.0543 -1.2971 -0.1753
  887MOL0     H17072   0.293   2.678   2.511  0.5179  1.5255 -2.9596
  887MOL0     H17073   0.095   2.581   2.584 -0.6835 -0.4348  0.2798
  887MOL0     H17074  -0.213   2.365   2.553 -0.0877  0.2603 -0.6349
  887MOL0     H17075  -0.078   2.453   2.625 -2.4275  0.6055  0.1256
  887MOL0     H17076  -0.105   2.163   2.537  2.3920 -0.5970 -0.6596
  887MOL0     H17077   0.049   2.220   2.560 -0.0320  3.3008 -1.0552
  887MOL0     H17078  -0.047   2.124   2.774 -0.0501  0.2129 -0.0952
  887MOL0     H17079  -0.166   2.245   2.779 -0.5143 -0.7052 -0.5876
  887MOL0     H17080   0.027   2.411   2.815 -1.8846  0.7463  0.2718
  887MOL0     H17081   0.007   2.274   2.939 -2.9827  0.5602 -0.7260
  887MOL0     H17082   0.371   2.216   2.702 -0.5264 -1.4899 -1.6020
  887MOL0     H17083   0.047   2.371   2.225  2.7685 -1.7187 -3.1200
  887MOL0     H17084   0.262   2.490   2.127 -2.0492 -0.2568 -0.9739
  888MOL0     O17085   9.314   6.565   4.911 -0.2900 -0.3926  0.1680
  888MOL0     C17086   9.368   6.455   4.927  0.6576  0.0043  0.1196
  888MOL0     O17087   9.321   6.331   4.879 -0.4980 -0.3588 -0.8679
  888MOL0     C17088   9.209   6.323   4.807  0.4455  0.9297 -0.3927
  888MOL0     C17089   9.088   6.386   4.844  0.1875  0.4542  0.6028
  888MOL0     C17090   8.980   6.361   4.759 -0.7699 -0.4651  0.7439
  888MOL0     C17091   8.994   6.281   4.643 -0.3188 -0.6109 -0.1463
  888MOL0     O17092   8.881   6.256   4.562 -0.1838 -0.2166 -0.1438
  888MOL0     C17093   8.758   6.243   4.628 -0.0056  0.0546  0.1508
  888MOL0     C17094   8.642   6.204   4.527  0.0589 -0.8858  0.6826
  888MOL0     C17095   8.619   6.303   4.410  0.4953 -0.3063  0.1342
  888MOL0     C17096   8.492   6.254   4.334  0.9195 -0.1819 -0.6256
  888MOL0     C17097   8.487   6.101   4.313  0.2648  0.4273 -1.0906
  888MOL0     C17098   8.348   6.062   4.254 -0.6289  0.6267  0.3557
  888MOL0     C17099   8.339   5.927   4.183  0.5425 -0.4291  0.1801
  888MOL0     C17100   8.364   5.805   4.273  0.2309  0.6212 -0.8051
  888MOL0     N17101   8.364   5.693   4.178 -0.2142  0.6303 -0.9155
  888MOL0     C17102   8.476   5.639   4.117 -1.0037 -0.6838 -0.1942
  888MOL0     C17103   8.441   5.539   4.034 -0.2008 -0.1502  1.1067
  888MOL0     C17104   8.520   5.448   3.935 -0.0445  0.6268  0.7884
  888MOL0     C17105   8.657   5.412   3.993 -0.0270 -0.0889  0.2155
  888MOL0     C17106   8.753   5.535   3.972  0.2891  0.3830  0.2541
  888MOL0     C17107   8.860   5.540   4.077  0.1675 -0.0314  0.0989
  888MOL0     O17108   8.956   5.432   4.069  0.0314  0.7088  0.6173
  888MOL0     C17109   9.057   5.449   4.152 -0.2502  1.3418 -0.5445
  888MOL0     C17110   9.158   5.540   4.128  0.1865  0.7301 -0.2050
  888MOL0     C17111   9.270   5.540   4.206 -0.4533  0.3313  0.3665
  888MOL0     C17112   9.284   5.447   4.316 -0.4232 -0.3077  1.2634
  888MOL0     C17113   9.408   5.443   4.390 -0.4322  0.6111  0.6125
  888MOL0     O17114   9.498   5.546   4.379  0.0466 -0.7192 -0.3332
  888MOL0     C17115   9.627   5.530   4.429  0.9062  0.0606  0.1296
  888MOL0     C17116   9.645   5.560   4.561  0.1210 -0.0942 -0.9421
  888MOL0     C17117   9.773   5.572   4.620 -0.7479  0.2190  0.4986
  888MOL0     C17118   9.882   5.542   4.535  0.2905  0.6671  0.4786
  888MOL0     O17119  10.010   5.554   4.588 -0.4404 -0.1603 -0.2334
  888MOL0     C17120  10.118   5.475   4.529  0.1444 -0.0080  1.2101
  888MOL0     C17121  10.235   5.500   4.617 -0.4446  0.2560 -0.0111
  888MOL0     C17122  10.277   5.646   4.590  0.3893 -0.5255 -1.1046
  888MOL0     C17123  10.399   5.689   4.661 -0.9766  0.6550  0.0894
  888MOL0     C17124  10.521   5.618   4.598  0.3752  0.3765 -0.3408
  888MOL0     C17125  10.644   5.626   4.695 -0.4805 -0.0553  0.3453
  888MOL0     C17126  10.661   5.505   4.778 -0.2594 -0.1441  0.7368
  888MOL0     C17127  10.787   5.513   4.867  0.1740  0.5937  0.2103
  888MOL0    Cl17128  10.776   5.622   5.011 -0.1857 -0.3429 -0.1612
  888MOL0     C17129   9.858   5.506   4.399 -0.4407 -0.2181 -0.1716
  888MOL0     C17130   9.733   5.507   4.345 -0.3015 -0.0735  0.6686
  888MOL0     O17131   9.427   5.347   4.470  0.7969 -0.3926 -0.7660
  888MOL0     C17132   9.190   5.351   4.328  0.0138 -0.1695 -1.4786
  888MOL0     C17133   9.072   5.347   4.263  0.0534  0.3874  0.6850
  888MOL0     N17134   8.299   5.536   4.040  0.7820 -0.5043 -0.1728
  888MOL0     N17135   8.259   5.628   4.121 -0.1106 -0.9599 -1.0712
  888MOL0     C17136   9.114   6.227   4.609  0.4516  0.2097  1.0828
  888MOL0     C17137   9.222   6.239   4.693 -0.9922  0.6470 -0.6166
  888MOL0     C17138   9.497   6.457   4.983 -0.4673  0.3044 -0.9525
  888MOL0     C17139   9.543   6.573   5.045 -0.7884 -0.7573  0.0102
  888MOL0     C17140   9.672   6.584   5.096  0.5094 -0.0916 -0.8267
  888MOL0     C17141   9.745   6.467   5.106 -0.5622  0.3167 -0.9373
  888MOL0     O17142   9.875   6.468   5.162  0.1049 -0.3723  0.6299
  888MOL0     C17143   9.948   6.593   5.164  0.7489 -0.1091  0.5448
  888MOL0     C17144  10.103   6.585   5.167  0.3268 -0.0068 -1.0791
  888MOL0     C17145  10.148   6.530   5.303 -0.2151 -0.0814  0.4794
  888MOL0     C17146  10.293   6.558   5.330  0.3030 -0.3718  0.2021
  888MOL0     C17147  10.315   6.702   5.344  0.1134  0.1475  0.2865
  888MOL0     C17148  10.349   6.813   5.356 -0.6072 -0.2858 -0.6107
  888MOL0     C17149   9.699   6.349   5.053 -0.1820  0.3371 -0.5421
  888MOL0     C17150   9.571   6.336   4.995  0.8261 -0.0845 -0.2959
  888MOL0     H17151   9.067   6.443   4.934  1.4367 -2.0273  2.5930
  888MOL0     H17152   8.885   6.404   4.788  0.4667  2.8854  0.2156
  888MOL0     H17153   8.727   6.341   4.665  1.1985  0.6114 -0.2784
  888MOL0     H17154   8.775   6.170   4.708 -0.7948 -1.7730 -1.2847
  888MOL0     H17155   8.551   6.198   4.586 -0.5888  1.9822  0.1324
  888MOL0     H17156   8.673   6.106   4.491  0.1244 -1.0854  1.2852
  888MOL0     H17157   8.701   6.302   4.337 -0.2548  2.8541 -0.8857
  888MOL0     H17158   8.607   6.405   4.448 -2.3600 -1.4057  2.5807
  888MOL0     H17159   8.402   6.274   4.392  0.7975  2.5175 -1.5913
  888MOL0     H17160   8.472   6.311   4.243  0.3190 -1.2787 -1.1948
  888MOL0     H17161   8.498   6.048   4.408 -2.7901  4.4077  1.8472
  888MOL0     H17162   8.563   6.064   4.244  1.4578  1.5792 -0.4375
  888MOL0     H17163   8.318   6.136   4.180 -3.9672 -0.7362  0.1624
  888MOL0     H17164   8.273   6.061   4.334 -1.1950  0.2467 -0.1705
  888MOL0     H17165   8.240   5.909   4.140  0.3762  1.5333 -0.3528
  888MOL0     H17166   8.410   5.927   4.100 -0.5401 -0.4046 -0.7759
  888MOL0     H17167   8.295   5.801   4.358  2.3939  0.5143  1.0640
  888MOL0     H17168   8.468   5.813   4.307  0.9071  2.0595 -2.9934
  888MOL0     H17169   8.576   5.671   4.146 -1.7701  0.4462  1.3622
  888MOL0     H17170   8.514   5.496   3.837 -3.5032 -1.2113 -0.0743
  888MOL0     H17171   8.466   5.355   3.917  1.3234  0.0935 -0.6996
  888MOL0     H17172   8.695   5.317   3.953  1.7771 -0.2321  2.0868
  888MOL0     H17173   8.649   5.399   4.102  0.3369  1.1382  0.4060
  888MOL0     H17174   8.795   5.531   3.871 -2.4422 -0.9391 -0.9199
  888MOL0     H17175   8.697   5.629   3.969  1.0492  0.8352 -0.2602
  888MOL0     H17176   8.808   5.535   4.174  1.7932 -0.8043  0.9694
  888MOL0     H17177   8.916   5.633   4.078 -1.1546  0.7945  1.1635
  888MOL0     H17178   9.147   5.605   4.042 -0.7349 -1.0778 -1.5134
  888MOL0     H17179   9.343   5.620   4.196  1.6288 -1.6534 -1.3042
  888MOL0     H17180   9.553   5.588   4.611 -0.1128 -1.8960 -0.2984
  888MOL0     H17181   9.785   5.579   4.728  1.2912  0.0812  0.3119
  888MOL0     H17182  10.144   5.503   4.426 -0.1885 -2.3444  0.4361
  888MOL0     H17183  10.079   5.373   4.530 -1.3607  0.4534 -1.4756
  888MOL0     H17184  10.320   5.437   4.588  0.2296  0.2535  1.8034
  888MOL0     H17185  10.211   5.489   4.724  1.7120 -0.9874  0.4099
  888MOL0     H17186  10.190   5.704   4.623  0.6774 -1.2606  1.1319
  888MOL0     H17187  10.297   5.655   4.483  1.4818  0.0372 -0.8682
  888MOL0     H17188  10.412   5.798   4.663  1.2129  0.4316  0.4538
  888MOL0     H17189  10.390   5.657   4.765 -1.0653  1.5766  0.3797
  888MOL0     H17190  10.547   5.676   4.509 -3.4667  2.7916 -0.1103
  888MOL0     H17191  10.501   5.513   4.576  2.6833 -0.8526  2.6668
  888MOL0     H17192  10.637   5.714   4.759  0.5889  3.0409 -3.4295
  888MOL0     H17193  10.739   5.638   4.641  0.5802  2.0381  2.4928
  888MOL0     H17194  10.570   5.495   4.839  0.3995  0.2306  1.8028
  888MOL0     H17195  10.663   5.420   4.709 -1.8208  0.6483 -0.3355
  888MOL0     H17196  10.865   5.528   4.792 -2.1911  3.3243 -1.9171
  888MOL0     H17197  10.795   5.412   4.908  0.3062  0.2956 -0.5417
  888MOL0     H17198   9.940   5.489   4.329 -0.6873  1.5907 -0.9678
  888MOL0     H17199   9.729   5.491   4.238  2.8147 -3.5092  0.8674
  888MOL0     H17200   9.200   5.286   4.414 -0.4646  0.1558 -1.1748
  888MOL0     H17201   8.990   5.281   4.288  0.2603  0.1114  0.6431
  888MOL0     H17202   9.126   6.152   4.531  1.2195  0.6129  0.8034
  888MOL0     H17203   9.316   6.186   4.697 -0.9076  0.7783  3.9934
  888MOL0     H17204   9.483   6.663   5.041  0.5432  0.1200 -1.0286
  888MOL0     H17205   9.710   6.680   5.132 -0.7915 -0.7092  2.6307
  888MOL0     H17206   9.923   6.652   5.253  2.4037 -1.6678  2.1369
  888MOL0     H17207   9.911   6.663   5.088 -1.6931 -1.1035  0.7163
  888MOL0     H17208  10.133   6.524   5.081  1.4205 -0.4496 -0.3914
  888MOL0     H17209  10.131   6.688   5.143 -2.3393  1.4882  1.5121
  888MOL0     H17210  10.135   6.421   5.306 -0.6333 -0.0768 -0.6225
  888MOL0     H17211  10.090   6.572   5.386 -0.0934 -0.9282  1.0090
  888MOL0     H17212  10.321   6.515   5.427  0.1911 -1.3855 -0.2099
  888MOL0     H17213  10.362   6.527   5.251  2.9163  0.4306  1.9934
  888MOL0     H17214  10.388   6.907   5.390  2.8772 -1.6637 -0.3406
  888MOL0     H17215   9.766   6.264   5.064  0.6781  0.8536 -1.6382
  888MOL0     H17216   9.546   6.238   4.953  1.4109  0.1521 -1.2367
  889MOL0     O17217   9.654   8.777   7.651  0.0898 -0.3598  0.3298
  889MOL0     C17218   9.750   8.707   7.628  1.1285 -0.4461 -0.1674
  889MOL0     O17219   9.747   8.571   7.600  0.4619  0.0965  0.7681
  889MOL0     C17220   9.626   8.515   7.585  0.1648 -0.1689  0.4349
  889MOL0     C17221   9.576   8.469   7.710  0.7470 -0.9729 -0.0195
  889MOL0     C17222   9.477   8.366   7.702 -0.5186  0.9202 -0.2762
  889MOL0     C17223   9.430   8.318   7.577 -1.3005 -1.3679 -0.4589
  889MOL0     O17224   9.340   8.220   7.581  0.0125 -0.0747  0.0021
  889MOL0     C17225   9.263   8.203   7.463 -0.0311  0.3245  0.1702
  889MOL0     C17226   9.143   8.104   7.472  0.1758  0.3173  0.3123
  889MOL0     C17227   9.029   8.181   7.540 -0.2560 -0.0454 -0.7006
  889MOL0     C17228   8.908   8.086   7.552  0.3689 -0.5640 -0.3877
  889MOL0     C17229   8.798   8.176   7.611  0.2595 -0.6441 -0.5445
  889MOL0     C17230   8.682   8.108   7.683 -0.9897 -0.0057 -0.0469
  889MOL0     C17231   8.583   8.203   7.748 -0.7742  0.3359 -0.0914
  889MOL0     C17232   8.474   8.126   7.826 -1.3303  1.0424  0.1326
  889MOL0     N17233   8.372   8.204   7.903 -0.5480 -0.3031 -0.0087
  889MOL0     C17234   8.381   8.239   8.042 -0.7942  0.3408  0.3330
  889MOL0     C17235   8.281   8.325   8.062 -0.1745  0.1473 -0.4774
  889MOL0     C17236   8.241   8.381   8.191  0.3172  0.3845 -1.2624
  889MOL0     C17237   8.094   8.375   8.225  0.6995 -0.2488  0.2364
  889MOL0     C17238   8.041   8.226   8.226 -0.3273  0.9872  0.2252
  889MOL0     C17239   7.887   8.210   8.218 -0.4675 -0.6646 -0.6070
  889MOL0     O17240   7.837   8.280   8.333 -0.4926  0.0125  0.0065
  889MOL0     C17241   7.713   8.261   8.372 -0.2895  0.6049  0.5515
  889MOL0     C17242   7.668   8.296   8.498 -0.0864  0.4955 -0.2076
  889MOL0     C17243   7.529   8.267   8.538 -0.1552 -0.3154 -0.6279
  889MOL0     C17244   7.442   8.189   8.470 -0.5703  0.8683  0.2453
  889MOL0     C17245   7.306   8.151   8.517  0.0136 -0.6823 -0.1669
  889MOL0     O17246   7.251   8.202   8.635  0.5115 -0.1194 -0.0165
  889MOL0     C17247   7.124   8.164   8.674 -0.3200 -0.3494 -0.2169
  889MOL0     C17248   7.064   8.044   8.648 -0.3372 -0.5485 -0.1506
  889MOL0     C17249   6.931   8.011   8.695  1.3903 -0.5900  1.0154
  889MOL0     C17250   6.858   8.108   8.754 -0.9477 -0.0920 -0.6436
  889MOL0     O17251   6.719   8.091   8.775  0.4174  0.3140 -0.1976
  889MOL0     C17252   6.641   8.031   8.673  0.2199 -0.1949 -0.3061
  889MOL0     C17253   6.495   8.083   8.682 -0.4854  0.1055  0.6271
  889MOL0     C17254   6.419   7.997   8.788 -0.2564 -0.7714 -0.1923
  889MOL0     C17255   6.295   8.067   8.854 -0.2587 -0.1449  0.5993
  889MOL0     C17256   6.199   8.104   8.744  0.3121  0.3983 -0.5455
  889MOL0     C17257   6.097   8.211   8.793 -0.6298  0.9186  0.2391
  889MOL0     C17258   5.988   8.149   8.866 -0.0210 -0.1021 -1.1059
  889MOL0     C17259   5.868   8.120   8.773  0.5184 -0.6264  0.4066
  889MOL0    Cl17260   5.804   8.274   8.698 -0.0581 -0.2226  0.2439
  889MOL0     C17261   6.914   8.232   8.776  0.2213 -0.4150 -1.2379
  889MOL0     C17262   7.047   8.261   8.742  0.1083  0.9327 -0.2434
  889MOL0     O17263   7.252   8.081   8.436  0.5807 -1.3403  0.3928
  889MOL0     C17264   7.491   8.148   8.345 -0.1610 -0.5014 -0.1002
  889MOL0     C17265   7.622   8.194   8.296 -0.0187  0.1935  0.8054
  889MOL0     N17266   8.207   8.333   7.947 -0.3136  0.2683  0.0383
  889MOL0     N17267   8.257   8.256   7.857  0.4958 -0.4802 -0.0207
  889MOL0     C17268   9.481   8.372   7.459 -0.2874  0.1675 -0.3296
  889MOL0     C17269   9.588   8.458   7.464 -0.6890 -0.9933  0.2277
  889MOL0     C17270   9.880   8.777   7.629  0.5956 -0.4892 -0.5910
  889MOL0     C17271   9.892   8.921   7.647  0.1050 -0.6615  0.7097
  889MOL0     C17272  10.011   8.990   7.640  0.2794  0.3607  0.0464
  889MOL0     C17273  10.135   8.928   7.610  0.7240  0.1302 -1.3714
  889MOL0     O17274  10.252   9.000   7.599  0.5773  0.1886 -0.1687
  889MOL0     C17275  10.247   9.143   7.601 -0.0669  0.7869 -0.9534
  889MOL0     C17276  10.383   9.199   7.557  0.6206  0.0978 -0.0576
  889MOL0     C17277  10.406   9.351   7.584  0.0025  0.3636  0.7620
  889MOL0     C17278  10.555   9.366   7.557 -0.4994 -0.2743  0.0180
  889MOL0     C17279  10.585   9.509   7.548  0.1590  0.3455  0.1307
  889MOL0     C17280  10.608   9.624   7.550 -0.5371  0.4938 -0.2546
  889MOL0     C17281  10.126   8.790   7.588  0.3264 -0.5668  0.0728
  889MOL0     C17282  10.002   8.723   7.601  0.1240  0.7686 -0.2259
  889MOL0     H17283   9.614   8.503   7.806  3.0676 -1.8686 -0.5500
  889MOL0     H17284   9.438   8.323   7.794 -1.7506  1.2514 -0.6200
  889MOL0     H17285   9.325   8.182   7.375 -0.3529  0.4666 -0.0927
  889MOL0     H17286   9.218   8.301   7.445 -2.4917 -0.8827 -0.7173
  889MOL0     H17287   9.179   8.010   7.515 -1.0303  0.3257  1.4073
  889MOL0     H17288   9.113   8.077   7.371  2.1688 -1.4452  0.1151
  889MOL0     H17289   9.007   8.264   7.473  0.0527 -0.1720 -0.9641
  889MOL0     H17290   9.054   8.225   7.637  2.8495 -1.4758 -0.7250
  889MOL0     H17291   8.890   8.043   7.453  1.4226 -0.9456 -0.4233
  889MOL0     H17292   8.926   8.002   7.619 -0.2157 -2.0436 -2.0218
  889MOL0     H17293   8.760   8.242   7.532 -0.6034  1.1439  1.2780
  889MOL0     H17294   8.859   8.234   7.681 -0.2667 -1.9429  1.0438
  889MOL0     H17295   8.722   8.039   7.758  1.4519  1.0268 -0.2785
  889MOL0     H17296   8.631   8.045   7.609  0.0041 -0.3104 -0.5008
  889MOL0     H17297   8.643   8.257   7.822  0.0546  1.6801 -1.6795
  889MOL0     H17298   8.542   8.283   7.686  3.9855  0.6588 -3.3079
  889MOL0     H17299   8.527   8.073   7.906 -0.8103  4.9204  2.6070
  889MOL0     H17300   8.411   8.058   7.768 -2.4453 -0.4828  2.9405
  889MOL0     H17301   8.465   8.204   8.103  0.8333 -0.3212 -2.1171
  889MOL0     H17302   8.271   8.486   8.198 -0.5967  0.5831  0.2922
  889MOL0     H17303   8.288   8.332   8.277  1.4770  3.8560  0.2217
  889MOL0     H17304   8.047   8.427   8.141  2.1646  0.1520 -0.3720
  889MOL0     H17305   8.063   8.421   8.319  1.2098  2.6066 -0.8859
  889MOL0     H17306   8.078   8.160   8.147 -0.8313  0.4050  0.4692
  889MOL0     H17307   8.067   8.185   8.324 -1.4083  2.0001  0.9606
  889MOL0     H17308   7.862   8.104   8.225 -3.2486 -0.0210  0.1507
  889MOL0     H17309   7.839   8.252   8.130 -1.4797 -2.5220 -0.9827
  889MOL0     H17310   7.755   8.330   8.554  2.0494  1.0839 -3.5702
  889MOL0     H17311   7.492   8.310   8.631  0.7118  1.1120 -0.9041
  889MOL0     H17312   7.119   7.961   8.606 -0.2828  0.1862 -1.5629
  889MOL0     H17313   6.888   7.913   8.674 -0.2073  0.6716 -2.2241
  889MOL0     H17314   6.645   7.922   8.679  0.2409 -0.1258  1.2159
  889MOL0     H17315   6.673   8.055   8.571 -0.0594  1.7303  0.0209
  889MOL0     H17316   6.442   8.085   8.586 -0.8358 -0.8495  0.7901
  889MOL0     H17317   6.495   8.189   8.710  1.0589  0.3250 -0.0893
  889MOL0     H17318   6.488   7.985   8.872 -0.0334  0.5103 -0.1656
  889MOL0     H17319   6.398   7.897   8.750 -0.7365 -0.1377 -1.6990
  889MOL0     H17320   6.253   8.001   8.930 -2.8826  1.2668  0.4906
  889MOL0     H17321   6.328   8.155   8.910  1.4824 -0.0061 -0.5434
  889MOL0     H17322   6.137   8.022   8.707 -1.8668  3.0309 -3.2670
  889MOL0     H17323   6.250   8.150   8.658 -2.4454 -0.1709 -2.6154
  889MOL0     H17324   6.064   8.277   8.713  1.3275  1.7501  0.0527
  889MOL0     H17325   6.153   8.259   8.874  1.2630  0.0804 -0.4975
  889MOL0     H17326   6.013   8.060   8.924  1.2858  0.7334 -0.3106
  889MOL0     H17327   5.946   8.220   8.938  1.0832 -1.3995  0.9225
  889MOL0     H17328   5.788   8.071   8.830  0.0831 -2.4786 -1.6668
  889MOL0     H17329   5.898   8.051   8.694  0.4041 -0.2143  0.0016
  889MOL0     H17330   6.843   8.308   8.809 -1.1215 -1.6097 -1.2644
  889MOL0     H17331   7.071   8.365   8.760 -2.3164  1.6972 -1.0767
  889MOL0     H17332   7.430   8.097   8.271 -2.8225 -0.8615  2.1757
  889MOL0     H17333   7.661   8.183   8.195  0.4985  1.7718  0.8064
  889MOL0     H17334   9.461   8.337   7.359 -0.1626  0.1504 -0.3490
  889MOL0     H17335   9.651   8.491   7.382  0.4800 -2.2953  0.5687
  889MOL0     H17336   9.807   8.986   7.667 -0.3295 -0.8922 -0.2892
  889MOL0     H17337   9.995   9.096   7.660 -1.2593  0.4707 -1.5597
  889MOL0     H17338  10.231   9.181   7.703 -3.3952 -3.1869  0.3132
  889MOL0     H17339  10.174   9.180   7.529 -0.4004 -1.7213 -1.9959
  889MOL0     H17340  10.457   9.136   7.607  0.0301  0.3436  1.1716
  889MOL0     H17341  10.403   9.168   7.454 -3.0596 -0.8880 -0.6066
  889MOL0     H17342  10.364   9.373   7.683 -1.2913  0.9748  0.1123
  889MOL0     H17343  10.356   9.418   7.512 -1.7385  0.4389  1.9690
  889MOL0     H17344  10.623   9.322   7.631  3.4639  2.3667 -1.7016
  889MOL0     H17345  10.584   9.325   7.460 -3.3913  1.2682 -1.6169
  889MOL0     H17346  10.648   9.723   7.552  1.6479 -0.3462  2.0412
  889MOL0     H17347  10.207   8.730   7.546 -0.9145 -0.8175 -2.1192
  889MOL0     H17348  10.013   8.616   7.582 -0.7828  0.8081 -1.0481
  890MOL0     O17349  10.040   2.671   7.201 -0.2300  0.5020  0.9986
  890MOL0     C17350  10.111   2.633   7.109  0.5660 -1.1802  0.0638
  890MOL0     O17351  10.073   2.605   6.976  0.2264  0.1913 -0.5709
  890MOL0     C17352   9.952   2.548   6.945  0.1213  0.5770 -0.1171
  890MOL0     C17353   9.938   2.447   6.848  0.0399  1.0502  0.1200
  890MOL0     C17354   9.812   2.388   6.810 -0.6986 -0.3168 -0.7591
  890MOL0     C17355   9.698   2.426   6.876  0.1792 -0.5656  0.8653
  890MOL0     O17356   9.580   2.355   6.856 -0.7841 -0.1084 -0.7048
  890MOL0     C17357   9.468   2.436   6.822 -0.4226 -0.0189 -0.1769
  890MOL0     C17358   9.382   2.381   6.714  0.5186  0.7251 -0.3992
  890MOL0     C17359   9.252   2.467   6.709  0.1143  0.2993 -0.6935
  890MOL0     C17360   9.195   2.464   6.570 -0.0233  0.4799  1.3551
  890MOL0     C17361   9.057   2.525   6.553 -0.2230  0.3660 -0.8895
  890MOL0     C17362   9.070   2.678   6.582 -0.2874  0.6086 -0.0207
  890MOL0     C17363   8.946   2.756   6.556 -0.9453  1.0845  0.5091
  890MOL0     C17364   8.832   2.744   6.654 -0.8328  0.3825 -0.5679
  890MOL0     N17365   8.735   2.641   6.623 -1.0902  0.1333  0.2877
  890MOL0     C17366   8.686   2.544   6.714  0.9932 -0.5331  0.3229
  890MOL0     C17367   8.607   2.459   6.644 -0.0131 -0.5385 -0.3131
  890MOL0     C17368   8.518   2.372   6.728 -0.6458 -0.0175  0.6927
  890MOL0     C17369   8.382   2.433   6.756 -0.3536 -0.4690 -0.3767
  890MOL0     C17370   8.291   2.355   6.854  0.0177 -0.5185  0.5874
  890MOL0     C17371   8.162   2.430   6.896  0.3187  0.3960 -0.6249
  890MOL0     O17372   8.102   2.329   6.978  0.1736 -0.0882 -0.8845
  890MOL0     C17373   7.964   2.333   6.992  0.0475 -0.6428 -0.0635
  890MOL0     C17374   7.874   2.427   6.940  0.5210 -0.0488  0.2008
  890MOL0     C17375   7.740   2.425   6.989 -0.3177 -0.4249 -0.1104
  890MOL0     C17376   7.697   2.326   7.083  0.4720  0.1488  0.1060
  890MOL0     C17377   7.553   2.324   7.113  0.2208 -0.5974 -0.0806
  890MOL0     O17378   7.517   2.237   7.210 -0.3992 -0.7365 -0.0539
  890MOL0     C17379   7.382   2.243   7.240 -0.0326  0.1472  0.7788
  890MOL0     C17380   7.308   2.127   7.224  0.3286 -0.3790 -0.4347
  890MOL0     C17381   7.169   2.121   7.253 -1.0700 -0.0906  0.0256
  890MOL0     C17382   7.110   2.239   7.306  0.7120  0.6380  0.5790
  890MOL0     O17383   6.971   2.240   7.340 -0.2604  0.2481  0.9884
  890MOL0     C17384   6.929   2.150   7.442 -0.4118 -0.2619 -0.3388
  890MOL0     C17385   6.781   2.143   7.491 -0.6229  0.1568  0.8685
  890MOL0     C17386   6.735   2.265   7.565  1.6832 -1.4010  0.3839
  890MOL0     C17387   6.590   2.253   7.610 -0.0281 -0.0632 -0.6855
  890MOL0     C17388   6.562   2.373   7.697  0.3239  0.3290 -0.7506
  890MOL0     C17389   6.416   2.362   7.741 -0.0339 -0.6007  0.4080
  890MOL0     C17390   6.390   2.469   7.846  0.7111 -0.3779 -0.2764
  890MOL0     C17391   6.238   2.475   7.882 -0.4076 -0.8490 -0.4443
  890MOL0    Cl17392   6.235   2.592   8.022 -0.6049  0.3282  0.2979
  890MOL0     C17393   7.184   2.351   7.329  0.4253  0.0638 -0.1797
  890MOL0     C17394   7.322   2.355   7.295 -0.1099 -0.5098 -0.6490
  890MOL0     O17395   7.471   2.385   7.041 -0.3914  1.2595  0.2824
  890MOL0     C17396   7.789   2.233   7.125 -0.0722  0.5588 -1.0395
  890MOL0     C17397   7.921   2.236   7.086 -0.6100 -0.0898  0.0643
  890MOL0     N17398   8.610   2.505   6.512  0.0876 -0.5469 -0.3235
  890MOL0     N17399   8.679   2.610   6.502 -0.1066  0.5635 -0.1759
  890MOL0     C17400   9.710   2.521   6.983  0.7189 -0.1936 -0.1282
  890MOL0     C17401   9.831   2.582   7.010  0.2120 -0.5159 -0.4641
  890MOL0     C17402  10.257   2.621   7.136 -0.4116 -0.2535 -0.1169
  890MOL0     C17403  10.322   2.703   7.238 -0.2565 -0.0028  1.0222
  890MOL0     C17404  10.455   2.673   7.273  0.9315 -0.2032  0.0850
  890MOL0     C17405  10.529   2.575   7.210  0.4013  0.5308 -0.1350
  890MOL0     O17406  10.654   2.562   7.270 -0.1533 -0.4977  0.9497
  890MOL0     C17407  10.740   2.460   7.225 -0.0124  0.2590  0.0860
  890MOL0     C17408  10.852   2.445   7.312  0.0165  0.4598 -0.8679
  890MOL0     C17409  10.823   2.386   7.450  0.1516  0.0773 -0.3778
  890MOL0     C17410  10.937   2.410   7.556  0.1206 -0.2260  0.0154
  890MOL0     C17411  11.066   2.341   7.527 -0.9835  0.1531 -0.2963
  890MOL0     C17412  11.168   2.289   7.491 -0.4034  0.5794 -0.3652
  890MOL0     C17413  10.467   2.501   7.101 -0.8017 -0.9264  0.2526
  890MOL0     C17414  10.333   2.536   7.057 -0.6069  0.4919 -0.4221
  890MOL0     H17415  10.021   2.410   6.790 -2.5304 -2.1703 -1.8611
  890MOL0     H17416   9.813   2.301   6.745  1.2931 -2.4037  1.8416
  890MOL0     H17417   9.501   2.535   6.789 -1.5268 -0.2217 -2.0229
  890MOL0     H17418   9.407   2.460   6.909 -2.5386  2.5335 -2.2219
  890MOL0     H17419   9.360   2.280   6.751  3.1289  0.4672  0.6818
  890MOL0     H17420   9.437   2.370   6.620  1.4111 -1.5717  0.3098
  890MOL0     H17421   9.265   2.567   6.751  1.1615 -0.1427  0.0726
  890MOL0     H17422   9.171   2.428   6.771  0.8144  2.6547  1.8794
  890MOL0     H17423   9.271   2.520   6.516 -0.7875 -0.4145 -0.7621
  890MOL0     H17424   9.193   2.360   6.534  3.1987  0.8730 -0.2990
  890MOL0     H17425   8.979   2.486   6.619 -0.2534 -0.5156 -1.4383
  890MOL0     H17426   9.015   2.506   6.454 -1.2266 -1.0294 -0.2317
  890MOL0     H17427   9.148   2.720   6.517 -2.6400  3.1961 -1.3588
  890MOL0     H17428   9.099   2.686   6.687 -0.4042 -1.0202  0.1487
  890MOL0     H17429   8.986   2.858   6.555  0.7604  0.4624  1.1002
  890MOL0     H17430   8.908   2.740   6.455 -1.2119  1.3048  0.5744
  890MOL0     H17431   8.769   2.833   6.651 -1.1290  0.2935  1.5893
  890MOL0     H17432   8.873   2.732   6.754  1.8834  0.6994 -1.5482
  890MOL0     H17433   8.720   2.562   6.815 -1.8101  0.1782  1.2227
  890MOL0     H17434   8.579   2.335   6.811  0.5749 -0.6526 -0.4513
  890MOL0     H17435   8.498   2.283   6.667 -2.7055  2.4109 -2.5272
  890MOL0     H17436   8.328   2.458   6.664  3.3524 -1.5435 -3.0867
  890MOL0     H17437   8.410   2.525   6.807 -2.8145 -0.2529  0.7553
  890MOL0     H17438   8.263   2.259   6.810 -0.1622 -0.5937  0.8633
  890MOL0     H17439   8.355   2.341   6.942  1.3225 -0.4645 -0.3180
  890MOL0     H17440   8.102   2.461   6.810 -2.8088 -1.5519  0.6833
  890MOL0     H17441   8.191   2.516   6.957  0.5166 -0.4963  0.5826
  890MOL0     H17442   7.891   2.496   6.857 -0.7838 -0.5457 -0.5049
  890MOL0     H17443   7.670   2.495   6.945 -2.2719 -0.2014  3.0811
  890MOL0     H17444   7.367   2.040   7.198 -0.3388 -0.8130 -0.5377
  890MOL0     H17445   7.117   2.026   7.248 -1.5109  0.1708 -0.3690
  890MOL0     H17446   6.984   2.172   7.534  0.4048 -1.6382 -0.4774
  890MOL0     H17447   6.951   2.046   7.418 -2.0856 -0.8112  0.3509
  890MOL0     H17448   6.785   2.068   7.571  1.7562  1.7218  2.3537
  890MOL0     H17449   6.714   2.124   7.407  1.2631  0.7717 -0.8483
  890MOL0     H17450   6.758   2.358   7.512  0.6321  0.2264  2.5823
  890MOL0     H17451   6.784   2.288   7.660  0.2653  1.7339  0.4880
  890MOL0     H17452   6.515   2.248   7.531  0.1659  0.6232 -0.9278
  890MOL0     H17453   6.577   2.162   7.669  1.2337  0.3365  0.2426
  890MOL0     H17454   6.588   2.469   7.650 -0.4952  1.9557  1.8847
  890MOL0     H17455   6.622   2.359   7.786  1.3742  0.3269 -1.4461
  890MOL0     H17456   6.400   2.263   7.784 -0.4561  0.0894  1.8975
  890MOL0     H17457   6.345   2.370   7.658 -1.4584 -3.0930  1.2837
  890MOL0     H17458   6.441   2.433   7.937 -1.1450 -1.8841  0.2400
  890MOL0     H17459   6.411   2.569   7.808 -0.5916  0.3316  0.7823
  890MOL0     H17460   6.206   2.377   7.921  0.0528 -0.2285  1.5934
  890MOL0     H17461   6.184   2.525   7.801 -0.0472  2.7124  1.3584
  890MOL0     H17462   7.124   2.439   7.354 -3.0111 -1.6657 -1.6072
  890MOL0     H17463   7.376   2.449   7.303 -0.1891 -0.4906 -0.2775
  890MOL0     H17464   7.742   2.159   7.189 -0.4912  1.4178 -0.3301
  890MOL0     H17465   8.006   2.176   7.116  1.1020  1.6953 -0.9991
  890MOL0     H17466   9.618   2.555   7.030  0.1268 -0.4516 -1.0862
  890MOL0     H17467   9.831   2.672   7.071 -0.4246  0.2200 -1.5100
  890MOL0     H17468  10.268   2.774   7.299 -1.5748  0.2068 -0.3323
  890MOL0     H17469  10.509   2.728   7.350 -0.5358  1.7905 -0.2309
  890MOL0     H17470  10.775   2.475   7.122  0.0806 -0.8114 -0.0488
  890MOL0     H17471  10.686   2.365   7.219 -1.7823  1.2162  0.1962
  890MOL0     H17472  10.909   2.374   7.252 -0.2045 -0.1044 -0.4172
  890MOL0     H17473  10.903   2.541   7.327  0.1346  0.7160 -2.7502
  890MOL0     H17474  10.806   2.279   7.438 -0.8743 -0.1061  2.2017
  890MOL0     H17475  10.733   2.426   7.497  1.0575  0.1101  1.4085
  890MOL0     H17476  10.953   2.517   7.572 -0.1586 -0.0398 -0.8832
  890MOL0     H17477  10.898   2.384   7.655 -0.1016 -0.7844 -0.2140
  890MOL0     H17478  11.261   2.236   7.483  0.4642  2.1001 -0.6939
  890MOL0     H17479  10.523   2.424   7.050  0.5274  0.7207 -0.8690
  890MOL0     H17480  10.287   2.475   6.980  0.0430  0.3890 -0.7367
  891MOL0     O17481   1.416   8.274   1.048 -0.5614 -0.0388  0.3869
  891MOL0     C17482   1.498   8.360   1.011  1.1444 -0.7407 -0.5061
  891MOL0     O17483   1.630   8.334   0.986 -0.6537  0.1549 -0.0888
  891MOL0     C17484   1.688   8.216   1.013  0.0737  0.5053 -0.4931
  891MOL0     C17485   1.799   8.206   1.102  1.3201  0.6500 -0.1246
  891MOL0     C17486   1.837   8.082   1.150  0.6044  0.4118  0.1530
  891MOL0     C17487   1.785   7.960   1.094 -0.2449  0.1779  0.4641
  891MOL0     O17488   1.829   7.839   1.135 -0.4798  0.7305  0.4075
  891MOL0     C17489   1.822   7.823   1.276  0.2581  0.3737 -0.8832
  891MOL0     C17490   1.777   7.673   1.323  0.3134  0.0338  0.4497
  891MOL0     C17491   1.672   7.592   1.236 -0.3346  0.0646 -0.2474
  891MOL0     C17492   1.678   7.442   1.262 -0.7346 -0.0402 -0.4750
  891MOL0     C17493   1.551   7.368   1.205  1.1948  0.6946  0.1403
  891MOL0     C17494   1.545   7.222   1.219 -0.3376  1.1547 -0.3125
  891MOL0     C17495   1.663   7.154   1.150  0.6157  0.1018  0.4911
  891MOL0     C17496   1.711   7.034   1.230 -0.1914 -0.5388  0.7729
  891MOL0     N17497   1.608   6.928   1.257  0.1672 -0.4630 -0.2625
  891MOL0     C17498   1.490   6.903   1.196 -0.0924 -0.5819  0.1227
  891MOL0     C17499   1.421   6.824   1.286 -0.3875 -0.0036  0.3401
  891MOL0     C17500   1.281   6.762   1.240 -0.0525  0.6937  0.1889
  891MOL0     C17501   1.261   6.625   1.308  0.4102  0.0647 -0.4189
  891MOL0     C17502   1.117   6.579   1.280  0.3668 -0.0573 -0.5446
  891MOL0     C17503   1.088   6.440   1.354 -0.4957  0.8851  0.2101
  891MOL0     O17504   0.984   6.358   1.305  0.1890  0.4836 -0.2680
  891MOL0     C17505   1.001   6.218   1.303  0.9215  0.5792  0.0583
  891MOL0     C17506   1.084   6.141   1.385  0.2850  0.0396 -0.4701
  891MOL0     C17507   1.078   6.005   1.398  0.5402  0.0496 -0.0466
  891MOL0     C17508   1.000   5.935   1.302  0.7548  0.9552 -0.6766
  891MOL0     C17509   0.996   5.783   1.306  0.2657 -0.5010  0.2609
  891MOL0     O17510   0.946   5.723   1.193 -0.1714  0.3201  0.5972
  891MOL0     C17511   0.961   5.589   1.172  0.0280  0.2562 -0.3581
  891MOL0     C17512   0.869   5.542   1.078 -0.0020 -0.7289  0.0983
  891MOL0     C17513   0.879   5.405   1.027  0.3366 -0.4006 -1.0763
  891MOL0     C17514   0.986   5.332   1.071  0.0553  0.4797 -0.8429
  891MOL0     O17515   1.008   5.203   1.025 -0.5057 -0.2398 -0.1284
  891MOL0     C17516   0.994   5.164   0.890 -0.0870  0.3941 -0.3779
  891MOL0     C17517   0.968   5.015   0.886 -0.5340 -0.3736 -0.2704
  891MOL0     C17518   0.944   4.974   0.748 -0.4355 -0.0797  0.4691
  891MOL0     C17519   0.920   4.826   0.734  0.0840  0.6436 -0.0071
  891MOL0     C17520   0.845   4.785   0.608 -0.0724 -0.6648  1.1560
  891MOL0     C17521   0.793   4.649   0.625 -0.0896  0.3596 -0.4790
  891MOL0     C17522   0.893   4.537   0.646 -0.0010 -0.1989 -0.4396
  891MOL0     C17523   0.826   4.407   0.660 -0.4742  0.8861  0.6612
  891MOL0    Cl17524   0.750   4.366   0.498 -0.2240 -0.1555  0.4877
  891MOL0     C17525   1.067   5.384   1.170 -0.2818  0.2703  0.1837
  891MOL0     C17526   1.056   5.507   1.232  0.3627  0.6076 -0.2267
  891MOL0     O17527   1.049   5.733   1.406  0.1909 -0.7350 -0.4194
  891MOL0     C17528   0.923   6.009   1.216  0.6155 -0.1220  0.8892
  891MOL0     C17529   0.918   6.148   1.217 -1.4382  0.2510 -0.2513
  891MOL0     N17530   1.496   6.807   1.405  0.5503  0.6426 -0.2452
  891MOL0     N17531   1.605   6.858   1.379 -0.2624 -0.8139 -0.5361
  891MOL0     C17532   1.698   7.967   0.989  0.5679 -0.3518  0.2324
  891MOL0     C17533   1.638   8.093   0.963  0.7105 -0.5017 -0.4473
  891MOL0     C17534   1.444   8.495   0.987 -0.7176  0.2566 -0.1128
  891MOL0     C17535   1.318   8.520   1.022 -0.3602 -0.3445  0.2725
  891MOL0     C17536   1.264   8.644   1.003 -0.3775  0.7023 -0.2318
  891MOL0     C17537   1.349   8.752   0.974 -0.3877  1.2700  0.6921
  891MOL0     O17538   1.283   8.869   0.961  0.3879  0.0378 -0.5682
  891MOL0     C17539   1.357   8.983   0.949 -0.3509  0.9753  0.6717
  891MOL0     C17540   1.247   9.081   0.979 -0.3655 -0.5403 -0.5003
  891MOL0     C17541   1.294   9.224   0.949  0.2372  0.0184 -0.5579
  891MOL0     C17542   1.218   9.329   1.051  0.1733  0.5747  0.6653
  891MOL0     C17543   1.212   9.460   0.988  0.3284  0.0042 -0.6427
  891MOL0     C17544   1.209   9.578   0.966 -0.1353 -0.6568  0.7437
  891MOL0     C17545   1.479   8.723   0.937 -0.7885 -0.4730 -0.4293
  891MOL0     C17546   1.536   8.594   0.948  0.4999  0.7763  0.1090
  891MOL0     H17547   1.848   8.292   1.147 -0.9879  0.6458  2.6884
  891MOL0     H17548   1.912   8.070   1.228  0.2819  0.5990  0.4907
  891MOL0     H17549   1.759   7.898   1.323  1.1711  2.0994 -2.2914
  891MOL0     H17550   1.922   7.829   1.320 -0.4052 -2.0907  1.2458
  891MOL0     H17551   1.748   7.671   1.428  1.0518  2.6008  0.7832
  891MOL0     H17552   1.868   7.613   1.313  0.8443  1.0883 -1.8561
  891MOL0     H17553   1.693   7.614   1.131  1.4705 -0.5277 -0.0336
  891MOL0     H17554   1.571   7.624   1.264 -0.4508 -0.6096  0.1182
  891MOL0     H17555   1.769   7.397   1.220  0.2996 -0.3570  1.9227
  891MOL0     H17556   1.688   7.410   1.366 -1.6110 -1.4979 -0.8129
  891MOL0     H17557   1.548   7.381   1.097  2.5412 -2.3499 -0.3840
  891MOL0     H17558   1.466   7.419   1.250  2.3590  1.8773  1.0523
  891MOL0     H17559   1.457   7.174   1.175  0.8497 -0.6000 -0.9058
  891MOL0     H17560   1.543   7.189   1.323 -1.7862 -1.0974 -0.9651
  891MOL0     H17561   1.625   7.111   1.056  3.2792  1.8101 -1.5310
  891MOL0     H17562   1.736   7.229   1.117  0.2564  0.3784  0.3055
  891MOL0     H17563   1.750   7.067   1.327  3.4059 -0.8553 -0.4075
  891MOL0     H17564   1.791   6.977   1.182  1.0777 -0.9955  3.2750
  891MOL0     H17565   1.458   6.931   1.097  1.9326 -1.0928 -0.7249
  891MOL0     H17566   1.283   6.736   1.134  2.9866 -3.8457  1.0630
  891MOL0     H17567   1.202   6.834   1.260 -1.6637 -0.5762 -1.3310
  891MOL0     H17568   1.279   6.644   1.415  1.0926  5.7753 -1.2402
  891MOL0     H17569   1.331   6.550   1.271 -2.1402 -1.1288 -3.1584
  891MOL0     H17570   1.039   6.648   1.314 -1.1934 -3.1212  2.8012
  891MOL0     H17571   1.115   6.550   1.175  1.3225 -4.4353  0.4559
  891MOL0     H17572   1.069   6.461   1.460  1.5630  0.6889  0.6593
  891MOL0     H17573   1.180   6.383   1.346 -0.7519  0.6320 -1.2019
  891MOL0     H17574   1.146   6.188   1.461 -3.7855  3.8978  0.9216
  891MOL0     H17575   1.143   5.962   1.473  2.5845  2.9618 -0.0026
  891MOL0     H17576   0.782   5.592   1.037  2.8681  3.7475 -1.2608
  891MOL0     H17577   0.800   5.382   0.957 -2.5445 -1.9890  2.3810
  891MOL0     H17578   1.082   5.193   0.832 -0.3066  2.0601  0.0642
  891MOL0     H17579   0.906   5.215   0.848  0.3156  0.1480 -1.5659
  891MOL0     H17580   0.878   5.003   0.948  0.2009  0.6594  1.0534
  891MOL0     H17581   1.055   4.976   0.939 -0.3129 -1.9032 -1.6745
  891MOL0     H17582   1.027   5.015   0.689 -0.3889  0.3132  0.8087
  891MOL0     H17583   0.847   5.008   0.712  0.8205 -0.4382 -3.8096
  891MOL0     H17584   1.010   4.765   0.741 -0.5290 -0.2131  0.6269
  891MOL0     H17585   0.849   4.793   0.811  0.4186  1.2918  0.5949
  891MOL0     H17586   0.914   4.779   0.523 -0.1339 -2.7134  1.2012
  891MOL0     H17587   0.766   4.859   0.592  0.8575  0.3107  0.9511
  891MOL0     H17588   0.735   4.632   0.534  0.7586  1.1190 -1.1907
  891MOL0     H17589   0.725   4.652   0.710 -0.7349  2.9099 -1.0076
  891MOL0     H17590   0.969   4.540   0.568  2.3257  2.3503  1.6888
  891MOL0     H17591   0.947   4.551   0.740 -0.4192  1.5219 -0.4141
  891MOL0     H17592   0.744   4.396   0.732  0.8870 -2.1190  1.9106
  891MOL0     H17593   0.901   4.334   0.691 -0.6819  0.2185 -0.3723
  891MOL0     H17594   1.146   5.315   1.196  0.1742  0.4343 -0.7309
  891MOL0     H17595   1.136   5.544   1.295 -1.0170  1.7346  0.9377
  891MOL0     H17596   0.879   5.954   1.133  1.3282 -0.9476  1.0418
  891MOL0     H17597   0.870   6.201   1.136  0.3386  0.4157 -1.2418
  891MOL0     H17598   1.671   7.881   0.928 -1.8053  0.3655  0.1591
  891MOL0     H17599   1.544   8.091   0.909  0.1690  0.5150  0.4124
  891MOL0     H17600   1.258   8.440   1.063  1.6573 -2.7725 -1.1979
  891MOL0     H17601   1.160   8.659   1.030 -1.3778 -2.6159 -1.7179
  891MOL0     H17602   1.386   8.995   0.844  0.7523 -0.4679  0.7748
  891MOL0     H17603   1.444   8.996   1.013 -0.3994  1.6662  0.5991
  891MOL0     H17604   1.162   9.050   0.917  1.0888 -0.5321 -2.5910
  891MOL0     H17605   1.240   9.072   1.088  5.1154 -3.6034 -0.0233
  891MOL0     H17606   1.265   9.248   0.847  1.7101  1.9210 -0.5954
  891MOL0     H17607   1.403   9.229   0.949  0.2943 -0.6503  0.5925
  891MOL0     H17608   1.116   9.308   1.083 -1.3744  3.6293 -1.8092
  891MOL0     H17609   1.283   9.333   1.140  3.8050 -0.1864 -1.7188
  891MOL0     H17610   1.201   9.682   0.938 -1.9667 -0.8531  0.3769
  891MOL0     H17611   1.545   8.805   0.910 -1.4713  1.2505  2.6936
  891MOL0     H17612   1.638   8.575   0.918  0.2506  0.6712 -0.6925
  892MOL0     O17613  10.441   8.743   4.061 -0.1382  0.5329 -0.2539
  892MOL0     C17614  10.388   8.847   4.028 -0.1022  0.0258  0.3892
  892MOL0     O17615  10.449   8.964   3.986 -0.0843 -0.6048 -0.3191
  892MOL0     C17616  10.587   8.981   3.956  0.7435 -0.4880  0.5901
  892MOL0     C17617  10.683   8.918   4.027  0.3137  0.4887  0.0153
  892MOL0     C17618  10.819   8.940   3.996  0.7471 -0.3268  0.1206
  892MOL0     C17619  10.855   9.037   3.892 -0.4350 -0.0421 -0.0311
  892MOL0     O17620  10.984   9.057   3.856 -0.7293  0.3599  0.3802
  892MOL0     C17621  11.031   9.150   3.760  0.5845 -0.4340  0.4693
  892MOL0     C17622  11.183   9.135   3.751  0.1475  0.9832  0.3443
  892MOL0     C17623  11.251   9.227   3.642 -0.5145  0.5462  0.1215
  892MOL0     C17624  11.406   9.236   3.660  0.9933  0.8147 -0.5048
  892MOL0     C17625  11.469   9.254   3.523  0.0061 -0.2964  0.3148
  892MOL0     C17626  11.620   9.299   3.541  0.0076  0.4631 -0.5671
  892MOL0     C17627  11.679   9.342   3.403 -0.1935 -0.5122  0.2848
  892MOL0     C17628  11.838   9.338   3.406  0.8224  0.6960  0.2156
  892MOL0     N17629  11.894   9.432   3.301 -0.0695  0.1347  0.3244
  892MOL0     C17630  11.839   9.462   3.179  0.1360 -0.1834 -0.1353
  892MOL0     C17631  11.883   9.592   3.143 -0.5421 -0.6509 -0.7678
  892MOL0     C17632  11.840   9.682   3.035 -0.2598  0.1725 -0.0528
  892MOL0     C17633  11.728   9.772   3.081  0.2207 -0.5354  0.0633
  892MOL0     C17634  11.602   9.692   3.127  0.4369 -0.6106 -0.4740
  892MOL0     C17635  11.488   9.791   3.150  0.4711  0.0493 -0.1462
  892MOL0     O17636  11.447   9.841   3.020  0.6750  0.3818 -0.2462
  892MOL0     C17637  11.333   9.928   3.012 -0.6202  0.3876  0.4078
  892MOL0     C17638  11.288   9.956   2.883  0.8000 -0.8602 -0.0283
  892MOL0     C17639  11.171  10.035   2.867 -0.5462  0.3666 -0.1593
  892MOL0     C17640  11.104  10.074   2.978 -0.4671  0.4466 -0.1728
  892MOL0     C17641  10.984  10.155   2.957  0.0303 -0.2035  0.2063
  892MOL0     O17642  10.931  10.179   2.834  0.0068  0.5348  0.4011
  892MOL0     C17643  10.828  10.261   2.811 -0.4625  0.5409 -0.0915
  892MOL0     C17644  10.732  10.192   2.734  0.0658 -0.3872  0.3919
  892MOL0     C17645  10.640  10.277   2.672  0.1532  0.5308  1.2530
  892MOL0     C17646  10.633  10.417   2.698 -0.6489 -0.2466  0.3252
  892MOL0     O17647  10.535  10.494   2.645  0.3537  0.2746 -0.5889
  892MOL0     C17648  10.409  10.467   2.706  0.0373 -0.1443 -0.0305
  892MOL0     C17649  10.320  10.350   2.657 -0.6647 -0.4926 -0.1043
  892MOL0     C17650  10.321  10.357   2.503 -0.6786 -1.7713 -0.1411
  892MOL0     C17651  10.248  10.480   2.436  0.6407  0.0387  0.9326
  892MOL0     C17652  10.229  10.459   2.282  0.3224  0.4804 -0.0739
  892MOL0     C17653  10.191  10.597   2.227  1.1875 -0.1991  0.5852
  892MOL0     C17654  10.180  10.602   2.077  0.0330 -0.6676  0.1097
  892MOL0     C17655  10.142  10.746   2.029 -0.4230 -0.7388  0.1494
  892MOL0    Cl17656  10.142  10.754   1.849  0.1175  0.0971  0.5273
  892MOL0     C17657  10.730  10.469   2.781  0.8840 -1.2230  0.3012
  892MOL0     C17658  10.828  10.393   2.842 -0.4992 -0.5263  0.2075
  892MOL0     O17659  10.944  10.206   3.062  0.1438 -0.0509 -0.1596
  892MOL0     C17660  11.151  10.063   3.105 -0.8663  0.1622 -0.1399
  892MOL0     C17661  11.268   9.978   3.122 -0.2103  0.8684 -0.2912
  892MOL0     N17662  11.974   9.626   3.243 -0.3109 -0.0657  0.6209
  892MOL0     N17663  11.979   9.529   3.331  0.9161 -0.0570  0.4041
  892MOL0     C17664  10.757   9.107   3.820  0.1452  0.3081  0.0919
  892MOL0     C17665  10.622   9.079   3.862 -1.0282 -0.5708 -0.1561
  892MOL0     C17666  10.245   8.830   4.021 -0.0050 -0.2284  0.7839
  892MOL0     C17667  10.182   8.926   3.951  0.5706 -1.0709 -0.8528
  892MOL0     C17668  10.042   8.940   3.949  0.0725  0.4904 -0.0427
  892MOL0     C17669   9.963   8.840   4.000  0.3151 -0.2028  0.2790
  892MOL0     O17670   9.830   8.870   3.988 -0.2696 -0.1431  0.2490
  892MOL0     C17671   9.729   8.784   4.045  0.3760 -0.4338  0.8238
  892MOL0     C17672   9.621   8.882   4.085 -0.6549 -0.7511 -0.1343
  892MOL0     C17673   9.549   8.938   3.955 -0.2651  0.8615  0.5157
  892MOL0     C17674   9.410   8.998   3.995 -0.2575 -0.0583 -0.0197
  892MOL0     C17675   9.339   9.053   3.881 -0.4976 -0.0154 -0.0244
  892MOL0     C17676   9.280   9.110   3.795 -0.5649  0.6780  0.1008
  892MOL0     C17677  10.018   8.739   4.075  0.0261 -0.2978 -0.3113
  892MOL0     C17678  10.157   8.733   4.088 -0.3938 -0.7290  0.5174
  892MOL0     H17679  10.649   8.847   4.102  0.8260  1.3631  1.1036
  892MOL0     H17680  10.902   8.905   4.057  0.7025  0.0317  0.3920
  892MOL0     H17681  10.999   9.253   3.777 -0.7320 -0.4719 -1.4240
  892MOL0     H17682  10.982   9.130   3.664 -1.8851  0.2595  1.5080
  892MOL0     H17683  11.213   9.032   3.733 -2.7527  0.1580 -0.1538
  892MOL0     H17684  11.224   9.165   3.849  1.7292 -1.9533  0.6898
  892MOL0     H17685  11.212   9.328   3.661  1.4205  1.1063  1.3640
  892MOL0     H17686  11.223   9.189   3.543 -1.4202  0.9757  0.2012
  892MOL0     H17687  11.431   9.315   3.731 -1.8363  1.0348  0.3830
  892MOL0     H17688  11.446   9.142   3.700 -0.4653  0.9168  1.3338
  892MOL0     H17689  11.410   9.332   3.473  0.3071 -0.6649 -0.6491
  892MOL0     H17690  11.453   9.167   3.458 -3.8509 -0.0158  0.6898
  892MOL0     H17691  11.667   9.214   3.591  0.3536 -1.3149 -3.6535
  892MOL0     H17692  11.625   9.391   3.599 -0.5936  0.5237 -0.6013
  892MOL0     H17693  11.653   9.272   3.323  1.3786  0.7300 -1.4248
  892MOL0     H17694  11.661   9.447   3.377 -0.9383 -0.1891  1.9682
  892MOL0     H17695  11.874   9.235   3.398 -1.6130 -0.0824 -3.4379
  892MOL0     H17696  11.862   9.375   3.506 -0.1722  1.1735  0.2869
  892MOL0     H17697  11.769   9.420   3.108  0.1003 -1.2485  0.5235
  892MOL0     H17698  11.811   9.618   2.951 -1.0838  0.4183  0.0370
  892MOL0     H17699  11.923   9.749   3.013  0.7383 -0.3844  1.8083
  892MOL0     H17700  11.694   9.836   3.000 -3.7229  0.3040  2.1307
  892MOL0     H17701  11.764   9.845   3.155 -1.4329  2.2820 -1.7429
  892MOL0     H17702  11.566   9.617   3.056  0.9655 -1.1881 -0.1500
  892MOL0     H17703  11.623   9.638   3.220  1.5101  1.2076  0.3855
  892MOL0     H17704  11.514   9.874   3.217 -1.8347  3.9072 -3.6206
  892MOL0     H17705  11.403   9.737   3.192  1.3782  0.3659  2.2989
  892MOL0     H17706  11.343   9.921   2.796 -0.0476 -0.7722 -0.6225
  892MOL0     H17707  11.119  10.059   2.775  1.9502  0.0203 -1.7594
  892MOL0     H17708  10.734  10.083   2.729 -2.7192 -0.5619  1.2968
  892MOL0     H17709  10.573  10.227   2.604  4.4352 -0.6208 -2.5840
  892MOL0     H17710  10.353  10.560   2.690  0.7126  0.3723  0.5115
  892MOL0     H17711  10.425  10.463   2.814  2.9893  0.0212 -0.3675
  892MOL0     H17712  10.219  10.366   2.695 -1.1113  1.4501 -1.9456
  892MOL0     H17713  10.365  10.259   2.699  0.4888  0.5926  1.0886
  892MOL0     H17714  10.278  10.261   2.474 -3.0610 -2.0245  3.5605
  892MOL0     H17715  10.419  10.371   2.457 -1.3335  2.0888 -0.6916
  892MOL0     H17716  10.148  10.472   2.479 -0.7910 -1.3038 -2.2650
  892MOL0     H17717  10.305  10.572   2.452  2.9120 -1.0702 -0.2140
  892MOL0     H17718  10.152  10.385   2.258  0.8084  0.9845 -3.6641
  892MOL0     H17719  10.314  10.412   2.233  0.8388 -0.4849  1.6415
  892MOL0     H17720  10.252  10.684   2.253 -0.4426  1.8234 -1.8846
  892MOL0     H17721  10.093  10.618   2.272  0.2549 -4.7363  1.1626
  892MOL0     H17722  10.281  10.580   2.042  1.4686  3.9477  0.5683
  892MOL0     H17723  10.101  10.530   2.054 -0.4412 -0.2976  0.5552
  892MOL0     H17724  10.221  10.808   2.073 -0.3703  0.2268 -1.2381
  892MOL0     H17725  10.048  10.784   2.071 -0.2645 -0.8093  0.5765
  892MOL0     H17726  10.723  10.575   2.803 -3.0237 -0.9158 -1.5568
  892MOL0     H17727  10.919  10.433   2.886  1.0915 -0.7619 -2.6176
  892MOL0     H17728  11.110  10.107   3.195  1.7805  0.7281  0.8870
  892MOL0     H17729  11.300   9.951   3.222 -0.1012  2.4721  0.1335
  892MOL0     H17730  10.776   9.188   3.751  1.1712 -0.0622 -0.0781
  892MOL0     H17731  10.541   9.138   3.820  1.3941  2.7184 -0.5974
  892MOL0     H17732  10.236   9.007   3.903  0.0965  0.3143  0.8370
  892MOL0     H17733   9.988   9.019   3.896 -1.7553  0.0563  1.0880
  892MOL0     H17734   9.766   8.730   4.133 -0.6537 -0.5561  1.1962
  892MOL0     H17735   9.700   8.700   3.982  2.3392 -1.8916  1.7616
  892MOL0     H17736   9.547   8.827   4.143  0.0916 -1.8505 -0.1821
  892MOL0     H17737   9.659   8.965   4.145 -3.8609  0.4191  0.4440
  892MOL0     H17738   9.527   8.860   3.882 -2.7991  2.3409 -0.4668
  892MOL0     H17739   9.610   9.023   3.923  2.3276 -1.3162 -0.6135
  892MOL0     H17740   9.343   8.922   4.035 -0.9307 -0.3917 -1.6968
  892MOL0     H17741   9.424   9.064   4.081  0.6832 -0.4399  0.1361
  892MOL0     H17742   9.227   9.141   3.708 -1.4988  0.7943  0.6948
  892MOL0     H17743   9.961   8.657   4.118 -3.0998  0.7767 -2.1190
  892MOL0     H17744  10.200   8.640   4.125  2.1980 -0.2042 -0.9061
  893MOL0     O17745  11.294   9.864   0.298 -0.4857 -0.1344 -0.2356
  893MOL0     C17746  11.275   9.870   0.182  0.9372  0.4407  0.1631
  893MOL0     O17747  11.156   9.909   0.125 -0.6242  0.0024 -0.4460
  893MOL0     C17748  11.043   9.944   0.196  0.0964 -0.6093  0.0400
  893MOL0     C17749  10.957   9.840   0.254  0.7035 -0.8371 -0.1853
  893MOL0     C17750  10.832   9.885   0.308  0.2975 -0.0579  0.6292
  893MOL0     C17751  10.794  10.019   0.307  1.0853 -1.1841 -0.1539
  893MOL0     O17752  10.676  10.068   0.365 -1.4744 -0.1775 -0.7524
  893MOL0     C17753  10.594   9.987   0.452  0.3043 -0.3428  0.5496
  893MOL0     C17754  10.493  10.083   0.521 -0.8028  0.5512 -0.1781
  893MOL0     C17755  10.417  10.166   0.420 -0.1223 -0.2914 -0.1216
  893MOL0     C17756  10.332  10.261   0.501 -0.5091 -0.3995  0.4088
  893MOL0     C17757  10.233  10.322   0.398 -0.3387  0.3088 -0.1039
  893MOL0     C17758  10.133  10.415   0.474  0.2028 -1.0689 -0.4410
  893MOL0     C17759  10.047  10.498   0.382  0.0789 -0.5966  0.6480
  893MOL0     C17760   9.912  10.434   0.346  0.0966  0.0998  0.1657
  893MOL0     N17761   9.837  10.516   0.253  0.4448 -0.1349 -0.1897
  893MOL0     C17762   9.778  10.635   0.287  0.1530  0.4636 -0.3284
  893MOL0     C17763   9.698  10.677   0.192 -0.1622 -0.2322 -0.4745
  893MOL0     C17764   9.619  10.803   0.158  0.7168  0.5928 -0.0011
  893MOL0     C17765   9.476  10.788   0.094  0.7017 -0.8874 -1.5236
  893MOL0     C17766   9.385  10.719   0.202 -0.3599  0.5834  0.0938
  893MOL0     C17767   9.252  10.687   0.146  0.0083 -0.0303  0.0602
  893MOL0     O17768   9.170  10.808   0.124 -0.1025 -0.3774 -0.1995
  893MOL0     C17769   9.038  10.791   0.092  0.5701  0.7283  0.8045
  893MOL0     C17770   8.963  10.904   0.097  0.5293 -0.5797 -0.6548
  893MOL0     C17771   8.825  10.911   0.071 -0.6958 -0.1719  0.1159
  893MOL0     C17772   8.763  10.788   0.034 -0.0454 -0.2427 -0.1470
  893MOL0     C17773   8.617  10.788   0.007 -0.1046  0.8511 -0.1941
  893MOL0     O17774   8.570  10.659   0.002 -0.4842  0.1299 -0.0908
  893MOL0     C17775   8.433  10.622   0.009  0.1433 -0.8121  0.6959
  893MOL0     C17776   8.417  10.488  -0.028  0.7526 -0.6753 -0.3968
  893MOL0     C17777   8.295  10.429  -0.017 -0.1285  0.1073  0.2551
  893MOL0     C17778   8.181  10.510   0.010  0.8206 -0.3343 -0.5385
  893MOL0     O17779   8.052  10.457   0.015  0.0888  0.1343  0.3614
  893MOL0     C17780   8.027  10.331  -0.050 -0.4699 -0.1932  0.0960
  893MOL0     C17781   7.873  10.313  -0.048 -0.7160 -0.1187  0.2326
  893MOL0     C17782   7.810  10.173  -0.089  0.0819  0.8149  0.7505
  893MOL0     C17783   7.840  10.055   0.002 -0.0766 -0.1443  0.1414
  893MOL0     C17784   7.751   9.923   0.003 -0.5634  1.5019  0.2320
  893MOL0     C17785   7.621   9.941   0.080  0.3099 -0.5900 -1.0929
  893MOL0     C17786   7.517   9.829   0.056 -0.0741 -0.3336 -0.4941
  893MOL0     C17787   7.401   9.851   0.157 -0.2179  0.8214  0.1481
  893MOL0    Cl17788   7.428   9.788   0.324 -0.4280  0.1128  0.1322
  893MOL0     C17789   8.201  10.640   0.050  0.5626  0.5434  0.6972
  893MOL0     C17790   8.328  10.693   0.053  0.3327  0.4590 -0.0980
  893MOL0     O17791   8.551  10.891   0.016  0.0416  0.3330 -0.0441
  893MOL0     C17792   8.839  10.671   0.032 -0.7036  0.6502  0.8755
  893MOL0     C17793   8.976  10.670   0.058 -0.0732 -0.4317 -0.0840
  893MOL0     N17794   9.709  10.576   0.093  0.3215  0.2495  0.1928
  893MOL0     N17795   9.785  10.483   0.130  0.7053 -0.3159  0.4850
  893MOL0     C17796  10.882  10.125   0.251  0.1964 -0.4461  0.6373
  893MOL0     C17797  11.004  10.081   0.196  0.1563  0.0208  0.2285
  893MOL0     C17798  11.384   9.820   0.086  0.4291  0.0396 -0.3652
  893MOL0     C17799  11.523   9.828   0.115 -0.6497 -0.4724  0.2143
  893MOL0     C17800  11.618   9.788   0.020  0.7786 -0.6261  0.4798
  893MOL0     C17801  11.586   9.736  -0.104  0.2306 -0.5277 -0.2938
  893MOL0     O17802  11.678   9.703  -0.205  0.4642 -0.4180 -1.0532
  893MOL0     C17803  11.814   9.650  -0.173 -0.1475 -0.4567  0.7977
  893MOL0     C17804  11.901   9.649  -0.306  0.4268  0.0989  0.2398
  893MOL0     C17805  12.041   9.583  -0.282 -0.3157 -0.4519  0.1231
  893MOL0     C17806  12.130   9.557  -0.411  0.0634  0.2668  0.9967
  893MOL0     C17807  12.188   9.682  -0.465 -0.4105  0.3528 -0.7993
  893MOL0     C17808  12.212   9.800  -0.492 -0.0779  0.0433 -0.5859
  893MOL0     C17809  11.451   9.732  -0.134 -0.5895  0.1342 -0.2534
  893MOL0     C17810  11.351   9.778  -0.042 -0.4208 -0.8108 -0.2286
  893MOL0     H17811  10.981   9.734   0.246  0.2119 -0.8537 -1.8646
  893MOL0     H17812  10.763   9.813   0.350  0.0408  0.1372  0.5433
  893MOL0     H17813  10.654   9.941   0.531  0.9881  0.3174  0.4291
  893MOL0     H17814  10.528   9.923   0.392  2.1003 -1.1052 -0.7219
  893MOL0     H17815  10.552  10.147   0.588 -1.5614  0.4907  0.5592
  893MOL0     H17816  10.419  10.023   0.574 -0.8370 -0.5970 -1.4577
  893MOL0     H17817  10.352  10.102   0.359 -2.3630 -0.7872  2.5539
  893MOL0     H17818  10.474  10.212   0.339 -1.2082  0.6450 -0.3827
  893MOL0     H17819  10.274  10.207   0.576  0.1347 -0.5305  0.8172
  893MOL0     H17820  10.402  10.335   0.541  1.6896 -1.9315 -0.3906
  893MOL0     H17821  10.178  10.239   0.353 -2.7170  2.1713 -0.8162
  893MOL0     H17822  10.287  10.380   0.322 -0.2982  1.6381  0.8932
  893MOL0     H17823  10.196  10.482   0.532  2.0889 -3.5226  0.5251
  893MOL0     H17824  10.067  10.371   0.549  0.5653 -1.5361 -0.3859
  893MOL0     H17825  10.042  10.597   0.428  0.7289  0.4280 -1.3342
  893MOL0     H17826  10.100  10.513   0.287  1.3014  1.1244  1.5425
  893MOL0     H17827   9.853  10.416   0.436 -1.1859  0.3577 -0.5941
  893MOL0     H17828   9.927  10.334   0.303  0.8988 -0.1904  1.0845
  893MOL0     H17829   9.796  10.689   0.380  0.5012 -0.9350  0.4503
  893MOL0     H17830   9.679  10.842   0.075 -1.1570 -1.3764 -2.4518
  893MOL0     H17831   9.602  10.865   0.246  0.3775  0.4102  0.0634
  893MOL0     H17832   9.476  10.730   0.001 -0.3401 -0.7094 -1.6519
  893MOL0     H17833   9.432  10.884   0.064  0.7524 -0.4856 -0.3529
  893MOL0     H17834   9.432  10.623   0.226 -0.0346 -0.0672 -2.7671
  893MOL0     H17835   9.383  10.786   0.288  2.5984  1.8990 -0.7366
  893MOL0     H17836   9.199  10.617   0.211 -2.2295  1.2605 -0.2868
  893MOL0     H17837   9.266  10.641   0.048 -1.2329 -0.8645  0.2429
  893MOL0     H17838   9.007  10.995   0.136 -2.2183  0.2904  0.6523
  893MOL0     H17839   8.765  11.001   0.080  1.8004  1.6387 -0.4621
  893MOL0     H17840   8.501  10.428  -0.063  1.0844 -0.2861 -0.2709
  893MOL0     H17841   8.285  10.321  -0.028  1.9768  0.0782 -2.5282
  893MOL0     H17842   8.081  10.239  -0.023 -3.0533 -2.8394 -2.9004
  893MOL0     H17843   8.059  10.327  -0.154  4.6120 -2.0444  1.4359
  893MOL0     H17844   7.830  10.391  -0.112 -2.1604 -1.1456 -0.1239
  893MOL0     H17845   7.854  10.320   0.059  0.7578 -4.1354  0.9423
  893MOL0     H17846   7.841  10.142  -0.189  0.9828  1.9794  0.6517
  893MOL0     H17847   7.702  10.189  -0.084  0.1753  1.8751 -0.1369
  893MOL0     H17848   7.949  10.044   0.002  0.0488  0.8140  1.7840
  893MOL0     H17849   7.823  10.094   0.103 -0.9892 -1.2781  0.4512
  893MOL0     H17850   7.807   9.847   0.059  2.3974  3.4107  0.0723
  893MOL0     H17851   7.729   9.887  -0.098  1.3829 -0.4148  0.4190
  893MOL0     H17852   7.578  10.039   0.056  0.5169  0.1383  1.2596
  893MOL0     H17853   7.643   9.954   0.186 -3.6420 -1.3991 -0.0330
  893MOL0     H17854   7.493   9.849  -0.049 -1.3553  1.4159  0.0993
  893MOL0     H17855   7.566   9.734   0.081 -2.0009 -0.9124  1.3810
  893MOL0     H17856   7.317   9.791   0.121 -1.2553  1.8366  0.8181
  893MOL0     H17857   7.360   9.951   0.168 -0.3183  0.5408  3.5222
  893MOL0     H17858   8.111  10.700   0.063 -0.8112 -1.1941 -0.3566
  893MOL0     H17859   8.339  10.801   0.064 -1.3231  0.8658 -1.9715
  893MOL0     H17860   8.802  10.578  -0.010  0.9879  0.3833 -0.1092
  893MOL0     H17861   9.025  10.574   0.044 -0.3714 -1.1512  3.0199
  893MOL0     H17862  10.848  10.228   0.263 -1.3048 -1.0811  2.3349
  893MOL0     H17863  11.067  10.152   0.144  1.2498 -1.2933 -0.3108
  893MOL0     H17864  11.556   9.866   0.212  1.8465 -0.1111 -0.7060
  893MOL0     H17865  11.720   9.826   0.022  1.1311 -1.5255  2.8742
  893MOL0     H17866  11.795   9.554  -0.125 -0.1093 -0.1728  1.3869
  893MOL0     H17867  11.869   9.712  -0.102 -0.6309 -0.0756  0.8383
  893MOL0     H17868  11.846   9.585  -0.376 -3.1773  0.6561  2.3102
  893MOL0     H17869  11.893   9.750  -0.348 -4.0563  0.5832  1.7559
  893MOL0     H17870  12.024   9.481  -0.247  4.3385 -2.0530 -1.5615
  893MOL0     H17871  12.097   9.627  -0.199  0.6375 -2.5782  0.6643
  893MOL0     H17872  12.217   9.495  -0.390  0.9496  1.4129  0.7602
  893MOL0     H17873  12.075   9.500  -0.487 -0.8778 -0.4774  2.1896
  893MOL0     H17874  12.221   9.904  -0.516 -1.6929  0.8430  1.9621
  893MOL0     H17875  11.416   9.677  -0.221 -0.7775  1.3390 -0.9596
  893MOL0     H17876  11.246   9.768  -0.069 -1.2048 -0.6852  2.3952
  894MOL0     O17877   7.475   7.614   6.130  0.0688  0.2245  0.1896
  894MOL0     C17878   7.386   7.530   6.103  0.3476 -0.9338 -0.3036
  894MOL0     O17879   7.367   7.475   5.979 -0.0220  0.2865 -0.1772
  894MOL0     C17880   7.468   7.485   5.892  0.4528  0.6080  0.4567
  894MOL0     C17881   7.421   7.494   5.758 -0.0839 -1.0965 -0.4809
  894MOL0     C17882   7.520   7.489   5.656  0.7699  0.6377 -0.3379
  894MOL0     C17883   7.658   7.463   5.681 -1.3224  0.5036 -0.2076
  894MOL0     O17884   7.752   7.440   5.577  0.3699  0.2431  0.4233
  894MOL0     C17885   7.877   7.380   5.596 -0.6272 -0.3288  0.1060
  894MOL0     C17886   7.954   7.380   5.464 -0.4372  0.3243 -0.4895
  894MOL0     C17887   8.105   7.339   5.483  1.1399  0.7514 -0.4785
  894MOL0     C17888   8.178   7.342   5.349 -0.9519 -0.6867  0.0753
  894MOL0     C17889   8.303   7.258   5.358  0.6272 -0.2710 -0.9234
  894MOL0     C17890   8.394   7.283   5.482  1.1960  0.8408 -0.0487
  894MOL0     C17891   8.512   7.190   5.477  0.9909 -0.3104  0.0569
  894MOL0     C17892   8.595   7.222   5.591 -1.1785 -0.9138  0.0121
  894MOL0     N17893   8.696   7.122   5.616 -0.8287  0.2172  0.3266
  894MOL0     C17894   8.705   7.048   5.736 -0.0598  0.0854 -0.0715
  894MOL0     C17895   8.796   6.954   5.708  0.2871  0.0619 -0.1185
  894MOL0     C17896   8.827   6.838   5.807 -1.4374 -0.5768  0.3988
  894MOL0     C17897   8.973   6.844   5.852  0.7964  0.6695  0.5849
  894MOL0     C17898   9.015   6.722   5.931 -0.6841  0.7905  0.3634
  894MOL0     C17899   9.167   6.711   5.966  0.9406 -0.4535 -0.5882
  894MOL0     O17900   9.186   6.809   6.066  0.2928  0.2863 -0.4066
  894MOL0     C17901   9.309   6.817   6.130  0.4209  1.0912  0.3552
  894MOL0     C17902   9.326   6.925   6.215 -0.0503 -0.3483  0.4808
  894MOL0     C17903   9.429   6.952   6.287 -0.5396 -0.1348  0.4978
  894MOL0     C17904   9.540   6.869   6.296  0.4137  0.2734 -0.3874
  894MOL0     C17905   9.663   6.908   6.374  0.5078  0.3514 -0.2139
  894MOL0     O17906   9.769   6.831   6.353  0.4063 -0.1892 -0.2937
  894MOL0     C17907   9.894   6.881   6.378 -0.2104  0.0986  0.0422
  894MOL0     C17908   9.933   7.017   6.379 -0.8179 -0.5343 -0.5274
  894MOL0     C17909  10.063   7.058   6.417  0.7692 -0.9146 -0.3479
  894MOL0     C17910  10.164   6.963   6.438  0.2415 -0.1416  0.2288
  894MOL0     O17911  10.287   6.986   6.490 -0.0595  0.5318  0.0081
  894MOL0     C17912  10.376   7.079   6.422  0.6490 -0.0459  0.2169
  894MOL0     C17913  10.511   7.036   6.454 -1.5111 -0.1541  0.7238
  894MOL0     C17914  10.544   7.075   6.598  0.5661 -0.4687 -0.3821
  894MOL0     C17915  10.697   7.057   6.609 -0.4966 -0.9751 -0.3623
  894MOL0     C17916  10.780   7.190   6.594 -0.1946 -0.0216  0.5367
  894MOL0     C17917  10.926   7.193   6.658  0.2900  0.0354  0.2601
  894MOL0     C17918  10.946   7.321   6.740 -0.0774 -0.4181 -0.3097
  894MOL0     C17919  11.050   7.323   6.847 -0.2083  0.2569  0.4600
  894MOL0    Cl17920  11.052   7.490   6.913  0.4021  0.5259  0.0625
  894MOL0     C17921  10.133   6.829   6.416 -0.0930  0.0930  0.3872
  894MOL0     C17922  10.001   6.789   6.406 -0.5065  0.1133 -0.6674
  894MOL0     O17923   9.650   7.001   6.445 -0.0949  0.0898 -0.1300
  894MOL0     C17924   9.539   6.752   6.208  0.1654 -0.1154  0.8303
  894MOL0     C17925   9.419   6.735   6.129 -1.9339 -0.3500 -0.6977
  894MOL0     N17926   8.839   6.968   5.574  0.6920  0.1154 -0.3196
  894MOL0     N17927   8.786   7.076   5.522 -0.7609 -0.6730 -0.3738
  894MOL0     C17928   7.700   7.468   5.817 -0.7424 -0.8809  0.1554
  894MOL0     C17929   7.610   7.474   5.923  0.6821  0.8953  0.3472
  894MOL0     C17930   7.273   7.497   6.197 -0.3846 -0.3878  0.0449
  894MOL0     C17931   7.219   7.374   6.191  0.1114  0.7163 -0.1074
  894MOL0     C17932   7.120   7.336   6.281 -0.7437  0.4526  0.3688
  894MOL0     C17933   7.071   7.427   6.380  0.4553  0.3281 -0.4417
  894MOL0     O17934   6.985   7.371   6.473  0.4815 -0.2821 -0.9769
  894MOL0     C17935   6.899   7.455   6.542 -0.1404 -0.5812 -0.3865
  894MOL0     C17936   6.837   7.378   6.668 -0.1608 -0.9384  0.0795
  894MOL0     C17937   6.731   7.282   6.623 -0.0615  0.2722 -0.1868
  894MOL0     C17938   6.660   7.215   6.740  0.5645  0.5959 -0.1842
  894MOL0     C17939   6.538   7.291   6.788 -0.8259 -0.5993 -0.1969
  894MOL0     C17940   6.445   7.338   6.845  0.2279  0.1788 -0.1127
  894MOL0     C17941   7.120   7.562   6.372 -0.9384  0.6571  0.0232
  894MOL0     C17942   7.228   7.590   6.282  1.0318 -0.0798 -0.4738
  894MOL0     H17943   7.314   7.501   5.741  0.1159 -0.8530 -1.7264
  894MOL0     H17944   7.483   7.478   5.554  1.4849 -2.0136 -0.3840
  894MOL0     H17945   7.872   7.283   5.647  1.4641  0.7583  2.6124
  894MOL0     H17946   7.936   7.453   5.653  0.6481 -0.3419 -1.1348
  894MOL0     H17947   7.949   7.480   5.422 -3.7332  0.7021  0.5523
  894MOL0     H17948   7.902   7.305   5.403 -1.4877 -3.3077  4.2090
  894MOL0     H17949   8.097   7.240   5.528 -3.3899  1.3735  0.5967
  894MOL0     H17950   8.165   7.403   5.549  2.0809  0.1311 -0.7286
  894MOL0     H17951   8.120   7.313   5.261 -0.3700 -0.5563 -0.3604
  894MOL0     H17952   8.192   7.450   5.338 -0.8960 -0.9221 -3.4234
  894MOL0     H17953   8.366   7.277   5.271  1.9114 -1.4485 -0.2774
  894MOL0     H17954   8.277   7.152   5.346  3.4691 -0.9623 -1.7218
  894MOL0     H17955   8.332   7.271   5.571  0.9662 -1.9097 -0.5064
  894MOL0     H17956   8.428   7.387   5.489 -0.3754  1.5608 -2.0832
  894MOL0     H17957   8.486   7.085   5.460  0.4560  0.4247 -4.9811
  894MOL0     H17958   8.565   7.207   5.383 -1.6035 -1.2867 -1.6875
  894MOL0     H17959   8.536   7.240   5.681 -1.6979 -0.9157 -0.3241
  894MOL0     H17960   8.656   7.307   5.558  1.8967 -1.8996  2.5671
  894MOL0     H17961   8.643   7.055   5.825  1.2756 -0.4179  0.9239
  894MOL0     H17962   8.807   6.744   5.755 -4.9990  0.3261 -0.1070
  894MOL0     H17963   8.768   6.838   5.899 -2.1362  0.1110 -0.0350
  894MOL0     H17964   8.980   6.930   5.919  2.0323  1.4692 -0.5040
  894MOL0     H17965   9.036   6.865   5.764  0.0843  2.2574  0.4146
  894MOL0     H17966   8.952   6.710   6.019  0.1286  0.0221  0.8615
  894MOL0     H17967   9.002   6.641   5.858 -2.1817  0.0103  1.4517
  894MOL0     H17968   9.232   6.722   5.879  2.8554 -2.5248  0.4571
  894MOL0     H17969   9.189   6.612   6.007  1.6756 -0.5280 -1.1427
  894MOL0     H17970   9.237   6.986   6.220  1.0355  1.2947  0.5255
  894MOL0     H17971   9.428   7.045   6.343 -1.1661 -0.2439  0.6726
  894MOL0     H17972   9.856   7.088   6.352 -1.6275 -1.7570 -1.5393
  894MOL0     H17973  10.077   7.162   6.444 -1.7886 -1.5226  4.4002
  894MOL0     H17974  10.354   7.179   6.458  0.0189  0.1754 -0.7259
  894MOL0     H17975  10.355   7.068   6.315 -0.7698  1.8017  0.2530
  894MOL0     H17976  10.575   7.071   6.372  0.1315 -2.0276  1.1178
  894MOL0     H17977  10.513   6.927   6.444 -2.5721 -0.0368 -1.6505
  894MOL0     H17978  10.480   7.008   6.656 -0.2785 -1.4210 -2.3328
  894MOL0     H17979  10.504   7.176   6.613 -0.9068 -0.9785 -0.7958
  894MOL0     H17980  10.724   7.024   6.710  1.4702 -1.1532 -0.9113
  894MOL0     H17981  10.739   6.989   6.535  1.9608  0.4819 -0.4154
  894MOL0     H17982  10.725   7.270   6.645  0.7069  1.6455 -1.0148
  894MOL0     H17983  10.793   7.202   6.487 -3.3045 -0.9721 -0.0546
  894MOL0     H17984  11.009   7.182   6.587  1.9336  0.4205  2.0353
  894MOL0     H17985  10.951   7.111   6.727  1.2616 -0.7886 -1.0255
  894MOL0     H17986  10.977   7.395   6.666  2.6115 -0.2520  0.8725
  894MOL0     H17987  10.848   7.348   6.779  0.4213  1.2671 -0.1575
  894MOL0     H17988  11.150   7.316   6.802  0.7349  1.0418  2.3309
  894MOL0     H17989  11.039   7.241   6.919 -2.0095  1.5870  1.7948
  894MOL0     H17990  10.207   6.750   6.428 -1.0161 -0.6266  1.6545
  894MOL0     H17991   9.975   6.684   6.392  2.5046 -0.9972  1.1504
  894MOL0     H17992   9.623   6.683   6.202  0.9018  0.6752  1.6753
  894MOL0     H17993   9.418   6.649   6.063  2.7391 -2.7018  1.7776
  894MOL0     H17994   7.804   7.445   5.838  0.4171  0.8062 -2.9886
  894MOL0     H17995   7.635   7.448   6.026 -2.4165 -1.1971  0.7266
  894MOL0     H17996   7.254   7.305   6.114  0.7834  1.5100 -0.5236
  894MOL0     H17997   7.068   7.241   6.286  1.4970 -0.7865  2.3464
  894MOL0     H17998   6.827   7.507   6.479 -0.0198  0.7959  0.5731
  894MOL0     H17999   6.959   7.533   6.590  3.2539 -3.0212 -0.2987
  894MOL0     H18000   6.916   7.330   6.726 -1.5814 -3.0124  0.4093
  894MOL0     H18001   6.790   7.449   6.736  2.7724 -0.0858  1.3512
  894MOL0     H18002   6.784   7.204   6.568  0.5335  0.6892 -0.2046
  894MOL0     H18003   6.653   7.332   6.564 -0.9256  0.6213  1.2083
  894MOL0     H18004   6.619   7.117   6.714  0.4311  0.6081 -0.0229
  894MOL0     H18005   6.726   7.204   6.827 -0.8047 -0.7920  0.7309
  894MOL0     H18006   6.362   7.391   6.888  1.3236  1.7761  0.1293
  894MOL0     H18007   7.083   7.634   6.444 -0.2314  1.4970 -0.4449
  894MOL0     H18008   7.268   7.690   6.277 -0.8762  0.6768 -2.3213
  895MOL0     O18009   0.674   7.639   7.105  0.2813  0.2149 -0.4854
  895MOL0     C18010   0.756   7.553   7.067  0.9972  0.1523  0.1609
  895MOL0     O18011   0.867   7.507   7.128 -0.3006 -0.1304 -0.5852
  895MOL0     C18012   0.898   7.549   7.257 -0.1898  0.0856 -0.4678
  895MOL0     C18013   1.032   7.528   7.289 -0.1831 -0.5606 -0.3917
  895MOL0     C18014   1.081   7.562   7.418  0.1963  0.2648 -0.5546
  895MOL0     C18015   0.994   7.608   7.518 -0.8296  0.3824 -0.3674
  895MOL0     O18016   1.056   7.633   7.640  0.2221  0.0203  0.2029
  895MOL0     C18017   0.982   7.695   7.742 -0.6340 -0.1718 -0.3860
  895MOL0     C18018   0.981   7.846   7.722  0.5906 -0.2504 -0.4042
  895MOL0     C18019   1.098   7.926   7.771 -1.7900 -0.0358 -0.0045
  895MOL0     C18020   1.226   7.929   7.671 -0.6229 -0.1388 -0.0861
  895MOL0     C18021   1.364   7.937   7.740 -0.0008 -0.2352 -0.9832
  895MOL0     C18022   1.368   7.836   7.858  0.0361  0.2031 -0.2336
  895MOL0     C18023   1.512   7.818   7.906 -0.8780  0.6543  0.0726
  895MOL0     C18024   1.512   7.717   8.025  0.0150 -0.4416  0.0538
  895MOL0     N18025   1.639   7.701   8.084  0.3665 -0.0676 -0.7903
  895MOL0     C18026   1.746   7.633   8.029  0.1049  0.0431  0.4506
  895MOL0     C18027   1.838   7.637   8.119 -0.7712 -0.7858 -1.1934
  895MOL0     C18028   1.981   7.584   8.110  0.9966  0.0176 -0.5736
  895MOL0     C18029   2.060   7.649   8.002 -0.5458 -1.0365 -0.5019
  895MOL0     C18030   2.080   7.794   8.036  0.7471 -0.1273  0.0164
  895MOL0     C18031   2.186   7.860   7.950 -1.2184  0.9417  0.8151
  895MOL0     O18032   2.186   7.822   7.809 -0.2773 -0.3173  0.3896
  895MOL0     C18033   2.081   7.857   7.726 -0.1231  0.5044  0.3802
  895MOL0     C18034   2.092   7.801   7.599 -0.0954 -1.1410 -0.3436
  895MOL0     C18035   2.001   7.812   7.508  0.1487  0.2322 -0.7834
  895MOL0     C18036   1.886   7.884   7.538  0.3535 -0.0650  0.1586
  895MOL0     C18037   1.779   7.883   7.431  0.1043 -1.1199 -0.8444
  895MOL0     O18038   1.684   7.973   7.462 -0.1196 -0.1002  0.1026
  895MOL0     C18039   1.582   7.989   7.371  0.4145  0.0121 -0.3067
  895MOL0     C18040   1.573   8.105   7.291 -0.7747 -0.4258 -0.4171
  895MOL0     C18041   1.472   8.115   7.201  0.8654  0.3894  0.1240
  895MOL0     C18042   1.367   8.026   7.208 -0.2342  1.3417 -0.0886
  895MOL0     O18043   1.253   8.039   7.143  0.1821 -0.0941  0.4286
  895MOL0     C18044   1.207   8.167   7.090  0.3326  0.4116 -0.3047
  895MOL0     C18045   1.057   8.149   7.063 -0.1178 -0.4705 -0.7482
  895MOL0     C18046   0.987   8.119   7.199  0.3037  0.4895  0.5072
  895MOL0     C18047   0.864   8.041   7.171  0.2593 -0.6885 -0.2013
  895MOL0     C18048   0.774   8.020   7.296 -0.3671  0.1107  0.4126
  895MOL0     C18049   0.653   7.927   7.281  0.0162 -0.9388  0.3267
  895MOL0     C18050   0.599   7.857   7.410  0.5226  0.2880  0.1334
  895MOL0     C18051   0.533   7.950   7.504  0.2378 -0.4334 -0.6815
  895MOL0    Cl18052   0.376   7.991   7.444 -0.3893 -0.0401 -0.0690
  895MOL0     C18053   1.368   7.912   7.292 -0.1202  0.9810 -0.5030
  895MOL0     C18054   1.480   7.894   7.373  0.1591 -0.0669 -0.5267
  895MOL0     O18055   1.770   7.802   7.345 -0.1434  0.6517  0.0675
  895MOL0     C18056   1.874   7.956   7.660 -0.5387  0.2110  0.6660
  895MOL0     C18057   1.975   7.944   7.752 -0.1764  0.6299  0.1108
  895MOL0     N18058   1.784   7.696   8.233  0.1010 -0.2116 -0.3497
  895MOL0     N18059   1.670   7.729   8.211 -0.5209 -0.6787  0.4642
  895MOL0     C18060   0.858   7.621   7.486 -0.0611  0.6378  0.2782
  895MOL0     C18061   0.809   7.590   7.356  0.0855 -0.4473  0.4305
  895MOL0     C18062   0.734   7.508   6.930 -0.1290  0.0260 -1.0009
  895MOL0     C18063   0.832   7.443   6.862  0.3794 -0.9434 -0.2147
  895MOL0     C18064   0.823   7.409   6.727  0.4035 -0.3575 -0.1232
  895MOL0     C18065   0.693   7.436   6.663  0.2779  0.4601  0.9195
  895MOL0     O18066   0.676   7.388   6.535  0.1108  0.3588 -0.2911
  895MOL0     C18067   0.762   7.281   6.497  0.1033 -1.2719  0.1571
  895MOL0     C18068   0.734   7.221   6.360 -0.2235 -0.1438 -0.5531
  895MOL0     C18069   0.584   7.178   6.360  0.5887 -0.0553  0.8306
  895MOL0     C18070   0.553   7.103   6.228 -0.0022  0.3854 -0.4837
  895MOL0     C18071   0.415   7.125   6.173 -0.3370 -0.0318 -0.6719
  895MOL0     C18072   0.299   7.132   6.138  0.2044  0.6295  0.2426
  895MOL0     C18073   0.585   7.486   6.738  0.1367 -0.6173 -0.4542
  895MOL0     C18074   0.613   7.527   6.867  0.2599 -0.1254  0.9397
  895MOL0     H18075   1.101   7.478   7.222  0.4214 -1.6322  0.9872
  895MOL0     H18076   1.182   7.562   7.459  0.5407 -3.9658 -0.9013
  895MOL0     H18077   1.036   7.668   7.833 -2.1646 -0.5196  0.4493
  895MOL0     H18078   0.882   7.655   7.762  0.5168 -1.5146  3.3103
  895MOL0     H18079   0.901   7.893   7.780  0.3900  2.3727 -2.6545
  895MOL0     H18080   0.948   7.868   7.621 -4.0858  2.7134  1.4174
  895MOL0     H18081   1.118   7.900   7.875 -2.7529 -1.6502 -0.1841
  895MOL0     H18082   1.075   8.032   7.764 -0.8339  0.0944 -1.6288
  895MOL0     H18083   1.233   7.833   7.620  1.9600 -0.7936  1.3320
  895MOL0     H18084   1.204   8.012   7.603  0.0335  0.6403  0.6277
  895MOL0     H18085   1.375   8.036   7.786  1.3001 -0.0940 -1.5630
  895MOL0     H18086   1.442   7.916   7.667 -0.9977  0.1834 -2.2132
  895MOL0     H18087   1.333   7.740   7.818 -0.6735  0.7312 -0.9180
  895MOL0     H18088   1.308   7.878   7.939 -0.1548 -1.1439  0.3518
  895MOL0     H18089   1.576   7.790   7.822  3.6614 -0.8061  3.6149
  895MOL0     H18090   1.554   7.909   7.949  2.4206 -0.9599  0.5357
  895MOL0     H18091   1.478   7.618   7.993 -1.4826 -1.1533  3.4363
  895MOL0     H18092   1.429   7.749   8.089 -0.2513 -0.6483 -0.1854
  895MOL0     H18093   1.757   7.574   7.940  2.7005 -0.9257  1.3476
  895MOL0     H18094   1.971   7.475   8.099 -2.0419 -0.2620  2.9801
  895MOL0     H18095   2.023   7.598   8.209 -1.0005 -0.3017  0.3789
  895MOL0     H18096   2.003   7.639   7.909 -1.2487  1.1068 -0.3588
  895MOL0     H18097   2.149   7.588   7.983 -0.5873  0.0231 -5.6149
  895MOL0     H18098   1.986   7.850   8.035 -0.0951 -1.5271 -0.4740
  895MOL0     H18099   2.104   7.794   8.142  1.2049  2.0392 -0.0303
  895MOL0     H18100   2.288   7.837   7.981 -1.7813 -0.2194  1.9015
  895MOL0     H18101   2.167   7.968   7.947  0.5014  1.2732  0.8362
  895MOL0     H18102   2.181   7.743   7.577 -0.0653 -2.4624  2.7806
  895MOL0     H18103   2.017   7.771   7.409 -1.1136 -1.3367 -0.3803
  895MOL0     H18104   1.651   8.178   7.274 -3.7436  2.2779 -4.3696
  895MOL0     H18105   1.478   8.198   7.131  2.3624  0.6363  0.4880
  895MOL0     H18106   1.259   8.185   6.995  1.4914  0.7462  0.3612
  895MOL0     H18107   1.233   8.240   7.167  2.0142 -2.6883  2.3156
  895MOL0     H18108   1.046   8.057   7.004 -0.9013 -1.0330  0.2385
  895MOL0     H18109   1.009   8.239   7.025  0.8966 -0.1855 -1.4066
  895MOL0     H18110   0.956   8.214   7.245  0.9941  1.3227 -0.7080
  895MOL0     H18111   1.056   8.068   7.267  2.3091  1.0449 -1.0554
  895MOL0     H18112   0.786   8.085   7.109  0.1215  1.2144  1.2364
  895MOL0     H18113   0.892   7.940   7.138 -2.2501 -1.8229  0.8376
  895MOL0     H18114   0.732   8.120   7.310 -0.0962  0.1010  1.3650
  895MOL0     H18115   0.840   7.991   7.378 -0.3534  0.0777  0.3903
  895MOL0     H18116   0.684   7.845   7.215  1.2593  1.0423 -1.6735
  895MOL0     H18117   0.574   7.981   7.229  1.0554  0.5909  0.2705
  895MOL0     H18118   0.538   7.769   7.389 -1.0742  0.9128  1.8117
  895MOL0     H18119   0.685   7.816   7.463 -0.1010 -2.8585 -1.0823
  895MOL0     H18120   0.598   8.037   7.520 -0.0683 -0.4079  0.5089
  895MOL0     H18121   0.515   7.903   7.601  1.0728  0.5382 -0.0356
  895MOL0     H18122   1.288   7.839   7.295 -0.5987  1.5119 -0.0128
  895MOL0     H18123   1.486   7.810   7.441 -3.8438  0.4175  0.6642
  895MOL0     H18124   1.786   8.012   7.689 -1.7270 -1.7735  1.1083
  895MOL0     H18125   1.964   8.002   7.842 -2.6830  0.5413 -0.0886
  895MOL0     H18126   0.787   7.650   7.564  1.3181  0.1975  1.7609
  895MOL0     H18127   0.704   7.595   7.330 -0.1797 -1.2646  1.2895
  895MOL0     H18128   0.925   7.415   6.910 -0.3993 -1.6213  0.9360
  895MOL0     H18129   0.914   7.376   6.678 -0.0285 -1.9750  0.1063
  895MOL0     H18130   0.786   7.203   6.569  3.7881 -2.5121 -2.1330
  895MOL0     H18131   0.861   7.324   6.478  0.1964 -2.3477 -2.0267
  895MOL0     H18132   0.746   7.297   6.283  1.0911  0.1118 -0.1141
  895MOL0     H18133   0.806   7.139   6.352  0.3774  0.2154  0.9664
  895MOL0     H18134   0.537   7.277   6.358  0.3463 -0.1747  0.6176
  895MOL0     H18135   0.556   7.115   6.445  2.3051 -5.1841 -1.9484
  895MOL0     H18136   0.631   7.136   6.158  3.6157 -0.1194  2.9286
  895MOL0     H18137   0.558   6.994   6.233  0.3078  0.2647 -2.4968
  895MOL0     H18138   0.197   7.137   6.105  0.2849  0.2030 -0.0703
  895MOL0     H18139   0.490   7.490   6.687 -1.1759 -2.3166  1.7063
  895MOL0     H18140   0.532   7.584   6.912 -0.1359 -1.7754  2.4094
  896MOL0     O18141   4.557   4.858   3.967  0.3904 -0.0791 -1.0399
  896MOL0     C18142   4.577   4.963   3.908 -0.7289  0.1534 -0.2319
  896MOL0     O18143   4.499   5.064   3.912  0.1139  0.1719 -0.5801
  896MOL0     C18144   4.403   5.076   4.014 -0.0927  0.0580  0.5149
  896MOL0     C18145   4.300   4.986   4.029 -0.8127 -0.1415 -0.7676
  896MOL0     C18146   4.205   4.992   4.126  0.3558 -0.0932  0.3175
  896MOL0     C18147   4.202   5.110   4.209  0.7833  1.0711  0.0218
  896MOL0     O18148   4.092   5.121   4.295 -1.1505 -0.6735 -0.2990
  896MOL0     C18149   4.085   5.233   4.387 -0.4226  0.6738  1.4253
  896MOL0     C18150   4.176   5.218   4.515 -0.1920  0.0231 -0.2388
  896MOL0     C18151   4.149   5.105   4.608 -0.3494  0.0454 -0.2187
  896MOL0     C18152   4.004   5.101   4.655 -0.6381  0.3420 -0.2353
  896MOL0     C18153   3.958   4.998   4.758  0.0719  0.3382  0.2544
  896MOL0     C18154   3.950   4.856   4.702 -0.3254 -0.0213  0.7304
  896MOL0     C18155   3.896   4.747   4.791  0.3135  1.4805 -0.6995
  896MOL0     C18156   3.757   4.769   4.847  0.7087 -0.0718  0.8988
  896MOL0     N18157   3.722   4.651   4.932 -0.5604 -0.1782 -0.5727
  896MOL0     C18158   3.625   4.557   4.903 -0.3392 -0.1168  0.7535
  896MOL0     C18159   3.626   4.471   5.011  0.3914  0.2198 -0.4476
  896MOL0     C18160   3.541   4.362   5.030  0.9494 -0.0467 -0.2824
  896MOL0     C18161   3.480   4.345   5.179  0.2373  0.4935  0.8817
  896MOL0     C18162   3.364   4.243   5.173  1.0093 -0.0515 -0.8596
  896MOL0     C18163   3.304   4.228   5.307  0.0986 -0.8307  0.0278
  896MOL0     O18164   3.198   4.129   5.313  0.3585 -0.3277 -0.1142
  896MOL0     C18165   3.106   4.129   5.408  0.6974 -0.0568 -0.0405
  896MOL0     C18166   2.995   4.038   5.398 -0.0727  0.1740  0.6143
  896MOL0     C18167   2.905   4.025   5.500 -0.1187  0.0476 -0.5457
  896MOL0     C18168   2.896   4.113   5.612  0.4588  1.1816 -0.2807
  896MOL0     C18169   2.786   4.099   5.720  0.3420  0.6972 -0.3412
  896MOL0     O18170   2.806   4.189   5.821 -0.6430  0.1856  0.0334
  896MOL0     C18171   2.716   4.193   5.929 -0.3559 -0.3044  0.0190
  896MOL0     C18172   2.755   4.129   6.048 -0.3694  0.0152  0.2171
  896MOL0     C18173   2.671   4.134   6.157 -0.0404 -0.4526 -0.8257
  896MOL0     C18174   2.541   4.197   6.153  0.2315  0.4857  0.4897
  896MOL0     O18175   2.463   4.203   6.261 -0.2336 -0.3990 -0.4816
  896MOL0     C18176   2.325   4.168   6.248  0.1504  0.0511 -1.0936
  896MOL0     C18177   2.268   4.151   6.388  0.4641  0.5183  0.4925
  896MOL0     C18178   2.116   4.128   6.372  0.4787 -0.4903 -0.1241
  896MOL0     C18179   2.028   4.162   6.500  0.2990 -0.0033 -0.1699
  896MOL0     C18180   1.880   4.140   6.481 -0.3745  0.4990  0.7140
  896MOL0     C18181   1.816   4.150   6.620  0.5183  1.1109  0.1183
  896MOL0     C18182   1.670   4.098   6.609  0.3916 -0.2773 -0.1111
  896MOL0     C18183   1.620   4.070   6.745 -0.7191  0.5093 -0.1638
  896MOL0    Cl18184   1.713   3.924   6.815 -0.4296 -0.0545  0.4560
  896MOL0     C18185   2.509   4.251   6.026  0.5816  0.0910 -0.0343
  896MOL0     C18186   2.594   4.244   5.908  0.2629 -0.8438 -0.5105
  896MOL0     O18187   2.699   4.012   5.729 -0.5261  0.5638 -0.1809
  896MOL0     C18188   3.010   4.205   5.626  0.2926 -0.2916 -0.1508
  896MOL0     C18189   3.108   4.214   5.524 -0.2826 -0.2010 -0.1034
  896MOL0     N18190   3.714   4.510   5.110 -0.0542 -0.6387  0.0878
  896MOL0     N18191   3.777   4.615   5.056 -0.9621 -0.1141 -0.7886
  896MOL0     C18192   4.301   5.204   4.194 -0.6015  1.1622  0.1469
  896MOL0     C18193   4.408   5.182   4.095 -0.6448 -0.0786 -0.2553
  896MOL0     C18194   4.702   4.973   3.826  0.5855 -0.1780 -0.3568
  896MOL0     C18195   4.798   4.872   3.820 -0.3023  0.7465  0.0229
  896MOL0     C18196   4.916   4.890   3.751  0.0669  0.6391  0.7509
  896MOL0     C18197   4.948   5.011   3.690  0.3159 -0.3472 -0.5341
  896MOL0     O18198   5.064   5.026   3.614 -0.0190  0.0067 -0.1840
  896MOL0     C18199   5.174   5.087   3.670 -0.6806 -0.5657 -0.0726
  896MOL0     C18200   5.257   5.151   3.556  0.1647 -0.4567 -0.6343
  896MOL0     C18201   5.364   5.236   3.613 -0.5377 -0.7265  0.1505
  896MOL0     C18202   5.442   5.325   3.509  0.4821 -0.1437  0.2417
  896MOL0     C18203   5.536   5.413   3.585 -0.2875 -0.2380  0.7214
  896MOL0     C18204   5.613   5.491   3.640 -0.8489 -1.3095  0.4719
  896MOL0     C18205   4.845   5.106   3.686  1.0514 -0.0245 -0.6768
  896MOL0     C18206   4.724   5.091   3.758 -0.5721  0.3205  0.0096
  896MOL0     H18207   4.306   4.897   3.968  1.2346 -0.1201 -0.6724
  896MOL0     H18208   4.127   4.917   4.135 -2.1923  2.2524 -0.6360
  896MOL0     H18209   3.983   5.242   4.425 -0.7549  1.1065  0.4529
  896MOL0     H18210   4.104   5.329   4.339 -1.9560  0.5511  0.5238
  896MOL0     H18211   4.167   5.311   4.572  1.0096  0.1529 -0.2469
  896MOL0     H18212   4.281   5.213   4.486 -0.3087  0.3251 -0.7212
  896MOL0     H18213   4.211   5.117   4.697 -0.3181  0.8278 -0.3417
  896MOL0     H18214   4.164   5.006   4.562 -0.5070 -0.3580  0.5794
  896MOL0     H18215   3.979   5.200   4.693 -0.8529  0.9936 -1.9867
  896MOL0     H18216   3.938   5.081   4.569 -1.3695 -0.8295  0.5632
  896MOL0     H18217   3.861   5.041   4.786  2.6245  4.7484  3.6309
  896MOL0     H18218   4.023   4.994   4.846  1.1946 -1.7961 -0.6244
  896MOL0     H18219   4.051   4.836   4.666 -0.8693  0.8247 -1.4318
  896MOL0     H18220   3.890   4.845   4.611  1.8878 -0.8598 -0.6985
  896MOL0     H18221   3.893   4.661   4.725  2.3967  0.4789  0.3934
  896MOL0     H18222   3.961   4.743   4.879  1.2508  0.3463 -1.4140
  896MOL0     H18223   3.695   4.792   4.760 -0.5118  0.4326  1.8602
  896MOL0     H18224   3.759   4.859   4.910  3.0395  0.1018  0.6516
  896MOL0     H18225   3.582   4.540   4.805  3.4219  1.6255 -1.4050
  896MOL0     H18226   3.574   4.263   4.997 -2.7078 -1.8936  0.9980
  896MOL0     H18227   3.454   4.381   4.967  0.3275 -1.5860  0.0719
  896MOL0     H18228   3.445   4.437   5.228  0.3027 -0.5689  3.0288
  896MOL0     H18229   3.558   4.304   5.245 -0.8306 -1.3387  1.0600
  896MOL0     H18230   3.294   4.267   5.092  0.6865 -4.3407 -2.0913
  896MOL0     H18231   3.409   4.146   5.151 -0.9439 -1.6153  1.5029
  896MOL0     H18232   3.272   4.325   5.345  2.1444  0.8632 -2.2390
  896MOL0     H18233   3.388   4.206   5.374 -1.4218  1.9699  3.1087
  896MOL0     H18234   2.984   3.969   5.315  3.2454 -2.2946  2.0197
  896MOL0     H18235   2.832   3.945   5.498 -0.1803  0.0543  0.6055
  896MOL0     H18236   2.853   4.082   6.052 -0.9528 -1.5259 -1.8416
  896MOL0     H18237   2.714   4.087   6.245 -0.7655  1.4530  0.6204
  896MOL0     H18238   2.316   4.077   6.187 -0.0715 -2.5081  2.4602
  896MOL0     H18239   2.259   4.243   6.202 -1.4287 -0.3552  0.3852
  896MOL0     H18240   2.287   4.240   6.450  1.2650  0.3965  0.4377
  896MOL0     H18241   2.311   4.068   6.445  0.1538  1.4931  2.2359
  896MOL0     H18242   2.091   4.024   6.349  2.7662 -0.6693 -2.2751
  896MOL0     H18243   2.081   4.190   6.289 -2.1267 -0.9861  0.5288
  896MOL0     H18244   2.058   4.091   6.577 -1.3077 -0.3073  0.2021
  896MOL0     H18245   2.047   4.261   6.542 -0.3818  0.5321 -1.0869
  896MOL0     H18246   1.851   4.045   6.435 -2.5884  1.4845 -0.1208
  896MOL0     H18247   1.834   4.220   6.421  2.0455  0.7529 -0.9286
  896MOL0     H18248   1.805   4.258   6.633 -1.3542  0.9314  0.2554
  896MOL0     H18249   1.863   4.089   6.698  1.8937 -0.9061 -2.1377
  896MOL0     H18250   1.611   4.185   6.579  0.4989  0.4130  1.5898
  896MOL0     H18251   1.663   4.015   6.538 -0.9516  1.3567 -1.9951
  896MOL0     H18252   1.513   4.048   6.751 -0.9062  1.3734 -0.2200
  896MOL0     H18253   1.624   4.158   6.810 -2.8400 -0.8933  2.0762
  896MOL0     H18254   2.404   4.276   6.011  0.0445 -1.2922  1.2611
  896MOL0     H18255   2.552   4.277   5.814 -1.3702  2.2043  1.1239
  896MOL0     H18256   3.018   4.267   5.714 -2.0006 -1.1252  0.7346
  896MOL0     H18257   3.183   4.292   5.535 -0.1144  0.1547 -2.8935
  896MOL0     H18258   4.298   5.285   4.266  0.0985 -2.2589  4.4057
  896MOL0     H18259   4.481   5.257   4.068 -2.5105  1.0855 -2.4079
  896MOL0     H18260   4.780   4.781   3.877 -2.2241  0.7423 -0.5019
  896MOL0     H18261   4.985   4.807   3.763 -0.2767  0.6435  3.6558
  896MOL0     H18262   5.230   5.008   3.721  0.9646  1.1767  0.9677
  896MOL0     H18263   5.142   5.156   3.749  0.6769 -2.2238  2.0531
  896MOL0     H18264   5.307   5.077   3.492 -0.2371  0.2004 -1.7452
  896MOL0     H18265   5.197   5.217   3.493  1.1182  1.3265  0.2535
  896MOL0     H18266   5.440   5.172   3.659 -2.1911 -3.1798 -0.2998
  896MOL0     H18267   5.322   5.306   3.686 -1.4751  0.2207 -1.2619
  896MOL0     H18268   5.501   5.259   3.444 -1.0916 -3.2362  1.7428
  896MOL0     H18269   5.374   5.388   3.451 -0.2284  0.8967  2.1188
  896MOL0     H18270   5.687   5.562   3.673 -0.4973 -1.9343  1.0483
  896MOL0     H18271   4.862   5.197   3.630  0.9555  0.1441 -0.4363
  896MOL0     H18272   4.641   5.161   3.766  0.7496  2.0049 -0.2725
  897MOL0     O18273   5.062   5.721  10.004 -0.8220 -0.8633  0.1783
  897MOL0     C18274   5.086   5.753   9.889 -0.6638 -0.1523  0.2279
  897MOL0     O18275   5.024   5.848   9.817  1.3718  0.3506  0.2034
  897MOL0     C18276   4.906   5.894   9.870 -0.6413  0.0140  0.5168
  897MOL0     C18277   4.805   5.801   9.879  0.4567 -1.2758  0.3471
  897MOL0     C18278   4.677   5.839   9.929  1.1815  0.0594 -0.2435
  897MOL0     C18279   4.649   5.976   9.958 -0.3717 -0.4058  0.8703
  897MOL0     O18280   4.521   6.009   9.995 -1.1449 -0.2357 -0.4320
  897MOL0     C18281   4.491   6.149   9.995 -0.1269  0.6093 -0.6295
  897MOL0     C18282   4.363   6.175  10.068  0.0259  0.4567  0.0703
  897MOL0     C18283   4.246   6.155   9.966 -0.4997  0.5940 -0.1334
  897MOL0     C18284   4.125   6.226  10.015  0.4955 -0.4282  0.2324
  897MOL0     C18285   4.076   6.164  10.154 -0.7405 -0.3703 -0.0639
  897MOL0     C18286   3.937   6.222  10.184 -0.9771 -0.6240  0.5114
  897MOL0     C18287   3.877   6.134  10.294  0.5997  0.3344 -1.3065
  897MOL0     C18288   3.940   6.169  10.429 -0.2501 -0.3790 -0.0300
  897MOL0     N18289   3.895   6.088  10.540 -0.2958  0.4026  0.3753
  897MOL0     C18290   3.782   6.112  10.605 -0.0391 -0.8671  0.7237
  897MOL0     C18291   3.783   6.023  10.711  0.3499 -0.2293 -0.0456
  897MOL0     C18292   3.691   6.019  10.836 -0.1991  0.2212  0.5633
  897MOL0     C18293   3.579   5.911  10.839 -0.0599 -0.7693  0.4782
  897MOL0     C18294   3.642   5.775  10.835  0.3512 -0.4251 -0.1088
  897MOL0     C18295   3.543   5.662  10.798 -0.4762 -0.0544  0.0132
  897MOL0     O18296   3.604   5.531  10.802 -0.0502  0.7757  0.3300
  897MOL0     C18297   3.689   5.498  10.703 -0.0997 -1.1684 -0.3037
  897MOL0     C18298   3.769   5.397  10.740 -0.3536 -0.6839 -0.2539
  897MOL0     C18299   3.874   5.346  10.652  1.0985  0.1151 -0.1326
  897MOL0     C18300   3.904   5.416  10.535  0.8349  0.9613  0.6028
  897MOL0     C18301   4.010   5.370  10.438  1.1065  1.0441 -0.0488
  897MOL0     O18302   4.022   5.448  10.319  0.8714  1.3459 -0.4507
  897MOL0     C18303   4.121   5.419  10.234  0.9518 -0.1063 -0.0675
  897MOL0     C18304   4.102   5.366  10.107 -0.1462  0.4444  0.5266
  897MOL0     C18305   4.209   5.368  10.020  0.1352 -0.4465 -0.0740
  897MOL0     C18306   4.338   5.402  10.056  0.7909  0.0851  0.5689
  897MOL0     O18307   4.439   5.394   9.966 -0.7369  0.2913 -0.5411
  897MOL0     C18308   4.411   5.383   9.826 -0.6866 -0.1953 -0.0272
  897MOL0     C18309   4.551   5.362   9.759  0.4263  0.5486 -0.4856
  897MOL0     C18310   4.643   5.488   9.734  0.1606 -0.3577 -0.0320
  897MOL0     C18311   4.581   5.593   9.641 -0.3997 -0.2114  1.0601
  897MOL0     C18312   4.586   5.555   9.489 -0.0064 -0.6001  0.1352
  897MOL0     C18313   4.500   5.658   9.413  0.4040  0.0240 -0.2507
  897MOL0     C18314   4.503   5.633   9.261  0.0815  0.3639  0.1653
  897MOL0     C18315   4.369   5.678   9.185  0.3022 -0.2683 -0.2926
  897MOL0    Cl18316   4.388   5.678   9.007  0.4727  0.3302  0.3800
  897MOL0     C18317   4.354   5.451  10.187  0.4880 -0.0465  0.6586
  897MOL0     C18318   4.245   5.467  10.272 -0.5037 -0.1022  0.0818
  897MOL0     O18319   4.089   5.286  10.474  0.0836  0.3177  0.2630
  897MOL0     C18320   3.826   5.531  10.502 -0.6843  0.7702 -1.1067
  897MOL0     C18321   3.721   5.569  10.582  0.4973  0.4390  0.4052
  897MOL0     N18322   3.895   5.947  10.695  0.5059  0.3444 -0.2439
  897MOL0     N18323   3.968   5.983  10.595  0.0741 -0.9177 -0.7915
  897MOL0     C18324   4.762   6.068   9.936  0.2597  0.4906  0.0080
  897MOL0     C18325   4.889   6.034   9.888 -0.3214  0.4424  0.7651
  897MOL0     C18326   5.209   5.705   9.820  0.3216 -0.4744  0.9902
  897MOL0     C18327   5.279   5.592   9.866  0.2708 -0.5441 -0.0663
  897MOL0     C18328   5.381   5.538   9.793 -0.5968 -0.2016 -0.5862
  897MOL0     C18329   5.424   5.599   9.669 -0.5490  0.2614 -0.8843
  897MOL0     O18330   5.510   5.513   9.591  0.3012  0.5656 -0.1295
  897MOL0     C18331   5.532   5.549   9.452 -0.0872  0.3777  0.6715
  897MOL0     C18332   5.605   5.435   9.380 -0.1863  0.9690  0.8609
  897MOL0     C18333   5.748   5.393   9.429 -0.8030 -0.2914  0.2892
  897MOL0     C18334   5.754   5.309   9.565 -0.3110 -0.8126 -0.1371
  897MOL0     C18335   5.897   5.298   9.605  0.4943 -0.1405 -0.5911
  897MOL0     C18336   6.014   5.291   9.643 -0.1894  1.2169 -0.4669
  897MOL0     C18337   5.347   5.707   9.616 -0.2382  0.1890  0.0930
  897MOL0     C18338   5.233   5.763   9.686 -1.4196 -0.5122 -0.4280
  897MOL0     H18339   4.820   5.694   9.870 -0.3592 -1.7057  3.0356
  897MOL0     H18340   4.603   5.759   9.931 -0.3694  1.4430  0.1445
  897MOL0     H18341   4.474   6.183   9.892 -0.1265  0.5173 -0.6602
  897MOL0     H18342   4.571   6.204  10.044  0.5225 -0.1104 -0.8690
  897MOL0     H18343   4.368   6.281  10.093  1.7496  1.0004 -2.1882
  897MOL0     H18344   4.360   6.108  10.155  0.6615  0.4439  0.0820
  897MOL0     H18345   4.228   6.049   9.944  2.3898 -0.2219  0.9376
  897MOL0     H18346   4.258   6.199   9.866 -0.0193  2.7209  0.8143
  897MOL0     H18347   4.153   6.331  10.024  0.9114 -0.6237  1.5870
  897MOL0     H18348   4.047   6.222   9.939  0.2998  1.4644  0.2853
  897MOL0     H18349   4.154   6.185  10.227 -1.4253  1.2978  0.2226
  897MOL0     H18350   4.075   6.055  10.137 -1.1073 -0.7060  1.9230
  897MOL0     H18351   3.877   6.220  10.093  1.4117  1.0811 -1.2245
  897MOL0     H18352   3.948   6.328  10.210  0.6970 -1.0426  1.6734
  897MOL0     H18353   3.768   6.149  10.295  0.5757  0.2011 -1.6709
  897MOL0     H18354   3.891   6.028  10.271 -2.8643 -0.1128 -2.0298
  897MOL0     H18355   3.908   6.272  10.448  1.0824  0.4021 -1.7473
  897MOL0     H18356   4.047   6.166  10.408 -0.9183 -1.9714 -4.3104
  897MOL0     H18357   3.731   6.206  10.588 -0.6939 -1.2471  0.5767
  897MOL0     H18358   3.650   6.120  10.837  0.5694  0.5638  2.1542
  897MOL0     H18359   3.753   5.996  10.924 -1.3881 -1.7567  0.9510
  897MOL0     H18360   3.529   5.931  10.743  2.3592  3.1753 -0.2090
  897MOL0     H18361   3.516   5.932  10.926 -0.5207 -1.1535  0.2420
  897MOL0     H18362   3.716   5.766  10.755  0.6376 -3.1767  0.3826
  897MOL0     H18363   3.686   5.751  10.932  0.2373 -1.0434 -0.2084
  897MOL0     H18364   3.486   5.684  10.707  1.4758  0.1206 -1.2239
  897MOL0     H18365   3.477   5.666  10.885  2.0932  1.0229  2.0398
  897MOL0     H18366   3.750   5.333  10.825  0.1331  1.1288  1.2929
  897MOL0     H18367   3.933   5.265  10.693  0.4009 -0.1610  0.3323
  897MOL0     H18368   4.004   5.336  10.072 -0.5004  1.2149  0.8585
  897MOL0     H18369   4.188   5.345   9.916 -0.9286 -1.7433  0.4101
  897MOL0     H18370   4.354   5.466   9.784 -0.5018 -0.1016 -0.0936
  897MOL0     H18371   4.354   5.291   9.815 -0.0244 -0.6405  0.1640
  897MOL0     H18372   4.535   5.331   9.656  0.7716  0.2125 -0.4402
  897MOL0     H18373   4.602   5.282   9.814  0.5217  0.4079 -0.7764
  897MOL0     H18374   4.748   5.471   9.708  0.1480  0.3936 -0.6257
  897MOL0     H18375   4.648   5.537   9.832  0.4475  1.1705 -0.7801
  897MOL0     H18376   4.474   5.600   9.663 -0.4293 -0.9302  1.1798
  897MOL0     H18377   4.630   5.688   9.665  2.5744 -0.8981 -1.7189
  897MOL0     H18378   4.548   5.454   9.476 -0.3748 -0.7252  1.9688
  897MOL0     H18379   4.687   5.574   9.450  1.2924 -0.6039  3.1635
  897MOL0     H18380   4.540   5.759   9.425  1.4364 -0.2015 -1.6204
  897MOL0     H18381   4.394   5.657   9.441  0.2048 -3.4643 -0.6896
  897MOL0     H18382   4.594   5.677   9.220  0.5260 -1.9385 -1.5191
  897MOL0     H18383   4.504   5.524   9.254 -0.1813  0.1700  2.4323
  897MOL0     H18384   4.342   5.780   9.215 -0.4909 -1.3906  3.3166
  897MOL0     H18385   4.278   5.629   9.218  0.2792 -2.3293 -3.0863
  897MOL0     H18386   4.446   5.468  10.241 -0.6004  0.4593  2.4496
  897MOL0     H18387   4.267   5.519  10.364  1.5279  1.7595 -1.3625
  897MOL0     H18388   3.833   5.588  10.410 -0.7907  0.7561 -1.1233
  897MOL0     H18389   3.669   5.658  10.549  1.2181 -0.5519 -4.0637
  897MOL0     H18390   4.745   6.173   9.959  0.4862  0.2000  1.6207
  897MOL0     H18391   4.972   6.100   9.865 -1.0398  1.1512  0.1043
  897MOL0     H18392   5.247   5.542   9.957 -0.2970 -2.2552 -1.1407
  897MOL0     H18393   5.423   5.443   9.826 -3.1870 -0.7906  1.2993
  897MOL0     H18394   5.580   5.646   9.438  0.7380  0.1122  1.6189
  897MOL0     H18395   5.430   5.548   9.411  0.3362 -1.6364 -0.4548
  897MOL0     H18396   5.535   5.352   9.366 -3.6826  3.7742  0.3990
  897MOL0     H18397   5.621   5.470   9.278  0.4458  0.9372  0.9446
  897MOL0     H18398   5.807   5.484   9.441  0.4366 -1.0426  0.0716
  897MOL0     H18399   5.806   5.343   9.350  0.2049  4.1688 -2.1164
  897MOL0     H18400   5.703   5.369   9.640  2.2809  1.0138  0.3152
  897MOL0     H18401   5.705   5.211   9.554 -1.5559  0.0627 -4.3474
  897MOL0     H18402   6.110   5.260   9.679 -1.1456 -0.2524  0.9826
  897MOL0     H18403   5.378   5.752   9.522 -1.5141 -0.0799 -0.4856
  897MOL0     H18404   5.177   5.844   9.642 -3.2065 -3.1710 -3.5461
  898MOL0     O18405   1.366   7.784   0.747 -0.2688  0.2428  0.9431
  898MOL0     C18406   1.417   7.765   0.636 -0.5931 -0.8022  0.9115
  898MOL0     O18407   1.356   7.780   0.514  0.0146  0.3210 -0.1691
  898MOL0     C18408   1.224   7.802   0.489  0.2358 -0.0845  0.0262
  898MOL0     C18409   1.183   7.876   0.373  0.0496  0.8656 -0.3092
  898MOL0     C18410   1.050   7.919   0.349 -0.7509  0.4100 -0.3347
  898MOL0     C18411   0.954   7.887   0.454  0.3700  0.1765  0.2480
  898MOL0     O18412   0.820   7.916   0.453  0.5242 -0.1063  0.4125
  898MOL0     C18413   0.775   8.003   0.352  0.3835 -0.0583 -0.8173
  898MOL0     C18414   0.626   8.040   0.349 -0.0545  1.2937 -1.2413
  898MOL0     C18415   0.573   8.143   0.244 -0.0341 -0.6943 -0.7282
  898MOL0     C18416   0.640   8.283   0.257  0.0138  0.3478 -0.3461
  898MOL0     C18417   0.648   8.354   0.123 -0.4502  0.1605 -0.4810
  898MOL0     C18418   0.673   8.281  -0.009 -0.2530  0.7847 -0.0741
  898MOL0     C18419   0.786   8.183  -0.005  0.2010 -0.8164 -0.4030
  898MOL0     C18420   0.845   8.155  -0.140  0.4671  0.2239  0.5701
  898MOL0     N18421   0.961   8.238  -0.169  0.4415  0.1368  0.2118
  898MOL0     C18422   1.084   8.199  -0.119 -0.4829 -0.5707 -0.3904
  898MOL0     C18423   1.169   8.304  -0.137 -1.2412 -0.2588  0.4319
  898MOL0     C18424   1.324   8.298  -0.118  0.0979 -1.5638 -0.1601
  898MOL0     C18425   1.369   8.262   0.025 -0.2453  0.5005 -0.0013
  898MOL0     C18426   1.521   8.280   0.046  0.7398 -0.3774  0.2618
  898MOL0     C18427   1.567   8.205   0.169  0.0945 -0.0086 -1.0785
  898MOL0     O18428   1.575   8.066   0.167 -0.3088 -0.3470  0.4709
  898MOL0     C18429   1.692   8.008   0.127  1.2269 -0.5931 -0.1663
  898MOL0     C18430   1.795   8.065   0.047  0.2220 -1.0158  0.1355
  898MOL0     C18431   1.902   7.984  -0.001 -0.2960 -0.2076  0.5341
  898MOL0     C18432   1.910   7.854   0.042 -0.3220  0.2186  1.0159
  898MOL0     C18433   2.037   7.785  -0.003  0.2099  0.4650 -0.3224
  898MOL0     O18434   2.106   7.817  -0.113 -0.1920  0.6471 -0.3953
  898MOL0     C18435   2.208   7.745  -0.160 -0.3842  0.6644  0.1250
  898MOL0     C18436   2.309   7.688  -0.083  0.6229 -0.3596 -0.7667
  898MOL0     C18437   2.431   7.651  -0.132 -0.4368 -0.2818  0.2043
  898MOL0     C18438   2.455   7.656  -0.268 -0.5805  0.0449  0.0640
  898MOL0     O18439   2.582   7.615  -0.306 -0.0734  0.2264  0.9222
  898MOL0     C18440   2.619   7.552  -0.422  0.3028 -0.4627 -0.4875
  898MOL0     C18441   2.766   7.521  -0.426  0.4746 -0.9363 -0.0275
  898MOL0     C18442   2.799   7.430  -0.548  0.5906 -1.0566  0.4595
  898MOL0     C18443   2.945   7.399  -0.545  0.4080 -0.6473 -0.2162
  898MOL0     C18444   2.994   7.341  -0.685 -0.3474  0.1058 -1.1239
  898MOL0     C18445   3.149   7.331  -0.698  0.0757 -0.0669 -0.1340
  898MOL0     C18446   3.188   7.332  -0.846 -0.4927  0.7186 -0.5956
  898MOL0     C18447   3.339   7.347  -0.867 -0.5761  0.0465 -0.4032
  898MOL0    Cl18448   3.425   7.204  -0.802  0.0149 -0.1445  0.2778
  898MOL0     C18449   2.360   7.705  -0.352  0.5415 -1.0112  0.0980
  898MOL0     C18450   2.231   7.756  -0.297 -0.6285  0.0918  1.6686
  898MOL0     O18451   2.068   7.681   0.064  0.7369  0.0519 -0.1241
  898MOL0     C18452   1.817   7.793   0.127 -0.4570 -0.3560 -0.0857
  898MOL0     C18453   1.708   7.876   0.171 -0.1232 -0.1634  0.4013
  898MOL0     N18454   1.099   8.402  -0.214 -0.1314 -0.7586 -0.3299
  898MOL0     N18455   0.973   8.364  -0.222  0.6683  0.0078  0.4854
  898MOL0     C18456   0.995   7.809   0.562  0.2639 -0.3638  0.3771
  898MOL0     C18457   1.127   7.764   0.580  0.6495 -0.9175 -1.2595
  898MOL0     C18458   1.569   7.750   0.630  0.3129  0.3385  0.8953
  898MOL0     C18459   1.618   7.669   0.731 -0.5485 -0.4635  0.5971
  898MOL0     C18460   1.766   7.637   0.728  0.8600  0.5781  0.2055
  898MOL0     C18461   1.852   7.695   0.635 -0.1468  0.4870 -0.3721
  898MOL0     O18462   1.985   7.668   0.617  0.0666 -0.5573  0.0212
  898MOL0     C18463   2.065   7.628   0.740 -0.1054 -0.4012  1.6683
  898MOL0     C18464   2.074   7.723   0.856 -0.0058 -0.3725 -0.2557
  898MOL0     C18465   2.112   7.658   0.991  0.0096  0.2590  0.4803
  898MOL0     C18466   2.264   7.661   1.024  0.1153 -1.4533 -0.6857
  898MOL0     C18467   2.298   7.606   1.163 -0.3497 -0.0470  0.3832
  898MOL0     C18468   2.329   7.561   1.274 -0.3808  0.2722 -0.8308
  898MOL0     C18469   1.792   7.772   0.533  1.1400 -0.0787 -0.3933
  898MOL0     C18470   1.652   7.796   0.523 -0.1491  0.2221 -1.0690
  898MOL0     H18471   1.262   7.903   0.304  1.6562 -2.9008 -0.1614
  898MOL0     H18472   1.018   7.968   0.258 -2.2136 -0.3129 -0.2452
  898MOL0     H18473   0.792   7.958   0.254 -0.6677  1.2657 -1.6463
  898MOL0     H18474   0.825   8.100   0.362 -2.0842  1.0663  2.3972
  898MOL0     H18475   0.608   8.074   0.451  0.7834 -2.3250  0.2611
  898MOL0     H18476   0.566   7.949   0.341  1.2104  0.3271 -0.0895
  898MOL0     H18477   0.469   8.174   0.256  0.4666  0.0228  2.4641
  898MOL0     H18478   0.568   8.111   0.139  0.4950  1.4915 -1.4653
  898MOL0     H18479   0.578   8.330   0.334 -1.2848 -1.9264  0.0919
  898MOL0     H18480   0.740   8.285   0.302 -0.1818  3.5814  0.2149
  898MOL0     H18481   0.734   8.422   0.127  1.3179 -1.9962 -0.3801
  898MOL0     H18482   0.556   8.413   0.114  0.4894  1.3986 -3.2316
  898MOL0     H18483   0.677   8.359  -0.085  2.8351 -0.7454 -1.6628
  898MOL0     H18484   0.584   8.226  -0.042 -0.1931 -1.1072  2.5680
  898MOL0     H18485   0.860   8.231   0.059 -0.9677  0.6784 -0.1295
  898MOL0     H18486   0.761   8.084   0.034  1.2709 -0.9300  0.0412
  898MOL0     H18487   0.767   8.171  -0.215  1.9639  2.9821 -0.5149
  898MOL0     H18488   0.872   8.049  -0.149 -0.7794 -0.0817  0.1777
  898MOL0     H18489   1.111   8.111  -0.061 -0.9438 -0.7524 -0.4458
  898MOL0     H18490   1.364   8.397  -0.142  1.1910 -1.8067  0.5798
  898MOL0     H18491   1.372   8.236  -0.195  1.4860 -0.8113  0.0622
  898MOL0     H18492   1.349   8.157   0.046 -1.0090  0.1833 -2.0316
  898MOL0     H18493   1.311   8.315   0.101 -1.5877 -1.1591  0.1879
  898MOL0     H18494   1.586   8.238  -0.032 -0.9940 -0.2774 -1.2845
  898MOL0     H18495   1.548   8.384   0.066 -1.8406 -0.2744  4.5289
  898MOL0     H18496   1.497   8.245   0.243 -0.5587  1.8405 -2.6202
  898MOL0     H18497   1.665   8.245   0.197 -0.2866 -0.1838  0.5763
  898MOL0     H18498   1.785   8.169   0.018  0.7911 -0.8382  0.5720
  898MOL0     H18499   1.984   8.022  -0.061  1.2298 -1.4222  1.7746
  898MOL0     H18500   2.297   7.684   0.025 -0.3633 -1.7577 -0.8920
  898MOL0     H18501   2.502   7.608  -0.063  0.7258  3.5318  1.6731
  898MOL0     H18502   2.605   7.620  -0.506 -0.6974 -1.7608 -1.4239
  898MOL0     H18503   2.560   7.461  -0.440 -0.6460 -0.2743  1.4254
  898MOL0     H18504   2.795   7.485  -0.327  1.6071 -1.8375 -0.6612
  898MOL0     H18505   2.814   7.619  -0.427 -0.3940 -0.3577  3.0355
  898MOL0     H18506   2.779   7.493  -0.635  1.3681 -3.1642 -1.3329
  898MOL0     H18507   2.736   7.340  -0.549 -0.3417 -0.4148 -0.3507
  898MOL0     H18508   3.004   7.489  -0.524 -0.0722 -0.1150 -1.0564
  898MOL0     H18509   2.963   7.321  -0.472 -2.8976 -0.7209  0.6853
  898MOL0     H18510   2.957   7.407  -0.764  0.2594  1.4686 -0.3197
  898MOL0     H18511   2.948   7.244  -0.707  1.4923 -0.7653 -1.2942
  898MOL0     H18512   3.183   7.237  -0.653  0.6189  0.7056  1.1259
  898MOL0     H18513   3.195   7.415  -0.646 -0.7815 -0.2626  0.9545
  898MOL0     H18514   3.148   7.239  -0.888 -4.0022 -0.1946  3.8806
  898MOL0     H18515   3.150   7.421  -0.896 -0.5952  2.0829  1.7379
  898MOL0     H18516   3.384   7.436  -0.821 -1.3260  1.1427 -1.7382
  898MOL0     H18517   3.369   7.352  -0.972  3.4658  2.0560  0.6399
  898MOL0     H18518   2.382   7.701  -0.458 -2.0438 -1.6971 -0.4769
  898MOL0     H18519   2.156   7.791  -0.366 -0.7258 -2.5014  0.3221
  898MOL0     H18520   1.834   7.694   0.168  0.8488 -1.5945 -3.2731
  898MOL0     H18521   1.637   7.829   0.237  0.8898 -1.9203  0.3065
  898MOL0     H18522   0.918   7.793   0.637  0.5142 -0.9352  0.5128
  898MOL0     H18523   1.155   7.699   0.663 -1.5684 -0.3299  0.0250
  898MOL0     H18524   1.559   7.622   0.810  1.6901 -0.2540  2.5270
  898MOL0     H18525   1.817   7.571   0.798 -0.1125 -0.2820  0.1441
  898MOL0     H18526   2.169   7.621   0.707  0.5352  2.5129  2.7301
  898MOL0     H18527   2.044   7.525   0.772  3.0402 -1.8059 -0.3085
  898MOL0     H18528   2.157   7.793   0.842 -0.6696  0.5294  0.1328
  898MOL0     H18529   1.978   7.776   0.859  0.9823  1.5376 -0.4407
  898MOL0     H18530   2.081   7.553   0.988  4.7442 -1.3900 -0.5535
  898MOL0     H18531   2.053   7.702   1.071  1.3236 -0.8921  2.1561
  898MOL0     H18532   2.312   7.599   0.947 -0.4602 -1.3874 -1.1022
  898MOL0     H18533   2.303   7.763   1.025  0.4446 -1.5762 -0.7442
  898MOL0     H18534   2.361   7.524   1.369  0.1493  2.7693  0.0449
  898MOL0     H18535   1.860   7.813   0.460 -0.6955  2.5557 -0.8000
  898MOL0     H18536   1.621   7.868   0.448 -2.1646  1.4953  0.8698
  899MOL0     O18537   0.919   1.441   9.023  0.0389  0.5135 -0.0910
  899MOL0     C18538   0.982   1.498   9.108  0.2401  0.0970  1.0514
  899MOL0     O18539   0.936   1.553   9.215 -0.5690 -0.0635 -0.1205
  899MOL0     C18540   0.795   1.547   9.229 -0.8050 -0.1791 -0.2687
  899MOL0     C18541   0.732   1.661   9.264 -0.2975 -0.2708  0.5240
  899MOL0     C18542   0.600   1.663   9.303  0.1451 -0.5845 -0.9227
  899MOL0     C18543   0.522   1.549   9.319 -0.9877  0.4832  0.4038
  899MOL0     O18544   0.405   1.565   9.374  0.4904 -0.3880  0.4266
  899MOL0     C18545   0.349   1.457   9.447 -0.7679  1.1051 -0.4612
  899MOL0     C18546   0.226   1.501   9.523 -0.8221 -0.0550 -0.8037
  899MOL0     C18547   0.099   1.443   9.465 -0.4782 -0.1704 -0.1625
  899MOL0     C18548  -0.034   1.479   9.521 -0.4591  1.0967 -0.9203
  899MOL0     C18549  -0.147   1.429   9.427 -0.7786  0.1100  0.0235
  899MOL0     C18550  -0.278   1.474   9.486  0.3599  0.1879  0.0106
  899MOL0     C18551  -0.401   1.437   9.398 -0.4716 -0.4275  0.2441
  899MOL0     C18552  -0.435   1.286   9.377  0.1865 -0.3007 -0.2070
  899MOL0     N18553  -0.527   1.247   9.483  0.2148 -0.0073 -0.4042
  899MOL0     C18554  -0.652   1.196   9.478  0.1282  0.7500  0.5979
  899MOL0     C18555  -0.686   1.154   9.607 -0.6304 -0.1496 -0.1823
  899MOL0     C18556  -0.807   1.069   9.640 -0.2761 -0.1619  0.2195
  899MOL0     C18557  -0.923   1.166   9.700 -0.4024  0.0863 -0.1324
  899MOL0     C18558  -1.047   1.083   9.748 -0.2920  0.1846 -1.1478
  899MOL0     C18559  -1.134   1.164   9.836  0.1704 -0.5611  1.2993
  899MOL0     O18560  -1.265   1.110   9.839  0.0657 -0.7290 -0.6061
  899MOL0     C18561  -1.350   1.137   9.937  0.9113  0.1474  0.2381
  899MOL0     C18562  -1.331   1.258  10.011 -0.0401  0.5353 -1.1530
  899MOL0     C18563  -1.431   1.312  10.092  0.1160 -0.5872 -0.2497
  899MOL0     C18564  -1.552   1.248  10.118 -0.1577  0.5158  0.4148
  899MOL0     C18565  -1.647   1.299  10.215  0.9882 -0.6353 -0.4733
  899MOL0     O18566  -1.776   1.267  10.218 -0.1013 -0.4045  0.1204
  899MOL0     C18567  -1.869   1.292  10.320 -0.3511 -0.1249 -0.2251
  899MOL0     C18568  -1.998   1.287  10.275  0.9969  0.7745 -0.2360
  899MOL0     C18569  -2.105   1.285  10.363  0.6434  0.0096 -0.6209
  899MOL0     C18570  -2.090   1.310  10.499 -0.4015 -0.9249  0.4688
  899MOL0     O18571  -2.186   1.336  10.590 -0.2717 -0.3634  0.0307
  899MOL0     C18572  -2.307   1.405  10.547 -0.0725  0.5132 -0.3267
  899MOL0     C18573  -2.407   1.420  10.666  0.3789  0.5143  0.2174
  899MOL0     C18574  -2.502   1.293  10.689  0.3342 -0.4233 -0.7881
  899MOL0     C18575  -2.606   1.350  10.783 -0.2860  0.1314  0.4017
  899MOL0     C18576  -2.712   1.243  10.814 -0.0583  0.1454  1.3223
  899MOL0     C18577  -2.833   1.328  10.869  0.1441 -0.3578  0.5963
  899MOL0     C18578  -2.948   1.241  10.918  0.6682 -0.7750 -0.3732
  899MOL0     C18579  -3.074   1.320  10.960  1.0700 -0.7104 -0.4355
  899MOL0    Cl18580  -3.172   1.189  11.041 -0.1080  0.3430  0.2503
  899MOL0     C18581  -1.957   1.328  10.543 -0.2520 -0.5384 -0.0835
  899MOL0     C18582  -1.847   1.309  10.452 -0.9190  0.6597 -0.1878
  899MOL0     O18583  -1.599   1.386  10.292  0.0133 -0.0081 -0.0372
  899MOL0     C18584  -1.566   1.125  10.048 -0.3102 -0.0609  0.1650
  899MOL0     C18585  -1.463   1.065   9.965  0.1187  0.4384 -0.4815
  899MOL0     N18586  -0.571   1.170   9.680 -0.6047  0.7048 -0.1486
  899MOL0     N18587  -0.478   1.218   9.605 -0.6107  0.1103 -0.8757
  899MOL0     C18588   0.595   1.430   9.288 -1.0518 -0.5718 -0.4672
  899MOL0     C18589   0.731   1.429   9.244 -0.8277  0.3966 -0.3059
  899MOL0     C18590   1.131   1.477   9.094 -0.0789 -0.4421  0.0206
  899MOL0     C18591   1.183   1.373   9.021 -0.0712 -0.0212  1.1115
  899MOL0     C18592   1.322   1.370   8.983  0.1488  0.5206 -0.6494
  899MOL0     C18593   1.412   1.460   9.031 -0.3259  0.6656 -0.2657
  899MOL0     O18594   1.541   1.458   8.987  0.4968  0.1481 -0.4841
  899MOL0     C18595   1.642   1.519   9.074 -0.0181  0.7505  0.1408
  899MOL0     C18596   1.782   1.494   9.027  0.6865  0.3573  0.2413
  899MOL0     C18597   1.806   1.549   8.883 -0.2885  0.7605 -0.0108
  899MOL0     C18598   1.940   1.525   8.826 -0.2254  0.1052 -0.3347
  899MOL0     C18599   2.040   1.588   8.904 -0.3029  0.4477  0.8934
  899MOL0     C18600   2.124   1.661   8.959 -0.3823 -0.0731  0.3491
  899MOL0     C18601   1.350   1.568   9.102 -0.5105  0.8710  0.9559
  899MOL0     C18602   1.218   1.580   9.138 -0.4157  0.1545 -0.7177
  899MOL0     H18603   0.794   1.750   9.261 -0.3354 -0.2415  0.6038
  899MOL0     H18604   0.559   1.760   9.328 -1.5148 -1.4610 -0.0181
  899MOL0     H18605   0.426   1.430   9.520 -0.6726  1.8839 -0.2685
  899MOL0     H18606   0.325   1.371   9.384 -1.2736 -0.5456  1.8452
  899MOL0     H18607   0.222   1.610   9.530  0.5042 -0.0307  0.0534
  899MOL0     H18608   0.243   1.467   9.626 -0.8752 -1.1351 -1.1417
  899MOL0     H18609   0.111   1.334   9.471  0.6228 -0.1109 -0.9095
  899MOL0     H18610   0.089   1.443   9.356  0.5164  0.8748 -0.2696
  899MOL0     H18611  -0.041   1.424   9.615  0.6651  0.2952 -1.2857
  899MOL0     H18612  -0.041   1.588   9.528  0.0645  1.0198  1.8529
  899MOL0     H18613  -0.135   1.321   9.428  4.3045  0.2659 -3.9547
  899MOL0     H18614  -0.125   1.465   9.326  0.7776 -2.3693 -0.6053
  899MOL0     H18615  -0.284   1.584   9.486  0.1857  0.1796  0.9026
  899MOL0     H18616  -0.297   1.436   9.586  0.6420  0.8610  0.3318
  899MOL0     H18617  -0.480   1.498   9.442  0.7787  0.5558  1.1606
  899MOL0     H18618  -0.376   1.469   9.296  0.0607 -0.7891  0.2568
  899MOL0     H18619  -0.345   1.226   9.389  0.1675 -0.2547  0.1768
  899MOL0     H18620  -0.484   1.265   9.282  2.8632 -0.6961 -1.5940
  899MOL0     H18621  -0.700   1.182   9.382  2.8889 -2.0968 -0.5438
  899MOL0     H18622  -0.803   0.993   9.720 -0.0565  1.0182  1.3607
  899MOL0     H18623  -0.849   1.007   9.560  2.0844 -1.8662  0.1877
  899MOL0     H18624  -0.952   1.256   9.645  3.0196  0.9046 -0.8053
  899MOL0     H18625  -0.871   1.208   9.786  1.8506  1.2098 -1.9317
  899MOL0     H18626  -1.099   1.050   9.658 -0.4899  1.1869 -1.4170
  899MOL0     H18627  -1.018   0.992   9.801 -3.2632 -0.5874 -0.6821
  899MOL0     H18628  -1.151   1.264   9.797 -0.3623 -0.6097  1.3974
  899MOL0     H18629  -1.085   1.169   9.934 -1.5346  2.0942  2.1144
  899MOL0     H18630  -1.243   1.320  10.000 -0.0295  0.5314 -1.0895
  899MOL0     H18631  -1.415   1.400  10.152 -0.9513 -0.1429 -0.5787
  899MOL0     H18632  -2.014   1.303  10.169 -1.4004 -2.6388 -0.5272
  899MOL0     H18633  -2.208   1.276  10.332 -0.2040  2.3610  1.2105
  899MOL0     H18634  -2.350   1.367  10.453  1.8209 -0.5149 -0.8395
  899MOL0     H18635  -2.278   1.509  10.534 -3.3533  1.6345  0.5659
  899MOL0     H18636  -2.470   1.500  10.626  0.4344  0.6028  0.3081
  899MOL0     H18637  -2.352   1.442  10.757  0.7572 -0.8969  0.3555
  899MOL0     H18638  -2.449   1.208  10.732 -1.3742 -0.7970  0.6833
  899MOL0     H18639  -2.554   1.263  10.597  0.6600  0.6620 -1.3433
  899MOL0     H18640  -2.561   1.381  10.878  0.9291  0.8581 -0.3887
  899MOL0     H18641  -2.646   1.441  10.738  1.2874 -0.9466 -3.5967
  899MOL0     H18642  -2.666   1.176  10.888  4.9804 -0.0367 -1.5460
  899MOL0     H18643  -2.746   1.185  10.728 -2.6046  0.0832  2.2689
  899MOL0     H18644  -2.868   1.389  10.786 -2.1766 -1.7060  0.5084
  899MOL0     H18645  -2.798   1.399  10.945 -2.3255  3.1048 -1.2256
  899MOL0     H18646  -2.966   1.157  10.851 -1.4960 -1.7415  1.3129
  899MOL0     H18647  -2.905   1.197  11.008  3.9935 -1.4346 -2.0987
  899MOL0     H18648  -3.119   1.361  10.869  0.2536 -1.2462 -0.2881
  899MOL0     H18649  -3.061   1.400  11.034 -0.1263 -0.4505 -0.4794
  899MOL0     H18650  -1.942   1.353  10.648 -5.2710  1.7557  0.3819
  899MOL0     H18651  -1.745   1.324  10.485 -0.0850 -0.6561 -2.0190
  899MOL0     H18652  -1.662   1.077  10.062  0.0441 -1.0847 -0.7607
  899MOL0     H18653  -1.504   0.981   9.910  0.9676 -2.4776  2.8848
  899MOL0     H18654   0.559   1.331   9.315  1.1427 -1.4757 -0.6421
  899MOL0     H18655   0.781   1.334   9.225 -1.2883  0.1869 -0.5055
  899MOL0     H18656   1.123   1.294   8.977 -0.8557  0.5886  1.0588
  899MOL0     H18657   1.360   1.280   8.935  2.5234 -0.5999  2.9094
  899MOL0     H18658   1.640   1.472   9.172 -0.9805 -1.9539 -1.0913
  899MOL0     H18659   1.621   1.627   9.075  0.3438  0.8466 -1.1724
  899MOL0     H18660   1.851   1.525   9.106  0.1859  1.2520  0.3417
  899MOL0     H18661   1.796   1.385   9.020 -0.0443  0.3214 -0.9647
  899MOL0     H18662   1.782   1.655   8.888  0.0668  0.8021  1.1972
  899MOL0     H18663   1.738   1.506   8.808  1.1458  0.3227 -1.1129
  899MOL0     H18664   1.947   1.417   8.814  1.7014  0.4288 -2.9119
  899MOL0     H18665   1.942   1.573   8.727  2.5527 -2.5371 -1.7136
  899MOL0     H18666   2.205   1.721   8.994  0.2887  0.3459 -1.7588
  899MOL0     H18667   1.415   1.654   9.111  1.6627  0.0986 -4.0323
  899MOL0     H18668   1.179   1.663   9.195 -1.9431 -0.3147 -1.0311
  900MOL0     O18669   7.806   2.365   8.155  0.7318 -0.3514 -0.3615
  900MOL0     C18670   7.790   2.353   8.039  0.2160 -0.7079  0.1922
  900MOL0     O18671   7.684   2.416   7.971  0.0344 -0.1958 -0.7649
  900MOL0     C18672   7.601   2.515   8.028  0.4633 -0.7832  0.2781
  900MOL0     C18673   7.542   2.609   7.936  0.5889  1.0651  0.7704
  900MOL0     C18674   7.445   2.691   7.978 -0.3664  0.2015 -0.0100
  900MOL0     C18675   7.408   2.709   8.105  0.5419 -0.7218 -0.8190
  900MOL0     O18676   7.297   2.792   8.129  0.1380 -0.3300  0.0207
  900MOL0     C18677   7.209   2.766   8.230  1.5342 -0.0686 -0.1982
  900MOL0     C18678   7.071   2.840   8.208  0.5208  0.0768 -0.1141
  900MOL0     C18679   7.088   2.992   8.163 -0.4899  0.7432  0.1860
  900MOL0     C18680   6.938   3.050   8.139 -1.1784  0.6123  0.1604
  900MOL0     C18681   6.962   3.195   8.082  0.7188  0.0694  0.5308
  900MOL0     C18682   6.820   3.237   8.026  0.3921 -0.5835 -0.0994
  900MOL0     C18683   6.818   3.384   7.973  0.0733  0.2765 -0.3867
  900MOL0     C18684   6.682   3.423   7.904  0.7028 -0.0896  0.1526
  900MOL0     N18685   6.687   3.560   7.868  0.0373  0.1936  0.6716
  900MOL0     C18686   6.792   3.622   7.801 -0.2718 -0.2340 -0.3647
  900MOL0     C18687   6.746   3.748   7.774 -0.6360 -0.7179 -0.5410
  900MOL0     C18688   6.812   3.856   7.695  0.6027  0.4274 -0.0641
  900MOL0     C18689   6.767   3.854   7.539  0.7836 -0.4605 -0.8047
  900MOL0     C18690   6.853   3.936   7.441 -0.2222  0.0174 -0.2214
  900MOL0     C18691   6.796   3.929   7.303  0.4301  0.4809 -0.2998
  900MOL0     O18692   6.666   4.003   7.309 -0.3952 -0.2542 -0.2046
  900MOL0     C18693   6.565   3.981   7.217  0.2381 -0.0316 -0.5104
  900MOL0     C18694   6.558   3.883   7.121  0.3608 -0.2621 -0.4150
  900MOL0     C18695   6.451   3.868   7.034  0.2615 -0.2358 -0.3268
  900MOL0     C18696   6.340   3.939   7.057  0.0615 -0.2654 -0.6078
  900MOL0     C18697   6.215   3.932   6.981 -0.3428  0.0032 -0.5841
  900MOL0     O18698   6.212   3.904   6.847 -0.2147  1.1653  0.3614
  900MOL0     C18699   6.097   3.843   6.809 -0.4520 -0.3391  0.0855
  900MOL0     C18700   5.975   3.919   6.809  0.0472  0.3753  0.8321
  900MOL0     C18701   5.850   3.858   6.767 -0.0526  0.3069  0.8677
  900MOL0     C18702   5.854   3.728   6.709 -0.5882 -0.2908  0.5157
  900MOL0     O18703   5.741   3.680   6.643 -0.4337  0.1592 -0.1683
  900MOL0     C18704   5.677   3.576   6.725  0.9567  0.8089 -0.0513
  900MOL0     C18705   5.532   3.561   6.684 -0.5482 -0.6381 -0.4553
  900MOL0     C18706   5.432   3.629   6.774  0.2537  0.7830  0.2361
  900MOL0     C18707   5.449   3.782   6.794 -0.4240  0.9135  0.9165
  900MOL0     C18708   5.328   3.849   6.847 -0.2766  0.6416  0.1613
  900MOL0     C18709   5.312   3.828   7.002 -0.6548  0.5028 -0.1199
  900MOL0     C18710   5.195   3.904   7.060 -0.7589 -0.9433 -0.8090
  900MOL0     C18711   5.216   3.942   7.211 -0.2169  0.2906  0.3780
  900MOL0    Cl18712   5.084   4.045   7.272  0.5975 -0.1081 -0.3376
  900MOL0     C18713   5.977   3.669   6.683 -0.4343 -0.3583  0.1628
  900MOL0     C18714   6.093   3.721   6.740  0.3435 -0.8002  0.7586
  900MOL0     O18715   6.121   3.940   7.054  0.6506  0.2138  0.1010
  900MOL0     C18716   6.343   4.045   7.151  1.0243  0.0544  0.2817
  900MOL0     C18717   6.455   4.066   7.229  0.1902  0.2206 -0.7062
  900MOL0     N18718   6.619   3.753   7.830  0.4692 -0.0746  0.3781
  900MOL0     N18719   6.580   3.643   7.883 -0.6672 -0.0884  0.5343
  900MOL0     C18720   7.477   2.637   8.205  0.3694 -0.2329 -0.3020
  900MOL0     C18721   7.571   2.538   8.163  0.9790  0.7092 -0.2918
  900MOL0     C18722   7.880   2.270   7.958 -0.1345 -0.5444 -0.8629
  900MOL0     C18723   8.011   2.263   7.999 -0.6371  0.0322  0.6971
  900MOL0     C18724   8.099   2.190   7.927 -0.6730  0.5241 -0.0597
  900MOL0     C18725   8.059   2.101   7.828 -0.1787 -0.3848  0.0911
  900MOL0     O18726   8.147   2.018   7.768  0.5746  0.3011  0.3842
  900MOL0     C18727   8.176   2.047   7.629 -0.1037  0.2545  0.3455
  900MOL0     C18728   8.307   1.984   7.572  0.0207  0.5591 -0.6451
  900MOL0     C18729   8.426   1.988   7.673 -0.1253 -1.0367 -0.5863
  900MOL0     C18730   8.469   2.134   7.723 -0.3127 -0.0948 -0.4907
  900MOL0     C18731   8.556   2.196   7.618  0.4763 -0.9503  0.3285
  900MOL0     C18732   8.617   2.255   7.538 -0.8155 -0.4003 -0.5263
  900MOL0     C18733   7.922   2.106   7.784 -0.1018 -0.7218 -0.1369
  900MOL0     C18734   7.837   2.195   7.848  0.1805  0.7416  0.0726
  900MOL0     H18735   7.565   2.575   7.835 -1.6241 -2.0996  1.1831
  900MOL0     H18736   7.388   2.750   7.907 -2.9782  0.8565  2.4387
  900MOL0     H18737   7.240   2.787   8.333 -2.9735 -1.2243  1.6842
  900MOL0     H18738   7.178   2.662   8.247  0.2101  0.0033 -1.8916
  900MOL0     H18739   7.012   2.833   8.301  0.7615 -0.7166 -0.0100
  900MOL0     H18740   7.024   2.771   8.137 -0.1323  1.5657 -1.1781
  900MOL0     H18741   7.145   2.998   8.070 -0.4314 -1.7093 -0.0051
  900MOL0     H18742   7.143   3.030   8.249  1.9163 -0.1259 -0.8969
  900MOL0     H18743   6.886   2.986   8.067 -0.9108  0.8354 -0.2439
  900MOL0     H18744   6.878   3.050   8.230  1.1066 -1.5641  1.8071
  900MOL0     H18745   7.046   3.214   8.014  0.7867 -1.4794  0.1512
  900MOL0     H18746   6.979   3.258   8.170 -3.0580 -1.1183  2.2896
  900MOL0     H18747   6.748   3.222   8.108  1.2068  5.1194  2.1801
  900MOL0     H18748   6.797   3.179   7.936  1.3689 -0.2231 -0.5895
  900MOL0     H18749   6.833   3.449   8.060  0.8286  0.5252 -0.6931
  900MOL0     H18750   6.898   3.402   7.901 -1.1625  2.6615 -1.2815
  900MOL0     H18751   6.602   3.405   7.976 -0.1487 -1.0434 -0.9974
  900MOL0     H18752   6.666   3.350   7.824  0.8378 -2.5941  2.3013
  900MOL0     H18753   6.888   3.581   7.774  1.1212  1.7344  1.2830
  900MOL0     H18754   6.918   3.830   7.699 -0.0422 -2.4244  0.8182
  900MOL0     H18755   6.793   3.951   7.744 -2.7228 -1.1298  2.0307
  900MOL0     H18756   6.668   3.900   7.541  1.9976  2.3435  0.1436
  900MOL0     H18757   6.758   3.754   7.496 -1.7150 -0.7276  0.1404
  900MOL0     H18758   6.861   4.042   7.466  1.8029 -0.5730  1.8923
  900MOL0     H18759   6.951   3.892   7.426 -0.0599  0.6018 -0.9608
  900MOL0     H18760   6.776   3.825   7.277  0.5949  0.7201 -1.4816
  900MOL0     H18761   6.872   3.963   7.231  2.5018 -1.2034  0.9847
  900MOL0     H18762   6.634   3.808   7.102  2.2018  1.5919 -0.6508
  900MOL0     H18763   6.451   3.808   6.944 -0.1747 -0.3481 -0.2521
  900MOL0     H18764   5.987   4.021   6.845 -2.7018  0.9453  0.3576
  900MOL0     H18765   5.757   3.913   6.782  1.6501  3.5983  0.2175
  900MOL0     H18766   5.686   3.587   6.833  0.4428  0.0099  0.0747
  900MOL0     H18767   5.729   3.492   6.678  1.4466  0.4863  1.0496
  900MOL0     H18768   5.500   3.456   6.686 -0.7119 -0.6921 -2.8490
  900MOL0     H18769   5.523   3.585   6.578  0.1286 -2.9376 -1.1056
  900MOL0     H18770   5.431   3.580   6.872 -1.4159  1.8943  0.8279
  900MOL0     H18771   5.332   3.621   6.731  0.5572  1.2188 -0.5743
  900MOL0     H18772   5.536   3.808   6.856 -0.2834  1.8743  0.3382
  900MOL0     H18773   5.481   3.813   6.694 -0.2065 -3.2867 -0.5026
  900MOL0     H18774   5.250   3.802   6.786  2.2003 -2.4690 -0.8395
  900MOL0     H18775   5.323   3.955   6.819  2.5786  0.4533 -1.4339
  900MOL0     H18776   5.409   3.862   7.039  0.5578 -2.8082  0.1170
  900MOL0     H18777   5.304   3.722   7.029 -0.0521 -0.2568 -2.6757
  900MOL0     H18778   5.178   3.993   7.000 -1.1952  1.1976  2.2589
  900MOL0     H18779   5.101   3.850   7.046 -1.7714  0.1913  1.1171
  900MOL0     H18780   5.316   3.981   7.231  0.1845 -0.6749  0.3289
  900MOL0     H18781   5.212   3.849   7.268  0.2726 -0.1118 -0.2239
  900MOL0     H18782   5.995   3.576   6.629 -2.2880 -0.2509 -0.7202
  900MOL0     H18783   6.191   3.678   6.723  0.5206  0.0293 -0.4915
  900MOL0     H18784   6.263   4.119   7.156 -0.1811 -1.2356  1.1619
  900MOL0     H18785   6.473   4.145   7.301  2.0580 -1.0902  0.3429
  900MOL0     H18786   7.447   2.656   8.307 -0.3930 -2.2614 -0.1011
  900MOL0     H18787   7.618   2.476   8.238  1.5524 -1.9928 -2.7022
  900MOL0     H18788   8.059   2.305   8.087 -1.8060 -1.1192  1.9213
  900MOL0     H18789   8.203   2.185   7.957 -1.6319 -4.4241  3.5153
  900MOL0     H18790   8.179   2.153   7.601 -0.1202 -0.4534 -2.7002
  900MOL0     H18791   8.091   2.008   7.572  1.5633 -2.3086 -0.5538
  900MOL0     H18792   8.295   1.877   7.551  1.1844  0.5477 -1.3776
  900MOL0     H18793   8.334   2.031   7.477  1.0448 -0.0762 -0.6946
  900MOL0     H18794   8.512   1.942   7.624 -0.0169 -0.6977 -0.7187
  900MOL0     H18795   8.408   1.933   7.766  1.5463  2.6708  2.1809
  900MOL0     H18796   8.389   2.208   7.736  1.8833  2.7896 -2.0548
  900MOL0     H18797   8.529   2.116   7.812 -2.4443 -1.0889  0.8331
  900MOL0     H18798   8.681   2.317   7.478  1.3264 -1.7818  0.2236
  900MOL0     H18799   7.884   2.044   7.703  1.1870 -1.5812 -0.1262
  900MOL0     H18800   7.734   2.210   7.817  0.0921 -0.5030 -0.2553
  901MOL0     O18801   8.715   4.530   7.281 -0.4477 -0.1340  0.2086
  901MOL0     C18802   8.755   4.556   7.168 -0.8352 -0.3886 -1.0160
  901MOL0     O18803   8.731   4.473   7.058 -0.0613 -0.2711  0.2920
  901MOL0     C18804   8.620   4.398   7.060 -0.2057 -0.2931  0.6910
  901MOL0     C18805   8.497   4.426   7.120 -0.5637 -0.4400  0.0008
  901MOL0     C18806   8.384   4.338   7.104 -0.2578 -0.8086 -0.6347
  901MOL0     C18807   8.404   4.205   7.063  0.0883 -0.6850  0.0941
  901MOL0     O18808   8.322   4.093   7.048 -0.0610 -0.4844 -0.4696
  901MOL0     C18809   8.187   4.105   7.099 -0.2779  0.3297  0.4951
  901MOL0     C18810   8.092   3.992   7.054 -0.2314  0.0667 -0.3027
  901MOL0     C18811   8.146   3.852   7.078 -0.1906 -0.6901  0.4982
  901MOL0     C18812   8.038   3.755   7.031  0.0105 -0.6278  0.1472
  901MOL0     C18813   8.096   3.614   7.069  0.8410  0.0499  0.3878
  901MOL0     C18814   7.996   3.501   7.039  0.2196 -0.4490 -0.0281
  901MOL0     C18815   8.067   3.370   7.026 -0.2688 -0.5208 -0.0370
  901MOL0     C18816   7.979   3.237   7.036  0.0397 -0.0716 -0.3830
  901MOL0     N18817   7.970   3.196   7.177 -0.2928  0.2219 -0.0741
  901MOL0     C18818   7.966   3.270   7.294  1.0722  0.0665 -0.4995
  901MOL0     C18819   7.949   3.170   7.385  0.4642  0.5960 -0.3134
  901MOL0     C18820   7.940   3.192   7.526  0.2420  0.9043 -0.1580
  901MOL0     C18821   7.904   3.066   7.618 -0.0914 -0.4659  0.4288
  901MOL0     C18822   7.756   3.036   7.596 -0.9643 -0.0989  0.3588
  901MOL0     C18823   7.698   2.944   7.707  0.2442  0.3760 -0.2934
  901MOL0     O18824   7.578   2.874   7.665 -0.6864 -0.5596  0.1319
  901MOL0     C18825   7.460   2.939   7.677  0.2360 -0.0351  0.6280
  901MOL0     C18826   7.435   3.061   7.749  0.1077 -0.0546 -0.2356
  901MOL0     C18827   7.303   3.114   7.752 -0.9456 -0.3560 -0.1101
  901MOL0     C18828   7.200   3.051   7.690  0.2068  0.0485 -0.2356
  901MOL0     C18829   7.065   3.102   7.700 -0.5543  0.1816 -0.8150
  901MOL0     O18830   6.975   3.054   7.614 -0.2202  0.3090 -0.2702
  901MOL0     C18831   6.880   3.141   7.573 -0.1021  0.7222  0.4059
  901MOL0     C18832   6.742   3.092   7.570  0.7206  0.5699 -0.4842
  901MOL0     C18833   6.629   3.180   7.559 -1.0256  0.7508  0.8219
  901MOL0     C18834   6.656   3.323   7.544  0.5422 -0.4361  0.1292
  901MOL0     O18835   6.541   3.408   7.527  0.1050  0.6276  0.1601
  901MOL0     C18836   6.567   3.544   7.525 -0.4505  0.4442  0.1937
  901MOL0     C18837   6.444   3.629   7.550  0.3858 -0.5857  0.8554
  901MOL0     C18838   6.340   3.605   7.439  0.8650 -0.2047  0.6460
  901MOL0     C18839   6.212   3.679   7.461 -0.5216  0.3143  0.4586
  901MOL0     C18840   6.125   3.659   7.333  0.3298 -0.0534  0.1661
  901MOL0     C18841   5.989   3.718   7.336  0.1044 -0.3313 -0.5482
  901MOL0     C18842   5.990   3.850   7.411  0.0441  0.7999  0.6855
  901MOL0     C18843   5.846   3.920   7.409 -0.2755 -0.6244 -1.1641
  901MOL0    Cl18844   5.708   3.830   7.488 -0.2293  0.1556  0.5820
  901MOL0     C18845   6.787   3.360   7.521 -0.2957 -0.5478 -1.2376
  901MOL0     C18846   6.895   3.273   7.538 -0.9620 -0.3913  0.1907
  901MOL0     O18847   7.041   3.185   7.792  1.1164 -0.5536 -0.5514
  901MOL0     C18848   7.224   2.935   7.620 -0.4701  0.8333 -0.4638
  901MOL0     C18849   7.354   2.876   7.613  0.0765  1.0548 -0.4701
  901MOL0     N18850   7.966   3.048   7.325 -0.4115  0.3790 -0.7564
  901MOL0     N18851   7.980   3.065   7.204  0.4885  0.3241  0.2499
  901MOL0     C18852   8.533   4.174   7.023 -0.7690 -0.3409  0.3669
  901MOL0     C18853   8.635   4.265   7.002 -0.3375 -0.4328 -1.3010
  901MOL0     C18854   8.817   4.690   7.144 -0.4093  0.4342  0.7077
  901MOL0     C18855   8.891   4.720   7.028  0.7217  0.4231  0.1926
  901MOL0     C18856   8.976   4.825   7.019  0.1819 -0.6835  0.1690
  901MOL0     C18857   8.993   4.918   7.125 -0.8737  0.2692 -0.3791
  901MOL0     O18858   9.077   5.026   7.113 -0.5766 -0.0406 -0.2732
  901MOL0     C18859   9.208   5.015   7.178  0.0440 -0.1745  0.8276
  901MOL0     C18860   9.244   5.104   7.295 -0.0424  0.3407  0.9540
  901MOL0     C18861   9.389   5.060   7.322 -0.0724 -0.2942 -0.4920
  901MOL0     C18862   9.464   5.165   7.403  0.4305 -0.3913 -0.3188
  901MOL0     C18863   9.600   5.132   7.439 -0.0793 -0.2168  0.0997
  901MOL0     C18864   9.712   5.098   7.457  0.4630  0.0692 -0.3422
  901MOL0     C18865   8.920   4.893   7.241 -0.8996  1.0964 -1.4224
  901MOL0     C18866   8.833   4.779   7.252  0.1991 -1.0049  0.5254
  901MOL0     H18867   8.486   4.526   7.161 -0.9519 -0.2639 -0.5250
  901MOL0     H18868   8.285   4.375   7.129  0.6343  0.8304  0.7456
  901MOL0     H18869   8.145   4.204   7.080 -1.9442 -0.0735  1.8672
  901MOL0     H18870   8.183   4.085   7.206 -1.5118 -1.1936  0.2036
  901MOL0     H18871   8.073   4.009   6.948 -0.2239  0.6455 -0.2134
  901MOL0     H18872   8.004   4.006   7.117  0.3591  2.7155  0.0556
  901MOL0     H18873   8.164   3.843   7.185  0.4893 -0.1236  0.4411
  901MOL0     H18874   8.241   3.842   7.026 -1.3931  0.7531 -2.2141
  901MOL0     H18875   7.946   3.764   7.089 -1.2098 -3.7494 -1.0886
  901MOL0     H18876   8.016   3.754   6.924  0.7436 -4.0335 -0.1039
  901MOL0     H18877   8.128   3.607   7.174 -2.4914  3.5796  1.8969
  901MOL0     H18878   8.185   3.597   7.008  3.6349 -1.7106  4.4680
  901MOL0     H18879   7.934   3.529   6.953 -1.0159 -1.2278  0.5886
  901MOL0     H18880   7.923   3.502   7.120  0.0451 -1.7360 -0.1555
  901MOL0     H18881   8.116   3.372   6.928 -1.5160  2.4805 -0.7477
  901MOL0     H18882   8.140   3.353   7.105  1.6906  2.7889 -0.9234
  901MOL0     H18883   8.021   3.157   6.973  1.1046 -0.4884  0.8084
  901MOL0     H18884   7.883   3.261   6.990  0.6260  3.6034  0.0024
  901MOL0     H18885   7.937   3.372   7.315 -2.4842 -0.7080 -0.9757
  901MOL0     H18886   7.859   3.265   7.540  1.3891  2.2152 -0.2061
  901MOL0     H18887   8.041   3.228   7.546  0.7022 -0.1848 -0.4818
  901MOL0     H18888   7.915   3.100   7.722  0.8637 -0.4714  0.3388
  901MOL0     H18889   7.975   2.986   7.599 -1.7365 -1.9258  0.1971
  901MOL0     H18890   7.695   3.126   7.585 -0.9866 -0.3465 -2.4867
  901MOL0     H18891   7.750   2.994   7.495 -1.0906 -1.0877  0.7616
  901MOL0     H18892   7.688   2.994   7.803 -2.4119 -1.3896  0.4665
  901MOL0     H18893   7.761   2.857   7.727 -0.0484  0.5640  1.6165
  901MOL0     H18894   7.511   3.111   7.809  0.6672  1.4463 -2.1079
  901MOL0     H18895   7.283   3.208   7.802  0.1952 -1.5598  2.8026
  901MOL0     H18896   6.721   2.989   7.594  0.9408  0.7415  0.4951
  901MOL0     H18897   6.527   3.146   7.567 -2.1066  3.0175 -1.9649
  901MOL0     H18898   6.611   3.575   7.429  0.4533  1.7043  0.9882
  901MOL0     H18899   6.649   3.557   7.597  0.4269 -0.6058 -0.5715
  901MOL0     H18900   6.481   3.731   7.565  4.7761 -1.9195  0.6267
  901MOL0     H18901   6.396   3.599   7.643  1.4559  1.8546  2.2836
  901MOL0     H18902   6.319   3.501   7.412 -0.5003 -0.0932  1.1757
  901MOL0     H18903   6.380   3.650   7.348 -3.6444  3.4182  0.0810
  901MOL0     H18904   6.159   3.651   7.553 -0.2084  1.1851  0.9141
  901MOL0     H18905   6.229   3.786   7.448  0.4978 -0.0791 -1.7779
  901MOL0     H18906   6.123   3.551   7.314 -1.4319 -0.2198  1.1048
  901MOL0     H18907   6.189   3.712   7.262  4.5297 -4.6385 -0.0164
  901MOL0     H18908   5.917   3.647   7.378 -0.8457  0.1927 -1.2316
  901MOL0     H18909   5.955   3.738   7.234 -0.4163  0.7813 -0.1737
  901MOL0     H18910   6.008   3.829   7.517 -2.9126 -1.6413  0.8402
  901MOL0     H18911   6.065   3.915   7.365 -2.7563  1.8399 -2.7935
  901MOL0     H18912   5.811   3.926   7.305 -0.2493 -0.1680 -1.1477
  901MOL0     H18913   5.852   4.019   7.455  0.3298 -2.6613  3.8210
  901MOL0     H18914   6.795   3.466   7.499 -5.3322  1.0004  2.5174
  901MOL0     H18915   6.995   3.314   7.532 -0.3631 -1.8608 -0.3512
  901MOL0     H18916   7.144   2.876   7.579 -1.1894  0.8718  0.8246
  901MOL0     H18917   7.366   2.787   7.552  1.2102  2.0488 -1.7792
  901MOL0     H18918   8.562   4.076   6.985  2.8304  0.3629  0.9294
  901MOL0     H18919   8.728   4.249   6.948  2.2054  2.8016  1.6289
  901MOL0     H18920   8.891   4.646   6.948  0.0416 -1.0928  1.5396
  901MOL0     H18921   9.031   4.846   6.928  2.1241 -2.1518  0.9294
  901MOL0     H18922   9.279   5.023   7.095 -0.7283 -3.1953 -0.2862
  901MOL0     H18923   9.227   4.911   7.207  1.3586 -0.1802  0.0275
  901MOL0     H18924   9.220   5.205   7.263 -1.5157 -0.6186 -1.2364
  901MOL0     H18925   9.180   5.084   7.382  0.2364  1.8899  1.5337
  901MOL0     H18926   9.446   5.050   7.230  0.8513 -0.8333  0.1281
  901MOL0     H18927   9.396   4.960   7.367  3.2048 -0.0251 -0.1805
  901MOL0     H18928   9.451   5.258   7.347 -1.7990 -0.0775  0.6230
  901MOL0     H18929   9.406   5.181   7.495  1.1169 -0.6014  0.1624
  901MOL0     H18930   9.815   5.081   7.484 -0.6879 -3.1817  2.9101
  901MOL0     H18931   8.931   4.959   7.327 -0.9308 -0.7062  0.0059
  901MOL0     H18932   8.772   4.771   7.341  1.3532 -1.3952  1.3036
  902MOL0     O18933   7.099   7.012   7.902  0.2982 -0.6086  0.2288
  902MOL0     C18934   7.142   7.117   7.853 -0.2865 -0.6114 -0.5059
  902MOL0     O18935   7.067   7.213   7.787 -0.6739  0.3761  0.4062
  902MOL0     C18936   6.932   7.182   7.790  0.4537 -0.3647  0.4614
  902MOL0     C18937   6.854   7.190   7.902 -0.4764 -0.5911 -0.7416
  902MOL0     C18938   6.713   7.181   7.900 -0.2703  0.3275  0.0071
  902MOL0     C18939   6.642   7.140   7.781 -0.2191 -0.0438  0.1136
  902MOL0     O18940   6.508   7.116   7.773  0.3201  0.3215  0.5476
  902MOL0     C18941   6.422   7.154   7.879  0.0247 -0.0110  0.0700
  902MOL0     C18942   6.278   7.139   7.811  0.5110 -0.3127  0.6274
  902MOL0     C18943   6.169   7.145   7.911  0.5102  0.1619 -0.4715
  902MOL0     C18944   6.032   7.184   7.851  0.4473 -0.8467  0.2845
  902MOL0     C18945   5.984   7.095   7.729 -0.9806 -0.8145 -0.5081
  902MOL0     C18946   5.848   7.127   7.686 -0.3903 -0.1479 -0.0113
  902MOL0     C18947   5.753   7.048   7.781  1.1672 -0.0365  0.5557
  902MOL0     C18948   5.607   7.076   7.737 -0.1434 -0.9220 -0.3073
  902MOL0     N18949   5.530   6.951   7.744  0.4269  1.0594 -0.0416
  902MOL0     C18950   5.455   6.898   7.846 -0.9885  0.3139  0.5025
  902MOL0     C18951   5.388   6.795   7.794 -0.1232  0.5846  0.2144
  902MOL0     C18952   5.278   6.716   7.866 -0.1306 -0.5569  0.2698
  902MOL0     C18953   5.143   6.794   7.876  0.2845 -0.1267  0.3412
  902MOL0     C18954   5.055   6.706   7.969 -0.0750 -0.5990  0.0199
  902MOL0     C18955   4.906   6.744   8.003  0.0668 -0.5471 -0.0945
  902MOL0     O18956   4.892   6.874   8.065 -0.4693  0.0216  0.2970
  902MOL0     C18957   4.776   6.936   8.072  0.1074  0.4334 -0.4609
  902MOL0     C18958   4.778   7.071   8.067 -0.3437 -0.5928  0.6230
  902MOL0     C18959   4.667   7.143   8.093  0.4326  0.4689  0.2976
  902MOL0     C18960   4.538   7.081   8.121 -1.3424 -0.1307  0.1908
  902MOL0     C18961   4.417   7.164   8.128  0.5809  0.2060 -0.0430
  902MOL0     O18962   4.305   7.109   8.190 -0.0432 -0.2695  0.1928
  902MOL0     C18963   4.197   7.186   8.227 -0.6165 -0.2738 -0.5146
  902MOL0     C18964   4.212   7.327   8.261  0.8373 -0.4421 -0.0580
  902MOL0     C18965   4.107   7.415   8.296 -0.3730 -0.3053 -0.2240
  902MOL0     C18966   3.977   7.362   8.288 -0.3336  0.0813 -0.3805
  902MOL0     O18967   3.862   7.419   8.338  0.0281  0.2395 -0.0290
  902MOL0     C18968   3.868   7.566   8.347 -0.0759 -0.2002  0.4295
  902MOL0     C18969   3.734   7.630   8.387  0.0821 -0.3958  0.1869
  902MOL0     C18970   3.610   7.543   8.367 -0.0201 -0.3119 -0.6549
  902MOL0     C18971   3.489   7.628   8.383  0.7732 -0.2734 -0.2494
  902MOL0     C18972   3.366   7.533   8.371  0.1369  0.3703 -0.3847
  902MOL0     C18973   3.231   7.618   8.381  0.6135  0.3151 -0.1126
  902MOL0     C18974   3.121   7.525   8.417  0.4955  0.1655  0.3060
  902MOL0     C18975   2.990   7.597   8.411  0.2289  1.0764  0.6188
  902MOL0    Cl18976   3.002   7.760   8.488  0.1372 -0.0577  0.0388
  902MOL0     C18977   3.961   7.228   8.254  0.5245 -0.5570  0.1273
  902MOL0     C18978   4.065   7.145   8.216  0.6666  0.9261 -0.0532
  902MOL0     O18979   4.423   7.281   8.084  0.5649  0.6675  0.2563
  902MOL0     C18980   4.536   6.943   8.134 -0.3064 -0.1158  0.1534
  902MOL0     C18981   4.653   6.875   8.113 -0.6503  0.4885  0.7905
  902MOL0     N18982   5.421   6.778   7.656 -0.5745  0.4077  0.7160
  902MOL0     N18983   5.520   6.859   7.641  0.0719  0.2253 -0.8041
  902MOL0     C18984   6.718   7.127   7.668 -0.2953  0.5272  0.2113
  902MOL0     C18985   6.864   7.150   7.670 -0.1447 -0.3132 -0.6139
  902MOL0     C18986   7.280   7.148   7.872  0.6618  0.6247  0.4612
  902MOL0     C18987   7.331   7.277   7.861 -0.1286  0.3225  0.0784
  902MOL0     C18988   7.468   7.302   7.887 -0.3287 -0.5300 -0.9608
  902MOL0     C18989   7.559   7.194   7.910  0.4295 -0.3029  0.2820
  902MOL0     O18990   7.699   7.209   7.910 -0.6117  0.7105  0.1557
  902MOL0     C18991   7.765   7.161   7.788  0.2145 -0.2158 -0.1371
  902MOL0     C18992   7.917   7.145   7.810  0.2369 -0.4037  0.1406
  902MOL0     C18993   7.984   7.286   7.791 -0.5277  0.2977  0.0333
  902MOL0     C18994   8.013   7.323   7.639  0.5740 -0.4943 -0.8709
  902MOL0     C18995   8.064   7.458   7.609 -1.4552 -0.6181 -0.1225
  902MOL0     C18996   8.111   7.575   7.616 -1.2335  0.3142 -0.0510
  902MOL0     C18997   7.504   7.065   7.921  0.6678  0.1944 -0.3528
  902MOL0     C18998   7.367   7.047   7.910 -0.4451  0.5262  0.4957
  902MOL0     H18999   6.906   7.204   7.997 -1.4331  0.6520 -0.3782
  902MOL0     H19000   6.659   7.194   7.994 -1.2534  1.4008 -0.6784
  902MOL0     H19001   6.450   7.256   7.908 -2.3778  1.0551 -1.1001
  902MOL0     H19002   6.425   7.090   7.967 -2.2118  1.8243  1.6111
  902MOL0     H19003   6.274   7.043   7.759  0.2203 -0.7207  1.3889
  902MOL0     H19004   6.271   7.215   7.732 -0.6211 -1.4796 -0.4493
  902MOL0     H19005   6.196   7.220   7.986  0.0013  1.2177 -1.3204
  902MOL0     H19006   6.160   7.048   7.961 -3.8379  1.0212  0.7722
  902MOL0     H19007   5.957   7.192   7.930 -0.6360  1.0547 -0.8703
  902MOL0     H19008   6.059   7.281   7.807  2.4947  0.3854  3.8578
  902MOL0     H19009   6.012   6.993   7.758  1.0534 -0.2928 -0.4900
  902MOL0     H19010   6.042   7.123   7.641 -2.9460  2.7973 -0.8664
  902MOL0     H19011   5.829   7.101   7.582 -3.6837 -1.8835  0.8742
  902MOL0     H19012   5.820   7.232   7.704 -3.8409 -0.8451 -0.5082
  902MOL0     H19013   5.777   6.942   7.770  1.8435  0.2947 -1.7077
  902MOL0     H19014   5.767   7.073   7.887 -3.3269 -0.0343  1.3228
  902MOL0     H19015   5.614   7.097   7.630  0.6919 -0.2265 -0.1232
  902MOL0     H19016   5.563   7.160   7.791 -0.8559 -0.0030 -2.2376
  902MOL0     H19017   5.454   6.937   7.947  0.0891  2.3575 -0.2075
  902MOL0     H19018   5.312   6.687   7.966 -1.4008 -2.5593  0.1816
  902MOL0     H19019   5.263   6.626   7.805 -1.0597 -1.2213  1.4256
  902MOL0     H19020   5.100   6.797   7.775  2.1938 -0.8363 -0.5516
  902MOL0     H19021   5.153   6.897   7.912 -3.6469  0.7802 -0.6474
  902MOL0     H19022   5.060   6.604   7.929 -2.2606 -1.2537  1.2476
  902MOL0     H19023   5.103   6.700   8.067 -0.0684  0.8135  0.1207
  902MOL0     H19024   4.865   6.663   8.063 -1.2205 -0.7741 -1.2211
  902MOL0     H19025   4.850   6.737   7.910 -0.8949 -3.6556  0.6049
  902MOL0     H19026   4.869   7.125   8.043 -0.7271 -1.8872 -4.8894
  902MOL0     H19027   4.670   7.252   8.086 -0.4718  0.4301 -4.9226
  902MOL0     H19028   4.299   7.392   8.264 -1.0870  2.4401 -1.8391
  902MOL0     H19029   4.128   7.521   8.307 -0.3739 -0.4291  1.1304
  902MOL0     H19030   3.916   7.609   8.259  2.2570 -2.4615  0.4857
  902MOL0     H19031   3.936   7.584   8.430  0.2404 -4.7077  1.4321
  902MOL0     H19032   3.716   7.719   8.326 -3.0071 -0.8808  0.2138
  902MOL0     H19033   3.726   7.662   8.491  0.9304 -0.4613  0.2792
  902MOL0     H19034   3.602   7.451   8.425  0.1687 -1.9637 -3.1119
  902MOL0     H19035   3.612   7.501   8.266 -0.7442 -1.1190 -0.3416
  902MOL0     H19036   3.490   7.673   8.483  0.8170  1.8490 -1.1500
  902MOL0     H19037   3.479   7.703   8.304 -0.8138 -0.2521 -0.0678
  902MOL0     H19038   3.380   7.458   8.449 -1.2787  0.7808  0.2880
  902MOL0     H19039   3.375   7.482   8.275 -2.8835 -2.7008  0.7534
  902MOL0     H19040   3.203   7.662   8.285  1.3078  0.9232 -0.0495
  902MOL0     H19041   3.253   7.687   8.463  2.3791  1.3585 -1.3807
  902MOL0     H19042   3.123   7.437   8.352  1.6690 -1.7312  2.7676
  902MOL0     H19043   3.128   7.487   8.519  1.2245 -0.7648 -0.0869
  902MOL0     H19044   2.911   7.536   8.457  1.8414 -0.7313  1.1322
  902MOL0     H19045   2.942   7.606   8.313 -0.6143 -0.4439  0.8523
  902MOL0     H19046   3.861   7.187   8.257 -0.8026  2.3851 -0.7193
  902MOL0     H19047   4.047   7.038   8.205 -3.1914  1.3047  1.1593
  902MOL0     H19048   4.446   6.886   8.154 -0.1234 -0.2705  0.5387
  902MOL0     H19049   4.659   6.770   8.138  0.1584  0.1234 -0.8549
  902MOL0     H19050   6.671   7.113   7.571 -1.7244 -3.2903  1.2454
  902MOL0     H19051   6.906   7.139   7.570  0.9390 -2.5797  0.0232
  902MOL0     H19052   7.273   7.357   7.816  2.1532 -0.0697 -4.2122
  902MOL0     H19053   7.510   7.400   7.867  1.0186 -0.7466  0.5994
  902MOL0     H19054   7.739   7.217   7.697  1.0757 -4.7042 -3.4586
  902MOL0     H19055   7.734   7.059   7.765 -2.0060  0.5562 -0.7877
  902MOL0     H19056   7.931   7.107   7.912 -0.6086 -0.2314  0.3287
  902MOL0     H19057   7.959   7.071   7.742 -1.4469 -3.0335  1.7689
  902MOL0     H19058   8.080   7.290   7.844 -0.3417  1.3490 -0.3434
  902MOL0     H19059   7.920   7.357   7.844 -2.5018 -0.6499 -0.9882
  902MOL0     H19060   8.089   7.249   7.612  3.1757  1.1104  1.5239
  902MOL0     H19061   7.925   7.310   7.576  0.8928 -3.0701 -0.9119
  902MOL0     H19062   8.162   7.669   7.624  0.7801 -0.7243 -0.0592
  902MOL0     H19063   7.572   6.983   7.943 -0.4102  0.1110  3.2391
  902MOL0     H19064   7.331   6.946   7.927  1.3712  0.2072  3.0661
  903MOL0     O19065   7.387   1.063   0.341  0.2597  0.2925  0.3501
  903MOL0     C19066   7.417   1.086   0.456  0.4996 -0.6763 -0.1373
  903MOL0     O19067   7.321   1.100   0.555 -0.8158 -0.5098  0.1082
  903MOL0     C19068   7.189   1.066   0.547 -0.3231 -0.1105 -0.4195
  903MOL0     C19069   7.120   0.977   0.459  0.3491  1.4544 -0.4095
  903MOL0     C19070   6.981   0.944   0.483  0.8230  0.9340 -0.4590
  903MOL0     C19071   6.916   1.001   0.592 -0.1023 -0.1055 -0.7329
  903MOL0     O19072   6.789   0.976   0.625  0.1719  0.2393  0.5300
  903MOL0     C19073   6.783   0.836   0.660 -0.1475 -0.0368 -0.1761
  903MOL0     C19074   6.645   0.796   0.721 -0.4902 -0.6862 -0.1324
  903MOL0     C19075   6.534   0.819   0.615  0.0335  0.1909 -0.4627
  903MOL0     C19076   6.541   0.718   0.501  0.7742 -0.1104 -0.2618
  903MOL0     C19077   6.404   0.675   0.441  0.2509 -0.5178  0.0597
  903MOL0     C19078   6.346   0.784   0.353 -0.8055  0.0288 -0.6454
  903MOL0     C19079   6.237   0.731   0.260 -0.4336 -0.2776  0.3457
  903MOL0     C19080   6.170   0.844   0.180  0.5703  0.2954  0.2198
  903MOL0     N19081   6.151   0.825   0.036  0.4402  0.0444  0.5792
  903MOL0     C19082   6.093   0.703  -0.020 -0.2528 -0.3158 -0.2778
  903MOL0     C19083   6.079   0.732  -0.146  0.0596 -0.7130 -0.1936
  903MOL0     C19084   6.018   0.650  -0.245 -0.6398 -0.2606  0.5435
  903MOL0     C19085   5.868   0.662  -0.271 -0.0651 -0.6191 -0.3436
  903MOL0     C19086   5.778   0.634  -0.149 -0.0483  0.7564 -0.1268
  903MOL0     C19087   5.638   0.603  -0.200 -0.7776  0.0971 -0.3461
  903MOL0     O19088   5.596   0.719  -0.275  0.0439 -0.8047 -0.2667
  903MOL0     C19089   5.477   0.691  -0.333 -0.4654  0.2152 -0.0867
  903MOL0     C19090   5.459   0.677  -0.475 -0.2066  0.7378 -1.3775
  903MOL0     C19091   5.325   0.667  -0.521 -0.3633  0.0943  0.2989
  903MOL0     C19092   5.214   0.653  -0.442  0.7032  0.5233 -0.5488
  903MOL0     C19093   5.082   0.623  -0.494  0.2487 -0.8651  0.9093
  903MOL0     O19094   5.086   0.589  -0.629 -0.0541  0.4030  0.8313
  903MOL0     C19095   4.983   0.513  -0.682  0.1053 -0.7012  0.2833
  903MOL0     C19096   4.847   0.553  -0.673 -0.2161 -0.3317  0.8225
  903MOL0     C19097   4.737   0.465  -0.723  0.5561 -0.9090 -0.1203
  903MOL0     C19098   4.764   0.337  -0.787  0.3126 -0.2985  0.0974
  903MOL0     O19099   4.679   0.253  -0.852 -0.2299 -0.8185 -0.1950
  903MOL0     C19100   4.551   0.293  -0.889  0.3851  0.2705  0.1982
  903MOL0     C19101   4.550   0.370  -1.033  0.5501  0.8849 -0.4929
  903MOL0     C19102   4.423   0.451  -1.065 -0.5172 -0.6717 -0.4800
  903MOL0     C19103   4.299   0.367  -1.075  0.1060 -0.0952  0.5579
  903MOL0     C19104   4.174   0.443  -1.037 -0.0813  0.1754  0.3689
  903MOL0     C19105   4.158   0.508  -0.896  0.6394  0.1870 -1.0578
  903MOL0     C19106   4.114   0.419  -0.771 -0.4723  0.0081  0.6657
  903MOL0     C19107   3.978   0.465  -0.718  0.3255 -0.2749  0.2659
  903MOL0    Cl19108   3.915   0.395  -0.561 -0.2448 -0.1471 -0.2543
  903MOL0     C19109   4.901   0.297  -0.781  0.3140  0.1512  0.0732
  903MOL0     C19110   4.999   0.381  -0.731  0.0937 -0.5643 -0.3424
  903MOL0     O19111   4.985   0.618  -0.423  0.1145  0.4107  0.1438
  903MOL0     C19112   5.239   0.665  -0.304 -0.4000 -0.4827  0.2810
  903MOL0     C19113   5.370   0.693  -0.249  0.3313 -0.3619 -0.0928
  903MOL0     N19114   6.115   0.863  -0.169  0.8578 -0.2407  1.0234
  903MOL0     N19115   6.161   0.909  -0.068  0.0736  0.1790 -1.0483
  903MOL0     C19116   6.982   1.086   0.673  0.1847 -0.2655 -0.2059
  903MOL0     C19117   7.113   1.123   0.654 -0.0387 -0.0754 -0.8076
  903MOL0     C19118   7.554   1.123   0.482  0.5038 -0.7454  0.5182
  903MOL0     C19119   7.654   1.085   0.394 -0.5295  0.5568  0.2881
  903MOL0     C19120   7.788   1.129   0.417 -0.2437  0.1319  0.1975
  903MOL0     C19121   7.821   1.201   0.530  0.7392 -0.3392 -0.0575
  903MOL0     O19122   7.944   1.258   0.559 -0.1571 -0.1436 -0.7679
  903MOL0     C19123   8.030   1.283   0.448 -0.0788 -0.3774  0.4232
  903MOL0     C19124   8.145   1.367   0.497  0.9545  0.7842 -0.6338
  903MOL0     C19125   8.251   1.280   0.575  0.2630  0.5078  0.3153
  903MOL0     C19126   8.382   1.360   0.624  0.0398  0.8213 -0.3601
  903MOL0     C19127   8.450   1.407   0.511  0.1168 -1.2634  0.2693
  903MOL0     C19128   8.504   1.423   0.405  0.5342  0.1169 -0.0221
  903MOL0     C19129   7.720   1.242   0.607 -0.2116 -0.1537 -0.5550
  903MOL0     C19130   7.591   1.200   0.590 -0.1121  0.4025  0.0010
  903MOL0     H19131   7.175   0.935   0.375 -1.9716  1.1030 -1.8322
  903MOL0     H19132   6.919   0.886   0.415  0.7212 -1.5890  1.6139
  903MOL0     H19133   6.856   0.812   0.738  1.1157 -1.7481 -1.7887
  903MOL0     H19134   6.797   0.768   0.575 -3.7828 -1.4495  0.1802
  903MOL0     H19135   6.620   0.852   0.812  2.7268 -1.9552  1.7264
  903MOL0     H19136   6.646   0.694   0.762  3.1484 -0.0567  1.7297
  903MOL0     H19137   6.533   0.924   0.584 -3.8357 -0.2622 -2.5669
  903MOL0     H19138   6.439   0.811   0.670  0.1017  2.8623  0.1579
  903MOL0     H19139   6.607   0.757   0.422 -0.2562  1.4662 -0.3957
  903MOL0     H19140   6.583   0.623   0.535  0.5372 -0.8775 -1.9738
  903MOL0     H19141   6.337   0.672   0.528  1.2687 -1.2212  0.8425
  903MOL0     H19142   6.408   0.584   0.381  2.3397  1.6018 -3.3423
  903MOL0     H19143   6.422   0.845   0.301 -0.4897  1.1575  1.0683
  903MOL0     H19144   6.299   0.857   0.420  0.6885  0.3705  0.0883
  903MOL0     H19145   6.274   0.656   0.189 -0.9448  1.1386 -1.5140
  903MOL0     H19146   6.155   0.686   0.318 -1.9015  2.7322  0.8123
  903MOL0     H19147   6.222   0.938   0.202  0.1675  0.5944 -0.0889
  903MOL0     H19148   6.067   0.854   0.214  0.2639  1.1179 -0.8939
  903MOL0     H19149   6.062   0.611   0.027  0.6375 -0.0752  0.8335
  903MOL0     H19150   6.040   0.543  -0.233 -0.0020 -0.8517 -3.8943
  903MOL0     H19151   6.067   0.673  -0.341 -2.9595  0.0524 -0.6265
  903MOL0     H19152   5.849   0.594  -0.355 -1.1766 -0.7289 -0.0265
  903MOL0     H19153   5.851   0.765  -0.303 -0.2488 -0.3909  0.4840
  903MOL0     H19154   5.809   0.547  -0.091 -0.9249  1.7035  1.8288
  903MOL0     H19155   5.779   0.715  -0.075  2.6156 -1.5106  2.5734
  903MOL0     H19156   5.582   0.597  -0.106  3.0540  1.6209  2.2953
  903MOL0     H19157   5.630   0.506  -0.250 -0.3276  1.3839 -3.1032
  903MOL0     H19158   5.541   0.684  -0.545 -0.4126  0.3794 -1.6575
  903MOL0     H19159   5.330   0.655  -0.629  0.8133  0.7988  0.2492
  903MOL0     H19160   4.815   0.650  -0.636 -2.9152 -0.6320 -0.4837
  903MOL0     H19161   4.633   0.493  -0.715  0.2286 -2.2863  0.8800
  903MOL0     H19162   4.501   0.337  -0.802  1.0140 -2.4740  2.0849
  903MOL0     H19163   4.506   0.194  -0.902  0.8964 -0.0165  0.5527
  903MOL0     H19164   4.571   0.310  -1.122 -0.3881  0.9779 -0.7802
  903MOL0     H19165   4.639   0.433  -1.046  0.7263  0.3638 -1.9935
  903MOL0     H19166   4.439   0.519  -1.149 -2.8132  0.0827 -0.3650
  903MOL0     H19167   4.409   0.519  -0.980  1.9634  0.8737 -1.1925
  903MOL0     H19168   4.284   0.338  -1.179  0.8107 -0.8766  0.6606
  903MOL0     H19169   4.303   0.276  -1.014 -0.9319 -1.3173 -1.1102
  903MOL0     H19170   4.084   0.389  -1.067  0.4584 -0.3839 -0.2974
  903MOL0     H19171   4.175   0.534  -1.099  0.1417  2.5737  3.6338
  903MOL0     H19172   4.084   0.588  -0.901  0.7589  0.2240 -3.9308
  903MOL0     H19173   4.254   0.548  -0.864  1.0795 -1.4448 -0.2447
  903MOL0     H19174   4.109   0.314  -0.802  1.6613  0.0997 -0.1435
  903MOL0     H19175   4.183   0.416  -0.686  1.2321  4.1620 -0.3649
  903MOL0     H19176   3.900   0.460  -0.794 -1.4221  2.3003  1.7328
  903MOL0     H19177   3.984   0.574  -0.705 -0.2816 -0.0473 -1.1779
  903MOL0     H19178   4.923   0.196  -0.813  1.2418 -0.2137  1.7652
  903MOL0     H19179   5.099   0.341  -0.720  1.7586  3.3047  0.2206
  903MOL0     H19180   5.149   0.647  -0.245 -1.4471 -3.2782 -1.9450
  903MOL0     H19181   5.389   0.694  -0.142  1.5327 -0.6010 -0.2833
  903MOL0     H19182   6.941   1.133   0.762 -0.4669  0.2864 -0.7889
  903MOL0     H19183   7.163   1.187   0.726  1.7146 -0.7179 -1.4012
  903MOL0     H19184   7.636   1.030   0.303 -0.3656  2.4259 -0.9319
  903MOL0     H19185   7.859   1.080   0.351 -2.9945 -2.5536 -1.0050
  903MOL0     H19186   7.978   1.347   0.376 -1.7485 -0.2847  1.6487
  903MOL0     H19187   8.064   1.197   0.390  2.0555  1.7348 -1.6306
  903MOL0     H19188   8.191   1.420   0.413 -0.2635  1.7445 -0.7123
  903MOL0     H19189   8.111   1.447   0.563 -0.6512 -0.4518  0.1102
  903MOL0     H19190   8.281   1.198   0.510 -2.7784  1.1438 -2.1176
  903MOL0     H19191   8.203   1.228   0.659 -0.6735 -1.6083 -1.4516
  903MOL0     H19192   8.348   1.434   0.698 -1.7523  0.8903 -1.1994
  903MOL0     H19193   8.443   1.287   0.678 -1.8885 -1.5598 -1.2459
  903MOL0     H19194   8.543   1.436   0.306  2.3342  2.3389  0.9067
  903MOL0     H19195   7.752   1.298   0.694 -1.5516 -0.5198  0.2013
  903MOL0     H19196   7.518   1.217   0.669  0.6881  1.0018  0.6237
  904MOL0     O19197   6.190   2.597   4.308 -0.1955  0.5763 -0.8164
  904MOL0     C19198   6.258   2.699   4.337 -0.8065 -0.2475  0.1756
  904MOL0     O19199   6.220   2.822   4.334  0.3093 -0.6669  0.2800
  904MOL0     C19200   6.097   2.852   4.288  1.1478  0.2124  0.8960
  904MOL0     C19201   6.036   2.956   4.364  0.9047 -0.4857 -0.3111
  904MOL0     C19202   5.914   3.012   4.321  0.7845 -0.2831  0.3204
  904MOL0     C19203   5.854   2.971   4.196 -0.3888 -0.1750 -0.0285
  904MOL0     O19204   5.750   3.048   4.159  0.2789 -0.3953 -0.0256
  904MOL0     C19205   5.738   3.073   4.016 -0.7451  0.3060 -0.6169
  904MOL0     C19206   5.624   2.993   3.958  0.4294  0.4896 -0.4419
  904MOL0     C19207   5.493   3.068   3.969 -0.4177 -0.0250 -0.3962
  904MOL0     C19208   5.384   2.990   3.885  0.3267 -0.1349  0.1807
  904MOL0     C19209   5.274   3.073   3.828 -0.3077 -0.0759  0.6463
  904MOL0     C19210   5.188   2.986   3.722 -0.0883  0.2148 -0.6588
  904MOL0     C19211   5.098   3.074   3.622  0.3702  0.5008 -0.1018
  904MOL0     C19212   5.009   3.179   3.684  0.3700 -0.3195 -0.1069
  904MOL0     N19213   4.893   3.118   3.749  0.4966 -0.1837  0.1692
  904MOL0     C19214   4.788   3.053   3.674 -0.3655  0.5895 -0.0956
  904MOL0     C19215   4.726   2.968   3.755 -0.2392 -0.2148 -0.4029
  904MOL0     C19216   4.602   2.893   3.717 -0.9788  0.4165 -0.1517
  904MOL0     C19217   4.485   2.981   3.660  0.2175 -0.7333  1.2811
  904MOL0     C19218   4.380   2.879   3.610 -0.2232 -1.0601  0.3201
  904MOL0     C19219   4.307   2.824   3.741 -0.6079 -0.6209  0.9114
  904MOL0     O19220   4.176   2.774   3.713  0.1844  0.3531 -0.5284
  904MOL0     C19221   4.086   2.736   3.807  0.4554  0.1373  0.2994
  904MOL0     C19222   4.124   2.690   3.934  0.2381  0.4645  0.5707
  904MOL0     C19223   4.027   2.646   4.019 -0.9311 -0.0979  0.4686
  904MOL0     C19224   3.892   2.641   3.975  0.0790  0.1063 -0.0277
  904MOL0     C19225   3.780   2.585   4.068  0.0469  1.1451  0.7071
  904MOL0     O19226   3.650   2.589   4.033  0.1040  1.0757 -0.2705
  904MOL0     C19227   3.565   2.504   4.104 -0.1066  0.7149 -0.3948
  904MOL0     C19228   3.595   2.367   4.128 -0.1118 -0.6142  0.2678
  904MOL0     C19229   3.511   2.291   4.215 -0.0490 -0.5070  1.3540
  904MOL0     C19230   3.405   2.343   4.283  0.1107  0.5600  0.4880
  904MOL0     O19231   3.347   2.261   4.379 -0.3444 -0.0397 -0.2224
  904MOL0     C19232   3.245   2.319   4.457 -0.3171  0.1762  0.1451
  904MOL0     C19233   3.203   2.220   4.564  0.1338 -0.6637 -0.2063
  904MOL0     C19234   3.153   2.087   4.506  0.1764  0.6380 -0.3276
  904MOL0     C19235   3.071   2.032   4.618 -0.7345  0.4561 -0.5241
  904MOL0     C19236   2.983   1.919   4.565 -0.8859  0.4679 -0.2709
  904MOL0     C19237   3.065   1.796   4.513 -0.4279  0.6064 -0.2780
  904MOL0     C19238   2.975   1.684   4.451  0.1547 -0.2181  0.1704
  904MOL0     C19239   2.907   1.617   4.567 -0.3987 -0.0104 -0.6163
  904MOL0    Cl19240   2.783   1.509   4.504  0.0575  0.2271  0.1253
  904MOL0     C19241   3.378   2.478   4.257  0.2982 -0.5054 -1.1532
  904MOL0     C19242   3.451   2.549   4.166  0.6605  0.2786 -1.1220
  904MOL0     O19243   3.826   2.544   4.178  0.2126 -0.2415 -0.8328
  904MOL0     C19244   3.863   2.693   3.848  0.7327 -0.1909 -0.8066
  904MOL0     C19245   3.957   2.733   3.757 -0.1283 -0.6963 -0.8977
  904MOL0     N19246   4.794   2.978   3.885 -0.2800 -0.0827  0.4676
  904MOL0     N19247   4.895   3.063   3.872 -0.9035 -0.4804  0.4358
  904MOL0     C19248   5.905   2.864   4.133  0.2863  0.7434 -0.1659
  904MOL0     C19249   6.023   2.802   4.176 -0.5316 -0.3434  0.2242
  904MOL0     C19250   6.390   2.671   4.407  0.1055 -0.0769  0.4238
  904MOL0     C19251   6.462   2.770   4.478  0.0176 -0.1697 -0.2943
  904MOL0     C19252   6.583   2.743   4.539 -0.7486 -0.5324  0.7942
  904MOL0     C19253   6.651   2.624   4.506 -0.1886 -0.8099  0.4067
  904MOL0     O19254   6.783   2.587   4.543  0.5043 -0.2870 -0.5199
  904MOL0     C19255   6.876   2.684   4.583 -0.6001  0.0942  0.5426
  904MOL0     C19256   7.005   2.641   4.517 -0.8494  0.9248 -0.0042
  904MOL0     C19257   7.005   2.676   4.362 -0.6587 -0.5559 -0.2531
  904MOL0     C19258   7.134   2.612   4.300  0.8063  0.6037 -0.8520
  904MOL0     C19259   7.128   2.621   4.153 -0.2772 -0.0472  0.0292
  904MOL0     C19260   7.135   2.618   4.034  0.4113 -0.2357  0.7723
  904MOL0     C19261   6.580   2.523   4.445  0.4703  0.8236  0.4540
  904MOL0     C19262   6.452   2.549   4.394 -0.8558 -0.1312  0.0211
  904MOL0     H19263   6.083   2.987   4.456  0.9405  0.8072 -0.7416
  904MOL0     H19264   5.855   3.083   4.379  0.0383 -0.2645 -0.4454
  904MOL0     H19265   5.829   3.041   3.965  1.6841  3.2160  1.5081
  904MOL0     H19266   5.739   3.181   4.000 -1.0329  0.2744 -0.8482
  904MOL0     H19267   5.614   2.896   4.006 -2.0510 -0.5119 -2.7306
  904MOL0     H19268   5.650   2.974   3.854 -0.7066 -0.1170 -0.6293
  904MOL0     H19269   5.510   3.175   3.956  0.4854  0.1533  1.8238
  904MOL0     H19270   5.460   3.063   4.073 -1.9250 -1.3009 -0.8870
  904MOL0     H19271   5.425   2.952   3.791  1.5523  2.1554 -0.2794
  904MOL0     H19272   5.339   2.908   3.943  1.6528 -1.3120 -0.4012
  904MOL0     H19273   5.316   3.156   3.771  0.0433  0.6032  1.8526
  904MOL0     H19274   5.211   3.107   3.911 -0.4301 -1.4773  1.1503
  904MOL0     H19275   5.129   2.919   3.786 -1.5901  1.0045 -1.1670
  904MOL0     H19276   5.267   2.941   3.661  1.9625  3.8770 -0.9603
  904MOL0     H19277   5.164   3.133   3.558  0.0640  1.0804  0.1063
  904MOL0     H19278   5.047   3.000   3.560  1.0060  1.2255 -1.5478
  904MOL0     H19279   4.972   3.247   3.607 -1.6160 -0.8200  0.3409
  904MOL0     H19280   5.075   3.227   3.757  0.2629 -0.0088 -0.2111
  904MOL0     H19281   4.762   3.067   3.569  1.6524 -0.1032 -0.7264
  904MOL0     H19282   4.585   2.827   3.802  3.2290  1.4013  1.7220
  904MOL0     H19283   4.654   2.835   3.640  3.8665  0.3514  2.7226
  904MOL0     H19284   4.526   3.042   3.578 -2.6646  1.2098  1.1374
  904MOL0     H19285   4.450   3.046   3.740 -0.5553 -1.2956  1.4023
  904MOL0     H19286   4.310   2.934   3.547  0.6821  4.0936  3.2107
  904MOL0     H19287   4.424   2.799   3.549  0.9693  0.2172 -0.5685
  904MOL0     H19288   4.291   2.907   3.811 -1.8229 -0.9391  1.0314
  904MOL0     H19289   4.369   2.750   3.792  1.0451  1.0632  1.4322
  904MOL0     H19290   4.229   2.692   3.958  0.5078 -0.7702 -0.3596
  904MOL0     H19291   4.065   2.609   4.113 -0.6416 -1.7162 -0.2520
  904MOL0     H19292   3.675   2.319   4.072 -0.8625 -0.1192 -1.2885
  904MOL0     H19293   3.533   2.187   4.240  0.8269  0.0229  2.9534
  904MOL0     H19294   3.157   2.327   4.392 -0.1607 -2.1454 -0.4565
  904MOL0     H19295   3.282   2.416   4.490  2.0761 -0.9741  1.0667
  904MOL0     H19296   3.127   2.265   4.629  0.0959 -1.4102  0.2760
  904MOL0     H19297   3.291   2.199   4.627  1.6798 -3.3763 -3.0060
  904MOL0     H19298   3.236   2.026   4.470 -0.8426 -0.1455 -1.4600
  904MOL0     H19299   3.081   2.106   4.427  1.2902  0.6550 -1.3577
  904MOL0     H19300   3.139   2.005   4.699  1.4463  2.3845 -1.5840
  904MOL0     H19301   3.006   2.106   4.664 -0.6024 -0.5417  1.3424
  904MOL0     H19302   2.921   1.962   4.486 -0.1633  0.4586 -0.8506
  904MOL0     H19303   2.929   1.876   4.650  1.7259 -3.8355 -0.5022
  904MOL0     H19304   3.122   1.761   4.599  1.2802 -0.8378 -1.9047
  904MOL0     H19305   3.138   1.823   4.436  0.3210  0.6001  0.4122
  904MOL0     H19306   2.892   1.716   4.388 -0.0106  0.3168  0.6534
  904MOL0     H19307   3.032   1.608   4.396 -2.6001 -0.7971 -2.1245
  904MOL0     H19308   2.840   1.682   4.625  0.6857  0.4000  0.2135
  904MOL0     H19309   2.986   1.578   4.632 -0.3009 -0.5667 -1.0662
  904MOL0     H19310   3.296   2.529   4.306  1.4025  0.7290 -0.5601
  904MOL0     H19311   3.419   2.652   4.156 -1.4945 -0.3787 -1.5694
  904MOL0     H19312   3.756   2.701   3.828  0.5097  0.9241  0.6376
  904MOL0     H19313   3.930   2.775   3.660 -1.1794  1.3582  0.2183
  904MOL0     H19314   5.850   2.812   4.056  2.5273 -3.5599  0.8272
  904MOL0     H19315   6.075   2.720   4.127 -0.7826 -1.8199  2.3105
  904MOL0     H19316   6.404   2.859   4.503  0.4375 -0.4308  1.7904
  904MOL0     H19317   6.639   2.814   4.600  2.3479 -3.0553  1.1570
  904MOL0     H19318   6.890   2.684   4.691  0.3591  0.2929  0.4302
  904MOL0     H19319   6.851   2.786   4.552  0.7417  0.3441  0.1990
  904MOL0     H19320   7.094   2.696   4.549  1.8970 -0.8861 -3.7675
  904MOL0     H19321   7.017   2.533   4.529 -1.0013  0.8557 -0.4567
  904MOL0     H19322   7.022   2.784   4.348 -0.3708 -0.9156 -3.5553
  904MOL0     H19323   6.911   2.642   4.316 -1.8215  3.3452 -1.1938
  904MOL0     H19324   7.229   2.659   4.328  0.5875  0.2615  0.5499
  904MOL0     H19325   7.143   2.505   4.323  1.0620  0.8806  0.4151
  904MOL0     H19326   7.135   2.610   3.927 -0.0914 -0.8030  0.8054
  904MOL0     H19327   6.633   2.430   4.431 -1.5040 -0.0660 -1.9235
  904MOL0     H19328   6.401   2.468   4.342 -0.0206  0.0746 -1.1627
  905MOL0     O19329  10.810   0.128   6.698 -0.3156  0.4950 -0.7155
  905MOL0     C19330  10.848   0.040   6.771 -0.7476 -0.8497  0.4095
  905MOL0     O19331  10.770  -0.020   6.860  0.0050  0.4928  0.2841
  905MOL0     C19332  10.637  -0.001   6.883 -0.3445  0.1909  0.0691
  905MOL0     C19333  10.538   0.055   6.800  0.0469  1.8194  0.3404
  905MOL0     C19334  10.403   0.057   6.838 -0.7293 -0.2974  0.6822
  905MOL0     C19335  10.364   0.022   6.971  0.0792  0.5654 -0.2223
  905MOL0     O19336  10.234   0.067   6.994 -0.5878  0.0598 -0.0568
  905MOL0     C19337  10.175   0.032   7.118  0.5717  0.0360 -0.2691
  905MOL0     C19338  10.026   0.023   7.094 -0.1887 -0.7875  0.6766
  905MOL0     C19339   9.995  -0.120   7.044 -0.1402 -1.1580  0.3749
  905MOL0     C19340   9.842  -0.144   7.059  1.9358 -0.0978 -0.6353
  905MOL0     C19341   9.807  -0.281   6.991 -0.5290  0.1704  0.2338
  905MOL0     C19342   9.672  -0.334   7.034  0.3947 -0.2037 -1.1319
  905MOL0     C19343   9.561  -0.239   7.000 -0.8871  0.6763 -1.1676
  905MOL0     C19344   9.421  -0.306   7.027  0.2878  0.6526  0.1525
  905MOL0     N19345   9.412  -0.452   7.005  0.1455  0.2019 -0.2250
  905MOL0     C19346   9.358  -0.544   7.083  1.0058  1.0559  0.0532
  905MOL0     C19347   9.335  -0.654   7.001 -1.1202 -0.1749 -1.1496
  905MOL0     C19348   9.259  -0.771   7.051  0.5216 -0.7818  0.2934
  905MOL0     C19349   9.345  -0.871   7.131 -0.4917 -0.0082 -0.5947
  905MOL0     C19350   9.257  -0.986   7.185  0.6786 -0.0182 -0.6982
  905MOL0     C19351   9.233  -1.089   7.082 -0.2953  0.6479 -0.1051
  905MOL0     O19352   9.170  -1.206   7.137 -0.7577  0.5264 -0.1446
  905MOL0     C19353   9.035  -1.191   7.160 -0.5670 -0.5651  0.2940
  905MOL0     C19354   8.968  -1.294   7.224 -0.1555 -0.7045  0.7381
  905MOL0     C19355   8.833  -1.274   7.253  0.3276  0.2464 -0.8061
  905MOL0     C19356   8.765  -1.164   7.201 -0.0161 -0.9291 -0.0129
  905MOL0     C19357   8.611  -1.153   7.227 -0.3306  0.5285  0.3722
  905MOL0     O19358   8.565  -1.029   7.211  0.2881 -0.1711 -0.3849
  905MOL0     C19359   8.427  -1.007   7.236 -0.8881 -0.4115  0.8380
  905MOL0     C19360   8.395  -0.902   7.328  0.6606  0.5402  0.1285
  905MOL0     C19361   8.258  -0.881   7.357  0.0040 -0.6160  0.0928
  905MOL0     C19362   8.151  -0.955   7.291 -1.4280  0.3258 -0.0626
  905MOL0     O19363   8.018  -0.956   7.330 -0.7454  0.5055  0.5928
  905MOL0     C19364   7.978  -0.876   7.441  0.8198  0.5139 -0.9911
  905MOL0     C19365   7.824  -0.907   7.468 -0.2305  0.0550  0.6864
  905MOL0     C19366   7.725  -0.870   7.351 -0.6639  0.5118 -0.8828
  905MOL0     C19367   7.586  -0.920   7.379  0.3645 -0.1596  0.2850
  905MOL0     C19368   7.490  -0.890   7.260 -0.4562  0.4743 -0.3739
  905MOL0     C19369   7.461  -0.748   7.241 -0.6650  0.0034  0.0162
  905MOL0     C19370   7.345  -0.724   7.142 -1.2192  0.5800 -1.0319
  905MOL0     C19371   7.267  -0.602   7.182  0.1095 -0.5437  0.4638
  905MOL0    Cl19372   7.113  -0.580   7.083  0.6466 -0.0900  0.5443
  905MOL0     C19373   8.189  -1.053   7.200 -0.4196  0.6801  0.4632
  905MOL0     C19374   8.325  -1.073   7.172 -1.2672  0.2914  0.1066
  905MOL0     O19375   8.550  -1.248   7.263 -0.4590 -0.4620  0.1639
  905MOL0     C19376   8.835  -1.069   7.134  0.7244  1.0228 -0.3393
  905MOL0     C19377   8.960  -1.079   7.111 -0.1593 -0.3087 -0.5299
  905MOL0     N19378   9.377  -0.623   6.871 -0.5437  0.6567 -0.2191
  905MOL0     N19379   9.417  -0.506   6.885 -0.3292 -0.3219  0.2460
  905MOL0     C19380  10.459  -0.032   7.065 -0.0171 -0.9721 -0.9756
  905MOL0     C19381  10.596  -0.048   7.014  1.1521 -0.1098 -0.6943
  905MOL0     C19382  10.990   0.024   6.784  0.0033 -0.1623 -0.3375
  905MOL0     C19383  11.080   0.118   6.726  0.1424  0.5804  0.3420
  905MOL0     C19384  11.224   0.109   6.740 -0.1666 -1.0113 -0.5608
  905MOL0     C19385  11.279  -0.000   6.809 -0.0501 -0.3799 -0.5048
  905MOL0     O19386  11.411  -0.026   6.841  0.3135 -0.6405 -0.8648
  905MOL0     C19387  11.513  -0.028   6.734 -0.2514  0.3786 -0.1629
  905MOL0     C19388  11.651  -0.067   6.797  0.4292 -0.2887 -0.4054
  905MOL0     C19389  11.734   0.052   6.851 -0.6233 -0.4185  0.3353
  905MOL0     C19390  11.790   0.138   6.739 -0.2015  0.1662  0.8055
  905MOL0     C19391  11.909   0.085   6.683 -0.6983 -0.0439 -0.4830
  905MOL0     C19392  12.023   0.055   6.643  0.7852  0.4167  0.6798
  905MOL0     C19393  11.186  -0.082   6.878 -1.1249  0.4547 -1.1423
  905MOL0     C19394  11.052  -0.070   6.870  0.0235 -0.3348 -0.4466
  905MOL0     H19395  10.546   0.080   6.695 -1.4475 -1.7320 -0.7836
  905MOL0     H19396  10.326   0.109   6.782 -2.0863 -2.6791  0.2137
  905MOL0     H19397  10.185   0.120   7.183  0.7921 -0.3944  0.2968
  905MOL0     H19398  10.206  -0.062   7.165  1.0072  0.1288 -0.3610
  905MOL0     H19399  10.003   0.086   7.007  1.9879 -1.4849 -0.5062
  905MOL0     H19400   9.969   0.055   7.181 -2.3599 -0.2159 -0.8517
  905MOL0     H19401  10.043  -0.199   7.102 -0.2690 -1.1833  0.4480
  905MOL0     H19402  10.027  -0.138   6.941  2.0687 -1.5944  1.0928
  905MOL0     H19403   9.815  -0.135   7.165  0.2340  0.5977 -1.0985
  905MOL0     H19404   9.790  -0.059   7.013 -1.3931  0.0523  2.8816
  905MOL0     H19405   9.886  -0.349   7.025 -1.2808  0.1027  1.9852
  905MOL0     H19406   9.819  -0.264   6.884 -0.5189  0.0314  0.2132
  905MOL0     H19407   9.662  -0.363   7.139 -1.7495  2.5753 -0.4383
  905MOL0     H19408   9.656  -0.423   6.973 -1.4458  1.1816 -2.8170
  905MOL0     H19409   9.564  -0.153   7.068 -1.5795 -0.3228  0.1686
  905MOL0     H19410   9.584  -0.205   6.899  0.1114 -2.6293 -2.1830
  905MOL0     H19411   9.341  -0.260   6.967  0.3230  0.7607  0.1876
  905MOL0     H19412   9.391  -0.282   7.129 -0.2929 -3.8196  1.2557
  905MOL0     H19413   9.342  -0.558   7.189  1.0047 -1.2752 -0.1919
  905MOL0     H19414   9.208  -0.812   6.963  1.5091 -1.7729  0.1585
  905MOL0     H19415   9.176  -0.735   7.111 -0.8533  0.2046 -2.0457
  905MOL0     H19416   9.377  -0.826   7.225 -2.3719  1.6501 -0.6790
  905MOL0     H19417   9.432  -0.899   7.070 -0.9117 -1.1702 -0.6803
  905MOL0     H19418   9.309  -1.037   7.267  1.3630  1.3927 -0.2253
  905MOL0     H19419   9.164  -0.953   7.234  1.8234 -0.5926  2.0750
  905MOL0     H19420   9.328  -1.125   7.041 -0.3934 -0.6459  0.7553
  905MOL0     H19421   9.176  -1.057   6.995 -0.5812 -1.2061 -0.6466
  905MOL0     H19422   9.025  -1.379   7.263 -1.7851 -0.2287  4.6260
  905MOL0     H19423   8.777  -1.346   7.311 -0.9004  3.8195  3.0142
  905MOL0     H19424   8.478  -0.860   7.384  1.8519 -2.2397  0.6218
  905MOL0     H19425   8.241  -0.805   7.433 -3.8395 -0.9185 -0.2986
  905MOL0     H19426   7.990  -0.769   7.420 -1.6581  1.2433  0.8099
  905MOL0     H19427   8.032  -0.917   7.527 -2.6020 -2.3444  0.0335
  905MOL0     H19428   7.801  -0.849   7.558 -0.4645  2.5226 -0.8489
  905MOL0     H19429   7.812  -1.014   7.484  0.1999  0.1988  2.0807
  905MOL0     H19430   7.766  -0.923   7.265  0.7532  0.0958  0.0284
  905MOL0     H19431   7.722  -0.761   7.344 -0.5322  0.5103 -0.9590
  905MOL0     H19432   7.580  -1.027   7.403 -2.7248 -0.4253 -1.2133
  905MOL0     H19433   7.553  -0.872   7.472  0.2408 -1.7177  1.0771
  905MOL0     H19434   7.404  -0.955   7.276  0.1539  0.1711  1.9434
  905MOL0     H19435   7.548  -0.920   7.172 -0.0472 -1.7979  0.6120
  905MOL0     H19436   7.544  -0.685   7.206 -2.6276  2.1982 -1.0007
  905MOL0     H19437   7.416  -0.709   7.333 -2.2373  2.2467 -1.5972
  905MOL0     H19438   7.402  -0.717   7.049  0.6243  0.7643  0.0604
  905MOL0     H19439   7.296  -0.821   7.136  0.9944 -0.6727  0.1200
  905MOL0     H19440   7.326  -0.511   7.167 -1.8747  1.3343  3.1760
  905MOL0     H19441   7.242  -0.603   7.289  0.4241 -3.9293  0.6307
  905MOL0     H19442   8.119  -1.126   7.161  1.8600 -2.7484  2.3006
  905MOL0     H19443   8.357  -1.148   7.101 -0.1478  0.3959  0.4854
  905MOL0     H19444   8.772  -0.984   7.108 -0.6534  0.4858  1.0627
  905MOL0     H19445   8.995  -0.987   7.064  2.8263 -0.0742  1.9096
  905MOL0     H19446  10.429  -0.043   7.169  0.4874  1.9068 -0.4365
  905MOL0     H19447  10.673  -0.076   7.085  1.8403 -0.1015 -1.4221
  905MOL0     H19448  11.040   0.190   6.655  0.7283 -0.9188 -1.6104
  905MOL0     H19449  11.274   0.187   6.684 -3.5614  0.6701 -1.5655
  905MOL0     H19450  11.525   0.062   6.673  1.2279 -0.3723 -1.0401
  905MOL0     H19451  11.483  -0.110   6.667 -3.0434 -1.3791  2.8967
  905MOL0     H19452  11.630  -0.138   6.877  1.0605  1.6191  1.5273
  905MOL0     H19453  11.704  -0.132   6.726  0.8966  1.4748 -1.7417
  905MOL0     H19454  11.819   0.010   6.905 -0.6926 -1.7100 -0.5310
  905MOL0     H19455  11.674   0.111   6.922  0.6608  0.4983  0.6931
  905MOL0     H19456  11.714   0.161   6.664  1.3093  2.2639 -0.1621
  905MOL0     H19457  11.834   0.229   6.780 -0.0169  1.7608 -2.5684
  905MOL0     H19458  12.124   0.028   6.616  1.1021  1.0462  1.2024
  905MOL0     H19459  11.230  -0.153   6.947  1.3537  3.3225  0.4335
  905MOL0     H19460  10.991  -0.143   6.923 -0.5820 -1.1980 -2.2410
  906MOL0     O19461  10.005   5.601   9.323  0.3275  0.0199 -0.8647
  906MOL0     C19462  10.055   5.589   9.439 -0.0699  0.1276  0.5551
  906MOL0     O19463   9.989   5.583   9.555  0.5159  0.5067  0.3830
  906MOL0     C19464   9.859   5.621   9.551 -1.0646  0.8008  0.6153
  906MOL0     C19465   9.757   5.536   9.604 -1.1029 -0.1204 -0.0814
  906MOL0     C19466   9.622   5.578   9.593 -0.4513  0.0828 -0.0595
  906MOL0     C19467   9.582   5.692   9.519  0.4942  0.0879 -0.2979
  906MOL0     O19468   9.444   5.725   9.510 -1.2011  0.1445  1.0778
  906MOL0     C19469   9.398   5.856   9.489 -0.1552 -0.4025  0.4586
  906MOL0     C19470   9.290   5.884   9.593  0.5352  0.2051 -0.6456
  906MOL0     C19471   9.171   5.962   9.540 -0.2748 -0.3879  0.6286
  906MOL0     C19472   9.067   5.995   9.654  1.2063  0.0552 -0.6445
  906MOL0     C19473   8.929   6.063   9.615 -0.1993  0.3475  1.0008
  906MOL0     C19474   8.828   6.084   9.733  0.0519  0.8662 -0.5841
  906MOL0     C19475   8.698   6.163   9.698  0.4687 -0.1596 -0.3098
  906MOL0     C19476   8.607   6.097   9.596  0.1535 -0.6665  0.4090
  906MOL0     N19477   8.499   6.185   9.569  0.5070  0.4235 -0.4887
  906MOL0     C19478   8.378   6.201   9.642 -0.5187 -0.3828 -0.0637
  906MOL0     C19479   8.297   6.284   9.575  0.4754 -0.6416 -0.6845
  906MOL0     C19480   8.148   6.329   9.602 -1.3363  0.7049  0.1017
  906MOL0     C19481   8.069   6.201   9.613 -0.1897  0.1650  0.9618
  906MOL0     C19482   7.931   6.235   9.681  0.3011 -0.1270 -0.3753
  906MOL0     C19483   7.836   6.326   9.598  0.1064 -0.4125 -0.5843
  906MOL0     O19484   7.731   6.360   9.691  0.0148 -0.0211  0.1289
  906MOL0     C19485   7.606   6.319   9.657  0.2816  0.7897 -0.1865
  906MOL0     C19486   7.570   6.186   9.620 -0.9193  0.5417  0.7878
  906MOL0     C19487   7.432   6.158   9.583 -0.5828 -0.9099  0.0249
  906MOL0     C19488   7.332   6.260   9.591 -0.7356  0.2310  0.1060
  906MOL0     C19489   7.196   6.229   9.528  0.1341 -0.0079  0.4988
  906MOL0     O19490   7.116   6.341   9.493  0.3457  0.0988 -0.0628
  906MOL0     C19491   7.003   6.312   9.424  0.4136  0.5000 -0.2260
  906MOL0     C19492   6.873   6.309   9.493  0.1587 -0.8491  0.3525
  906MOL0     C19493   6.761   6.293   9.408 -0.7823 -0.1680 -0.4342
  906MOL0     C19494   6.772   6.278   9.267  0.1089 -0.1553 -0.6650
  906MOL0     O19495   6.655   6.269   9.188 -0.6008  1.1477  0.4296
  906MOL0     C19496   6.528   6.297   9.244 -0.0686 -0.2251 -0.8333
  906MOL0     C19497   6.450   6.193   9.325  0.5620  0.1643 -0.3641
  906MOL0     C19498   6.378   6.096   9.228 -0.0096 -0.1833  0.4749
  906MOL0     C19499   6.310   5.986   9.294 -0.1213  0.7216  0.1570
  906MOL0     C19500   6.283   5.872   9.193 -0.8417 -0.8323 -0.0446
  906MOL0     C19501   6.217   5.744   9.249 -0.3033 -1.1178 -0.0823
  906MOL0     C19502   6.315   5.650   9.312 -0.5026 -0.3599 -0.2165
  906MOL0     C19503   6.281   5.515   9.284  0.5613 -0.2384  0.4831
  906MOL0    Cl19504   6.122   5.460   9.356 -0.1047 -0.2163  0.5108
  906MOL0     C19505   6.891   6.275   9.216  0.3264 -0.2960  0.1371
  906MOL0     C19506   7.007   6.284   9.288 -0.0069 -0.8695  0.5233
  906MOL0     O19507   7.170   6.111   9.498  0.8045 -0.5843  0.2440
  906MOL0     C19508   7.370   6.391   9.628  0.2934  0.0953 -0.4270
  906MOL0     C19509   7.506   6.416   9.669 -0.7917  0.0443  0.4174
  906MOL0     N19510   8.372   6.331   9.467 -0.3471 -0.6490 -0.4790
  906MOL0     N19511   8.479   6.260   9.463  0.7755  0.1924 -0.2281
  906MOL0     C19512   9.685   5.774   9.473 -0.5181  0.9265 -0.0333
  906MOL0     C19513   9.819   5.740   9.493 -0.5014  0.6870 -0.3418
  906MOL0     C19514  10.193   5.545   9.446  0.2662 -0.4903 -0.3345
  906MOL0     C19515  10.265   5.521   9.331 -0.0456 -0.3660  0.6114
  906MOL0     C19516  10.394   5.506   9.340 -0.7683  0.0316  0.1162
  906MOL0     C19517  10.462   5.491   9.465  0.9180  0.7781  0.6888
  906MOL0     O19518  10.596   5.465   9.482 -0.8118  0.7282  0.4675
  906MOL0     C19519  10.685   5.458   9.369  0.5929 -0.4429 -0.0016
  906MOL0     C19520  10.828   5.432   9.400 -0.9223 -0.2323  0.7528
  906MOL0     C19521  10.921   5.462   9.276 -0.3220  0.1589  0.0007
  906MOL0     C19522  11.066   5.448   9.335  0.4931 -0.0928  0.5580
  906MOL0     C19523  11.162   5.519   9.243  0.0309 -0.3599 -0.5645
  906MOL0     C19524  11.226   5.583   9.168  0.5086  0.1693  0.1031
  906MOL0     C19525  10.383   5.503   9.580  0.0313  0.3116  1.0182
  906MOL0     C19526  10.250   5.530   9.569 -0.0320  0.2401 -0.8050
  906MOL0     H19527   9.768   5.436   9.646  1.0908 -0.5979 -1.6082
  906MOL0     H19528   9.555   5.506   9.639  1.0093 -0.4982  1.2457
  906MOL0     H19529   9.353   5.870   9.390  0.4546 -1.1732  0.0593
  906MOL0     H19530   9.477   5.931   9.491 -0.5032  0.1196 -1.9903
  906MOL0     H19531   9.327   5.937   9.682  0.3121  0.3406 -0.6333
  906MOL0     H19532   9.259   5.787   9.633  2.1034 -0.7922 -1.7408
  906MOL0     H19533   9.124   5.904   9.460 -2.5854 -0.6882  2.1134
  906MOL0     H19534   9.201   6.059   9.499  0.4137  0.8952  3.8597
  906MOL0     H19535   9.041   5.901   9.702 -0.7923  1.0825  0.4151
  906MOL0     H19536   9.108   6.062   9.730  0.3235 -2.4086  2.2044
  906MOL0     H19537   8.886   6.003   9.534  2.6962  0.2390 -0.6085
  906MOL0     H19538   8.960   6.155   9.566  2.9301 -0.3902  1.3835
  906MOL0     H19539   8.883   6.111   9.823  0.4545 -1.3951 -0.1026
  906MOL0     H19540   8.797   5.985   9.767 -0.2261  1.0127 -0.4083
  906MOL0     H19541   8.645   6.189   9.790 -0.4151 -2.2709 -0.1864
  906MOL0     H19542   8.732   6.253   9.644 -0.6214  2.3717  2.9008
  906MOL0     H19543   8.569   5.998   9.621 -0.9043 -0.7573 -1.3732
  906MOL0     H19544   8.656   6.077   9.500 -0.3893 -0.8797  0.1695
  906MOL0     H19545   8.356   6.162   9.741 -0.4776 -0.0233  0.0902
  906MOL0     H19546   8.107   6.394   9.524  1.2982  1.9593 -0.3430
  906MOL0     H19547   8.145   6.381   9.699 -3.0104  1.4017 -0.2850
  906MOL0     H19548   8.122   6.124   9.670  1.8694 -1.6634 -3.0098
  906MOL0     H19549   8.058   6.152   9.515 -1.5562 -0.5171  1.4359
  906MOL0     H19550   7.879   6.138   9.686 -3.1329  1.5956  1.0103
  906MOL0     H19551   7.949   6.271   9.782  1.9948  0.9601 -1.0275
  906MOL0     H19552   7.800   6.273   9.510 -0.5954 -1.3854  0.2640
  906MOL0     H19553   7.889   6.414   9.562  0.4277 -1.1071 -1.8583
  906MOL0     H19554   7.659   6.124   9.613 -3.2174 -3.2577  2.4637
  906MOL0     H19555   7.407   6.060   9.542 -4.1245 -0.8418  1.6743
  906MOL0     H19556   6.863   6.350   9.593 -2.8966  0.7525 -0.4868
  906MOL0     H19557   6.665   6.319   9.452 -0.1996 -1.5716  1.8759
  906MOL0     H19558   6.461   6.325   9.162 -2.8703 -2.6432  0.4492
  906MOL0     H19559   6.540   6.391   9.298 -1.1412 -0.0434 -0.8924
  906MOL0     H19560   6.371   6.239   9.385 -0.3897 -0.1692 -1.3342
  906MOL0     H19561   6.513   6.137   9.395 -2.6416 -2.1764  0.8529
  906MOL0     H19562   6.459   6.070   9.160  0.6472 -1.5187  1.7007
  906MOL0     H19563   6.308   6.147   9.162  0.4845 -2.3437 -1.8624
  906MOL0     H19564   6.367   5.941   9.376 -0.9565  0.4569  0.6041
  906MOL0     H19565   6.210   6.023   9.318 -0.7452 -1.0469  0.4930
  906MOL0     H19566   6.379   5.838   9.151 -0.3950 -0.4566  0.6540
  906MOL0     H19567   6.224   5.899   9.105  0.1645  1.7579 -0.0232
  906MOL0     H19568   6.180   5.697   9.157  3.2587 -0.2432 -2.1683
  906MOL0     H19569   6.132   5.772   9.311  0.5906 -0.0053  0.7021
  906MOL0     H19570   6.414   5.660   9.265 -0.8251 -0.3681 -0.8996
  906MOL0     H19571   6.321   5.670   9.420 -2.3698  0.1562 -0.1856
  906MOL0     H19572   6.355   5.447   9.328  3.4116  2.5588  0.4458
  906MOL0     H19573   6.287   5.506   9.175 -1.8824  0.6058  0.2299
  906MOL0     H19574   6.898   6.255   9.109  0.9911  3.2923 -0.6277
  906MOL0     H19575   7.096   6.285   9.225 -0.9152  2.2347 -0.8733
  906MOL0     H19576   7.293   6.466   9.630 -1.1068 -1.2892  1.3817
  906MOL0     H19577   7.533   6.516   9.698  1.2785  0.2586 -1.8759
  906MOL0     H19578   9.678   5.870   9.424 -1.4251  1.9772  2.0106
  906MOL0     H19579   9.888   5.814   9.455  0.1433  0.4765  0.3860
  906MOL0     H19580  10.212   5.535   9.237 -2.2347 -3.3244  1.2227
  906MOL0     H19581  10.446   5.501   9.244 -3.3333 -0.7835 -1.3317
  906MOL0     H19582  10.672   5.547   9.307 -0.8992 -1.2155 -0.8454
  906MOL0     H19583  10.657   5.367   9.314  0.8931 -0.8156  0.4516
  906MOL0     H19584  10.852   5.496   9.485 -1.8746 -0.4253  1.1800
  906MOL0     H19585  10.835   5.332   9.443 -1.2721  0.2605  2.0213
  906MOL0     H19586  10.910   5.562   9.232  1.5471 -0.9281 -3.3043
  906MOL0     H19587  10.907   5.390   9.195  0.6968 -2.0232  1.6818
  906MOL0     H19588  11.069   5.493   9.434  0.4307  0.6960  0.2111
  906MOL0     H19589  11.095   5.343   9.344  0.6913 -0.2610 -1.4349
  906MOL0     H19590  11.292   5.626   9.095 -0.8163 -0.3530 -1.4702
  906MOL0     H19591  10.440   5.511   9.672  0.4387 -1.7090  0.9995
  906MOL0     H19592  10.204   5.570   9.659  1.5142  1.0677 -0.3573
  907MOL0     O19593   5.412   5.374  10.971  0.1227 -0.0335  0.0740
  907MOL0     C19594   5.382   5.255  10.956 -0.4744  0.0898  0.7268
  907MOL0     O19595   5.259   5.199  10.976  0.3755  0.5942 -0.8938
  907MOL0     C19596   5.158   5.277  11.018  0.4301  0.2611  0.0082
  907MOL0     C19597   5.174   5.350  11.133 -0.1306 -0.4041  0.1633
  907MOL0     C19598   5.077   5.443  11.174 -1.4579  0.1866 -0.3193
  907MOL0     C19599   4.947   5.451  11.114 -0.5515 -0.1181  0.2123
  907MOL0     O19600   4.858   5.540  11.165  0.2542  0.0452  0.5819
  907MOL0     C19601   4.729   5.563  11.110 -1.0892  0.2290  0.1791
  907MOL0     C19602   4.622   5.474  11.158 -0.3107 -0.1207 -0.2430
  907MOL0     C19603   4.614   5.471  11.309 -0.4711  0.3232 -0.0338
  907MOL0     C19604   4.510   5.359  11.354 -0.4761  0.0858 -0.3965
  907MOL0     C19605   4.531   5.312  11.497  0.3668  0.1321  0.2140
  907MOL0     C19606   4.399   5.307  11.572 -0.0831  0.9628 -0.4697
  907MOL0     C19607   4.326   5.436  11.609 -0.2909  0.2982 -0.2321
  907MOL0     C19608   4.190   5.405  11.687  0.0346 -0.6733  0.3477
  907MOL0     N19609   4.077   5.344  11.612 -0.2734 -0.0499 -0.4076
  907MOL0     C19610   4.064   5.205  11.600  0.2863 -0.5105  0.0953
  907MOL0     C19611   3.923   5.203  11.585 -0.9240 -0.0697  0.9195
  907MOL0     C19612   3.840   5.080  11.543  0.1753 -0.2278 -0.1180
  907MOL0     C19613   3.688   5.093  11.577  0.1831 -0.2189 -0.2592
  907MOL0     C19614   3.623   4.953  11.551  0.8038 -0.2537 -0.1520
  907MOL0     C19615   3.468   4.967  11.509 -0.3579  0.3855  0.2102
  907MOL0     O19616   3.395   5.054  11.598 -0.2098  0.0406  0.0592
  907MOL0     C19617   3.255   5.057  11.593  0.3588  0.0831 -0.2719
  907MOL0     C19618   3.181   5.116  11.695  0.5979  0.2721 -0.1795
  907MOL0     C19619   3.037   5.105  11.701 -0.9764  0.3092 -0.4895
  907MOL0     C19620   2.967   5.033  11.605 -0.3660 -0.6725 -0.0691
  907MOL0     C19621   2.822   5.017  11.606  0.4405  0.1774 -0.4620
  907MOL0     O19622   2.755   5.043  11.721 -1.0705 -0.9392  0.4791
  907MOL0     C19623   2.620   5.006  11.743 -0.5563  0.0028  0.0053
  907MOL0     C19624   2.562   5.085  11.844 -0.2432  0.0983  0.4154
  907MOL0     C19625   2.431   5.074  11.886 -0.1691  1.6599 -0.6256
  907MOL0     C19626   2.355   4.974  11.827 -0.8453  0.7426  0.3237
  907MOL0     O19627   2.236   4.945  11.895  0.0009 -0.0774 -0.3035
  907MOL0     C19628   2.148   4.839  11.840 -0.3538 -0.0921  1.1017
  907MOL0     C19629   2.053   4.793  11.946 -0.0119  1.0845 -0.2678
  907MOL0     C19630   1.963   4.682  11.897  0.3800 -0.0884  0.6106
  907MOL0     C19631   1.849   4.636  11.982  0.2465  0.1915 -0.0674
  907MOL0     C19632   1.743   4.551  11.906 -0.1796  1.0107 -1.1022
  907MOL0     C19633   1.798   4.442  11.801  0.5857  0.2788 -1.0842
  907MOL0     C19634   1.709   4.325  11.761 -0.5086 -0.1119 -0.4232
  907MOL0     C19635   1.793   4.231  11.669 -0.3429  0.0051  0.0582
  907MOL0    Cl19636   1.940   4.170  11.752 -0.3371  0.1270 -0.2856
  907MOL0     C19637   2.404   4.891  11.731 -0.0936  0.3334 -0.1039
  907MOL0     C19638   2.541   4.915  11.679  0.0990 -0.1156  0.1300
  907MOL0     O19639   2.776   4.952  11.515 -0.3848  0.2908 -0.0948
  907MOL0     C19640   3.036   4.993  11.487 -0.4243  0.5609 -0.4273
  907MOL0     C19641   3.178   5.015  11.489  0.2410 -0.6227  0.2327
  907MOL0     N19642   3.860   5.329  11.580  0.1763  1.1382 -0.8421
  907MOL0     N19643   3.960   5.412  11.594 -0.1960 -0.3411  0.6579
  907MOL0     C19644   4.929   5.364  11.007  0.6788  0.2935  0.2429
  907MOL0     C19645   5.035   5.280  10.951  1.0870 -0.3334 -0.0422
  907MOL0     C19646   5.492   5.175  10.890 -0.8250 -1.0223  0.8892
  907MOL0     C19647   5.485   5.047  10.851 -1.0017  0.5135  0.1760
  907MOL0     C19648   5.593   4.980  10.784 -0.2633 -0.4750 -0.0790
  907MOL0     C19649   5.708   5.046  10.758  0.0471  0.6560  0.0931
  907MOL0     O19650   5.817   4.997  10.687  0.9233  0.0399  0.7833
  907MOL0     C19651   5.773   4.917  10.581  0.0216 -0.0519 -0.4004
  907MOL0     C19652   5.878   4.917  10.476  0.1761  0.0993  0.3184
  907MOL0     C19653   5.938   5.051  10.441 -0.2075 -1.1553  0.1375
  907MOL0     C19654   6.033   5.050  10.322  0.1951  0.1794 -1.3980
  907MOL0     C19655   6.124   5.167  10.309 -0.8249  0.1958 -1.2848
  907MOL0     C19656   6.201   5.264  10.287 -0.2148  0.6939 -0.4139
  907MOL0     C19657   5.722   5.175  10.809  0.0509  0.2507  0.3360
  907MOL0     C19658   5.618   5.238  10.880  0.7814  0.7561 -0.1647
  907MOL0     H19659   5.273   5.346  11.176  0.9277 -2.7502 -2.1730
  907MOL0     H19660   5.112   5.517  11.246  0.8179  1.6680 -2.7695
  907MOL0     H19661   4.734   5.568  11.001  3.4338 -0.9322  0.1112
  907MOL0     H19662   4.711   5.663  11.150  1.3713 -0.4544  3.4462
  907MOL0     H19663   4.639   5.373  11.120  0.5006 -0.9606  2.1756
  907MOL0     H19664   4.530   5.514  11.113 -1.3308 -0.3611  1.5196
  907MOL0     H19665   4.573   5.563  11.352 -1.9347  0.0981 -0.8706
  907MOL0     H19666   4.712   5.449  11.353 -0.7029 -1.6068 -0.3536
  907MOL0     H19667   4.405   5.385  11.334 -0.4081 -0.0647 -0.9460
  907MOL0     H19668   4.531   5.279  11.283  2.1361  0.2619  0.0894
  907MOL0     H19669   4.596   5.383  11.548 -1.2151  0.7633  1.4200
  907MOL0     H19670   4.575   5.211  11.488 -1.6612 -0.7760  0.0619
  907MOL0     H19671   4.438   5.259  11.662 -0.1510 -0.5684 -1.2221
  907MOL0     H19672   4.328   5.240  11.522  1.9481 -1.2010 -0.6527
  907MOL0     H19673   4.379   5.512  11.667  0.1156  0.5311 -0.8990
  907MOL0     H19674   4.310   5.480  11.510  1.1573 -0.5337 -0.8697
  907MOL0     H19675   4.150   5.490  11.742 -1.9720 -1.1330 -0.3120
  907MOL0     H19676   4.212   5.328  11.762 -0.5858  0.4682  1.7499
  907MOL0     H19677   4.136   5.124  11.607  1.7215  0.7210 -0.0215
  907MOL0     H19678   3.892   4.994  11.587  3.4172  0.3284 -2.5011
  907MOL0     H19679   3.848   5.055  11.437  2.2092  1.8920 -0.5390
  907MOL0     H19680   3.648   5.166  11.506 -2.8879  0.6670  2.1887
  907MOL0     H19681   3.667   5.127  11.678 -1.9224 -3.0869  0.3936
  907MOL0     H19682   3.670   4.902  11.466  2.9297  1.6140 -0.2083
  907MOL0     H19683   3.635   4.885  11.636 -1.7375 -3.5303 -2.1802
  907MOL0     H19684   3.416   4.873  11.524 -0.6658  0.6157  0.6147
  907MOL0     H19685   3.453   4.998  11.405  2.1983  0.9223 -0.0487
  907MOL0     H19686   3.232   5.161  11.780  1.5684 -1.5714  0.2748
  907MOL0     H19687   2.990   5.150  11.788 -0.0737 -2.9361  1.9024
  907MOL0     H19688   2.628   5.152  11.897  1.7932  0.1181 -1.9643
  907MOL0     H19689   2.397   5.130  11.973  0.6204  0.3555  0.5656
  907MOL0     H19690   2.208   4.748  11.833 -1.2759 -1.0580  4.2665
  907MOL0     H19691   2.100   4.870  11.747  0.9473 -0.1671  0.3734
  907MOL0     H19692   1.992   4.875  11.984 -0.4007  1.0899 -0.8809
  907MOL0     H19693   2.112   4.751  12.028 -1.4901 -1.8485 -0.5670
  907MOL0     H19694   2.014   4.590  11.867  0.7000  0.0773  0.6305
  907MOL0     H19695   1.928   4.723  11.802  2.1435 -0.3873 -0.2144
  907MOL0     H19696   1.899   4.583  12.063 -0.3351 -0.7774 -0.3270
  907MOL0     H19697   1.799   4.721  12.028 -3.8101 -2.9479  1.9367
  907MOL0     H19698   1.685   4.620  11.844  1.9442  2.5477 -1.4846
  907MOL0     H19699   1.685   4.504  11.986  0.7356  3.3679  1.0995
  907MOL0     H19700   1.879   4.389  11.853  2.1240  2.7506 -0.7733
  907MOL0     H19701   1.832   4.495  11.711  1.0604 -1.7001 -2.1106
  907MOL0     H19702   1.665   4.263  11.840 -2.4595 -2.4855 -3.1373
  907MOL0     H19703   1.625   4.365  11.703  2.0231  2.3380 -2.6663
  907MOL0     H19704   1.823   4.276  11.574  0.7829  1.5120  1.0679
  907MOL0     H19705   1.723   4.151  11.644  0.2404 -0.3762 -0.3712
  907MOL0     H19706   2.348   4.816  11.676  0.1709  2.0922 -2.9943
  907MOL0     H19707   2.587   4.852  11.604 -1.2259  1.2110 -1.9016
  907MOL0     H19708   2.994   4.930  11.409  3.7903 -1.1414 -1.6131
  907MOL0     H19709   3.230   4.982  11.401 -0.6096 -0.1932 -0.4459
  907MOL0     H19710   4.835   5.370  10.952 -1.1767 -3.1202  2.6193
  907MOL0     H19711   5.011   5.224  10.861 -2.2037  2.0519 -0.8395
  907MOL0     H19712   5.391   4.995  10.870  0.4842 -3.9950 -3.0883
  907MOL0     H19713   5.570   4.880  10.750  0.7224 -1.1569  1.1722
  907MOL0     H19714   5.682   4.963  10.539 -1.0741 -2.2487 -0.5586
  907MOL0     H19715   5.740   4.820  10.620  1.6367 -0.0258  1.0993
  907MOL0     H19716   5.958   4.846  10.497  1.8023  1.6899 -0.2532
  907MOL0     H19717   5.838   4.892  10.378  3.1445 -1.1234 -0.6851
  907MOL0     H19718   5.987   5.089  10.531 -2.4475 -2.9404  2.2529
  907MOL0     H19719   5.854   5.116  10.413  0.6696 -0.2861 -0.5524
  907MOL0     H19720   6.094   4.959  10.323 -0.7420 -0.4753 -0.1374
  907MOL0     H19721   5.972   5.042  10.231 -0.8034  2.7515 -1.0206
  907MOL0     H19722   6.266   5.349  10.285  0.5100  0.1421 -1.6798
  907MOL0     H19723   5.816   5.227  10.792  0.5939 -0.5804  0.7737
  907MOL0     H19724   5.633   5.340  10.914  0.5400  1.0976 -1.0397
  908MOL0     O19725  10.352   3.782  10.016 -0.1896 -0.1376  0.6127
  908MOL0     C19726  10.275   3.715   9.960  0.1623  0.0367 -0.0075
  908MOL0     O19727  10.300   3.596   9.901 -0.2126  0.6004 -0.3836
  908MOL0     C19728  10.420   3.537   9.919  0.5521  0.7090 -0.2085
  908MOL0     C19729  10.432   3.422   9.987  0.5664 -0.5247  0.1027
  908MOL0     C19730  10.561   3.368  10.010  1.1534 -0.3623 -0.8389
  908MOL0     C19731  10.684   3.423   9.965  0.8597  0.3134 -0.1398
  908MOL0     O19732  10.805   3.364  10.011  0.5570 -0.2201 -0.7725
  908MOL0     C19733  10.936   3.427   9.980  0.2455 -0.1217  0.0429
  908MOL0     C19734  10.979   3.531  10.084 -0.7007 -0.5319 -0.6003
  908MOL0     C19735  11.126   3.579  10.058  0.1787 -0.5775  0.1026
  908MOL0     C19736  11.175   3.675  10.165  0.9832  0.2002  0.0046
  908MOL0     C19737  11.303   3.748  10.129 -0.3204 -0.1351 -0.1075
  908MOL0     C19738  11.423   3.649  10.127  0.4696  0.5692  0.8388
  908MOL0     C19739  11.544   3.719  10.065  0.6990 -0.5243  0.0764
  908MOL0     C19740  11.662   3.622  10.041  0.5056 -0.2739  0.7317
  908MOL0     N19741  11.637   3.530   9.929 -1.2211  0.0318 -0.1004
  908MOL0     C19742  11.586   3.402   9.947  0.8381 -0.1732  0.1322
  908MOL0     C19743  11.581   3.349   9.816 -1.2788 -0.5992  0.2690
  908MOL0     C19744  11.560   3.204   9.780  0.0299 -0.8894  0.5024
  908MOL0     C19745  11.414   3.165   9.795  0.2308  0.0421  0.0387
  908MOL0     C19746  11.397   3.009   9.771  0.2945  0.1517 -0.1029
  908MOL0     C19747  11.254   2.966   9.755 -0.7947  0.6845  0.4619
  908MOL0     O19748  11.190   2.991   9.879 -0.5947 -0.1074 -0.0075
  908MOL0     C19749  11.063   2.953   9.892  0.3268 -0.1052  0.8912
  908MOL0     C19750  10.985   3.008   9.991 -0.6188 -0.4191 -0.5077
  908MOL0     C19751  10.857   2.963  10.017  0.3317 -0.8584 -0.2227
  908MOL0     C19752  10.796   2.853   9.950 -0.4051  0.1335 -0.4443
  908MOL0     C19753  10.667   2.788   9.983  0.4697  0.1251  0.0801
  908MOL0     O19754  10.632   2.671   9.929  0.0974 -0.2214 -0.2359
  908MOL0     C19755  10.511   2.622   9.984  0.3743 -0.0344  0.5349
  908MOL0     C19756  10.481   2.591  10.120  0.4550  0.9776  0.5251
  908MOL0     C19757  10.344   2.553  10.158 -0.7675  0.1569 -0.1806
  908MOL0     C19758  10.250   2.536  10.068  0.3855 -0.0568  0.1218
  908MOL0     O19759  10.122   2.488  10.112 -0.3464  0.5683  0.1591
  908MOL0     C19760  10.058   2.376  10.046  0.1977 -0.2734  0.2513
  908MOL0     C19761   9.989   2.290  10.146 -0.6562 -0.2200  0.9433
  908MOL0     C19762  10.085   2.235  10.246 -0.0586 -0.1182 -0.0509
  908MOL0     C19763  10.004   2.173  10.358 -0.0476 -0.2688  0.4632
  908MOL0     C19764   9.975   2.271  10.474 -1.0041 -0.2903  1.0316
  908MOL0     C19765   9.906   2.207  10.597  0.1105 -0.4568 -0.1131
  908MOL0     C19766   9.774   2.140  10.566 -0.1694 -0.4873 -0.0488
  908MOL0     C19767   9.720   2.054  10.683  0.0067 -0.2623  0.3362
  908MOL0    Cl19768   9.535   2.066  10.671 -0.0314 -0.0579 -0.7435
  908MOL0     C19769  10.286   2.561   9.934  0.3130  0.0404  0.3857
  908MOL0     C19770  10.411   2.607   9.887 -0.1747 -0.0631 -0.6182
  908MOL0     O19771  10.595   2.861  10.056 -0.3497  0.4467  0.4071
  908MOL0     C19772  10.876   2.803   9.846 -0.6798 -0.2251 -0.6308
  908MOL0     C19773  11.003   2.852   9.812 -0.6875 -0.6226 -0.2370
  908MOL0     N19774  11.636   3.452   9.736  0.5611 -0.8218 -0.4228
  908MOL0     N19775  11.659   3.561   9.804  0.6637 -0.3513 -0.3571
  908MOL0     C19776  10.667   3.534   9.880  0.8978 -0.2409  0.2169
  908MOL0     C19777  10.538   3.587   9.852 -0.2812  0.8518 -0.6716
  908MOL0     C19778  10.131   3.751   9.972  0.8573 -0.4650  0.5564
  908MOL0     C19779  10.103   3.877  10.020  1.6328  0.2740  0.1633
  908MOL0     C19780   9.974   3.930  10.021  0.7464 -0.3819  0.3579
  908MOL0     C19781   9.862   3.849   9.985 -0.5509  0.9339 -0.6871
  908MOL0     O19782   9.736   3.893  10.002 -0.1367  0.1488  0.1447
  908MOL0     C19783   9.712   3.959  10.122  0.7258 -0.3321 -0.3108
  908MOL0     C19784   9.560   3.993  10.147 -1.2549 -0.1790  0.1992
  908MOL0     C19785   9.502   4.081  10.034 -0.0749 -0.6324 -0.2677
  908MOL0     C19786   9.355   4.120  10.047  0.0849  0.2626  0.9048
  908MOL0     C19787   9.304   4.159   9.912 -0.1360  0.2590 -0.4441
  908MOL0     C19788   9.244   4.186   9.810  1.0706  0.3564  0.0649
  908MOL0     C19789   9.892   3.718   9.936  0.2881 -0.3785  1.0455
  908MOL0     C19790  10.025   3.668   9.922  0.6974 -0.2890 -0.3143
  908MOL0     H19791  10.352   3.364  10.032  1.2916 -3.3533 -1.9532
  908MOL0     H19792  10.582   3.281  10.072  0.9908  1.6094  2.1868
  908MOL0     H19793  10.925   3.487   9.888 -1.5028 -0.1368  0.2107
  908MOL0     H19794  11.012   3.352   9.956 -0.2134  0.3679 -3.6552
  908MOL0     H19795  10.971   3.484  10.183 -6.8641 -0.7234 -0.7728
  908MOL0     H19796  10.903   3.609  10.084 -1.3084 -1.0977 -1.8509
  908MOL0     H19797  11.141   3.630   9.962 -0.8705 -2.5501 -1.1881
  908MOL0     H19798  11.193   3.494  10.046 -0.1479 -0.5140 -2.8025
  908MOL0     H19799  11.098   3.752  10.177  0.3737  0.6240 -4.6122
  908MOL0     H19800  11.190   3.626  10.262  2.6250 -2.6228 -1.5486
  908MOL0     H19801  11.320   3.823  10.208  0.3353  1.6504 -1.8566
  908MOL0     H19802  11.298   3.800  10.033 -0.1551  0.3689  0.1533
  908MOL0     H19803  11.398   3.569  10.056  0.9506 -2.5891  3.9497
  908MOL0     H19804  11.440   3.601  10.224 -0.7445 -1.3801  0.1446
  908MOL0     H19805  11.521   3.759   9.966 -0.5016 -1.2741  0.0373
  908MOL0     H19806  11.565   3.801  10.135  0.0005 -0.5186  0.2877
  908MOL0     H19807  11.690   3.569  10.132  1.0975  1.4739  1.6282
  908MOL0     H19808  11.756   3.675  10.023  1.9723 -1.6946  3.5008
  908MOL0     H19809  11.560   3.345  10.036 -2.5394  0.6819 -0.1697
  908MOL0     H19810  11.628   3.142   9.840  1.6307 -2.8858 -3.0483
  908MOL0     H19811  11.579   3.210   9.673  1.9787  0.3658  0.8518
  908MOL0     H19812  11.354   3.227   9.728  1.3144  2.5249  1.2274
  908MOL0     H19813  11.384   3.182   9.899  1.3722 -1.1053  0.5867
  908MOL0     H19814  11.451   2.964   9.687 -0.8122 -0.7268 -0.3600
  908MOL0     H19815  11.439   2.956   9.858  1.1021 -0.0226 -0.5868
  908MOL0     H19816  11.267   2.858   9.749  0.6379  0.8441  0.4520
  908MOL0     H19817  11.208   3.003   9.663  1.5346 -2.0660 -2.0213
  908MOL0     H19818  11.028   3.076  10.064  0.6893  0.2021 -1.7957
  908MOL0     H19819  10.823   3.004  10.111  2.5760  1.0862 -0.1533
  908MOL0     H19820  10.553   2.593  10.200  0.1603 -3.1174  1.1399
  908MOL0     H19821  10.324   2.525  10.261 -3.9179 -1.9971 -1.2372
  908MOL0     H19822  10.135   2.316   9.997  3.5150  3.3395  0.4723
  908MOL0     H19823   9.992   2.419   9.970 -0.6835  1.1210  1.7233
  908MOL0     H19824   9.939   2.208  10.094  0.0955 -0.4302  0.5418
  908MOL0     H19825   9.915   2.349  10.202  0.1376  0.1453  1.6172
  908MOL0     H19826  10.145   2.316  10.289  1.5452 -0.9839 -0.5611
  908MOL0     H19827  10.158   2.164  10.205 -0.4008  0.6923 -2.1779
  908MOL0     H19828   9.910   2.136  10.316  0.9467  0.4594 -2.7543
  908MOL0     H19829  10.074   2.097  10.395 -0.3949 -0.0698  1.5518
  908MOL0     H19830   9.896   2.335  10.431  0.0398 -0.4996 -1.3582
  908MOL0     H19831  10.071   2.317  10.499 -0.1754 -1.3090 -0.1573
  908MOL0     H19832   9.883   2.292  10.662 -2.3485 -1.5334  0.5777
  908MOL0     H19833   9.968   2.142  10.659  1.8628  2.0381  0.9186
  908MOL0     H19834   9.707   2.217  10.526 -0.6770 -1.3073 -0.8314
  908MOL0     H19835   9.785   2.073  10.480 -1.2566 -0.0701 -0.5343
  908MOL0     H19836   9.742   2.099  10.780  1.7421 -2.3311  0.9650
  908MOL0     H19837   9.765   1.955  10.693 -1.9752 -1.1731  0.7284
  908MOL0     H19838  10.217   2.548   9.851 -0.1195 -2.2751  1.0237
  908MOL0     H19839  10.425   2.629   9.782  1.6386  0.3620 -0.3174
  908MOL0     H19840  10.824   2.724   9.792  0.7418 -1.4641 -0.2898
  908MOL0     H19841  11.061   2.812   9.729  2.6750 -0.0830  1.6855
  908MOL0     H19842  10.751   3.585   9.834 -0.2896  0.1642 -1.6599
  908MOL0     H19843  10.530   3.679   9.794 -1.2589  2.0398  1.2569
  908MOL0     H19844  10.184   3.945  10.048  0.4393  1.6489  0.4247
  908MOL0     H19845   9.944   4.033  10.038  1.7658 -0.0091 -0.0334
  908MOL0     H19846   9.752   4.061  10.125  1.7201 -0.7298  0.1033
  908MOL0     H19847   9.762   3.899  10.198  3.3166 -0.6195 -2.1449
  908MOL0     H19848   9.492   3.907  10.142  0.8858 -1.9251 -0.5948
  908MOL0     H19849   9.565   4.041  10.245  0.9466 -3.1737  1.7198
  908MOL0     H19850   9.510   4.016   9.946  2.4787 -1.4911  0.5180
  908MOL0     H19851   9.572   4.165  10.030  1.6971 -2.0534 -0.4262
  908MOL0     H19852   9.321   4.024  10.089  3.3557 -1.6338 -0.3668
  908MOL0     H19853   9.344   4.203  10.117 -1.5716 -0.6072  1.7196
  908MOL0     H19854   9.200   4.208   9.714  1.4066 -1.0164 -0.4257
  908MOL0     H19855   9.804   3.661   9.907  0.7008 -1.0541  1.1073
  908MOL0     H19856  10.046   3.570   9.880  0.4946  0.6160 -2.6791
  909MOL0     O19857   1.277   0.437   9.910 -1.3654  0.2997 -0.5667
  909MOL0     C19858   1.252   0.327   9.962 -0.7672  1.1623  0.5486
  909MOL0     O19859   1.345   0.228   9.987  0.2020  0.2150  0.0191
  909MOL0     C19860   1.485   0.242   9.975 -0.1949  0.9791 -0.0189
  909MOL0     C19861   1.550   0.119   9.948 -0.1454 -0.0258  0.1413
  909MOL0     C19862   1.688   0.113   9.936 -0.3058  0.8726  0.0150
  909MOL0     C19863   1.758   0.234   9.963 -0.7627  0.5550  1.2001
  909MOL0     O19864   1.894   0.251   9.975  0.3586  0.1566  0.3298
  909MOL0     C19865   1.967   0.142   9.918  0.0223  1.4368 -0.0960
  909MOL0     C19866   2.119   0.164   9.924  0.1462 -0.4371 -0.2248
  909MOL0     C19867   2.173   0.153  10.059  0.9168  0.3692  0.0463
  909MOL0     C19868   2.328   0.133  10.065 -0.4910  0.3018  0.3113
  909MOL0     C19869   2.402   0.217   9.958  0.3011 -0.3635  0.6157
  909MOL0     C19870   2.552   0.227  10.008  0.1414 -0.3066  0.0366
  909MOL0     C19871   2.626   0.088   9.993  0.5721  0.1266 -0.2474
  909MOL0     C19872   2.775   0.090  10.037  0.5165  0.8928 -0.2115
  909MOL0     N19873   2.844   0.197   9.972 -0.2969  0.2651  0.5874
  909MOL0     C19874   2.878   0.195   9.834 -0.3280  0.0167 -0.0456
  909MOL0     C19875   2.926   0.315   9.808 -0.2084 -0.3660 -0.1026
  909MOL0     C19876   2.994   0.389   9.691  0.0283 -0.9897 -0.5361
  909MOL0     C19877   3.148   0.370   9.687  0.0519 -0.0066 -0.5775
  909MOL0     C19878   3.210   0.232   9.672 -0.0908 -0.4950  0.6989
  909MOL0     C19879   3.354   0.261   9.618  0.0255  0.0085  0.2242
  909MOL0     O19880   3.427   0.140   9.631  0.1254  0.3109 -0.0081
  909MOL0     C19881   3.554   0.142   9.603  0.2478 -0.4419  0.2423
  909MOL0     C19882   3.609   0.221   9.502  0.3025 -0.4887 -0.4739
  909MOL0     C19883   3.745   0.234   9.483  0.1661  0.1595 -0.5987
  909MOL0     C19884   3.834   0.151   9.546  0.0735  0.2267  0.7801
  909MOL0     C19885   3.986   0.156   9.542 -0.9466 -0.3648  0.2158
  909MOL0     O19886   4.048   0.035   9.581  0.3678 -0.1157  0.3749
  909MOL0     C19887   4.180   0.045   9.559 -0.2808 -1.1117 -0.6397
  909MOL0     C19888   4.264   0.096   9.667 -0.1643 -0.8245 -0.5713
  909MOL0     C19889   4.403   0.104   9.649  0.2685  0.4021  0.5540
  909MOL0     C19890   4.470   0.044   9.536 -0.2807 -0.4307  0.5374
  909MOL0     O19891   4.607   0.044   9.524  0.3475  0.5995  0.1678
  909MOL0     C19892   4.665   0.173   9.560  0.2474  0.3766  0.0181
  909MOL0     C19893   4.801   0.173   9.491  0.0991 -0.0784  0.3982
  909MOL0     C19894   4.893   0.288   9.535 -0.2288  0.1269 -0.3151
  909MOL0     C19895   5.020   0.304   9.443  0.3635  0.2892 -0.0405
  909MOL0     C19896   5.108   0.422   9.492  0.2917  0.3286 -0.8142
  909MOL0     C19897   5.247   0.379   9.543 -0.3955  0.4802  0.7154
  909MOL0     C19898   5.348   0.382   9.422  1.0017  0.7021  0.3486
  909MOL0     C19899   5.495   0.358   9.467 -0.3217 -0.6945  0.6761
  909MOL0    Cl19900   5.543   0.513   9.524 -0.3063  0.1511 -0.0949
  909MOL0     C19901   4.384   0.003   9.432 -0.1908 -0.1697 -0.4366
  909MOL0     C19902   4.243   0.004   9.447  0.4143 -0.2315 -0.1474
  909MOL0     O19903   4.045   0.256   9.507 -0.3346 -0.1466 -0.1435
  909MOL0     C19904   3.777   0.074   9.643  0.0353 -1.2741  0.0243
  909MOL0     C19905   3.641   0.061   9.670 -0.2874  0.7048  0.2325
  909MOL0     N19906   2.934   0.383   9.928  0.3928 -1.1001  0.7380
  909MOL0     N19907   2.881   0.321  10.022 -0.7419  0.5884  0.3263
  909MOL0     C19908   1.690   0.350   9.994 -0.5478 -0.3416  0.1367
  909MOL0     C19909   1.556   0.357   9.993 -0.0108  0.1297 -0.0079
  909MOL0     C19910   1.108   0.305   9.977  1.3220 -0.3031  0.2665
  909MOL0     C19911   1.059   0.174   9.989 -0.7535 -0.1097 -0.6882
  909MOL0     C19912   0.920   0.145   9.985  0.2201  0.2831 -0.0190
  909MOL0     C19913   0.827   0.249   9.961  0.4341 -0.1806 -0.3925
  909MOL0     O19914   0.699   0.200   9.943 -0.6043 -0.1908 -1.0764
  909MOL0     C19915   0.592   0.282   9.975  0.0218  0.2588  0.6281
  909MOL0     C19916   0.462   0.196  10.005  0.6173 -0.5314 -0.5100
  909MOL0     C19917   0.341   0.260  10.091  0.6773 -0.0222  0.5824
  909MOL0     C19918   0.218   0.179  10.079  1.1059  0.2285 -0.5224
  909MOL0     C19919   0.101   0.250  10.120  0.5296 -0.0463  0.2653
  909MOL0     C19920   0.004   0.315  10.163  0.0136  0.1825 -0.0330
  909MOL0     C19921   0.872   0.380   9.969  0.7359 -0.2670 -0.1354
  909MOL0     C19922   1.009   0.408   9.977  0.5017  0.1301 -0.3985
  909MOL0     H19923   1.486   0.034   9.925 -1.6026  1.3800 -1.2274
  909MOL0     H19924   1.734   0.016   9.926  2.1594  2.1091 -1.6347
  909MOL0     H19925   1.940   0.112   9.817  0.6039 -2.4078  0.7120
  909MOL0     H19926   1.951   0.053   9.981 -2.2302 -0.0954 -2.6271
  909MOL0     H19927   2.126   0.266   9.885  1.3711 -0.3697  0.1269
  909MOL0     H19928   2.175   0.096   9.859 -0.4425 -0.2871 -0.8997
  909MOL0     H19929   2.131   0.070  10.118  3.1151 -1.8676 -1.3349
  909MOL0     H19930   2.150   0.248  10.108  0.3760 -0.7028  2.0136
  909MOL0     H19931   2.357   0.155  10.168 -0.3243 -1.0593  0.5703
  909MOL0     H19932   2.326   0.027  10.038 -5.3306 -0.2608  1.8480
  909MOL0     H19933   2.351   0.312   9.938 -0.2904 -0.4094  1.8478
  909MOL0     H19934   2.405   0.157   9.867  2.9329  1.0906 -0.3695
  909MOL0     H19935   2.552   0.266  10.110  0.3398 -1.8483  0.6559
  909MOL0     H19936   2.609   0.301   9.951 -0.2812  0.7409  0.9345
  909MOL0     H19937   2.567   0.012  10.045  2.9818 -3.8574 -2.7953
  909MOL0     H19938   2.628   0.056   9.888 -1.7014 -0.8730 -0.0498
  909MOL0     H19939   2.826  -0.005  10.018  0.1943  0.4382  1.1285
  909MOL0     H19940   2.786   0.111  10.143  2.8695  0.2868 -0.2690
  909MOL0     H19941   2.864   0.112   9.766  1.4833 -0.0319 -0.3968
  909MOL0     H19942   2.982   0.497   9.705 -1.5755 -1.3119  0.8943
  909MOL0     H19943   2.945   0.364   9.596 -3.0097  2.0265  0.0507
  909MOL0     H19944   3.186   0.412   9.780 -0.0193 -1.6188  0.2207
  909MOL0     H19945   3.173   0.437   9.604 -1.6217  1.2143 -0.1536
  909MOL0     H19946   3.205   0.173   9.765  0.5806 -0.7147  0.6022
  909MOL0     H19947   3.158   0.174   9.596 -3.2527  3.6582 -0.6257
  909MOL0     H19948   3.397   0.339   9.682 -2.5813  2.1433 -0.4231
  909MOL0     H19949   3.343   0.287   9.512  0.7771 -1.2228 -0.1847
  909MOL0     H19950   3.544   0.273   9.433  1.4629  3.6558  1.2751
  909MOL0     H19951   3.787   0.301   9.408  1.8014  1.7769  1.6245
  909MOL0     H19952   4.232   0.135   9.763  0.6995 -0.4424 -0.4368
  909MOL0     H19953   4.452   0.143   9.738 -1.0015 -1.9880  2.4237
  909MOL0     H19954   4.687   0.168   9.667  0.3814 -1.5178 -0.0735
  909MOL0     H19955   4.595   0.254   9.538  0.5711  0.2582 -1.5894
  909MOL0     H19956   4.777   0.176   9.384  0.7987 -0.1423  0.2356
  909MOL0     H19957   4.857   0.079   9.494 -1.6039 -1.1777 -0.6330
  909MOL0     H19958   4.932   0.280   9.636 -3.2612 -1.2547  0.8804
  909MOL0     H19959   4.830   0.378   9.540  1.0643  0.9768  1.1503
  909MOL0     H19960   5.075   0.209   9.435  0.5764  0.5995 -4.0782
  909MOL0     H19961   4.985   0.336   9.345  0.0166 -0.4195 -0.1547
  909MOL0     H19962   5.054   0.473   9.572 -0.9206  0.7749 -1.8739
  909MOL0     H19963   5.113   0.490   9.406 -1.3421  3.5925  1.4439
  909MOL0     H19964   5.242   0.280   9.590 -1.2951  0.5005  0.6786
  909MOL0     H19965   5.287   0.451   9.615  2.3825 -0.4945  0.2657
  909MOL0     H19966   5.324   0.299   9.355 -1.0180  2.9679 -1.9597
  909MOL0     H19967   5.342   0.473   9.362  1.0367  1.0923  0.9229
  909MOL0     H19968   5.567   0.334   9.388  0.2477  3.8544 -0.4827
  909MOL0     H19969   5.517   0.280   9.541  3.2100 -0.9434 -0.4305
  909MOL0     H19970   4.440  -0.034   9.347  1.4006 -0.7824  0.8309
  909MOL0     H19971   4.181  -0.036   9.367  0.6761 -0.1258 -0.4068
  909MOL0     H19972   3.844   0.020   9.710  1.0920 -2.2503 -1.7314
  909MOL0     H19973   3.593  -0.011   9.736 -1.1704  0.6776 -0.4277
  909MOL0     H19974   1.745   0.436  10.032  1.6888  0.6503 -4.5851
  909MOL0     H19975   1.511   0.451  10.026 -0.1914  0.5877 -1.4956
  909MOL0     H19976   1.123   0.086   9.990 -1.5743 -0.8042  2.3255
  909MOL0     H19977   0.882   0.043   9.988 -1.4190  0.8709  0.3376
  909MOL0     H19978   0.574   0.354   9.895  3.2665  1.6965  1.0595
  909MOL0     H19979   0.609   0.355  10.055  0.8198  2.0626 -1.1128
  909MOL0     H19980   0.427   0.156   9.910  2.7463  1.1440 -2.1221
  909MOL0     H19981   0.498   0.114  10.069  2.0164  0.5127  0.0999
  909MOL0     H19982   0.319   0.351  10.034 -0.0790 -0.9739 -0.6987
  909MOL0     H19983   0.347   0.280  10.198 -4.2286  1.1095  0.8726
  909MOL0     H19984   0.214   0.147   9.975 -2.0036  1.6894 -0.9619
  909MOL0     H19985   0.223   0.090  10.143  0.3065  0.5354 -0.0245
  909MOL0     H19986  -0.083   0.374  10.183 -0.8677 -0.3491 -2.0834
  909MOL0     H19987   0.796   0.457   9.975 -0.3719 -1.3478  0.2722
  909MOL0     H19988   1.027   0.514   9.962 -3.0672  0.6948 -1.5232
  910MOL0     O19989   8.441   2.520   4.863 -0.2081  0.0639  0.6769
  910MOL0     C19990   8.361   2.605   4.836 -0.4721  0.1610 -0.2885
  910MOL0     O19991   8.363   2.727   4.906 -0.9655 -0.3045 -0.3578
  910MOL0     C19992   8.460   2.744   5.009  0.3258  1.0662  0.2982
  910MOL0     C19993   8.451   2.672   5.129 -0.2786 -0.1384  0.6570
  910MOL0     C19994   8.547   2.691   5.234 -0.7765  0.8194  1.2094
  910MOL0     C19995   8.649   2.791   5.212 -1.1619  0.1109  0.2172
  910MOL0     O19996   8.730   2.817   5.314 -0.3642  0.0162 -0.3613
  910MOL0     C19997   8.870   2.811   5.285 -0.0619  0.1875  0.1644
  910MOL0     C19998   8.936   2.707   5.369  0.6084 -0.4400 -0.0478
  910MOL0     C19999   8.911   2.726   5.514 -0.5330  0.0210  0.5653
  910MOL0     C20000   9.023   2.670   5.604 -0.0807 -0.0477 -0.0230
  910MOL0     C20001   9.003   2.691   5.751  0.0557  0.2060  0.3900
  910MOL0     C20002   9.081   2.575   5.828  0.5585  0.4233  0.5524
  910MOL0     C20003   9.231   2.562   5.790  0.4581  0.1403  0.4401
  910MOL0     C20004   9.313   2.486   5.892  0.1753  0.2822 -0.4217
  910MOL0     N20005   9.365   2.578   6.002  0.1143  0.6244  0.8073
  910MOL0     C20006   9.317   2.603   6.124  0.6984  0.6787 -0.0246
  910MOL0     C20007   9.405   2.691   6.177 -0.7355 -0.1734  0.8430
  910MOL0     C20008   9.403   2.740   6.318  0.9580 -0.9252 -0.4544
  910MOL0     C20009   9.529   2.830   6.360  0.1620  0.0588  0.4649
  910MOL0     C20010   9.523   2.877   6.494  0.0372  0.4216 -0.9378
  910MOL0     C20011   9.512   2.760   6.600 -0.2344 -0.7082 -0.1001
  910MOL0     O20012   9.568   2.798   6.727 -0.3982  0.1425  1.1211
  910MOL0     C20013   9.708   2.829   6.730  0.3730 -1.3452 -0.1185
  910MOL0     C20014   9.802   2.786   6.637  0.3699 -0.4656  0.1819
  910MOL0     C20015   9.942   2.790   6.653  0.2058 -0.3313  0.4566
  910MOL0     C20016   9.999   2.842   6.767 -0.4362 -0.2253 -1.5972
  910MOL0     C20017  10.149   2.823   6.785 -0.0159  0.7376 -0.2249
  910MOL0     O20018  10.214   2.747   6.691 -0.5140 -0.0406  0.5068
  910MOL0     C20019  10.346   2.706   6.704 -0.0183  0.7988 -0.8169
  910MOL0     C20020  10.380   2.568   6.703  0.2344 -0.4561  0.5830
  910MOL0     C20021  10.511   2.526   6.710  0.4415 -0.1343 -0.3240
  910MOL0     C20022  10.613   2.623   6.719  0.7021  0.5358 -0.0518
  910MOL0     O20023  10.743   2.594   6.740  0.5717  0.7359  0.0943
  910MOL0     C20024  10.815   2.572   6.621  0.1556  0.2904 -0.0088
  910MOL0     C20025  10.955   2.609   6.664 -0.8654  0.1106 -0.3866
  910MOL0     C20026  11.055   2.572   6.550  0.9016  0.4760  0.5203
  910MOL0     C20027  11.133   2.438   6.563 -0.0298 -0.0500 -0.0093
  910MOL0     C20028  11.245   2.425   6.460  0.0266 -0.2932 -0.5944
  910MOL0     C20029  11.288   2.278   6.425  0.9021 -0.3601 -0.0573
  910MOL0     C20030  11.345   2.201   6.542  0.3137 -0.6091 -0.4684
  910MOL0     C20031  11.461   2.275   6.611  0.1412 -1.6023 -0.7237
  910MOL0    Cl20032  11.536   2.154   6.717 -0.4640  0.2464  0.1967
  910MOL0     C20033  10.577   2.761   6.704  0.1784  0.6405 -1.0814
  910MOL0     C20034  10.443   2.806   6.714 -0.5171 -0.7418  0.8182
  910MOL0     O20035  10.202   2.870   6.885  0.6581  0.4413 -0.5161
  910MOL0     C20036   9.902   2.899   6.863 -0.4501  0.1304  0.5046
  910MOL0     C20037   9.760   2.887   6.845 -0.3435 -0.1972 -0.2607
  910MOL0     N20038   9.504   2.721   6.089  0.8217  0.2202  0.3423
  910MOL0     N20039   9.480   2.651   5.983 -0.1061 -0.3938 -0.0645
  910MOL0     C20040   8.653   2.867   5.094  0.3614 -1.0658  0.6558
  910MOL0     C20041   8.554   2.843   4.990  0.2368  0.1395 -0.0569
  910MOL0     C20042   8.269   2.578   4.727  0.1241 -0.1188 -0.3589
  910MOL0     C20043   8.302   2.497   4.622  0.0732  0.2494  0.1024
  910MOL0     C20044   8.212   2.486   4.514  0.1011  0.6877  0.1517
  910MOL0     C20045   8.089   2.553   4.508  0.2065  0.6589 -0.0426
  910MOL0     O20046   8.007   2.536   4.399  0.2557 -0.1411 -0.7935
  910MOL0     C20047   7.865   2.526   4.416 -0.0243 -0.3991  0.0271
  910MOL0     C20048   7.820   2.426   4.526 -0.9972 -1.3771 -0.2836
  910MOL0     C20049   7.669   2.410   4.536  0.7638 -0.1763  0.0562
  910MOL0     C20050   7.585   2.536   4.566  0.2865 -0.3206  0.6515
  910MOL0     C20051   7.629   2.602   4.694 -0.1783 -0.2142  0.9803
  910MOL0     C20052   7.675   2.652   4.799  0.1035 -0.8441 -0.2098
  910MOL0     C20053   8.074   2.647   4.609  0.1132 -0.0364 -0.3137
  910MOL0     C20054   8.159   2.657   4.718 -0.1229  0.0734  0.5505
  910MOL0     H20055   8.373   2.599   5.147 -0.6301 -0.0939 -0.5826
  910MOL0     H20056   8.541   2.639   5.329  1.9899 -0.4615  0.7618
  910MOL0     H20057   8.914   2.911   5.299 -0.1437  0.5705 -1.9984
  910MOL0     H20058   8.890   2.789   5.180 -1.0234  0.0006  0.0164
  910MOL0     H20059   9.040   2.728   5.342 -0.0332  1.2290 -1.4319
  910MOL0     H20060   8.902   2.609   5.334 -3.4407  0.6265  0.4187
  910MOL0     H20061   8.822   2.665   5.535 -0.6734  1.1828  3.9642
  910MOL0     H20062   8.891   2.831   5.536 -0.1841  0.6711 -1.8961
  910MOL0     H20063   9.030   2.563   5.582  0.2580 -0.7249  2.9108
  910MOL0     H20064   9.122   2.707   5.576 -0.1635  1.3914  1.4235
  910MOL0     H20065   8.897   2.708   5.769 -0.7428 -0.0349 -3.2961
  910MOL0     H20066   9.065   2.779   5.770 -1.7359  1.8340 -1.0320
  910MOL0     H20067   9.042   2.473   5.815  2.3695 -0.2896  0.3801
  910MOL0     H20068   9.074   2.592   5.936  0.5349  2.0548  0.3204
  910MOL0     H20069   9.244   2.496   5.704  0.0347 -0.8242  1.0868
  910MOL0     H20070   9.274   2.660   5.770  0.3877 -0.1028 -1.0264
  910MOL0     H20071   9.399   2.440   5.842  0.8321  1.0457 -0.0267
  910MOL0     H20072   9.250   2.408   5.937  0.3012  0.0354 -0.6746
  910MOL0     H20073   9.228   2.581   6.181  0.9284  1.4203  0.6382
  910MOL0     H20074   9.397   2.653   6.383 -1.7794 -0.9109 -0.5576
  910MOL0     H20075   9.310   2.797   6.335  1.5324 -1.0069  4.2068
  910MOL0     H20076   9.539   2.914   6.291 -2.9615  1.3541  1.4256
  910MOL0     H20077   9.613   2.761   6.348 -0.3540 -0.9104  2.0088
  910MOL0     H20078   9.614   2.936   6.500  1.5784 -1.7095 -1.9453
  910MOL0     H20079   9.438   2.945   6.505 -0.0475  0.1096  0.5344
  910MOL0     H20080   9.553   2.667   6.559  0.0466 -0.1334 -1.1675
  910MOL0     H20081   9.405   2.739   6.603 -0.3987 -0.4468 -2.2105
  910MOL0     H20082   9.779   2.722   6.552  1.5678  2.3456 -2.4624
  910MOL0     H20083  10.010   2.746   6.581  0.6467  0.2969  0.4810
  910MOL0     H20084  10.298   2.498   6.691 -0.5335  0.4624  0.3493
  910MOL0     H20085  10.518   2.418   6.719  0.4671 -0.0493  0.7592
  910MOL0     H20086  10.778   2.644   6.547  0.5455  1.0150  0.4765
  910MOL0     H20087  10.813   2.468   6.589  2.3242 -0.0943  0.9248
  910MOL0     H20088  10.982   2.558   6.757  0.7727  0.0994 -0.8312
  910MOL0     H20089  10.959   2.717   6.681  0.0439  0.5120 -2.7481
  910MOL0     H20090  11.120   2.659   6.541 -1.3155  2.2048  0.3713
  910MOL0     H20091  11.006   2.568   6.452  3.1814  1.1036 -0.7223
  910MOL0     H20092  11.174   2.433   6.664  0.1516  0.0646 -0.0756
  910MOL0     H20093  11.051   2.373   6.531  1.4039 -1.3711 -1.2150
  910MOL0     H20094  11.334   2.477   6.498 -1.1296 -1.3557  4.2251
  910MOL0     H20095  11.209   2.473   6.369 -2.0495 -2.4834 -1.0222
  910MOL0     H20096  11.353   2.276   6.337 -2.1197  2.1945 -2.6121
  910MOL0     H20097  11.189   2.233   6.409  2.1385 -3.9644  1.5081
  910MOL0     H20098  11.271   2.187   6.621  0.4717 -2.5355 -0.6157
  910MOL0     H20099  11.366   2.098   6.510  0.1875 -0.8335  0.1535
  910MOL0     H20100  11.435   2.364   6.668  0.9478 -2.3357  0.8343
  910MOL0     H20101  11.530   2.310   6.533  1.2544  1.0914  1.3300
  910MOL0     H20102  10.654   2.838   6.701  0.0623  0.8876  1.0025
  910MOL0     H20103  10.411   2.909   6.727 -0.6440 -0.7062  0.2204
  910MOL0     H20104   9.931   2.950   6.954 -0.9302 -1.0748  1.3511
  910MOL0     H20105   9.696   2.930   6.921 -1.2152 -0.5887 -0.7574
  910MOL0     H20106   8.726   2.945   5.070 -0.9464 -0.1927 -0.6790
  910MOL0     H20107   8.565   2.897   4.896  0.1229  1.0753  0.4516
  910MOL0     H20108   8.383   2.425   4.614 -0.5982 -0.3670 -1.8899
  910MOL0     H20109   8.238   2.415   4.436  1.9504 -0.6812  1.9019
  910MOL0     H20110   7.820   2.495   4.321 -2.9961  1.7076  0.6067
  910MOL0     H20111   7.832   2.629   4.436  1.6454  0.2509 -0.4096
  910MOL0     H20112   7.872   2.331   4.508  1.9739  0.0873 -0.0996
  910MOL0     H20113   7.852   2.459   4.626 -1.3294 -1.9408  0.0151
  910MOL0     H20114   7.655   2.332   4.612 -2.1655 -1.8776 -2.0345
  910MOL0     H20115   7.636   2.361   4.444  0.9631 -2.1086  0.9473
  910MOL0     H20116   7.608   2.601   4.481  0.2635 -0.4416  0.5508
  910MOL0     H20117   7.477   2.526   4.579 -0.0349  0.7787 -0.8982
  910MOL0     H20118   7.729   2.694   4.882  2.4048  0.6550 -2.3118
  910MOL0     H20119   7.997   2.723   4.604 -0.3771 -0.4454  0.6943
  910MOL0     H20120   8.135   2.732   4.792  0.4800 -0.8673  1.7424
  911MOL0     O20121   2.536   4.862   5.904 -0.0537 -0.3225  0.3328
  911MOL0     C20122   2.464   4.918   5.821 -0.1947  0.3236  0.7710
  911MOL0     O20123   2.506   4.997   5.721  0.1858 -0.8614  0.0747
  911MOL0     C20124   2.635   5.006   5.689 -0.2856 -0.2867  0.7099
  911MOL0     C20125   2.681   4.947   5.570  0.0398  1.0890 -0.1578
  911MOL0     C20126   2.815   4.973   5.525  0.0442 -0.0421 -0.9155
  911MOL0     C20127   2.900   5.053   5.605 -0.0692 -0.1204 -0.2897
  911MOL0     O20128   3.022   5.083   5.555 -0.5983  0.5955 -0.1253
  911MOL0     C20129   3.134   5.115   5.645 -0.0114  0.3681  0.9824
  911MOL0     C20130   3.264   5.147   5.564 -0.8317 -0.1133  1.0559
  911MOL0     C20131   3.323   5.023   5.490  0.8765  0.1803 -0.5106
  911MOL0     C20132   3.468   5.048   5.440 -0.0290 -0.1097 -0.0220
  911MOL0     C20133   3.577   5.045   5.551 -0.2513 -0.1347 -0.1874
  911MOL0     C20134   3.603   4.913   5.619  0.1073  0.4683 -0.0772
  911MOL0     C20135   3.636   4.796   5.529 -0.0907 -0.5499  0.5180
  911MOL0     C20136   3.659   4.658   5.603 -0.7538  0.0196 -0.5649
  911MOL0     N20137   3.528   4.611   5.654  0.4184  0.3693  0.8698
  911MOL0     C20138   3.450   4.657   5.754 -0.6951  0.4298 -0.2300
  911MOL0     C20139   3.344   4.581   5.758  0.1442 -0.0432 -0.2245
  911MOL0     C20140   3.234   4.587   5.862 -0.0163 -0.3078 -0.0090
  911MOL0     C20141   3.151   4.714   5.837  0.1444 -0.5724 -0.5558
  911MOL0     C20142   3.066   4.694   5.705 -0.3357  0.3478  0.6896
  911MOL0     C20143   2.930   4.622   5.726  0.1564 -0.2357  0.3823
  911MOL0     O20144   2.870   4.597   5.593  0.7379 -0.0911  0.3947
  911MOL0     C20145   2.733   4.566   5.597 -0.4059 -0.4350  0.4741
  911MOL0     C20146   2.667   4.581   5.473  0.0870 -0.3109  0.1252
  911MOL0     C20147   2.525   4.576   5.473  0.3794  0.5756  0.0379
  911MOL0     C20148   2.450   4.535   5.581  0.6411  0.2178  0.3885
  911MOL0     C20149   2.301   4.502   5.573 -0.3226 -0.4908  0.2850
  911MOL0     O20150   2.231   4.439   5.668  0.0922  0.0463 -0.1147
  911MOL0     C20151   2.092   4.441   5.660  0.0960 -0.0758  0.6294
  911MOL0     C20152   2.023   4.553   5.682  1.6594 -0.0864 -0.5440
  911MOL0     C20153   1.884   4.557   5.673  0.2475 -0.2685  0.3988
  911MOL0     C20154   1.810   4.435   5.657 -0.6662 -0.4244 -0.2217
  911MOL0     O20155   1.669   4.449   5.635  0.0484 -0.5383  0.4242
  911MOL0     C20156   1.580   4.351   5.685 -0.6498  0.4676 -0.2037
  911MOL0     C20157   1.428   4.390   5.671 -0.1966  0.2632  0.0417
  911MOL0     C20158   1.402   4.545   5.703 -0.4848  0.5468 -0.5272
  911MOL0     C20159   1.254   4.583   5.723  0.6624 -0.7419 -0.3350
  911MOL0     C20160   1.248   4.736   5.753  0.1038 -0.9294 -0.0217
  911MOL0     C20161   1.109   4.808   5.736  0.4304  0.5901  0.4285
  911MOL0     C20162   1.108   4.958   5.769 -0.9684 -0.9463 -0.3045
  911MOL0     C20163   0.978   5.030   5.753  0.2333 -1.2179  0.6942
  911MOL0    Cl20164   0.983   5.207   5.803 -0.3513 -0.0874 -0.3412
  911MOL0     C20165   1.875   4.313   5.640 -0.6454 -0.0311 -0.2364
  911MOL0     C20166   2.019   4.320   5.633 -0.4416 -0.1870  0.2836
  911MOL0     O20167   2.239   4.562   5.479  0.2702  1.1942 -0.4828
  911MOL0     C20168   2.525   4.522   5.704 -0.1645  0.6952  0.0686
  911MOL0     C20169   2.664   4.535   5.711  0.7804  0.2915  0.2231
  911MOL0     N20170   3.351   4.488   5.657 -0.2524 -0.2996 -0.9814
  911MOL0     N20171   3.460   4.506   5.596 -0.2827  0.7663 -0.1129
  911MOL0     C20172   2.856   5.093   5.731 -0.3389  0.3771  0.8217
  911MOL0     C20173   2.720   5.066   5.778  0.1954  0.0165 -0.4201
  911MOL0     C20174   2.325   4.890   5.847  0.0008 -0.0643 -0.1256
  911MOL0     C20175   2.235   4.920   5.738  0.3043 -0.2951 -0.5130
  911MOL0     C20176   2.098   4.911   5.765  0.4309  0.0089  0.0352
  911MOL0     C20177   2.051   4.870   5.889 -0.5900  0.6009 -1.1863
  911MOL0     O20178   1.918   4.864   5.892  0.8063  0.0749 -0.2705
  911MOL0     C20179   1.851   4.790   5.991 -0.6001  0.4703  0.5124
  911MOL0     C20180   1.708   4.851   6.001 -0.4966  0.0552  0.3692
  911MOL0     C20181   1.632   4.818   5.865 -0.5694  0.0489 -0.4143
  911MOL0     C20182   1.611   4.944   5.774  0.3169 -0.7684 -0.4006
  911MOL0     C20183   1.496   5.029   5.819 -0.0752  0.5776  0.1166
  911MOL0     C20184   1.403   5.101   5.844  0.0363  0.0825  0.0700
  911MOL0     C20185   2.140   4.830   5.988  0.1669 -0.1389 -0.5878
  911MOL0     C20186   2.278   4.848   5.971  1.0144 -1.2960 -0.7971
  911MOL0     H20187   2.618   4.885   5.507  0.8147  0.2119 -0.0805
  911MOL0     H20188   2.844   4.917   5.436 -1.1002  1.1162 -2.0484
  911MOL0     H20189   3.155   5.034   5.715 -1.8881  0.4022  1.6411
  911MOL0     H20190   3.104   5.210   5.690  1.8231  3.5965 -3.7932
  911MOL0     H20191   3.335   5.184   5.638  1.7439 -1.2496 -0.7010
  911MOL0     H20192   3.240   5.232   5.500  0.9644  0.9352  1.7169
  911MOL0     H20193   3.252   5.010   5.408  0.2145  2.4746 -0.3792
  911MOL0     H20194   3.319   4.936   5.556  0.9092 -0.2541 -1.0701
  911MOL0     H20195   3.493   4.977   5.361 -0.2601 -1.2376  0.8821
  911MOL0     H20196   3.464   5.146   5.393  2.0166 -0.2591 -0.6064
  911MOL0     H20197   3.563   5.122   5.627 -2.5492 -1.2937  0.6635
  911MOL0     H20198   3.668   5.081   5.502 -0.2864  2.0307  1.1951
  911MOL0     H20199   3.508   4.891   5.670  0.6845 -3.8767 -0.5027
  911MOL0     H20200   3.672   4.917   5.704 -1.9806  0.5434  1.7274
  911MOL0     H20201   3.554   4.778   5.459  0.2920 -1.2580  0.2441
  911MOL0     H20202   3.723   4.810   5.465 -0.1258 -3.9782 -0.4723
  911MOL0     H20203   3.736   4.666   5.679 -0.7844  0.6449 -0.5981
  911MOL0     H20204   3.695   4.579   5.536  1.3564 -0.7725  1.3706
  911MOL0     H20205   3.461   4.742   5.822  1.4900 -1.2317  1.6805
  911MOL0     H20206   3.272   4.581   5.965  1.4340  0.9638 -0.4216
  911MOL0     H20207   3.180   4.495   5.837 -1.7341  0.4899  0.6454
  911MOL0     H20208   3.213   4.803   5.825 -0.9583  0.1909 -0.8011
  911MOL0     H20209   3.083   4.739   5.919 -0.3800  0.0400 -1.1655
  911MOL0     H20210   3.055   4.791   5.656  1.4341 -0.2742 -1.0475
  911MOL0     H20211   3.123   4.639   5.629  0.0537  0.4837  0.8853
  911MOL0     H20212   2.874   4.676   5.802 -0.2296  1.3065 -0.9381
  911MOL0     H20213   2.953   4.525   5.771  1.4581 -1.3433 -2.3879
  911MOL0     H20214   2.714   4.596   5.377  3.1942  1.4244  1.7267
  911MOL0     H20215   2.475   4.586   5.378  2.2225 -1.8046 -1.2980
  911MOL0     H20216   2.066   4.651   5.701 -2.9622  2.5180 -1.6623
  911MOL0     H20217   1.825   4.649   5.677 -1.1441 -1.0509 -1.0539
  911MOL0     H20218   1.600   4.319   5.788  0.8737  1.3440 -0.1930
  911MOL0     H20219   1.603   4.259   5.630  0.5366 -1.1042  2.6842
  911MOL0     H20220   1.360   4.332   5.735  0.0682 -1.8998 -1.5221
  911MOL0     H20221   1.404   4.362   5.568 -1.8560  0.8517  0.2321
  911MOL0     H20222   1.442   4.606   5.622  0.5002 -0.6391 -0.9595
  911MOL0     H20223   1.449   4.560   5.801 -4.0557 -0.3656  1.5501
  911MOL0     H20224   1.188   4.567   5.637 -1.9639  1.6783  1.0501
  911MOL0     H20225   1.203   4.528   5.802 -3.6399 -0.7535 -2.7833
  911MOL0     H20226   1.325   4.790   5.696 -0.4937 -0.2530 -0.2003
  911MOL0     H20227   1.269   4.751   5.860 -2.1080 -1.2546  0.5034
  911MOL0     H20228   1.032   4.768   5.802  2.1681  0.1233  2.2591
  911MOL0     H20229   1.079   4.785   5.633 -0.1242  1.0731  0.4753
  911MOL0     H20230   1.126   4.983   5.874  0.3864  2.1497 -1.1770
  911MOL0     H20231   1.185   5.004   5.707 -1.4210  0.0372 -0.1558
  911MOL0     H20232   0.901   4.980   5.814  0.4442 -1.1033  1.0517
  911MOL0     H20233   0.946   5.026   5.648 -1.7532 -1.7556  1.2618
  911MOL0     H20234   1.824   4.218   5.651 -0.0081 -0.1984  1.6808
  911MOL0     H20235   2.079   4.231   5.613 -0.2726 -0.0919  0.3598
  911MOL0     H20236   2.463   4.495   5.789  1.5562 -2.3639  0.4763
  911MOL0     H20237   2.714   4.511   5.805  1.9356 -1.7307 -0.8598
  911MOL0     H20238   2.922   5.147   5.799  1.4015 -0.8848  0.2323
  911MOL0     H20239   2.683   5.082   5.879 -0.4060 -0.7260 -0.5059
  911MOL0     H20240   2.274   4.953   5.642  2.7409 -1.2801  0.0650
  911MOL0     H20241   2.017   4.938   5.697 -1.2943 -0.9655  1.5947
  911MOL0     H20242   1.904   4.793   6.086  1.7175  1.1751 -0.7150
  911MOL0     H20243   1.842   4.682   5.971  0.1633 -0.0069  2.4903
  911MOL0     H20244   1.651   4.805   6.083  1.2952 -1.1592  0.9913
  911MOL0     H20245   1.709   4.960   6.011 -5.8214  0.7453 -2.5968
  911MOL0     H20246   1.540   4.766   5.894  0.3332 -1.7873 -0.6728
  911MOL0     H20247   1.692   4.747   5.807  1.2316  1.9336 -0.9812
  911MOL0     H20248   1.701   5.005   5.772  0.5623 -0.9977  1.5983
  911MOL0     H20249   1.585   4.909   5.674 -0.5222 -1.4396  0.0396
  911MOL0     H20250   1.313   5.157   5.857  0.1082 -0.1795  2.0129
  911MOL0     H20251   2.110   4.776   6.077  1.3303 -1.9047 -1.2033
  911MOL0     H20252   2.348   4.826   6.050  1.1153 -0.1584 -0.5608
  912MOL0     O20253   6.339   1.745   4.362  0.8279 -0.4260 -0.1029
  912MOL0     C20254   6.221   1.718   4.394 -0.4006  0.7622  0.0243
  912MOL0     O20255   6.176   1.682   4.515  0.4032  0.3588  0.7961
  912MOL0     C20256   6.257   1.671   4.625 -0.2525  0.5722 -0.2129
  912MOL0     C20257   6.381   1.606   4.629  0.9040 -0.5602  0.1628
  912MOL0     C20258   6.457   1.596   4.746  0.1210 -0.0081 -0.1183
  912MOL0     C20259   6.403   1.656   4.861  0.1845 -0.0014 -1.0327
  912MOL0     O20260   6.475   1.644   4.981  0.1111 -0.8745 -0.1356
  912MOL0     C20261   6.602   1.712   4.983 -0.2771 -1.0833 -0.4349
  912MOL0     C20262   6.581   1.822   5.090  1.0928 -0.7637  0.2691
  912MOL0     C20263   6.687   1.934   5.096 -0.8884  0.1508  0.2866
  912MOL0     C20264   6.650   2.051   5.193  0.5943 -0.8422 -0.5446
  912MOL0     C20265   6.649   2.011   5.344 -0.3852  0.6719  0.4531
  912MOL0     C20266   6.782   1.946   5.388  1.0280 -0.0224  0.5615
  912MOL0     C20267   6.787   1.938   5.545  0.8006 -0.0713  0.7056
  912MOL0     C20268   6.890   1.857   5.619  0.4205 -0.3738 -0.0527
  912MOL0     N20269   7.026   1.867   5.580  0.4393 -0.2734 -0.1085
  912MOL0     C20270   7.129   1.918   5.660  0.2675  0.0818  0.9000
  912MOL0     C20271   7.244   1.894   5.590 -0.2138  0.2131 -0.3849
  912MOL0     C20272   7.376   1.959   5.627 -0.0677  1.1584 -1.1519
  912MOL0     C20273   7.420   2.087   5.556 -0.2034 -0.2693  1.0384
  912MOL0     C20274   7.546   2.140   5.622 -0.3239 -0.1954 -0.1311
  912MOL0     C20275   7.576   2.292   5.595 -0.0912 -0.4703 -0.3954
  912MOL0     O20276   7.459   2.375   5.605 -0.5678 -0.4996  0.2776
  912MOL0     C20277   7.457   2.509   5.630 -1.2053 -0.7199 -0.9262
  912MOL0     C20278   7.336   2.580   5.631 -0.3967  1.2384 -0.8825
  912MOL0     C20279   7.336   2.723   5.632  0.0420 -0.1131  0.3649
  912MOL0     C20280   7.462   2.795   5.629  0.9753  1.1200 -0.0260
  912MOL0     C20281   7.445   2.944   5.618  0.3112  0.6580  0.2084
  912MOL0     O20282   7.333   3.003   5.672  0.3763 -0.4123 -0.0912
  912MOL0     C20283   7.302   3.137   5.641 -0.1290  0.1875 -0.1576
  912MOL0     C20284   7.175   3.171   5.599  0.1483 -0.2961 -0.3701
  912MOL0     C20285   7.141   3.304   5.583 -0.1053 -0.3225  0.0512
  912MOL0     C20286   7.234   3.400   5.594 -0.2098  0.3694 -0.2575
  912MOL0     O20287   7.210   3.532   5.564 -0.5147 -1.1703 -0.1584
  912MOL0     C20288   7.070   3.565   5.542  0.0377  0.5475 -0.4711
  912MOL0     C20289   7.064   3.709   5.563 -0.3095  0.0556  0.6561
  912MOL0     C20290   6.952   3.784   5.491  0.2259  0.4496  0.3600
  912MOL0     C20291   6.813   3.750   5.531 -0.9201 -0.7849  0.3397
  912MOL0     C20292   6.711   3.866   5.524 -0.5510 -0.2081 -0.9273
  912MOL0     C20293   6.573   3.810   5.564  0.1931 -0.1799 -0.2514
  912MOL0     C20294   6.473   3.925   5.590 -0.6720 -0.4601  0.2252
  912MOL0     C20295   6.337   3.875   5.642 -1.1867 -0.7097  0.0433
  912MOL0    Cl20296   6.301   3.711   5.571 -0.0785 -0.1280  0.1254
  912MOL0     C20297   7.358   3.369   5.638  0.6440 -0.3998 -0.3308
  912MOL0     C20298   7.397   3.239   5.668 -0.1889 -0.1294 -0.6498
  912MOL0     O20299   7.537   2.995   5.553 -0.6409 -0.1549 -0.1840
  912MOL0     C20300   7.581   2.717   5.618  0.8531  0.1612  0.1258
  912MOL0     C20301   7.575   2.581   5.612  0.9692  0.2261  0.4752
  912MOL0     N20302   7.225   1.811   5.485 -0.3856 -0.4997  0.1522
  912MOL0     N20303   7.093   1.791   5.482  0.2572 -1.0796 -0.5544
  912MOL0     C20304   6.272   1.700   4.861 -0.2125 -0.4673  0.0256
  912MOL0     C20305   6.198   1.714   4.745  0.1991  0.0511  0.7778
  912MOL0     C20306   6.113   1.711   4.291  0.6455  0.8716 -0.1685
  912MOL0     C20307   5.983   1.676   4.332  0.2369  0.3007 -0.2375
  912MOL0     C20308   5.877   1.680   4.239 -0.6475  0.0774 -0.6420
  912MOL0     C20309   5.893   1.714   4.108 -0.6338  0.0491  0.4873
  912MOL0     O20310   5.774   1.715   4.042 -0.5334 -0.0313  0.1916
  912MOL0     C20311   5.782   1.755   3.904  0.5654  0.0535  0.1032
  912MOL0     C20312   5.647   1.773   3.845 -1.3187 -0.0866  0.2127
  912MOL0     C20313   5.661   1.814   3.692 -0.2745  0.2748 -0.4309
  912MOL0     C20314   5.534   1.830   3.626  0.7863 -0.3240  0.2376
  912MOL0     C20315   5.450   1.715   3.634  1.1512  0.5785  0.3936
  912MOL0     C20316   5.384   1.606   3.629  0.0095 -0.3182 -0.0022
  912MOL0     C20317   6.027   1.738   4.065  0.4618  0.0605 -0.3281
  912MOL0     C20318   6.142   1.724   4.152  0.8236 -0.3671  0.2925
  912MOL0     H20319   6.413   1.566   4.534  0.1363  0.1351 -0.4009
  912MOL0     H20320   6.556   1.552   4.749  0.6028  1.1131  2.2118
  912MOL0     H20321   6.633   1.751   4.886  2.4559  2.3194  1.5289
  912MOL0     H20322   6.670   1.641   5.030 -1.5727  0.5413  4.5175
  912MOL0     H20323   6.588   1.776   5.189  2.7802 -1.0825  0.0285
  912MOL0     H20324   6.485   1.870   5.066  1.1226 -0.2281  1.1648
  912MOL0     H20325   6.693   1.971   4.994 -0.3274 -2.2693 -0.6270
  912MOL0     H20326   6.782   1.892   5.128 -0.9312  1.2658  2.0064
  912MOL0     H20327   6.719   2.135   5.192 -1.6945  1.1623 -1.2133
  912MOL0     H20328   6.553   2.092   5.161  0.0458  0.1500  2.1178
  912MOL0     H20329   6.569   1.942   5.372  1.2946 -0.9436  1.4890
  912MOL0     H20330   6.630   2.106   5.394  1.4351  0.6564  1.2205
  912MOL0     H20331   6.859   2.010   5.344 -0.6621 -0.1337 -2.8740
  912MOL0     H20332   6.793   1.844   5.350 -3.1573 -1.5962  2.8643
  912MOL0     H20333   6.782   2.041   5.581 -1.0290  0.0942  0.1247
  912MOL0     H20334   6.691   1.890   5.567 -0.4833  0.8032 -2.4360
  912MOL0     H20335   6.858   1.752   5.618  1.9365 -0.8749  0.9157
  912MOL0     H20336   6.878   1.896   5.721 -0.5525  1.9457 -0.9757
  912MOL0     H20337   7.103   1.979   5.746 -3.1250  2.2269 -1.3962
  912MOL0     H20338   7.456   1.883   5.624 -1.1704 -0.8322  5.1073
  912MOL0     H20339   7.374   1.984   5.733  0.8571  1.1346 -1.1161
  912MOL0     H20340   7.335   2.156   5.558 -0.6919 -0.7180 -1.5949
  912MOL0     H20341   7.439   2.062   5.452 -1.5318 -0.7989  0.8961
  912MOL0     H20342   7.527   2.134   5.730 -1.0318  1.5940 -0.1311
  912MOL0     H20343   7.627   2.072   5.594  0.3531 -0.1782  1.6259
  912MOL0     H20344   7.619   2.311   5.497 -0.1131  3.8288  0.2443
  912MOL0     H20345   7.648   2.334   5.666 -2.4242  2.3971  0.5107
  912MOL0     H20346   7.247   2.518   5.632  0.6147 -0.2730  0.8799
  912MOL0     H20347   7.238   2.768   5.631  0.9987  2.0628 -0.0757
  912MOL0     H20348   7.100   3.092   5.597  1.0691 -1.3062  1.6806
  912MOL0     H20349   7.036   3.320   5.560 -0.0547  0.5850  0.4360
  912MOL0     H20350   7.003   3.526   5.620  1.5977 -0.3012  0.5015
  912MOL0     H20351   7.031   3.528   5.447 -0.5411  1.8775 -0.7748
  912MOL0     H20352   7.159   3.749   5.526  0.4202 -0.5623  1.7984
  912MOL0     H20353   7.064   3.730   5.671  1.0726  1.6747  0.3862
  912MOL0     H20354   6.959   3.768   5.383 -2.9388 -1.7974  0.3412
  912MOL0     H20355   6.966   3.890   5.513 -0.6731  0.1354  2.7373
  912MOL0     H20356   6.778   3.667   5.470 -0.8371 -1.0165  0.6050
  912MOL0     H20357   6.826   3.717   5.635  1.4519  3.0804  1.5153
  912MOL0     H20358   6.704   3.908   5.423 -0.8136  1.9581 -0.0515
  912MOL0     H20359   6.741   3.953   5.583 -1.1413 -0.7356  0.1740
  912MOL0     H20360   6.586   3.746   5.652  2.9351 -1.0479 -1.1775
  912MOL0     H20361   6.534   3.749   5.482 -0.9879 -1.8899  1.5016
  912MOL0     H20362   6.512   3.983   5.674 -2.5136 -0.7003  1.2879
  912MOL0     H20363   6.470   3.996   5.507 -2.2255  0.4656  1.0306
  912MOL0     H20364   6.264   3.949   5.609 -0.1898 -0.8878 -2.8926
  912MOL0     H20365   6.352   3.878   5.751 -0.0899  2.4377 -0.0915
  912MOL0     H20366   7.433   3.443   5.664  0.0956 -0.8949  3.1903
  912MOL0     H20367   7.498   3.219   5.703 -0.8299 -0.7014  0.9542
  912MOL0     H20368   7.674   2.768   5.597  0.9522 -0.0135  0.1447
  912MOL0     H20369   7.666   2.525   5.595 -1.0221 -2.7751 -1.3366
  912MOL0     H20370   6.229   1.715   4.960  0.8115  0.4788  0.3482
  912MOL0     H20371   6.096   1.751   4.742  0.9486  2.2581 -0.1046
  912MOL0     H20372   5.964   1.649   4.435  0.5540  0.1573 -0.2153
  912MOL0     H20373   5.782   1.671   4.290  0.5108 -0.7145  1.5079
  912MOL0     H20374   5.833   1.683   3.839 -1.2265 -0.1144 -1.1873
  912MOL0     H20375   5.822   1.856   3.912 -0.4102  0.3428  5.3810
  912MOL0     H20376   5.597   1.677   3.860  0.3144 -0.8354  1.1080
  912MOL0     H20377   5.598   1.853   3.901  2.7935 -0.0784  4.4245
  912MOL0     H20378   5.725   1.746   3.635 -0.2113 -0.2815  0.2975
  912MOL0     H20379   5.698   1.916   3.692 -1.3337  0.6891  1.2801
  912MOL0     H20380   5.479   1.917   3.664  1.3926 -0.5422  1.6886
  912MOL0     H20381   5.550   1.845   3.519 -0.5043  0.2157  0.1023
  912MOL0     H20382   5.321   1.520   3.630 -2.1255  1.1454  0.6024
  912MOL0     H20383   6.052   1.762   3.962  1.1071  0.6867 -0.0301
  912MOL0     H20384   6.246   1.737   4.122  0.6256 -0.7034 -0.5738
  913MOL0     O20385   4.370   9.222   3.425 -0.3110  0.1547 -0.0496
  913MOL0     C20386   4.363   9.100   3.445  0.5018  0.5829  0.0432
  913MOL0     O20387   4.257   9.023   3.426 -0.4931 -0.4905 -0.7612
  913MOL0     C20388   4.139   9.068   3.392 -0.6850 -0.2593  0.0904
  913MOL0     C20389   4.027   9.017   3.458 -0.2145 -0.2246  0.4234
  913MOL0     C20390   3.899   9.064   3.408  0.1431  0.7589 -0.6037
  913MOL0     C20391   3.884   9.157   3.304 -0.1071 -0.6673  0.0904
  913MOL0     O20392   3.771   9.220   3.254 -0.2800 -0.0500 -0.3089
  913MOL0     C20393   3.650   9.220   3.327 -0.0993 -0.3279 -0.5104
  913MOL0     C20394   3.660   9.286   3.462  0.0924 -0.3844  0.3068
  913MOL0     C20395   3.524   9.314   3.528  0.8086 -0.4156 -0.3352
  913MOL0     C20396   3.418   9.387   3.436  0.1867 -0.0795  0.0041
  913MOL0     C20397   3.290   9.446   3.501 -0.1105  0.5642  0.2313
  913MOL0     C20398   3.184   9.339   3.540  0.7318  0.8964  0.4996
  913MOL0     C20399   3.045   9.396   3.588  0.1884  0.7662  0.1349
  913MOL0     C20400   2.975   9.289   3.665 -0.0843  0.2977 -0.6279
  913MOL0     N20401   2.831   9.319   3.701  0.2787  0.6787 -0.9007
  913MOL0     C20402   2.719   9.344   3.628  0.0317 -0.2320  0.4979
  913MOL0     C20403   2.613   9.324   3.716 -0.9869 -0.4223  0.2235
  913MOL0     C20404   2.474   9.319   3.685 -0.2717  0.1684 -0.1745
  913MOL0     C20405   2.408   9.450   3.735  0.7130 -0.2130 -0.1032
  913MOL0     C20406   2.257   9.433   3.754  0.5922  0.6304 -0.0066
  913MOL0     C20407   2.186   9.565   3.792 -0.4038 -0.1226  0.4033
  913MOL0     O20408   2.047   9.553   3.817  0.3912 -0.4914 -0.4662
  913MOL0     C20409   1.957   9.571   3.713 -0.3175 -0.4470  0.5718
  913MOL0     C20410   1.962   9.680   3.630 -0.5181 -0.5106  0.0783
  913MOL0     C20411   1.859   9.706   3.541 -0.7914  0.3411 -1.0296
  913MOL0     C20412   1.752   9.626   3.521 -0.1920 -1.0848  0.6414
  913MOL0     C20413   1.643   9.656   3.421  0.2277  0.1448  0.9460
  913MOL0     O20414   1.531   9.572   3.431 -0.1269 -0.9145  0.6724
  913MOL0     C20415   1.429   9.602   3.344 -0.6102  0.5227  1.0931
  913MOL0     C20416   1.296   9.581   3.380  0.0297  0.1495 -0.7354
  913MOL0     C20417   1.183   9.602   3.292 -0.1593  0.4174  0.1959
  913MOL0     C20418   1.212   9.640   3.163  0.7130 -1.0796 -0.1575
  913MOL0     O20419   1.130   9.678   3.063  0.1003 -0.2737  0.0702
  913MOL0     C20420   0.986   9.675   3.084  0.1986  0.2062  0.7229
  913MOL0     C20421   0.907   9.725   2.968  0.4427  0.5401  0.0799
  913MOL0     C20422   0.929   9.656   2.833  0.2261 -0.4714 -0.8663
  913MOL0     C20423   0.862   9.713   2.710 -0.5633 -0.0410  0.4197
  913MOL0     C20424   0.875   9.641   2.578 -0.2299  0.0029 -0.0727
  913MOL0     C20425   1.019   9.602   2.546  0.0963 -0.1353  0.2336
  913MOL0     C20426   1.030   9.529   2.410  0.3779 -0.1981 -0.5106
  913MOL0     C20427   1.175   9.493   2.383 -0.0990 -0.6243 -0.0117
  913MOL0    Cl20428   1.197   9.453   2.208  0.1771  0.2791 -0.1897
  913MOL0     C20429   1.344   9.640   3.121 -1.1295 -0.4694  0.0438
  913MOL0     C20430   1.451   9.620   3.204 -0.2200  0.6919 -0.4463
  913MOL0     O20431   1.659   9.746   3.336 -0.0096 -0.6744  0.7476
  913MOL0     C20432   1.751   9.517   3.597 -0.4885 -0.4028 -0.5708
  913MOL0     C20433   1.845   9.500   3.703  0.5142  0.9343  0.4175
  913MOL0     N20434   2.660   9.284   3.840  0.2621 -0.6871 -0.0686
  913MOL0     N20435   2.788   9.275   3.829  0.1218  0.0848 -0.0356
  913MOL0     C20436   4.000   9.193   3.231 -0.2204 -0.1798  0.6136
  913MOL0     C20437   4.127   9.146   3.274  0.3664  0.2632 -0.6856
  913MOL0     C20438   4.484   9.028   3.495  0.8468 -0.0061  0.5553
  913MOL0     C20439   4.469   8.903   3.542 -0.2268  1.2077 -0.8696
  913MOL0     C20440   4.584   8.818   3.575  0.0078 -0.4011 -0.7438
  913MOL0     C20441   4.710   8.877   3.569 -0.2015 -0.0763 -0.1819
  913MOL0     O20442   4.821   8.797   3.603 -0.0264  0.1763  0.1514
  913MOL0     C20443   4.919   8.861   3.688  0.5434  0.4132 -0.1793
  913MOL0     C20444   5.064   8.820   3.680  0.0137  0.3394  0.1555
  913MOL0     C20445   5.111   8.827   3.527  0.0592 -0.0375  0.3393
  913MOL0     C20446   5.224   8.730   3.503 -0.6000 -0.5642 -0.5934
  913MOL0     C20447   5.330   8.749   3.600  0.8863 -0.4159 -0.0186
  913MOL0     C20448   5.400   8.752   3.696 -0.0174 -0.0355 -0.1870
  913MOL0     C20449   4.721   9.012   3.535 -0.7579  0.7945 -0.0159
  913MOL0     C20450   4.606   9.092   3.508 -0.9264 -0.0590 -0.3401
  913MOL0     H20451   4.027   8.965   3.553 -0.6280  2.3644  1.9307
  913MOL0     H20452   3.817   9.030   3.471  2.7463 -2.6160  1.2709
  913MOL0     H20453   3.625   9.113   3.335  1.8249 -0.8462 -0.8705
  913MOL0     H20454   3.573   9.265   3.264  0.1495 -1.2475 -1.5024
  913MOL0     H20455   3.711   9.381   3.447  2.0694 -1.2968  0.9530
  913MOL0     H20456   3.721   9.219   3.523 -1.8897 -4.0963 -1.4422
  913MOL0     H20457   3.538   9.374   3.619 -1.5802 -0.8309  0.3705
  913MOL0     H20458   3.482   9.218   3.557 -1.9719  1.2291  1.5408
  913MOL0     H20459   3.470   9.474   3.394 -1.6097  1.0101 -0.0567
  913MOL0     H20460   3.393   9.321   3.353  1.3731  0.5051 -0.8458
  913MOL0     H20461   3.244   9.497   3.416 -2.6973  0.6665  1.5744
  913MOL0     H20462   3.311   9.513   3.585 -0.6908  0.8837  0.1280
  913MOL0     H20463   3.226   9.266   3.609 -0.2926 -0.0415  0.1684
  913MOL0     H20464   3.155   9.278   3.454 -1.3090  1.2539  0.8902
  913MOL0     H20465   3.056   9.485   3.650  0.2812  2.0749 -1.6923
  913MOL0     H20466   2.978   9.420   3.505  0.0993  0.7891  0.2126
  913MOL0     H20467   3.024   9.267   3.760 -0.4742 -0.9179 -0.6995
  913MOL0     H20468   2.984   9.199   3.604  1.8946  1.1054 -1.6524
  913MOL0     H20469   2.723   9.374   3.523 -0.4913  3.5318  1.3901
  913MOL0     H20470   2.430   9.236   3.740 -0.6626 -0.4037 -1.3236
  913MOL0     H20471   2.462   9.297   3.578  2.1776 -3.0572  0.0576
  913MOL0     H20472   2.427   9.530   3.663 -2.7770 -0.1680 -1.1337
  913MOL0     H20473   2.444   9.477   3.835 -0.5190  1.1805  0.0028
  913MOL0     H20474   2.213   9.394   3.662  2.5548 -0.9846 -0.3144
  913MOL0     H20475   2.240   9.365   3.838 -1.3795 -0.3027 -1.0869
  913MOL0     H20476   2.195   9.633   3.707 -1.6059 -2.2235 -1.5056
  913MOL0     H20477   2.231   9.617   3.877 -0.7528 -1.3357  1.3592
  913MOL0     H20478   2.045   9.747   3.651 -0.0281 -1.6213  1.9088
  913MOL0     H20479   1.862   9.799   3.485 -0.1972  0.9617  0.0256
  913MOL0     H20480   1.288   9.539   3.480  0.7033  1.3366 -0.1631
  913MOL0     H20481   1.081   9.598   3.330  0.7754  0.1212  2.8255
  913MOL0     H20482   0.967   9.731   3.176 -0.7602 -0.4771  0.9573
  913MOL0     H20483   0.966   9.568   3.097 -0.5071 -0.1406 -2.4760
  913MOL0     H20484   0.939   9.829   2.957  2.4294 -0.1828 -1.5416
  913MOL0     H20485   0.801   9.729   2.995  0.6124 -0.8410  1.0767
  913MOL0     H20486   0.893   9.554   2.849 -0.8963  0.1726  0.9457
  913MOL0     H20487   1.037   9.641   2.823  0.0780 -1.3722 -1.1915
  913MOL0     H20488   0.753   9.719   2.724 -0.7253  0.2445 -0.8516
  913MOL0     H20489   0.892   9.817   2.693 -0.1082 -0.0932  0.8681
  913MOL0     H20490   0.833   9.700   2.496  0.0158  0.2081 -0.0534
  913MOL0     H20491   0.822   9.549   2.601 -2.0490  1.4984  2.1973
  913MOL0     H20492   1.060   9.539   2.626  3.3297  0.5351 -0.7592
  913MOL0     H20493   1.073   9.697   2.540  0.6947 -0.5620 -3.2425
  913MOL0     H20494   0.973   9.435   2.413 -0.1270  0.0496 -1.6284
  913MOL0     H20495   0.997   9.595   2.329  1.3328 -1.1444 -1.7222
  913MOL0     H20496   1.216   9.412   2.443 -0.1759 -0.6920 -0.0493
  913MOL0     H20497   1.227   9.586   2.406 -1.4579  0.9423 -2.6814
  913MOL0     H20498   1.364   9.657   3.016  0.6186  1.5136  0.6402
  913MOL0     H20499   1.547   9.627   3.153  0.6543  2.4712  1.3142
  913MOL0     H20500   1.673   9.447   3.569 -0.6473 -0.4757  0.0307
  913MOL0     H20501   1.830   9.410   3.762  3.0404 -0.7959 -1.3812
  913MOL0     H20502   3.979   9.262   3.150 -1.1658 -0.4688  0.5966
  913MOL0     H20503   4.210   9.173   3.210 -0.6438  1.8716 -1.4000
  913MOL0     H20504   4.373   8.852   3.542 -0.1996  1.1209  0.5002
  913MOL0     H20505   4.569   8.711   3.587  0.7353 -0.7154 -2.3664
  913MOL0     H20506   4.876   8.822   3.781  3.9598 -5.6837 -0.6646
  913MOL0     H20507   4.904   8.969   3.698 -2.9993 -0.0962  2.0245
  913MOL0     H20508   5.131   8.885   3.736 -1.6776  0.6168  1.9627
  913MOL0     H20509   5.066   8.718   3.720 -1.4332  1.4999  3.5513
  913MOL0     H20510   5.137   8.929   3.496  2.6209 -0.6439  0.3289
  913MOL0     H20511   5.036   8.784   3.460 -0.3790  0.2277  0.6551
  913MOL0     H20512   5.196   8.625   3.516  0.2051 -0.6919  0.1766
  913MOL0     H20513   5.265   8.745   3.402 -0.6083 -2.2099 -0.8710
  913MOL0     H20514   5.450   8.750   3.790 -0.9159  0.4922  0.3164
  913MOL0     H20515   4.821   9.054   3.523  0.1299 -0.8552  1.0581
  913MOL0     H20516   4.609   9.200   3.493  1.8579 -0.2893 -2.1101
  914MOL0     O20517  10.976   7.091   7.773 -0.3822  0.1142 -0.2522
  914MOL0     C20518  10.937   7.125   7.659 -0.7387 -0.2560  0.6218
  914MOL0     O20519  10.822   7.102   7.595  0.4436  0.1626 -0.2703
  914MOL0     C20520  10.709   7.045   7.664  0.2872 -0.0522 -0.0515
  914MOL0     C20521  10.686   7.049   7.798  0.0279 -0.8145 -1.0659
  914MOL0     C20522  10.558   7.013   7.847 -0.5187  0.8045 -0.8374
  914MOL0     C20523  10.457   6.957   7.759  0.1324 -0.2957  0.0456
  914MOL0     O20524  10.332   6.946   7.801 -0.2418 -0.8929 -0.2503
  914MOL0     C20525  10.229   6.919   7.703 -0.4032 -0.5097 -0.6176
  914MOL0     C20526  10.090   6.958   7.757  0.1461 -0.8801  0.0953
  914MOL0     C20527   9.976   6.936   7.656 -0.3172  0.6488  1.1260
  914MOL0     C20528   9.842   6.973   7.713  0.3523  0.8145  1.6603
  914MOL0     C20529   9.731   6.969   7.608  0.4339  0.5593  0.1098
  914MOL0     C20530   9.617   7.057   7.668  0.3497 -0.1991 -0.2987
  914MOL0     C20531   9.544   7.100   7.539  0.2680  0.7530  0.2815
  914MOL0     C20532   9.424   7.181   7.577 -0.1922 -0.1972  0.3727
  914MOL0     N20533   9.336   7.200   7.457 -0.7084 -0.2201  0.4270
  914MOL0     C20534   9.370   7.189   7.324 -0.3626 -0.5391 -0.3218
  914MOL0     C20535   9.251   7.211   7.259 -0.1634 -0.4749  0.0664
  914MOL0     C20536   9.223   7.167   7.118 -0.5790 -0.2676  0.5693
  914MOL0     C20537   9.140   7.033   7.112  0.1110 -0.3182  0.4152
  914MOL0     C20538   9.005   7.055   7.039  0.6959 -0.9990  0.0408
  914MOL0     C20539   8.918   6.930   7.055 -0.1071  0.0631  0.1582
  914MOL0     O20540   8.792   6.971   6.994  0.7431  0.0718 -0.7889
  914MOL0     C20541   8.691   6.881   7.011  0.1231  0.1795 -1.1513
  914MOL0     C20542   8.687   6.762   7.095 -0.0776 -0.4428 -0.2553
  914MOL0     C20543   8.570   6.688   7.105 -0.1175 -0.9316  0.7525
  914MOL0     C20544   8.454   6.727   7.036 -0.5316 -0.3445 -0.9138
  914MOL0     C20545   8.337   6.631   7.025  0.3224 -0.1811 -1.2018
  914MOL0     O20546   8.315   6.531   7.127 -0.2567  0.3566  0.7271
  914MOL0     C20547   8.204   6.448   7.114  0.6477 -0.6752 -0.5705
  914MOL0     C20548   8.133   6.425   7.231  0.4776  0.8247  0.8826
  914MOL0     C20549   8.017   6.335   7.221  0.6372  0.0017 -0.3091
  914MOL0     C20550   7.978   6.269   7.102 -0.0431  0.0710  0.3831
  914MOL0     O20551   7.874   6.179   7.097  0.4137 -0.3639 -0.3357
  914MOL0     C20552   7.829   6.116   7.221  0.2448 -0.3482 -0.9861
  914MOL0     C20553   7.716   6.020   7.179  0.0468 -0.0059 -0.6531
  914MOL0     C20554   7.641   5.947   7.303  0.5511  0.2007  0.1585
  914MOL0     C20555   7.518   5.859   7.271  0.3969  0.4428 -0.0877
  914MOL0     C20556   7.465   5.799   7.400  0.7123  0.1446 -0.5390
  914MOL0     C20557   7.546   5.671   7.433  1.3905 -0.4679  0.8135
  914MOL0     C20558   7.520   5.633   7.579  0.0287 -0.1383  0.2466
  914MOL0     C20559   7.389   5.561   7.593 -0.1439 -0.4530  0.5592
  914MOL0    Cl20560   7.397   5.480   7.756  0.3150  0.0610 -0.4004
  914MOL0     C20561   8.060   6.284   6.989 -0.0490 -0.5085 -0.3223
  914MOL0     C20562   8.166   6.381   6.992 -0.3390 -0.1107 -0.1546
  914MOL0     O20563   8.258   6.649   6.928  0.4533 -0.7502  0.0569
  914MOL0     C20564   8.462   6.839   6.956 -0.4871  0.7579  0.1152
  914MOL0     C20565   8.578   6.908   6.950 -1.0299 -0.4043 -0.1262
  914MOL0     N20566   9.150   7.241   7.344  0.0975  0.1650 -0.0416
  914MOL0     N20567   9.203   7.244   7.461  0.0717  0.5082 -0.6846
  914MOL0     C20568  10.492   6.939   7.625 -0.4055 -1.0114 -0.4568
  914MOL0     C20569  10.612   6.983   7.583  0.7691 -0.3879 -0.9773
  914MOL0     C20570  11.045   7.174   7.571  1.1846  0.8839 -0.3660
  914MOL0     C20571  11.019   7.186   7.432 -0.2519  0.9759  0.1908
  914MOL0     C20572  11.117   7.245   7.350  0.6592 -0.4938 -0.3851
  914MOL0     C20573  11.243   7.288   7.403  0.7123 -0.1819 -0.1218
  914MOL0     O20574  11.345   7.337   7.327  0.2734 -0.4355 -0.0224
  914MOL0     C20575  11.309   7.407   7.205  0.6335  0.4359 -0.2170
  914MOL0     C20576  11.383   7.348   7.086  0.0505  0.3142  0.0181
  914MOL0     C20577  11.353   7.199   7.061  0.9685 -0.2471  0.4944
  914MOL0     C20578  11.442   7.129   6.961  0.5439 -0.3491 -0.1999
  914MOL0     C20579  11.462   7.186   6.825 -0.5218  0.9216 -0.7860
  914MOL0     C20580  11.480   7.241   6.718 -0.1723 -0.3963  0.3655
  914MOL0     C20581  11.264   7.275   7.541 -1.2164  0.7474  0.0220
  914MOL0     C20582  11.163   7.222   7.622 -0.4008 -0.6817 -1.2731
  914MOL0     H20583  10.752   7.066   7.882 -3.0736  2.0104  1.0558
  914MOL0     H20584  10.541   7.001   7.953  2.9053 -2.4860 -0.4231
  914MOL0     H20585  10.228   6.812   7.681  0.6584 -0.3040 -1.7587
  914MOL0     H20586  10.250   6.974   7.610  0.6894 -2.8581 -1.8439
  914MOL0     H20587  10.085   7.063   7.785  1.5370 -0.9524  0.6856
  914MOL0     H20588  10.080   6.891   7.843 -0.2690 -1.2411 -0.2224
  914MOL0     H20589   9.981   6.830   7.628 -1.3051  0.5931  1.1368
  914MOL0     H20590  10.005   6.989   7.565 -0.1813 -0.4745  0.4949
  914MOL0     H20591   9.817   6.898   7.788 -2.4959  0.4713  0.4856
  914MOL0     H20592   9.854   7.072   7.760 -0.4388  0.7029  2.1130
  914MOL0     H20593   9.699   6.867   7.585  0.8735  0.6816 -1.1436
  914MOL0     H20594   9.762   7.026   7.519  2.0115  0.4584  0.5764
  914MOL0     H20595   9.659   7.147   7.712 -0.6545  0.1337  0.0112
  914MOL0     H20596   9.555   7.004   7.741  1.3620 -0.9963  0.0160
  914MOL0     H20597   9.605   7.171   7.482 -2.2290  4.0844  1.4392
  914MOL0     H20598   9.518   7.014   7.477 -2.3195 -0.9290  3.4169
  914MOL0     H20599   9.466   7.274   7.615 -1.2968  0.6054 -0.3352
  914MOL0     H20600   9.362   7.129   7.651 -2.7688 -0.6877 -1.9671
  914MOL0     H20601   9.458   7.143   7.280  1.7545  0.5659  2.4631
  914MOL0     H20602   9.320   7.151   7.071 -0.1902 -3.4278  2.1930
  914MOL0     H20603   9.183   7.251   7.061 -2.4257 -0.5074  1.4504
  914MOL0     H20604   9.133   6.999   7.216 -0.5033  1.9552  1.1935
  914MOL0     H20605   9.187   6.964   7.042  1.8802  2.4521 -1.3368
  914MOL0     H20606   8.949   7.144   7.070 -0.1857 -0.4173 -2.8928
  914MOL0     H20607   9.021   7.075   6.933  2.2089  2.7849  0.8308
  914MOL0     H20608   8.909   6.903   7.161 -1.0292 -1.2937 -0.2498
  914MOL0     H20609   8.955   6.840   7.005 -0.6695 -0.2326  0.2686
  914MOL0     H20610   8.775   6.725   7.147 -0.5774  0.0431  0.9689
  914MOL0     H20611   8.566   6.593   7.157 -2.6597 -0.9762  0.6052
  914MOL0     H20612   8.166   6.467   7.326  1.2734 -2.5616  2.2243
  914MOL0     H20613   7.962   6.319   7.314 -3.7763  0.8387 -2.5086
  914MOL0     H20614   7.786   6.193   7.284  0.9219 -0.6514 -0.1379
  914MOL0     H20615   7.911   6.061   7.269 -0.5358 -0.5344  0.1647
  914MOL0     H20616   7.761   5.949   7.110 -1.4794 -2.1669  0.4624
  914MOL0     H20617   7.642   6.083   7.128  0.8513  1.8949  0.3977
  914MOL0     H20618   7.614   6.026   7.374  2.9229  1.7557 -0.5087
  914MOL0     H20619   7.715   5.881   7.350  1.5070  1.0606 -0.1006
  914MOL0     H20620   7.443   5.935   7.245 -0.3730  0.2551  1.4997
  914MOL0     H20621   7.513   5.788   7.188 -1.7694 -0.3265  0.6258
  914MOL0     H20622   7.359   5.773   7.398  0.5820  0.0978  2.4193
  914MOL0     H20623   7.475   5.881   7.473  0.3012 -0.0515 -0.2585
  914MOL0     H20624   7.653   5.685   7.414  1.0154 -0.5795 -1.7568
  914MOL0     H20625   7.508   5.602   7.357 -0.8579  1.1774  0.3202
  914MOL0     H20626   7.604   5.566   7.600 -0.7461 -0.6836  1.7944
  914MOL0     H20627   7.538   5.714   7.649 -0.5680 -2.9310  3.9846
  914MOL0     H20628   7.394   5.488   7.512 -0.2939  1.6381 -1.4349
  914MOL0     H20629   7.301   5.622   7.571  1.9903  2.1610 -1.2995
  914MOL0     H20630   8.039   6.225   6.900 -0.7009  1.2912 -1.4202
  914MOL0     H20631   8.221   6.408   6.902 -1.1662  0.7542 -0.4201
  914MOL0     H20632   8.375   6.859   6.894  1.3619  0.0983 -2.8622
  914MOL0     H20633   8.581   6.992   6.882 -1.7219 -1.1085 -1.0710
  914MOL0     H20634  10.411   6.890   7.572 -2.3469  0.5012  0.9366
  914MOL0     H20635  10.648   6.976   7.481 -2.2670 -1.8782 -2.0713
  914MOL0     H20636  10.923   7.157   7.392  0.2668 -0.4392 -0.0531
  914MOL0     H20637  11.079   7.258   7.249  0.2401  0.5621 -0.1038
  914MOL0     H20638  11.345   7.510   7.220 -1.4609  1.1010  0.6358
  914MOL0     H20639  11.200   7.418   7.197  0.1817 -3.4597 -1.4338
  914MOL0     H20640  11.346   7.400   6.997 -1.0407  0.6263  0.6349
  914MOL0     H20641  11.489   7.362   7.106  0.1227  2.1008 -1.3384
  914MOL0     H20642  11.250   7.185   7.027 -0.4623  2.3875  3.1902
  914MOL0     H20643  11.364   7.145   7.156  1.1749  0.6418  0.9919
  914MOL0     H20644  11.543   7.119   7.003  1.1865  2.6441 -0.7629
  914MOL0     H20645  11.388   7.035   6.954 -0.7838  0.3495  0.3350
  914MOL0     H20646  11.506   7.299   6.632  0.7408  0.5396  1.2413
  914MOL0     H20647  11.351   7.323   7.586 -0.3142 -0.6426 -0.1763
  914MOL0     H20648  11.176   7.232   7.729 -0.3349  0.1799 -1.3575
  915MOL0     O20649   6.486   8.462   5.056 -0.1701 -0.2478  0.2289
  915MOL0     C20650   6.379   8.508   5.019 -0.3923  0.3814 -0.4181
  915MOL0     O20651   6.373   8.606   4.929  0.0734 -0.3347 -0.8954
  915MOL0     C20652   6.477   8.659   4.858 -0.2252 -0.9424 -0.4595
  915MOL0     C20653   6.606   8.607   4.836  0.0441  0.5575  0.6095
  915MOL0     C20654   6.693   8.680   4.761 -0.5538 -1.6987  0.8308
  915MOL0     C20655   6.649   8.807   4.710 -0.1080 -0.4094 -0.7341
  915MOL0     O20656   6.729   8.895   4.649 -0.2638 -0.1365 -0.1719
  915MOL0     C20657   6.835   8.837   4.566  0.5165  0.0029  0.2875
  915MOL0     C20658   6.896   8.937   4.470 -0.2730  0.2555 -0.0851
  915MOL0     C20659   6.956   9.055   4.545 -0.4602  0.0828  0.3735
  915MOL0     C20660   7.018   9.152   4.444  0.2144 -0.2288 -0.5022
  915MOL0     C20661   7.069   9.279   4.516  0.4864  0.1378 -0.4582
  915MOL0     C20662   6.966   9.354   4.600  0.2455 -0.5232  0.3576
  915MOL0     C20663   7.036   9.484   4.642  0.9072  0.9109  0.0892
  915MOL0     C20664   6.936   9.554   4.734  1.1507  0.2110  0.3810
  915MOL0     N20665   6.942   9.509   4.870 -0.7359  0.3290 -0.5366
  915MOL0     C20666   6.833   9.514   4.952 -0.2436  0.3604 -0.4721
  915MOL0     C20667   6.882   9.513   5.081 -0.2427  0.0545  0.4502
  915MOL0     C20668   6.810   9.529   5.211 -0.6396  0.2882 -0.7865
  915MOL0     C20669   6.655   9.534   5.193 -0.2675 -0.7979  0.1941
  915MOL0     C20670   6.590   9.537   5.329 -0.6048  0.8458 -0.0229
  915MOL0     C20671   6.441   9.575   5.339  0.0647 -0.6010  0.3529
  915MOL0     O20672   6.369   9.502   5.235 -0.4975 -0.4749  0.1122
  915MOL0     C20673   6.271   9.423   5.280 -0.0313  0.8061 -0.8059
  915MOL0     C20674   6.153   9.466   5.335 -0.1639 -0.1427  0.3573
  915MOL0     C20675   6.055   9.375   5.371 -0.6068 -0.7290 -0.2809
  915MOL0     C20676   6.075   9.235   5.367 -1.0694  0.0259 -0.6114
  915MOL0     C20677   5.968   9.145   5.415  0.1331  0.2292  0.6322
  915MOL0     O20678   5.844   9.212   5.426  0.6183  0.7434 -0.6640
  915MOL0     C20679   5.726   9.136   5.458 -0.1973 -0.4820 -0.1808
  915MOL0     C20680   5.615   9.161   5.372 -0.3525 -0.6079 -0.0710
  915MOL0     C20681   5.494   9.092   5.383  0.9093 -0.1630 -0.3708
  915MOL0     C20682   5.473   8.995   5.486 -1.5223 -0.3911  0.1955
  915MOL0     O20683   5.358   8.926   5.509 -0.2134  0.0266  0.1599
  915MOL0     C20684   5.257   8.946   5.404 -0.6400  0.1326 -0.0928
  915MOL0     C20685   5.127   8.873   5.429  0.5659  0.4058 -0.2517
  915MOL0     C20686   5.035   8.852   5.307 -0.4986  0.2017  0.5754
  915MOL0     C20687   4.947   8.961   5.276  0.3433 -0.1117 -0.9215
  915MOL0     C20688   4.843   8.991   5.382 -0.2212  1.5099  0.4068
  915MOL0     C20689   4.770   8.878   5.447  0.7431 -0.6329  1.0105
  915MOL0     C20690   4.680   8.814   5.334 -0.4238 -0.2955 -0.5807
  915MOL0     C20691   4.582   8.911   5.270  1.2158  0.2693  0.5043
  915MOL0    Cl20692   4.489   8.984   5.407 -0.0451  0.5699 -0.2861
  915MOL0     C20693   5.580   8.981   5.573 -0.6650 -0.0823 -0.4554
  915MOL0     C20694   5.698   9.064   5.568  0.2616  0.2553  0.3735
  915MOL0     O20695   5.978   9.020   5.405  0.2331  0.0944  0.4961
  915MOL0     C20696   6.196   9.192   5.305 -0.4019  0.6833  0.7580
  915MOL0     C20697   6.286   9.279   5.260 -0.2880 -0.5331 -0.1024
  915MOL0     N20698   7.025   9.511   5.070  0.4821 -0.5753 -0.6394
  915MOL0     N20699   7.057   9.517   4.944  0.1616 -0.3290  0.3632
  915MOL0     C20700   6.526   8.854   4.730 -0.0766  0.2175  0.0078
  915MOL0     C20701   6.436   8.774   4.792  0.4184  1.2276 -0.4766
  915MOL0     C20702   6.256   8.439   5.076  0.3649 -0.3523  0.5616
  915MOL0     C20703   6.267   8.320   5.156  0.8542 -0.2855  0.5931
  915MOL0     C20704   6.148   8.257   5.200  0.3680 -0.0854  0.5450
  915MOL0     C20705   6.019   8.313   5.171  0.7584  0.4317 -0.5418
  915MOL0     O20706   5.909   8.238   5.215  0.5599  0.0315  0.6367
  915MOL0     C20707   5.782   8.293   5.194  0.1612 -0.1830  0.0378
  915MOL0     C20708   5.677   8.185   5.189 -0.2287  0.5286  0.2878
  915MOL0     C20709   5.610   8.185   5.336  0.3140 -0.4162 -0.2887
  915MOL0     C20710   5.526   8.050   5.354  0.7446 -0.2688 -0.1712
  915MOL0     C20711   5.419   8.025   5.259  0.5755  0.3816  0.0468
  915MOL0     C20712   5.313   8.015   5.201 -0.6066 -0.0080 -0.4455
  915MOL0     C20713   6.009   8.440   5.101  0.3638  0.4706 -0.6662
  915MOL0     C20714   6.131   8.499   5.058  0.2270 -0.4938  0.0108
  915MOL0     H20715   6.644   8.515   4.878 -1.8755 -2.4868 -3.6077
  915MOL0     H20716   6.797   8.652   4.751  0.8277  2.2890  2.2000
  915MOL0     H20717   6.797   8.748   4.515  1.9098  0.7863 -2.3281
  915MOL0     H20718   6.918   8.797   4.626 -0.2757 -2.0274  0.1056
  915MOL0     H20719   6.813   8.976   4.411 -0.0354  3.5136  1.4999
  915MOL0     H20720   6.978   8.885   4.419  1.7249  0.4239  2.7114
  915MOL0     H20721   7.033   9.020   4.615 -0.7892  0.4392  0.9265
  915MOL0     H20722   6.880   9.104   4.607 -2.2202 -1.0831 -0.8107
  915MOL0     H20723   7.105   9.098   4.407 -0.5410  0.2177 -3.2071
  915MOL0     H20724   6.953   9.183   4.361  1.5660  0.1809 -1.4319
  915MOL0     H20725   7.105   9.346   4.438  0.4606  1.4127  0.5780
  915MOL0     H20726   7.144   9.250   4.590  0.5629  3.4090  0.9300
  915MOL0     H20727   6.944   9.297   4.691 -1.0933 -0.2110  0.2549
  915MOL0     H20728   6.873   9.386   4.552 -2.8402 -1.4846  4.9800
  915MOL0     H20729   7.128   9.471   4.699  0.5800  0.7853  0.6001
  915MOL0     H20730   7.057   9.551   4.558  2.4112  0.2508 -0.0893
  915MOL0     H20731   6.833   9.555   4.698  0.1577 -4.3303  2.4724
  915MOL0     H20732   6.972   9.657   4.746  2.7451 -0.1414 -1.0599
  915MOL0     H20733   6.730   9.492   4.923  0.2039 -0.8854 -1.1881
  915MOL0     H20734   6.851   9.607   5.276 -2.2892  1.4628 -1.0646
  915MOL0     H20735   6.846   9.440   5.261  0.9406  0.8882 -0.8065
  915MOL0     H20736   6.615   9.450   5.136 -0.8728 -0.7590  0.5527
  915MOL0     H20737   6.632   9.623   5.134 -0.0908 -1.0914 -0.3193
  915MOL0     H20738   6.587   9.438   5.374 -0.1511  0.4366 -0.8895
  915MOL0     H20739   6.650   9.596   5.400 -0.0216 -1.8329  1.8865
  915MOL0     H20740   6.436   9.683   5.322 -1.0372 -0.8869 -1.3446
  915MOL0     H20741   6.388   9.561   5.434  0.0233 -1.3211  0.2241
  915MOL0     H20742   6.148   9.569   5.369  2.0762 -0.7402  2.8230
  915MOL0     H20743   5.962   9.413   5.412  0.8289 -0.4589  3.0927
  915MOL0     H20744   5.622   9.224   5.284 -2.5794  2.3541  1.6785
  915MOL0     H20745   5.426   9.119   5.304  0.6340  0.3820  0.0449
  915MOL0     H20746   5.291   8.920   5.304  0.0191 -0.0549  0.1737
  915MOL0     H20747   5.231   9.052   5.405  0.8588  0.5265  0.7020
  915MOL0     H20748   5.071   8.907   5.517  0.3768 -0.1416 -0.1584
  915MOL0     H20749   5.162   8.773   5.455 -0.8709 -0.1404 -0.3154
  915MOL0     H20750   4.967   8.767   5.322 -0.6245  0.2633  0.3578
  915MOL0     H20751   5.085   8.818   5.216  0.1676  3.0721 -0.2267
  915MOL0     H20752   5.012   9.042   5.241  0.9937 -1.1968 -2.2946
  915MOL0     H20753   4.886   8.923   5.194 -0.7161 -2.2713  0.7592
  915MOL0     H20754   4.778   9.058   5.326  0.8114 -0.0029 -2.8215
  915MOL0     H20755   4.885   9.055   5.461 -0.2168  0.2917  1.4324
  915MOL0     H20756   4.710   8.911   5.533  0.5246  2.5876 -0.2174
  915MOL0     H20757   4.846   8.809   5.485  3.7337  1.1439 -1.3075
  915MOL0     H20758   4.737   8.760   5.258  2.5157 -1.6391  2.3316
  915MOL0     H20759   4.623   8.731   5.377  0.6272 -0.3908  0.7102
  915MOL0     H20760   4.521   8.847   5.206  2.6945 -1.4051  0.6936
  915MOL0     H20761   4.615   8.987   5.199 -2.3688  0.1919 -1.5109
  915MOL0     H20762   5.556   8.909   5.651 -2.2990  0.2226 -0.6332
  915MOL0     H20763   5.764   9.048   5.653  1.0065  3.0004  0.3982
  915MOL0     H20764   6.213   9.085   5.304 -0.7981  0.5194 -3.0795
  915MOL0     H20765   6.367   9.243   5.197 -1.5908  0.4866 -2.5017
  915MOL0     H20766   6.508   8.958   4.704  4.1469  1.8882  2.8633
  915MOL0     H20767   6.338   8.815   4.814  2.1135  4.2968  2.2885
  915MOL0     H20768   6.359   8.271   5.185  0.7496 -0.1591  1.1526
  915MOL0     H20769   6.165   8.163   5.252  1.3981  0.6521  1.6078
  915MOL0     H20770   5.766   8.345   5.099 -0.5915  0.6461  0.6002
  915MOL0     H20771   5.765   8.370   5.270 -0.1737 -1.0697  0.8835
  915MOL0     H20772   5.605   8.215   5.112 -1.5006  1.0277  1.6254
  915MOL0     H20773   5.726   8.090   5.167 -1.6238  0.5518 -3.8559
  915MOL0     H20774   5.550   8.275   5.350  1.2060 -0.1534  2.4702
  915MOL0     H20775   5.686   8.195   5.414 -1.4323 -0.0581  1.4436
  915MOL0     H20776   5.597   7.967   5.354  4.7094  2.7966  0.3204
  915MOL0     H20777   5.464   8.058   5.444 -2.3444  1.2410 -2.2756
  915MOL0     H20778   5.222   8.008   5.145 -4.0585 -0.7199  4.5796
  915MOL0     H20779   5.916   8.489   5.074  0.6200  0.2955 -1.9094
  915MOL0     H20780   6.120   8.595   5.010  1.2737  0.4300  1.5333
  916MOL0     O20781   9.802   5.582   3.680  0.1406  0.4743 -0.3038
  916MOL0     C20782   9.824   5.700   3.711 -0.4535  0.1817 -0.3217
  916MOL0     O20783   9.824   5.808   3.623 -0.4141 -0.3047 -0.4184
  916MOL0     C20784   9.816   5.790   3.482 -1.0092 -0.3872 -0.3214
  916MOL0     C20785   9.733   5.880   3.414  0.5422  0.1781 -0.4473
  916MOL0     C20786   9.712   5.868   3.279 -0.6438  0.4745 -0.5353
  916MOL0     C20787   9.793   5.785   3.200 -0.1330 -0.4721 -0.0354
  916MOL0     O20788   9.788   5.782   3.057  0.0331  0.1486  0.7005
  916MOL0     C20789   9.719   5.887   2.985 -0.3179 -0.0533  0.5707
  916MOL0     C20790   9.736   5.862   2.841  0.0561  0.2515  1.1715
  916MOL0     C20791   9.635   5.758   2.784 -0.4473 -0.0671  0.1795
  916MOL0     C20792   9.666   5.713   2.641 -0.6271  0.3054  0.8782
  916MOL0     C20793   9.617   5.566   2.602 -0.8487 -0.8274  0.5768
  916MOL0     C20794   9.478   5.556   2.538  0.1013  0.5015  0.0837
  916MOL0     C20795   9.455   5.399   2.509 -0.8959  0.9644 -0.0198
  916MOL0     C20796   9.355   5.391   2.402  0.5527  0.2549  0.6354
  916MOL0     N20797   9.298   5.256   2.385  0.2434  0.6505  0.1227
  916MOL0     C20798   9.364   5.152   2.320 -0.0616  0.3820 -0.3584
  916MOL0     C20799   9.267   5.066   2.281  0.3535  0.5090  0.1306
  916MOL0     C20800   9.307   4.937   2.215 -0.5355  0.4061  0.0994
  916MOL0     C20801   9.263   4.816   2.299 -0.5809  0.7316  0.0669
  916MOL0     C20802   9.283   4.682   2.230 -0.5475  0.0680  0.3477
  916MOL0     C20803   9.197   4.669   2.101  1.0356  0.1339 -0.4347
  916MOL0     O20804   9.053   4.679   2.111 -0.1419  0.6283 -0.7377
  916MOL0     C20805   8.965   4.683   2.014 -0.4620  0.4531 -0.5516
  916MOL0     C20806   8.833   4.726   2.041  0.0829  0.4229  0.1573
  916MOL0     C20807   8.743   4.729   1.936  0.0423 -0.4760  0.3285
  916MOL0     C20808   8.770   4.683   1.804 -1.0900 -0.9270 -0.3976
  916MOL0     C20809   8.691   4.697   1.673 -0.2906 -0.1856  0.6207
  916MOL0     O20810   8.757   4.672   1.557 -0.3316 -0.0299 -0.1982
  916MOL0     C20811   8.691   4.676   1.440  0.2358  0.0888 -0.3657
  916MOL0     C20812   8.607   4.569   1.406  0.4272 -0.4188  0.2225
  916MOL0     C20813   8.537   4.570   1.283 -0.7404 -0.1958 -0.7047
  916MOL0     C20814   8.564   4.678   1.191  0.5592  0.2412 -0.6338
  916MOL0     O20815   8.510   4.677   1.065  0.4149 -0.0244  0.1265
  916MOL0     C20816   8.540   4.550   0.995  0.0242  0.0257  0.6263
  916MOL0     C20817   8.508   4.573   0.847 -0.9443  0.8861 -0.2691
  916MOL0     C20818   8.363   4.579   0.827 -0.2248  0.0741 -0.1573
  916MOL0     C20819   8.339   4.637   0.688  0.8872  0.9144  0.2937
  916MOL0     C20820   8.187   4.655   0.670  0.6011 -0.2729  0.1383
  916MOL0     C20821   8.148   4.687   0.522 -0.2520 -0.0979  0.2848
  916MOL0     C20822   8.137   4.560   0.427  0.3977 -0.5026 -0.0540
  916MOL0     C20823   8.215   4.569   0.293  0.4047  0.3189 -0.1632
  916MOL0    Cl20824   8.197   4.405   0.219 -0.2219 -0.2220 -0.0381
  916MOL0     C20825   8.627   4.791   1.237 -0.9631  0.3748 -0.2569
  916MOL0     C20826   8.692   4.786   1.356 -0.5444 -0.0539  0.9325
  916MOL0     O20827   8.569   4.724   1.678 -1.2860 -0.1429  0.3863
  916MOL0     C20828   8.899   4.620   1.793  0.0844 -0.2224  0.5872
  916MOL0     C20829   8.990   4.623   1.889 -0.8349 -0.4552 -0.9571
  916MOL0     N20830   9.148   5.121   2.314 -0.6191  0.5250 -0.0722
  916MOL0     N20831   9.165   5.237   2.373 -0.0587  0.5725 -0.3394
  916MOL0     C20832   9.878   5.697   3.270  0.2736  0.6218  0.1089
  916MOL0     C20833   9.885   5.690   3.411 -0.3879 -0.4627  0.5324
  916MOL0     C20834   9.871   5.730   3.848  0.0813 -0.1223  0.1150
  916MOL0     C20835   9.972   5.663   3.914  0.8564 -0.9881  0.9084
  916MOL0     C20836  10.004   5.695   4.046  0.7137 -0.1436 -0.5958
  916MOL0     C20837   9.938   5.795   4.112 -0.5608  0.0884  0.2617
  916MOL0     O20838   9.946   5.816   4.249 -0.1159  0.2261  0.1688
  916MOL0     C20839  10.069   5.801   4.323  0.7326 -0.8435  0.7772
  916MOL0     C20840  10.170   5.912   4.296  0.4132  0.2138  0.3995
  916MOL0     C20841  10.113   6.047   4.335  0.0212  0.1939 -0.3536
  916MOL0     C20842  10.045   6.132   4.231  0.2987  0.0186  0.1936
  916MOL0     C20843   9.929   6.212   4.274 -0.6057 -0.4670  0.2578
  916MOL0     C20844   9.840   6.287   4.301 -0.3922 -0.2133  1.0875
  916MOL0     C20845   9.832   5.856   4.053  0.0380 -0.4149 -0.3453
  916MOL0     C20846   9.796   5.822   3.923 -0.3116  0.0368 -0.2895
  916MOL0     H20847   9.666   5.945   3.470  1.5267  0.6324  0.2475
  916MOL0     H20848   9.624   5.910   3.231 -1.2156  1.4953  1.3129
  916MOL0     H20849   9.765   5.976   3.030  1.7428 -0.9904  0.4426
  916MOL0     H20850   9.612   5.876   2.999 -0.9339  2.0753 -1.7414
  916MOL0     H20851   9.839   5.829   2.824 -0.2364 -0.4069  0.6203
  916MOL0     H20852   9.713   5.949   2.779  0.5496 -0.9127 -0.7313
  916MOL0     H20853   9.530   5.787   2.791 -1.2138 -2.7853  1.3601
  916MOL0     H20854   9.654   5.673   2.850 -0.5871 -1.2274 -1.2317
  916MOL0     H20855   9.611   5.778   2.572 -1.7178 -0.5433  0.9112
  916MOL0     H20856   9.768   5.737   2.608 -1.0143  1.9452  0.7855
  916MOL0     H20857   9.615   5.505   2.692 -1.8203 -2.8635 -0.7289
  916MOL0     H20858   9.684   5.519   2.529 -2.9691 -0.6638 -1.6096
  916MOL0     H20859   9.483   5.609   2.442  1.0794 -2.3397 -1.5425
  916MOL0     H20860   9.399   5.603   2.597 -1.9053  1.1277 -2.8777
  916MOL0     H20861   9.544   5.349   2.470 -2.5837 -2.1077 -0.2845
  916MOL0     H20862   9.437   5.350   2.605  0.5816 -0.6609 -0.5217
  916MOL0     H20863   9.391   5.427   2.305 -0.1692  0.0063  0.2729
  916MOL0     H20864   9.273   5.457   2.431 -0.4918  0.0419 -1.6371
  916MOL0     H20865   9.470   5.130   2.309  0.4200  2.0956  0.4221
  916MOL0     H20866   9.409   4.937   2.177 -0.5018  0.7203  0.1880
  916MOL0     H20867   9.252   4.936   2.120  0.6016 -0.3134 -0.5738
  916MOL0     H20868   9.156   4.817   2.323 -0.6133 -0.0842 -0.0116
  916MOL0     H20869   9.322   4.811   2.391  1.9438  1.4181 -1.4079
  916MOL0     H20870   9.391   4.670   2.212  0.0018  1.0962  2.6256
  916MOL0     H20871   9.246   4.609   2.303 -0.7443 -0.9855 -0.7744
  916MOL0     H20872   9.219   4.571   2.057 -0.8283 -0.4200 -0.2178
  916MOL0     H20873   9.222   4.746   2.027  1.5501  1.0493  0.6698
  916MOL0     H20874   8.802   4.761   2.138  2.1023 -0.5763  1.2250
  916MOL0     H20875   8.641   4.765   1.940 -0.1568 -1.0038  0.1696
  916MOL0     H20876   8.593   4.481   1.468 -1.1383  0.3507  1.0258
  916MOL0     H20877   8.464   4.496   1.255 -1.0074 -0.3382  0.3299
  916MOL0     H20878   8.475   4.476   1.043  0.4359  0.6091  2.1634
  916MOL0     H20879   8.646   4.530   1.017 -0.4251 -0.4685  2.5078
  916MOL0     H20880   8.554   4.498   0.782 -0.9827  2.0573 -1.7134
  916MOL0     H20881   8.564   4.662   0.815  1.2253  0.4008  1.8789
  916MOL0     H20882   8.308   4.653   0.887 -2.8632 -0.2596 -1.9858
  916MOL0     H20883   8.317   4.480   0.834  2.7967 -1.5217 -1.1213
  916MOL0     H20884   8.382   4.738   0.686  0.4893  1.1192 -2.8011
  916MOL0     H20885   8.385   4.572   0.614 -1.2245  0.9802 -1.1453
  916MOL0     H20886   8.156   4.731   0.742  1.0195  0.7580 -0.7566
  916MOL0     H20887   8.138   4.557   0.682 -1.3569  0.4564 -1.3747
  916MOL0     H20888   8.220   4.754   0.474 -1.8612  2.9269  1.8151
  916MOL0     H20889   8.052   4.739   0.519  0.1269  0.6494  0.7960
  916MOL0     H20890   8.170   4.469   0.479 -0.4429 -0.8988 -0.1869
  916MOL0     H20891   8.033   4.536   0.402  0.7224 -1.4113 -0.5855
  916MOL0     H20892   8.320   4.597   0.304 -0.1039  2.3145 -0.0629
  916MOL0     H20893   8.165   4.648   0.235 -1.0205  0.0820  0.7095
  916MOL0     H20894   8.634   4.881   1.177 -0.1730 -0.0970 -0.8930
  916MOL0     H20895   8.765   4.861   1.382  1.3157 -0.7572 -1.7887
  916MOL0     H20896   8.935   4.565   1.707  0.2409 -1.4709  1.4132
  916MOL0     H20897   9.083   4.568   1.878  0.0350  0.7185  0.1837
  916MOL0     H20898   9.945   5.637   3.208  0.2208  2.0362 -1.3690
  916MOL0     H20899   9.956   5.621   3.454 -0.1797 -2.5541 -2.7731
  916MOL0     H20900  10.029   5.591   3.856  0.7142 -4.5870  4.8326
  916MOL0     H20901  10.073   5.644   4.112 -0.0317  0.5898  0.7736
  916MOL0     H20902  10.121   5.709   4.296 -0.5606 -1.0492 -1.1955
  916MOL0     H20903  10.047   5.793   4.430 -2.1324 -1.3966  0.2156
  916MOL0     H20904  10.254   5.881   4.359 -1.3504 -0.3184  2.6575
  916MOL0     H20905  10.192   5.923   4.190 -3.0061  0.2830 -0.4248
  916MOL0     H20906  10.189   6.111   4.380  0.6246 -1.0666  0.5040
  916MOL0     H20907  10.040   6.022   4.412 -2.1846  1.8197 -1.7874
  916MOL0     H20908  10.121   6.199   4.187  0.5434 -2.0860 -2.9093
  916MOL0     H20909  10.010   6.071   4.147 -0.3295 -1.2214  1.3264
  916MOL0     H20910   9.770   6.358   4.339 -0.0752  0.1442  1.0217
  916MOL0     H20911   9.762   5.927   4.096 -0.6467 -0.2850 -1.6276
  916MOL0     H20912   9.713   5.873   3.874 -0.5637 -1.1625 -1.1464
  917MOL0     O20913   8.019   9.064   8.792 -0.1080 -0.3081  0.3378
  917MOL0     C20914   8.044   9.161   8.719 -0.2576  0.1120 -0.1512
  917MOL0     O20915   7.949   9.227   8.637  0.2195 -0.1941 -0.1914
  917MOL0     C20916   7.814   9.219   8.676 -0.1725  0.6246  0.4556
  917MOL0     C20917   7.729   9.331   8.666  0.2207 -0.4590 -0.3167
  917MOL0     C20918   7.589   9.322   8.665  0.1426 -0.1259 -0.2112
  917MOL0     C20919   7.536   9.193   8.698 -0.4985 -0.7234 -0.3764
  917MOL0     O20920   7.402   9.183   8.720 -0.6306  0.1367 -0.0647
  917MOL0     C20921   7.321   9.164   8.598 -0.4059 -0.0218  0.1154
  917MOL0     C20922   7.221   9.280   8.602 -0.9550  0.7265  0.8645
  917MOL0     C20923   7.127   9.264   8.720  0.4012 -0.0250  0.5078
  917MOL0     C20924   7.026   9.385   8.719  0.1441 -0.6334  0.2976
  917MOL0     C20925   6.896   9.371   8.807 -0.3295  0.6072 -1.2457
  917MOL0     C20926   6.929   9.334   8.953  0.1263 -0.7041 -0.4632
  917MOL0     C20927   6.813   9.374   9.038 -0.0243 -0.9497 -0.9138
  917MOL0     C20928   6.704   9.266   9.042 -0.3589 -0.4008 -0.3334
  917MOL0     N20929   6.593   9.306   9.118  0.6238  0.4423  0.6772
  917MOL0     C20930   6.603   9.376   9.233  0.3558  0.5785  0.0247
  917MOL0     C20931   6.470   9.406   9.258 -0.5574  0.0731 -1.0059
  917MOL0     C20932   6.421   9.484   9.370  0.4103  0.1402  0.1877
  917MOL0     C20933   6.355   9.609   9.321  0.6836 -0.1302 -0.0163
  917MOL0     C20934   6.320   9.714   9.430 -0.2946 -0.7558 -0.0253
  917MOL0     C20935   6.214   9.672   9.541 -0.2654  0.2211  0.5802
  917MOL0     O20936   6.180   9.789   9.626 -0.4124  0.5172  0.3789
  917MOL0     C20937   6.055   9.793   9.678 -0.7591  0.1170 -0.2147
  917MOL0     C20938   5.939   9.719   9.643 -0.2145  0.1522 -0.3213
  917MOL0     C20939   5.825   9.719   9.722  0.4590 -0.6730 -0.2239
  917MOL0     C20940   5.822   9.799   9.832  0.3381 -0.2138  0.6531
  917MOL0     C20941   5.720   9.772   9.940  0.0637 -0.1406 -0.1157
  917MOL0     O20942   5.607   9.700   9.906 -0.7792 -0.0710 -0.2671
  917MOL0     C20943   5.503   9.702   9.997 -0.3130  0.9010 -0.5269
  917MOL0     C20944   5.426   9.588  10.016  0.1466  0.2130 -0.5728
  917MOL0     C20945   5.319   9.597  10.097 -0.6997  0.2141 -0.5898
  917MOL0     C20946   5.266   9.711  10.153  0.6012 -0.4702 -0.0739
  917MOL0     O20947   5.160   9.724  10.233  0.6150  0.1072 -0.4645
  917MOL0     C20948   5.047   9.632  10.217 -0.1724 -0.3123  0.3847
  917MOL0     C20949   5.030   9.554  10.346  0.9063 -0.3208  0.3331
  917MOL0     C20950   4.907   9.459  10.348 -0.6529  0.0642  0.0419
  917MOL0     C20951   4.780   9.521  10.408 -0.0554  0.1514 -0.6244
  917MOL0     C20952   4.668   9.423  10.418  0.5392 -0.2229 -0.4208
  917MOL0     C20953   4.548   9.504  10.448  0.5361 -0.0563 -0.0755
  917MOL0     C20954   4.423   9.409  10.504  0.4081 -0.1459  0.0450
  917MOL0     C20955   4.297   9.486  10.557  0.5833 -0.3994  0.3440
  917MOL0    Cl20956   4.319   9.562  10.709 -0.2723  0.1377 -0.0448
  917MOL0     C20957   5.345   9.819  10.144 -0.0037 -0.3852  0.3183
  917MOL0     C20958   5.457   9.819  10.058 -1.2777  0.1344 -0.1963
  917MOL0     O20959   5.748   9.814  10.056  0.0176  0.6495  0.5953
  917MOL0     C20960   5.924   9.890   9.862  0.1337  0.4902 -1.0461
  917MOL0     C20961   6.041   9.892   9.779  0.3041  0.4546  0.9188
  917MOL0     N20962   6.383   9.344   9.173  0.5870  0.0445  0.6715
  917MOL0     N20963   6.465   9.295   9.081  0.0382  0.4070 -0.0557
  917MOL0     C20964   7.614   9.079   8.714 -0.4349 -0.5455 -0.2419
  917MOL0     C20965   7.751   9.094   8.702  0.9801 -0.2623  0.8832
  917MOL0     C20966   8.177   9.195   8.705  0.4951  0.0387  0.3448
  917MOL0     C20967   8.268   9.172   8.804  0.1659 -0.1570  0.3397
  917MOL0     C20968   8.396   9.232   8.803  0.7203  0.9717  0.1407
  917MOL0     C20969   8.430   9.300   8.689  0.0809  0.3637  0.8299
  917MOL0     O20970   8.553   9.358   8.689 -0.3435 -0.4529 -0.5878
  917MOL0     C20971   8.655   9.259   8.662  0.5161 -0.5531 -0.3697
  917MOL0     C20972   8.718   9.295   8.534  0.1737  0.3401 -0.4024
  917MOL0     C20973   8.795   9.436   8.541  0.1787  0.0333 -0.1666
  917MOL0     C20974   8.919   9.425   8.638 -0.3979 -0.3870 -0.0131
  917MOL0     C20975   9.018   9.324   8.604  0.5854  0.6960  0.8929
  917MOL0     C20976   9.086   9.231   8.556  0.3970 -0.2170  0.2306
  917MOL0     C20977   8.347   9.314   8.575  0.1496 -0.3822  0.4810
  917MOL0     C20978   8.221   9.258   8.585  0.4489 -0.4565 -0.5998
  917MOL0     H20979   7.767   9.432   8.658 -4.3914  1.4372 -2.1529
  917MOL0     H20980   7.520   9.405   8.665 -1.5879 -1.4778 -1.8857
  917MOL0     H20981   7.270   9.067   8.606  3.2954 -2.0592  1.9848
  917MOL0     H20982   7.375   9.171   8.504 -3.0038  0.6490 -1.4123
  917MOL0     H20983   7.164   9.267   8.510 -0.8290  1.4425  0.6799
  917MOL0     H20984   7.276   9.374   8.597  0.7234 -0.2817 -2.7964
  917MOL0     H20985   7.191   9.258   8.809  0.5238 -1.6479  0.3459
  917MOL0     H20986   7.082   9.165   8.707  3.3179 -1.6287  1.6467
  917MOL0     H20987   7.083   9.474   8.750 -1.2512  0.9652 -1.5264
  917MOL0     H20988   6.985   9.400   8.619 -1.8624 -0.3122  1.1219
  917MOL0     H20989   6.830   9.291   8.771  0.8483 -0.5858 -0.8540
  917MOL0     H20990   6.838   9.464   8.807 -0.3707  0.7569  3.1506
  917MOL0     H20991   7.020   9.368   9.002  0.3630 -0.4622 -1.0646
  917MOL0     H20992   6.941   9.225   8.947  3.7634 -0.4850  0.6121
  917MOL0     H20993   6.853   9.394   9.138 -1.7299  0.4415 -0.4637
  917MOL0     H20994   6.777   9.473   9.009 -0.4588 -0.2184  1.8526
  917MOL0     H20995   6.736   9.171   9.087 -0.5448  0.3038  1.3504
  917MOL0     H20996   6.674   9.260   8.937  0.1544  0.5240 -0.5479
  917MOL0     H20997   6.688   9.415   9.288 -1.3793  2.1175  1.7884
  917MOL0     H20998   6.500   9.529   9.431 -1.1230  2.4061  0.6017
  917MOL0     H20999   6.350   9.425   9.429  0.9720  0.7756  1.5667
  917MOL0     H21000   6.255   9.583   9.285 -0.4549 -0.5728  3.1548
  917MOL0     H21001   6.403   9.644   9.230 -1.3911  0.8121 -0.8095
  917MOL0     H21002   6.409   9.749   9.481 -0.4100  1.9999 -1.5278
  917MOL0     H21003   6.280   9.805   9.384 -0.9445 -0.7358  0.5575
  917MOL0     H21004   6.258   9.592   9.601 -0.1769 -0.2640 -0.1237
  917MOL0     H21005   6.132   9.626   9.485  1.0133  0.0548 -1.2477
  917MOL0     H21006   5.935   9.658   9.553 -0.5108  2.4026 -1.9309
  917MOL0     H21007   5.752   9.639   9.717  0.5056 -1.1545  3.6883
  917MOL0     H21008   5.458   9.500   9.960 -0.2997  0.2997 -0.9700
  917MOL0     H21009   5.268   9.504  10.119 -1.3198  0.6897  0.0376
  917MOL0     H21010   5.063   9.553  10.143  0.8120  0.6775 -0.5009
  917MOL0     H21011   4.959   9.693  10.195  0.3704  0.8882  1.3863
  917MOL0     H21012   5.030   9.609  10.440 -1.7995 -2.1650  1.5190
  917MOL0     H21013   5.119   9.492  10.338  2.4383  1.9525 -1.9045
  917MOL0     H21014   4.937   9.362  10.388 -1.8489  0.0917  1.0751
  917MOL0     H21015   4.884   9.445  10.242  0.9439  4.1480 -1.0653
  917MOL0     H21016   4.802   9.549  10.511 -2.3953 -1.4224  0.3988
  917MOL0     H21017   4.750   9.607  10.348  0.2734  0.5588 -0.2083
  917MOL0     H21018   4.684   9.354  10.502 -0.8091  1.9635  1.7984
  917MOL0     H21019   4.656   9.368  10.325  0.2683 -1.6799  0.4410
  917MOL0     H21020   4.532   9.562  10.357 -1.2256 -0.4498 -0.0648
  917MOL0     H21021   4.567   9.578  10.526  0.8134 -2.8840  2.7682
  917MOL0     H21022   4.384   9.347  10.422 -1.4746  2.2458 -1.0162
  917MOL0     H21023   4.458   9.357  10.593 -2.0044 -0.5052  0.8617
  917MOL0     H21024   4.210   9.421  10.569 -0.3510  0.7995  0.1938
  917MOL0     H21025   4.262   9.564  10.489  0.6937  0.5217  1.3032
  917MOL0     H21026   5.315   9.903  10.205 -3.6169 -0.9631 -0.4382
  917MOL0     H21027   5.509   9.914  10.046  1.1988 -1.0770  0.2634
  917MOL0     H21028   5.918   9.956   9.948 -0.8402  1.2054 -1.6334
  917MOL0     H21029   6.119   9.966   9.789  1.0767 -0.4532  1.7849
  917MOL0     H21030   7.563   8.985   8.730 -1.6346  0.3800  1.7808
  917MOL0     H21031   7.820   9.011   8.698 -0.9586 -1.9266 -0.9011
  917MOL0     H21032   8.240   9.114   8.891 -1.4766 -0.8574 -0.6059
  917MOL0     H21033   8.464   9.217   8.885 -0.5114 -0.8178  0.9063
  917MOL0     H21034   8.616   9.157   8.655  1.4121 -0.8469 -1.3649
  917MOL0     H21035   8.724   9.258   8.747  1.0711 -0.9145 -0.8126
  917MOL0     H21036   8.775   9.211   8.494 -1.1789  0.2140 -2.1606
  917MOL0     H21037   8.639   9.311   8.460 -1.1193  1.1893  1.0989
  917MOL0     H21038   8.728   9.519   8.564  0.9355  0.3241  1.1197
  917MOL0     H21039   8.828   9.454   8.438  2.2339 -0.7818  0.2894
  917MOL0     H21040   8.964   9.524   8.637 -0.8449 -0.1637 -1.9591
  917MOL0     H21041   8.874   9.403   8.736 -0.2595 -0.3661  0.0542
  917MOL0     H21042   9.148   9.150   8.524 -1.3241 -1.2551 -0.6610
  917MOL0     H21043   8.386   9.362   8.486  2.5356  0.1963  1.7562
  917MOL0     H21044   8.158   9.274   8.498  0.2472 -0.4731 -0.4584
  918MOL0     O21045   0.249  10.674  10.279 -0.2800  0.2228 -0.2223
  918MOL0     C21046   0.306  10.685  10.174 -0.2189 -0.6638  0.5410
  918MOL0     O21047   0.252  10.688  10.044  0.7619  0.3705 -0.1533
  918MOL0     C21048   0.113  10.668  10.037 -0.2854  0.4269  0.0887
  918MOL0     C21049   0.052  10.727   9.928 -0.5049 -0.2085 -0.1155
  918MOL0     C21050  -0.082  10.696   9.897  0.0371 -0.1366 -0.2642
  918MOL0     C21051  -0.158  10.614   9.981  0.7365  0.6785 -0.3444
  918MOL0     O21052  -0.287  10.594   9.942 -0.5180  0.4551  1.0683
  918MOL0     C21053  -0.341  10.467   9.975  0.2859 -0.0298  0.2301
  918MOL0     C21054  -0.480  10.478   9.904  0.2699  0.5407  0.1956
  918MOL0     C21055  -0.564  10.354   9.913 -0.1257  0.2821  0.2051
  918MOL0     C21056  -0.700  10.343   9.835 -0.0803 -0.0236  0.3663
  918MOL0     C21057  -0.776  10.227   9.902  0.5717 -0.7124  0.6660
  918MOL0     C21058  -0.904  10.205   9.816  0.2215 -0.6297 -0.1598
  918MOL0     C21059  -1.011  10.112   9.885 -0.5236  0.4316 -0.2625
  918MOL0     C21060  -1.132  10.118   9.796 -0.0090 -0.8134  0.4641
  918MOL0     N21061  -1.253  10.077   9.855 -0.3066 -0.2663  0.2816
  918MOL0     C21062  -1.311   9.953   9.881 -0.3373 -0.8512 -0.2392
  918MOL0     C21063  -1.429   9.973   9.956 -0.3726  0.1781 -0.2717
  918MOL0     C21064  -1.520   9.860   9.993 -0.5107  0.2611  1.3208
  918MOL0     C21065  -1.608   9.818   9.880  0.3148 -0.7777  0.5630
  918MOL0     C21066  -1.700   9.697   9.922 -0.2845  0.1994 -0.1272
  918MOL0     C21067  -1.786   9.652   9.792  0.1115  0.1868 -0.2771
  918MOL0     O21068  -1.892   9.561   9.836  0.0323  0.4429 -0.5226
  918MOL0     C21069  -1.994   9.609   9.913 -0.6220  0.4841 -0.8256
  918MOL0     C21070  -2.024   9.747   9.925  0.1955  0.1845 -0.5000
  918MOL0     C21071  -2.149   9.786   9.981  0.1101  0.0621  0.0997
  918MOL0     C21072  -2.240   9.684  10.031  0.3992 -0.3786 -0.8163
  918MOL0     C21073  -2.369   9.725  10.091  0.0386  0.0668  0.0267
  918MOL0     O21074  -2.403   9.855  10.075 -0.3103  0.0666 -0.4832
  918MOL0     C21075  -2.524   9.907  10.110  0.4227  0.1613  0.8641
  918MOL0     C21076  -2.519  10.046  10.126  0.6644  0.1557 -0.2526
  918MOL0     C21077  -2.629  10.117  10.165  0.1045  0.4494  0.4549
  918MOL0     C21078  -2.751  10.056  10.170  0.1440  0.1254  0.5201
  918MOL0     O21079  -2.859  10.134  10.194  0.4448 -0.7954 -0.0511
  918MOL0     C21080  -2.990  10.086  10.229  0.2167  0.3783  0.0093
  918MOL0     C21081  -3.062  10.222  10.259 -1.3595  0.3485 -0.1517
  918MOL0     C21082  -3.186  10.190  10.356 -0.0827 -0.7720  0.4300
  918MOL0     C21083  -3.279  10.089  10.278 -0.1090 -0.0938  0.5080
  918MOL0     C21084  -3.406  10.062  10.359 -0.2229 -0.3172  0.5779
  918MOL0     C21085  -3.520  10.166  10.338 -0.5607  0.6155 -0.0576
  918MOL0     C21086  -3.627  10.164  10.452 -0.7016  0.1963  0.0392
  918MOL0     C21087  -3.764  10.121  10.395  0.1508  0.4111  0.8215
  918MOL0    Cl21088  -3.887  10.142  10.526 -0.0792 -0.2856  0.2307
  918MOL0     C21089  -2.761   9.919  10.143  0.6983 -0.6579 -0.6147
  918MOL0     C21090  -2.650   9.842  10.120  0.5448 -0.1786  0.3551
  918MOL0     O21091  -2.428   9.638  10.150  0.2973 -0.6455 -0.6624
  918MOL0     C21092  -2.196   9.548  10.032  0.7099 -0.6425 -0.0487
  918MOL0     C21093  -2.074   9.516   9.980 -0.4971 -0.4309  1.0824
  918MOL0     N21094  -1.435  10.109   9.980  0.0104 -0.2361  0.0087
  918MOL0     N21095  -1.331  10.165   9.924 -0.3974 -0.2453  0.2131
  918MOL0     C21096  -0.097  10.568  10.100  0.8482  0.0288  0.1852
  918MOL0     C21097   0.040  10.586  10.124 -0.1238 -0.2279 -0.6251
  918MOL0     C21098   0.457  10.708  10.179  0.4607 -0.4034  0.4901
  918MOL0     C21099   0.534  10.739  10.296 -0.4535 -0.1823 -1.3166
  918MOL0     C21100   0.680  10.753  10.295 -0.5131  0.1111  0.4359
  918MOL0     C21101   0.757  10.733  10.184  0.3964  0.4021  0.6103
  918MOL0     O21102   0.891  10.734  10.169 -0.3489 -0.2458 -0.0621
  918MOL0     C21103   0.979  10.736  10.281  0.4543 -0.2157 -0.5663
  918MOL0     C21104   1.123  10.713  10.246  0.5420 -0.5166  1.0099
  918MOL0     C21105   1.210  10.805  10.328 -0.3222  0.2390  0.2751
  918MOL0     C21106   1.358  10.770  10.305 -0.5343  0.4561  0.5473
  918MOL0     C21107   1.410  10.798  10.164 -1.1715 -0.3676  0.5851
  918MOL0     C21108   1.450  10.819  10.053  0.5966  0.0891  0.1824
  918MOL0     C21109   0.682  10.692  10.071 -0.0100  0.2650 -0.4364
  918MOL0     C21110   0.542  10.681  10.072 -0.0180  0.8378 -0.1582
  918MOL0     H21111   0.119  10.796   9.877  0.5997  0.2533  1.8695
  918MOL0     H21112  -0.124  10.732   9.804 -4.3000  1.1942  1.9593
  918MOL0     H21113  -0.353  10.452  10.082 -3.2343 -0.3394 -0.0614
  918MOL0     H21114  -0.288  10.379   9.938 -0.5360 -1.3267  2.0034
  918MOL0     H21115  -0.464  10.503   9.798 -0.6598  1.5445  0.2748
  918MOL0     H21116  -0.540  10.558   9.947 -0.9169 -0.9949  1.4597
  918MOL0     H21117  -0.577  10.329  10.019 -2.2792 -1.3515 -0.3760
  918MOL0     H21118  -0.507  10.269   9.875 -0.0689  0.2010  0.4691
  918MOL0     H21119  -0.748  10.440   9.849  2.3653  0.9068  3.4576
  918MOL0     H21120  -0.668  10.334   9.730  1.6741  2.0785  0.6575
  918MOL0     H21121  -0.801  10.249  10.007 -2.1891 -1.7478  0.3184
  918MOL0     H21122  -0.719  10.134   9.900 -0.6404 -1.4713  0.4028
  918MOL0     H21123  -0.879  10.166   9.717  0.4647  0.4697 -0.5471
  918MOL0     H21124  -0.956  10.301   9.811  0.6525 -0.2274  2.1542
  918MOL0     H21125  -0.975  10.010   9.896 -0.3374  0.5178 -0.0597
  918MOL0     H21126  -1.042  10.159   9.979 -0.2467 -2.2162  1.2342
  918MOL0     H21127  -1.127  10.051   9.710 -0.2677 -0.3600  0.0907
  918MOL0     H21128  -1.141  10.214   9.745  0.0195 -1.2479 -0.3761
  918MOL0     H21129  -1.292   9.853   9.842 -0.8211 -1.2888  0.6033
  918MOL0     H21130  -1.580   9.885  10.080  0.3926 -3.7275  3.3466
  918MOL0     H21131  -1.459   9.771  10.012 -3.2232 -1.7668  1.0631
  918MOL0     H21132  -1.545   9.781   9.800 -0.8558 -2.2969  0.3092
  918MOL0     H21133  -1.667   9.906   9.851 -3.1373 -2.0642  2.9559
  918MOL0     H21134  -1.641   9.611   9.955 -0.9632 -0.7087 -1.2003
  918MOL0     H21135  -1.765   9.722  10.006  0.2095 -0.4690  0.4678
  918MOL0     H21136  -1.730   9.603   9.712  1.7435 -0.9199  1.4481
  918MOL0     H21137  -1.835   9.739   9.750 -0.7543 -0.4410 -0.6069
  918MOL0     H21138  -1.962   9.828   9.888 -0.6763  1.4180  0.6459
  918MOL0     H21139  -2.189   9.887   9.980  0.5583  0.2512 -1.7502
  918MOL0     H21140  -2.418  10.085  10.115  1.7087 -2.2093  0.2643
  918MOL0     H21141  -2.632  10.223  10.185  1.4839  0.5535  0.2007
  918MOL0     H21142  -2.990  10.039  10.328  1.2445  2.1756  0.9310
  918MOL0     H21143  -3.053  10.038  10.154 -0.5970  1.8126 -0.2572
  918MOL0     H21144  -3.092  10.278  10.170  0.1766  4.4728  1.6596
  918MOL0     H21145  -2.995  10.282  10.321 -3.0963  2.9296 -0.6362
  918MOL0     H21146  -3.244  10.282  10.365 -2.1999 -1.9040 -0.9463
  918MOL0     H21147  -3.157  10.151  10.454 -1.1474 -3.9060 -0.3906
  918MOL0     H21148  -3.303  10.137  10.183  1.3654  1.7930  1.0102
  918MOL0     H21149  -3.226   9.998  10.250  0.1520 -0.2425  1.4278
  918MOL0     H21150  -3.371  10.077  10.462  0.6175 -2.1048  0.5885
  918MOL0     H21151  -3.432   9.957  10.338  1.4425 -0.5743 -0.2938
  918MOL0     H21152  -3.563  10.149  10.238 -0.2305  1.4180 -0.3484
  918MOL0     H21153  -3.471  10.263  10.339 -1.9586  1.3529  0.5875
  918MOL0     H21154  -3.598  10.090  10.528 -0.2937 -0.5982 -0.8672
  918MOL0     H21155  -3.650  10.259  10.500 -1.0780 -0.0922  0.4446
  918MOL0     H21156  -3.771  10.019  10.357 -5.5250  1.4526 -1.8865
  918MOL0     H21157  -3.793  10.181  10.308 -0.4306 -4.6296 -2.9304
  918MOL0     H21158  -2.863   9.885  10.124 -0.0483  2.0263 -1.9648
  918MOL0     H21159  -2.665   9.735  10.112  0.7849 -0.2190  0.4628
  918MOL0     H21160  -2.266   9.475  10.071 -0.1892  0.3084  0.1568
  918MOL0     H21161  -2.034   9.415   9.980  0.0813 -0.2075  0.9437
  918MOL0     H21162  -0.152  10.510  10.173 -1.7413 -0.5351 -2.0287
  918MOL0     H21163   0.080  10.537  10.213 -3.0703  0.6912  1.3435
  918MOL0     H21164   0.471  10.752  10.383 -0.3711 -1.1911 -1.0885
  918MOL0     H21165   0.730  10.781  10.387 -1.8709  1.5759  0.7804
  918MOL0     H21166   0.931  10.674  10.357 -1.8489  1.5287 -0.4838
  918MOL0     H21167   0.963  10.837  10.319 -1.7504 -0.7228  0.0032
  918MOL0     H21168   1.135  10.605  10.257 -3.0128 -1.2393 -0.8363
  918MOL0     H21169   1.133  10.739  10.140 -0.5874 -1.7913  0.5664
  918MOL0     H21170   1.191  10.798  10.435  0.2304 -2.5876  0.2633
  918MOL0     H21171   1.189  10.909  10.300  2.4493  0.6568 -0.5155
  918MOL0     H21172   1.423  10.833  10.366 -0.4675  0.5851  0.3450
  918MOL0     H21173   1.387  10.672  10.344 -2.2578  0.2300  1.3332
  918MOL0     H21174   1.493  10.840   9.957  1.5464  1.6173  0.9026
  918MOL0     H21175   0.752  10.653   9.998  3.2032  2.1102  1.4061
  918MOL0     H21176   0.503  10.644   9.978 -0.6165 -2.9982  1.4171
  919MOL0     O21177   9.179  11.256   0.150 -0.6183  0.3121 -0.3006
  919MOL0     C21178   9.056  11.267   0.130  0.1048  0.2665  0.2774
  919MOL0     O21179   8.994  11.276   0.016 -0.3813  1.2276 -0.2647
  919MOL0     C21180   9.081  11.280  -0.092 -1.1089 -0.0885  0.5362
  919MOL0     C21181   9.090  11.159  -0.174  0.2968 -0.2887  0.8553
  919MOL0     C21182   9.201  11.137  -0.250  0.3443  0.6187  0.4562
  919MOL0     C21183   9.294  11.236  -0.274 -0.0551 -0.6988  0.1222
  919MOL0     O21184   9.398  11.206  -0.354 -0.0173  0.4462  0.1775
  919MOL0     C21185   9.465  11.323  -0.406  0.0013 -0.2861  0.6975
  919MOL0     C21186   9.571  11.280  -0.509 -0.7137  0.9414 -0.1480
  919MOL0     C21187   9.525  11.197  -0.625  0.0262  0.1666  0.1595
  919MOL0     C21188   9.650  11.152  -0.717  1.4913  0.9189 -0.2731
  919MOL0     C21189   9.592  11.056  -0.832 -0.2611 -0.2055 -0.6892
  919MOL0     C21190   9.665  11.059  -0.959  0.1127 -0.6480  0.3739
  919MOL0     C21191   9.578  10.997  -1.075 -0.2670 -0.2285  0.8595
  919MOL0     C21192   9.586  10.843  -1.064  0.4634 -0.1478 -0.0786
  919MOL0     N21193   9.515  10.771  -1.171  0.0871  0.5719  0.3319
  919MOL0     C21194   9.379  10.785  -1.189 -0.7341  0.1566  0.1529
  919MOL0     C21195   9.353  10.691  -1.286  0.2923  0.3944 -0.5855
  919MOL0     C21196   9.226  10.654  -1.350  0.7663  0.5563  0.2290
  919MOL0     C21197   9.170  10.548  -1.268 -0.3210 -0.9195  0.3933
  919MOL0     C21198   9.111  10.611  -1.145  0.0810 -0.6775  0.3623
  919MOL0     C21199   9.038  10.506  -1.066 -0.3242  0.0730  1.1390
  919MOL0     O21200   8.960  10.420  -1.148  0.4285  0.0441  0.7464
  919MOL0     C21201   8.844  10.475  -1.195  0.9860  0.6406 -0.8538
  919MOL0     C21202   8.763  10.574  -1.141 -0.2504  0.1637 -0.2001
  919MOL0     C21203   8.632  10.609  -1.179 -0.1618  0.3810 -0.5845
  919MOL0     C21204   8.572  10.535  -1.275  0.4836 -0.2647 -0.5049
  919MOL0     C21205   8.436  10.571  -1.327  0.3088 -0.4627 -0.4812
  919MOL0     O21206   8.375  10.676  -1.272 -0.1916  1.4768 -0.0924
  919MOL0     C21207   8.242  10.703  -1.298  0.2559 -0.1810 -0.5656
  919MOL0     C21208   8.207  10.826  -1.356  0.3711  0.5706  0.6496
  919MOL0     C21209   8.068  10.848  -1.386 -0.8172 -0.0714 -0.3381
  919MOL0     C21210   7.966  10.761  -1.357  0.3711 -0.3754 -0.3077
  919MOL0     O21211   7.831  10.785  -1.378  0.0097  0.0919  0.0291
  919MOL0     C21212   7.796  10.921  -1.424  0.0328  0.4069 -0.2702
  919MOL0     C21213   7.640  10.922  -1.445 -0.7215  0.2756 -0.5901
  919MOL0     C21214   7.572  10.982  -1.322 -0.1909  0.6316 -0.2509
  919MOL0     C21215   7.420  10.957  -1.340  0.2360  0.0701  0.1586
  919MOL0     C21216   7.346  11.038  -1.232  0.2188 -0.1992 -0.0588
  919MOL0     C21217   7.204  11.023  -1.264  1.0517 -1.2219 -0.7885
  919MOL0     C21218   7.111  11.036  -1.137 -0.8043  0.1172  0.4885
  919MOL0     C21219   6.965  11.006  -1.164 -0.3467  0.0779  0.4858
  919MOL0    Cl21220   6.873  11.142  -1.229  0.1952 -0.1137 -0.7163
  919MOL0     C21221   8.009  10.641  -1.294 -0.2436 -0.2518  0.5623
  919MOL0     C21222   8.144  10.618  -1.261  0.2438  0.6310  0.5744
  919MOL0     O21223   8.377  10.491  -1.408 -1.0466  0.1576 -0.0027
  919MOL0     C21224   8.644  10.431  -1.338 -0.7440  0.7365 -0.0851
  919MOL0     C21225   8.775  10.400  -1.295  0.1584 -0.1936 -0.2790
  919MOL0     N21226   9.480  10.637  -1.327  0.7330  0.3284 -0.1622
  919MOL0     N21227   9.578  10.683  -1.260  0.4242 -0.7245 -0.7233
  919MOL0     C21228   9.275  11.362  -0.207  0.3840 -0.9310  0.3992
  919MOL0     C21229   9.176  11.381  -0.121 -0.2708  0.2716 -0.5524
  919MOL0     C21230   8.970  11.281   0.247 -0.2523 -0.0294  0.8117
  919MOL0     C21231   8.830  11.273   0.246  0.9824 -0.5044 -0.3999
  919MOL0     C21232   8.744  11.308   0.355  0.0823 -0.1930  0.5139
  919MOL0     C21233   8.803  11.334   0.480 -0.0077 -0.4106  0.2003
  919MOL0     O21234   8.740  11.352   0.599 -0.4677  0.0859 -0.2515
  919MOL0     C21235   8.595  11.313   0.604  0.1970 -0.3607 -0.4649
  919MOL0     C21236   8.509  11.432   0.554 -0.4247 -0.0211  0.0254
  919MOL0     C21237   8.363  11.413   0.534  0.4688  0.0549  0.0409
  919MOL0     C21238   8.318  11.393   0.385 -0.3514  0.1631 -0.4209
  919MOL0     C21239   8.362  11.259   0.344 -0.0983 -0.5508 -0.1241
  919MOL0     C21240   8.369  11.141   0.344  0.7018  0.8098  0.3626
  919MOL0     C21241   8.945  11.337   0.491 -0.4445  0.9222 -0.2490
  919MOL0     C21242   9.023  11.312   0.374 -0.5356 -0.7092  0.0138
  919MOL0     H21243   9.028  11.075  -0.146 -1.4360 -0.3150 -2.4565
  919MOL0     H21244   9.230  11.039  -0.287 -1.5851 -0.1616  0.8657
  919MOL0     H21245   9.523  11.381  -0.333  0.1191  2.2381 -1.2544
  919MOL0     H21246   9.389  11.387  -0.452  1.4743  0.4930 -0.7643
  919MOL0     H21247   9.651  11.219  -0.465  1.6841  2.7069 -1.7897
  919MOL0     H21248   9.609  11.370  -0.558 -1.8090  2.3476  1.4928
  919MOL0     H21249   9.450  11.243  -0.690 -2.7346 -0.7497  2.4997
  919MOL0     H21250   9.487  11.106  -0.579 -3.4843  0.5456 -1.6360
  919MOL0     H21251   9.697  11.239  -0.765  0.4382  2.5872  1.5774
  919MOL0     H21252   9.729  11.102  -0.660  1.1428  0.9509  0.2373
  919MOL0     H21253   9.487  11.077  -0.857 -0.8802 -0.1349  1.7104
  919MOL0     H21254   9.599  10.957  -0.786 -2.0786 -0.5742 -1.1323
  919MOL0     H21255   9.757  11.000  -0.958  1.1976  0.9263 -1.2973
  919MOL0     H21256   9.691  11.161  -0.987 -2.3608  1.2463  4.1276
  919MOL0     H21257   9.474  11.025  -1.059 -0.8320 -2.1274  0.7353
  919MOL0     H21258   9.622  11.035  -1.168  2.3537  0.3741  2.2473
  919MOL0     H21259   9.547  10.812  -0.966 -1.9623  0.3705 -0.7988
  919MOL0     H21260   9.690  10.810  -1.069 -0.3375 -2.7107 -1.3522
  919MOL0     H21261   9.307  10.841  -1.130  1.8629  0.7174  3.0591
  919MOL0     H21262   9.238  10.617  -1.452  0.3612 -1.5182  0.8803
  919MOL0     H21263   9.163  10.743  -1.350  0.3915  0.4562  3.9168
  919MOL0     H21264   9.244  10.472  -1.242  0.7940  1.0414  3.6124
  919MOL0     H21265   9.096  10.507  -1.338 -1.3938  3.4625 -1.3686
  919MOL0     H21266   9.182  10.651  -1.072 -2.4171  2.3727  1.3829
  919MOL0     H21267   9.031  10.679  -1.176 -1.5458 -3.7210 -2.8144
  919MOL0     H21268   8.978  10.547  -0.984 -0.6974  0.1977  0.8087
  919MOL0     H21269   9.122  10.446  -1.029 -0.7865 -0.9554  0.5363
  919MOL0     H21270   8.797  10.636  -1.059  0.9053  3.6187 -3.0357
  919MOL0     H21271   8.584  10.689  -1.122 -1.0651 -0.0925 -0.6585
  919MOL0     H21272   8.277  10.904  -1.384 -0.3015  0.7319 -0.6668
  919MOL0     H21273   8.054  10.948  -1.425 -0.4998  1.8329  3.8469
  919MOL0     H21274   7.854  10.939  -1.515  1.7410  2.2017  1.0731
  919MOL0     H21275   7.823  10.997  -1.349 -0.4830 -1.1691  1.5950
  919MOL0     H21276   7.599  10.821  -1.457  2.8542 -1.4324  0.3689
  919MOL0     H21277   7.618  10.970  -1.541 -0.8672  1.7984  0.1676
  919MOL0     H21278   7.590  11.087  -1.296 -3.3114  1.3944 -0.7440
  919MOL0     H21279   7.595  10.920  -1.235  1.4317  0.4076 -0.7972
  919MOL0     H21280   7.392  10.986  -1.442 -0.7135  0.5834  0.5519
  919MOL0     H21281   7.392  10.851  -1.335  0.7292 -0.0227  1.3556
  919MOL0     H21282   7.381  11.141  -1.236  2.0395 -0.6520  2.0604
  919MOL0     H21283   7.376  10.992  -1.137  3.7629 -1.4543 -1.6192
  919MOL0     H21284   7.181  10.929  -1.315 -0.5140 -0.8376 -0.8144
  919MOL0     H21285   7.188  11.106  -1.333  3.4019  0.3981  0.4673
  919MOL0     H21286   7.149  10.955  -1.074  0.0997  0.7714  0.8130
  919MOL0     H21287   7.116  11.130  -1.081 -4.1184  0.1236  0.9906
  919MOL0     H21288   6.902  10.973  -1.081 -0.5453  2.5226  1.4040
  919MOL0     H21289   6.951  10.922  -1.231 -2.0784  2.7812 -2.8685
  919MOL0     H21290   7.919  10.582  -1.278 -2.8460  1.9547 -3.9024
  919MOL0     H21291   8.170  10.523  -1.215  2.8227  1.6145  1.3088
  919MOL0     H21292   8.594  10.354  -1.396  0.4319 -2.5110  2.8746
  919MOL0     H21293   8.835  10.322  -1.343  4.7701  0.2370  3.9421
  919MOL0     H21294   9.344  11.444  -0.215 -0.0432 -0.4240  1.6583
  919MOL0     H21295   9.192  11.460  -0.049  2.1123  0.3587 -1.0957
  919MOL0     H21296   8.789  11.233   0.154  0.7973 -0.0323 -0.5286
  919MOL0     H21297   8.637  11.305   0.335 -0.4288 -1.8333  3.0285
  919MOL0     H21298   8.559  11.281   0.703  1.4852 -2.1451 -0.5127
  919MOL0     H21299   8.583  11.228   0.537 -2.1116 -0.9762  0.6044
  919MOL0     H21300   8.526  11.502   0.636 -0.6690 -0.4094  0.4124
  919MOL0     H21301   8.548  11.488   0.469 -0.5141 -0.7649 -0.5178
  919MOL0     H21302   8.328  11.508   0.577  2.5740  1.1198 -0.4554
  919MOL0     H21303   8.326  11.334   0.600  0.9274  1.5846  2.2561
  919MOL0     H21304   8.209  11.395   0.369 -0.0821 -2.1804 -3.3300
  919MOL0     H21305   8.362  11.468   0.319 -0.9001 -2.1002 -3.5523
  919MOL0     H21306   8.380  11.034   0.341 -1.1871  0.5830  0.2230
  919MOL0     H21307   8.982  11.368   0.588 -1.9259  3.0971 -0.2874
  919MOL0     H21308   9.130  11.319   0.387 -0.6479  2.4688  0.0190
  920MOL0     O21309   1.761   4.579   6.216 -0.6432  0.5841 -0.2054
  920MOL0     C21310   1.752   4.460   6.235  0.8728 -0.5741 -0.2697
  920MOL0     O21311   1.850   4.367   6.207 -0.4658  0.0470  0.0505
  920MOL0     C21312   1.986   4.412   6.210  0.1921 -0.0388 -0.0597
  920MOL0     C21313   2.050   4.431   6.090  0.6628  0.3185 -0.3193
  920MOL0     C21314   2.178   4.478   6.092  0.2172  1.3335  0.3203
  920MOL0     C21315   2.242   4.526   6.202 -0.0161  0.2111  0.7915
  920MOL0     O21316   2.360   4.588   6.180  0.3477 -0.4741  0.6732
  920MOL0     C21317   2.419   4.644   6.295  0.1969  0.3262  0.2472
  920MOL0     C21318   2.569   4.620   6.277  0.2971  0.2639 -0.1899
  920MOL0     C21319   2.630   4.662   6.143  0.3034 -0.4598 -0.5250
  920MOL0     C21320   2.784   4.660   6.141 -0.1650 -0.1461  0.2415
  920MOL0     C21321   2.834   4.516   6.156 -0.4938  0.4687 -0.2477
  920MOL0     C21322   2.981   4.504   6.155 -0.0857  0.4836 -0.7452
  920MOL0     C21323   3.026   4.357   6.120  0.2888  0.0006  0.1416
  920MOL0     C21324   3.101   4.290   6.239 -0.4025  0.4863  0.0256
  920MOL0     N21325   3.013   4.277   6.360 -0.7316 -0.2871 -0.2649
  920MOL0     C21326   2.940   4.170   6.396  0.2635  0.3843  0.6089
  920MOL0     C21327   2.898   4.201   6.521  0.3496  0.1548 -0.0520
  920MOL0     C21328   2.819   4.113   6.610 -0.0311  0.8522  0.6193
  920MOL0     C21329   2.694   4.201   6.663 -0.3444 -0.0584 -0.4052
  920MOL0     C21330   2.604   4.247   6.548  0.0448  0.2243 -0.2925
  920MOL0     C21331   2.525   4.375   6.579  0.5680  1.1481 -0.2827
  920MOL0     O21332   2.500   4.388   6.721 -0.4103 -0.1548  0.4980
  920MOL0     C21333   2.412   4.488   6.764 -0.0549 -0.7740 -0.1076
  920MOL0     C21334   2.284   4.512   6.706 -0.3099 -0.4873 -0.0956
  920MOL0     C21335   2.195   4.615   6.759  0.5717 -0.4201 -0.1334
  920MOL0     C21336   2.224   4.682   6.877  0.6579 -0.3327 -0.3483
  920MOL0     C21337   2.117   4.775   6.934 -0.1955  0.3201 -0.3760
  920MOL0     O21338   2.163   4.838   7.039 -0.3099 -0.8365 -0.4719
  920MOL0     C21339   2.087   4.928   7.120  0.3288  1.2780 -0.1971
  920MOL0     C21340   1.966   4.891   7.167 -0.8057  0.3500  0.3850
  920MOL0     C21341   1.895   4.980   7.249  0.4765  0.3663  0.3672
  920MOL0     C21342   1.942   5.115   7.271 -0.0567  0.3470 -0.0224
  920MOL0     O21343   1.867   5.201   7.356  0.3323 -0.2966  0.1261
  920MOL0     C21344   1.865   5.339   7.328 -0.1253 -0.3304  0.2309
  920MOL0     C21345   1.773   5.414   7.433 -0.2363  0.8800  1.0306
  920MOL0     C21346   1.632   5.355   7.430  0.2937 -0.3862 -0.2918
  920MOL0     C21347   1.569   5.323   7.296 -0.7708 -0.1425 -0.8486
  920MOL0     C21348   1.427   5.272   7.309 -0.3027 -0.3671  0.4687
  920MOL0     C21349   1.325   5.381   7.356  0.6581 -0.6143  0.3847
  920MOL0     C21350   1.188   5.340   7.372 -0.1768 -0.2556 -0.0173
  920MOL0     C21351   1.111   5.389   7.487 -0.1862 -0.8110 -0.4697
  920MOL0    Cl21352   1.155   5.328   7.651 -0.5336 -0.4599  0.0131
  920MOL0     C21353   2.069   5.149   7.217 -0.3432 -0.4591  0.0484
  920MOL0     C21354   2.142   5.055   7.145 -0.1980 -0.3681  1.1302
  920MOL0     O21355   2.007   4.793   6.883  0.1846 -0.3669 -0.2093
  920MOL0     C21356   2.354   4.667   6.929  0.2984 -0.5179  0.1809
  920MOL0     C21357   2.446   4.569   6.876 -0.7341 -0.3489  0.2277
  920MOL0     N21358   2.940   4.325   6.555 -0.0067 -0.0184 -0.0252
  920MOL0     N21359   3.001   4.379   6.456 -0.4441 -0.1682 -1.2396
  920MOL0     C21360   2.170   4.517   6.331  0.0050 -0.4381  0.3405
  920MOL0     C21361   2.049   4.452   6.330  1.2868  0.8761 -0.0601
  920MOL0     C21362   1.625   4.413   6.297  0.5632 -0.3999  0.4809
  920MOL0     C21363   1.591   4.277   6.298 -0.3834  0.6541 -0.1219
  920MOL0     C21364   1.477   4.219   6.355 -0.7280  0.3921 -0.0576
  920MOL0     C21365   1.387   4.310   6.418 -1.3616  0.4163  0.2812
  920MOL0     O21366   1.273   4.263   6.485  0.1582 -0.2984  0.3261
  920MOL0     C21367   1.180   4.194   6.398 -0.5979 -0.0566  0.6764
  920MOL0     C21368   1.034   4.213   6.444  0.5770 -0.2795  0.9919
  920MOL0     C21369   0.997   4.134   6.575 -0.4881 -0.5754 -0.1618
  920MOL0     C21370   0.854   4.087   6.577 -0.1284 -0.4140 -1.1405
  920MOL0     C21371   0.842   3.974   6.672  0.6717  0.6298  0.1413
  920MOL0     C21372   0.841   3.879   6.750  0.5599 -0.3617 -0.1050
  920MOL0     C21373   1.412   4.444   6.403  0.4139  0.9480 -0.1244
  920MOL0     C21374   1.522   4.496   6.342 -1.0687  0.1517  1.1165
  920MOL0     H21375   2.013   4.402   5.992 -2.6110 -1.6057  1.2981
  920MOL0     H21376   2.217   4.493   5.992 -0.6152  3.0374  0.2001
  920MOL0     H21377   2.402   4.593   6.391  1.7026  0.5365  0.6604
  920MOL0     H21378   2.399   4.752   6.297  1.1075  0.6987 -3.5584
  920MOL0     H21379   2.590   4.513   6.286  1.7378  0.4792 -0.7314
  920MOL0     H21380   2.607   4.683   6.358 -0.7236  1.5789 -0.7054
  920MOL0     H21381   2.598   4.762   6.113 -2.3105 -1.5500 -1.7236
  920MOL0     H21382   2.591   4.602   6.060  0.7240 -0.8090 -0.4750
  920MOL0     H21383   2.818   4.700   6.045  2.8755 -1.8181  0.4955
  920MOL0     H21384   2.826   4.734   6.210  1.0039  0.3930 -1.0014
  920MOL0     H21385   2.780   4.457   6.081  0.1599  0.2059 -0.5267
  920MOL0     H21386   2.808   4.474   6.253 -1.3137 -1.6974 -1.3239
  920MOL0     H21387   3.027   4.533   6.250  4.6814  0.4038 -2.7475
  920MOL0     H21388   3.016   4.561   6.069 -2.7759  0.6294 -1.8438
  920MOL0     H21389   2.942   4.289   6.102  1.8523 -2.1948  0.7046
  920MOL0     H21390   3.082   4.371   6.027 -1.2710  0.9481 -0.7146
  920MOL0     H21391   3.195   4.345   6.251 -0.1611  0.4772 -1.5238
  920MOL0     H21392   3.126   4.187   6.210 -2.5293 -0.7586  2.3084
  920MOL0     H21393   2.920   4.073   6.352  3.6207 -1.4311  2.6756
  920MOL0     H21394   2.867   4.090   6.705  0.5153  1.6136  0.5390
  920MOL0     H21395   2.802   4.014   6.568  4.5084  0.5997 -1.2026
  920MOL0     H21396   2.737   4.286   6.716  1.1281  0.3396 -2.1365
  920MOL0     H21397   2.637   4.151   6.742 -0.4869  3.0164  1.6051
  920MOL0     H21398   2.672   4.269   6.465 -0.5920  0.9141 -0.6455
  920MOL0     H21399   2.543   4.167   6.506  1.4856 -0.7502 -0.5803
  920MOL0     H21400   2.432   4.381   6.522 -0.5885  2.0135  1.6308
  920MOL0     H21401   2.590   4.460   6.556  1.2409  0.8729  0.5532
  920MOL0     H21402   2.249   4.452   6.622 -0.5296  0.7696 -0.9380
  920MOL0     H21403   2.097   4.633   6.716 -1.5890 -2.4646  3.4364
  920MOL0     H21404   1.929   4.790   7.146 -1.1271  0.4800  0.3133
  920MOL0     H21405   1.804   4.939   7.292  0.9775 -1.9786 -0.6482
  920MOL0     H21406   1.830   5.350   7.225  0.1787  1.5015  0.2975
  920MOL0     H21407   1.965   5.382   7.327  0.4358 -1.5813 -0.3340
  920MOL0     H21408   1.748   5.516   7.399 -2.3550  0.5094  1.3132
  920MOL0     H21409   1.819   5.418   7.532  3.0733 -2.8134 -0.0969
  920MOL0     H21410   1.570   5.424   7.487  1.9348  1.0353 -0.1272
  920MOL0     H21411   1.629   5.259   7.483 -1.6212 -0.2189 -0.0588
  920MOL0     H21412   1.574   5.409   7.229 -1.3246  2.0528  1.7174
  920MOL0     H21413   1.624   5.245   7.243 -1.8666  1.1225 -4.0773
  920MOL0     H21414   1.434   5.180   7.368  4.0939  0.2687  1.2953
  920MOL0     H21415   1.396   5.240   7.209  0.5484 -3.0686  0.9968
  920MOL0     H21416   1.318   5.441   7.264 -2.5012 -0.6780  0.4879
  920MOL0     H21417   1.374   5.433   7.438  0.7186  2.1709 -1.2814
  920MOL0     H21418   1.125   5.364   7.287 -0.8908 -0.7589  0.3501
  920MOL0     H21419   1.182   5.230   7.371  0.6968 -0.3672 -3.0191
  920MOL0     H21420   1.014   5.341   7.468  1.7255 -4.3594 -2.1735
  920MOL0     H21421   1.100   5.498   7.485 -0.3745 -0.7581  1.7277
  920MOL0     H21422   2.135   5.235   7.218  1.6053 -1.8757  1.1998
  920MOL0     H21423   2.236   5.078   7.098  0.6741 -0.9518  2.5264
  920MOL0     H21424   2.384   4.713   7.023 -0.8493  0.3726  0.1365
  920MOL0     H21425   2.538   4.545   6.927 -1.9958 -0.8584  2.3625
  920MOL0     H21426   2.206   4.549   6.428 -1.8566 -1.4563  1.4199
  920MOL0     H21427   1.999   4.440   6.426  1.4108 -1.0290 -0.1984
  920MOL0     H21428   1.666   4.208   6.260 -1.0550  0.0437 -0.3479
  920MOL0     H21429   1.459   4.112   6.362  1.8794 -0.0104  2.5806
  920MOL0     H21430   1.208   4.088   6.396  2.2864  0.5462 -2.8748
  920MOL0     H21431   1.192   4.214   6.291  1.6231 -0.6856  0.7565
  920MOL0     H21432   1.025   4.321   6.455  0.9928  0.4640 -3.7398
  920MOL0     H21433   0.968   4.184   6.361 -1.7372  0.6335  2.4194
  920MOL0     H21434   1.006   4.199   6.663  2.0332 -1.9919  0.7497
  920MOL0     H21435   1.067   4.051   6.590  2.4221  1.5943 -0.8397
  920MOL0     H21436   0.786   4.163   6.614  0.8384 -1.1185  2.3997
  920MOL0     H21437   0.824   4.050   6.478 -0.6757  0.1810 -1.2061
  920MOL0     H21438   0.850   3.798   6.820  0.1661  1.4097  2.1056
  920MOL0     H21439   1.331   4.512   6.430 -0.2741  0.1835 -0.2396
  920MOL0     H21440   1.541   4.601   6.326 -1.8518 -0.3495 -6.5927
  921MOL0     O21441   6.012   5.562   1.515  0.1801  0.5342 -0.7756
  921MOL0     C21442   5.984   5.442   1.514  0.6776 -0.5340  0.2361
  921MOL0     O21443   6.067   5.345   1.475 -0.7735  0.2340 -0.6511
  921MOL0     C21444   6.171   5.378   1.393 -0.4468  0.9929 -0.0025
  921MOL0     C21445   6.289   5.304   1.404  0.8312 -0.4623 -0.3455
  921MOL0     C21446   6.391   5.307   1.310  0.0006 -0.8134  0.5280
  921MOL0     C21447   6.380   5.404   1.206 -0.7266 -0.9876  0.1712
  921MOL0     O21448   6.476   5.425   1.111 -1.2303 -0.2707  0.0157
  921MOL0     C21449   6.543   5.307   1.062 -0.5962  0.3824  0.9460
  921MOL0     C21450   6.597   5.340   0.921 -0.2781 -0.6022 -0.5344
  921MOL0     C21451   6.697   5.453   0.921  0.3559 -0.1037 -0.1601
  921MOL0     C21452   6.746   5.482   0.780 -0.9100  0.7828 -0.3997
  921MOL0     C21453   6.837   5.608   0.792  0.6592  0.4776 -0.1067
  921MOL0     C21454   6.763   5.740   0.816  0.4972 -0.6170  0.2394
  921MOL0     C21455   6.876   5.861   0.838  0.4999  0.9292  0.0109
  921MOL0     C21456   6.824   5.996   0.789  0.1149  0.2202  0.0944
  921MOL0     N21457   6.933   6.080   0.738 -1.3934 -0.4946 -0.2874
  921MOL0     C21458   6.980   6.198   0.789 -0.4795 -1.0053 -0.8939
  921MOL0     C21459   7.090   6.232   0.720  0.8865 -0.4122  0.1190
  921MOL0     C21460   7.183   6.350   0.745 -0.1866 -1.0742  0.3252
  921MOL0     C21461   7.088   6.478   0.711 -1.1786 -0.5615 -0.6202
  921MOL0     C21462   7.092   6.582   0.820  0.5910  0.7493 -0.2286
  921MOL0     C21463   7.030   6.548   0.958 -0.1077 -0.2220  0.1046
  921MOL0     O21464   6.892   6.540   0.927  0.2807  0.3700 -0.1738
  921MOL0     C21465   6.821   6.478   1.024 -0.0449 -0.0225 -0.7115
  921MOL0     C21466   6.717   6.396   0.970 -0.5267  0.8495 -0.8850
  921MOL0     C21467   6.623   6.353   1.061  0.4725  0.2614 -0.4676
  921MOL0     C21468   6.632   6.379   1.204 -1.3767 -0.4600  0.7319
  921MOL0     C21469   6.537   6.329   1.295 -0.0048  0.3695 -0.7476
  921MOL0     O21470   6.578   6.319   1.428  0.5479  0.2304  0.3537
  921MOL0     C21471   6.479   6.298   1.520 -0.6690 -0.6991  0.9098
  921MOL0     C21472   6.375   6.389   1.540 -0.1178  0.3277  0.2369
  921MOL0     C21473   6.284   6.371   1.645 -0.7252  0.0681  0.3275
  921MOL0     C21474   6.297   6.271   1.740  1.0396  0.5160 -0.3328
  921MOL0     O21475   6.202   6.267   1.842  0.2276  0.1573 -0.2806
  921MOL0     C21476   6.241   6.208   1.967 -0.2581  0.5662 -0.0644
  921MOL0     C21477   6.162   6.284   2.070 -0.2491  0.5016  0.1307
  921MOL0     C21478   6.185   6.437   2.070 -0.6833 -0.1065  0.0697
  921MOL0     C21479   6.073   6.499   2.163  0.5788 -0.0253  0.2075
  921MOL0     C21480   6.116   6.629   2.220  1.2041 -0.8517  0.3831
  921MOL0     C21481   6.013   6.704   2.300  0.5761  0.2740 -0.1633
  921MOL0     C21482   5.880   6.705   2.223 -0.1369  0.1052 -0.2891
  921MOL0     C21483   5.783   6.791   2.307  0.5826 -0.1438 -0.0314
  921MOL0    Cl21484   5.714   6.693   2.439 -0.4915 -0.2081  0.0409
  921MOL0     C21485   6.398   6.172   1.718  0.1007  1.3026  0.2105
  921MOL0     C21486   6.479   6.174   1.596  0.3125 -1.3893  0.7262
  921MOL0     O21487   6.423   6.294   1.248 -0.4904 -0.0768  0.1127
  921MOL0     C21488   6.752   6.435   1.251  0.2239 -0.2710 -0.0034
  921MOL0     C21489   6.842   6.486   1.157 -0.3188 -0.2040  0.3864
  921MOL0     N21490   7.115   6.136   0.622  0.3653  0.3312  0.8642
  921MOL0     N21491   7.023   6.047   0.637 -0.3465  0.4120 -0.1758
  921MOL0     C21492   6.271   5.494   1.205  0.4108  0.1152  0.0190
  921MOL0     C21493   6.165   5.481   1.296 -0.5394 -0.3523 -0.1335
  921MOL0     C21494   5.850   5.420   1.554 -0.0942 -0.2146 -0.7514
  921MOL0     C21495   5.772   5.513   1.618  0.8572 -0.6320  0.4868
  921MOL0     C21496   5.640   5.484   1.662  0.3694 -0.3633  0.0250
  921MOL0     C21497   5.579   5.360   1.633 -0.5798 -0.6501 -0.0779
  921MOL0     O21498   5.448   5.331   1.669 -0.5187  0.4564 -0.4277
  921MOL0     C21499   5.385   5.430   1.755  0.6941 -0.3159  0.6837
  921MOL0     C21500   5.241   5.370   1.767  0.4571  0.2375  0.2673
  921MOL0     C21501   5.141   5.469   1.839 -0.4751 -0.6159 -0.0342
  921MOL0     C21502   5.017   5.398   1.898  0.1728 -0.4670 -0.0031
  921MOL0     C21503   4.955   5.473   2.004 -0.0438 -0.1825 -0.6623
  921MOL0     C21504   4.889   5.513   2.096  0.3200  0.3557  0.3800
  921MOL0     C21505   5.659   5.269   1.571  0.0731  0.2494  0.6522
  921MOL0     C21506   5.785   5.298   1.522 -0.2037 -0.1315 -0.0799
  921MOL0     H21507   6.301   5.227   1.480  4.8932 -2.3770 -2.5799
  921MOL0     H21508   6.483   5.253   1.333  0.0288  0.2323  3.2221
  921MOL0     H21509   6.480   5.219   1.049 -0.5916  0.6727 -1.6588
  921MOL0     H21510   6.627   5.295   1.130  0.5166  0.6748 -0.3289
  921MOL0     H21511   6.512   5.369   0.859  0.7872  1.0468 -1.3344
  921MOL0     H21512   6.642   5.248   0.882  2.7420  0.3033  0.5133
  921MOL0     H21513   6.777   5.433   0.992  0.9847  0.9066 -0.5575
  921MOL0     H21514   6.651   5.539   0.972  0.9983  0.3450 -0.3293
  921MOL0     H21515   6.807   5.395   0.758 -1.3719  0.3863 -0.1394
  921MOL0     H21516   6.666   5.488   0.706 -2.0012 -0.4241  0.6340
  921MOL0     H21517   6.889   5.617   0.696 -1.8229  3.3427 -1.3660
  921MOL0     H21518   6.926   5.590   0.853  2.3438 -0.9102 -2.7880
  921MOL0     H21519   6.698   5.739   0.904 -0.0594 -0.9588 -0.1745
  921MOL0     H21520   6.690   5.768   0.739 -2.0124  2.1568  3.3070
  921MOL0     H21521   6.902   5.879   0.942  0.2728  1.7640 -0.0691
  921MOL0     H21522   6.966   5.829   0.785  0.8905 -1.5136  1.9519
  921MOL0     H21523   6.757   6.052   0.855 -3.3250 -2.8411 -0.4585
  921MOL0     H21524   6.777   5.974   0.692  0.2602  1.3068 -0.2371
  921MOL0     H21525   6.941   6.255   0.872  1.2970 -0.8657 -0.1281
  921MOL0     H21526   7.268   6.345   0.677  0.5405  1.0242  0.9942
  921MOL0     H21527   7.212   6.358   0.850  0.1826  3.5832  0.0755
  921MOL0     H21528   6.984   6.448   0.691 -1.5849  0.1039  0.3975
  921MOL0     H21529   7.126   6.515   0.615 -1.2610  0.6933 -0.1902
  921MOL0     H21530   7.192   6.617   0.845  0.2287  0.9643  0.9869
  921MOL0     H21531   7.029   6.663   0.782 -2.7518 -1.8343 -0.6953
  921MOL0     H21532   7.057   6.618   1.037  0.8105 -0.6140  0.1598
  921MOL0     H21533   7.070   6.451   0.990  1.8915 -0.0205 -1.5276
  921MOL0     H21534   6.698   6.363   0.869  0.3948 -0.2471 -0.7228
  921MOL0     H21535   6.537   6.303   1.017 -0.2325  2.5174 -1.8276
  921MOL0     H21536   6.366   6.479   1.481  0.5430  0.7153  0.7165
  921MOL0     H21537   6.205   6.445   1.651  0.1573  0.9949  0.7038
  921MOL0     H21538   6.349   6.214   1.977  0.2885 -0.9106 -3.4701
  921MOL0     H21539   6.207   6.104   1.961 -1.8163  1.0430 -0.0131
  921MOL0     H21540   6.183   6.236   2.166  0.3266 -1.9626 -1.1150
  921MOL0     H21541   6.056   6.274   2.044 -0.4702  1.1803  0.7514
  921MOL0     H21542   6.179   6.479   1.970  1.6977  0.6542  0.1908
  921MOL0     H21543   6.283   6.441   2.118 -0.6266 -1.2668  0.0947
  921MOL0     H21544   5.989   6.525   2.097 -1.0691  0.1236  2.2486
  921MOL0     H21545   6.041   6.432   2.243 -0.9201 -0.8655 -1.0224
  921MOL0     H21546   6.160   6.688   2.139 -1.5791  0.9493  0.0567
  921MOL0     H21547   6.204   6.613   2.284  2.4943 -0.3309 -1.1680
  921MOL0     H21548   6.053   6.805   2.309  0.8895  0.1738 -0.4118
  921MOL0     H21549   5.991   6.661   2.399  0.1826 -1.4957 -0.9712
  921MOL0     H21550   5.893   6.756   2.127 -0.1145  0.8665  0.1064
  921MOL0     H21551   5.831   6.609   2.212 -0.3299  0.3407 -1.7477
  921MOL0     H21552   5.709   6.819   2.231  0.4222  1.9517  0.8312
  921MOL0     H21553   5.828   6.883   2.346 -0.5450  1.8259 -3.0124
  921MOL0     H21554   6.417   6.091   1.789  0.4482  0.2985 -0.9980
  921MOL0     H21555   6.557   6.102   1.574  2.8094  1.2274  0.3998
  921MOL0     H21556   6.763   6.462   1.355  3.6915  2.9034 -0.9695
  921MOL0     H21557   6.916   6.544   1.211 -1.3805 -0.6254  2.3781
  921MOL0     H21558   6.275   5.579   1.138  3.2295 -1.0217 -1.4182
  921MOL0     H21559   6.087   5.556   1.292 -0.2622  0.0357  1.2646
  921MOL0     H21560   5.812   5.610   1.642  2.3987 -1.9968  4.1501
  921MOL0     H21561   5.588   5.556   1.725  0.3083  0.3036 -0.7755
  921MOL0     H21562   5.375   5.524   1.700 -3.5956 -1.8694 -1.6736
  921MOL0     H21563   5.434   5.446   1.851  0.2842  0.6660  0.7415
  921MOL0     H21564   5.208   5.347   1.665  1.5566 -0.9056  0.1499
  921MOL0     H21565   5.246   5.271   1.812 -1.0682  0.4391  0.9093
  921MOL0     H21566   5.109   5.550   1.773  1.4569 -0.5009 -0.9063
  921MOL0     H21567   5.194   5.499   1.929  2.7109 -2.6034 -1.0731
  921MOL0     H21568   4.941   5.375   1.823  0.6376 -3.1422  0.2198
  921MOL0     H21569   5.045   5.296   1.927 -1.8321 -1.4060 -1.2141
  921MOL0     H21570   4.832   5.564   2.171 -2.7785  2.1409 -2.8400
  921MOL0     H21571   5.608   5.177   1.543  0.5724  0.1551  0.0281
  921MOL0     H21572   5.843   5.222   1.471  1.2267  1.2716 -0.6417
  922MOL0     O21573  10.605   8.362   0.252  0.0347  0.2103  0.2794
  922MOL0     C21574  10.652   8.434   0.344  0.7898  0.4699  0.3718
  922MOL0     O21575  10.574   8.513   0.423 -0.2306  0.2496 -0.3234
  922MOL0     C21576  10.438   8.529   0.397 -0.6380 -0.0813  0.9531
  922MOL0     C21577  10.360   8.507   0.497  0.0400  0.3765 -0.4260
  922MOL0     C21578  10.227   8.492   0.478  0.2772 -0.0396 -1.2015
  922MOL0     C21579  10.167   8.520   0.357  0.1605  0.1158  0.6611
  922MOL0     O21580  10.030   8.524   0.335  0.3144 -0.3098 -0.0413
  922MOL0     C21581   9.970   8.622   0.421 -0.1061  0.0493  0.4908
  922MOL0     C21582   9.825   8.647   0.370  0.3294 -0.6317  0.1532
  922MOL0     C21583   9.748   8.718   0.481  1.1731  0.4652  0.9666
  922MOL0     C21584   9.599   8.726   0.455 -0.1746  0.1463  1.5971
  922MOL0     C21585   9.516   8.739   0.579  0.1717 -0.2003 -0.3643
  922MOL0     C21586   9.514   8.610   0.663  0.7018  0.7791  0.4657
  922MOL0     C21587   9.513   8.626   0.815 -0.0671  0.1384  0.1906
  922MOL0     C21588   9.438   8.511   0.886  0.9040  0.3187  0.6093
  922MOL0     N21589   9.462   8.370   0.834 -0.1788  0.7061  0.1232
  922MOL0     C21590   9.586   8.324   0.811  0.1472 -0.4150  0.0703
  922MOL0     C21591   9.575   8.191   0.806  0.0938  0.9091  0.2079
  922MOL0     C21592   9.693   8.103   0.805 -0.7620  0.6938  0.2929
  922MOL0     C21593   9.747   8.066   0.941  0.2845 -0.1346 -0.5638
  922MOL0     C21594   9.782   8.192   1.033  1.0010 -0.5147 -0.5120
  922MOL0     C21595   9.834   8.140   1.162  0.6355  0.7916  0.6752
  922MOL0     O21596   9.812   8.232   1.271  0.2901  0.0603  0.1361
  922MOL0     C21597   9.917   8.300   1.313 -0.0140 -0.8216  0.5930
  922MOL0     C21598  10.020   8.349   1.227  0.7513  0.9721  0.0563
  922MOL0     C21599  10.123   8.422   1.278 -0.2443  0.2154 -0.5482
  922MOL0     C21600  10.129   8.459   1.411 -0.7639 -0.7339 -0.3600
  922MOL0     C21601  10.240   8.546   1.468 -0.1306  0.2949  0.1055
  922MOL0     O21602  10.209   8.601   1.592 -0.8389 -0.8321  0.0078
  922MOL0     C21603  10.308   8.673   1.668 -0.6704  0.1263  0.4562
  922MOL0     C21604  10.416   8.749   1.620 -0.5418  0.2793  0.4248
  922MOL0     C21605  10.502   8.818   1.701  0.4870 -0.2997 -0.1968
  922MOL0     C21606  10.481   8.803   1.838  0.9225  0.6468  0.3157
  922MOL0     O21607  10.571   8.843   1.931  0.0647 -0.0489 -0.3091
  922MOL0     C21608  10.671   8.938   1.893 -0.3098  0.1393  0.2542
  922MOL0     C21609  10.795   8.878   1.835 -0.5159 -0.0168  0.7138
  922MOL0     C21610  10.905   8.855   1.939  0.4047  0.2118 -0.0998
  922MOL0     C21611  10.876   8.735   2.033  0.2189 -0.2518 -0.1640
  922MOL0     C21612  11.000   8.672   2.080 -0.8353  0.1156 -1.1014
  922MOL0     C21613  11.087   8.772   2.173  0.3140 -0.3870  0.5098
  922MOL0     C21614  11.192   8.687   2.247 -0.0474  0.3892 -0.0249
  922MOL0     C21615  11.263   8.779   2.342 -0.7522  0.0770 -0.6600
  922MOL0    Cl21616  11.398   8.854   2.244  0.1951  0.0095  0.1659
  922MOL0     C21617  10.371   8.736   1.893 -0.3695  0.5647  0.2806
  922MOL0     C21618  10.288   8.665   1.805  0.2560 -0.0498 -0.2299
  922MOL0     O21619  10.348   8.561   1.409 -0.6073 -0.3831  0.1358
  922MOL0     C21620  10.025   8.420   1.491  0.8134 -0.8657  0.0240
  922MOL0     C21621   9.919   8.343   1.441  0.2587 -0.4047  0.1673
  922MOL0     N21622   9.441   8.147   0.833 -0.5774 -0.5122 -0.1446
  922MOL0     N21623   9.378   8.261   0.847 -0.1688 -0.8098  0.2242
  922MOL0     C21624  10.245   8.553   0.251 -0.1684  0.4937 -0.1097
  922MOL0     C21625  10.386   8.546   0.264 -0.6380  0.7008 -0.0139
  922MOL0     C21626  10.800   8.430   0.363 -1.0605 -0.3940 -0.2176
  922MOL0     C21627  10.884   8.357   0.282  0.2491 -0.2462 -0.7637
  922MOL0     C21628  11.023   8.365   0.297 -0.0099 -0.2189 -0.5694
  922MOL0     C21629  11.085   8.456   0.384 -0.4030  0.3966 -0.3396
  922MOL0     O21630  11.218   8.461   0.390  0.4400  0.5248  0.4817
  922MOL0     C21631  11.264   8.593   0.399  0.2615  0.0567  0.3506
  922MOL0     C21632  11.234   8.685   0.267 -0.5111  0.0696  0.2085
  922MOL0     C21633  11.338   8.787   0.230 -0.1352 -0.0052  0.3722
  922MOL0     C21634  11.324   8.910   0.328  0.4739  0.1511  0.1396
  922MOL0     C21635  11.197   8.986   0.298  0.3206  0.6766 -0.0893
  922MOL0     C21636  11.091   9.043   0.287  0.7661 -0.5964  0.2612
  922MOL0     C21637  11.001   8.527   0.471  0.2648  0.3003 -0.2801
  922MOL0     C21638  10.857   8.518   0.455 -0.2736 -0.7394 -1.2426
  922MOL0     H21639  10.392   8.494   0.600 -1.4739  0.2535  0.0535
  922MOL0     H21640  10.164   8.467   0.563 -0.1689 -1.3870 -1.8974
  922MOL0     H21641  10.020   8.717   0.403 -1.0322  0.6079  0.8035
  922MOL0     H21642   9.979   8.596   0.527 -1.9166  1.2409  0.9810
  922MOL0     H21643   9.777   8.553   0.341 -1.8540  0.7197 -0.8142
  922MOL0     H21644   9.825   8.697   0.273  0.8730 -1.0419 -0.0655
  922MOL0     H21645   9.783   8.821   0.495  1.0497  0.2976  2.7383
  922MOL0     H21646   9.761   8.666   0.576  0.6712  1.0779  1.3822
  922MOL0     H21647   9.588   8.815   0.392  0.1708  0.1327  1.5181
  922MOL0     H21648   9.567   8.638   0.399 -0.1768  1.1173 -0.0093
  922MOL0     H21649   9.413   8.767   0.556  0.1269  1.4308  1.6139
  922MOL0     H21650   9.558   8.818   0.641 -3.8982  1.3699  0.6829
  922MOL0     H21651   9.598   8.541   0.651 -1.3400 -2.3977  3.0061
  922MOL0     H21652   9.419   8.573   0.623  0.5831  0.7385  0.7853
  922MOL0     H21653   9.617   8.638   0.848 -0.9086 -0.2620  3.2432
  922MOL0     H21654   9.461   8.714   0.852 -2.1154 -1.4810  1.4216
  922MOL0     H21655   9.330   8.529   0.877  1.0458  0.9325  0.0369
  922MOL0     H21656   9.456   8.514   0.994 -2.9405 -0.4180  1.4299
  922MOL0     H21657   9.677   8.383   0.817  0.9496 -1.6750  0.9655
  922MOL0     H21658   9.776   8.153   0.754  0.1951  0.1084  1.2402
  922MOL0     H21659   9.668   8.009   0.754 -0.3028  0.5897  0.2598
  922MOL0     H21660   9.833   8.000   0.926  0.8967 -0.3977  3.2348
  922MOL0     H21661   9.687   7.997   1.002  2.3298 -0.3148  1.3474
  922MOL0     H21662   9.864   8.244   0.982  0.9246  1.7843  1.5329
  922MOL0     H21663   9.694   8.254   1.052  1.2283  0.1413 -1.4867
  922MOL0     H21664   9.937   8.105   1.152  0.5104 -0.2495  2.4599
  922MOL0     H21665   9.783   8.045   1.182  0.8295 -0.0620 -2.3549
  922MOL0     H21666  10.023   8.315   1.124 -3.3876  0.0683  0.0800
  922MOL0     H21667  10.209   8.461   1.225  2.3906 -0.2139  3.0790
  922MOL0     H21668  10.447   8.754   1.516  0.0664 -0.6620  0.5463
  922MOL0     H21669  10.595   8.862   1.667 -1.8565  3.1400 -2.8737
  922MOL0     H21670  10.704   8.988   1.984  0.5467  1.3675 -0.6950
  922MOL0     H21671  10.636   9.004   1.814 -1.1126  0.0172  0.5060
  922MOL0     H21672  10.829   8.937   1.750 -2.9283  0.9559  0.3584
  922MOL0     H21673  10.773   8.778   1.796  2.0946  0.3323 -2.0325
  922MOL0     H21674  10.910   8.941   2.007 -0.4737 -0.2635  0.5806
  922MOL0     H21675  11.004   8.830   1.900 -0.2225 -1.2520 -0.8134
  922MOL0     H21676  10.808   8.773   2.109 -0.9227  1.0260 -1.7640
  922MOL0     H21677  10.816   8.653   1.990  3.6805 -2.5745 -1.0374
  922MOL0     H21678  11.071   8.639   2.005  1.1125 -0.2063  0.7793
  922MOL0     H21679  10.977   8.586   2.145  3.4119 -0.7057 -0.3455
  922MOL0     H21680  11.022   8.820   2.246  0.4425  0.1391  0.2777
  922MOL0     H21681  11.123   8.853   2.109 -1.1209  0.2350  0.4578
  922MOL0     H21682  11.149   8.608   2.310 -0.4057  0.7160  0.1453
  922MOL0     H21683  11.260   8.640   2.175 -0.0067  1.7935 -0.9476
  922MOL0     H21684  11.317   8.722   2.419  1.4276  1.3937 -1.1337
  922MOL0     H21685  11.196   8.849   2.393 -0.7500 -2.2172  2.9059
  922MOL0     H21686  10.373   8.735   2.002  0.2437 -0.0476  0.2702
  922MOL0     H21687  10.217   8.598   1.852  2.1415 -2.3382 -0.4951
  922MOL0     H21688  10.016   8.462   1.591 -0.6328 -1.2774  0.0894
  922MOL0     H21689   9.839   8.319   1.511 -1.0081 -3.1407 -2.0485
  922MOL0     H21690  10.197   8.565   0.155  0.6184 -1.4061 -0.7839
  922MOL0     H21691  10.441   8.565   0.172 -0.2041 -2.1263 -0.4220
  922MOL0     H21692  10.836   8.291   0.210  0.6566 -1.2323 -0.1507
  922MOL0     H21693  11.079   8.294   0.238  0.9392 -0.4846  0.6070
  922MOL0     H21694  11.372   8.576   0.410  0.2057 -0.9093 -0.4167
  922MOL0     H21695  11.235   8.649   0.488 -2.6104  2.6556 -1.9933
  922MOL0     H21696  11.225   8.620   0.180  2.8186 -2.6380  1.6147
  922MOL0     H21697  11.138   8.731   0.291 -1.2202 -1.5030  0.4967
  922MOL0     H21698  11.320   8.829   0.131  2.0499 -1.3004 -0.6413
  922MOL0     H21699  11.441   8.754   0.244  0.5773  1.8268 -0.2856
  922MOL0     H21700  11.321   8.871   0.430 -1.3026 -2.7270 -0.8805
  922MOL0     H21701  11.411   8.976   0.329 -0.0501  1.1318  4.9318
  922MOL0     H21702  10.997   9.093   0.277  0.3610 -0.9290  2.0935
  922MOL0     H21703  11.054   8.581   0.549  1.9569 -1.4111 -0.1676
  922MOL0     H21704  10.797   8.564   0.533 -0.1840 -0.9900 -1.0260
  923MOL0     O21705   3.999   8.311   0.669  0.7349 -0.0189 -0.5455
  923MOL0     C21706   4.031   8.204   0.614  1.1067 -0.6700 -1.0826
  923MOL0     O21707   3.941   8.122   0.555  0.0469 -0.5378 -0.7585
  923MOL0     C21708   3.807   8.125   0.566  0.5092 -0.5052 -0.6204
  923MOL0     C21709   3.730   8.216   0.647  1.1721 -0.8666  1.0811
  923MOL0     C21710   3.586   8.212   0.633 -0.7448 -0.3113  0.9850
  923MOL0     C21711   3.522   8.111   0.571  0.5218  0.8756 -0.8391
  923MOL0     O21712   3.385   8.101   0.561 -0.1387  0.1572 -0.0467
  923MOL0     C21713   3.295   8.210   0.583  0.8459  0.1751 -0.8712
  923MOL0     C21714   3.149   8.149   0.566 -0.2895 -0.5083  0.4192
  923MOL0     C21715   3.049   8.242   0.519 -0.4015  0.0202  0.6223
  923MOL0     C21716   2.920   8.183   0.473 -0.3662 -0.1720  0.3266
  923MOL0     C21717   2.815   8.291   0.456 -0.0438 -0.3579  1.0256
  923MOL0     C21718   2.678   8.227   0.430 -0.9819 -0.4533  0.6654
  923MOL0     C21719   2.615   8.180   0.566 -0.7722 -0.2418  0.3702
  923MOL0     C21720   2.475   8.105   0.549  0.0177 -0.1446 -0.0048
  923MOL0     N21721   2.407   8.098   0.677  0.2888  0.2667 -1.1457
  923MOL0     C21722   2.360   8.211   0.747  0.6432  0.5227  0.0043
  923MOL0     C21723   2.307   8.170   0.864  0.5380  0.5699  0.8985
  923MOL0     C21724   2.231   8.257   0.965  0.0778 -0.0020  0.1103
  923MOL0     C21725   2.088   8.303   0.938  1.2278 -0.2143  0.6581
  923MOL0     C21726   2.099   8.436   0.865 -1.1846  0.2039  0.3262
  923MOL0     C21727   1.966   8.484   0.811  0.0746 -0.3290 -0.5494
  923MOL0     O21728   1.971   8.615   0.743  0.5048 -0.3218  0.0320
  923MOL0     C21729   2.046   8.626   0.631 -0.8568 -0.4869 -0.1827
  923MOL0     C21730   2.137   8.739   0.615  0.1567 -0.0911 -0.1436
  923MOL0     C21731   2.225   8.740   0.512 -0.1616  0.0087  0.1874
  923MOL0     C21732   2.237   8.621   0.430  0.2032  0.6066  0.4647
  923MOL0     C21733   2.348   8.621   0.335  0.4227  0.7633 -0.5041
  923MOL0     O21734   2.389   8.491   0.308 -0.2741 -0.2605  0.4990
  923MOL0     C21735   2.452   8.472   0.190  0.3461 -0.0160  0.9740
  923MOL0     C21736   2.589   8.495   0.179 -0.0132 -0.1484 -0.5943
  923MOL0     C21737   2.651   8.491   0.062 -0.6408  0.2816 -0.6217
  923MOL0     C21738   2.582   8.443  -0.056 -0.1189 -0.6329  0.5946
  923MOL0     O21739   2.650   8.422  -0.172 -0.2034  0.0429 -0.4680
  923MOL0     C21740   2.790   8.406  -0.175 -0.0355 -0.2271 -0.6440
  923MOL0     C21741   2.836   8.349  -0.311  0.6214  0.2205  0.0388
  923MOL0     C21742   2.979   8.307  -0.291  0.1426  0.6030 -0.2400
  923MOL0     C21743   3.029   8.220  -0.415  0.5780 -0.1973  0.2942
  923MOL0     C21744   3.181   8.197  -0.404  0.1234 -0.0399  0.1083
  923MOL0     C21745   3.256   8.118  -0.515 -0.1194 -0.2944  0.2362
  923MOL0     C21746   3.414   8.144  -0.533 -0.3687 -0.7207 -0.0096
  923MOL0     C21747   3.494   8.106  -0.408 -0.3728 -0.0259 -0.5544
  923MOL0    Cl21748   3.495   7.927  -0.399 -0.0442  0.1147 -0.0438
  923MOL0     C21749   2.444   8.415  -0.046  0.7566 -0.1232  0.5412
  923MOL0     C21750   2.380   8.440   0.076 -0.1017 -0.0493  0.6092
  923MOL0     O21751   2.384   8.729   0.293  0.3924  0.3411  0.0369
  923MOL0     C21752   2.144   8.519   0.439  0.2867  0.5495  0.1312
  923MOL0     C21753   2.048   8.521   0.536  0.3015 -0.0948  0.1427
  923MOL0     N21754   2.309   8.030   0.858 -0.0193  0.0901  0.4929
  923MOL0     N21755   2.372   7.991   0.750 -0.0905  0.6032  0.2134
  923MOL0     C21756   3.598   8.018   0.498  0.9392 -0.6239 -0.0834
  923MOL0     C21757   3.740   8.030   0.496 -0.1746 -0.0970  0.4867
  923MOL0     C21758   4.173   8.158   0.627  0.6776  0.8250  0.2159
  923MOL0     C21759   4.266   8.225   0.707  0.4014 -0.1005 -0.5240
  923MOL0     C21760   4.394   8.177   0.726 -0.4022  0.0299  0.4200
  923MOL0     C21761   4.445   8.062   0.652  0.0153  0.3574 -0.1271
  923MOL0     O21762   4.571   7.997   0.672  0.5026 -0.2168 -0.1406
  923MOL0     C21763   4.683   8.096   0.699  0.7193  0.2664  0.0999
  923MOL0     C21764   4.803   8.045   0.625  0.4086  0.0428  0.3893
  923MOL0     C21765   4.825   7.888   0.641  0.1158 -0.8105 -0.3091
  923MOL0     C21766   4.943   7.830   0.571  0.0166  0.4577  0.2565
  923MOL0     C21767   5.074   7.883   0.621  0.1661  0.4483  0.0502
  923MOL0     C21768   5.175   7.918   0.679  0.7328 -0.2015 -0.2851
  923MOL0     C21769   4.350   8.004   0.568  0.5069 -1.0206 -0.0492
  923MOL0     C21770   4.217   8.046   0.555  0.0813 -0.2826  0.2743
  923MOL0     H21771   3.774   8.305   0.692  0.4412  0.1709 -0.1931
  923MOL0     H21772   3.523   8.282   0.686 -0.2128  0.6475  0.3783
  923MOL0     H21773   3.314   8.293   0.515 -3.3527  2.5592  0.4834
  923MOL0     H21774   3.308   8.240   0.688  0.8190  0.9009 -1.0715
  923MOL0     H21775   3.113   8.122   0.666 -0.0236 -0.5065  0.5154
  923MOL0     H21776   3.155   8.072   0.488 -3.5499 -0.0724 -0.4137
  923MOL0     H21777   3.084   8.299   0.432 -4.5265  0.6658 -0.8608
  923MOL0     H21778   3.033   8.315   0.598 -0.1927  2.4961 -1.4966
  923MOL0     H21779   2.936   8.137   0.375 -0.2538  1.8913 -0.6919
  923MOL0     H21780   2.891   8.107   0.545 -0.5486 -2.0836 -1.6714
  923MOL0     H21781   2.839   8.360   0.375  2.1205  1.5609  3.1819
  923MOL0     H21782   2.816   8.358   0.542  2.5228  2.2563 -0.8838
  923MOL0     H21783   2.684   8.148   0.354 -0.0323 -1.0352  1.3234
  923MOL0     H21784   2.607   8.300   0.389 -1.2201 -0.0950  1.6862
  923MOL0     H21785   2.687   8.108   0.605 -0.6302  0.0399  0.6284
  923MOL0     H21786   2.600   8.274   0.620 -1.2653  0.6125 -1.1893
  923MOL0     H21787   2.489   8.006   0.505  0.7071  0.5806 -1.5229
  923MOL0     H21788   2.411   8.158   0.477 -0.1526  0.4707  0.5899
  923MOL0     H21789   2.374   8.315   0.718 -0.2656  0.4177 -0.8890
  923MOL0     H21790   2.286   8.347   0.998 -1.5861  0.3105  2.3189
  923MOL0     H21791   2.225   8.191   1.052 -0.7940  2.2967  1.9381
  923MOL0     H21792   2.040   8.323   1.034  0.2703 -1.3460  0.4416
  923MOL0     H21793   2.029   8.237   0.873 -0.9312  3.5447 -1.6058
  923MOL0     H21794   2.145   8.510   0.931 -0.1504  0.0475 -0.2121
  923MOL0     H21795   2.176   8.428   0.788 -0.1311  2.4608  1.0536
  923MOL0     H21796   1.898   8.499   0.895 -0.9769  2.1179 -1.7271
  923MOL0     H21797   1.929   8.400   0.750  0.3290 -1.7997  1.2323
  923MOL0     H21798   2.117   8.826   0.676 -2.9476 -0.7846  0.0301
  923MOL0     H21799   2.294   8.822   0.496  2.3205 -1.6329  1.8145
  923MOL0     H21800   2.651   8.521   0.264  3.0194  0.7743 -2.9272
  923MOL0     H21801   2.758   8.512   0.061 -0.5160  0.1931  2.3047
  923MOL0     H21802   2.819   8.321  -0.113  0.8569  0.4744 -0.0847
  923MOL0     H21803   2.845   8.496  -0.150  2.1550 -1.7023  0.1063
  923MOL0     H21804   2.827   8.403  -0.405 -2.4911 -0.5498 -0.2071
  923MOL0     H21805   2.770   8.267  -0.340  1.3739  0.2595 -1.9598
  923MOL0     H21806   2.985   8.242  -0.203  0.3840  0.5517 -0.2937
  923MOL0     H21807   3.043   8.396  -0.277  0.0837  0.6174 -0.0548
  923MOL0     H21808   2.971   8.127  -0.415 -2.2093  1.4240  1.7279
  923MOL0     H21809   3.009   8.266  -0.513 -0.3328  2.1775  1.5252
  923MOL0     H21810   3.203   8.152  -0.307  1.4596 -0.5831 -0.4225
  923MOL0     H21811   3.216   8.300  -0.403 -1.8567  0.6766  0.0768
  923MOL0     H21812   3.204   8.141  -0.609  3.4279  2.8647 -1.2359
  923MOL0     H21813   3.249   8.010  -0.498  0.4148 -0.6452 -1.5311
  923MOL0     H21814   3.438   8.095  -0.628  1.1109 -1.6822  0.8428
  923MOL0     H21815   3.438   8.249  -0.552  0.0001 -0.8829 -0.4656
  923MOL0     H21816   3.447   8.150  -0.319  0.4523 -0.5590  0.1739
  923MOL0     H21817   3.598   8.138  -0.415 -0.7776  1.9824  1.3159
  923MOL0     H21818   2.396   8.365  -0.130  0.5938 -2.0410  1.7032
  923MOL0     H21819   2.274   8.416   0.086 -0.1638  0.8864  2.9825
  923MOL0     H21820   2.151   8.431   0.376 -2.1111 -1.8382  2.8792
  923MOL0     H21821   1.983   8.437   0.555  1.0990 -1.1240 -1.5025
  923MOL0     H21822   3.548   7.933   0.452  1.2705 -0.7794 -0.1570
  923MOL0     H21823   3.808   7.972   0.434  0.6093  1.1224  0.1771
  923MOL0     H21824   4.238   8.310   0.769  0.9296 -0.4853  0.2553
  923MOL0     H21825   4.458   8.220   0.803 -1.1618 -0.5709  1.4248
  923MOL0     H21826   4.703   8.104   0.806 -0.5847  4.0191  0.2057
  923MOL0     H21827   4.661   8.200   0.673 -0.0780  1.2066  3.9762
  923MOL0     H21828   4.803   8.074   0.520 -0.8366  1.8887  0.8468
  923MOL0     H21829   4.893   8.092   0.665  0.7533  0.1249 -0.4738
  923MOL0     H21830   4.739   7.827   0.612 -1.2505 -0.5764  2.8304
  923MOL0     H21831   4.837   7.873   0.748  0.5445  2.2943  0.1732
  923MOL0     H21832   4.938   7.721   0.585 -2.1751  0.2728 -1.5356
  923MOL0     H21833   4.943   7.836   0.462  2.8850 -2.3171 -0.0620
  923MOL0     H21834   5.269   7.939   0.727  0.1780 -0.2255  0.8449
  923MOL0     H21835   4.376   7.913   0.514  0.0309 -2.1399  1.5330
  923MOL0     H21836   4.159   7.989   0.484 -1.3918  0.4211  0.8779
  924MOL0     O21837   8.754   1.249   9.555 -0.2002  0.8397 -0.4402
  924MOL0     C21838   8.763   1.126   9.567  1.5430 -0.7033  0.3143
  924MOL0     O21839   8.673   1.048   9.633 -0.2155 -1.0969 -0.5454
  924MOL0     C21840   8.594   1.102   9.729  0.5399 -0.2860 -0.5393
  924MOL0     C21841   8.596   1.219   9.802 -0.6399  0.2808 -0.4214
  924MOL0     C21842   8.510   1.262   9.898  0.1215 -0.0157 -0.5383
  924MOL0     C21843   8.406   1.180   9.936 -0.6159  0.3796 -0.9240
  924MOL0     O21844   8.326   1.208  10.040  0.1354 -0.8534 -0.1571
  924MOL0     C21845   8.190   1.250  10.014  0.0133 -0.4009 -0.6976
  924MOL0     C21846   8.136   1.348  10.122  0.1227 -0.0936  0.0955
  924MOL0     C21847   7.985   1.379  10.098  0.0875  0.4470  0.8984
  924MOL0     C21848   7.912   1.442  10.215  1.1111 -0.5151  0.3848
  924MOL0     C21849   7.768   1.488  10.177  0.3683  0.4723  0.6243
  924MOL0     C21850   7.677   1.367  10.144 -0.5419  0.5864  0.0007
  924MOL0     C21851   7.531   1.410  10.152 -1.3517 -0.1658 -0.2854
  924MOL0     C21852   7.482   1.503  10.044 -1.3296 -0.3365 -0.6938
  924MOL0     N21853   7.353   1.465   9.998 -0.4945  0.3009  0.3570
  924MOL0     C21854   7.232   1.530  10.012 -0.4809  0.0372 -0.0355
  924MOL0     C21855   7.152   1.477   9.919 -0.1857 -1.1224 -0.3748
  924MOL0     C21856   7.007   1.495   9.877 -0.4714 -0.1010 -0.0486
  924MOL0     C21857   6.981   1.605   9.782  0.5357 -0.1563 -0.1049
  924MOL0     C21858   6.979   1.740   9.849  0.2180 -0.1862 -0.3504
  924MOL0     C21859   6.943   1.858   9.763  0.8805 -0.3526 -0.2491
  924MOL0     O21860   6.828   1.832   9.690 -0.0830  0.5844 -0.2273
  924MOL0     C21861   6.693   1.827   9.735  0.7012  1.1545 -0.3169
  924MOL0     C21862   6.668   1.848   9.876  0.6537  0.9776 -0.4496
  924MOL0     C21863   6.531   1.848   9.921 -0.7346  0.3512  0.1078
  924MOL0     C21864   6.423   1.832   9.831  0.2975  0.4180 -0.6158
  924MOL0     C21865   6.284   1.816   9.874 -0.0295 -0.6911 -0.4414
  924MOL0     O21866   6.190   1.836   9.774  0.0388 -0.3812  0.0103
  924MOL0     C21867   6.050   1.830   9.796 -0.7161 -0.5621 -0.5464
  924MOL0     C21868   5.974   1.716   9.767 -0.3887 -0.4710  0.7235
  924MOL0     C21869   5.833   1.714   9.782  0.3389  0.0068  0.4739
  924MOL0     C21870   5.764   1.836   9.822  0.0803  0.3053 -0.5749
  924MOL0     O21871   5.628   1.842   9.831 -0.0135  0.6033  0.7844
  924MOL0     C21872   5.574   1.829   9.702 -0.2138  0.7548  0.5080
  924MOL0     C21873   5.436   1.893   9.696 -0.8943  0.7740  0.2536
  924MOL0     C21874   5.329   1.799   9.762 -0.2395 -0.5588 -0.0720
  924MOL0     C21875   5.197   1.866   9.769 -0.4119 -0.1657 -1.0164
  924MOL0     C21876   5.084   1.762   9.774 -0.8551 -0.3902 -0.1109
  924MOL0     C21877   4.945   1.825   9.787  0.1231 -0.4684 -0.3385
  924MOL0     C21878   4.837   1.726   9.788  0.0314  0.0805  0.2828
  924MOL0     C21879   4.801   1.671   9.652  0.1780  0.3252  0.3095
  924MOL0    Cl21880   4.653   1.580   9.679 -0.0977  0.1910 -0.1042
  924MOL0     C21881   5.837   1.947   9.858  0.3690 -0.9560 -0.2677
  924MOL0     C21882   5.981   1.946   9.843 -0.1613 -0.6037 -0.1535
  924MOL0     O21883   6.255   1.802   9.992  0.3734  0.2475 -0.6250
  924MOL0     C21884   6.465   1.812   9.695  0.9184 -0.4177  0.4814
  924MOL0     C21885   6.593   1.810   9.642  0.9573 -0.3526 -0.6175
  924MOL0     N21886   7.219   1.375   9.850  0.2570  0.2451 -0.6662
  924MOL0     N21887   7.329   1.356   9.914 -0.1875  0.2005 -0.3554
  924MOL0     C21888   8.400   1.050   9.881  0.2531  0.1781 -0.0326
  924MOL0     C21889   8.494   1.011   9.776 -0.7313  0.3115  0.6891
  924MOL0     C21890   8.867   1.052   9.502 -1.0365 -1.1226  0.2226
  924MOL0     C21891   8.889   0.917   9.533  0.2197  0.7685 -0.7029
  924MOL0     C21892   8.981   0.839   9.468  0.3511 -0.0799 -0.2618
  924MOL0     C21893   9.058   0.889   9.365  0.7135  0.5826 -0.7172
  924MOL0     O21894   9.139   0.794   9.299  0.4180  0.2672 -0.7162
  924MOL0     C21895   9.265   0.837   9.249 -0.4975 -0.0514 -0.1863
  924MOL0     C21896   9.366   0.731   9.282  0.1892  1.2635 -0.2572
  924MOL0     C21897   9.434   0.746   9.423  0.6293  0.8652  0.2882
  924MOL0     C21898   9.490   0.612   9.468  0.2437 -0.5006 -1.1232
  924MOL0     C21899   9.575   0.526   9.385 -0.4374 -0.6006  0.5115
  924MOL0     C21900   9.646   0.468   9.299 -0.5701 -0.2790  0.6675
  924MOL0     C21901   9.057   1.025   9.342  0.3814 -0.4218  0.5456
  924MOL0     C21902   8.962   1.110   9.414  0.3010 -0.0087 -0.1508
  924MOL0     H21903   8.676   1.289   9.782 -0.2428  0.4643  1.5669
  924MOL0     H21904   8.526   1.359   9.944  2.6031  0.5648 -2.4058
  924MOL0     H21905   8.123   1.164  10.010  0.9880 -1.1288 -2.5401
  924MOL0     H21906   8.187   1.297   9.915  0.8185  1.4321  0.1041
  924MOL0     H21907   8.199   1.437  10.120  0.4604 -0.3329 -1.6208
  924MOL0     H21908   8.138   1.284  10.210  2.1874 -1.9568 -1.1879
  924MOL0     H21909   7.941   1.281  10.075  2.9493 -1.1454  1.7933
  924MOL0     H21910   7.976   1.447  10.012  0.6934 -0.4175  0.1384
  924MOL0     H21911   7.896   1.365  10.292 -1.0442  0.4546  0.9765
  924MOL0     H21912   7.975   1.520  10.258  1.3317 -0.1973 -0.5079
  924MOL0     H21913   7.776   1.564  10.099  0.1803  1.5388  1.6175
  924MOL0     H21914   7.723   1.542  10.260 -0.0585  0.4841  0.3838
  924MOL0     H21915   7.703   1.284  10.211  1.8177 -0.8742 -2.5261
  924MOL0     H21916   7.705   1.323  10.048  1.6680  0.7347  0.5128
  924MOL0     H21917   7.473   1.317  10.152 -0.3196 -0.8229 -0.0324
  924MOL0     H21918   7.527   1.456  10.251  2.5044 -0.0779 -0.0383
  924MOL0     H21919   7.555   1.507   9.963  0.7762  0.8904  1.1390
  924MOL0     H21920   7.480   1.602  10.091  1.0685 -1.7106  2.6812
  924MOL0     H21921   7.202   1.597  10.092  1.3309  1.1550 -0.2362
  924MOL0     H21922   6.944   1.502   9.966 -0.9957 -1.4009 -0.3012
  924MOL0     H21923   6.973   1.408   9.820  0.2129  0.8361 -1.9938
  924MOL0     H21924   6.892   1.581   9.723  0.6426 -1.4053  0.2140
  924MOL0     H21925   7.066   1.608   9.714  0.1929  1.6895 -0.4958
  924MOL0     H21926   6.913   1.734   9.936  0.0955  0.1558 -0.4183
  924MOL0     H21927   7.079   1.776   9.873 -0.7850  0.9829  2.4712
  924MOL0     H21928   7.021   1.882   9.691 -1.9466 -0.0367 -3.4982
  924MOL0     H21929   6.921   1.944   9.826  1.3681 -1.2525  1.1863
  924MOL0     H21930   6.744   1.871   9.949  0.0705  0.4756  0.3327
  924MOL0     H21931   6.515   1.864  10.028  0.6024  1.1537  0.2043
  924MOL0     H21932   6.023   1.622   9.742 -0.8940 -1.1990  2.3491
  924MOL0     H21933   5.776   1.622   9.775  1.2231 -0.4970 -0.3270
  924MOL0     H21934   5.567   1.723   9.675 -2.0146  0.2024  2.8398
  924MOL0     H21935   5.629   1.882   9.623 -0.9118  0.2232 -0.3487
  924MOL0     H21936   5.416   1.910   9.590  0.0495 -2.7363 -0.5887
  924MOL0     H21937   5.426   1.987   9.751 -2.6457  0.6504  0.2075
  924MOL0     H21938   5.358   1.786   9.867  0.3463 -2.5045 -0.4470
  924MOL0     H21939   5.329   1.702   9.713  1.2603 -2.1487  2.8162
  924MOL0     H21940   5.195   1.938   9.851 -1.7221 -0.0652 -1.1068
  924MOL0     H21941   5.180   1.937   9.687 -0.2201 -0.5518 -1.3904
  924MOL0     H21942   5.099   1.689   9.853 -1.8708 -0.5034  0.0010
  924MOL0     H21943   5.082   1.708   9.679  0.5594 -0.2718 -0.2174
  924MOL0     H21944   4.934   1.896   9.705  1.5460 -2.0791 -1.9880
  924MOL0     H21945   4.939   1.877   9.883 -3.9333  1.4751 -1.4194
  924MOL0     H21946   4.883   1.646   9.847  0.1469  1.5002  2.2068
  924MOL0     H21947   4.744   1.760   9.834  0.5900  1.4588  0.4397
  924MOL0     H21948   4.876   1.602   9.612  0.1673 -1.0882  2.5960
  924MOL0     H21949   4.783   1.746   9.574  2.6723  0.0330 -0.6376
  924MOL0     H21950   5.796   2.039   9.898  1.8008 -0.4987  0.2278
  924MOL0     H21951   6.039   2.032   9.876  2.9306 -1.7785 -2.0875
  924MOL0     H21952   6.380   1.798   9.629  1.1698  1.5794 -0.3568
  924MOL0     H21953   6.603   1.785   9.537 -1.1021  2.1121 -1.5252
  924MOL0     H21954   8.322   0.980   9.907  0.4959  0.4048  1.4157
  924MOL0     H21955   8.492   0.915   9.727 -1.3801 -0.3036  1.8576
  924MOL0     H21956   8.835   0.854   9.603  0.1274 -0.0354 -1.4966
  924MOL0     H21957   8.985   0.732   9.489 -0.8636  0.0502  0.7777
  924MOL0     H21958   9.309   0.924   9.299  0.5022 -0.1932 -0.7789
  924MOL0     H21959   9.251   0.865   9.144 -0.4576  0.4125 -0.0722
  924MOL0     H21960   9.315   0.635   9.271 -1.5707  2.3810 -2.8282
  924MOL0     H21961   9.450   0.737   9.212  0.7846 -0.7678  0.2035
  924MOL0     H21962   9.360   0.774   9.499  2.2989 -0.0489  2.3723
  924MOL0     H21963   9.502   0.830   9.433  0.7914  0.9335 -1.1825
  924MOL0     H21964   9.523   0.627   9.571 -1.5916  0.0509 -0.5834
  924MOL0     H21965   9.400   0.551   9.483 -0.4212  0.4212 -1.3271
  924MOL0     H21966   9.697   0.406   9.228 -0.2289 -0.4061  1.0220
  924MOL0     H21967   9.116   1.079   9.269  0.0795 -0.5160  0.2283
  924MOL0     H21968   8.963   1.215   9.388  0.9224 -0.2273 -1.0490
  925MOL0     O21969   3.026   5.688   2.597  0.0047 -0.1937 -0.4261
  925MOL0     C21970   3.145   5.682   2.629 -0.5639  0.4459 -0.0684
  925MOL0     O21971   3.194   5.615   2.736  0.5562 -0.2495  0.5574
  925MOL0     C21972   3.094   5.553   2.812 -0.3028 -0.6650  1.1528
  925MOL0     C21973   3.091   5.414   2.826  0.1616 -0.4779 -0.8390
  925MOL0     C21974   2.995   5.355   2.910  0.7084 -0.0775  0.7608
  925MOL0     C21975   2.906   5.439   2.974  0.4007 -0.0777  0.3408
  925MOL0     O21976   2.814   5.381   3.048 -0.3232  0.2699  0.5105
  925MOL0     C21977   2.726   5.456   3.130  0.3756 -0.1706 -0.3256
  925MOL0     C21978   2.641   5.358   3.216  0.3709 -0.3393  0.0614
  925MOL0     C21979   2.539   5.430   3.307 -0.5906  0.5539  0.8088
  925MOL0     C21980   2.459   5.335   3.400  0.6276 -0.1181 -0.5672
  925MOL0     C21981   2.380   5.209   3.337 -0.0601  0.5806  0.8207
  925MOL0     C21982   2.285   5.229   3.218 -0.1489 -0.2198  0.5322
  925MOL0     C21983   2.184   5.340   3.234  0.3035 -0.6835  0.6989
  925MOL0     C21984   2.122   5.389   3.101  0.0909 -0.4487  0.6355
  925MOL0     N21985   2.013   5.297   3.046  0.0945 -1.5544  1.1734
  925MOL0     C21986   1.879   5.322   3.036  0.8009  0.5858  0.7495
  925MOL0     C21987   1.822   5.214   2.982 -0.3614  0.0264 -0.8900
  925MOL0     C21988   1.675   5.203   2.963  0.1739  0.1151 -0.4728
  925MOL0     C21989   1.640   5.122   2.838 -0.3837  0.2888 -0.2314
  925MOL0     C21990   1.498   5.079   2.821  0.4160 -0.6397 -0.2542
  925MOL0     C21991   1.403   5.188   2.775  0.1883 -1.3037  0.5993
  925MOL0     O21992   1.267   5.151   2.796 -0.4884  0.0871  0.7498
  925MOL0     C21993   1.173   5.249   2.823  0.3696  0.9994 -0.0684
  925MOL0     C21994   1.198   5.386   2.824  1.2936  0.3599  0.9532
  925MOL0     C21995   1.099   5.472   2.871  0.6373  0.3678  0.4049
  925MOL0     C21996   0.973   5.426   2.911 -0.0001  0.0571  0.9758
  925MOL0     C21997   0.874   5.521   2.954  0.0142 -0.4319 -0.2408
  925MOL0     O21998   0.751   5.466   2.996 -0.4566  0.0254  0.1100
  925MOL0     C21999   0.631   5.528   2.994 -0.6422 -1.7434 -0.1100
  925MOL0     C22000   0.524   5.452   3.022  0.1633  0.9738  0.0068
  925MOL0     C22001   0.392   5.506   3.036  0.4202  0.6025 -0.0583
  925MOL0     C22002   0.372   5.641   2.985 -0.5054 -1.4006 -0.2898
  925MOL0     O22003   0.255   5.710   2.981 -0.3092 -0.5146 -0.6399
  925MOL0     C22004   0.153   5.643   2.919  0.4204  0.1810  0.4250
  925MOL0     C22005   0.016   5.672   2.993  0.2025 -0.4788 -0.2730
  925MOL0     C22006  -0.020   5.826   2.970 -0.0411  0.2978  0.1815
  925MOL0     C22007  -0.172   5.845   2.994 -0.5315 -0.7251  0.0622
  925MOL0     C22008  -0.249   5.842   2.865  0.7957 -0.7321 -0.3522
  925MOL0     C22009  -0.403   5.850   2.895  0.1850 -0.3977 -0.5456
  925MOL0     C22010  -0.493   5.903   2.788 -0.3150 -0.8379  0.7806
  925MOL0     C22011  -0.512   6.062   2.795  0.0286  0.2098  0.1565
  925MOL0    Cl22012  -0.587   6.117   2.945  0.2744 -0.1165 -0.0509
  925MOL0     C22013   0.483   5.708   2.943 -0.1866 -0.7077  0.4480
  925MOL0     C22014   0.612   5.664   2.950 -0.3853 -0.0977  0.1441
  925MOL0     O22015   0.896   5.641   2.936 -0.8527 -0.7440  0.0073
  925MOL0     C22016   0.941   5.295   2.904 -0.4778 -1.0792 -0.0935
  925MOL0     C22017   1.037   5.212   2.857 -0.3163  0.8476 -0.2193
  925MOL0     N22018   1.920   5.128   2.947  0.5601  0.6399  0.1112
  925MOL0     N22019   2.034   5.175   2.985 -0.0801 -0.5552 -0.0292
  925MOL0     C22020   2.907   5.571   2.956  0.4164  0.1363  0.7166
  925MOL0     C22021   2.999   5.633   2.878 -0.3840 -0.0209 -0.3836
  925MOL0     C22022   3.245   5.738   2.533 -0.4303  0.7167  0.8241
  925MOL0     C22023   3.384   5.752   2.569  0.0012 -0.1435 -0.1619
  925MOL0     C22024   3.460   5.838   2.497 -0.8068 -0.7434 -0.1421
  925MOL0     C22025   3.414   5.893   2.378  0.8482 -0.0488 -0.4662
  925MOL0     O22026   3.497   5.954   2.296  0.8882  0.3528 -0.2766
  925MOL0     C22027   3.530   5.886   2.173  0.1860  0.5567 -0.3374
  925MOL0     C22028   3.656   5.805   2.197 -0.2132 -0.4094  0.5814
  925MOL0     C22029   3.676   5.695   2.088 -0.2251 -0.1890  0.8589
  925MOL0     C22030   3.820   5.673   2.047 -0.1040 -1.6672  0.3393
  925MOL0     C22031   3.904   5.618   2.154 -1.0398 -0.6972  0.3852
  925MOL0     C22032   3.987   5.566   2.230  0.4475  0.5467 -0.7964
  925MOL0     C22033   3.284   5.873   2.333 -0.9622 -0.6936  0.1769
  925MOL0     C22034   3.202   5.794   2.407 -0.6124 -0.0249 -0.4389
  925MOL0     H22035   3.155   5.341   2.777 -0.9130 -1.8488 -0.2765
  925MOL0     H22036   2.974   5.249   2.911  0.9615 -0.1563  2.9716
  925MOL0     H22037   2.659   5.519   3.070  2.7170  1.3425 -1.5037
  925MOL0     H22038   2.790   5.518   3.193  0.4818 -0.8529  0.2519
  925MOL0     H22039   2.713   5.308   3.282  1.1316  3.1158  2.0703
  925MOL0     H22040   2.588   5.287   3.152  2.4060 -2.8920  1.0064
  925MOL0     H22041   2.462   5.475   3.244 -0.3025 -0.5787 -0.3963
  925MOL0     H22042   2.594   5.505   3.366  1.3466 -1.0957  1.2056
  925MOL0     H22043   2.540   5.288   3.457 -0.8202  0.4166  2.1117
  925MOL0     H22044   2.398   5.402   3.462  1.2394 -1.3336  1.4585
  925MOL0     H22045   2.331   5.169   3.426  0.8287  1.4561  1.7318
  925MOL0     H22046   2.457   5.133   3.320 -1.4365 -0.9089  1.0354
  925MOL0     H22047   2.225   5.138   3.223  0.3572 -0.6156 -0.3167
  925MOL0     H22048   2.350   5.246   3.131 -1.7991  2.5424 -0.2797
  925MOL0     H22049   2.101   5.316   3.301 -1.2854  1.6259 -0.3195
  925MOL0     H22050   2.231   5.429   3.278  1.4788  0.2115 -2.1344
  925MOL0     H22051   2.199   5.398   3.024 -0.0059  1.7292  0.7084
  925MOL0     H22052   2.079   5.489   3.116  0.6715  0.0257 -0.7102
  925MOL0     H22053   1.823   5.411   3.063 -1.9082 -0.6412 -0.4706
  925MOL0     H22054   1.624   5.299   2.957 -2.5620 -1.1639  0.8730
  925MOL0     H22055   1.642   5.137   3.044 -2.9629 -3.5330 -4.2555
  925MOL0     H22056   1.695   5.028   2.841 -2.8594 -1.4336  6.3591
  925MOL0     H22057   1.682   5.182   2.756  1.6022  1.3092  1.4334
  925MOL0     H22058   1.492   4.991   2.756  0.4853 -1.7011  1.1278
  925MOL0     H22059   1.468   5.047   2.921  4.6605  1.5327  2.0056
  925MOL0     H22060   1.426   5.230   2.676 -0.3785 -1.4538  0.3943
  925MOL0     H22061   1.426   5.274   2.838  2.5225 -1.3438 -0.1246
  925MOL0     H22062   1.284   5.439   2.785 -0.2706  1.3286 -1.4169
  925MOL0     H22063   1.123   5.577   2.879 -0.8190  0.6588  1.4380
  925MOL0     H22064   0.546   5.350   3.049 -0.2786  0.3428 -1.8540
  925MOL0     H22065   0.302   5.457   3.070  1.4344 -0.1360  1.7038
  925MOL0     H22066   0.167   5.535   2.925  1.4354  0.2307 -0.6483
  925MOL0     H22067   0.138   5.654   2.811 -1.7001 -3.0078  0.2700
  925MOL0     H22068   0.013   5.652   3.100 -0.3290  1.3751  0.0930
  925MOL0     H22069  -0.060   5.602   2.958  0.1330 -0.5022 -0.0753
  925MOL0     H22070   0.005   5.853   2.867  1.8339 -0.8380  0.2873
  925MOL0     H22071   0.037   5.905   3.020 -1.4055  1.2759  0.2461
  925MOL0     H22072  -0.197   5.772   3.072 -1.8179  1.4669  1.8565
  925MOL0     H22073  -0.189   5.942   3.042  1.9655  0.4835 -1.3238
  925MOL0     H22074  -0.242   5.748   2.809 -0.1122  0.7853 -3.1713
  925MOL0     H22075  -0.214   5.925   2.803  2.2008  0.1882  1.5477
  925MOL0     H22076  -0.401   5.924   2.976 -1.2264 -0.0390 -0.8137
  925MOL0     H22077  -0.451   5.762   2.937  0.5453  0.1456  1.0700
  925MOL0     H22078  -0.450   5.886   2.688 -5.6075  1.5610 -2.3450
  925MOL0     H22079  -0.590   5.855   2.778 -0.2033 -0.6261 -3.3998
  925MOL0     H22080  -0.575   6.095   2.712  0.0002 -1.6615 -0.6126
  925MOL0     H22081  -0.416   6.111   2.777  1.8290 -1.8284  3.2077
  925MOL0     H22082   0.473   5.809   2.904 -1.2516 -2.3427 -4.1638
  925MOL0     H22083   0.693   5.730   2.920  0.3101 -0.1355  1.8265
  925MOL0     H22084   0.844   5.249   2.919 -1.0545  0.2129  0.3064
  925MOL0     H22085   1.012   5.107   2.852 -2.2857  1.0323  3.1700
  925MOL0     H22086   2.835   5.639   3.000 -1.6651 -2.0124  0.8095
  925MOL0     H22087   3.011   5.741   2.879 -0.3020  0.1018 -3.9417
  925MOL0     H22088   3.445   5.726   2.655  2.0750  1.2838 -1.0971
  925MOL0     H22089   3.564   5.856   2.522 -0.9155 -0.9105  0.4626
  925MOL0     H22090   3.547   5.965   2.099  0.0465 -0.6209 -1.6896
  925MOL0     H22091   3.451   5.815   2.147  1.8818 -1.7082  0.3808
  925MOL0     H22092   3.742   5.873   2.190 -1.0478  0.5979 -5.0536
  925MOL0     H22093   3.647   5.757   2.295 -3.2244 -0.2882  0.4599
  925MOL0     H22094   3.630   5.730   1.995  2.9096  1.4880 -0.1963
  925MOL0     H22095   3.638   5.601   2.130 -1.0675 -0.3166 -0.1585
  925MOL0     H22096   3.819   5.599   1.967  0.3675 -1.8466  0.4934
  925MOL0     H22097   3.856   5.766   2.001 -5.2377  1.9940  2.7373
  925MOL0     H22098   4.042   5.524   2.312 -1.2089 -0.4200 -0.1355
  925MOL0     H22099   3.240   5.931   2.253 -0.4024 -0.6143 -0.0818
  925MOL0     H22100   3.094   5.789   2.394 -0.4381 -1.4421 -1.6958
  926MOL0     O22101   0.482  10.118   4.781  0.7383 -0.5870 -0.4623
  926MOL0     C22102   0.419  10.224   4.791 -0.2217 -0.3433 -0.4523
  926MOL0     O22103   0.470  10.350   4.749 -0.7630  0.0952 -0.6458
  926MOL0     C22104   0.593  10.359   4.691 -0.2953 -1.2600  0.3144
  926MOL0     C22105   0.614  10.444   4.587 -0.5291 -0.2386  0.5449
  926MOL0     C22106   0.726  10.456   4.511  0.2473 -0.2564 -0.2125
  926MOL0     C22107   0.843  10.396   4.556  0.0348  0.8265 -0.1287
  926MOL0     O22108   0.970  10.417   4.498 -0.4148 -0.0876  0.7578
  926MOL0     C22109   1.100  10.364   4.565 -0.0612 -1.2761 -0.4437
  926MOL0     C22110   1.219  10.449   4.508 -0.7315  0.2087  0.6623
  926MOL0     C22111   1.215  10.586   4.573  1.1049  0.2737  0.5585
  926MOL0     C22112   1.315  10.685   4.502 -0.1138  0.1628 -0.6278
  926MOL0     C22113   1.383  10.792   4.585 -0.4539 -0.0957  0.3698
  926MOL0     C22114   1.450  10.748   4.710 -1.3756 -0.0357  0.0791
  926MOL0     C22115   1.482  10.866   4.804  0.2556  0.5987  0.0956
  926MOL0     C22116   1.370  10.928   4.895 -0.4433  0.4417  0.6242
  926MOL0     N22117   1.402  11.072   4.909 -0.6999 -0.3137 -0.4013
  926MOL0     C22118   1.322  11.175   4.866 -0.7083  0.2454 -1.1289
  926MOL0     C22119   1.392  11.281   4.915  0.7954 -0.5657  0.5024
  926MOL0     C22120   1.371  11.427   4.897 -0.3931 -0.0559 -0.6829
  926MOL0     C22121   1.263  11.493   4.989 -0.8561 -0.1865  0.3388
  926MOL0     C22122   1.244  11.642   4.941  0.3003 -0.1182  0.3242
  926MOL0     C22123   1.190  11.731   5.051  0.6185 -0.5011  0.6448
  926MOL0     O22124   1.074  11.675   5.108 -0.3025 -0.4163 -0.2102
  926MOL0     C22125   0.948  11.713   5.066 -0.6199 -0.9430 -0.4647
  926MOL0     C22126   0.926  11.805   4.964 -0.0982 -0.3728 -0.0217
  926MOL0     C22127   0.800  11.842   4.924 -0.4379 -0.4151  0.0555
  926MOL0     C22128   0.682  11.801   4.982 -0.2860 -0.2249 -0.4190
  926MOL0     C22129   0.547  11.856   4.935 -0.5698  0.7813 -0.6786
  926MOL0     O22130   0.545  11.946   4.835  0.0505  0.6904  0.5735
  926MOL0     C22131   0.426  12.007   4.800  0.9975 -0.0321  0.3201
  926MOL0     C22132   0.396  12.025   4.668 -0.6788  0.0836  0.4319
  926MOL0     C22133   0.275  12.074   4.631 -0.5331 -0.1231 -0.0666
  926MOL0     C22134   0.172  12.113   4.718 -0.6306  1.4264 -0.0832
  926MOL0     O22135   0.056  12.173   4.668 -0.6775  0.5244  0.6575
  926MOL0     C22136  -0.062  12.090   4.699 -1.0886  0.4114 -0.5110
  926MOL0     C22137  -0.195  12.156   4.651 -0.5399 -0.3371  0.4064
  926MOL0     C22138  -0.311  12.085   4.699 -0.0031  0.8048 -0.6041
  926MOL0     C22139  -0.439  12.174   4.691  0.6290 -0.6469 -0.0949
  926MOL0     C22140  -0.556  12.096   4.744 -0.0398 -0.0785  0.6644
  926MOL0     C22141  -0.685  12.172   4.743 -0.5862 -0.3099  0.0592
  926MOL0     C22142  -0.796  12.079   4.792  0.0668  0.0498 -0.3952
  926MOL0     C22143  -0.928  12.158   4.771 -0.8899  0.8860 -0.2093
  926MOL0    Cl22144  -0.918  12.302   4.865 -0.0758 -0.5786  0.1409
  926MOL0     C22145   0.207  12.112   4.858  0.2974  0.0118 -0.2006
  926MOL0     C22146   0.332  12.060   4.899  0.4294  0.5011  0.7703
  926MOL0     O22147   0.451  11.812   4.997 -1.0044  0.3392  0.0339
  926MOL0     C22148   0.704  11.706   5.093 -0.2900 -0.0312  0.0783
  926MOL0     C22149   0.836  11.666   5.127  0.0772  0.7855 -0.1176
  926MOL0     N22150   1.496  11.238   4.990  0.6334  1.0050 -0.1983
  926MOL0     N22151   1.502  11.110   4.998  0.0070  0.0993  1.0107
  926MOL0     C22152   0.831  10.306   4.668  0.2878 -0.1536 -0.8663
  926MOL0     C22153   0.706  10.288   4.735 -0.7717  0.2068  0.8582
  926MOL0     C22154   0.277  10.219   4.830 -0.1094  0.0316  0.0310
  926MOL0     C22155   0.233  10.112   4.916  0.0742 -0.3169  1.2876
  926MOL0     C22156   0.095  10.103   4.952 -1.2454  0.9612 -0.0972
  926MOL0     C22157   0.003  10.199   4.913  0.1223 -0.6118  0.5377
  926MOL0     O22158  -0.128  10.211   4.952  0.5411  0.0420  0.6448
  926MOL0     C22159  -0.196  10.085   4.952  0.2381 -0.3599 -0.1951
  926MOL0     C22160  -0.218  10.015   5.089  0.5321  0.2250  0.5936
  926MOL0     C22161  -0.265  10.116   5.193 -0.7008 -0.1563 -0.1413
  926MOL0     C22162  -0.224  10.100   5.336 -0.5235  0.0344 -0.3870
  926MOL0     C22163  -0.239   9.968   5.392  0.2798  0.5661 -0.4044
  926MOL0     C22164  -0.261   9.863   5.446  0.5542 -0.8175 -0.3683
  926MOL0     C22165   0.051  10.304   4.844 -0.0173  0.3099 -0.5295
  926MOL0     C22166   0.185  10.316   4.805  0.3832  0.3216  0.3423
  926MOL0     H22167   0.534  10.505   4.546 -0.4706 -1.6303 -1.7591
  926MOL0     H22168   0.720  10.518   4.422  1.4965  0.9897  0.5389
  926MOL0     H22169   1.112  10.256   4.552  1.5435 -0.9573 -1.8339
  926MOL0     H22170   1.096  10.382   4.673  2.2565  0.5246 -0.5844
  926MOL0     H22171   1.202  10.443   4.400 -3.3680  0.9605  0.9585
  926MOL0     H22172   1.309  10.395   4.538  1.1264  1.9018 -1.5585
  926MOL0     H22173   1.239  10.561   4.676  2.6726 -0.4695  0.0330
  926MOL0     H22174   1.113  10.626   4.581  0.9545 -0.5022  3.4032
  926MOL0     H22175   1.400  10.626   4.468  2.8975  1.9257  3.0000
  926MOL0     H22176   1.267  10.738   4.419 -0.3603 -0.1061 -0.6554
  926MOL0     H22177   1.312  10.870   4.611  0.7824  1.1661  0.1050
  926MOL0     H22178   1.457  10.856   4.536 -1.1012  2.2816  2.3325
  926MOL0     H22179   1.547  10.699   4.693 -1.0500 -0.6072  3.0186
  926MOL0     H22180   1.386  10.681   4.769 -1.4166  0.7259  0.9285
  926MOL0     H22181   1.543  10.830   4.887 -1.1500  2.7593  2.2120
  926MOL0     H22182   1.544  10.940   4.753  0.3586 -0.6595 -1.7023
  926MOL0     H22183   1.383  10.876   4.991  0.3108  3.6375  2.4178
  926MOL0     H22184   1.271  10.907   4.855  0.1721 -0.4046 -0.5067
  926MOL0     H22185   1.225  11.178   4.818 -0.5844  2.7792 -1.3438
  926MOL0     H22186   1.336  11.447   4.796 -3.0058  1.5919  0.4453
  926MOL0     H22187   1.462  11.488   4.897 -1.8636  2.2754 -0.5309
  926MOL0     H22188   1.295  11.489   5.094  1.7834 -2.9865 -0.4105
  926MOL0     H22189   1.169  11.437   4.983 -0.4314 -1.3647  2.9955
  926MOL0     H22190   1.340  11.684   4.909  1.0208 -1.0163  1.2401
  926MOL0     H22191   1.168  11.642   4.861  0.8953  0.6718 -0.2662
  926MOL0     H22192   1.173  11.831   5.010 -2.3495 -0.6116  1.3429
  926MOL0     H22193   1.274  11.727   5.122  1.2085 -0.1830 -0.0301
  926MOL0     H22194   1.013  11.845   4.914  1.5907 -3.8446 -0.1596
  926MOL0     H22195   0.790  11.904   4.835 -1.3233  1.1469  1.1916
  926MOL0     H22196   0.459  11.986   4.589 -1.2821  2.6775 -1.4581
  926MOL0     H22197   0.256  12.076   4.524 -0.3047 -2.7664 -0.2300
  926MOL0     H22198  -0.066  12.065   4.806 -2.6403  0.0474 -0.6310
  926MOL0     H22199  -0.046  11.995   4.648 -0.8485 -0.8035  1.6979
  926MOL0     H22200  -0.189  12.173   4.543 -0.4737 -1.3433  0.2487
  926MOL0     H22201  -0.206  12.253   4.701 -1.7958  1.7840 -3.5283
  926MOL0     H22202  -0.312  12.046   4.802  1.4381 -1.3254 -1.3106
  926MOL0     H22203  -0.324  11.990   4.645  1.8532  0.4276 -0.4517
  926MOL0     H22204  -0.423  12.258   4.759 -0.7495  0.3032 -0.8884
  926MOL0     H22205  -0.439  12.209   4.587 -1.2293 -0.9205 -0.2137
  926MOL0     H22206  -0.531  12.081   4.850 -0.6607 -2.4322  0.5334
  926MOL0     H22207  -0.561  11.998   4.695 -0.8248 -0.3365  1.2420
  926MOL0     H22208  -0.701  12.217   4.645  0.5077 -0.9697 -0.4419
  926MOL0     H22209  -0.679  12.257   4.812  0.0070 -0.7718  0.5901
  926MOL0     H22210  -0.800  11.983   4.740 -0.7343  0.5303 -1.2457
  926MOL0     H22211  -0.791  12.064   4.900 -2.5052 -1.9177 -0.4527
  926MOL0     H22212  -1.011  12.091   4.797 -1.4202  1.1843 -1.0935
  926MOL0     H22213  -0.949  12.180   4.666 -3.6404  0.7644  0.2420
  926MOL0     H22214   0.129  12.138   4.929  0.5409  0.1668  0.0153
  926MOL0     H22215   0.347  12.056   5.006  2.8362 -1.3880  0.4463
  926MOL0     H22216   0.616  11.689   5.154 -1.2778  3.9855  0.0396
  926MOL0     H22217   0.860  11.614   5.219 -0.5176  1.8544  0.6661
  926MOL0     H22218   0.911  10.246   4.710  0.3913 -2.0204 -3.4900
  926MOL0     H22219   0.700  10.205   4.804  2.0203 -0.6763  0.1784
  926MOL0     H22220   0.300  10.035   4.953  1.5706 -0.1779 -0.9874
  926MOL0     H22221   0.075  10.020   5.019  1.6999 -0.3264 -0.6675
  926MOL0     H22222  -0.151  10.007   4.891 -1.9167 -2.2221  0.4719
  926MOL0     H22223  -0.296  10.098   4.910  1.1078  1.3716 -1.9040
  926MOL0     H22224  -0.292   9.938   5.065  1.6824  0.4360 -5.2335
  926MOL0     H22225  -0.131   9.961   5.128  1.4507  1.3318  0.1503
  926MOL0     H22226  -0.374  10.119   5.201 -0.6823  0.0579  0.0492
  926MOL0     H22227  -0.237  10.219   5.168 -1.4344 -0.0533 -0.5612
  926MOL0     H22228  -0.118  10.126   5.344 -0.0959 -1.9997  1.1809
  926MOL0     H22229  -0.284  10.167   5.399 -3.9842 -2.1420 -1.1219
  926MOL0     H22230  -0.262   9.772   5.503 -1.7203 -0.7609 -0.2124
  926MOL0     H22231  -0.017  10.389   4.842 -0.6919 -0.1612  0.9111
  926MOL0     H22232   0.205  10.410   4.754 -1.6672  0.6586  0.0892
  927MOL0     O22233   2.718   5.926   9.849  0.3070  0.5645  0.1217
  927MOL0     C22234   2.749   5.831   9.914  0.1328 -0.1596 -1.2439
  927MOL0     O22235   2.669   5.756   9.997 -0.2424 -0.3180  0.0494
  927MOL0     C22236   2.534   5.792   9.998  0.2232 -0.2540 -0.7972
  927MOL0     C22237   2.484   5.842  10.113 -0.2306 -0.1389 -0.4296
  927MOL0     C22238   2.343   5.870  10.123  0.1071  0.2893  0.2767
  927MOL0     C22239   2.257   5.837  10.017  0.6768  0.5756 -0.4130
  927MOL0     O22240   2.135   5.883  10.033 -0.2751  0.2938 -0.4456
  927MOL0     C22241   2.041   5.908   9.920 -0.5474  0.5465 -0.0745
  927MOL0     C22242   1.921   6.002   9.943 -0.1177 -0.5256 -0.6429
  927MOL0     C22243   1.804   5.958  10.025 -0.4224  0.4829 -0.0628
  927MOL0     C22244   1.851   5.919  10.164  0.1837 -0.5122  0.3622
  927MOL0     C22245   1.732   5.891  10.264 -0.1816 -0.5518  0.2138
  927MOL0     C22246   1.613   6.003  10.287 -0.6412  0.5336  0.1302
  927MOL0     C22247   1.498   5.950  10.377  0.7356 -1.0915 -0.1930
  927MOL0     C22248   1.400   6.059  10.441  0.0153 -0.4981 -0.2669
  927MOL0     N22249   1.338   6.148  10.337 -0.3757  0.3869 -0.7216
  927MOL0     C22250   1.419   6.238  10.267 -0.0883 -1.2018  0.7624
  927MOL0     C22251   1.349   6.263  10.154 -0.0453  0.4815 -0.3356
  927MOL0     C22252   1.391   6.340  10.040 -0.1764  0.0340  0.8560
  927MOL0     C22253   1.523   6.274   9.973  0.6055 -0.7809 -1.4200
  927MOL0     C22254   1.607   6.351   9.874 -0.1355  0.2008  0.5019
  927MOL0     C22255   1.669   6.470   9.933 -0.1892  0.2626  0.3613
  927MOL0     O22256   1.737   6.546   9.825  0.6149 -0.5822 -0.4332
  927MOL0     C22257   1.869   6.534   9.795 -0.1702  0.1166  0.2912
  927MOL0     C22258   1.931   6.648   9.732 -0.6526  0.4221 -0.2588
  927MOL0     C22259   2.069   6.645   9.699 -0.2004  0.3972  0.4004
  927MOL0     C22260   2.145   6.530   9.729  1.1077 -0.3399  0.2533
  927MOL0     C22261   2.281   6.521   9.675 -0.4858  0.2027 -0.2748
  927MOL0     O22262   2.308   6.588   9.558 -0.8350  0.5722 -0.5164
  927MOL0     C22263   2.430   6.591   9.502 -0.5084  0.0048 -0.1885
  927MOL0     C22264   2.521   6.482   9.486 -0.2742  0.8071 -0.0837
  927MOL0     C22265   2.652   6.487   9.428  0.7427 -0.2756  0.3097
  927MOL0     C22266   2.687   6.605   9.370  0.0911  0.0696  0.5920
  927MOL0     O22267   2.818   6.608   9.317  0.4922 -0.0694 -0.4873
  927MOL0     C22268   2.844   6.707   9.220 -0.2056  0.2359  0.2616
  927MOL0     C22269   2.985   6.689   9.155 -0.7549 -0.0912  0.2471
  927MOL0     C22270   3.079   6.704   9.269 -0.4170  0.2692  0.5014
  927MOL0     C22271   3.089   6.855   9.300 -0.2903  0.6961 -0.6393
  927MOL0     C22272   3.219   6.898   9.383 -0.2799 -0.0040 -0.6955
  927MOL0     C22273   3.363   6.847   9.337  0.0636 -0.0233  0.0523
  927MOL0     C22274   3.464   6.920   9.417 -0.2310  0.8653  0.2780
  927MOL0     C22275   3.597   6.854   9.392  0.3671 -0.6455  0.2596
  927MOL0    Cl22276   3.718   6.927   9.494  0.0316  0.0198 -0.1706
  927MOL0     C22277   2.596   6.711   9.371  0.6633  0.2160  0.1555
  927MOL0     C22278   2.473   6.707   9.437 -0.3053  0.3193 -0.0390
  927MOL0     O22279   2.357   6.449   9.745 -0.3088  0.3124 -0.0884
  927MOL0     C22280   2.088   6.419   9.795 -0.1787 -0.2560  0.2775
  927MOL0     C22281   1.943   6.423   9.831 -0.0422 -0.6716 -0.5677
  927MOL0     N22282   1.229   6.189  10.156  0.8822  0.2236  0.5008
  927MOL0     N22283   1.225   6.116  10.262  0.2679  0.6504  0.3368
  927MOL0     C22284   2.311   5.794   9.897  0.5527 -0.1041  0.1548
  927MOL0     C22285   2.449   5.770   9.889 -0.0100 -0.6815  0.6177
  927MOL0     C22286   2.885   5.782   9.910  0.1406  0.0103 -0.3831
  927MOL0     C22287   2.926   5.659   9.962 -0.3720 -0.1437  1.1490
  927MOL0     C22288   3.051   5.605   9.914 -0.0173  0.3024 -0.0643
  927MOL0     C22289   3.138   5.677   9.837 -0.3895  0.5288  0.5294
  927MOL0     O22290   3.266   5.615   9.829 -0.5004 -0.3693  0.2931
  927MOL0     C22291   3.376   5.673   9.757  0.0370  0.0546 -0.0774
  927MOL0     C22292   3.463   5.556   9.728 -0.4181  0.3058  0.0897
  927MOL0     C22293   3.590   5.596   9.654  0.2765  0.0394  0.3088
  927MOL0     C22294   3.715   5.518   9.694 -0.6152 -0.9152 -0.4403
  927MOL0     C22295   3.763   5.555   9.827 -0.7813  0.1244  0.1963
  927MOL0     C22296   3.821   5.560   9.932 -0.7880  0.3159 -0.1080
  927MOL0     C22297   3.108   5.810   9.811 -0.2015 -0.0119  0.6361
  927MOL0     C22298   2.984   5.856   9.837  1.1560  0.1663  0.3389
  927MOL0     H22299   2.532   5.846  10.210  0.3857  0.5775 -0.7610
  927MOL0     H22300   2.294   5.904  10.213  0.4559 -1.1213  1.0323
  927MOL0     H22301   2.002   5.810   9.891  0.1374  0.0871  0.5024
  927MOL0     H22302   2.098   5.952   9.838  1.3235  1.8983  1.8586
  927MOL0     H22303   1.879   6.016   9.843  1.8810 -0.0117 -1.4612
  927MOL0     H22304   1.959   6.100   9.974  0.2803 -0.0461 -2.4966
  927MOL0     H22305   1.764   5.862   9.990  0.2434 -0.1707  0.9092
  927MOL0     H22306   1.724   6.032  10.025  0.5414  1.5453 -0.5192
  927MOL0     H22307   1.898   5.820  10.159 -3.2350 -2.2288 -2.4775
  927MOL0     H22308   1.916   5.997  10.203 -2.0139  1.1606  0.8686
  927MOL0     H22309   1.768   5.866  10.365 -0.3992  0.0410  0.4490
  927MOL0     H22310   1.688   5.798  10.228  1.5911 -0.9974 -0.9138
  927MOL0     H22311   1.571   6.031  10.190 -0.3061  0.7218  0.0383
  927MOL0     H22312   1.646   6.094  10.337 -0.1063  0.6568 -0.4342
  927MOL0     H22313   1.442   5.883  10.311 -1.4997  1.3723 -0.9875
  927MOL0     H22314   1.545   5.889  10.454  0.8784 -0.0982  0.5205
  927MOL0     H22315   1.455   6.130  10.503 -0.0255  1.3285 -2.2355
  927MOL0     H22316   1.321   6.016  10.504 -0.1664  1.2690  0.7791
  927MOL0     H22317   1.516   6.279  10.293  0.1627 -0.1032 -1.6072
  927MOL0     H22318   1.415   6.444  10.067 -2.6267  0.9158 -0.0361
  927MOL0     H22319   1.317   6.350   9.960  0.3119  1.1983  0.5136
  927MOL0     H22320   1.494   6.177   9.931  1.1798 -0.7963 -1.8034
  927MOL0     H22321   1.592   6.255  10.056  2.0437 -0.9594 -2.6120
  927MOL0     H22322   1.689   6.284   9.846  0.9923  1.9989 -0.6971
  927MOL0     H22323   1.543   6.374   9.789 -1.8703 -2.8048  0.8284
  927MOL0     H22324   1.752   6.430   9.992  0.7754  0.3209 -0.9198
  927MOL0     H22325   1.600   6.534   9.989 -1.0361 -0.2939 -0.0156
  927MOL0     H22326   1.873   6.733   9.696 -2.9329  0.0557  2.2622
  927MOL0     H22327   2.111   6.729   9.644 -0.0096 -1.2228 -2.1169
  927MOL0     H22328   2.482   6.397   9.541  0.8215 -0.7241 -1.5970
  927MOL0     H22329   2.721   6.404   9.429  0.5865 -0.4096  0.1189
  927MOL0     H22330   2.854   6.808   9.262  3.5011 -1.1473  3.3282
  927MOL0     H22331   2.762   6.700   9.148 -0.3521 -1.4093  0.5472
  927MOL0     H22332   3.011   6.764   9.080  3.7798  1.7930  3.2919
  927MOL0     H22333   2.991   6.593   9.103 -0.7682  0.7482 -1.3945
  927MOL0     H22334   3.175   6.664   9.236 -0.8021 -1.2496  1.1670
  927MOL0     H22335   3.046   6.642   9.353  1.4057 -3.1678 -1.1028
  927MOL0     H22336   3.097   6.910   9.206  1.9381  1.2020 -0.2031
  927MOL0     H22337   3.000   6.894   9.352 -1.3859 -0.2852 -1.7059
  927MOL0     H22338   3.207   6.872   9.488 -0.1009 -0.0779 -0.6945
  927MOL0     H22339   3.223   7.006   9.368 -0.2308 -0.2988 -3.2387
  927MOL0     H22340   3.375   6.875   9.232 -0.3418  0.8399  0.2301
  927MOL0     H22341   3.365   6.740   9.360  0.0130 -0.3501 -1.3626
  927MOL0     H22342   3.469   7.028   9.400 -0.6525  0.8655  0.1403
  927MOL0     H22343   3.430   6.900   9.519 -1.1291 -2.1850 -0.5268
  927MOL0     H22344   3.633   6.860   9.288  1.4061  1.3492  0.6742
  927MOL0     H22345   3.579   6.747   9.405 -2.1291 -0.1237  1.5659
  927MOL0     H22346   2.624   6.807   9.327 -0.4402  0.2165 -0.5925
  927MOL0     H22347   2.414   6.796   9.417  0.7004  0.8378 -0.7813
  927MOL0     H22348   2.145   6.329   9.817  0.8089  0.5045  0.9603
  927MOL0     H22349   1.919   6.334   9.889  0.1827  1.7757  3.7253
  927MOL0     H22350   2.244   5.775   9.814 -1.4348 -3.4950  2.2516
  927MOL0     H22351   2.491   5.725   9.800  0.6727  3.4132 -1.3458
  927MOL0     H22352   2.869   5.596  10.030  0.7147 -1.1568  1.1564
  927MOL0     H22353   3.086   5.510   9.954  0.3766 -0.8056 -2.8363
  927MOL0     H22354   3.420   5.755   9.814 -0.3443  1.1658 -1.3119
  927MOL0     H22355   3.338   5.708   9.661  0.4809 -0.1294 -0.3254
  927MOL0     H22356   3.489   5.513   9.825  2.5865 -0.7567 -1.0968
  927MOL0     H22357   3.411   5.479   9.670  1.4491 -0.2072 -0.9536
  927MOL0     H22358   3.616   5.702   9.666  2.6209 -0.4178 -0.1834
  927MOL0     H22359   3.575   5.578   9.547  2.5223  0.0003 -0.0472
  927MOL0     H22360   3.690   5.412   9.701 -0.1523 -0.9214  3.2334
  927MOL0     H22361   3.795   5.533   9.622  2.2639  3.8333  3.1186
  927MOL0     H22362   3.881   5.566  10.021 -1.0212 -0.6494  0.1365
  927MOL0     H22363   3.169   5.864   9.739 -1.2151  2.0698  1.2743
  927MOL0     H22364   2.967   5.957   9.802  4.3534  0.2536 -1.2864
  928MOL0     O22365   8.470   0.393   6.235  0.5457 -0.5087 -0.5377
  928MOL0     C22366   8.415   0.369   6.341  0.2651 -0.0873 -0.2641
  928MOL0     O22367   8.280   0.352   6.359  1.1920  0.0283  0.6447
  928MOL0     C22368   8.194   0.336   6.248 -0.0632 -0.0292 -0.1625
  928MOL0     C22369   8.156   0.203   6.204 -0.5980 -0.4258  0.6235
  928MOL0     C22370   8.079   0.196   6.084 -0.8395  0.5825 -0.4629
  928MOL0     C22371   8.034   0.314   6.020 -0.2200  0.4759 -0.9635
  928MOL0     O22372   7.956   0.294   5.915  0.0485 -0.3633 -0.6042
  928MOL0     C22373   7.829   0.370   5.903 -0.2369  0.2425 -1.2645
  928MOL0     C22374   7.726   0.349   6.021 -0.7309 -0.5323  0.7002
  928MOL0     C22375   7.594   0.415   5.992  0.6133 -0.8677 -0.4895
  928MOL0     C22376   7.482   0.377   6.099  0.1187 -0.0002  0.8016
  928MOL0     C22377   7.350   0.455   6.083  0.2682  0.8429  0.3402
  928MOL0     C22378   7.268   0.461   6.209  0.2174  0.8656 -0.5089
  928MOL0     C22379   7.151   0.353   6.215  0.3070  0.0944  0.2348
  928MOL0     C22380   7.080   0.351   6.355 -0.3858 -0.1075 -0.1186
  928MOL0     N22381   6.926   0.344   6.354 -1.7817 -1.0700 -0.8915
  928MOL0     C22382   6.843   0.269   6.433  0.0625 -0.0298  0.3713
  928MOL0     C22383   6.725   0.310   6.386 -0.1771  0.7004 -1.2423
  928MOL0     C22384   6.599   0.250   6.457  0.1917  0.2368 -0.0362
  928MOL0     C22385   6.497   0.351   6.502 -0.5853  0.4564  1.1536
  928MOL0     C22386   6.554   0.435   6.619  0.5532  0.6992  0.3606
  928MOL0     C22387   6.448   0.523   6.683  0.3596 -0.2171  0.2280
  928MOL0     O22388   6.328   0.450   6.718 -0.6109 -0.5174  0.0693
  928MOL0     C22389   6.223   0.518   6.775  0.9128 -1.2529 -0.5189
  928MOL0     C22390   6.219   0.657   6.794 -0.2161  1.1267  0.1796
  928MOL0     C22391   6.110   0.715   6.857 -0.2940 -0.2730 -0.2533
  928MOL0     C22392   6.001   0.638   6.896  0.2276 -0.5492  0.5443
  928MOL0     C22393   5.887   0.689   6.978  0.4716 -0.9022  0.5578
  928MOL0     O22394   5.781   0.612   7.003  0.1131  0.3554 -0.2964
  928MOL0     C22395   5.703   0.661   7.101 -0.0442  0.2787 -0.6960
  928MOL0     C22396   5.594   0.738   7.060  0.4616  0.6114  0.0069
  928MOL0     C22397   5.500   0.797   7.148 -0.2955  0.7926 -1.4571
  928MOL0     C22398   5.514   0.775   7.285  0.8066  0.1309  0.0516
  928MOL0     O22399   5.429   0.829   7.370  0.1195  0.6755 -0.3403
  928MOL0     C22400   5.361   0.741   7.458  0.5646  0.1762 -0.3605
  928MOL0     C22401   5.258   0.828   7.536  0.1574  0.5201  0.1138
  928MOL0     C22402   5.147   0.736   7.594 -0.7609  0.4891 -0.6341
  928MOL0     C22403   5.050   0.810   7.683 -0.5809  0.8326 -0.0294
  928MOL0     C22404   4.968   0.741   7.795 -0.5491 -0.5952 -0.3074
  928MOL0     C22405   4.896   0.842   7.874 -0.2159 -0.9787  0.3827
  928MOL0     C22406   4.812   0.758   7.965 -0.1336 -0.1538  0.9116
  928MOL0     C22407   4.726   0.859   8.046 -0.6326 -0.2682  0.5846
  928MOL0    Cl22408   4.831   0.972   8.154  0.2263 -0.0929 -0.1857
  928MOL0     C22409   5.620   0.697   7.320  0.5032  0.0327  0.3888
  928MOL0     C22410   5.712   0.635   7.241 -0.1729 -0.1417  0.3595
  928MOL0     O22411   5.913   0.797   7.032 -0.2679 -0.1559 -0.0011
  928MOL0     C22412   5.998   0.500   6.866  0.3257 -0.0778  0.0505
  928MOL0     C22413   6.111   0.440   6.811  0.1634 -0.5755 -0.6595
  928MOL0     N22414   6.728   0.405   6.288  0.3669  0.4078  0.6510
  928MOL0     N22415   6.856   0.433   6.273 -0.4580 -0.2418  0.3799
  928MOL0     C22416   8.067   0.438   6.073  0.0847 -0.7285  1.5948
  928MOL0     C22417   8.149   0.457   6.181  0.0288  0.3030  0.4751
  928MOL0     C22418   8.488   0.372   6.466 -0.0984 -0.3352 -0.0380
  928MOL0     C22419   8.633   0.385   6.470  0.2258 -0.5053 -0.1294
  928MOL0     C22420   8.692   0.451   6.574 -0.1323  0.3073 -0.0093
  928MOL0     C22421   8.622   0.485   6.691  0.5219 -0.0329 -0.4138
  928MOL0     O22422   8.689   0.549   6.793 -0.9322 -0.3728 -0.2967
  928MOL0     C22423   8.606   0.612   6.898 -0.0139  1.0415 -0.7418
  928MOL0     C22424   8.684   0.715   6.978 -0.4093 -0.1762  0.0341
  928MOL0     C22425   8.692   0.848   6.913  0.9089 -0.1787 -0.8385
  928MOL0     C22426   8.726   0.960   7.012  0.1707  0.1910 -0.7454
  928MOL0     C22427   8.611   0.993   7.104 -0.7870 -0.6277  0.6367
  928MOL0     C22428   8.519   1.018   7.182  0.0849  0.8826  0.7397
  928MOL0     C22429   8.494   0.444   6.696 -0.2783 -0.0937  0.1153
  928MOL0     C22430   8.419   0.400   6.586  1.2953  0.7713  0.1819
  928MOL0     H22431   8.207   0.125   6.261  1.3244  1.3714  1.4983
  928MOL0     H22432   8.072   0.102   6.029 -1.6284  1.4191 -1.8521
  928MOL0     H22433   7.778   0.346   5.809 -0.9007  1.5092 -1.2566
  928MOL0     H22434   7.855   0.475   5.883  1.9955 -0.8388 -4.8942
  928MOL0     H22435   7.772   0.395   6.109  1.7828 -0.6939 -0.4411
  928MOL0     H22436   7.708   0.243   6.042 -1.5952 -0.5919 -0.2705
  928MOL0     H22437   7.558   0.390   5.892  1.2266 -0.8976 -0.7064
  928MOL0     H22438   7.600   0.522   6.013 -2.3384 -0.8399  0.7380
  928MOL0     H22439   7.457   0.272   6.082 -0.6532  0.3022  0.0016
  928MOL0     H22440   7.522   0.369   6.200  1.2429 -3.4314  0.2255
  928MOL0     H22441   7.294   0.411   6.000 -1.0269  1.3345  0.9341
  928MOL0     H22442   7.386   0.553   6.051 -0.5309  0.9541 -0.2269
  928MOL0     H22443   7.224   0.559   6.229 -0.5477  0.0965  1.9868
  928MOL0     H22444   7.339   0.456   6.292 -0.6006 -1.8809  0.1169
  928MOL0     H22445   7.077   0.376   6.137  0.3345  1.8816  0.6787
  928MOL0     H22446   7.179   0.249   6.201 -2.6525 -0.7657  0.0206
  928MOL0     H22447   7.115   0.439   6.410  0.9944 -0.8261  0.1889
  928MOL0     H22448   7.126   0.266   6.406  2.1058 -0.8651 -3.2572
  928MOL0     H22449   6.869   0.195   6.509 -0.9659 -0.4294  0.3538
  928MOL0     H22450   6.629   0.201   6.550  0.8389  0.9684  0.1549
  928MOL0     H22451   6.547   0.184   6.387 -0.1445  0.9603 -0.4830
  928MOL0     H22452   6.408   0.301   6.542  1.2121 -1.0919  3.4553
  928MOL0     H22453   6.472   0.414   6.416  1.8794 -0.7892 -0.5688
  928MOL0     H22454   6.575   0.359   6.695 -2.7223 -0.0399  0.6823
  928MOL0     H22455   6.636   0.503   6.593 -0.5046  1.4950 -1.0794
  928MOL0     H22456   6.427   0.594   6.602  1.9552 -0.3367 -0.3309
  928MOL0     H22457   6.491   0.555   6.778 -1.6820 -2.6395  2.1073
  928MOL0     H22458   6.307   0.718   6.774  1.7072 -1.0445  1.5098
  928MOL0     H22459   6.119   0.822   6.873 -1.5250 -0.3502  1.1740
  928MOL0     H22460   5.589   0.765   6.955 -1.6056  2.5807  0.5321
  928MOL0     H22461   5.415   0.847   7.103 -1.8954 -0.4291  0.0930
  928MOL0     H22462   5.429   0.682   7.520  3.4866  0.0200 -3.3933
  928MOL0     H22463   5.310   0.670   7.392 -0.0366  0.3099 -0.0449
  928MOL0     H22464   5.219   0.902   7.465 -1.7486 -1.6765 -1.2873
  928MOL0     H22465   5.309   0.883   7.615 -2.1263  0.1969  1.9201
  928MOL0     H22466   5.185   0.667   7.670 -3.5375  2.0169  2.4111
  928MOL0     H22467   5.097   0.684   7.513 -1.9485  0.7196 -0.0717
  928MOL0     H22468   5.100   0.900   7.718  1.7025 -0.9226  1.4676
  928MOL0     H22469   4.973   0.838   7.610 -1.0644 -1.4905 -0.5155
  928MOL0     H22470   5.033   0.685   7.862 -0.2475 -0.3266 -0.3761
  928MOL0     H22471   4.898   0.676   7.741 -0.9633  0.9183 -1.6842
  928MOL0     H22472   4.836   0.901   7.804 -0.6148 -0.6853  0.9600
  928MOL0     H22473   4.955   0.903   7.943 -1.5751  1.1666 -0.2262
  928MOL0     H22474   4.745   0.688   7.914 -0.0497  0.5464 -0.2103
  928MOL0     H22475   4.876   0.696   8.028 -0.1514 -2.4359 -1.1896
  928MOL0     H22476   4.662   0.800   8.113 -1.9280  0.6459  0.1970
  928MOL0     H22477   4.658   0.922   7.988 -1.3849  0.2339  1.9653
  928MOL0     H22478   5.627   0.661   7.422 -1.0482 -1.4235  0.0096
  928MOL0     H22479   5.792   0.570   7.274  1.4451  1.3763 -0.4397
  928MOL0     H22480   5.914   0.439   6.895  0.3838 -1.0621 -1.6987
  928MOL0     H22481   6.131   0.334   6.803  1.1161 -0.7297  2.3734
  928MOL0     H22482   8.023   0.528   6.029  0.7191 -1.3208 -0.3758
  928MOL0     H22483   8.176   0.554   6.220 -1.7179  0.7467  0.6464
  928MOL0     H22484   8.697   0.371   6.383  0.6855 -0.5140  0.2106
  928MOL0     H22485   8.800   0.463   6.570  0.1555 -1.8686 -0.0281
  928MOL0     H22486   8.587   0.527   6.963 -0.5419 -0.2988 -2.5567
  928MOL0     H22487   8.513   0.664   6.870 -2.0245 -1.7613  0.3019
  928MOL0     H22488   8.644   0.720   7.079 -2.2365  2.6534 -0.7205
  928MOL0     H22489   8.789   0.684   6.985  0.2515  1.9617  0.2943
  928MOL0     H22490   8.589   0.870   6.884  0.7411  2.0412  1.1109
  928MOL0     H22491   8.759   0.848   6.826 -0.1010  2.6077 -1.7268
  928MOL0     H22492   8.812   0.927   7.070  0.2079  0.2823 -0.7487
  928MOL0     H22493   8.765   1.046   6.957  1.1078  0.1249 -0.1935
  928MOL0     H22494   8.433   1.023   7.245 -1.8814  0.0556 -1.7513
  928MOL0     H22495   8.446   0.463   6.791  3.4557  3.2900  1.6288
  928MOL0     H22496   8.311   0.403   6.586  1.3064  2.8372 -1.5224
  929MOL0     O22497   9.896  11.046   9.152 -0.2025  0.4795  0.9037
  929MOL0     C22498   9.906  11.122   9.059 -0.5795 -0.8039 -0.0004
  929MOL0     O22499   9.804  11.209   9.012 -0.6557  0.2419 -0.0799
  929MOL0     C22500   9.673  11.180   9.044 -0.6285  0.6226  0.0444
  929MOL0     C22501   9.619  11.054   9.064  0.4863 -0.4821 -0.6193
  929MOL0     C22502   9.489  11.039   9.101 -0.4573 -0.0171 -0.3004
  929MOL0     C22503   9.417  11.161   9.135 -0.0468  0.5204  0.8601
  929MOL0     O22504   9.290  11.148   9.174 -0.6113 -0.2414 -0.1439
  929MOL0     C22505   9.279  11.129   9.314 -0.7787 -0.0905  0.2326
  929MOL0     C22506   9.309  11.253   9.393  0.1816  0.5276 -0.0732
  929MOL0     C22507   9.208  11.365   9.356 -0.2793  0.3593  0.8958
  929MOL0     C22508   9.061  11.340   9.402 -0.9674 -0.3203 -0.2931
  929MOL0     C22509   9.033  11.382   9.537 -0.9252  0.2333 -0.8182
  929MOL0     C22510   8.886  11.359   9.556  0.4765 -0.8437  0.5353
  929MOL0     C22511   8.854  11.402   9.700  0.4115 -0.4594  0.5064
  929MOL0     C22512   8.702  11.389   9.734 -0.2470  0.5958  1.0585
  929MOL0     N22513   8.691  11.402   9.874 -0.6159 -0.1120 -0.2702
  929MOL0     C22514   8.681  11.516   9.949  0.3749 -0.0981 -0.3170
  929MOL0     C22515   8.707  11.481  10.080 -0.1492 -0.6230 -0.3776
  929MOL0     C22516   8.730  11.593  10.184  0.9230 -0.9393 -0.2801
  929MOL0     C22517   8.600  11.614  10.265 -0.3273  0.3553  0.2731
  929MOL0     C22518   8.588  11.489  10.354  0.4516 -0.3402 -0.6733
  929MOL0     C22519   8.471  11.519  10.442  0.3626 -0.5640 -0.3514
  929MOL0     O22520   8.422  11.401  10.508 -1.1893  0.3710 -0.7083
  929MOL0     C22521   8.304  11.403  10.590  0.0563 -1.3369 -0.6071
  929MOL0     C22522   8.250  11.283  10.646 -0.0594  0.2614 -0.1515
  929MOL0     C22523   8.134  11.285  10.720  1.5814  0.0560  0.1608
  929MOL0     C22524   8.056  11.401  10.732 -1.1807 -0.0035  0.5172
  929MOL0     C22525   7.925  11.395  10.793 -0.2235 -0.0698  0.5655
  929MOL0     O22526   7.895  11.517  10.857  0.4375  0.7151  0.1126
  929MOL0     C22527   7.785  11.529  10.940 -0.2932  0.0579 -0.1378
  929MOL0     C22528   7.660  11.574  10.896 -1.0371 -0.4178  0.2534
  929MOL0     C22529   7.555  11.584  10.996  0.8551  0.5491 -0.1480
  929MOL0     C22530   7.583  11.558  11.134  1.0692  0.3126  0.4172
  929MOL0     O22531   7.472  11.569  11.211  0.0806 -0.1691  0.3802
  929MOL0     C22532   7.467  11.502  11.340 -0.4626  0.4968 -0.3666
  929MOL0     C22533   7.323  11.453  11.367  0.8714  0.7949  0.6249
  929MOL0     C22534   7.220  11.566  11.395 -0.7560  0.2362 -0.0882
  929MOL0     C22535   7.077  11.528  11.428 -0.2115  0.5883 -0.5503
  929MOL0     C22536   6.995  11.664  11.444 -0.0682  0.5629 -0.0705
  929MOL0     C22537   6.864  11.616  11.522  0.3533  0.7602 -0.2952
  929MOL0     C22538   6.752  11.722  11.516 -0.4417  0.0802  0.3366
  929MOL0     C22539   6.766  11.821  11.629  0.7171  0.4548 -0.6758
  929MOL0    Cl22540   6.743  11.724  11.783 -0.0550  0.4738 -0.4046
  929MOL0     C22541   7.711  11.523  11.170 -0.4874  0.1902  0.0403
  929MOL0     C22542   7.816  11.514  11.075  0.3118 -0.0809  0.4908
  929MOL0     O22543   7.855  11.295  10.788 -0.2333  0.7697 -0.5318
  929MOL0     C22544   8.108  11.522  10.694  0.0248  1.1942  0.1371
  929MOL0     C22545   8.235  11.526  10.626 -0.0012  0.3361 -0.5708
  929MOL0     N22546   8.728  11.342  10.078  0.0407 -0.0057 -0.3142
  929MOL0     N22547   8.730  11.302   9.963  0.3172  0.8285  0.1189
  929MOL0     C22548   9.473  11.287   9.107 -0.1727  0.3021 -0.1264
  929MOL0     C22549   9.601  11.292   9.066 -1.0842  0.5207  0.1272
  929MOL0     C22550  10.050  11.133   8.996 -0.5654 -0.3046  0.1379
  929MOL0     C22551  10.143  11.030   9.010 -0.9159 -0.4127  0.6116
  929MOL0     C22552  10.276  11.055   8.967  0.8041 -0.6115 -0.4351
  929MOL0     C22553  10.308  11.171   8.886 -0.4403 -0.5057  0.2143
  929MOL0     O22554  10.443  11.182   8.841 -0.2994 -0.1873 -0.2471
  929MOL0     C22555  10.518  11.234   8.952 -0.8048 -0.0576  0.0089
  929MOL0     C22556  10.585  11.369   8.922 -0.3900 -0.4241 -0.1668
  929MOL0     C22557  10.584  11.396   8.772 -0.4050  0.7433 -0.4466
  929MOL0     C22558  10.648  11.529   8.739 -0.3381 -0.5731  0.4881
  929MOL0     C22559  10.625  11.553   8.596  0.2355  0.1561  0.4683
  929MOL0     C22560  10.616  11.558   8.474  0.9135  0.5973  0.2555
  929MOL0     C22561  10.204  11.261   8.845  0.1309  0.8851 -0.0206
  929MOL0     C22562  10.075  11.237   8.907 -0.8911 -0.4509  0.3302
  929MOL0     H22563   9.691  10.972   9.061  1.8562  0.5689  1.4202
  929MOL0     H22564   9.449  10.944   9.133  0.0244 -0.3837 -0.7522
  929MOL0     H22565   9.349  11.051   9.344 -1.7711 -0.8467  0.6531
  929MOL0     H22566   9.179  11.091   9.338 -1.1029  0.7515  0.2274
  929MOL0     H22567   9.413  11.285   9.376  1.2140 -0.7434  3.1812
  929MOL0     H22568   9.292  11.236   9.499 -2.3018  0.5349 -0.4282
  929MOL0     H22569   9.203  11.374   9.247 -0.9791 -2.2848  0.6371
  929MOL0     H22570   9.240  11.462   9.396 -5.0134  2.8634 -0.6888
  929MOL0     H22571   8.999  11.389   9.326  1.6086  1.0633 -1.6307
  929MOL0     H22572   9.038  11.233   9.397 -1.4464 -0.1812 -1.4406
  929MOL0     H22573   9.066  11.486   9.537 -0.2284  0.0163 -0.9518
  929MOL0     H22574   9.102  11.326   9.601 -0.2461  2.0212  0.0757
  929MOL0     H22575   8.858  11.255   9.538 -0.4473 -0.5061 -0.0592
  929MOL0     H22576   8.821  11.420   9.492 -0.3176 -1.3971  0.8063
  929MOL0     H22577   8.917  11.340   9.765  4.2023  1.6049 -0.8304
  929MOL0     H22578   8.868  11.510   9.710 -2.6263  0.3175 -2.1851
  929MOL0     H22579   8.677  11.287   9.703  3.5794 -0.1830  0.1147
  929MOL0     H22580   8.634  11.458   9.682 -2.0698 -0.9340  1.2711
  929MOL0     H22581   8.641  11.614   9.925 -2.0542 -0.4491  1.7850
  929MOL0     H22582   8.756  11.684  10.130  1.5367  0.3775  2.1094
  929MOL0     H22583   8.821  11.568  10.239  2.5453  1.4265 -1.7488
  929MOL0     H22584   8.513  11.629  10.200  1.2486 -0.6288 -2.1986
  929MOL0     H22585   8.602  11.706  10.324 -1.3719  0.9427 -0.5646
  929MOL0     H22586   8.565  11.397  10.299 -1.5769 -0.0655 -0.3735
  929MOL0     H22587   8.681  11.466  10.406 -1.2096 -0.3781  2.5129
  929MOL0     H22588   8.383  11.558  10.391  0.2521  0.4728  0.5786
  929MOL0     H22589   8.513  11.591  10.514  0.4994 -0.2905 -0.6986
  929MOL0     H22590   8.306  11.190  10.650  0.0574  0.3591  3.4219
  929MOL0     H22591   8.111  11.185  10.754 -0.0701  0.4847  0.4030
  929MOL0     H22592   7.640  11.597  10.793  2.3170 -0.3997 -0.5268
  929MOL0     H22593   7.456  11.619  10.967  0.6564  1.2577  1.2750
  929MOL0     H22594   7.514  11.570  11.412  4.7194 -1.0387 -1.8666
  929MOL0     H22595   7.518  11.406  11.335 -0.8591  0.3090 -0.9926
  929MOL0     H22596   7.315  11.396  11.460 -1.8204  0.3506  0.2098
  929MOL0     H22597   7.288  11.392  11.282  2.7426 -3.4349  2.5898
  929MOL0     H22598   7.205  11.632  11.308 -0.3918 -1.5229 -1.5576
  929MOL0     H22599   7.260  11.625  11.477 -0.5453 -2.0364  1.5148
  929MOL0     H22600   7.035  11.470  11.345  0.9399 -2.1354  0.6623
  929MOL0     H22601   7.074  11.470  11.520 -0.2563  0.7070 -0.4759
  929MOL0     H22602   6.968  11.709  11.348 -1.2763  0.5149  0.2310
  929MOL0     H22603   7.045  11.735  11.512 -2.9051  1.4012  1.3082
  929MOL0     H22604   6.891  11.584  11.623 -0.9184  1.3467  0.2475
  929MOL0     H22605   6.836  11.532  11.458  0.8363  0.7705 -0.5245
  929MOL0     H22606   6.752  11.768  11.416 -1.7116  2.1299  1.2073
  929MOL0     H22607   6.662  11.660  11.523 -0.4571 -0.4428 -2.7412
  929MOL0     H22608   6.680  11.888  11.625  0.1558  0.1515  3.0160
  929MOL0     H22609   6.865  11.864  11.607  1.2224 -1.0865 -1.5369
  929MOL0     H22610   7.744  11.519  11.273  2.5231 -1.1383 -0.8591
  929MOL0     H22611   7.918  11.479  11.088  0.0272 -1.6468 -1.1103
  929MOL0     H22612   8.062  11.618  10.716 -0.7555  0.5389  1.5557
  929MOL0     H22613   8.279  11.621  10.600  0.5436 -0.0561 -1.1166
  929MOL0     H22614   9.402  11.366   9.127 -0.0300  0.5450 -0.5912
  929MOL0     H22615   9.650  11.384   9.034 -1.7008 -0.0968 -2.9726
  929MOL0     H22616  10.110  10.953   9.079 -0.1130 -0.7541  0.6363
  929MOL0     H22617  10.358  10.984   8.977  0.7713 -0.8860 -1.8704
  929MOL0     H22618  10.597  11.158   8.952  0.1477  0.8738 -1.7528
  929MOL0     H22619  10.466  11.240   9.048 -0.1864  3.4023  0.2841
  929MOL0     H22620  10.521  11.445   8.968 -1.8356 -2.8583  2.1498
  929MOL0     H22621  10.685  11.382   8.963 -1.6420  1.9350  2.4693
  929MOL0     H22622  10.488  11.402   8.721  0.9020  0.7864 -3.0715
  929MOL0     H22623  10.645  11.323   8.718  1.9405  1.7287  0.6989
  929MOL0     H22624  10.603  11.611   8.796 -3.5479 -2.1342  0.4327
  929MOL0     H22625  10.756  11.523   8.755 -0.5327  1.2022  3.0107
  929MOL0     H22626  10.596  11.572   8.369  0.6069 -0.9763  0.0812
  929MOL0     H22627  10.216  11.341   8.772  0.1531  2.8495  2.0205
  929MOL0     H22628   9.992  11.305   8.886 -0.0649  1.2570  2.1995
  930MOL0     O22629   4.416   2.514   4.081 -1.2254  0.1279  0.0246
  930MOL0     C22630   4.480   2.411   4.077 -0.8071 -0.0066 -0.1141
  930MOL0     O22631   4.441   2.284   4.104  0.4102  0.1016  0.2545
  930MOL0     C22632   4.328   2.268   4.183 -0.3637  0.2168 -0.0358
  930MOL0     C22633   4.337   2.250   4.318  0.4312  0.8666 -0.2635
  930MOL0     C22634   4.220   2.232   4.388 -0.0903  0.5544  0.4441
  930MOL0     C22635   4.091   2.249   4.329  0.6971 -0.1313  0.8506
  930MOL0     O22636   3.987   2.239   4.402 -0.0607  0.1654 -0.1569
  930MOL0     C22637   3.850   2.297   4.361 -0.9224 -0.2817 -0.3772
  930MOL0     C22638   3.755   2.235   4.456 -0.5596 -0.4654  0.4265
  930MOL0     C22639   3.785   2.279   4.598 -0.0409  0.0863  1.3096
  930MOL0     C22640   3.678   2.233   4.692  0.6871  0.3953  0.0531
  930MOL0     C22641   3.695   2.285   4.841  0.8266  0.2148 -0.1707
  930MOL0     C22642   3.567   2.341   4.890  0.4450  0.4936  0.0402
  930MOL0     C22643   3.457   2.233   4.918  0.1616 -0.2128 -0.3476
  930MOL0     C22644   3.350   2.286   5.015  0.0637  0.0731 -0.0429
  930MOL0     N22645   3.282   2.406   4.967 -0.0446 -0.2156  0.0322
  930MOL0     C22646   3.255   2.514   5.039  0.0040  0.1194 -0.5268
  930MOL0     C22647   3.228   2.612   4.940 -0.1564  0.3443 -0.6484
  930MOL0     C22648   3.202   2.751   4.982 -0.1119  0.3279 -0.1213
  930MOL0     C22649   3.065   2.771   5.041  0.9423 -0.0733  0.5663
  930MOL0     C22650   2.948   2.751   4.942 -0.5680 -0.0877 -0.2651
  930MOL0     C22651   2.816   2.720   5.014  0.9882  0.6654 -0.5144
  930MOL0     O22652   2.786   2.574   5.016 -0.2333  0.2533  0.2350
  930MOL0     C22653   2.678   2.529   5.085  1.0010  0.8505 -0.9444
  930MOL0     C22654   2.567   2.616   5.113  0.1457 -0.7938  0.2067
  930MOL0     C22655   2.443   2.560   5.159 -0.4233 -0.3310  0.9153
  930MOL0     C22656   2.432   2.424   5.187 -0.1315  0.2277  0.2378
  930MOL0     C22657   2.307   2.372   5.245 -0.2071 -0.5863 -0.5823
  930MOL0     O22658   2.197   2.447   5.219 -0.5735  0.2425  0.0995
  930MOL0     C22659   2.087   2.413   5.306 -0.5487 -0.3316  0.0211
  930MOL0     C22660   2.068   2.489   5.422  0.2273  0.4036  0.4137
  930MOL0     C22661   1.968   2.450   5.522 -0.9577  0.5264 -0.6364
  930MOL0     C22662   1.888   2.345   5.501  0.6735 -0.5214  0.3148
  930MOL0     O22663   1.791   2.301   5.588 -0.0733  0.5941 -0.7587
  930MOL0     C22664   1.768   2.358   5.719 -0.2403 -0.0746 -0.0320
  930MOL0     C22665   1.667   2.281   5.813  0.1820  0.0554 -0.2169
  930MOL0     C22666   1.644   2.369   5.941 -0.0707  0.4299  0.0296
  930MOL0     C22667   1.557   2.301   6.053 -0.1291  1.0738 -0.3633
  930MOL0     C22668   1.544   2.382   6.188  0.3016 -0.1407  0.0074
  930MOL0     C22669   1.671   2.448   6.240  0.3201  0.5580 -0.2697
  930MOL0     C22670   1.771   2.347   6.273  0.2284 -0.0191  0.0194
  930MOL0     C22671   1.875   2.404   6.368  0.8228  0.9565 -0.5924
  930MOL0    Cl22672   1.947   2.550   6.306 -0.0135  0.2199  0.0738
  930MOL0     C22673   1.896   2.279   5.370 -0.4902 -0.1820 -0.9923
  930MOL0     C22674   1.991   2.308   5.274  0.1270 -0.1503 -1.0047
  930MOL0     O22675   2.316   2.275   5.325  0.0375 -0.0172 -0.3344
  930MOL0     C22676   2.544   2.337   5.166  0.3448  0.1123 -0.4766
  930MOL0     C22677   2.663   2.390   5.119 -0.4204  0.8516 -0.0556
  930MOL0     N22678   3.232   2.550   4.815 -0.6484  0.9574 -0.1403
  930MOL0     N22679   3.257   2.429   4.838 -0.4789  0.0730 -0.2423
  930MOL0     C22680   4.084   2.262   4.194 -0.7529 -0.2431  0.8661
  930MOL0     C22681   4.199   2.276   4.119 -0.2739 -0.4251  0.1035
  930MOL0     C22682   4.625   2.437   4.049 -0.0695 -0.6748  0.0881
  930MOL0     C22683   4.686   2.567   4.043  1.2491  0.1946 -0.2058
  930MOL0     C22684   4.822   2.585   4.020  0.2651  0.3364 -0.0250
  930MOL0     C22685   4.909   2.471   4.004  0.5115 -0.6921  0.2207
  930MOL0     O22686   5.044   2.490   3.980 -0.0077 -0.8394 -0.3323
  930MOL0     C22687   5.133   2.510   4.101 -0.7026  0.2408  0.0706
  930MOL0     C22688   5.160   2.383   4.189  0.1116  0.4540 -0.4608
  930MOL0     C22689   5.240   2.271   4.106  0.8323 -0.1710  0.3256
  930MOL0     C22690   5.276   2.153   4.204 -0.0189 -0.2876  0.6074
  930MOL0     C22691   5.377   2.202   4.300  0.1311 -0.0537 -0.2920
  930MOL0     C22692   5.450   2.254   4.388  0.0382 -0.4301  1.5489
  930MOL0     C22693   4.856   2.345   4.009  0.0260  0.5807  0.6392
  930MOL0     C22694   4.716   2.333   4.022 -1.2854 -0.0194 -0.1577
  930MOL0     H22695   4.438   2.242   4.357  0.7478 -1.2274 -1.3661
  930MOL0     H22696   4.218   2.211   4.495 -1.6456  1.4436  0.6148
  930MOL0     H22697   3.825   2.284   4.256  1.7148  1.9223 -1.3889
  930MOL0     H22698   3.841   2.404   4.380 -1.4926 -0.5690  1.1456
  930MOL0     H22699   3.771   2.126   4.450  2.8853 -0.1941  2.1498
  930MOL0     H22700   3.657   2.270   4.424 -0.7944 -0.0264  1.5832
  930MOL0     H22701   3.801   2.387   4.609 -0.7566  0.1704  1.5376
  930MOL0     H22702   3.883   2.238   4.623  0.0070 -2.5340 -2.3196
  930MOL0     H22703   3.584   2.273   4.652  0.8050 -0.7334 -1.4346
  930MOL0     H22704   3.663   2.126   4.703 -0.5761  0.7526  2.4627
  930MOL0     H22705   3.765   2.369   4.839 -0.2120  1.3343  3.1085
  930MOL0     H22706   3.742   2.212   4.907  1.7991  1.1679  0.2281
  930MOL0     H22707   3.520   2.412   4.821  0.1660  0.9207  0.6582
  930MOL0     H22708   3.588   2.390   4.985 -2.2295  2.2197 -0.1417
  930MOL0     H22709   3.406   2.193   4.830  0.5999  0.6677 -1.0054
  930MOL0     H22710   3.498   2.149   4.976 -1.1922 -1.1518 -0.6996
  930MOL0     H22711   3.391   2.300   5.116  0.1294  1.8129 -0.2780
  930MOL0     H22712   3.280   2.203   5.028 -0.6541  0.8740  1.6442
  930MOL0     H22713   3.251   2.529   5.146 -0.6912  0.7620 -0.6306
  930MOL0     H22714   3.210   2.819   4.896  5.2339 -0.7592 -0.8406
  930MOL0     H22715   3.271   2.790   5.057 -1.6250  2.7285  0.1384
  930MOL0     H22716   3.060   2.878   5.066 -2.0415  1.2562 -4.3561
  930MOL0     H22717   3.059   2.702   5.126  1.1624 -0.0995  0.5608
  930MOL0     H22718   2.947   2.849   4.895  1.0216 -0.8868 -2.1179
  930MOL0     H22719   2.964   2.673   4.867 -2.6317 -1.1910  0.3526
  930MOL0     H22720   2.741   2.772   4.954  0.4183 -0.2535 -0.6172
  930MOL0     H22721   2.817   2.748   5.120  0.6434 -3.4530  0.7564
  930MOL0     H22722   2.570   2.723   5.097  2.1001 -1.0816 -2.0019
  930MOL0     H22723   2.356   2.624   5.173 -1.0118 -0.7011 -0.8511
  930MOL0     H22724   2.132   2.574   5.444 -1.1872  0.7793  3.5295
  930MOL0     H22725   1.970   2.502   5.617  1.8979 -1.2954  0.4379
  930MOL0     H22726   1.725   2.459   5.715  1.0542  0.4742 -0.6664
  930MOL0     H22727   1.864   2.371   5.769 -0.4368 -3.1282  1.3510
  930MOL0     H22728   1.701   2.183   5.848  0.6357 -0.0022 -0.7807
  930MOL0     H22729   1.574   2.253   5.763 -1.5682 -1.6015  3.5821
  930MOL0     H22730   1.586   2.452   5.900 -0.9465 -0.0686  0.2330
  930MOL0     H22731   1.736   2.413   5.981 -1.2076  1.7968  1.2874
  930MOL0     H22732   1.456   2.272   6.025 -0.8227  2.4205  0.6613
  930MOL0     H22733   1.607   2.207   6.078  0.2281 -0.3964 -5.4458
  930MOL0     H22734   1.497   2.311   6.256 -1.6631  0.9722 -0.1453
  930MOL0     H22735   1.474   2.464   6.173  0.5554 -0.3013 -2.4549
  930MOL0     H22736   1.642   2.505   6.329 -0.0390  1.7001 -1.0962
  930MOL0     H22737   1.713   2.530   6.180  1.4375  0.4437  0.3224
  930MOL0     H22738   1.721   2.258   6.312  1.7545 -1.6729 -1.5755
  930MOL0     H22739   1.810   2.320   6.174 -2.1223 -0.6143 -0.8153
  930MOL0     H22740   1.954   2.334   6.395 -0.9475 -1.8742 -2.3341
  930MOL0     H22741   1.827   2.425   6.464  1.3037 -3.1462  0.7467
  930MOL0     H22742   1.822   2.202   5.352  0.5931 -1.2948 -0.8478
  930MOL0     H22743   1.990   2.256   5.179 -0.1743 -1.0659 -0.5171
  930MOL0     H22744   2.538   2.229   5.176 -1.3271  0.0621 -1.6199
  930MOL0     H22745   2.736   2.319   5.083 -2.2883 -0.5299 -1.2986
  930MOL0     H22746   3.991   2.271   4.138 -0.8686 -0.1333  1.0734
  930MOL0     H22747   4.174   2.294   4.014  1.4438  1.1177 -0.0972
  930MOL0     H22748   4.605   2.640   4.045  2.3386  1.4242 -0.0699
  930MOL0     H22749   4.869   2.680   3.998 -0.6978  1.1017  1.0583
  930MOL0     H22750   5.090   2.593   4.158 -1.5668 -1.1197  1.4688
  930MOL0     H22751   5.233   2.534   4.065 -0.2407 -1.6858 -0.0078
  930MOL0     H22752   5.211   2.420   4.279  0.1951 -1.1419  0.1679
  930MOL0     H22753   5.062   2.343   4.217 -0.0212  1.5553  0.7491
  930MOL0     H22754   5.331   2.322   4.074  2.2037 -0.6087  3.1556
  930MOL0     H22755   5.178   2.238   4.022  1.0791 -2.3664  0.9426
  930MOL0     H22756   5.185   2.114   4.252  0.5053  1.0129  2.8249
  930MOL0     H22757   5.311   2.072   4.140  0.9996 -1.3576  2.4221
  930MOL0     H22758   5.527   2.291   4.453  1.8692  0.4452 -0.9249
  930MOL0     H22759   4.925   2.263   3.988 -1.9718 -0.7545 -1.1820
  930MOL0     H22760   4.681   2.231   4.032 -0.9171 -0.1318 -0.0209
  931MOL0     O22761   1.175  10.032   7.381 -0.0959  0.0848 -0.3395
  931MOL0     C22762   1.235   9.924   7.408 -0.0113 -0.0669 -0.3753
  931MOL0     O22763   1.186   9.796   7.396 -0.1012  0.6505 -1.0318
  931MOL0     C22764   1.054   9.784   7.362  0.1362 -1.2867 -0.2644
  931MOL0     C22765   0.956   9.810   7.459 -1.4192 -0.0245  0.1808
  931MOL0     C22766   0.822   9.810   7.423 -0.0938  0.1252 -0.5508
  931MOL0     C22767   0.780   9.778   7.293 -0.0467  0.5233 -0.2575
  931MOL0     O22768   0.652   9.751   7.256 -0.8367 -0.2092 -0.6801
  931MOL0     C22769   0.544   9.821   7.315 -0.0431  0.6247 -0.3097
  931MOL0     C22770   0.405   9.777   7.255  0.6361  0.1647 -0.3678
  931MOL0     C22771   0.388   9.845   7.125 -0.8320  0.5005 -0.0227
  931MOL0     C22772   0.278   9.788   7.043 -0.3934  0.1825 -0.2663
  931MOL0     C22773   0.256   9.865   6.920 -0.5544  0.1313 -0.0832
  931MOL0     C22774   0.131   9.811   6.850 -0.4784  0.5426 -0.2412
  931MOL0     C22775   0.115   9.883   6.714 -1.0802 -1.0043  0.2570
  931MOL0     C22776   0.035   9.807   6.608  0.5023  0.2332  0.0192
  931MOL0     N22777  -0.106   9.788   6.648 -0.8226 -0.0792  0.3488
  931MOL0     C22778  -0.207   9.879   6.654 -0.6145 -0.0320 -1.1234
  931MOL0     C22779  -0.312   9.817   6.709 -0.3768  0.0757 -0.2312
  931MOL0     C22780  -0.427   9.886   6.760 -0.1821  0.2271 -0.7007
  931MOL0     C22781  -0.547   9.794   6.759  0.5964 -0.2111 -0.6218
  931MOL0     C22782  -0.673   9.875   6.805  0.5916  0.0550 -0.6843
  931MOL0     C22783  -0.783   9.775   6.829  0.2017  0.6638 -0.7156
  931MOL0     O22784  -0.905   9.834   6.869  0.6677 -0.1372 -0.1229
  931MOL0     C22785  -1.016   9.746   6.881 -0.0787  0.5568  0.1473
  931MOL0     C22786  -1.133   9.807   6.922 -0.4929 -0.1999  0.0158
  931MOL0     C22787  -1.249   9.737   6.942  0.5037  0.0797  0.0791
  931MOL0     C22788  -1.257   9.599   6.914  0.1171 -0.1525  0.1523
  931MOL0     C22789  -1.378   9.517   6.920 -1.2802  0.1026  0.4856
  931MOL0     O22790  -1.480   9.564   6.994 -0.2730 -0.2873 -0.6550
  931MOL0     C22791  -1.598   9.491   6.984  0.1363  0.1023 -0.7492
  931MOL0     C22792  -1.664   9.489   6.862 -0.3817 -0.8936  0.4452
  931MOL0     C22793  -1.773   9.400   6.838 -0.2931  0.6837  0.3125
  931MOL0     C22794  -1.835   9.331   6.942  0.2824 -0.1243 -0.7885
  931MOL0     O22795  -1.938   9.255   6.914  0.2415  0.0966  0.2312
  931MOL0     C22796  -2.046   9.306   6.993  0.8405  0.0426  0.0181
  931MOL0     C22797  -2.170   9.276   6.919 -0.1311  0.0411  0.2722
  931MOL0     C22798  -2.299   9.312   7.002 -1.8775 -0.8580 -0.3235
  931MOL0     C22799  -2.434   9.255   6.950 -0.1463  0.6105 -0.4565
  931MOL0     C22800  -2.525   9.215   7.063  1.2665 -0.4093 -0.1504
  931MOL0     C22801  -2.667   9.174   7.013  0.3448  1.1508  0.1128
  931MOL0     C22802  -2.701   9.067   6.904  0.2976 -0.5308  0.2401
  931MOL0     C22803  -2.607   8.947   6.909  0.4212 -0.0344 -0.5342
  931MOL0    Cl22804  -2.692   8.813   6.990 -0.1925  0.0870 -0.2249
  931MOL0     C22805  -1.770   9.346   7.077  0.9354 -0.1546  0.6355
  931MOL0     C22806  -1.655   9.419   7.089  0.3942  0.5263 -0.1093
  931MOL0     O22807  -1.380   9.411   6.854  0.0376 -0.3894  0.2221
  931MOL0     C22808  -1.141   9.537   6.869 -0.4654  0.7282  0.2762
  931MOL0     C22809  -1.023   9.607   6.850 -0.2031 -0.3797  0.1086
  931MOL0     N22810  -0.276   9.690   6.757  0.6322 -0.4803  0.0351
  931MOL0     N22811  -0.151   9.677   6.713 -0.0463 -0.0859 -0.1905
  931MOL0     C22812   0.875   9.756   7.197 -0.7833 -0.0390 -1.5781
  931MOL0     C22813   1.014   9.763   7.230  0.6692 -0.7046 -0.0852
  931MOL0     C22814   1.365   9.936   7.473  1.0244 -0.5006  0.0875
  931MOL0     C22815   1.443   9.821   7.518  0.6825 -0.5263  0.6123
  931MOL0     C22816   1.573   9.849   7.562  0.9262 -0.2874  0.0557
  931MOL0     C22817   1.620   9.976   7.585  0.1643 -0.4279  0.0192
  931MOL0     O22818   1.754   9.983   7.632  0.1605 -0.2412 -0.3715
  931MOL0     C22819   1.838  10.099   7.628 -0.0647  0.2255  0.2506
  931MOL0     C22820   1.911  10.096   7.491 -0.2022 -0.3834  0.0128
  931MOL0     C22821   1.981  10.225   7.471 -0.7717 -0.5880 -1.1515
  931MOL0     C22822   2.085  10.226   7.360 -0.3423  0.5166  0.4390
  931MOL0     C22823   2.027  10.215   7.226  0.5135 -0.8041  0.0426
  931MOL0     C22824   1.970  10.220   7.120 -0.9737  0.1951 -0.3825
  931MOL0     C22825   1.543  10.082   7.540  0.3464 -0.7532  0.0318
  931MOL0     C22826   1.418  10.064   7.487 -0.2205  0.9291  1.1770
  931MOL0     H22827   0.980   9.828   7.563  0.2233 -1.0043  0.0164
  931MOL0     H22828   0.747   9.838   7.497 -0.1481 -0.8788 -0.2065
  931MOL0     H22829   0.560   9.928   7.308 -1.1659  0.6890 -2.9300
  931MOL0     H22830   0.540   9.788   7.420  3.2526 -0.7625 -0.5025
  931MOL0     H22831   0.324   9.803   7.324  1.5909  2.3743  0.0134
  931MOL0     H22832   0.416   9.670   7.239  1.9825  0.4729 -1.6701
  931MOL0     H22833   0.478   9.849   7.062 -1.4386  3.0311 -0.8401
  931MOL0     H22834   0.369   9.947   7.160  0.2409  0.3640  1.0360
  931MOL0     H22835   0.313   9.688   7.013 -2.9577 -1.1246  0.8227
  931MOL0     H22836   0.189   9.765   7.100 -2.0937  2.4884 -1.7862
  931MOL0     H22837   0.344   9.856   6.855 -1.1470 -1.4731 -0.7167
  931MOL0     H22838   0.257   9.972   6.940 -0.3703  0.2509 -0.6979
  931MOL0     H22839   0.036   9.825   6.903 -0.6420 -1.4278  0.0611
  931MOL0     H22840   0.149   9.704   6.835  5.3535  1.5661 -3.8645
  931MOL0     H22841   0.071   9.982   6.732  1.5546  0.1893  0.6095
  931MOL0     H22842   0.213   9.909   6.675 -1.4010  2.7443  1.4624
  931MOL0     H22843   0.074   9.704   6.603 -0.9829 -0.5446  2.6053
  931MOL0     H22844   0.037   9.864   6.515  1.9449  1.1429  0.5710
  931MOL0     H22845  -0.207   9.985   6.631 -2.6111  0.1496 -0.4658
  931MOL0     H22846  -0.423   9.973   6.694  3.2535  0.1561 -0.7632
  931MOL0     H22847  -0.411   9.919   6.863  1.9799 -1.6614 -0.3595
  931MOL0     H22848  -0.540   9.714   6.834  2.4359 -0.9695 -1.5600
  931MOL0     H22849  -0.589   9.748   6.669 -2.7004 -1.2321  1.2450
  931MOL0     H22850  -0.660   9.928   6.900 -2.4680 -3.1342  1.8179
  931MOL0     H22851  -0.704   9.953   6.735 -1.9351 -0.8753 -0.7112
  931MOL0     H22852  -0.753   9.700   6.903  1.2241  0.8865 -0.8933
  931MOL0     H22853  -0.802   9.724   6.734  0.6507  0.0619 -0.4852
  931MOL0     H22854  -1.134   9.909   6.960  1.0317  1.0668 -3.0314
  931MOL0     H22855  -1.331   9.790   6.990 -0.4862 -1.1710 -0.1719
  931MOL0     H22856  -1.624   9.563   6.793 -1.4336 -0.7197  0.0008
  931MOL0     H22857  -1.812   9.402   6.737  2.3416 -3.5463 -1.0687
  931MOL0     H22858  -2.036   9.415   7.001  0.4786  0.5420 -3.9912
  931MOL0     H22859  -2.056   9.248   7.085 -0.4566 -0.7689 -0.6055
  931MOL0     H22860  -2.177   9.169   6.898  1.4817  0.1717 -1.2102
  931MOL0     H22861  -2.166   9.332   6.825  2.1443 -0.2316  0.1484
  931MOL0     H22862  -2.307   9.421   6.995  0.4592 -0.6616 -0.4172
  931MOL0     H22863  -2.277   9.281   7.104  0.1340  2.0613  0.2388
  931MOL0     H22864  -2.478   9.326   6.879  2.5846  1.3669 -1.5458
  931MOL0     H22865  -2.422   9.162   6.894 -1.1758  0.9618 -1.3138
  931MOL0     H22866  -2.537   9.295   7.136  0.8013  1.7819 -2.4515
  931MOL0     H22867  -2.484   9.134   7.124  2.2711  0.8438  0.8857
  931MOL0     H22868  -2.712   9.268   6.979  2.0102  1.4542 -1.3910
  931MOL0     H22869  -2.724   9.134   7.097  0.9059 -2.0628 -0.8916
  931MOL0     H22870  -2.806   9.035   6.912 -0.4098  1.6597  0.6265
  931MOL0     H22871  -2.687   9.125   6.812  1.0374 -0.3706  0.4458
  931MOL0     H22872  -2.516   8.960   6.968 -0.1582  0.9111  0.1687
  931MOL0     H22873  -2.581   8.922   6.806  0.9006  1.6156 -0.8401
  931MOL0     H22874  -1.792   9.271   7.153 -0.7872  1.5953  1.9455
  931MOL0     H22875  -1.610   9.421   7.188 -0.1094 -1.6010  0.2048
  931MOL0     H22876  -1.138   9.433   6.837 -1.1322  1.1731 -1.3758
  931MOL0     H22877  -0.922   9.569   6.842  1.3785  2.7178  2.8639
  931MOL0     H22878   0.842   9.733   7.096 -0.9619  0.6450 -1.6780
  931MOL0     H22879   1.090   9.741   7.156 -0.7452  0.5098 -1.9905
  931MOL0     H22880   1.419   9.715   7.513  0.1773 -0.3770 -0.0966
  931MOL0     H22881   1.640   9.768   7.592  0.4193 -0.6899  0.1101
  931MOL0     H22882   1.909  10.094   7.711  0.3708  2.3445  0.0499
  931MOL0     H22883   1.773  10.184   7.647 -2.1621 -0.3897 -3.3683
  931MOL0     H22884   1.984  10.015   7.480  3.0995  2.2067  1.3163
  931MOL0     H22885   1.843  10.092   7.405  0.6061 -0.5052 -0.6336
  931MOL0     H22886   2.030  10.248   7.566  0.4486 -1.8815 -1.4323
  931MOL0     H22887   1.914  10.306   7.440 -0.2200  0.0027 -0.8412
  931MOL0     H22888   2.142  10.319   7.367 -0.8200  0.7788  0.9027
  931MOL0     H22889   2.161  10.148   7.374  0.1547  0.5587 -1.6898
  931MOL0     H22890   1.925  10.244   7.026  1.4645  2.1298 -1.1950
  931MOL0     H22891   1.570  10.185   7.559  1.7894 -1.5497  2.8906
  931MOL0     H22892   1.373  10.152   7.441  4.2451  3.3927  0.9487
  932MOL0     O22893   2.078   9.307  10.710 -0.6034  0.2488  0.2287
  932MOL0     C22894   2.098   9.424  10.679  0.3542 -0.5387  0.1212
  932MOL0     O22895   2.005   9.521  10.664  0.2371  0.9893 -0.2768
  932MOL0     C22896   1.879   9.483  10.700 -0.8586 -0.5993  0.9400
  932MOL0     C22897   1.784   9.486  10.603 -0.5414  0.6428 -0.1424
  932MOL0     C22898   1.653   9.443  10.624 -0.4927 -0.2692  0.3601
  932MOL0     C22899   1.609   9.417  10.749  0.0709 -0.2571 -0.5581
  932MOL0     O22900   1.478   9.392  10.770  0.0523  0.3531 -0.3409
  932MOL0     C22901   1.420   9.397  10.899  0.5817 -0.5942 -0.5267
  932MOL0     C22902   1.277   9.346  10.897 -0.3096 -0.7005 -1.0582
  932MOL0     C22903   1.215   9.323  11.044 -1.2018  0.1090 -0.0031
  932MOL0     C22904   1.118   9.207  11.048 -0.4921  0.7786 -0.1052
  932MOL0     C22905   1.000   9.233  11.144 -0.2982  0.2052 -0.2428
  932MOL0     C22906   0.904   9.112  11.137 -0.0779  0.0883 -0.7863
  932MOL0     C22907   0.772   9.134  11.214 -0.1556 -0.0417  0.2822
  932MOL0     C22908   0.788   9.132  11.367 -0.8246  0.5218  0.1616
  932MOL0     N22909   0.686   9.209  11.432  0.8129 -0.2493  0.3675
  932MOL0     C22910   0.626   9.182  11.549 -0.0365  0.4132 -1.4690
  932MOL0     C22911   0.584   9.300  11.600  0.4508  0.8513 -0.3475
  932MOL0     C22912   0.523   9.317  11.738  0.4620 -0.3770  0.5242
  932MOL0     C22913   0.607   9.302  11.858  0.3134  0.2196  1.3520
  932MOL0     C22914   0.532   9.348  11.986 -0.8997 -0.0473  0.8242
  932MOL0     C22915   0.530   9.502  12.015  0.5750 -0.1597 -0.0088
  932MOL0     O22916   0.487   9.514  12.150 -0.0626 -0.2514 -0.2138
  932MOL0     C22917   0.355   9.489  12.184  0.1467 -0.2194 -0.0957
  932MOL0     C22918   0.332   9.473  12.324 -0.1353  0.0531  0.2246
  932MOL0     C22919   0.212   9.439  12.374 -0.1724  1.0596  0.4808
  932MOL0     C22920   0.101   9.436  12.294 -0.1542  0.1745  0.1310
  932MOL0     C22921  -0.028   9.426  12.361 -0.4013  1.0983  0.0987
  932MOL0     O22922  -0.129   9.357  12.294  0.2859 -0.2264  0.1668
  932MOL0     C22923  -0.252   9.341  12.351  0.8092  0.0381  0.3978
  932MOL0     C22924  -0.314   9.216  12.372 -0.4770  0.3419 -0.4885
  932MOL0     C22925  -0.450   9.215  12.422 -0.0676 -0.0495 -0.5281
  932MOL0     C22926  -0.513   9.333  12.463  0.4929  0.0824  0.8263
  932MOL0     O22927  -0.639   9.334  12.531  0.5315 -0.0706 -0.2463
  932MOL0     C22928  -0.655   9.224  12.625 -0.0831  0.4499  0.2309
  932MOL0     C22929  -0.721   9.261  12.759 -0.1881  0.1924 -0.8222
  932MOL0     C22930  -0.870   9.294  12.750  0.6064 -1.2418  1.0581
  932MOL0     C22931  -0.946   9.314  12.883  0.8213  0.1133  0.1902
  932MOL0     C22932  -1.091   9.365  12.852  0.3838 -0.6151 -0.0563
  932MOL0     C22933  -1.093   9.511  12.809 -1.2927  0.1204  0.8839
  932MOL0     C22934  -1.221   9.587  12.848 -0.4191 -0.0161 -0.0649
  932MOL0     C22935  -1.295   9.648  12.732 -0.3572 -0.0765 -0.0193
  932MOL0    Cl22936  -1.181   9.761  12.640 -0.1064 -0.5675  0.3584
  932MOL0     C22937  -0.443   9.457  12.458  1.6262  1.2896  0.6879
  932MOL0     C22938  -0.326   9.454  12.384  0.6099  0.2527  0.6200
  932MOL0     O22939  -0.041   9.481  12.469  0.1810 -0.2541  0.2269
  932MOL0     C22940   0.119   9.445  12.155  0.3670 -0.8987 -0.8420
  932MOL0     C22941   0.242   9.483  12.106 -0.0125 -0.0771  0.0732
  932MOL0     N22942   0.613   9.396  11.511 -0.3798  0.4697  0.1096
  932MOL0     N22943   0.682   9.341  11.416  0.4040  0.2754  0.0244
  932MOL0     C22944   1.708   9.406  10.856  0.3417  0.9644 -0.4416
  932MOL0     C22945   1.841   9.437  10.822 -0.1326 -0.5847 -0.4514
  932MOL0     C22946   2.233   9.460  10.632 -0.3043 -0.7999 -0.6323
  932MOL0     C22947   2.255   9.602  10.605  0.0441  0.4350 -0.6926
  932MOL0     C22948   2.375   9.643  10.556 -0.4961 -1.2768  0.5918
  932MOL0     C22949   2.482   9.555  10.532 -0.7166 -0.9690 -0.4773
  932MOL0     O22950   2.611   9.595  10.490  0.1597  0.6345 -0.5750
  932MOL0     C22951   2.626   9.704  10.407  0.0072  0.8862  0.2461
  932MOL0     C22952   2.763   9.762  10.440  0.1991  0.3304  0.1205
  932MOL0     C22953   2.883   9.661  10.446  0.2887 -1.5400  0.1456
  932MOL0     C22954   3.005   9.745  10.485 -0.1998  0.5389 -0.0254
  932MOL0     C22955   3.112   9.644  10.512  0.5557 -0.6151 -0.5824
  932MOL0     C22956   3.195   9.555  10.528  0.3382 -0.4285  0.8834
  932MOL0     C22957   2.467   9.421  10.568 -0.3990  0.3566  0.8119
  932MOL0     C22958   2.350   9.372  10.612 -0.7489 -0.8681  0.7520
  932MOL0     H22959   1.819   9.514  10.504 -0.8030 -0.6788 -0.6312
  932MOL0     H22960   1.579   9.452  10.546  0.1971  2.6944 -0.1002
  932MOL0     H22961   1.418   9.502  10.932  1.4333 -1.3241  2.0613
  932MOL0     H22962   1.474   9.339  10.974  1.3152  0.1692 -0.4350
  932MOL0     H22963   1.277   9.248  10.850  2.9819 -1.2891 -0.1204
  932MOL0     H22964   1.211   9.393  10.824  1.8676  0.9881 -2.0520
  932MOL0     H22965   1.168   9.415  11.080 -0.6727  1.2332 -2.0134
  932MOL0     H22966   1.295   9.297  11.115 -1.0219 -1.6319 -0.7994
  932MOL0     H22967   1.088   9.181  10.946  0.5647  1.2009 -0.5356
  932MOL0     H22968   1.171   9.117  11.081  1.5629  2.3377  1.0990
  932MOL0     H22969   0.952   9.329  11.122 -3.5479 -1.4043 -0.7910
  932MOL0     H22970   1.036   9.258  11.244  0.3806  2.7563 -1.0482
  932MOL0     H22971   0.959   9.022  11.164  1.1901  0.6904 -1.2960
  932MOL0     H22972   0.876   9.114  11.031 -2.9659  0.5380 -0.0973
  932MOL0     H22973   0.746   9.236  11.185  1.6645  0.1462 -0.8487
  932MOL0     H22974   0.698   9.062  11.176 -1.1844  0.5285  1.1589
  932MOL0     H22975   0.881   9.183  11.394  0.1689 -1.1092 -0.0460
  932MOL0     H22976   0.791   9.027  11.398  1.8069  0.2139 -0.8568
  932MOL0     H22977   0.631   9.096  11.615  0.5698  0.6177 -1.2357
  932MOL0     H22978   0.437   9.253  11.761 -0.0750  0.1590  0.0559
  932MOL0     H22979   0.479   9.417  11.743 -2.4076 -1.4131 -1.0499
  932MOL0     H22980   0.697   9.362  11.842 -1.5268  2.1370 -4.2890
  932MOL0     H22981   0.645   9.200  11.868  3.0002  1.0264  0.3791
  932MOL0     H22982   0.431   9.306  11.981 -0.1568 -1.9859 -4.4962
  932MOL0     H22983   0.589   9.310  12.071 -0.0790  2.9794  1.7463
  932MOL0     H22984   0.459   9.560  11.955  0.0138 -1.3919 -0.5596
  932MOL0     H22985   0.627   9.549  11.994  0.9410 -0.4079  1.0654
  932MOL0     H22986   0.413   9.479  12.397 -0.7502 -3.0360  1.2897
  932MOL0     H22987   0.198   9.415  12.479  0.5021  4.0615  1.3512
  932MOL0     H22988  -0.260   9.122  12.365 -0.0450  0.6852 -1.8878
  932MOL0     H22989  -0.493   9.118  12.444  0.7035  0.0596  1.8033
  932MOL0     H22990  -0.557   9.188  12.657 -0.0917  1.0082  0.9047
  932MOL0     H22991  -0.718   9.142  12.588 -1.4615  2.0798 -1.2190
  932MOL0     H22992  -0.667   9.350  12.795  1.4578 -1.1426  0.1516
  932MOL0     H22993  -0.713   9.170  12.818  0.4711  0.2122 -0.8705
  932MOL0     H22994  -0.915   9.219  12.685  0.0824 -1.4395  1.6405
  932MOL0     H22995  -0.876   9.388  12.694 -2.2181 -2.5408 -1.0617
  932MOL0     H22996  -0.943   9.220  12.939  3.5579  0.8241  1.3960
  932MOL0     H22997  -0.885   9.385  12.939 -0.7066  1.6109  0.0472
  932MOL0     H22998  -1.142   9.375  12.948 -0.3918  1.1068 -0.5988
  932MOL0     H22999  -1.152   9.295  12.795  1.7476 -2.9123  1.1699
  932MOL0     H23000  -1.070   9.517  12.702 -4.1015 -1.6635  0.0630
  932MOL0     H23001  -1.016   9.560  12.868 -0.9867  0.7214  0.0051
  932MOL0     H23002  -1.296   9.531  12.905 -1.1474 -1.5205 -2.3187
  932MOL0     H23003  -1.181   9.664  12.913 -0.1514 -0.5192  0.3716
  932MOL0     H23004  -1.389   9.696  12.761 -1.1534 -1.4447 -0.2177
  932MOL0     H23005  -1.317   9.559  12.671 -0.1862  0.6162 -1.1161
  932MOL0     H23006  -0.493   9.545  12.497  0.8211  0.2346  2.1127
  932MOL0     H23007  -0.272   9.543  12.354 -0.0066  0.1039 -1.0259
  932MOL0     H23008   0.031   9.448  12.091 -1.1497 -3.5259  0.9028
  932MOL0     H23009   0.253   9.521  12.005  2.9809  1.7505  0.9799
  932MOL0     H23010   1.689   9.364  10.954  0.1339  0.4096 -0.7130
  932MOL0     H23011   1.920   9.409  10.891  1.9645 -1.0611 -2.8867
  932MOL0     H23012   2.171   9.668  10.627 -0.9691 -1.7811  2.8582
  932MOL0     H23013   2.384   9.749  10.534 -1.0624 -1.0219  1.5272
  932MOL0     H23014   2.552   9.784  10.423  0.2343  1.1020  0.2222
  932MOL0     H23015   2.623   9.675  10.301  0.6287 -1.4195  0.8113
  932MOL0     H23016   2.781   9.838  10.363 -1.0035  1.2898  0.7456
  932MOL0     H23017   2.751   9.825  10.528 -1.9807  1.1596 -0.7085
  932MOL0     H23018   2.897   9.618  10.347  0.1900  3.1012 -2.1854
  932MOL0     H23019   2.860   9.578  10.513  1.1815  0.2662  2.8748
  932MOL0     H23020   3.034   9.812  10.403 -2.1416 -0.1472 -1.3403
  932MOL0     H23021   2.987   9.809  10.571  1.0957  0.0396  0.6460
  932MOL0     H23022   3.274   9.484  10.543 -1.0160 -1.9452  1.0920
  932MOL0     H23023   2.548   9.355  10.536 -0.8299  0.7162 -1.1335
  932MOL0     H23024   2.330   9.266  10.625  2.3061 -1.7265 -0.5394
  933MOL0     O23025   3.994   1.012   9.146  0.0902 -0.3399 -0.2197
  933MOL0     C23026   3.964   1.132   9.158  0.1799  0.0478 -0.3025
  933MOL0     O23027   4.052   1.236   9.171 -0.0062 -0.1714  0.3251
  933MOL0     C23028   4.183   1.209   9.126 -0.7985 -0.1821 -1.6048
  933MOL0     C23029   4.234   1.270   9.014  0.0466 -0.4878  1.2506
  933MOL0     C23030   4.374   1.261   8.980 -0.0433  0.4493 -0.2892
  933MOL0     C23031   4.460   1.190   9.067  0.1320 -0.7086 -0.2236
  933MOL0     O23032   4.601   1.175   9.051 -0.2453 -0.9036 -0.0144
  933MOL0     C23033   4.665   1.200   8.927  1.0715  0.3836  0.3766
  933MOL0     C23034   4.801   1.128   8.927  0.4738 -0.3756 -0.0423
  933MOL0     C23035   4.875   1.156   8.791 -0.4818 -0.3187  0.7286
  933MOL0     C23036   5.003   1.067   8.764  0.6519  0.3416 -0.6937
  933MOL0     C23037   4.953   0.918   8.758  0.7055 -0.8212 -0.5987
  933MOL0     C23038   4.847   0.897   8.653  0.4693 -1.1611 -0.4544
  933MOL0     C23039   4.827   0.749   8.626 -0.1287 -0.0919 -0.0823
  933MOL0     C23040   4.749   0.682   8.747 -0.0385 -1.1529  0.9446
  933MOL0     N23041   4.765   0.533   8.735 -0.7046  0.4548  0.3355
  933MOL0     C23042   4.670   0.447   8.700  0.3010 -0.3076 -1.0496
  933MOL0     C23043   4.705   0.320   8.744  1.0903  0.4910  0.3041
  933MOL0     C23044   4.613   0.197   8.749  0.2422  0.4548 -0.2209
  933MOL0     C23045   4.491   0.222   8.649  0.2472  0.3070  0.0484
  933MOL0     C23046   4.402   0.094   8.669 -0.9563 -1.1221  0.4099
  933MOL0     C23047   4.270   0.107   8.600  0.2425 -0.4739  0.2765
  933MOL0     O23048   4.196   0.222   8.639 -0.0856 -0.7389  0.4168
  933MOL0     C23049   4.060   0.235   8.638  0.4433  0.0687 -0.3724
  933MOL0     C23050   4.001   0.354   8.675 -0.1477 -0.6161  0.5559
  933MOL0     C23051   3.874   0.380   8.696  0.1608 -0.3148  0.5009
  933MOL0     C23052   3.784   0.269   8.687 -0.0496  0.1446  0.3098
  933MOL0     C23053   3.649   0.270   8.742 -0.1611 -0.5366  0.4852
  933MOL0     O23054   3.573   0.157   8.726 -0.6747  0.6527 -0.5832
  933MOL0     C23055   3.433   0.167   8.730 -0.3414 -0.0176  0.2240
  933MOL0     C23056   3.358   0.273   8.685 -0.2016 -1.3819  0.1594
  933MOL0     C23057   3.220   0.270   8.678 -0.3129 -0.2687  0.4852
  933MOL0     C23058   3.150   0.169   8.740 -0.0636  0.3776 -0.2299
  933MOL0     O23059   3.012   0.176   8.742 -0.4204 -0.5649 -0.3647
  933MOL0     C23060   2.946   0.086   8.826 -0.5194  0.0466  0.3584
  933MOL0     C23061   2.800   0.094   8.795  0.5312  1.0685  0.4454
  933MOL0     C23062   2.744   0.247   8.807  1.0042  0.0713  0.1273
  933MOL0     C23063   2.585   0.240   8.808 -1.1717 -0.0999 -0.8814
  933MOL0     C23064   2.517   0.185   8.682 -0.4796 -0.2999 -0.1721
  933MOL0     C23065   2.378   0.238   8.644 -0.3991  0.0935 -0.0028
  933MOL0     C23066   2.266   0.186   8.730 -0.3170 -0.4796  0.6077
  933MOL0     C23067   2.136   0.265   8.698 -0.3113 -0.4183 -0.1302
  933MOL0    Cl23068   1.988   0.229   8.789 -0.8044 -0.0469  0.0074
  933MOL0     C23069   3.232   0.060   8.792  0.2729  0.2916  0.5304
  933MOL0     C23070   3.369   0.058   8.784 -0.3819  0.0784  0.5311
  933MOL0     O23071   3.614   0.382   8.787 -1.0429  0.2578  0.1021
  933MOL0     C23072   3.834   0.147   8.654  0.1248  0.9752 -0.7778
  933MOL0     C23073   3.970   0.126   8.624  0.7047  0.4283 -0.1275
  933MOL0     N23074   4.829   0.333   8.794  0.3607  0.1621  0.3283
  933MOL0     N23075   4.866   0.461   8.795  0.3567 -0.7577  0.5963
  933MOL0     C23076   4.406   1.140   9.189 -0.2548  0.8789 -0.1128
  933MOL0     C23077   4.266   1.141   9.215 -0.3569 -0.2118  0.3597
  933MOL0     C23078   3.825   1.172   9.166 -1.2605 -0.5316  0.2110
  933MOL0     C23079   3.715   1.076   9.153  0.1479 -0.8375  0.0684
  933MOL0     C23080   3.579   1.117   9.179  0.8254 -0.0521 -0.7967
  933MOL0     C23081   3.543   1.249   9.188  0.5550  0.4566  0.2423
  933MOL0     O23082   3.404   1.271   9.194 -0.2243  0.6362 -0.3637
  933MOL0     C23083   3.365   1.408   9.219 -0.1743 -0.6064  0.0791
  933MOL0     C23084   3.210   1.399   9.232  0.2860 -0.0679 -1.1109
  933MOL0     C23085   3.155   1.419   9.374 -0.0440  0.3990 -0.0892
  933MOL0     C23086   3.004   1.393   9.394  0.7056  0.0509 -0.1138
  933MOL0     C23087   2.974   1.251   9.367 -0.6074 -0.1156  0.0593
  933MOL0     C23088   2.963   1.141   9.342  0.1844  0.4185 -0.6238
  933MOL0     C23089   3.646   1.344   9.188  0.1144 -0.1563 -0.3815
  933MOL0     C23090   3.782   1.304   9.188  0.8048 -0.7330  1.4119
  933MOL0     H23091   4.159   1.313   8.948  0.5096  0.2525  1.1961
  933MOL0     H23092   4.394   1.299   8.881 -2.0161  2.8825  0.1680
  933MOL0     H23093   4.667   1.308   8.915 -1.5095  0.7448  2.3364
  933MOL0     H23094   4.611   1.148   8.847 -0.6525  3.8760 -0.9448
  933MOL0     H23095   4.784   1.020   8.932  3.3874 -1.0638 -1.9814
  933MOL0     H23096   4.853   1.171   9.013 -3.6721  3.1964  1.0642
  933MOL0     H23097   4.911   1.259   8.796 -1.8497  0.1655  1.2058
  933MOL0     H23098   4.808   1.140   8.706  3.9933 -3.1321 -2.7631
  933MOL0     H23099   5.047   1.102   8.671 -0.6390 -0.0066 -1.4588
  933MOL0     H23100   5.077   1.081   8.844  1.5966 -2.7778 -0.8834
  933MOL0     H23101   4.912   0.892   8.857  2.8144 -1.0613  0.2723
  933MOL0     H23102   5.026   0.840   8.735  2.2385  1.2759 -3.4104
  933MOL0     H23103   4.870   0.949   8.559  0.1235 -0.3628 -0.1023
  933MOL0     H23104   4.753   0.927   8.700 -0.7107 -1.2792 -2.6011
  933MOL0     H23105   4.778   0.730   8.530  1.5230  0.1991 -1.0181
  933MOL0     H23106   4.922   0.697   8.611  0.4232  0.6963  0.6186
  933MOL0     H23107   4.643   0.703   8.734 -0.0160 -2.2518 -1.5183
  933MOL0     H23108   4.794   0.719   8.840 -0.6862  0.5481  0.6199
  933MOL0     H23109   4.581   0.482   8.650 -0.5333  1.0038  1.2115
  933MOL0     H23110   4.571   0.191   8.850  1.2783  4.1745  0.6005
  933MOL0     H23111   4.673   0.112   8.714  1.2206  0.8917  0.3499
  933MOL0     H23112   4.530   0.236   8.548  1.6546  3.5425  0.8998
  933MOL0     H23113   4.440   0.309   8.690 -0.1247 -0.5918  1.5987
  933MOL0     H23114   4.453   0.002   8.637 -3.4667 -1.8632 -1.8293
  933MOL0     H23115   4.383   0.097   8.776  1.5862  3.1061  0.9662
  933MOL0     H23116   4.209   0.017   8.602 -1.8160  0.7940 -1.0353
  933MOL0     H23117   4.290   0.129   8.495  1.2607  3.0063  1.0419
  933MOL0     H23118   4.059   0.445   8.689 -2.8162  1.2633  0.2649
  933MOL0     H23119   3.825   0.474   8.719 -2.6867 -0.8724 -2.4991
  933MOL0     H23120   3.403   0.359   8.636 -1.0279 -1.6114 -1.0339
  933MOL0     H23121   3.176   0.366   8.654  1.1214  0.2815 -0.0366
  933MOL0     H23122   2.959   0.115   8.931 -1.3178 -3.9343  1.7082
  933MOL0     H23123   2.975  -0.019   8.812  0.1586  0.1596  0.8642
  933MOL0     H23124   2.746   0.039   8.873 -2.3166  4.5472  1.2033
  933MOL0     H23125   2.790   0.046   8.698 -1.1976 -3.3658  2.5365
  933MOL0     H23126   2.788   0.305   8.725 -0.8332 -1.9755 -2.4673
  933MOL0     H23127   2.776   0.308   8.892 -2.0154  3.3398 -0.8282
  933MOL0     H23128   2.547   0.179   8.891 -2.9781  0.2479 -1.4094
  933MOL0     H23129   2.557   0.345   8.812  2.1605  1.0111 -2.6263
  933MOL0     H23130   2.515   0.076   8.694  2.2149 -0.5339 -1.1249
  933MOL0     H23131   2.582   0.215   8.599 -3.8161  1.6628 -2.3127
  933MOL0     H23132   2.354   0.211   8.541 -2.7452 -0.6388  0.6575
  933MOL0     H23133   2.371   0.346   8.659 -1.7903  0.1728 -1.0005
  933MOL0     H23134   2.250   0.082   8.699  1.2213 -0.2635 -1.0729
  933MOL0     H23135   2.295   0.199   8.835  0.1940  3.5338  0.1046
  933MOL0     H23136   2.111   0.255   8.592 -2.1150 -0.2111  0.2337
  933MOL0     H23137   2.161   0.370   8.710  2.6652 -1.1538  1.0733
  933MOL0     H23138   3.174  -0.023   8.831 -1.8465  1.2191 -0.4915
  933MOL0     H23139   3.432  -0.027   8.807 -0.8840 -0.3622  0.3002
  933MOL0     H23140   3.775   0.057   8.667  2.5674 -0.4994  0.7028
  933MOL0     H23141   3.986   0.023   8.593 -4.5568 -0.8131  0.3528
  933MOL0     H23142   4.480   1.100   9.256 -0.7201  0.4032  0.1254
  933MOL0     H23143   4.220   1.086   9.297 -2.3635 -3.8824 -2.8899
  933MOL0     H23144   3.733   0.969   9.153  0.7880 -0.7808 -2.0455
  933MOL0     H23145   3.508   1.035   9.173  1.5295 -0.7560  0.0871
  933MOL0     H23146   3.388   1.476   9.136 -0.5615  1.8091  1.8242
  933MOL0     H23147   3.412   1.448   9.309 -0.4602  2.1641 -0.9083
  933MOL0     H23148   3.172   1.484   9.174 -0.3647  0.7404  0.4257
  933MOL0     H23149   3.176   1.301   9.198 -2.1009  0.6268 -0.8951
  933MOL0     H23150   3.173   1.525   9.393  0.1572  0.6612 -1.5695
  933MOL0     H23151   3.216   1.349   9.432 -1.2306 -2.4867 -2.0795
  933MOL0     H23152   2.977   1.432   9.493  1.3984 -1.0016  0.5185
  933MOL0     H23153   2.950   1.440   9.312  0.5230  0.0885  0.0272
  933MOL0     H23154   2.974   1.037   9.320  0.3786  0.4718 -0.7779
  933MOL0     H23155   3.619   1.449   9.195  0.6503  0.1318 -2.0388
  933MOL0     H23156   3.852   1.387   9.190  1.8958 -1.1696 -4.1792
  934MOL0     O23157  11.102   5.707   8.198  0.5950 -0.0886  0.6715
  934MOL0     C23158  11.100   5.714   8.076  0.0634 -0.2596  0.1523
  934MOL0     O23159  10.990   5.703   8.002  0.7008 -0.4656 -0.2181
  934MOL0     C23160  10.872   5.675   8.061  0.4756 -0.3969 -0.0578
  934MOL0     C23161  10.826   5.545   8.062  0.6468 -0.7806 -0.1620
  934MOL0     C23162  10.693   5.514   8.107  0.2785 -0.4534  0.0276
  934MOL0     C23163  10.611   5.609   8.160  0.6198  0.5706 -0.8661
  934MOL0     O23164  10.489   5.577   8.218 -0.2483  0.7997  0.4793
  934MOL0     C23165  10.412   5.478   8.155  0.4797  0.1147 -0.0991
  934MOL0     C23166  10.364   5.495   8.016  0.0746  0.3359  0.7190
  934MOL0     C23167  10.251   5.604   8.019  0.4410  0.2316  0.7888
  934MOL0     C23168  10.238   5.686   7.895  0.0896 -0.4300  0.0280
  934MOL0     C23169  10.130   5.640   7.795  0.6893  0.1074  0.3883
  934MOL0     C23170  10.139   5.488   7.753 -0.8649 -0.0126  0.1138
  934MOL0     C23171  10.054   5.483   7.627  0.4163  0.0682 -0.1026
  934MOL0     C23172  10.078   5.350   7.554  0.5345  0.0958  0.2528
  934MOL0     N23173  10.213   5.306   7.524 -0.3203  0.0552 -0.5459
  934MOL0     C23174  10.329   5.383   7.502  0.8039  0.9489  0.6028
  934MOL0     C23175  10.426   5.289   7.468 -0.5912  0.5684 -0.9065
  934MOL0     C23176  10.566   5.317   7.413  0.8509 -0.4511  0.2007
  934MOL0     C23177  10.654   5.197   7.412 -0.0535 -0.5261 -1.1359
  934MOL0     C23178  10.631   5.107   7.297 -0.6917 -0.2586  0.8728
  934MOL0     C23179  10.768   5.038   7.260 -0.5929 -0.4916  0.1845
  934MOL0     O23180  10.755   4.986   7.123  0.6727 -0.4794 -0.2450
  934MOL0     C23181  10.707   4.863   7.097  0.5732  0.2663 -0.6945
  934MOL0     C23182  10.692   4.819   6.964 -0.1820  0.2213  0.0483
  934MOL0     C23183  10.626   4.697   6.926 -0.7233 -1.3037  0.2975
  934MOL0     C23184  10.577   4.614   7.035  0.3508 -0.2472  0.4457
  934MOL0     C23185  10.497   4.489   6.999  0.0648 -0.1434 -0.7140
  934MOL0     O23186  10.428   4.435   7.111  0.2683 -0.3740  0.4339
  934MOL0     C23187  10.369   4.311   7.098  0.6221  0.9735 -0.6436
  934MOL0     C23188  10.387   4.210   7.006 -0.3043 -0.1082 -0.2579
  934MOL0     C23189  10.324   4.088   7.014  0.4310  0.2385  0.2389
  934MOL0     C23190  10.233   4.071   7.114 -0.1736  0.3513 -0.2111
  934MOL0     O23191  10.150   3.972   7.111  0.0073  0.3327 -0.5743
  934MOL0     C23192  10.024   4.007   7.043 -0.4424  1.1250 -0.2722
  934MOL0     C23193   9.938   3.878   7.011 -0.0431  0.7254  0.0417
  934MOL0     C23194   9.873   3.812   7.130  0.4923 -0.3790  0.3524
  934MOL0     C23195   9.972   3.753   7.236 -0.3765  0.6538 -0.1616
  934MOL0     C23196   9.906   3.671   7.357 -0.2565 -0.2507  0.2603
  934MOL0     C23197   9.803   3.762   7.427  0.0912 -0.3299  0.8383
  934MOL0     C23198   9.733   3.691   7.539 -0.4189 -0.4179  1.1444
  934MOL0     C23199   9.582   3.659   7.503 -0.1959  0.1125  0.4408
  934MOL0    Cl23200   9.569   3.550   7.355 -0.4355  0.1844  0.4398
  934MOL0     C23201  10.221   4.166   7.212 -0.4717 -0.3946 -0.0870
  934MOL0     C23202  10.292   4.281   7.206 -0.3117  0.0765 -0.1406
  934MOL0     O23203  10.489   4.453   6.886  0.1265 -0.0506  0.5370
  934MOL0     C23204  10.585   4.666   7.170  1.2255  0.5827  0.6801
  934MOL0     C23205  10.644   4.783   7.198  0.0992 -0.2156  0.2038
  934MOL0     N23206  10.367   5.161   7.476 -0.1793 -0.3768 -0.3672
  934MOL0     N23207  10.249   5.174   7.513  0.6030 -0.2113 -0.4556
  934MOL0     C23208  10.663   5.738   8.170 -0.0042  0.6925  0.8061
  934MOL0     C23209  10.786   5.768   8.117 -0.3539  0.5688 -0.1602
  934MOL0     C23210  11.218   5.733   7.996  0.1442 -0.1469  0.3955
  934MOL0     C23211  11.222   5.794   7.873  0.6014 -0.0701  0.0092
  934MOL0     C23212  11.341   5.802   7.786  0.2488 -0.4193 -0.2636
  934MOL0     C23213  11.462   5.749   7.839  0.4596  0.7259  1.0910
  934MOL0     O23214  11.576   5.779   7.767  0.2998  0.2775  0.2884
  934MOL0     C23215  11.706   5.743   7.825  0.2846  0.1589 -0.6011
  934MOL0     C23216  11.829   5.763   7.736  0.2287  0.0992 -0.4404
  934MOL0     C23217  11.849   5.656   7.623 -0.0109 -0.8515 -0.1480
  934MOL0     C23218  11.955   5.690   7.531 -0.2361 -1.1038 -0.3722
  934MOL0     C23219  12.090   5.699   7.595 -0.1581  0.3943  0.7126
  934MOL0     C23220  12.198   5.701   7.638 -0.4657 -0.7435 -0.9769
  934MOL0     C23221  11.461   5.693   7.963  0.4383  0.3591  0.3213
  934MOL0     C23222  11.342   5.688   8.042  0.4923 -0.3097  0.3008
  934MOL0     H23223  10.894   5.482   8.007  3.9935  1.9930  0.4593
  934MOL0     H23224  10.675   5.407   8.109  4.0331 -1.2255 -0.1801
  934MOL0     H23225  10.329   5.451   8.220 -0.6262 -2.5799 -2.3700
  934MOL0     H23226  10.476   5.389   8.157  0.2687 -0.1679 -2.6439
  934MOL0     H23227  10.319   5.406   7.971 -1.8787  2.4199 -1.7229
  934MOL0     H23228  10.440   5.508   7.939 -1.5314  0.0018 -0.9964
  934MOL0     H23229  10.256   5.684   8.093 -0.8177  2.0041 -0.9537
  934MOL0     H23230  10.152   5.561   8.035 -0.0250  0.2826 -1.5857
  934MOL0     H23231  10.209   5.789   7.917 -0.7939 -0.0766 -2.4470
  934MOL0     H23232  10.327   5.690   7.831 -1.5344  1.1619 -2.3248
  934MOL0     H23233  10.137   5.704   7.706  0.5864  1.6382  1.4345
  934MOL0     H23234  10.029   5.658   7.833  1.8788  2.3492  2.8434
  934MOL0     H23235  10.106   5.416   7.828 -2.6518  0.4832 -0.1339
  934MOL0     H23236  10.244   5.470   7.730 -1.0271 -0.6626 -0.1406
  934MOL0     H23237   9.953   5.501   7.666  0.5506 -1.3786  0.9827
  934MOL0     H23238  10.070   5.569   7.561  1.4270 -0.4905 -0.6083
  934MOL0     H23239  10.028   5.361   7.458  1.8054 -2.4017 -0.7892
  934MOL0     H23240  10.026   5.274   7.613 -2.7264  1.2780 -0.8749
  934MOL0     H23241  10.342   5.491   7.501 -0.8831  1.1765  0.6777
  934MOL0     H23242  10.598   5.402   7.475 -0.0093  0.5745 -0.7267
  934MOL0     H23243  10.551   5.356   7.312 -0.3427 -0.9753  0.1557
  934MOL0     H23244  10.639   5.152   7.511  0.8385  2.3277  0.4131
  934MOL0     H23245  10.757   5.233   7.419 -0.7103  1.5728 -1.4246
  934MOL0     H23246  10.557   5.034   7.330 -2.4227  0.0433 -2.0051
  934MOL0     H23247  10.582   5.152   7.210  0.4152 -1.0079 -0.1588
  934MOL0     H23248  10.782   4.966   7.341 -1.9235  2.4213  3.2472
  934MOL0     H23249  10.853   5.107   7.257 -2.4804  1.9351  0.0475
  934MOL0     H23250  10.738   4.892   6.897  0.6681  2.0407  2.4825
  934MOL0     H23251  10.635   4.672   6.820  2.1619 -1.7401  0.5479
  934MOL0     H23252  10.455   4.226   6.923  0.7798  2.6702  1.0532
  934MOL0     H23253  10.326   4.010   6.939 -1.1548 -1.4545  1.8408
  934MOL0     H23254  10.051   4.056   6.949 -0.1970  0.7694 -0.3891
  934MOL0     H23255   9.962   4.073   7.105  0.0616 -0.1754  1.6913
  934MOL0     H23256  10.002   3.813   6.949  1.7401  2.0270  0.4411
  934MOL0     H23257   9.851   3.919   6.958 -0.6669 -0.7082 -0.0908
  934MOL0     H23258   9.805   3.731   7.102  1.4147 -0.4124 -2.0705
  934MOL0     H23259   9.804   3.886   7.171 -1.2093 -2.4713  1.5050
  934MOL0     H23260  10.041   3.687   7.183  2.3205  3.3867 -0.3238
  934MOL0     H23261  10.028   3.839   7.273 -1.6737  1.6698 -0.4932
  934MOL0     H23262   9.988   3.643   7.423 -0.6649 -1.8593  0.1122
  934MOL0     H23263   9.868   3.579   7.312 -0.5391  1.7045 -3.9653
  934MOL0     H23264   9.732   3.796   7.351 -1.1985 -0.4348  1.9599
  934MOL0     H23265   9.865   3.840   7.472 -0.3311 -0.1111  1.0346
  934MOL0     H23266   9.789   3.608   7.582  2.3819 -0.2656 -1.7598
  934MOL0     H23267   9.730   3.773   7.612 -0.7593  0.8477 -0.2330
  934MOL0     H23268   9.525   3.748   7.476 -0.9809 -0.2908  0.7360
  934MOL0     H23269   9.516   3.607   7.573 -2.6080 -0.4027 -2.0127
  934MOL0     H23270  10.159   4.139   7.296 -0.2636 -1.7755 -0.3571
  934MOL0     H23271  10.281   4.347   7.291  0.7139 -0.5265  0.4782
  934MOL0     H23272  10.529   4.611   7.244 -0.9338 -1.2079 -2.0744
  934MOL0     H23273  10.633   4.819   7.300 -1.3071  0.7756 -0.2739
  934MOL0     H23274  10.595   5.820   8.194  0.7194  1.5199  0.1009
  934MOL0     H23275  10.814   5.872   8.122  2.4216  0.0838 -2.7700
  934MOL0     H23276  11.135   5.851   7.841  0.0853 -1.0516 -0.3843
  934MOL0     H23277  11.322   5.850   7.691  0.6996 -1.4910 -0.9255
  934MOL0     H23278  11.702   5.639   7.857 -1.2664  0.4578  0.3059
  934MOL0     H23279  11.706   5.814   7.908  0.0142  1.8235 -1.9585
  934MOL0     H23280  11.826   5.859   7.683  0.2143 -0.1174 -0.8340
  934MOL0     H23281  11.914   5.774   7.803  0.7057  0.7560 -1.1328
  934MOL0     H23282  11.750   5.658   7.577  0.9273 -0.0312 -2.2291
  934MOL0     H23283  11.871   5.556   7.661  0.0634 -0.9090 -0.3462
  934MOL0     H23284  11.952   5.610   7.457 -1.7131 -1.5996  0.2066
  934MOL0     H23285  11.929   5.779   7.473  1.6161 -0.6443 -0.5714
  934MOL0     H23286  12.301   5.713   7.666 -0.6302  1.3859 -1.1004
  934MOL0     H23287  11.536   5.632   8.012 -1.0110 -0.4060  1.6976
  934MOL0     H23288  11.350   5.638   8.137 -1.0369 -1.1324  0.0202
  935MOL0     O23289  10.514   3.306   1.454  0.8695 -0.1377 -0.3361
  935MOL0     C23290  10.614   3.360   1.490  0.2067  0.5421  0.2053
  935MOL0     O23291  10.651   3.371   1.619  0.0602  0.2241 -0.2366
  935MOL0     C23292  10.554   3.329   1.712 -0.1672  0.7819  0.1245
  935MOL0     C23293  10.429   3.388   1.730 -0.7522 -0.4463 -0.0842
  935MOL0     C23294  10.337   3.324   1.810 -1.1077 -0.1257  0.1750
  935MOL0     C23295  10.370   3.213   1.894 -0.2481 -0.5775  0.3020
  935MOL0     O23296  10.256   3.173   1.967 -0.9431 -0.0803  0.1948
  935MOL0     C23297  10.279   3.057   2.041 -0.0645 -1.1602 -0.4255
  935MOL0     C23298  10.155   3.003   2.117 -0.4936 -0.6674  1.4007
  935MOL0     C23299  10.179   2.874   2.189  0.5510 -0.2387  0.8123
  935MOL0     C23300  10.050   2.830   2.269  0.5565 -0.2160  0.0389
  935MOL0     C23301  10.053   2.699   2.359  0.5157 -0.0445  0.2468
  935MOL0     C23302  10.047   2.570   2.277 -0.1692 -0.6199 -0.6008
  935MOL0     C23303   9.899   2.552   2.220 -0.6106 -0.2565 -0.0823
  935MOL0     C23304   9.902   2.428   2.129  0.1064 -0.1494 -0.3416
  935MOL0     N23305   9.927   2.476   1.993 -0.4107  0.0453 -0.3149
  935MOL0     C23306   9.835   2.461   1.888  0.1380  0.4895 -0.1600
  935MOL0     C23307   9.889   2.528   1.782  0.1397  0.0745 -0.2413
  935MOL0     C23308   9.840   2.551   1.644 -0.0871  0.6186  0.4358
  935MOL0     C23309   9.951   2.538   1.542  0.8257  0.2944  0.6463
  935MOL0     C23310   9.893   2.545   1.396 -0.0551 -0.2564  0.0589
  935MOL0     C23311   9.912   2.675   1.335  0.1313  0.1068  1.0635
  935MOL0     O23312   9.865   2.663   1.195 -0.4317  0.2494  0.5517
  935MOL0     C23313   9.955   2.660   1.089 -0.8628  0.4101 -0.5648
  935MOL0     C23314  10.095   2.662   1.092 -0.2807 -1.3745 -0.5263
  935MOL0     C23315  10.178   2.648   0.976  0.1465 -0.3554 -0.3076
  935MOL0     C23316  10.119   2.644   0.852  0.1845  0.5444  0.4171
  935MOL0     C23317  10.205   2.636   0.732  0.3131 -0.1265 -0.0737
  935MOL0     O23318  10.344   2.609   0.747  0.6820 -0.6077 -0.8224
  935MOL0     C23319  10.425   2.663   0.646 -0.4266 -0.4577 -0.8566
  935MOL0     C23320  10.432   2.794   0.631  0.1233 -0.8877  0.1867
  935MOL0     C23321  10.526   2.862   0.550 -0.6270 -1.1342  0.5265
  935MOL0     C23322  10.622   2.794   0.476 -0.6741  0.2720  0.3268
  935MOL0     O23323  10.715   2.869   0.412  0.2232 -0.4699 -0.1746
  935MOL0     C23324  10.839   2.803   0.386  0.1427 -0.2090 -0.5411
  935MOL0     C23325  10.949   2.889   0.309 -0.1501 -0.1207 -0.1551
  935MOL0     C23326  10.972   3.034   0.361 -0.2686  0.2593  0.4235
  935MOL0     C23327  11.114   3.080   0.297  0.6412  0.0709  0.4272
  935MOL0     C23328  11.150   3.224   0.341  0.6313 -0.0640  0.8969
  935MOL0     C23329  11.055   3.334   0.298  0.1334 -0.6873  0.1349
  935MOL0     C23330  11.112   3.469   0.349  0.0771 -0.1573  0.3562
  935MOL0     C23331  11.005   3.579   0.315 -0.7486  1.3235 -0.1179
  935MOL0    Cl23332  11.002   3.579   0.135  0.5134  0.0439 -0.1817
  935MOL0     C23333  10.624   2.647   0.491  0.5264 -0.6585  0.0514
  935MOL0     C23334  10.523   2.588   0.574  0.8550 -0.4647 -1.7052
  935MOL0     O23335  10.154   2.654   0.623 -0.0150 -0.9303 -0.4220
  935MOL0     C23336   9.984   2.640   0.845  0.6557  0.3330  0.1316
  935MOL0     C23337   9.898   2.645   0.958 -0.1707 -0.5465  0.0191
  935MOL0     N23338  10.002   2.589   1.831 -0.3984  0.7022 -0.2480
  935MOL0     N23339  10.025   2.550   1.947 -0.0119 -0.5971  0.4652
  935MOL0     C23340  10.492   3.159   1.885  0.6634  0.1358  0.0745
  935MOL0     C23341  10.579   3.214   1.794  0.2946 -0.2520  0.2996
  935MOL0     C23342  10.694   3.418   1.385 -0.2012 -0.0538 -0.5837
  935MOL0     C23343  10.810   3.486   1.433  0.0518 -0.4201 -0.4476
  935MOL0     C23344  10.895   3.546   1.338  0.0365 -0.5968  0.8383
  935MOL0     C23345  10.863   3.550   1.201 -0.1581 -0.2297  0.4591
  935MOL0     O23346  10.933   3.621   1.110  0.3994  0.2050  0.6141
  935MOL0     C23347  11.027   3.721   1.145  0.0277 -0.0826  0.7875
  935MOL0     C23348  11.168   3.669   1.108  0.4307  1.0929  0.4046
  935MOL0     C23349  11.274   3.772   1.162 -0.1571  1.2472  0.7891
  935MOL0     C23350  11.420   3.726   1.123  0.7216 -0.6566  0.2928
  935MOL0     C23351  11.513   3.750   1.234  0.4884 -0.4294  0.8413
  935MOL0     C23352  11.596   3.763   1.320 -0.4209 -0.6034  1.4669
  935MOL0     C23353  10.742   3.494   1.168  0.4216  0.0866  1.1191
  935MOL0     C23354  10.665   3.419   1.253 -0.0185 -0.1156 -0.2334
  935MOL0     H23355  10.398   3.477   1.677  0.6466 -0.4369 -0.9482
  935MOL0     H23356  10.237   3.367   1.814 -0.7335  0.7276  0.5821
  935MOL0     H23357  10.364   3.070   2.109 -0.6136 -0.6216  0.1756
  935MOL0     H23358  10.317   2.979   1.975  4.0999 -1.1262  1.5356
  935MOL0     H23359  10.074   2.988   2.045  0.5149 -5.8566  1.0074
  935MOL0     H23360  10.118   3.083   2.181 -3.0025 -1.5117  1.0963
  935MOL0     H23361  10.267   2.884   2.254  2.1615 -0.8790 -1.1543
  935MOL0     H23362  10.212   2.799   2.116 -0.6074  1.3401 -1.4633
  935MOL0     H23363  10.035   2.907   2.345 -2.0448  0.9531 -1.5135
  935MOL0     H23364   9.965   2.821   2.202 -0.8676 -0.0404  1.7530
  935MOL0     H23365   9.969   2.704   2.428  0.3790 -1.9860  0.2743
  935MOL0     H23366  10.151   2.698   2.406  0.1536  1.0834  1.0656
  935MOL0     H23367  10.060   2.490   2.351 -3.3481 -0.5391  0.1864
  935MOL0     H23368  10.131   2.572   2.207  2.7226 -1.4416  2.5424
  935MOL0     H23369   9.833   2.540   2.306  0.9553  1.1294  1.3932
  935MOL0     H23370   9.857   2.637   2.166 -2.5393 -1.7198 -1.0022
  935MOL0     H23371   9.806   2.378   2.144  0.6527 -1.0259  0.3487
  935MOL0     H23372   9.980   2.354   2.152 -0.1348 -1.0079 -2.0892
  935MOL0     H23373   9.749   2.395   1.894  2.5101 -3.0208 -1.1294
  935MOL0     H23374   9.807   2.653   1.623  0.0024  0.3224 -1.3556
  935MOL0     H23375   9.759   2.478   1.632  0.0238  0.1700  2.1926
  935MOL0     H23376  10.006   2.444   1.558  0.3876 -0.1579 -0.3632
  935MOL0     H23377  10.028   2.615   1.551  0.8810  0.3059  0.1121
  935MOL0     H23378   9.936   2.459   1.342 -0.0077 -0.0498 -0.2366
  935MOL0     H23379   9.787   2.519   1.399  0.0673 -0.6857  0.9567
  935MOL0     H23380  10.017   2.706   1.334  0.1431  0.0814 -0.3713
  935MOL0     H23381   9.857   2.740   1.404 -0.9805 -0.0275  0.3421
  935MOL0     H23382  10.136   2.676   1.191  0.7180 -0.3728 -1.0638
  935MOL0     H23383  10.285   2.630   0.985  0.2604  0.9397  1.7208
  935MOL0     H23384  10.358   2.847   0.691  0.7788 -0.8234  0.9525
  935MOL0     H23385  10.513   2.968   0.536 -0.4788 -1.2960 -1.0591
  935MOL0     H23386  10.817   2.716   0.323 -4.1610  1.8679 -2.3404
  935MOL0     H23387  10.890   2.785   0.481 -3.7493  1.7784  2.2251
  935MOL0     H23388  10.925   2.899   0.203 -3.9646  2.4474  0.7413
  935MOL0     H23389  11.042   2.832   0.315 -0.1988 -0.2400 -0.4899
  935MOL0     H23390  10.981   3.038   0.470  0.8369 -0.3812  0.3764
  935MOL0     H23391  10.892   3.095   0.318  0.9956  0.6988 -1.4167
  935MOL0     H23392  11.192   3.007   0.319  0.8613  0.5203  1.1532
  935MOL0     H23393  11.099   3.075   0.189  1.2609  1.0101  0.2923
  935MOL0     H23394  11.245   3.246   0.292  1.4503 -2.1645  1.4025
  935MOL0     H23395  11.161   3.227   0.450 -0.7156  0.3869  1.0370
  935MOL0     H23396  10.960   3.309   0.345 -1.1321  1.4959 -1.0918
  935MOL0     H23397  11.037   3.340   0.190 -0.2624 -0.2979  0.2176
  935MOL0     H23398  11.136   3.458   0.455  1.2316  0.6290  0.1948
  935MOL0     H23399  11.202   3.502   0.298  1.3643  1.2284  3.2640
  935MOL0     H23400  11.025   3.676   0.362 -0.4019  0.1046  2.4750
  935MOL0     H23401  10.909   3.542   0.352 -1.0875  1.0653 -1.2299
  935MOL0     H23402  10.707   2.583   0.464 -0.1935 -0.0741 -4.2274
  935MOL0     H23403  10.527   2.487   0.614 -0.9978  0.4362  1.0640
  935MOL0     H23404   9.946   2.628   0.744  0.7760  0.4111  0.0763
  935MOL0     H23405   9.791   2.640   0.945 -0.2799  0.9871  0.1458
  935MOL0     H23406  10.516   3.064   1.931 -2.3197 -0.7721 -0.0435
  935MOL0     H23407  10.677   3.168   1.787 -0.6660 -2.2426 -1.1253
  935MOL0     H23408  10.851   3.504   1.532 -0.5312  0.2963 -0.3300
  935MOL0     H23409  10.979   3.605   1.374 -0.1167  0.0034  0.2427
  935MOL0     H23410  11.002   3.761   1.244 -0.5815  0.8604  0.2729
  935MOL0     H23411  10.990   3.804   1.084 -2.0838 -0.8258  0.9704
  935MOL0     H23412  11.182   3.572   1.157 -1.7391  0.1511 -0.7121
  935MOL0     H23413  11.191   3.651   1.003 -0.1854  4.0684 -0.3232
  935MOL0     H23414  11.263   3.764   1.271 -1.5002 -0.7762  0.5554
  935MOL0     H23415  11.241   3.868   1.123 -0.7621  2.2940  3.6096
  935MOL0     H23416  11.425   3.617   1.118  1.4946 -0.7998  2.7888
  935MOL0     H23417  11.431   3.773   1.025 -2.3525 -2.3001 -0.9764
  935MOL0     H23418  11.659   3.788   1.402  0.7106 -0.5619  0.6158
  935MOL0     H23419  10.713   3.502   1.064  1.4655 -2.7511  0.5226
  935MOL0     H23420  10.580   3.364   1.211 -0.4989  0.0072  0.5541
  936MOL0     O23421  10.480  10.522   0.116  0.0409 -0.1970  1.1037
  936MOL0     C23422  10.497  10.643   0.133  0.1444  1.1950 -0.1044
  936MOL0     O23423  10.611  10.701   0.163  0.2225 -0.4536  0.2307
  936MOL0     C23424  10.729  10.626   0.159 -0.5533 -0.1202  0.7437
  936MOL0     C23425  10.823  10.672   0.244 -0.0289  0.8204 -0.3168
  936MOL0     C23426  10.948  10.603   0.253 -0.1888 -0.8469  0.3361
  936MOL0     C23427  10.967  10.481   0.187 -0.0604 -0.3349  0.3600
  936MOL0     O23428  11.084  10.407   0.193 -0.3101 -0.3758 -0.3396
  936MOL0     C23429  11.221  10.462   0.209  1.2674  1.0048 -0.0285
  936MOL0     C23430  11.328  10.351   0.196  0.8337  0.1643 -0.6927
  936MOL0     C23431  11.349  10.293   0.055 -0.6321 -0.0700 -0.4598
  936MOL0     C23432  11.471  10.209   0.066 -0.4319 -0.3080 -1.0580
  936MOL0     C23433  11.560  10.225  -0.059  0.2090 -0.0115  0.1443
  936MOL0     C23434  11.685  10.127  -0.044  0.2501 -0.9267  0.1648
  936MOL0     C23435  11.776  10.129  -0.164  0.1476  0.0600 -0.2724
  936MOL0     C23436  11.886  10.030  -0.146  0.2084  0.3080  0.2522
  936MOL0     N23437  11.983  10.063  -0.254 -0.6481 -0.6952  0.3417
  936MOL0     C23438  12.113  10.089  -0.239  0.2031  0.5024 -0.2903
  936MOL0     C23439  12.178  10.109  -0.357  0.6321 -0.6345 -0.3169
  936MOL0     C23440  12.323  10.146  -0.376 -0.3018  0.0549  0.1252
  936MOL0     C23441  12.417  10.060  -0.289  1.0376 -0.2185 -0.2089
  936MOL0     C23442  12.455  10.129  -0.154 -0.9141 -0.0061 -1.3539
  936MOL0     C23443  12.514  10.032  -0.037 -0.0803  0.2060 -0.0269
  936MOL0     O23444  12.424   9.923  -0.001  0.0008  0.4458  0.3963
  936MOL0     C23445  12.304   9.958   0.060 -0.8662  0.4690 -0.8206
  936MOL0     C23446  12.192   9.867   0.050 -0.0962 -0.1024 -0.0743
  936MOL0     C23447  12.079   9.888   0.126  0.1294  0.1998  1.1644
  936MOL0     C23448  12.066  10.015   0.204 -0.7275  1.2442  0.2184
  936MOL0     C23449  11.943  10.023   0.279 -0.7649 -0.2804  0.2005
  936MOL0     O23450  11.950  10.094   0.393  1.1130 -0.0532  0.1889
  936MOL0     C23451  11.838  10.142   0.454  0.3835  0.2017  0.5199
  936MOL0     C23452  11.856  10.206   0.576  0.5901 -0.9884 -0.0746
  936MOL0     C23453  11.755  10.286   0.646 -0.0393  0.1560 -0.1543
  936MOL0     C23454  11.625  10.294   0.600 -1.0416  0.6128 -0.1190
  936MOL0     O23455  11.530  10.357   0.683  0.7785 -0.1223 -0.0614
  936MOL0     C23456  11.443  10.254   0.737 -0.2929  0.4335 -0.2992
  936MOL0     C23457  11.489  10.215   0.876 -0.2797  0.1181 -0.6279
  936MOL0     C23458  11.538  10.332   0.954 -0.3670 -0.2253  0.4646
  936MOL0     C23459  11.573  10.297   1.097 -0.0718 -0.5497  0.2376
  936MOL0     C23460  11.598  10.424   1.185 -0.8428  0.0426  0.0440
  936MOL0     C23461  11.598  10.385   1.337  0.3250 -0.5424 -0.0702
  936MOL0     C23462  11.738  10.322   1.375 -0.4779 -0.2310  0.3149
  936MOL0     C23463  11.747  10.304   1.528 -0.5308 -0.3650 -0.0835
  936MOL0    Cl23464  11.763  10.466   1.602  0.0837 -0.3907  0.3866
  936MOL0     C23465  11.598  10.223   0.479 -0.4876  1.0381  0.4752
  936MOL0     C23466  11.701  10.147   0.407 -0.0493 -0.5848  0.5716
  936MOL0     O23467  11.844   9.963   0.233  0.1384  0.1487  0.8341
  936MOL0     C23468  12.170  10.101   0.208 -0.6255  0.0083 -0.6859
  936MOL0     C23469  12.288  10.075   0.137 -0.1872  0.3732  0.0002
  936MOL0     N23470  12.078  10.089  -0.453 -0.3460  0.5224  0.1926
  936MOL0     N23471  11.965  10.068  -0.394 -0.0330 -0.0357 -0.5644
  936MOL0     C23472  10.872  10.437   0.100 -0.2471  0.9884  0.5347
  936MOL0     C23473  10.753  10.508   0.079 -0.3652 -0.2912 -0.4871
  936MOL0     C23474  10.382  10.742   0.118 -0.5864  0.1371 -0.5135
  936MOL0     C23475  10.262  10.708   0.059  0.0567  0.9746 -0.2830
  936MOL0     C23476  10.163  10.805   0.044 -0.4325 -0.0254 -0.4608
  936MOL0     C23477  10.191  10.936   0.074  0.6632 -0.7096 -0.3653
  936MOL0     O23478  10.093  11.035   0.051 -0.4233 -0.4348 -0.2948
  936MOL0     C23479  10.034  11.049  -0.076 -0.5013 -0.1371 -0.5861
  936MOL0     C23480   9.904  11.116  -0.058  0.1075 -0.9939  0.2585
  936MOL0     C23481   9.935  11.261  -0.036 -0.5982 -0.1617 -0.4162
  936MOL0     C23482   9.803  11.336  -0.053 -0.0407  0.6513 -0.6225
  936MOL0     C23483   9.704  11.309   0.047  0.1078  0.3469 -0.7109
  936MOL0     C23484   9.617  11.280   0.128 -0.4232  1.1765 -0.1246
  936MOL0     C23485  10.299  10.978   0.143 -0.9888  1.2488  0.1180
  936MOL0     C23486  10.401  10.876   0.168 -0.0311 -0.0100 -0.0103
  936MOL0     H23487  10.798  10.760   0.302  1.4095  1.9299 -1.3177
  936MOL0     H23488  11.026  10.641   0.319 -0.9676 -0.8644  1.3030
  936MOL0     H23489  11.234  10.502   0.310  0.7019  0.7259  0.1580
  936MOL0     H23490  11.234  10.546   0.141  0.7422 -0.4001 -1.9434
  936MOL0     H23491  11.293  10.275   0.266  1.8449  0.2070 -0.1337
  936MOL0     H23492  11.417  10.399   0.238  0.1276  0.0296  1.0636
  936MOL0     H23493  11.353  10.367  -0.025  5.2321 -2.2299 -2.7509
  936MOL0     H23494  11.265  10.229   0.024 -1.7305  0.3345  1.5219
  936MOL0     H23495  11.534  10.251   0.144 -0.4572 -1.2915 -0.4832
  936MOL0     H23496  11.443  10.104   0.078  1.2366 -0.6486  0.1066
  936MOL0     H23497  11.591  10.329  -0.072  0.2780  0.0043  0.4376
  936MOL0     H23498  11.501  10.190  -0.144 -0.0636  1.8190 -0.4768
  936MOL0     H23499  11.632  10.032  -0.034 -0.1423 -0.7742 -0.4370
  936MOL0     H23500  11.733  10.142   0.053 -1.9539 -0.6691  1.2909
  936MOL0     H23501  11.726  10.114  -0.260 -0.2707 -0.1106 -0.0332
  936MOL0     H23502  11.828  10.225  -0.171  0.4938 -0.0162  0.9992
  936MOL0     H23503  11.843   9.931  -0.159  0.7811  0.0538  0.2706
  936MOL0     H23504  11.928  10.048  -0.046  1.2689 -0.3881 -0.0519
  936MOL0     H23505  12.170  10.093  -0.146  2.4689  1.5837 -1.6334
  936MOL0     H23506  12.354  10.249  -0.357  0.3922  0.8376 -4.1406
  936MOL0     H23507  12.346  10.133  -0.482  2.2934 -2.3574  0.8726
  936MOL0     H23508  12.503  10.028  -0.348 -0.2861  1.1037 -3.0727
  936MOL0     H23509  12.359   9.971  -0.267  0.4465 -0.9477 -4.0242
  936MOL0     H23510  12.538  10.198  -0.170  0.2586 -0.6834  1.3517
  936MOL0     H23511  12.362  10.178  -0.123 -0.5688 -0.2646  0.1491
  936MOL0     H23512  12.547  10.081   0.056  1.9800 -0.8260 -0.1507
  936MOL0     H23513  12.611   9.992  -0.068  1.0833 -0.0140  3.4225
  936MOL0     H23514  12.196   9.769   0.002 -1.3355 -0.4845  0.5511
  936MOL0     H23515  12.006   9.809   0.112  0.7696 -0.2603  0.3448
  936MOL0     H23516  11.957  10.200   0.616  0.6090 -2.2132 -0.2709
  936MOL0     H23517  11.785  10.342   0.733  2.7580 -1.2859 -0.0505
  936MOL0     H23518  11.416  10.173   0.668  0.0946 -0.9563  1.1332
  936MOL0     H23519  11.344  10.301   0.748 -1.4038 -1.4338 -1.6723
  936MOL0     H23520  11.569  10.140   0.877 -3.1402 -3.2275  0.9492
  936MOL0     H23521  11.406  10.169   0.931 -2.1030  1.8859 -1.7538
  936MOL0     H23522  11.473  10.420   0.955  1.2799  1.0349  0.1211
  936MOL0     H23523  11.630  10.371   0.910 -2.7451  3.9873 -1.3461
  936MOL0     H23524  11.480  10.250   1.129 -0.3170 -1.7316 -2.0141
  936MOL0     H23525  11.657  10.229   1.114  0.7770  0.3657 -0.1554
  936MOL0     H23526  11.507  10.480   1.163 -0.7606 -0.3530 -1.4331
  936MOL0     H23527  11.692  10.473   1.156 -1.4281  0.7621 -0.6858
  936MOL0     H23528  11.512  10.320   1.351  1.1486 -1.6088  0.1670
  936MOL0     H23529  11.583  10.477   1.395 -0.6879 -0.0440 -1.0886
  936MOL0     H23530  11.752  10.232   1.315 -1.8019 -0.2472 -0.0185
  936MOL0     H23531  11.818  10.390   1.345  0.4145 -0.8882  1.1353
  936MOL0     H23532  11.829  10.244   1.568  0.5385  1.6683  0.9019
  936MOL0     H23533  11.655  10.262   1.569 -2.0990 -1.0199 -3.8085
  936MOL0     H23534  11.498  10.235   0.439  0.4889  1.2841 -2.1150
  936MOL0     H23535  11.659  10.103   0.317  1.5924 -2.7116  0.7663
  936MOL0     H23536  12.163  10.185   0.276 -3.1350  1.2919 -2.3806
  936MOL0     H23537  12.363  10.153   0.136  0.1990  0.0091  0.3267
  936MOL0     H23538  10.884  10.346   0.042  1.9488 -0.0834  2.5302
  936MOL0     H23539  10.676  10.473   0.010 -0.9823 -1.6216  0.8110
  936MOL0     H23540  10.242  10.602   0.044  0.1790  0.4064  2.8733
  936MOL0     H23541  10.070  10.767   0.002 -1.1004 -0.2538  1.1521
  936MOL0     H23542  10.028  10.954  -0.130  1.1513 -1.6368  1.6659
  936MOL0     H23543  10.099  11.112  -0.137  0.1510  0.5381  0.7508
  936MOL0     H23544   9.845  11.101  -0.149 -1.5496  1.7534  0.7520
  936MOL0     H23545   9.853  11.074   0.029  1.3304  1.2070  2.1662
  936MOL0     H23546  10.001  11.303  -0.113 -1.6005  0.5379 -0.9202
  936MOL0     H23547   9.959  11.281   0.069 -2.5375 -1.5099  0.3297
  936MOL0     H23548   9.821  11.443  -0.044  0.4234  0.7929 -2.6101
  936MOL0     H23549   9.759  11.308  -0.149  0.1018 -0.5434 -0.3622
  936MOL0     H23550   9.540  11.250   0.195  1.4763 -3.8327  0.2360
  936MOL0     H23551  10.289  11.079   0.182 -1.2884  0.3667  2.4733
  936MOL0     H23552  10.496  10.897   0.216  1.2385 -3.0270 -0.9376
  937MOL0     O23553   4.381   1.114   6.571  0.6393 -0.3135 -0.5195
  937MOL0     C23554   4.309   1.195   6.521 -0.4349 -1.1256 -0.2230
  937MOL0     O23555   4.191   1.238   6.575 -0.5992 -0.8578 -0.1563
  937MOL0     C23556   4.175   1.224   6.713 -0.3626  1.0288 -0.5169
  937MOL0     C23557   4.281   1.245   6.806  0.1030  0.0576  0.7710
  937MOL0     C23558   4.237   1.231   6.938  0.6577  0.0390  0.0192
  937MOL0     C23559   4.114   1.188   6.984  0.3047  0.4702 -0.3250
  937MOL0     O23560   4.100   1.165   7.115  0.0415 -0.4107 -0.8462
  937MOL0     C23561   3.972   1.169   7.184 -1.0094  0.8912  0.5385
  937MOL0     C23562   3.992   1.187   7.330 -0.3981 -0.1191  0.1646
  937MOL0     C23563   3.857   1.181   7.394  0.1774 -1.3129 -0.0884
  937MOL0     C23564   3.880   1.226   7.545  0.2219 -0.4280 -0.5368
  937MOL0     C23565   3.752   1.215   7.632  0.0424  0.3339  0.2546
  937MOL0     C23566   3.648   1.313   7.588 -0.5521 -0.7956 -0.3941
  937MOL0     C23567   3.522   1.334   7.672  0.3466  0.4986  0.3017
  937MOL0     C23568   3.418   1.430   7.609 -0.7991 -0.4360  0.1315
  937MOL0     N23569   3.286   1.423   7.673 -0.7338 -0.2465 -0.7254
  937MOL0     C23570   3.247   1.498   7.788  0.5080  0.2674  0.4552
  937MOL0     C23571   3.122   1.457   7.820 -0.6621 -0.3134 -0.3505
  937MOL0     C23572   3.050   1.514   7.936 -0.1046  0.7084 -0.1434
  937MOL0     C23573   3.084   1.438   8.063  0.2086  0.5462 -0.0371
  937MOL0     C23574   2.990   1.497   8.178 -0.7101 -0.7562 -0.2383
  937MOL0     C23575   2.852   1.440   8.184 -0.3744  0.2232 -0.6391
  937MOL0     O23576   2.765   1.514   8.092  0.2855  0.1694  0.2457
  937MOL0     C23577   2.634   1.473   8.094  0.0194  0.1994  0.5184
  937MOL0     C23578   2.535   1.561   8.042 -0.2471  0.2129 -0.2900
  937MOL0     C23579   2.397   1.532   8.037 -0.4393 -0.4991 -0.9162
  937MOL0     C23580   2.355   1.405   8.073 -0.0137  0.6642 -1.0171
  937MOL0     C23581   2.211   1.369   8.053  0.0583  0.1537 -0.4687
  937MOL0     O23582   2.136   1.437   7.959 -0.2461 -0.1294  0.4374
  937MOL0     C23583   2.002   1.408   7.940 -0.2818  0.7914 -1.4917
  937MOL0     C23584   1.900   1.497   7.935 -0.6212  0.0395 -0.5589
  937MOL0     C23585   1.773   1.454   7.902 -0.1575  0.4325  0.4936
  937MOL0     C23586   1.743   1.320   7.863  1.1042  0.1713  0.1170
  937MOL0     O23587   1.625   1.270   7.817  0.4399 -0.2635  0.6705
  937MOL0     C23588   1.517   1.367   7.811 -0.4413  0.0817  0.0221
  937MOL0     C23589   1.388   1.278   7.798  0.9643  0.0693 -0.7710
  937MOL0     C23590   1.256   1.365   7.795 -0.4118 -0.1123 -0.4131
  937MOL0     C23591   1.212   1.413   7.658  0.8154  0.8048 -0.0862
  937MOL0     C23592   1.305   1.512   7.589 -0.2047 -0.5419  0.2418
  937MOL0     C23593   1.237   1.605   7.487  0.3258  0.1243 -0.1596
  937MOL0     C23594   1.347   1.680   7.401 -0.2023  0.4993 -0.9881
  937MOL0     C23595   1.283   1.789   7.315  0.2558 -0.0007  0.1544
  937MOL0    Cl23596   1.183   1.715   7.181 -0.2408 -0.4797  0.1979
  937MOL0     C23597   1.847   1.227   7.882 -0.2744  0.0430  0.0030
  937MOL0     C23598   1.973   1.271   7.924 -0.4165  0.2495 -0.4524
  937MOL0     O23599   2.162   1.274   8.114  0.2821 -0.1692 -0.3231
  937MOL0     C23600   2.452   1.311   8.123 -0.6969  0.6443 -0.0047
  937MOL0     C23601   2.589   1.340   8.126  0.1205 -0.3830 -0.2979
  937MOL0     N23602   3.093   1.366   7.713 -0.6957 -0.0595 -0.4720
  937MOL0     N23603   3.193   1.339   7.641 -0.0317  1.0294  0.4661
  937MOL0     C23604   4.010   1.160   6.892 -0.2386 -0.4239  0.3069
  937MOL0     C23605   4.044   1.187   6.756  0.1753  0.1013  0.4816
  937MOL0     C23606   4.350   1.266   6.394  0.0757  0.4647 -0.0666
  937MOL0     C23607   4.247   1.318   6.312  0.6329 -1.2280  0.4144
  937MOL0     C23608   4.271   1.393   6.201 -0.2434 -0.0890 -0.3396
  937MOL0     C23609   4.408   1.410   6.164  0.5849 -0.4328  0.2062
  937MOL0     O23610   4.436   1.477   6.051  0.2343  0.3516 -0.1422
  937MOL0     C23611   4.452   1.398   5.931 -0.1658 -0.5834 -0.1484
  937MOL0     C23612   4.325   1.404   5.838 -0.0424  1.5389 -0.4412
  937MOL0     C23613   4.313   1.540   5.783 -0.1532  0.0269 -0.1933
  937MOL0     C23614   4.175   1.534   5.702  0.8232  0.1468  1.0247
  937MOL0     C23615   4.170   1.650   5.608  0.7245  0.0916 -0.7424
  937MOL0     C23616   4.169   1.741   5.534 -0.3229  0.1359  0.4850
  937MOL0     C23617   4.510   1.340   6.234  0.0346 -0.0979  0.1773
  937MOL0     C23618   4.482   1.277   6.354 -0.3938  0.0030  0.3511
  937MOL0     H23619   4.378   1.279   6.772 -1.2724  2.4740 -0.9946
  937MOL0     H23620   4.305   1.251   7.021  0.4133 -2.8106  1.0070
  937MOL0     H23621   3.929   1.071   7.165  1.2371  0.0455 -0.5070
  937MOL0     H23622   3.897   1.243   7.155 -2.0160 -0.3452 -0.0605
  937MOL0     H23623   4.042   1.283   7.348 -0.3387 -0.4723  2.0121
  937MOL0     H23624   4.065   1.114   7.366  2.0308 -0.1820 -4.1341
  937MOL0     H23625   3.816   1.080   7.392  1.1333 -1.7005 -1.4239
  937MOL0     H23626   3.781   1.240   7.342  1.8584  0.3633 -0.7799
  937MOL0     H23627   3.963   1.167   7.586  1.5326 -1.2297 -3.9852
  937MOL0     H23628   3.909   1.331   7.554 -0.6085 -0.3841  3.1210
  937MOL0     H23629   3.789   1.230   7.734  1.6520  1.0497 -0.4134
  937MOL0     H23630   3.715   1.113   7.629 -2.2816  1.1264 -2.7007
  937MOL0     H23631   3.618   1.268   7.493  2.1955 -1.2326 -1.1290
  937MOL0     H23632   3.704   1.405   7.571 -0.9444 -0.3896  0.4212
  937MOL0     H23633   3.461   1.243   7.662  0.6432  0.4079 -0.8529
  937MOL0     H23634   3.547   1.359   7.775 -1.6487  2.2230  0.4221
  937MOL0     H23635   3.406   1.417   7.501 -0.7560  5.3171 -0.8674
  937MOL0     H23636   3.466   1.528   7.618 -0.4827 -0.5917  0.1781
  937MOL0     H23637   3.315   1.568   7.837 -0.0966 -0.0024  1.7072
  937MOL0     H23638   2.945   1.503   7.907  0.0568  2.4148 -1.5605
  937MOL0     H23639   3.075   1.619   7.949  1.1346  0.2503  1.4157
  937MOL0     H23640   3.188   1.458   8.091 -0.4974  1.7993  1.9409
  937MOL0     H23641   3.077   1.329   8.064  0.8233  0.4859  1.7829
  937MOL0     H23642   3.048   1.467   8.266  1.2952  5.6066  1.1258
  937MOL0     H23643   2.996   1.606   8.171  3.2025 -0.7626  0.4425
  937MOL0     H23644   2.812   1.444   8.286  1.8206  2.5867  0.2294
  937MOL0     H23645   2.868   1.337   8.151  1.3114  0.7477 -1.5781
  937MOL0     H23646   2.562   1.664   8.020  0.5572  0.6142  2.2742
  937MOL0     H23647   2.337   1.617   8.005  2.1650  1.9947  0.4063
  937MOL0     H23648   1.925   1.599   7.963 -2.5615  0.6843 -0.9675
  937MOL0     H23649   1.693   1.527   7.896  0.1723  0.7020 -0.9379
  937MOL0     H23650   1.530   1.435   7.726 -0.2911 -2.1235 -1.8240
  937MOL0     H23651   1.504   1.429   7.901 -0.8420 -1.0434  0.7563
  937MOL0     H23652   1.384   1.202   7.876 -0.3315  1.7476  0.8873
  937MOL0     H23653   1.402   1.222   7.704  2.9088  0.4474 -0.7492
  937MOL0     H23654   1.281   1.450   7.860 -1.2428 -0.1907  0.0276
  937MOL0     H23655   1.177   1.307   7.843  1.6814 -0.8016  2.5041
  937MOL0     H23656   1.189   1.322   7.603 -0.2950  1.0681 -0.0908
  937MOL0     H23657   1.115   1.459   7.683  0.0613 -1.5963  1.7524
  937MOL0     H23658   1.387   1.456   7.544 -1.9101 -3.3827  0.4112
  937MOL0     H23659   1.346   1.577   7.667 -0.4133  1.0178 -0.8834
  937MOL0     H23660   1.170   1.675   7.538 -2.2080 -1.7296 -0.7590
  937MOL0     H23661   1.171   1.551   7.419  1.7563 -3.0365  0.7324
  937MOL0     H23662   1.419   1.727   7.469  1.7891 -1.6877 -1.4648
  937MOL0     H23663   1.393   1.604   7.337 -2.8752 -1.5805 -0.6401
  937MOL0     H23664   1.367   1.842   7.270  2.6264 -2.2644  1.6559
  937MOL0     H23665   1.224   1.864   7.371 -2.3405 -2.4333  0.9249
  937MOL0     H23666   1.826   1.121   7.866  0.7208 -0.6683  2.7384
  937MOL0     H23667   2.049   1.194   7.919  0.7362  1.4185 -2.7195
  937MOL0     H23668   2.418   1.213   8.153  0.8641  0.4454  1.2820
  937MOL0     H23669   2.662   1.263   8.150 -1.5897 -3.1140 -2.9901
  937MOL0     H23670   3.910   1.130   6.921  0.6558 -2.1927  1.8228
  937MOL0     H23671   3.968   1.166   6.682 -0.3429  1.8028  0.4740
  937MOL0     H23672   4.145   1.313   6.346  0.5695  3.1737  1.5867
  937MOL0     H23673   4.195   1.437   6.137  1.3506  1.6083 -1.1446
  937MOL0     H23674   4.470   1.295   5.964  2.2003  0.3361  1.7548
  937MOL0     H23675   4.532   1.441   5.870 -1.5243 -0.0140 -1.5857
  937MOL0     H23676   4.326   1.312   5.779 -0.4471  1.0294  0.3332
  937MOL0     H23677   4.237   1.386   5.900  2.1816  0.2652  2.5943
  937MOL0     H23678   4.396   1.545   5.712  0.3900  2.7271  0.5144
  937MOL0     H23679   4.316   1.624   5.853 -1.3334 -0.0177 -0.0796
  937MOL0     H23680   4.172   1.448   5.634 -0.9224 -0.1194  1.4013
  937MOL0     H23681   4.093   1.524   5.774 -1.1040 -2.8901 -1.3650
  937MOL0     H23682   4.165   1.801   5.444  0.2192  1.3645  1.2520
  937MOL0     H23683   4.614   1.344   6.205 -0.9161  3.0144 -3.8407
  937MOL0     H23684   4.571   1.249   6.409  0.4540  2.0405  0.1044
  938MOL0     O23685  10.904   7.316   6.210  0.5884  0.7787 -0.2039
  938MOL0     C23686  10.897   7.418   6.284 -0.5259 -0.3377 -0.0922
  938MOL0     O23687  10.788   7.487   6.311 -0.0024 -0.3309  0.1134
  938MOL0     C23688  10.666   7.451   6.240 -0.0063 -0.5095 -0.8204
  938MOL0     C23689  10.617   7.317   6.240 -0.0183  0.3302 -0.5527
  938MOL0     C23690  10.491   7.287   6.175  0.7841 -0.1282 -0.7633
  938MOL0     C23691  10.422   7.394   6.112 -0.7069 -0.1252 -0.2356
  938MOL0     O23692  10.292   7.385   6.068  0.5497 -0.4867  0.1743
  938MOL0     C23693  10.214   7.277   6.110 -0.5173  0.3442 -0.1417
  938MOL0     C23694  10.078   7.292   6.042  0.2604  1.1241  0.4305
  938MOL0     C23695   9.988   7.159   6.032  0.4177 -0.0968 -0.8949
  938MOL0     C23696   9.845   7.201   5.976 -0.3623  0.4272  0.0567
  938MOL0     C23697   9.751   7.090   5.993 -0.3578  0.3133 -0.1230
  938MOL0     C23698   9.611   7.132   5.969 -0.8945 -0.0238 -0.3254
  938MOL0     C23699   9.531   7.004   5.929  0.0100  0.0349  0.2169
  938MOL0     C23700   9.546   6.991   5.775 -0.5089 -0.5501  0.3259
  938MOL0     N23701   9.482   6.861   5.731 -0.7748 -0.1818 -0.3423
  938MOL0     C23702   9.362   6.853   5.657  0.3568  0.2660  0.0816
  938MOL0     C23703   9.341   6.730   5.631  0.6265  0.5214  0.0531
  938MOL0     C23704   9.214   6.673   5.563  0.4391  0.3686 -0.3353
  938MOL0     C23705   9.174   6.540   5.624  0.3042 -1.0493  0.2312
  938MOL0     C23706   9.025   6.527   5.596 -0.1607  0.8061 -0.7195
  938MOL0     C23707   8.974   6.387   5.648  0.7372 -0.5831  0.0982
  938MOL0     O23708   8.836   6.383   5.606 -0.2162  0.2119 -0.1192
  938MOL0     C23709   8.755   6.281   5.652  0.0660 -0.2970 -0.0199
  938MOL0     C23710   8.615   6.299   5.646  0.5483  1.0144  0.4567
  938MOL0     C23711   8.535   6.196   5.686  0.8321  0.2855 -0.4319
  938MOL0     C23712   8.586   6.079   5.748 -0.3459  0.4147 -1.5360
  938MOL0     C23713   8.495   5.985   5.827 -0.1810  0.2937 -0.4844
  938MOL0     O23714   8.366   6.012   5.822 -0.1949  0.2623 -0.1629
  938MOL0     C23715   8.289   5.932   5.896  0.0282  1.1594  0.4299
  938MOL0     C23716   8.197   5.848   5.828 -0.5438 -0.7226  0.3732
  938MOL0     C23717   8.112   5.764   5.894  0.3072 -0.1227  0.6959
  938MOL0     C23718   8.111   5.766   6.037  0.1421  0.2762  0.1159
  938MOL0     O23719   8.014   5.685   6.087  0.3355 -0.2704 -0.3335
  938MOL0     C23720   7.958   5.727   6.212 -1.2375  0.1374 -0.2370
  938MOL0     C23721   7.816   5.666   6.211  0.9770 -0.2830  0.0463
  938MOL0     C23722   7.742   5.727   6.341  0.5590 -0.1853 -0.0380
  938MOL0     C23723   7.622   5.636   6.343  0.5540  0.4159 -0.3214
  938MOL0     C23724   7.533   5.648   6.466 -0.5176  0.1155  0.0237
  938MOL0     C23725   7.498   5.789   6.511 -0.4555  0.6225 -1.1782
  938MOL0     C23726   7.409   5.862   6.401 -0.5912  0.2203  0.3435
  938MOL0     C23727   7.351   5.998   6.468 -0.1868  0.2155  0.7631
  938MOL0    Cl23728   7.487   6.111   6.463  0.1692  0.2073  0.6398
  938MOL0     C23729   8.208   5.845   6.111  0.9862  0.2359 -0.4457
  938MOL0     C23730   8.290   5.922   6.039  0.3412 -0.2885  0.0728
  938MOL0     O23731   8.555   5.887   5.876 -0.0164  0.3212  0.0878
  938MOL0     C23732   8.723   6.056   5.745 -0.4824 -0.0908 -0.7281
  938MOL0     C23733   8.809   6.166   5.704 -0.3594  0.1839  0.7343
  938MOL0     N23734   9.434   6.654   5.699  0.0693  0.7782 -0.2792
  938MOL0     N23735   9.518   6.731   5.758 -0.0579  0.0790 -0.8135
  938MOL0     C23736  10.481   7.514   6.093 -0.2220 -0.1446  0.0405
  938MOL0     C23737  10.592   7.552   6.165  0.0946 -0.0039  0.3381
  938MOL0     C23738  11.024   7.454   6.358 -0.8765 -0.1802 -0.4634
  938MOL0     C23739  11.137   7.366   6.347 -0.4261 -0.2382 -0.3093
  938MOL0     C23740  11.249   7.397   6.419 -0.2166 -0.4437 -0.7509
  938MOL0     C23741  11.263   7.516   6.498  0.8460 -0.3826  0.9744
  938MOL0     O23742  11.369   7.536   6.580 -0.5036  0.2979 -0.1337
  938MOL0     C23743  11.373   7.657   6.667  0.4695  0.5656  0.5983
  938MOL0     C23744  11.520   7.660   6.719  0.1937  0.6615 -0.9755
  938MOL0     C23745  11.536   7.767   6.831 -0.6598  0.5459  0.2506
  938MOL0     C23746  11.547   7.676   6.956 -0.0638  0.1343 -0.8053
  938MOL0     C23747  11.552   7.754   7.078 -0.1867  0.2954 -0.2572
  938MOL0     C23748  11.572   7.841   7.163 -0.3825  0.0608  0.6446
  938MOL0     C23749  11.155   7.608   6.496  0.3475  0.1259  0.5412
  938MOL0     C23750  11.036   7.570   6.431 -0.6478 -1.7038  0.2453
  938MOL0     H23751  10.674   7.246   6.300  1.8014  1.9130 -0.3460
  938MOL0     H23752  10.439   7.192   6.181 -2.4782  1.6010  3.1850
  938MOL0     H23753  10.197   7.277   6.217 -0.6550 -0.4289 -0.1564
  938MOL0     H23754  10.262   7.186   6.071 -0.9053  0.2530 -0.4108
  938MOL0     H23755  10.092   7.325   5.939  2.4907  0.7053  0.5451
  938MOL0     H23756  10.035   7.373   6.102  0.9234 -1.0232  4.1119
  938MOL0     H23757   9.983   7.108   6.128  4.1874  0.1284 -0.4151
  938MOL0     H23758  10.039   7.086   5.968  0.8848  1.1069 -1.9525
  938MOL0     H23759   9.808   7.287   6.033 -0.9286 -0.3523  0.9007
  938MOL0     H23760   9.851   7.222   5.869  2.4285 -0.1112  0.0310
  938MOL0     H23761   9.761   7.048   6.093  3.5577  2.8961  0.8074
  938MOL0     H23762   9.784   7.011   5.924 -0.9429 -0.1688  0.1463
  938MOL0     H23763   9.604   7.211   5.893 -0.6538  0.0077 -0.3156
  938MOL0     H23764   9.566   7.162   6.064 -0.5350  1.0998 -0.4965
  938MOL0     H23765   9.577   6.909   5.960  3.8455  0.8805 -2.1958
  938MOL0     H23766   9.426   7.000   5.960 -0.2711 -3.0578 -0.8220
  938MOL0     H23767   9.653   6.997   5.752 -0.2651 -0.1223  1.5009
  938MOL0     H23768   9.487   7.073   5.733  0.5220 -0.0111 -0.0981
  938MOL0     H23769   9.294   6.936   5.639  1.6383  1.7040  1.4622
  938MOL0     H23770   9.230   6.667   5.455 -1.5143  1.5646 -0.7534
  938MOL0     H23771   9.128   6.739   5.577 -0.4434 -0.8851  0.1998
  938MOL0     H23772   9.195   6.547   5.731 -1.0970  0.1512  0.4556
  938MOL0     H23773   9.229   6.457   5.579  1.8345  1.3046 -2.6036
  938MOL0     H23774   8.970   6.610   5.642 -2.5977 -1.9069  1.7333
  938MOL0     H23775   9.000   6.518   5.490 -5.4615 -1.7379  0.3959
  938MOL0     H23776   8.971   6.391   5.757 -0.8437 -0.2016  0.0680
  938MOL0     H23777   9.042   6.309   5.613  1.6516 -0.3836  1.3612
  938MOL0     H23778   8.583   6.393   5.601  0.5105  0.4438 -0.7504
  938MOL0     H23779   8.429   6.217   5.686  0.6145 -0.2559  2.7423
  938MOL0     H23780   8.198   5.854   5.719 -1.2678  3.2184  0.4494
  938MOL0     H23781   8.047   5.702   5.834 -1.0807  1.2142  0.7741
  938MOL0     H23782   7.961   5.836   6.222 -0.5662  0.3304 -2.2278
  938MOL0     H23783   8.021   5.676   6.285 -0.8840  0.8046 -0.0733
  938MOL0     H23784   7.825   5.557   6.214 -0.3481 -0.5101 -1.8563
  938MOL0     H23785   7.752   5.682   6.123 -0.3130  1.8650  1.3037
  938MOL0     H23786   7.705   5.828   6.322  1.0161  0.0743  0.4392
  938MOL0     H23787   7.807   5.729   6.429  1.6834  3.1728 -0.7825
  938MOL0     H23788   7.566   5.664   6.253  0.2913  0.1871 -0.2302
  938MOL0     H23789   7.653   5.532   6.338 -2.2054 -0.5211  0.6798
  938MOL0     H23790   7.571   5.582   6.546 -3.4547 -0.6734  0.9083
  938MOL0     H23791   7.434   5.605   6.452 -2.4101  3.9060  0.5961
  938MOL0     H23792   7.592   5.842   6.524 -0.2147 -0.1440  0.4035
  938MOL0     H23793   7.454   5.796   6.611  0.8989 -1.5463 -0.3555
  938MOL0     H23794   7.466   5.890   6.312 -0.4937  0.4157  0.4667
  938MOL0     H23795   7.328   5.801   6.360 -0.0411  1.8994 -3.7412
  938MOL0     H23796   7.308   5.996   6.569 -0.3343  1.5420  0.7453
  938MOL0     H23797   7.268   6.028   6.403 -0.6462  1.5298  1.9214
  938MOL0     H23798   8.221   5.822   6.217 -1.5171 -4.2951 -0.8820
  938MOL0     H23799   8.356   5.980   6.103  0.7349 -0.6659  0.0065
  938MOL0     H23800   8.768   5.964   5.779 -0.8593 -1.0267 -2.6412
  938MOL0     H23801   8.914   6.138   5.712 -0.2645  0.4390  0.4103
  938MOL0     H23802  10.413   7.575   6.034  1.3879  1.6879 -0.0052
  938MOL0     H23803  10.636   7.651   6.163 -1.0991  0.5389 -0.3424
  938MOL0     H23804  11.128   7.272   6.293 -2.3868 -0.0572 -0.3806
  938MOL0     H23805  11.320   7.314   6.427  0.0125 -0.1629  0.3580
  938MOL0     H23806  11.311   7.649   6.757 -0.0736 -2.4398  0.0865
  938MOL0     H23807  11.347   7.750   6.616  0.6945  1.0891  1.4235
  938MOL0     H23808  11.551   7.559   6.746  1.4739 -0.1112 -4.7331
  938MOL0     H23809  11.596   7.693   6.647  1.1374 -2.1098 -1.3594
  938MOL0     H23810  11.454   7.839   6.837 -2.2890 -1.3235  2.2269
  938MOL0     H23811  11.630   7.823   6.827  1.5715 -2.8375  1.0254
  938MOL0     H23812  11.466   7.603   6.957  1.3601 -1.5113 -1.6824
  938MOL0     H23813  11.639   7.620   6.940 -1.1547 -2.4423  1.1145
  938MOL0     H23814  11.594   7.910   7.242 -0.5337 -1.5175  2.1292
  938MOL0     H23815  11.148   7.707   6.541  1.3492  0.1044  0.7688
  938MOL0     H23816  10.947   7.631   6.438  0.0944 -0.7678  4.4521
  939MOL0     O23817   3.100   2.723   8.256 -0.0351  0.0662  0.2527
  939MOL0     C23818   3.169   2.642   8.307  0.2166 -0.3862  0.8205
  939MOL0     O23819   3.133   2.578   8.422  0.0542 -0.5086  0.8435
  939MOL0     C23820   3.032   2.616   8.504  0.0339  0.2300  0.6216
  939MOL0     C23821   2.898   2.647   8.449 -0.2836  0.4631 -0.6717
  939MOL0     C23822   2.792   2.657   8.535  0.3336  0.8437 -0.1178
  939MOL0     C23823   2.809   2.648   8.675  0.6609  0.0695  0.1543
  939MOL0     O23824   2.706   2.671   8.761 -0.8956 -0.3118 -0.1479
  939MOL0     C23825   2.694   2.812   8.809 -0.7466 -0.1910 -1.3155
  939MOL0     C23826   2.572   2.876   8.744  0.5827  0.2079 -0.0527
  939MOL0     C23827   2.445   2.812   8.809 -0.2624  0.2685  0.2133
  939MOL0     C23828   2.420   2.663   8.763  1.1216 -0.4999  0.0430
  939MOL0     C23829   2.262   2.642   8.743 -0.2254  0.5293  0.4133
  939MOL0     C23830   2.224   2.500   8.753 -0.0497 -0.0450  0.2108
  939MOL0     C23831   2.248   2.405   8.634  1.4861 -0.2911 -0.3495
  939MOL0     C23832   2.155   2.284   8.640  0.1166  0.4834 -0.0302
  939MOL0     N23833   2.014   2.307   8.634  0.5766 -0.0342  0.6841
  939MOL0     C23834   1.940   2.370   8.527 -0.9340  0.4916 -0.1611
  939MOL0     C23835   1.810   2.371   8.567  0.2197 -1.2015 -0.2000
  939MOL0     C23836   1.697   2.430   8.488 -0.0252 -0.2452 -0.0721
  939MOL0     C23837   1.651   2.319   8.391 -0.2589  0.5743 -0.2169
  939MOL0     C23838   1.532   2.362   8.299  1.4228 -0.2744  0.3393
  939MOL0     C23839   1.398   2.384   8.368  0.0173  0.0849  0.0031
  939MOL0     O23840   1.391   2.295   8.486 -0.3601  0.4424 -0.2822
  939MOL0     C23841   1.260   2.271   8.521  0.3019 -0.2306 -0.3801
  939MOL0     C23842   1.210   2.150   8.471 -0.1261 -0.0059 -0.3431
  939MOL0     C23843   1.078   2.111   8.492 -0.1922  0.3295 -0.4456
  939MOL0     C23844   1.000   2.190   8.582 -0.6366  0.1255 -0.1764
  939MOL0     C23845   0.865   2.147   8.618  0.8893 -0.1565  0.4388
  939MOL0     O23846   0.826   2.019   8.571  0.3133 -0.2914 -0.1355
  939MOL0     C23847   0.684   1.993   8.554 -0.0993  0.8803 -0.5367
  939MOL0     C23848   0.599   2.091   8.510  0.0509 -0.5952 -0.2712
  939MOL0     C23849   0.462   2.058   8.485 -0.4276 -0.1792  0.5395
  939MOL0     C23850   0.414   1.930   8.504  0.4964 -0.2309 -0.0429
  939MOL0     O23851   0.284   1.906   8.462 -0.0353  0.1594 -0.2789
  939MOL0     C23852   0.211   1.811   8.519  0.6648  0.0061  0.4369
  939MOL0     C23853   0.068   1.817   8.454 -0.2470 -1.1227  1.1882
  939MOL0     C23854  -0.002   1.945   8.520 -1.0547 -0.3103  0.3327
  939MOL0     C23855  -0.143   1.961   8.471 -0.0882  0.3243  0.1092
  939MOL0     C23856  -0.242   1.847   8.521 -0.2786 -0.6479  0.5857
  939MOL0     C23857  -0.383   1.899   8.498  1.4543 -0.5291 -0.1404
  939MOL0     C23858  -0.418   1.909   8.351 -0.5440  0.4336  1.7038
  939MOL0     C23859  -0.543   1.981   8.307 -0.1632  0.1186  0.4708
  939MOL0    Cl23860  -0.577   1.931   8.134 -0.5076 -0.0378  0.1622
  939MOL0     C23861   0.504   1.833   8.558  1.0697 -0.9163  0.7345
  939MOL0     C23862   0.638   1.868   8.574  0.3151  0.2649 -0.0135
  939MOL0     O23863   0.795   2.229   8.676 -0.4346  0.4095 -0.4069
  939MOL0     C23864   1.047   2.322   8.621  0.7439  0.4000  0.3043
  939MOL0     C23865   1.181   2.356   8.590 -0.2297  0.2694 -0.4597
  939MOL0     N23866   1.802   2.313   8.687  0.1643  0.2231 -0.6562
  939MOL0     N23867   1.917   2.263   8.721 -0.4602 -0.3812 -0.5326
  939MOL0     C23868   2.938   2.628   8.727  0.1674 -0.1587  0.2168
  939MOL0     C23869   3.050   2.608   8.641  0.0990  0.1415  0.0763
  939MOL0     C23870   3.295   2.604   8.251 -0.2410  0.5911  0.1519
  939MOL0     C23871   3.363   2.682   8.152  0.7488  0.3298 -0.1688
  939MOL0     C23872   3.498   2.649   8.113  0.0592 -0.7553  1.0012
  939MOL0     C23873   3.560   2.528   8.166  0.5865  1.3639 -0.2171
  939MOL0     O23874   3.684   2.491   8.126  0.0058  0.2988  0.0532
  939MOL0     C23875   3.786   2.440   8.211 -0.3813 -0.1673 -1.5869
  939MOL0     C23876   3.832   2.547   8.321 -0.3438  0.4625  0.5583
  939MOL0     C23877   3.943   2.502   8.416  0.8040  1.6045  0.2635
  939MOL0     C23878   4.062   2.439   8.336 -0.2028 -0.3537 -0.1161
  939MOL0     C23879   4.190   2.476   8.396 -0.8297 -0.5390 -0.0985
  939MOL0     C23880   4.293   2.496   8.461 -0.2784  0.8114 -0.3702
  939MOL0     C23881   3.490   2.455   8.262  0.2983  0.6861  0.5637
  939MOL0     C23882   3.370   2.492   8.306  0.3229 -1.3402  0.5555
  939MOL0     H23883   2.870   2.655   8.344  0.0560  1.3309 -0.7017
  939MOL0     H23884   2.696   2.684   8.490  1.3376  2.1712 -1.5536
  939MOL0     H23885   2.782   2.871   8.781 -1.7112  0.7712 -2.3920
  939MOL0     H23886   2.694   2.800   8.918  2.5414  0.0630 -1.1714
  939MOL0     H23887   2.585   2.863   8.636 -0.3750 -0.2860 -0.1182
  939MOL0     H23888   2.570   2.982   8.773  0.9889  0.2818 -0.2783
  939MOL0     H23889   2.361   2.875   8.778 -1.2345 -1.6359 -1.2220
  939MOL0     H23890   2.448   2.808   8.919 -1.0016 -1.5497  0.2003
  939MOL0     H23891   2.452   2.649   8.660 -4.6832 -0.6894 -2.1235
  939MOL0     H23892   2.460   2.588   8.831  0.9257  1.1499  2.0754
  939MOL0     H23893   2.234   2.688   8.648 -0.0608 -0.7994 -0.2965
  939MOL0     H23894   2.222   2.692   8.832  0.0668  1.0919  0.2319
  939MOL0     H23895   2.116   2.509   8.761  0.1371  1.3172  2.0556
  939MOL0     H23896   2.258   2.453   8.846 -2.8729 -2.7278  0.0235
  939MOL0     H23897   2.239   2.456   8.537  2.0608 -1.2974 -0.9552
  939MOL0     H23898   2.352   2.372   8.638  1.8706  0.9060 -0.0148
  939MOL0     H23899   2.183   2.245   8.738 -2.4905  2.0606  1.4293
  939MOL0     H23900   2.180   2.206   8.566 -3.4784  1.6270 -2.7599
  939MOL0     H23901   1.982   2.405   8.433  0.6158  3.3699  1.4472
  939MOL0     H23902   1.742   2.499   8.416  2.5075 -2.0217 -0.3576
  939MOL0     H23903   1.611   2.462   8.547 -0.1541 -0.0637 -0.3534
  939MOL0     H23904   1.633   2.229   8.451 -1.9094 -0.1302 -1.6767
  939MOL0     H23905   1.733   2.293   8.323 -0.9658  0.5175 -1.0657
  939MOL0     H23906   1.560   2.448   8.238  0.2686 -0.6583 -0.7537
  939MOL0     H23907   1.508   2.284   8.227 -0.4216  0.7593 -0.2304
  939MOL0     H23908   1.319   2.345   8.303 -1.3780 -0.2691  1.8143
  939MOL0     H23909   1.371   2.484   8.402 -4.3160  0.4630 -3.5940
  939MOL0     H23910   1.277   2.088   8.413  1.9113 -1.1196  2.9032
  939MOL0     H23911   1.034   2.023   8.445  0.6820 -1.2203  1.4795
  939MOL0     H23912   0.617   2.198   8.506  2.8450 -0.5934  4.4451
  939MOL0     H23913   0.396   2.137   8.451 -1.3970 -2.0173 -2.1773
  939MOL0     H23914   0.205   1.829   8.627 -2.6348 -5.4706  1.5285
  939MOL0     H23915   0.256   1.713   8.501  1.6490  0.2440  1.4309
  939MOL0     H23916   0.002   1.731   8.469 -1.9700 -0.3064 -1.0814
  939MOL0     H23917   0.084   1.816   8.346  0.7645  1.6037  1.2330
  939MOL0     H23918   0.047   2.040   8.495  0.4530 -0.4299  2.5842
  939MOL0     H23919   0.001   1.946   8.629 -0.4283 -3.7430  0.4542
  939MOL0     H23920  -0.181   2.057   8.507  0.5465  0.7820 -0.4161
  939MOL0     H23921  -0.135   1.955   8.362  1.8209  0.1116  0.2221
  939MOL0     H23922  -0.232   1.835   8.630  2.5630 -0.6394  0.3832
  939MOL0     H23923  -0.218   1.753   8.470 -0.0817 -1.8974  2.8459
  939MOL0     H23924  -0.387   2.004   8.530 -0.3613 -0.5785 -0.0982
  939MOL0     H23925  -0.466   1.842   8.541  0.0141 -0.1081 -2.1899
  939MOL0     H23926  -0.334   1.951   8.295  1.0552 -4.2757  0.1044
  939MOL0     H23927  -0.426   1.805   8.319 -2.1284  0.8708  0.5008
  939MOL0     H23928  -0.511   2.083   8.328  0.8460  0.0169 -0.4778
  939MOL0     H23929  -0.631   1.957   8.367  0.2981 -0.4530  0.9363
  939MOL0     H23930   0.466   1.735   8.585 -0.0987 -1.8260 -3.5483
  939MOL0     H23931   0.708   1.789   8.599  0.3404  0.2704 -0.0664
  939MOL0     H23932   0.982   2.397   8.665  1.6399  1.4365 -0.0905
  939MOL0     H23933   1.244   2.438   8.624  1.3473 -1.3222  0.5953
  939MOL0     H23934   2.941   2.624   8.836  0.6576 -1.9229  0.1723
  939MOL0     H23935   3.143   2.589   8.694 -0.1406  2.6219  1.5478
  939MOL0     H23936   3.310   2.765   8.108  1.3126  0.0502 -1.4126
  939MOL0     H23937   3.553   2.712   8.044 -3.0452 -1.0850 -2.0617
  939MOL0     H23938   3.875   2.404   8.160  2.0750  0.3127  1.9612
  939MOL0     H23939   3.746   2.355   8.268 -1.8051  0.6418 -1.3293
  939MOL0     H23940   3.881   2.623   8.260 -0.4886  0.7301  0.7762
  939MOL0     H23941   3.748   2.600   8.365 -2.6869  0.9051 -3.8733
  939MOL0     H23942   3.907   2.434   8.494  1.6653  2.8844  1.8327
  939MOL0     H23943   3.969   2.597   8.463  0.9304  2.0249 -0.6400
  939MOL0     H23944   4.067   2.330   8.323 -1.0780 -0.2828 -1.2428
  939MOL0     H23945   4.081   2.491   8.241 -1.5696 -2.6241 -1.7530
  939MOL0     H23946   4.377   2.523   8.522 -1.0542  1.9403  0.2316
  939MOL0     H23947   3.538   2.359   8.284  3.2860  1.8197 -0.4383
  939MOL0     H23948   3.342   2.438   8.396 -0.0255 -1.5615  0.3142
  940MOL0     O23949  11.264  10.907   9.616  0.2490  0.1746  0.4645
  940MOL0     C23950  11.224  11.018   9.634  0.8611 -0.1261 -0.2083
  940MOL0     O23951  11.095  11.043   9.616 -0.6839  0.0198  0.1712
  940MOL0     C23952  11.006  10.947   9.578 -0.8442 -0.4648  0.1965
  940MOL0     C23953  10.970  10.931   9.444  0.4374  1.4421 -0.2587
  940MOL0     C23954  10.899  10.815   9.398  0.4521  0.3925 -0.8170
  940MOL0     C23955  10.844  10.731   9.493  0.1856 -0.3135 -0.2409
  940MOL0     O23956  10.749  10.640   9.464  0.4184 -0.3471 -0.4687
  940MOL0     C23957  10.768  10.563   9.346 -0.1426  0.0833 -0.0783
  940MOL0     C23958  10.735  10.423   9.393 -0.6372  0.5369  0.0660
  940MOL0     C23959  10.774  10.322   9.287  0.0289  0.8686  0.3379
  940MOL0     C23960  10.721  10.334   9.145 -0.0752 -0.2422  0.3040
  940MOL0     C23961  10.575  10.293   9.131 -0.0629  0.7250  0.5587
  940MOL0     C23962  10.522  10.313   8.994  0.3430 -0.2320  0.3725
  940MOL0     C23963  10.393  10.238   8.968 -0.4155  1.0609  0.0768
  940MOL0     C23964  10.278  10.286   9.043  0.3748  0.0450  0.5994
  940MOL0     N23965  10.161  10.204   9.005 -0.3789 -0.5231  0.8095
  940MOL0     C23966  10.098  10.208   8.885 -1.4428  0.1162 -0.4691
  940MOL0     C23967   9.991  10.129   8.902  0.5653 -0.1354 -0.4505
  940MOL0     C23968   9.880  10.084   8.820 -0.3219  0.4539  0.2747
  940MOL0     C23969   9.748  10.120   8.880  0.1914 -0.0037  0.5523
  940MOL0     C23970   9.631  10.045   8.806 -0.6405  0.1117 -0.2283
  940MOL0     C23971   9.499  10.115   8.835  0.8462  0.4290  1.1033
  940MOL0     O23972   9.464  10.228   8.744 -0.1085  0.6562  0.3303
  940MOL0     C23973   9.342  10.274   8.774  0.4381 -0.8192  0.1956
  940MOL0     C23974   9.320  10.393   8.852 -0.0834  0.1662  0.7810
  940MOL0     C23975   9.190  10.445   8.862 -0.1403  0.0887  0.5338
  940MOL0     C23976   9.075  10.382   8.813 -1.3589 -0.6528  0.5999
  940MOL0     C23977   8.940  10.418   8.849 -0.0140  0.9273 -0.5138
  940MOL0     O23978   8.844  10.320   8.829 -0.2241  0.5546 -0.3051
  940MOL0     C23979   8.708  10.335   8.841  0.9594  0.0709  1.2945
  940MOL0     C23980   8.637  10.437   8.918 -0.4986 -0.6262  0.8388
  940MOL0     C23981   8.498  10.436   8.917 -0.0614  0.0319  0.0056
  940MOL0     C23982   8.429  10.337   8.846 -0.3799 -1.0001  0.5227
  940MOL0     O23983   8.295  10.335   8.852 -0.3078  0.1400  0.2948
  940MOL0     C23984   8.248  10.284   8.979  0.6386 -0.2278  0.9257
  940MOL0     C23985   8.125  10.350   9.033 -0.1064 -0.6275  0.3301
  940MOL0     C23986   8.148  10.498   9.077  0.5727 -0.3561 -0.0110
  940MOL0     C23987   8.026  10.552   9.156  0.1857  0.6421  1.1873
  940MOL0     C23988   7.908  10.592   9.055 -0.6020 -0.9720  0.4502
  940MOL0     C23989   7.821  10.708   9.105 -0.2028 -0.0673 -0.3709
  940MOL0     C23990   7.708  10.737   9.019 -0.1776 -0.6453  0.4582
  940MOL0     C23991   7.635  10.872   9.063  0.6822  0.3741  0.1563
  940MOL0    Cl23992   7.492  10.914   8.966 -0.0804  0.3103 -0.3787
  940MOL0     C23993   8.503  10.236   8.781  0.1339  0.4583  0.3646
  940MOL0     C23994   8.640  10.239   8.771 -0.0996 -0.5142 -0.2218
  940MOL0     O23995   8.916  10.534   8.886 -0.7921 -0.1685  0.5437
  940MOL0     C23996   9.104  10.264   8.737  0.4863 -0.0995  0.2522
  940MOL0     C23997   9.233  10.210   8.719 -0.9181 -0.3557  0.0936
  940MOL0     N23998   9.994  10.073   9.031  0.1325 -0.3284  0.2985
  940MOL0     N23999  10.096  10.120   9.085 -0.1536  0.1288 -0.3319
  940MOL0     C24000  10.873  10.747   9.631  0.2176  0.7793  0.1429
  940MOL0     C24001  10.958  10.857   9.669  0.8117  0.4579 -0.1611
  940MOL0     C24002  11.320  11.131   9.654  1.2909  0.1607  0.1205
  940MOL0     C24003  11.452  11.108   9.621 -0.5270 -0.1521  0.2641
  940MOL0     C24004  11.549  11.201   9.631  0.8409 -0.2215  0.4664
  940MOL0     C24005  11.517  11.332   9.664  0.5601  0.0173  0.7389
  940MOL0     O24006  11.619  11.422   9.657 -0.5947 -0.0877  0.6209
  940MOL0     C24007  11.604  11.563   9.675  0.0925 -1.2020 -0.4521
  940MOL0     C24008  11.555  11.631   9.551 -1.0539  0.5418  0.8029
  940MOL0     C24009  11.661  11.634   9.436 -1.0442  0.3291 -0.0211
  940MOL0     C24010  11.787  11.720   9.478  0.6331 -0.2686 -0.5679
  940MOL0     C24011  11.745  11.844   9.541  0.0638 -0.3092 -0.0093
  940MOL0     C24012  11.702  11.944   9.588  0.4045  0.5167 -0.4095
  940MOL0     C24013  11.386  11.365   9.697 -0.2904  0.3758 -0.6851
  940MOL0     C24014  11.284  11.263   9.694  0.6010  0.2959  0.9641
  940MOL0     H24015  11.011  10.991   9.364 -1.0996  0.1299 -2.1479
  940MOL0     H24016  10.881  10.804   9.292  1.9896 -0.3750 -1.0280
  940MOL0     H24017  10.869  10.564   9.304 -0.7587  0.1381 -1.5931
  940MOL0     H24018  10.691  10.587   9.272  0.3668  0.7782 -0.3840
  940MOL0     H24019  10.631  10.418   9.426  0.1422 -2.7079  2.4935
  940MOL0     H24020  10.789  10.405   9.486 -1.1613  0.5699  0.3825
  940MOL0     H24021  10.763  10.218   9.319  2.8196  0.2607 -0.4052
  940MOL0     H24022  10.883  10.335   9.292  0.3232  0.0061 -2.2971
  940MOL0     H24023  10.737  10.435   9.106 -1.0692 -0.3542 -0.4422
  940MOL0     H24024  10.780  10.271   9.077  1.5275  2.1300 -0.6347
  940MOL0     H24025  10.520  10.354   9.204  1.6935  4.3461 -0.8914
  940MOL0     H24026  10.571  10.185   9.151  0.0135 -0.1406 -3.2834
  940MOL0     H24027  10.583  10.269   8.914  1.8101 -0.3343  1.4986
  940MOL0     H24028  10.511  10.418   8.967 -2.6284 -1.0841 -2.4219
  940MOL0     H24029  10.373  10.252   8.861 -0.8826 -3.4272 -0.5950
  940MOL0     H24030  10.401  10.130   8.981 -0.6762  1.1626  1.1139
  940MOL0     H24031  10.259  10.388   9.009 -0.6749 -0.4251 -0.2959
  940MOL0     H24032  10.296  10.296   9.151  1.7709 -1.1340  0.5106
  940MOL0     H24033  10.125  10.273   8.802  0.2168  1.5229  1.1108
  940MOL0     H24034   9.890   9.975   8.810 -1.3606  0.2400  1.4265
  940MOL0     H24035   9.891  10.131   8.722 -4.0685  0.9385 -0.0331
  940MOL0     H24036   9.729  10.227   8.873 -0.4288 -0.1280  0.3020
  940MOL0     H24037   9.747  10.086   8.984  1.4642  0.9355  0.9040
  940MOL0     H24038   9.650  10.037   8.698  2.1665 -1.4036  0.2694
  940MOL0     H24039   9.631   9.943   8.844 -0.2735  0.5398  0.9823
  940MOL0     H24040   9.495  10.150   8.938 -1.0276  1.8396  0.6141
  940MOL0     H24041   9.433  10.029   8.818  0.6201  0.7981  0.0295
  940MOL0     H24042   9.398  10.456   8.893 -0.4691 -0.2958  2.2892
  940MOL0     H24043   9.179  10.529   8.931 -2.6340 -0.1721  0.5355
  940MOL0     H24044   8.689  10.514   8.974 -1.5923  1.6648 -1.1438
  940MOL0     H24045   8.436  10.506   8.971  0.2913 -0.3472  0.9303
  940MOL0     H24046   8.327  10.282   9.054  0.3845  0.8560  1.2304
  940MOL0     H24047   8.218  10.179   8.969 -0.2609  0.1773 -1.5057
  940MOL0     H24048   8.081  10.290   9.112 -1.7561  1.7818  1.3633
  940MOL0     H24049   8.045  10.359   8.959 -2.3098  1.3877  2.7494
  940MOL0     H24050   8.164  10.563   8.991 -1.4659  0.7085  0.3290
  940MOL0     H24051   8.231  10.511   9.147 -0.0101  0.6108  0.5357
  940MOL0     H24052   7.996  10.480   9.233  0.3862 -1.6644 -0.7707
  940MOL0     H24053   8.055  10.641   9.212 -0.3135  3.8301 -3.1009
  940MOL0     H24054   7.837  10.509   9.049 -3.3539  1.3079 -0.1687
  940MOL0     H24055   7.948  10.627   8.959 -1.0247  0.9919  0.9509
  940MOL0     H24056   7.880  10.799   9.125  0.3338 -0.3954 -0.4316
  940MOL0     H24057   7.777  10.683   9.201 -4.0478  4.3471 -0.5986
  940MOL0     H24058   7.751  10.750   8.919 -1.2224  1.6140  0.2470
  940MOL0     H24059   7.648  10.646   9.031  0.0102 -0.8846 -0.3457
  940MOL0     H24060   7.705  10.956   9.065  0.8435  0.2616 -0.5533
  940MOL0     H24061   7.603  10.856   9.167  0.1655 -1.8843 -0.2786
  940MOL0     H24062   8.454  10.159   8.724 -0.2902  0.1266  1.1601
  940MOL0     H24063   8.696  10.163   8.718  3.6351  0.8344  1.4609
  940MOL0     H24064   9.020  10.213   8.691  2.5041 -1.5943 -2.0233
  940MOL0     H24065   9.247  10.110   8.678  3.8847 -0.0633  0.5060
  940MOL0     H24066  10.830  10.682   9.706  1.1277  0.3994  0.3543
  940MOL0     H24067  10.965  10.867   9.777  2.5854  0.1656 -0.2191
  940MOL0     H24068  11.483  11.016   9.572  1.6587  1.0276 -0.7304
  940MOL0     H24069  11.646  11.167   9.596 -0.3644 -1.7575 -1.6180
  940MOL0     H24070  11.701  11.607   9.700 -1.5627  2.7473 -0.3913
  940MOL0     H24071  11.548  11.585   9.766  0.3489  1.3606 -0.8523
  940MOL0     H24072  11.462  11.587   9.512  0.0566 -0.2143 -1.1196
  940MOL0     H24073  11.541  11.736   9.580  3.2303  0.8817  2.3125
  940MOL0     H24074  11.623  11.677   9.343  1.6908  0.0784 -1.3513
  940MOL0     H24075  11.701  11.534   9.417  0.0613  0.9790 -1.2436
  940MOL0     H24076  11.850  11.668   9.551  1.4084  1.5032  0.0748
  940MOL0     H24077  11.849  11.730   9.388 -0.1456 -1.6008 -1.2907
  940MOL0     H24078  11.645  12.025   9.629 -0.1288 -0.7829  1.5245
  940MOL0     H24079  11.350  11.459   9.735 -0.9394 -0.9697  2.3649
  940MOL0     H24080  11.182  11.279   9.727 -0.3911 -0.7008 -1.3972
  941MOL0     O24081   2.919   3.782   4.320  0.3381  0.7213 -0.6801
  941MOL0     C24082   3.030   3.763   4.373  0.2531 -0.4369 -0.0021
  941MOL0     O24083   3.060   3.656   4.463  0.0828  0.2282  0.5385
  941MOL0     C24084   2.959   3.573   4.488  1.7846 -0.2584 -0.1365
  941MOL0     C24085   2.989   3.436   4.499  0.1236  0.1424  0.0406
  941MOL0     C24086   2.889   3.346   4.549  0.0191  0.1946  0.5142
  941MOL0     C24087   2.763   3.397   4.590 -0.2321  0.3386 -0.1759
  941MOL0     O24088   2.667   3.300   4.608 -0.6959 -0.1483  0.2304
  941MOL0     C24089   2.529   3.328   4.628  0.6377  0.0953 -0.4617
  941MOL0     C24090   2.463   3.203   4.576  0.3197  1.2677  0.0573
  941MOL0     C24091   2.306   3.200   4.594  0.0860 -0.1126 -0.2134
  941MOL0     C24092   2.251   3.072   4.536 -0.1219  0.3348  0.1232
  941MOL0     C24093   2.096   3.063   4.535  0.8711 -0.1872 -0.1712
  941MOL0     C24094   2.036   3.076   4.684 -0.7434 -0.1960  0.0928
  941MOL0     C24095   1.893   3.030   4.683  0.3688 -0.8515  0.0143
  941MOL0     C24096   1.834   3.073   4.817  1.0617 -0.0479 -0.6129
  941MOL0     N24097   1.679   3.061   4.823 -0.4893  0.0442 -0.6738
  941MOL0     C24098   1.607   2.950   4.872 -0.8478 -0.0347 -0.4555
  941MOL0     C24099   1.476   2.981   4.863  0.1070  0.2327 -0.7565
  941MOL0     C24100   1.371   2.884   4.900  0.1688  1.1606  0.2822
  941MOL0     C24101   1.308   2.825   4.771  0.4422 -1.3116 -0.7865
  941MOL0     C24102   1.402   2.741   4.686 -0.1516  0.6277 -0.1019
  941MOL0     C24103   1.349   2.692   4.558 -0.2823 -0.6258  1.0057
  941MOL0     O24104   1.436   2.594   4.486  0.4904 -0.0589  0.3684
  941MOL0     C24105   1.560   2.616   4.433  0.0333 -0.3042  0.1562
  941MOL0     C24106   1.627   2.745   4.416  1.3792  0.1883 -0.6972
  941MOL0     C24107   1.741   2.746   4.341 -1.2942 -1.1593  1.1475
  941MOL0     C24108   1.794   2.629   4.288 -0.1160 -1.2050  0.1977
  941MOL0     C24109   1.924   2.630   4.233  0.0960 -0.0376 -0.5604
  941MOL0     O24110   1.972   2.746   4.177 -0.0705 -0.5362 -0.0003
  941MOL0     C24111   2.108   2.766   4.175 -0.0739  0.1855 -0.1328
  941MOL0     C24112   2.196   2.760   4.284  0.6324 -0.8876  0.5568
  941MOL0     C24113   2.335   2.792   4.270  0.1270 -1.5117  0.2826
  941MOL0     C24114   2.392   2.826   4.146  1.2117  0.6216 -0.3454
  941MOL0     O24115   2.523   2.850   4.118 -0.1328  0.0718  0.1478
  941MOL0     C24116   2.616   2.824   4.228  0.2710  0.0824  0.4603
  941MOL0     C24117   2.765   2.807   4.173 -0.1119  0.1145 -0.0530
  941MOL0     C24118   2.790   2.661   4.128 -0.1022 -0.1552 -0.4766
  941MOL0     C24119   2.934   2.617   4.132  0.3937 -0.3308  0.4655
  941MOL0     C24120   2.956   2.482   4.054  0.0169 -0.3826 -0.6955
  941MOL0     C24121   3.101   2.449   4.033 -0.3389 -0.2770 -0.4455
  941MOL0     C24122   3.101   2.322   3.945  0.4804 -0.2212  0.1775
  941MOL0     C24123   3.237   2.276   3.906 -0.0454  0.5075  0.5310
  941MOL0    Cl24124   3.315   2.387   3.787 -0.1476  0.6030 -0.5074
  941MOL0     C24125   2.295   2.835   4.037  0.4589  0.2867 -0.1824
  941MOL0     C24126   2.161   2.809   4.051  0.8880 -0.0927 -0.5877
  941MOL0     O24127   1.987   2.525   4.223  0.5011 -0.0277  0.5611
  941MOL0     C24128   1.726   2.508   4.292 -0.0343 -0.4417  0.2965
  941MOL0     C24129   1.612   2.499   4.373  0.3616 -0.3333  0.3067
  941MOL0     N24130   1.473   3.107   4.812  0.4033  0.4031  0.0047
  941MOL0     N24131   1.594   3.150   4.786 -0.5607 -0.1460  0.0514
  941MOL0     C24132   2.742   3.539   4.600 -0.1535 -0.4555 -0.4114
  941MOL0     C24133   2.839   3.626   4.541  0.3412  0.6841  0.0560
  941MOL0     C24134   3.146   3.850   4.327 -0.2097 -0.2384  0.6887
  941MOL0     C24135   3.274   3.801   4.355  0.6000  0.0398 -0.2019
  941MOL0     C24136   3.385   3.880   4.341 -0.3632 -0.6164 -0.0287
  941MOL0     C24137   3.376   4.009   4.301 -0.6157  0.1829 -0.1234
  941MOL0     O24138   3.483   4.082   4.267 -0.0075 -0.3535  0.1154
  941MOL0     C24139   3.521   4.051   4.132 -0.2777 -0.4673 -0.7213
  941MOL0     C24140   3.663   4.116   4.088  0.5701  0.0698  0.0026
  941MOL0     C24141   3.650   4.270   4.072  0.9924  0.1843  1.2337
  941MOL0     C24142   3.770   4.333   4.003  0.0374 -0.0092  0.1632
  941MOL0     C24143   3.893   4.304   4.077  0.1648  0.1739 -0.9463
  941MOL0     C24144   3.990   4.279   4.141 -0.0338  0.1421 -0.3461
  941MOL0     C24145   3.253   4.062   4.279  0.1656  0.1448  0.1017
  941MOL0     C24146   3.142   3.982   4.278 -0.5454  0.6943  0.1119
  941MOL0     H24147   3.087   3.407   4.462  1.1864  1.8627  1.3587
  941MOL0     H24148   2.903   3.238   4.551  3.2125  0.4873  3.1912
  941MOL0     H24149   2.498   3.410   4.562  0.7083  0.5892  0.1078
  941MOL0     H24150   2.506   3.345   4.734  0.4121  2.1126 -0.7912
  941MOL0     H24151   2.509   3.112   4.617  0.9886  1.4411 -0.2917
  941MOL0     H24152   2.481   3.202   4.468  0.2895 -1.4937  0.0024
  941MOL0     H24153   2.272   3.291   4.544  0.3811  0.0887 -0.0486
  941MOL0     H24154   2.277   3.208   4.699 -0.2106  0.3742 -0.3316
  941MOL0     H24155   2.289   3.060   4.434 -0.5992 -0.6530  0.0545
  941MOL0     H24156   2.288   2.985   4.590  0.6851 -0.2150 -1.2712
  941MOL0     H24157   2.072   2.962   4.502  1.8531 -0.3881 -0.3089
  941MOL0     H24158   2.051   3.142   4.473 -1.1136 -1.0244  0.1358
  941MOL0     H24159   2.041   3.179   4.720 -1.1724 -0.3596  0.6410
  941MOL0     H24160   2.084   3.009   4.756 -1.9906 -0.3862  0.7768
  941MOL0     H24161   1.839   3.084   4.604  3.3810  0.8188 -1.0920
  941MOL0     H24162   1.891   2.923   4.665  2.4621 -1.0130  0.4201
  941MOL0     H24163   1.857   3.179   4.831 -0.6704  0.5222 -1.7420
  941MOL0     H24164   1.868   3.013   4.901  1.5047  0.9670 -0.0587
  941MOL0     H24165   1.639   2.850   4.900 -0.5176 -0.1700 -1.2882
  941MOL0     H24166   1.292   2.926   4.964 -0.9052 -2.5836  1.6918
  941MOL0     H24167   1.406   2.793   4.950 -1.6014  1.3626  2.0024
  941MOL0     H24168   1.271   2.912   4.715 -0.6805  0.7821  2.8522
  941MOL0     H24169   1.224   2.763   4.804  1.8116 -3.4417 -1.1055
  941MOL0     H24170   1.497   2.795   4.675 -0.0200  0.2916 -0.6458
  941MOL0     H24171   1.429   2.650   4.739 -2.0252 -0.5380 -1.0275
  941MOL0     H24172   1.346   2.782   4.495 -0.6786  0.4426  2.4897
  941MOL0     H24173   1.245   2.662   4.568 -0.5536 -0.9059 -1.8569
  941MOL0     H24174   1.579   2.835   4.452 -1.9723 -1.4273 -0.7633
  941MOL0     H24175   1.797   2.834   4.310 -2.2225 -0.7115  0.7183
  941MOL0     H24176   2.156   2.744   4.384 -1.0763  3.1403  0.7094
  941MOL0     H24177   2.397   2.801   4.358 -1.0845 -0.8930  1.1055
  941MOL0     H24178   2.583   2.734   4.281 -1.4850 -1.2240 -2.5493
  941MOL0     H24179   2.612   2.909   4.297 -0.9927  0.4265  0.0032
  941MOL0     H24180   2.830   2.825   4.259  1.3770 -1.7459 -0.7286
  941MOL0     H24181   2.795   2.873   4.091  2.5580  1.7668  2.0825
  941MOL0     H24182   2.731   2.657   4.036 -5.4137  2.5503  2.3410
  941MOL0     H24183   2.731   2.606   4.202 -0.7919  0.5783 -0.4717
  941MOL0     H24184   3.004   2.696   4.103  2.2386 -1.2105  2.1978
  941MOL0     H24185   2.951   2.603   4.239 -2.0134  0.4976  1.0222
  941MOL0     H24186   2.907   2.496   3.957  0.7961  1.2423 -0.9060
  941MOL0     H24187   2.901   2.404   4.107 -2.0592  2.2724  1.3823
  941MOL0     H24188   3.170   2.447   4.118 -1.2377 -2.2287  0.2916
  941MOL0     H24189   3.147   2.519   3.963 -0.1641  0.8120  0.7223
  941MOL0     H24190   3.046   2.240   3.992  0.0744 -0.0517  0.0037
  941MOL0     H24191   3.042   2.334   3.854 -0.9221 -1.6860  0.8517
  941MOL0     H24192   3.233   2.175   3.864  0.3338  0.4915  0.5273
  941MOL0     H24193   3.306   2.285   3.991  0.5031  3.0754 -0.1102
  941MOL0     H24194   2.338   2.860   3.940  4.4193  3.2532  2.0557
  941MOL0     H24195   2.093   2.822   3.968 -0.6637  2.1945  0.9398
  941MOL0     H24196   1.754   2.412   4.250  2.0925 -0.5344  1.7416
  941MOL0     H24197   1.564   2.402   4.369  0.2754 -0.3857  1.8633
  941MOL0     H24198   2.647   3.587   4.622  0.5514  0.3535  1.0167
  941MOL0     H24199   2.833   3.735   4.539  2.3037  0.8692 -3.1514
  941MOL0     H24200   3.286   3.698   4.386 -2.8026  0.1594  2.0594
  941MOL0     H24201   3.477   3.822   4.352  0.1251 -0.6034 -3.1918
  941MOL0     H24202   3.443   4.061   4.056 -1.3959  0.0272  0.4490
  941MOL0     H24203   3.550   3.946   4.137  0.2876 -0.2877  3.3388
  941MOL0     H24204   3.739   4.093   4.163 -0.1113  2.3450  1.5062
  941MOL0     H24205   3.692   4.081   3.989 -1.6224  1.1961 -1.1018
  941MOL0     H24206   3.626   4.322   4.165  0.6853  0.9026  0.7522
  941MOL0     H24207   3.561   4.295   4.014  0.7312  0.4703  1.7536
  941MOL0     H24208   3.772   4.288   3.903 -1.4392 -0.5980  0.3744
  941MOL0     H24209   3.755   4.438   3.976  1.0053  0.3706  1.0500
  941MOL0     H24210   4.069   4.253   4.209  0.1270  1.4429 -0.0018
  941MOL0     H24211   3.244   4.161   4.234 -3.1214  0.7131  1.6588
  941MOL0     H24212   3.043   4.019   4.252 -1.0367  0.1772  1.1673
  942MOL0     O24213  10.640   0.751   0.723 -0.2421  1.5287 -0.8579
  942MOL0     C24214  10.657   0.664   0.638 -0.3905  0.7086  0.2354
  942MOL0     O24215  10.564   0.577   0.599  0.5025 -0.0632 -0.3851
  942MOL0     C24216  10.435   0.588   0.645 -0.2058  0.3636  0.2221
  942MOL0     C24217  10.363   0.467   0.618  0.0418 -0.0637 -0.1172
  942MOL0     C24218  10.229   0.456   0.666 -0.1599  0.6739  0.0621
  942MOL0     C24219  10.167   0.556   0.735  0.3043  0.9147  0.0938
  942MOL0     O24220  10.028   0.540   0.764 -0.0388 -0.1487 -0.2005
  942MOL0     C24221   9.959   0.442   0.692 -0.2531 -0.1773 -0.0434
  942MOL0     C24222   9.814   0.453   0.708  0.4190  0.2065 -0.1967
  942MOL0     C24223   9.763   0.590   0.683  0.1163 -1.3683 -0.1181
  942MOL0     C24224   9.611   0.587   0.651  0.0171 -0.3215  0.3775
  942MOL0     C24225   9.550   0.737   0.629 -0.4440  1.1953  0.4504
  942MOL0     C24226   9.554   0.819   0.758 -0.1836 -0.9342 -0.4228
  942MOL0     C24227   9.458   0.940   0.747  0.1107 -0.1377  0.3583
  942MOL0     C24228   9.452   1.018   0.876  0.2391 -0.0096  0.2848
  942MOL0     N24229   9.380   1.142   0.865  0.2644 -0.7928 -0.7162
  942MOL0     C24230   9.358   1.223   0.757  1.1362  1.3000  0.0031
  942MOL0     C24231   9.266   1.313   0.793 -0.0358 -0.6203  0.1879
  942MOL0     C24232   9.212   1.410   0.682  0.3715  0.6359 -0.0963
  942MOL0     C24233   9.110   1.508   0.739  0.6154 -0.1621 -0.1501
  942MOL0     C24234   9.167   1.606   0.838 -0.2977 -0.1118 -0.4264
  942MOL0     C24235   9.058   1.701   0.896  0.0558  0.1070 -0.1354
  942MOL0     O24236   9.026   1.800   0.792 -0.2669 -0.2036  0.3057
  942MOL0     C24237   8.918   1.882   0.809  0.1706 -0.6921 -0.3778
  942MOL0     C24238   8.905   1.986   0.722  1.1039  0.2117  0.0073
  942MOL0     C24239   8.807   2.083   0.729 -0.8120 -1.0587 -0.2264
  942MOL0     C24240   8.711   2.078   0.829 -0.7464  1.3273 -0.8530
  942MOL0     C24241   8.601   2.177   0.835 -0.1550 -0.6415 -0.6061
  942MOL0     O24242   8.500   2.160   0.926  0.1963 -0.3245 -0.3133
  942MOL0     C24243   8.372   2.175   0.904  0.2966 -0.9031 -0.8447
  942MOL0     C24244   8.288   2.189   1.020 -0.3014 -0.2597 -0.3729
  942MOL0     C24245   8.151   2.198   0.994 -0.8335 -0.1449 -0.6559
  942MOL0     C24246   8.097   2.182   0.869  0.4560  0.0492  0.1893
  942MOL0     O24247   7.963   2.190   0.862 -0.5384 -0.2043  0.0897
  942MOL0     C24248   7.894   2.140   0.743 -0.1212 -0.1361 -0.1360
  942MOL0     C24249   7.763   2.113   0.808  0.2158  0.6742  0.1436
  942MOL0     C24250   7.664   2.055   0.702  0.4276 -0.6838  0.3234
  942MOL0     C24251   7.520   2.065   0.758 -0.0130 -0.1569  0.4183
  942MOL0     C24252   7.417   2.041   0.655 -0.2293 -0.4948 -0.3751
  942MOL0     C24253   7.388   1.892   0.650  0.4489  0.5221 -0.2545
  942MOL0     C24254   7.288   1.876   0.528 -0.1123  0.6240 -0.9603
  942MOL0     C24255   7.233   1.734   0.524 -0.8873  0.0132 -0.4959
  942MOL0    Cl24256   7.118   1.719   0.401  0.0533  0.3925 -0.1658
  942MOL0     C24257   8.183   2.169   0.759  0.3484 -0.3804 -0.4368
  942MOL0     C24258   8.324   2.168   0.771  0.0740 -0.0482 -0.5923
  942MOL0     O24259   8.598   2.262   0.744  0.0124 -0.1025 -0.4037
  942MOL0     C24260   8.719   1.977   0.927 -0.1736  0.3062 -0.0206
  942MOL0     C24261   8.827   1.891   0.922 -0.9636 -0.8799  0.0577
  942MOL0     N24262   9.242   1.293   0.922  0.2222 -0.6115 -0.8689
  942MOL0     N24263   9.296   1.186   0.958 -0.4466  0.6314 -0.5202
  942MOL0     C24264  10.238   0.665   0.764  0.0706 -1.0209 -0.2595
  942MOL0     C24265  10.371   0.678   0.733  0.5127 -0.9949  0.6707
  942MOL0     C24266  10.786   0.661   0.563 -1.1720 -0.0181  0.8547
  942MOL0     C24267  10.822   0.567   0.457 -0.6869 -0.6690 -0.4136
  942MOL0     C24268  10.935   0.594   0.377 -0.0682  0.3339 -0.7719
  942MOL0     C24269  11.022   0.700   0.404  0.6472  0.3732 -0.1179
  942MOL0     O24270  11.126   0.706   0.322  0.8795 -0.5955 -0.3853
  942MOL0     C24271  11.227   0.818   0.328 -0.1027 -0.0571 -0.9056
  942MOL0     C24272  11.299   0.827   0.194  0.7864  0.0626  0.4044
  942MOL0     C24273  11.380   0.695   0.165 -0.4555 -0.0013  0.7653
  942MOL0     C24274  11.515   0.695   0.230 -0.2804  0.4912 -0.2942
  942MOL0     C24275  11.605   0.599   0.172 -0.0371 -0.1712  0.6783
  942MOL0     C24276  11.671   0.529   0.102  0.0792  0.2024  0.3021
  942MOL0     C24277  10.993   0.788   0.504 -0.7498  0.3952 -0.3907
  942MOL0     C24278  10.872   0.774   0.587 -0.1219  0.1856  0.0391
  942MOL0     H24279  10.401   0.388   0.553 -1.4663 -0.9347  0.0162
  942MOL0     H24280  10.174   0.369   0.629 -2.4262  2.7553 -1.8671
  942MOL0     H24281   9.991   0.341   0.720  0.8995 -0.0938 -1.0071
  942MOL0     H24282   9.967   0.471   0.587  0.5564 -0.8036 -0.1614
  942MOL0     H24283   9.775   0.416   0.804  0.0079  0.7803 -0.1354
  942MOL0     H24284   9.775   0.392   0.626 -0.1123 -0.4350  0.5057
  942MOL0     H24285   9.826   0.651   0.618 -1.1460  0.3350  0.2087
  942MOL0     H24286   9.778   0.643   0.778  0.0754  0.3707 -1.0580
  942MOL0     H24287   9.597   0.538   0.554 -2.1316  2.7696 -1.0411
  942MOL0     H24288   9.554   0.539   0.731  0.4423 -1.1271  0.2067
  942MOL0     H24289   9.448   0.722   0.593  0.0812  1.6774 -1.3475
  942MOL0     H24290   9.602   0.796   0.551 -1.6923  0.7471 -0.7557
  942MOL0     H24291   9.657   0.847   0.785 -0.5420  2.9001 -2.4372
  942MOL0     H24292   9.518   0.755   0.840  2.8426 -1.7134  0.4697
  942MOL0     H24293   9.504   0.998   0.667 -1.9315  0.1836 -0.6545
  942MOL0     H24294   9.363   0.904   0.706  1.0897 -1.9851 -0.4353
  942MOL0     H24295   9.544   1.034   0.934 -2.0982  2.8311  3.6522
  942MOL0     H24296   9.395   0.956   0.946 -0.7636  0.4020 -0.1520
  942MOL0     H24297   9.395   1.211   0.655  2.3453 -2.2671  0.7212
  942MOL0     H24298   9.171   1.355   0.596  1.6608 -0.3016 -0.1396
  942MOL0     H24299   9.300   1.465   0.646  0.1291  0.0834 -1.6353
  942MOL0     H24300   9.032   1.449   0.788 -0.9340  0.7538 -1.4152
  942MOL0     H24301   9.067   1.567   0.658  1.2271  1.8628  0.9326
  942MOL0     H24302   9.217   1.553   0.919  2.4462 -0.7517 -2.3816
  942MOL0     H24303   9.247   1.657   0.783 -0.2737  0.0897 -0.2057
  942MOL0     H24304   9.095   1.752   0.985  0.0653  0.4414 -0.3280
  942MOL0     H24305   8.961   1.654   0.913 -0.1260  0.2707 -0.7050
  942MOL0     H24306   8.963   1.994   0.630 -1.6186 -1.0369 -1.9578
  942MOL0     H24307   8.814   2.160   0.653 -3.6477 -1.0267 -0.5604
  942MOL0     H24308   8.344   2.187   1.114 -0.5249  0.6906 -0.2006
  942MOL0     H24309   8.075   2.204   1.072  0.5158  0.3410  0.6788
  942MOL0     H24310   7.946   2.051   0.706  2.0473  0.0440  2.1657
  942MOL0     H24311   7.894   2.214   0.663 -0.3527 -1.3863 -1.3261
  942MOL0     H24312   7.713   2.203   0.844  1.9185  0.3240  3.8108
  942MOL0     H24313   7.764   2.051   0.898 -2.3737  0.6460  0.2429
  942MOL0     H24314   7.692   1.952   0.682  0.6780 -0.5014 -0.2628
  942MOL0     H24315   7.671   2.112   0.609  1.8759 -2.6843 -0.8414
  942MOL0     H24316   7.506   2.003   0.847  0.8811  0.2275  0.8399
  942MOL0     H24317   7.493   2.164   0.796 -2.2917 -1.0802  1.4096
  942MOL0     H24318   7.448   2.076   0.556  1.1012 -3.3618 -1.0714
  942MOL0     H24319   7.328   2.096   0.688  0.5177  0.1881  0.5156
  942MOL0     H24320   7.340   1.856   0.741 -0.7509  0.2946 -0.9594
  942MOL0     H24321   7.482   1.836   0.636 -0.0345 -0.3505 -0.0877
  942MOL0     H24322   7.204   1.943   0.548 -1.0334 -0.3902 -1.3508
  942MOL0     H24323   7.350   1.894   0.440 -1.1561 -3.2289 -2.6839
  942MOL0     H24324   7.194   1.704   0.622  3.3987 -4.0218  0.3359
  942MOL0     H24325   7.315   1.664   0.509 -1.3190 -0.8105  0.8166
  942MOL0     H24326   8.142   2.163   0.659  0.5091  1.2028 -0.6276
  942MOL0     H24327   8.385   2.157   0.682 -1.3520 -2.1753 -1.3711
  942MOL0     H24328   8.656   1.971   1.016  0.9858  1.0590  0.8872
  942MOL0     H24329   8.833   1.829   1.011 -0.6035 -2.1748 -0.8323
  942MOL0     H24330  10.194   0.743   0.824  3.4835 -0.7598  2.2143
  942MOL0     H24331  10.416   0.770   0.772 -0.0309 -1.4764  2.5518
  942MOL0     H24332  10.762   0.477   0.443 -2.5439  0.0941  1.9718
  942MOL0     H24333  10.968   0.522   0.302  1.7364 -0.5564  0.8103
  942MOL0     H24334  11.284   0.792   0.418 -3.5458  1.1557  1.8554
  942MOL0     H24335  11.182   0.917   0.343 -0.0518  0.2180 -2.4244
  942MOL0     H24336  11.232   0.829   0.108 -0.5759 -1.5256  1.3738
  942MOL0     H24337  11.360   0.918   0.198  1.1806 -0.0336 -1.9202
  942MOL0     H24338  11.399   0.677   0.059  1.4677 -0.4051  1.1311
  942MOL0     H24339  11.319   0.608   0.191 -2.4388  0.7760 -1.0169
  942MOL0     H24340  11.561   0.793   0.210 -0.8212  0.5937 -1.0626
  942MOL0     H24341  11.506   0.669   0.336 -2.7911  0.1463 -0.5345
  942MOL0     H24342  11.706   0.462   0.026 -2.1141  2.5205 -3.0174
  942MOL0     H24343  11.054   0.875   0.525 -1.1850  0.6632 -0.2079
  942MOL0     H24344  10.837   0.862   0.640 -0.4303  1.5637 -2.3082
  943MOL0     O24345   0.028   1.659   3.777 -0.0396  0.2073 -1.0730
  943MOL0     C24346   0.125   1.603   3.734 -0.2970  0.4195 -0.4826
  943MOL0     O24347   0.118   1.478   3.671  0.8200  0.1562  0.4049
  943MOL0     C24348  -0.007   1.434   3.624 -0.4301  0.5804  0.5580
  943MOL0     C24349  -0.106   1.524   3.569 -0.9323  0.1556 -1.5673
  943MOL0     C24350  -0.228   1.477   3.516  0.4200  0.5464 -0.0368
  943MOL0     C24351  -0.249   1.336   3.492  0.2510  0.6404  0.5596
  943MOL0     O24352  -0.365   1.289   3.428 -0.6879 -0.0438 -0.3191
  943MOL0     C24353  -0.395   1.150   3.432  0.0926  0.6900 -0.7824
  943MOL0     C24354  -0.511   1.128   3.346  0.2255 -0.3783 -0.7696
  943MOL0     C24355  -0.639   1.193   3.387 -0.1854 -0.3995 -0.8444
  943MOL0     C24356  -0.773   1.125   3.351 -0.1630  1.0215  0.4219
  943MOL0     C24357  -0.799   0.983   3.424  0.8145 -0.0545 -0.3066
  943MOL0     C24358  -0.956   0.962   3.415 -1.4465  0.3278  0.1188
  943MOL0     C24359  -1.001   0.837   3.474  0.4912  0.1371  0.4786
  943MOL0     C24360  -1.156   0.818   3.463  0.8063 -0.2513 -0.6273
  943MOL0     N24361  -1.196   0.702   3.544  0.6243  0.2240  0.7649
  943MOL0     C24362  -1.184   0.700   3.679  0.6743 -0.1959  0.5325
  943MOL0     C24363  -1.248   0.584   3.717 -0.0928  0.5553 -0.4063
  943MOL0     C24364  -1.259   0.527   3.854 -0.3836  0.0797  0.7832
  943MOL0     C24365  -1.408   0.559   3.889  0.4236 -0.3978 -0.0963
  943MOL0     C24366  -1.485   0.435   3.924 -1.1417 -1.0562  0.0223
  943MOL0     C24367  -1.632   0.465   3.967  1.0190 -0.6664  0.1232
  943MOL0     O24368  -1.705   0.470   3.839 -0.4847  0.3676 -0.0455
  943MOL0     C24369  -1.834   0.514   3.825 -0.2893 -0.3517  0.4166
  943MOL0     C24370  -1.870   0.557   3.694  0.2416  0.6134 -0.3798
  943MOL0     C24371  -2.002   0.595   3.675  0.0609  0.1926 -0.9055
  943MOL0     C24372  -2.095   0.605   3.783 -0.0151  0.5083 -0.0482
  943MOL0     C24373  -2.230   0.679   3.756 -0.3394  0.2127  0.9007
  943MOL0     O24374  -2.318   0.678   3.855  0.2405  0.2079 -0.2495
  943MOL0     C24375  -2.440   0.737   3.837  0.8700  0.0904 -0.2520
  943MOL0     C24376  -2.530   0.659   3.781  0.0830 -0.2508 -0.0933
  943MOL0     C24377  -2.663   0.703   3.780 -0.6963  0.5341 -0.1510
  943MOL0     C24378  -2.695   0.833   3.825 -0.5290 -0.3692  0.0501
  943MOL0     O24379  -2.822   0.887   3.822 -0.1490 -0.8692 -0.0896
  943MOL0     C24380  -2.924   0.803   3.773  0.9917  0.2334  0.2366
  943MOL0     C24381  -3.057   0.879   3.789 -0.7421 -0.2127 -0.5630
  943MOL0     C24382  -3.183   0.790   3.792  1.1089 -0.0959  0.0599
  943MOL0     C24383  -3.320   0.860   3.791 -0.1749 -0.0317 -0.1803
  943MOL0     C24384  -3.442   0.767   3.776 -1.3676  0.1272 -0.2945
  943MOL0     C24385  -3.572   0.841   3.742  0.2153 -0.5234  0.0214
  943MOL0     C24386  -3.620   0.928   3.862 -0.0204 -0.3731 -0.2051
  943MOL0     C24387  -3.722   1.022   3.814 -0.2365 -0.0256  0.3126
  943MOL0    Cl24388  -3.868   0.942   3.786 -0.2002  0.1114  0.4029
  943MOL0     C24389  -2.606   0.917   3.885 -0.4620  0.5969  1.4025
  943MOL0     C24390  -2.473   0.863   3.894 -1.0333  0.4809  0.1821
  943MOL0     O24391  -2.245   0.718   3.642 -0.0880 -0.3632  0.4457
  943MOL0     C24392  -2.055   0.573   3.905 -0.2533  0.3212 -0.4703
  943MOL0     C24393  -1.929   0.515   3.930  0.4220  0.0436  0.6713
  943MOL0     N24394  -1.292   0.520   3.601 -0.4418 -0.4175 -0.7511
  943MOL0     N24395  -1.252   0.590   3.502 -0.3126  0.2052  0.6238
  943MOL0     C24396  -0.148   1.245   3.538  0.1342 -1.1762 -0.4692
  943MOL0     C24397  -0.036   1.296   3.600 -0.3444 -1.3727 -0.6238
  943MOL0     C24398   0.258   1.665   3.732  0.1576 -0.9222 -0.0365
  943MOL0     C24399   0.262   1.805   3.720 -0.8919 -0.3918 -0.0936
  943MOL0     C24400   0.388   1.860   3.717 -0.4368 -0.2514 -0.0999
  943MOL0     C24401   0.508   1.783   3.721 -0.2696 -0.2178  1.1270
  943MOL0     O24402   0.631   1.839   3.705 -0.7421  0.3594 -0.3248
  943MOL0     C24403   0.638   1.955   3.631 -0.3306 -1.4225 -0.2006
  943MOL0     C24404   0.779   1.970   3.592  0.3839  0.4752 -0.0380
  943MOL0     C24405   0.856   2.063   3.688  0.1154 -0.7368  0.8773
  943MOL0     C24406   1.006   2.096   3.646 -0.3823 -0.1584 -0.8706
  943MOL0     C24407   1.070   2.186   3.753  0.0261  0.1596  1.4854
  943MOL0     C24408   1.108   2.247   3.849 -0.7487 -0.9822  0.4761
  943MOL0     C24409   0.501   1.644   3.743  0.2259 -0.3523 -0.3128
  943MOL0     C24410   0.377   1.587   3.757  0.1579  1.0338  0.2498
  943MOL0     H24411  -0.096   1.631   3.584 -0.3487  0.4555 -3.7113
  943MOL0     H24412  -0.305   1.546   3.480 -0.4944 -1.8239 -3.1367
  943MOL0     H24413  -0.431   1.118   3.530  0.9055 -1.5535 -1.1383
  943MOL0     H24414  -0.317   1.076   3.409  0.7276  0.4006  1.9461
  943MOL0     H24415  -0.541   1.022   3.343 -1.0252 -0.0679  0.1235
  943MOL0     H24416  -0.481   1.170   3.250  3.1996  0.6878  0.5173
  943MOL0     H24417  -0.647   1.291   3.339 -1.7323 -0.0613  0.0409
  943MOL0     H24418  -0.633   1.213   3.494  1.2271 -1.5755 -0.6904
  943MOL0     H24419  -0.853   1.198   3.367 -1.7194 -0.8231  1.4624
  943MOL0     H24420  -0.785   1.097   3.246 -0.7366  1.4610  0.3640
  943MOL0     H24421  -0.761   0.976   3.527  1.6044 -0.1360 -0.6015
  943MOL0     H24422  -0.740   0.906   3.373  0.6282 -1.6664  1.7592
  943MOL0     H24423  -0.983   0.965   3.309  0.9626  2.2114 -0.5291
  943MOL0     H24424  -1.009   1.043   3.466 -1.1061 -0.0632  1.1211
  943MOL0     H24425  -0.958   0.747   3.430 -1.2933  0.3772 -1.9665
  943MOL0     H24426  -0.971   0.840   3.579 -2.9098  0.2547  1.5907
  943MOL0     H24427  -1.192   0.812   3.360  1.3941  4.2768 -1.2914
  943MOL0     H24428  -1.205   0.909   3.498  1.5022 -0.4557  0.9578
  943MOL0     H24429  -1.146   0.779   3.743  2.2945 -0.7882  0.3638
  943MOL0     H24430  -1.189   0.580   3.919 -0.5975  1.6838 -0.2088
  943MOL0     H24431  -1.236   0.421   3.864 -0.1234  0.0889  0.3161
  943MOL0     H24432  -1.473   0.603   3.813  0.8786 -0.9780 -0.8337
  943MOL0     H24433  -1.398   0.625   3.975  2.2018 -0.6247 -0.1010
  943MOL0     H24434  -1.478   0.361   3.844 -1.9461  0.7779 -1.8367
  943MOL0     H24435  -1.448   0.398   4.020  0.2607  2.3838  0.9744
  943MOL0     H24436  -1.646   0.553   4.031 -0.2728  0.8380 -2.1045
  943MOL0     H24437  -1.671   0.381   4.026  0.1210 -2.2673 -2.5745
  943MOL0     H24438  -1.796   0.560   3.615 -1.4561  1.8335 -2.0277
  943MOL0     H24439  -2.016   0.619   3.570  4.6975  2.4340 -1.2609
  943MOL0     H24440  -2.519   0.565   3.728 -0.9188 -1.4262  1.7230
  943MOL0     H24441  -2.730   0.635   3.728  1.4386 -0.1659 -2.1638
  943MOL0     H24442  -2.930   0.707   3.825  3.8690 -0.7426 -1.0233
  943MOL0     H24443  -2.919   0.779   3.667  0.5230 -3.8104  0.9550
  943MOL0     H24444  -3.062   0.956   3.711 -0.8292 -0.5403 -0.8797
  943MOL0     H24445  -3.056   0.933   3.884  0.1657  0.4992 -0.9518
  943MOL0     H24446  -3.182   0.734   3.887  0.9901 -1.5077 -0.7379
  943MOL0     H24447  -3.176   0.726   3.703 -1.2148  1.9193 -1.6747
  943MOL0     H24448  -3.330   0.922   3.881  1.6797  1.3963 -0.8722
  943MOL0     H24449  -3.328   0.927   3.704 -3.1909 -0.3341 -0.2307
  943MOL0     H24450  -3.451   0.705   3.866  1.0112  1.1346  0.7086
  943MOL0     H24451  -3.416   0.693   3.701  3.9070 -2.8457  3.7340
  943MOL0     H24452  -3.649   0.765   3.724  0.0552 -0.4637  0.4607
  943MOL0     H24453  -3.557   0.906   3.655 -2.8740  2.7814  1.7013
  943MOL0     H24454  -3.652   0.873   3.951 -1.6663  1.5289  0.4514
  943MOL0     H24455  -3.537   0.994   3.889 -1.0087  0.1208  1.7854
  943MOL0     H24456  -3.686   1.086   3.733 -1.1460 -0.7733 -0.7142
  943MOL0     H24457  -3.742   1.090   3.897 -1.7962  1.1523 -0.9580
  943MOL0     H24458  -2.648   1.010   3.921  0.2454  2.9205 -3.0698
  943MOL0     H24459  -2.400   0.919   3.952 -0.5173 -1.2704  1.3198
  943MOL0     H24460  -2.126   0.582   3.987 -0.4059 -0.6861 -0.4721
  943MOL0     H24461  -1.904   0.478   4.029  1.1178 -4.5583 -0.9545
  943MOL0     H24462  -0.157   1.138   3.521 -2.9110 -1.4279  1.6909
  943MOL0     H24463   0.029   1.225   3.650 -0.2604 -1.6162 -1.0743
  943MOL0     H24464   0.173   1.866   3.704 -3.3790 -4.1175 -2.0365
  943MOL0     H24465   0.403   1.961   3.681  1.3973 -0.2090  0.6798
  943MOL0     H24466   0.616   2.044   3.691 -1.9200 -1.4421 -0.7250
  943MOL0     H24467   0.576   1.940   3.542 -1.6993 -1.5654  0.7487
  943MOL0     H24468   0.826   1.871   3.589  2.4627  1.4450 -1.6390
  943MOL0     H24469   0.794   2.021   3.497  1.5482  1.5140  0.6660
  943MOL0     H24470   0.846   2.019   3.787  0.9295 -1.9105  0.4531
  943MOL0     H24471   0.808   2.162   3.688  3.1152  0.8569  0.9389
  943MOL0     H24472   1.069   2.006   3.643 -0.1758 -0.0002 -1.4458
  943MOL0     H24473   0.998   2.150   3.551 -0.8624  3.3315  0.9818
  943MOL0     H24474   1.147   2.311   3.926 -2.4794 -1.5880  1.9126
  943MOL0     H24475   0.592   1.586   3.751 -0.0016 -0.5815  0.7525
  943MOL0     H24476   0.381   1.479   3.766  1.0829  0.9869 -0.5133
  944MOL0     O24477   4.696   3.440   6.858  1.0055  0.0644  0.6300
  944MOL0     C24478   4.710   3.468   6.968  0.2653  0.1701 -0.5175
  944MOL0     O24479   4.609   3.513   7.047  0.3320 -0.8025  0.0186
  944MOL0     C24480   4.501   3.429   7.062 -0.5258  0.1039 -0.2980
  944MOL0     C24481   4.503   3.289   7.029  0.3788  0.1407  0.8144
  944MOL0     C24482   4.391   3.206   7.058 -0.5291 -0.9317 -0.4717
  944MOL0     C24483   4.278   3.275   7.115 -0.2508 -0.2482  0.5580
  944MOL0     O24484   4.157   3.211   7.130  0.0897 -0.4054 -0.4514
  944MOL0     C24485   4.110   3.115   7.038 -0.0173 -1.0054 -0.4577
  944MOL0     C24486   4.061   3.183   6.908 -0.4112 -0.4407 -0.3495
  944MOL0     C24487   4.023   3.073   6.815 -0.1798 -0.0758  0.0656
  944MOL0     C24488   3.889   3.015   6.863 -0.5393 -0.1991  0.2539
  944MOL0     C24489   3.816   2.908   6.770  0.5229 -0.8594 -0.6228
  944MOL0     C24490   3.914   2.794   6.737  0.5739 -0.6164  0.5562
  944MOL0     C24491   3.845   2.695   6.645  0.0943 -0.9424 -0.2012
  944MOL0     C24492   3.939   2.581   6.596  0.2944 -0.1930  0.2565
  944MOL0     N24493   4.044   2.632   6.513 -0.0848 -0.2411 -0.0822
  944MOL0     C24494   4.042   2.669   6.384  0.4822 -0.2029 -0.6047
  944MOL0     C24495   4.166   2.693   6.349 -1.3720 -0.6460  0.4401
  944MOL0     C24496   4.224   2.728   6.213  0.7778 -0.1939 -0.0502
  944MOL0     C24497   4.292   2.864   6.209  0.2135  0.7087 -0.1036
  944MOL0     C24498   4.331   2.921   6.068  0.1833 -0.0749  0.2407
  944MOL0     C24499   4.468   2.862   6.030  0.7830 -0.7407  0.0763
  944MOL0     O24500   4.510   2.905   5.897  0.2098  0.6208 -0.2248
  944MOL0     C24501   4.591   3.017   5.896  0.1768 -1.1135 -0.1755
  944MOL0     C24502   4.729   3.011   5.922 -0.5011 -0.1815  0.2050
  944MOL0     C24503   4.813   3.120   5.905  0.8653 -0.2233 -0.0704
  944MOL0     C24504   4.754   3.247   5.865  0.5235  0.4439  0.0710
  944MOL0     C24505   4.840   3.371   5.842  0.2935  0.6130  0.2189
  944MOL0     O24506   4.972   3.349   5.816  0.4654 -0.6292  0.1158
  944MOL0     C24507   5.051   3.457   5.820  1.0413  0.6523 -0.8907
  944MOL0     C24508   5.058   3.542   5.712  0.7007  0.5817 -0.5147
  944MOL0     C24509   5.134   3.659   5.713  0.1678  0.1340  0.3484
  944MOL0     C24510   5.207   3.687   5.835  0.1474 -0.1471  0.4195
  944MOL0     O24511   5.278   3.803   5.852 -0.0798 -0.4150 -0.0749
  944MOL0     C24512   5.250   3.914   5.758 -0.2153 -0.8903 -0.2482
  944MOL0     C24513   5.316   4.044   5.808 -0.1736 -0.7355  0.6546
  944MOL0     C24514   5.319   4.153   5.709 -0.3299 -0.3849 -0.3849
  944MOL0     C24515   5.181   4.203   5.651 -0.7037 -0.1582  0.3533
  944MOL0     C24516   5.234   4.311   5.557 -0.0298 -0.1660  0.1271
  944MOL0     C24517   5.128   4.377   5.467  0.3078  0.9294  0.3433
  944MOL0     C24518   5.055   4.281   5.376 -0.5125 -0.8234  0.1206
  944MOL0     C24519   5.143   4.173   5.302 -0.5912  0.8013  0.6272
  944MOL0    Cl24520   5.264   4.250   5.202 -0.4581  0.2968 -0.6456
  944MOL0     C24521   5.201   3.607   5.946 -1.2910  0.0590 -0.3197
  944MOL0     C24522   5.112   3.494   5.947 -0.7903 -0.5176  0.0669
  944MOL0     O24523   4.788   3.479   5.840  0.6056  0.8553 -0.1164
  944MOL0     C24524   4.621   3.249   5.846 -0.9029 -0.1212 -0.3167
  944MOL0     C24525   4.539   3.136   5.863  0.3107 -0.2287  0.4829
  944MOL0     N24526   4.248   2.684   6.454  0.1454  0.3238 -0.1886
  944MOL0     N24527   4.170   2.652   6.555  0.2527 -0.1969 -0.3166
  944MOL0     C24528   4.281   3.411   7.147  0.4075 -0.3513 -0.2804
  944MOL0     C24529   4.388   3.487   7.121  0.1714  0.7070  0.2300
  944MOL0     C24530   4.838   3.482   7.017  0.3785 -0.1084  1.3680
  944MOL0     C24531   4.952   3.459   6.936 -0.0646 -0.1004  0.0948
  944MOL0     C24532   5.080   3.462   6.991  0.2069  0.7770 -0.8048
  944MOL0     C24533   5.097   3.449   7.125  0.2675  0.1078  0.4897
  944MOL0     O24534   5.217   3.433   7.184  0.2827 -0.4948 -0.0089
  944MOL0     C24535   5.250   3.487   7.312 -0.5237  0.3840 -0.1220
  944MOL0     C24536   5.400   3.481   7.343  0.1714  0.6717 -0.0830
  944MOL0     C24537   5.483   3.547   7.223  0.7203 -0.4738 -0.5450
  944MOL0     C24538   5.620   3.554   7.261  0.2727 -1.2038  0.3446
  944MOL0     C24539   5.676   3.643   7.171  0.1818  0.1005  0.5207
  944MOL0     C24540   5.723   3.729   7.101 -0.7851  0.6860  0.4432
  944MOL0     C24541   4.982   3.469   7.204 -0.3594  1.1538  0.1169
  944MOL0     C24542   4.861   3.500   7.153 -0.1174  0.4391 -0.5503
  944MOL0     H24543   4.594   3.243   6.991 -0.4622 -0.9424  0.0561
  944MOL0     H24544   4.392   3.098   7.051  0.1670 -1.1142  1.6084
  944MOL0     H24545   4.019   3.079   7.088  0.5048  1.6604  2.7700
  944MOL0     H24546   4.180   3.031   7.038  0.0109 -1.0708  1.9137
  944MOL0     H24547   4.133   3.256   6.871 -2.0000  2.9946  2.6700
  944MOL0     H24548   3.975   3.241   6.943 -0.0825 -1.8571  3.2758
  944MOL0     H24549   4.109   3.009   6.795 -0.8743 -0.3909 -2.2714
  944MOL0     H24550   4.012   3.127   6.720 -0.5225  1.3700  0.9080
  944MOL0     H24551   3.899   2.968   6.961 -1.6882 -0.9477  0.0362
  944MOL0     H24552   3.819   3.097   6.883 -0.4363  0.0976 -0.5487
  944MOL0     H24553   3.771   2.960   6.684  0.8794  3.8528  1.7113
  944MOL0     H24554   3.724   2.868   6.814 -0.7985  0.4266 -2.0739
  944MOL0     H24555   3.947   2.740   6.826  1.2836 -2.6751 -0.8616
  944MOL0     H24556   4.005   2.834   6.690  1.1313 -0.4746  1.7245
  944MOL0     H24557   3.771   2.645   6.708 -3.3810  2.0211 -1.5774
  944MOL0     H24558   3.784   2.738   6.565 -2.4037 -0.9477  1.5915
  944MOL0     H24559   3.874   2.512   6.540 -0.1594  0.8094 -0.4779
  944MOL0     H24560   3.981   2.516   6.674  1.3190 -0.5191 -0.5476
  944MOL0     H24561   3.953   2.680   6.321 -0.3894  0.5571  0.7019
  944MOL0     H24562   4.146   2.728   6.137  0.3233 -2.0916  0.3913
  944MOL0     H24563   4.295   2.647   6.191  1.8121 -0.0182  2.3418
  944MOL0     H24564   4.371   2.867   6.284  0.0804  2.6281  0.0259
  944MOL0     H24565   4.222   2.936   6.253  0.3076  0.2338  0.8650
  944MOL0     H24566   4.249   2.915   5.996 -0.6028  0.7673  1.0496
  944MOL0     H24567   4.346   3.029   6.078  1.7038 -0.4494  2.9177
  944MOL0     H24568   4.459   2.753   6.030  0.4498 -0.8037  3.3709
  944MOL0     H24569   4.538   2.891   6.108  0.4200 -0.7726  0.4148
  944MOL0     H24570   4.777   2.920   5.957  1.8007  0.8339 -0.0961
  944MOL0     H24571   4.918   3.123   5.934  0.3630 -0.3007  1.8780
  944MOL0     H24572   5.004   3.506   5.625 -2.2056  0.0413  1.4039
  944MOL0     H24573   5.125   3.724   5.627  3.0264  1.2430  0.7905
  944MOL0     H24574   5.143   3.923   5.740 -0.6806 -0.4555  2.3941
  944MOL0     H24575   5.293   3.898   5.659  0.3905  2.0349 -0.5527
  944MOL0     H24576   5.418   4.017   5.838 -0.8652 -1.5725  2.3901
  944MOL0     H24577   5.263   4.090   5.892  1.6020  1.1349  0.8433
  944MOL0     H24578   5.379   4.125   5.622 -1.0574  0.1532 -1.0757
  944MOL0     H24579   5.371   4.237   5.757 -1.7855  0.0783  0.4478
  944MOL0     H24580   5.138   4.115   5.601 -2.3457 -1.3927  3.6235
  944MOL0     H24581   5.116   4.236   5.733  0.0177 -0.5851  1.1155
  944MOL0     H24582   5.311   4.269   5.492  2.0487  2.5094  0.6959
  944MOL0     H24583   5.277   4.387   5.623 -1.2682 -0.2228  1.0385
  944MOL0     H24584   5.180   4.444   5.398  5.4589 -2.3091  0.5421
  944MOL0     H24585   5.063   4.440   5.528  1.9200  2.2684  0.7544
  944MOL0     H24586   4.971   4.235   5.428 -1.3328 -0.7576 -1.1101
  944MOL0     H24587   5.016   4.343   5.295 -0.1135 -0.1057  0.4715
  944MOL0     H24588   5.080   4.108   5.240  0.3139  2.9289 -2.7447
  944MOL0     H24589   5.201   4.110   5.371  1.7871  1.4376 -0.6760
  944MOL0     H24590   5.252   3.630   6.038  1.9097 -2.2963 -1.3324
  944MOL0     H24591   5.111   3.430   6.034  0.3465 -0.3582  0.2114
  944MOL0     H24592   4.581   3.339   5.802 -2.0207 -1.2024 -1.5787
  944MOL0     H24593   4.434   3.148   5.843  0.1935  0.0047  1.1895
  944MOL0     H24594   4.193   3.457   7.191 -0.7298 -1.7754 -0.9623
  944MOL0     H24595   4.385   3.594   7.141  0.6409  0.9336 -0.8255
  944MOL0     H24596   4.941   3.442   6.830 -0.9887 -1.9010  0.4345
  944MOL0     H24597   5.170   3.452   6.930  1.6061 -1.7821  1.4535
  944MOL0     H24598   5.198   3.435   7.393  0.5471  1.0738  1.0510
  944MOL0     H24599   5.231   3.594   7.320 -1.5679  0.3281 -1.3735
  944MOL0     H24600   5.415   3.535   7.437  0.6031  0.3284  0.0474
  944MOL0     H24601   5.438   3.379   7.350 -0.0320  0.2134 -3.6625
  944MOL0     H24602   5.428   3.639   7.198 -0.5673 -1.7454 -2.7280
  944MOL0     H24603   5.476   3.484   7.135  0.8658  0.2992 -1.1233
  944MOL0     H24604   5.616   3.606   7.357  2.2498 -0.3130 -0.0002
  944MOL0     H24605   5.673   3.458   7.258  0.3675 -1.2263  1.8810
  944MOL0     H24606   5.776   3.803   7.043 -0.9814  1.6135  1.4140
  944MOL0     H24607   4.990   3.448   7.310  1.4878 -2.1034 -0.5263
  944MOL0     H24608   4.777   3.521   7.219 -0.5177  0.3902 -1.0401
  945MOL0     O24609   1.643   9.694   4.806  0.4185 -0.4384  0.6982
  945MOL0     C24610   1.662   9.727   4.689 -0.7587  0.4745 -0.1535
  945MOL0     O24611   1.578   9.703   4.580 -0.3136 -0.1311 -0.4350
  945MOL0     C24612   1.446   9.672   4.592 -0.1091 -1.0136 -0.4874
  945MOL0     C24613   1.367   9.733   4.696  0.3726  1.0152 -0.5970
  945MOL0     C24614   1.237   9.684   4.710 -0.6756  0.1631  0.2080
  945MOL0     C24615   1.191   9.588   4.622  0.2073 -0.7583  0.2896
  945MOL0     O24616   1.068   9.532   4.639 -0.7311 -0.3089 -0.7910
  945MOL0     C24617   0.950   9.596   4.581 -0.9338  1.0091 -1.0167
  945MOL0     C24618   0.885   9.687   4.684  0.1641  0.0676  0.5786
  945MOL0     C24619   0.742   9.656   4.700  0.6178  0.5824 -0.4541
  945MOL0     C24620   0.681   9.745   4.810  0.0868 -0.0344  0.6141
  945MOL0     C24621   0.543   9.699   4.854 -0.6174  0.5262  0.6886
  945MOL0     C24622   0.439   9.717   4.745 -0.5165 -0.5339  0.4974
  945MOL0     C24623   0.297   9.676   4.783 -0.8553  0.0240 -1.2307
  945MOL0     C24624   0.187   9.714   4.681  0.3135 -0.0432  0.0630
  945MOL0     N24625   0.067   9.630   4.726 -0.9431 -0.1728  0.1360
  945MOL0     C24626   0.054   9.498   4.700  0.7566 -0.3992  0.5572
  945MOL0     C24627  -0.071   9.468   4.747  0.1853 -0.1303  0.1604
  945MOL0     C24628  -0.137   9.327   4.745 -0.1621  0.1168  0.8999
  945MOL0     C24629  -0.289   9.338   4.742  0.6275 -0.9541  0.0828
  945MOL0     C24630  -0.360   9.203   4.754  0.9222 -0.0073 -0.0033
  945MOL0     C24631  -0.511   9.216   4.720  0.4931 -0.0437 -0.3906
  945MOL0     O24632  -0.564   9.332   4.788 -0.5623 -0.0839 -0.2230
  945MOL0     C24633  -0.673   9.404   4.743  0.1125 -0.5951 -0.1364
  945MOL0     C24634  -0.711   9.513   4.813  0.9763  0.1268  0.4943
  945MOL0     C24635  -0.833   9.580   4.774 -0.7854  0.2871  0.2239
  945MOL0     C24636  -0.913   9.530   4.668  0.8331 -0.7545  0.1935
  945MOL0     C24637  -1.048   9.579   4.634 -0.1663 -0.1418 -0.3933
  945MOL0     O24638  -1.104   9.543   4.518  0.0727  0.1720 -0.1845
  945MOL0     C24639  -1.238   9.552   4.513  1.5572 -1.0324 -0.4904
  945MOL0     C24640  -1.324   9.448   4.539  0.0243  0.3398 -0.2484
  945MOL0     C24641  -1.458   9.441   4.490 -0.1302 -0.4678  0.4478
  945MOL0     C24642  -1.515   9.551   4.420 -0.3067 -0.5707 -0.6912
  945MOL0     O24643  -1.645   9.525   4.391  0.1008 -0.2677 -0.0774
  945MOL0     C24644  -1.712   9.607   4.296  0.6189 -0.5357  0.5844
  945MOL0     C24645  -1.860   9.561   4.275  0.1949  0.1310  0.1572
  945MOL0     C24646  -1.952   9.603   4.384  0.3831  0.1114 -0.6933
  945MOL0     C24647  -2.098   9.558   4.352 -0.3804  0.2028  0.2342
  945MOL0     C24648  -2.196   9.610   4.451  0.3055 -0.4153  0.3142
  945MOL0     C24649  -2.329   9.537   4.427 -1.2723 -0.0632  0.4794
  945MOL0     C24650  -2.437   9.618   4.500 -0.0969 -0.1738 -0.9810
  945MOL0     C24651  -2.579   9.567   4.467 -0.3420  0.8913  0.0394
  945MOL0    Cl24652  -2.713   9.656   4.553  0.6039 -0.1738 -0.5500
  945MOL0     C24653  -1.428   9.657   4.384  0.3028  0.1272 -0.8563
  945MOL0     C24654  -1.292   9.663   4.442 -0.7056 -0.9933 -0.0080
  945MOL0     O24655  -1.104   9.639   4.724  0.4200 -0.3832 -0.3706
  945MOL0     C24656  -0.872   9.417   4.601 -0.5972  0.7346 -0.0632
  945MOL0     C24657  -0.755   9.358   4.637  0.2811 -0.0654 -1.0842
  945MOL0     N24658  -0.132   9.586   4.784 -0.7280 -0.4058 -0.3470
  945MOL0     N24659  -0.048   9.679   4.770  0.2830 -0.2730  0.0974
  945MOL0     C24660   1.262   9.546   4.519  1.0801  0.5010  0.1047
  945MOL0     C24661   1.388   9.590   4.496 -0.2902  0.8162 -0.7183
  945MOL0     C24662   1.783   9.809   4.659 -0.0808 -0.1971 -0.5411
  945MOL0     C24663   1.861   9.883   4.753 -0.5624  0.3777  0.4038
  945MOL0     C24664   1.976   9.952   4.713  0.1676  0.2512 -0.4010
  945MOL0     C24665   2.018   9.952   4.583  0.2822 -0.3234  0.3128
  945MOL0     O24666   2.133  10.022   4.555  0.3017  0.1237  0.0028
  945MOL0     C24667   2.206   9.991   4.438  0.1992 -0.5797  0.2113
  945MOL0     C24668   2.319  10.089   4.410 -0.8093  0.7250  0.0718
  945MOL0     C24669   2.278  10.232   4.367  0.9288  0.5098  0.1917
  945MOL0     C24670   2.227  10.243   4.219  0.2725 -0.7477  0.7478
  945MOL0     C24671   2.087  10.198   4.201 -0.4035 -0.8041  0.5153
  945MOL0     C24672   1.971  10.192   4.193 -0.4125 -0.9752 -0.8446
  945MOL0     C24673   1.931   9.887   4.490 -0.2971  0.0907 -0.2868
  945MOL0     C24674   1.822   9.811   4.527 -0.5089 -0.6369  0.2625
  945MOL0     H24675   1.397   9.817   4.758  0.3004  0.0597  0.7523
  945MOL0     H24676   1.161   9.731   4.773 -1.0213  2.0424 -1.5192
  945MOL0     H24677   0.884   9.520   4.538  0.0596  0.4742 -1.6367
  945MOL0     H24678   0.989   9.654   4.497  2.1806  0.8888  0.2266
  945MOL0     H24679   0.911   9.791   4.663 -2.3140  0.8233  0.9805
  945MOL0     H24680   0.933   9.670   4.781  0.4701 -1.3915  0.1862
  945MOL0     H24681   0.731   9.555   4.739  3.1141  0.4766  0.1678
  945MOL0     H24682   0.693   9.682   4.606 -1.5364 -0.5756  0.2939
  945MOL0     H24683   0.745   9.751   4.898  1.2202 -0.9379 -0.1252
  945MOL0     H24684   0.664   9.845   4.767  2.7920 -0.6309 -2.2436
  945MOL0     H24685   0.515   9.757   4.943  1.5681 -1.0062  2.4923
  945MOL0     H24686   0.543   9.594   4.884 -3.1798  0.6418  1.2815
  945MOL0     H24687   0.466   9.651   4.662  0.7721 -1.3404  1.5396
  945MOL0     H24688   0.434   9.819   4.705  0.1386 -1.5172 -2.3884
  945MOL0     H24689   0.303   9.570   4.807  0.5445  0.1169 -1.0897
  945MOL0     H24690   0.277   9.725   4.878  5.3385  1.4525 -0.1842
  945MOL0     H24691   0.215   9.692   4.578 -1.0955  0.8999 -0.5576
  945MOL0     H24692   0.154   9.818   4.687  4.0608  1.3377 -0.8596
  945MOL0     H24693   0.130   9.433   4.658  1.2313  0.4820  0.0389
  945MOL0     H24694  -0.108   9.269   4.833 -0.0872 -0.1450  0.7066
  945MOL0     H24695  -0.095   9.275   4.659 -1.3449 -0.8139  0.8488
  945MOL0     H24696  -0.321   9.393   4.652 -0.1235 -1.2829  0.1381
  945MOL0     H24697  -0.314   9.406   4.824  2.5892  1.6523 -1.3357
  945MOL0     H24698  -0.307   9.128   4.695  3.4280 -0.2393  2.3421
  945MOL0     H24699  -0.357   9.171   4.859  0.7815  0.8162  0.2543
  945MOL0     H24700  -0.567   9.123   4.738  1.1471  0.0829  2.8569
  945MOL0     H24701  -0.509   9.241   4.614  3.1141  1.1681 -0.1196
  945MOL0     H24702  -0.657   9.545   4.901 -1.9881  0.5553  2.3008
  945MOL0     H24703  -0.869   9.653   4.845 -0.8232 -1.7436  2.4320
  945MOL0     H24704  -1.284   9.367   4.599  1.0393  0.6930 -0.4211
  945MOL0     H24705  -1.522   9.357   4.515  3.1059 -2.8558  1.4608
  945MOL0     H24706  -1.656   9.599   4.202  0.3879 -0.8538  0.4748
  945MOL0     H24707  -1.694   9.708   4.334  5.7690 -1.8709  2.5792
  945MOL0     H24708  -1.870   9.452   4.274 -2.2181  0.2766  0.5443
  945MOL0     H24709  -1.895   9.604   4.180 -1.5518  0.1485  0.7574
  945MOL0     H24710  -1.955   9.712   4.388  2.5343  0.2908  4.7472
  945MOL0     H24711  -1.917   9.569   4.482 -0.5116 -1.7169 -0.9595
  945MOL0     H24712  -2.120   9.571   4.245  0.3606 -2.7571 -0.3799
  945MOL0     H24713  -2.089   9.450   4.368 -0.0861  0.0361 -0.9389
  945MOL0     H24714  -2.200   9.719   4.443  1.1561 -0.2398  1.8921
  945MOL0     H24715  -2.177   9.595   4.558  2.0556  0.8537  0.2272
  945MOL0     H24716  -2.328   9.439   4.476 -1.3246  0.2432  1.0966
  945MOL0     H24717  -2.344   9.520   4.320  0.9856 -1.5942  0.3575
  945MOL0     H24718  -2.415   9.616   4.607 -3.6851 -5.4843  0.0598
  945MOL0     H24719  -2.441   9.724   4.471 -0.5817 -0.0525 -0.4960
  945MOL0     H24720  -2.577   9.460   4.486  2.9711  0.2408 -2.9433
  945MOL0     H24721  -2.588   9.581   4.359  1.7235 -2.2458 -0.6657
  945MOL0     H24722  -1.464   9.741   4.325 -2.7942  1.2772  2.3370
  945MOL0     H24723  -1.237   9.754   4.420 -3.9571  1.2615  0.5868
  945MOL0     H24724  -0.930   9.368   4.524 -0.0670 -0.2374  0.1370
  945MOL0     H24725  -0.716   9.272   4.583  1.0807 -0.3576 -0.0678
  945MOL0     H24726   1.205   9.487   4.447  1.7732 -0.2594  0.1556
  945MOL0     H24727   1.457   9.544   4.425 -1.1821 -2.3204  0.2754
  945MOL0     H24728   1.832   9.867   4.857 -1.2407 -1.0209  0.0362
  945MOL0     H24729   2.025   9.998   4.798  0.0678 -0.5753  0.1203
  945MOL0     H24730   2.144   9.971   4.351  1.8599 -2.5204 -0.6068
  945MOL0     H24731   2.257   9.895   4.453  3.2227  0.2276 -3.4285
  945MOL0     H24732   2.368  10.099   4.507 -1.6513  2.1991  0.3885
  945MOL0     H24733   2.376  10.038   4.332 -1.6702 -1.8736  1.0144
  945MOL0     H24734   2.361  10.295   4.398 -0.4838  1.3085  2.6053
  945MOL0     H24735   2.189  10.257   4.426  2.0772 -0.6174  2.5352
  945MOL0     H24736   2.237  10.340   4.170  0.3731 -1.2813 -0.3136
  945MOL0     H24737   2.293  10.181   4.157  0.6559  1.5004 -1.2292
  945MOL0     H24738   1.865  10.178   4.194 -0.6321  0.0360  2.2740
  945MOL0     H24739   1.956   9.881   4.385 -3.2933 -1.8170 -1.0436
  945MOL0     H24740   1.766   9.762   4.448 -1.9628  1.2572  0.0360
  946MOL0     O24741   9.245   5.760   9.172  0.2733  0.2518 -0.3959
  946MOL0     C24742   9.275   5.701   9.071  1.0010  0.4001  0.1321
  946MOL0     O24743   9.201   5.712   8.959 -0.2780 -0.5224 -0.2612
  946MOL0     C24744   9.084   5.789   8.954 -0.2273  0.3185  0.6577
  946MOL0     C24745   8.997   5.787   9.062 -0.1409 -0.0696  0.1808
  946MOL0     C24746   8.879   5.863   9.054  0.1755 -0.4681 -0.9056
  946MOL0     C24747   8.861   5.950   8.953  0.5831 -0.3955 -0.0257
  946MOL0     O24748   8.764   6.044   8.949  0.8237 -0.2882 -0.0071
  946MOL0     C24749   8.661   6.031   9.050  0.6040 -0.2487 -0.0663
  946MOL0     C24750   8.530   6.106   9.002  0.2161  0.6215  0.2865
  946MOL0     C24751   8.429   6.109   9.121  0.6583 -0.4135  0.8284
  946MOL0     C24752   8.277   6.130   9.074  0.4925  0.1488  0.4762
  946MOL0     C24753   8.172   6.069   9.164  0.5954 -0.1759 -0.4255
  946MOL0     C24754   8.026   6.090   9.132  1.1802 -0.2421 -0.4359
  946MOL0     C24755   7.948   6.001   9.236 -0.5122 -1.1254  0.4058
  946MOL0     C24756   7.817   5.961   9.161  0.9147 -0.0158 -0.5902
  946MOL0     N24757   7.726   5.885   9.248 -0.1774  0.0520  0.3004
  946MOL0     C24758   7.750   5.760   9.303  0.4661  0.5553 -0.5744
  946MOL0     C24759   7.646   5.750   9.394  0.6158  0.1887  0.4345
  946MOL0     C24760   7.627   5.637   9.498 -0.2802  0.6593  0.0150
  946MOL0     C24761   7.518   5.681   9.595 -0.0348 -0.1691  1.9260
  946MOL0     C24762   7.377   5.642   9.543 -0.4533 -0.7279 -0.6089
  946MOL0     C24763   7.264   5.695   9.632 -0.4676  0.7968  0.1124
  946MOL0     O24764   7.146   5.631   9.590 -0.5877 -0.0042  0.2819
  946MOL0     C24765   7.049   5.629   9.683 -0.1698 -0.4483  0.4096
  946MOL0     C24766   6.967   5.512   9.705  0.6653  0.4174 -0.0281
  946MOL0     C24767   6.855   5.508   9.778  0.0056  0.0817 -0.4735
  946MOL0     C24768   6.818   5.625   9.844  0.6210 -0.3142 -0.3587
  946MOL0     C24769   6.696   5.624   9.931  0.1195 -0.4678 -0.4074
  946MOL0     O24770   6.667   5.736   9.997  0.5599  0.4481 -0.2502
  946MOL0     C24771   6.572   5.731  10.091 -0.4494 -0.2283  0.3555
  946MOL0     C24772   6.435   5.705  10.069  0.9629 -0.2133  0.4111
  946MOL0     C24773   6.350   5.690  10.180 -0.6230  0.3191  0.0346
  946MOL0     C24774   6.399   5.715  10.315  0.3108  0.1131  1.4598
  946MOL0     O24775   6.324   5.696  10.429  0.6210 -0.1749 -0.2655
  946MOL0     C24776   6.192   5.650  10.441 -0.5465  0.6289  0.3840
  946MOL0     C24777   6.105   5.727  10.544  0.3231 -0.0571 -0.3213
  946MOL0     C24778   6.082   5.872  10.511 -0.0748  0.5226  0.6219
  946MOL0     C24779   5.969   5.922  10.599  0.8673 -0.2725 -0.0470
  946MOL0     C24780   5.912   6.057  10.546  0.3652  1.1420  0.3239
  946MOL0     C24781   5.763   6.055  10.553 -0.2765 -0.3836 -0.4800
  946MOL0     C24782   5.720   6.186  10.499  0.9149 -1.1664  0.7401
  946MOL0     C24783   5.573   6.208  10.521 -0.1356 -0.4833  0.4665
  946MOL0    Cl24784   5.519   6.365  10.466 -0.0113 -0.0954 -0.1764
  946MOL0     C24785   6.531   5.741  10.322 -1.4645 -0.2413 -0.0065
  946MOL0     C24786   6.621   5.741  10.213  0.3904  0.9668 -0.1419
  946MOL0     O24787   6.643   5.513   9.953  0.1758  0.2267  0.5436
  946MOL0     C24788   6.893   5.738   9.822  0.1420  0.4319 -0.7550
  946MOL0     C24789   7.005   5.747   9.741 -1.1895  0.8649 -0.2078
  946MOL0     N24790   7.574   5.865   9.390 -0.6096  0.2870 -0.4891
  946MOL0     N24791   7.629   5.952   9.318 -0.2096  0.2263  0.5277
  946MOL0     C24792   8.946   5.949   8.842 -0.0631 -0.9835 -1.3686
  946MOL0     C24793   9.061   5.871   8.843  0.2049 -0.2192  0.3158
  946MOL0     C24794   9.388   5.612   9.071 -1.3018  0.4125 -0.0849
  946MOL0     C24795   9.406   5.505   8.979 -0.9306  0.5241  0.7332
  946MOL0     C24796   9.519   5.424   8.979 -1.0018  0.5695 -1.3312
  946MOL0     C24797   9.603   5.444   9.088 -1.0632  0.1893  0.2432
  946MOL0     O24798   9.708   5.360   9.094  0.2593 -0.3260  0.2762
  946MOL0     C24799   9.833   5.392   9.156  0.0193  0.7196 -0.9469
  946MOL0     C24800   9.906   5.259   9.148 -0.3703 -0.5061 -0.0311
  946MOL0     C24801  10.047   5.275   9.198  0.5029  0.1071  0.1573
  946MOL0     C24802  10.138   5.149   9.203  0.3682  0.2410 -0.0176
  946MOL0     C24803  10.211   5.142   9.076  0.0454  0.1607 -0.4137
  946MOL0     C24804  10.289   5.142   8.977  0.2768 -0.1787  0.0566
  946MOL0     C24805   9.597   5.552   9.173 -0.6475 -0.3206 -0.2657
  946MOL0     C24806   9.490   5.633   9.171  0.0652 -0.4336  0.6770
  946MOL0     H24807   9.007   5.735   9.157  0.2361 -0.8881 -0.2902
  946MOL0     H24808   8.826   5.864   9.149  0.6056 -0.9234 -0.6512
  946MOL0     H24809   8.679   6.087   9.142 -0.4747  0.0520 -0.0289
  946MOL0     H24810   8.632   5.927   9.069  1.1775 -0.4935 -0.4892
  946MOL0     H24811   8.480   6.056   8.918  0.0388 -0.4265  0.9941
  946MOL0     H24812   8.562   6.208   8.981  0.5654  0.1528 -1.7419
  946MOL0     H24813   8.461   6.182   9.197  4.6668 -0.5554 -0.4703
  946MOL0     H24814   8.426   6.015   9.176 -2.0105  1.2687  3.9624
  946MOL0     H24815   8.265   6.238   9.066  3.7124  0.5224 -0.6740
  946MOL0     H24816   8.252   6.093   8.975 -3.2028  1.2223  0.8837
  946MOL0     H24817   8.183   6.112   9.264  1.6833  1.0270 -1.0228
  946MOL0     H24818   8.190   5.961   9.157 -1.4264 -0.5246 -0.7827
  946MOL0     H24819   8.005   6.065   9.028  0.4788  0.6006 -0.5096
  946MOL0     H24820   7.997   6.196   9.141  1.1789 -0.2460 -0.3913
  946MOL0     H24821   8.003   5.908   9.255 -0.6370 -0.9885  1.4778
  946MOL0     H24822   7.935   6.050   9.333 -0.3839  0.3065 -0.2824
  946MOL0     H24823   7.833   5.903   9.070  1.6323 -0.6347 -0.0803
  946MOL0     H24824   7.761   6.048   9.128  1.1295 -0.3463 -1.8734
  946MOL0     H24825   7.833   5.690   9.290  0.9368  1.0778 -0.4228
  946MOL0     H24826   7.718   5.624   9.557 -1.1274  0.7522  1.3790
  946MOL0     H24827   7.600   5.541   9.452  0.2626  0.8059 -0.6285
  946MOL0     H24828   7.527   5.789   9.614 -0.5078 -0.1086  1.7987
  946MOL0     H24829   7.537   5.628   9.689  0.2878  0.2503  2.1041
  946MOL0     H24830   7.349   5.671   9.441  0.9654  0.3856 -0.7153
  946MOL0     H24831   7.380   5.533   9.537  0.3050 -0.8041  0.8426
  946MOL0     H24832   7.253   5.804   9.637 -3.0969  0.5638  2.6124
  946MOL0     H24833   7.296   5.664   9.732  1.5703 -0.9456 -0.9931
  946MOL0     H24834   7.005   5.419   9.665  0.0708  0.4597 -0.6882
  946MOL0     H24835   6.803   5.413   9.785 -1.5754  0.9414 -0.2845
  946MOL0     H24836   6.392   5.696   9.970 -3.5153 -3.9848  2.3280
  946MOL0     H24837   6.246   5.663  10.171 -0.9253 -1.5271  5.3093
  946MOL0     H24838   6.206   5.547  10.476  0.7205  0.2635 -1.1109
  946MOL0     H24839   6.144   5.642  10.343 -0.9796 -0.9864  0.6895
  946MOL0     H24840   6.148   5.714  10.643 -0.8571 -1.8381  0.0222
  946MOL0     H24841   6.005   5.681  10.554  0.0856  0.5633  0.1948
  946MOL0     H24842   6.056   5.870  10.404  1.3166 -1.5637  0.2615
  946MOL0     H24843   6.174   5.931  10.523 -1.3856  3.2260 -1.2838
  946MOL0     H24844   5.892   5.844  10.608  1.6227 -1.0007  0.2176
  946MOL0     H24845   6.002   5.929  10.703 -0.7086  0.8235  0.4201
  946MOL0     H24846   5.948   6.066  10.443 -1.9017  2.3005 -0.4510
  946MOL0     H24847   5.962   6.143  10.591  2.3439  2.1222 -3.3306
  946MOL0     H24848   5.731   6.047  10.658  0.7038 -1.2969 -0.2325
  946MOL0     H24849   5.725   5.967  10.501 -1.9323  0.0696 -0.0906
  946MOL0     H24850   5.763   6.271  10.553 -1.0194 -1.2951  2.5905
  946MOL0     H24851   5.741   6.175  10.392 -1.2890 -2.0332  0.3541
  946MOL0     H24852   5.549   6.202  10.628 -1.3322 -4.0892  0.1214
  946MOL0     H24853   5.508   6.130  10.480  0.3928  0.1799 -1.7592
  946MOL0     H24854   6.578   5.752  10.419  0.7565 -0.4783 -1.0058
  946MOL0     H24855   6.724   5.769  10.229  0.9314 -1.8365  2.0291
  946MOL0     H24856   6.841   5.824   9.864  0.0833 -0.3983  0.9741
  946MOL0     H24857   7.068   5.834   9.735  0.0992  0.2655  2.9182
  946MOL0     H24858   8.937   6.018   8.759  0.7425  0.4903 -0.2871
  946MOL0     H24859   9.133   5.871   8.761  0.9803  0.9566  0.9774
  946MOL0     H24860   9.337   5.482   8.898  1.7983  0.3831 -1.7253
  946MOL0     H24861   9.543   5.339   8.916  3.2202  0.7034 -0.2422
  946MOL0     H24862   9.819   5.422   9.260 -0.1332  0.1694 -0.8070
  946MOL0     H24863   9.886   5.471   9.101  1.6758 -0.4437 -1.0865
  946MOL0     H24864   9.853   5.183   9.207  2.9080 -1.7048  1.5906
  946MOL0     H24865   9.895   5.224   9.045  1.1741 -2.4433  0.4002
  946MOL0     H24866  10.034   5.305   9.303 -1.9905 -1.1151  0.2553
  946MOL0     H24867  10.091   5.348   9.129  0.2885 -2.1128 -2.4857
  946MOL0     H24868  10.205   5.159   9.289 -2.9257 -0.6269  2.8877
  946MOL0     H24869  10.079   5.059   9.221  1.6211 -0.2558  1.8480
  946MOL0     H24870  10.341   5.161   8.885 -3.2264 -0.1117 -2.0916
  946MOL0     H24871   9.666   5.573   9.254 -0.8219  3.6471 -0.9219
  946MOL0     H24872   9.468   5.715   9.238 -2.0239 -0.4165  0.0507
  947MOL0     O24873   9.113   4.013  10.698 -0.4354  0.1323 -0.5989
  947MOL0     C24874   9.163   4.129  10.697 -0.3679 -0.4854 -0.0857
  947MOL0     O24875   9.115   4.232  10.767  0.1770  0.0297 -0.4622
  947MOL0     C24876   9.017   4.228  10.859 -0.2271  0.0006 -0.0684
  947MOL0     C24877   8.932   4.121  10.894  0.1842 -0.0406  0.3482
  947MOL0     C24878   8.843   4.128  11.000 -0.1119  0.6071  0.2962
  947MOL0     C24879   8.827   4.236  11.077 -0.7367 -0.5392 -0.0177
  947MOL0     O24880   8.734   4.244  11.178  0.7441 -0.2436 -0.3200
  947MOL0     C24881   8.736   4.146  11.281  0.0947 -0.7526 -0.5704
  947MOL0     C24882   8.634   4.176  11.384  0.4200  0.1058 -0.4363
  947MOL0     C24883   8.649   4.307  11.453 -0.2097  0.2905 -0.3092
  947MOL0     C24884   8.534   4.318  11.545 -0.7088  0.8628 -0.2223
  947MOL0     C24885   8.528   4.222  11.672 -0.2934  0.2576  0.2092
  947MOL0     C24886   8.410   4.240  11.775  0.0170 -0.5225  0.1063
  947MOL0     C24887   8.438   4.178  11.912  0.2918 -1.0606 -1.2026
  947MOL0     C24888   8.340   4.075  11.960  0.0465 -0.1346 -0.4013
  947MOL0     N24889   8.215   4.136  12.003  0.0620 -0.1863 -0.3154
  947MOL0     C24890   8.110   4.165  11.920 -0.8140 -0.3626  0.4787
  947MOL0     C24891   8.046   4.271  11.972 -0.5173  0.2995 -1.0332
  947MOL0     C24892   7.933   4.341  11.916  0.4312 -0.5551 -0.7719
  947MOL0     C24893   7.797   4.286  11.983 -0.2278 -0.4499 -0.4220
  947MOL0     C24894   7.774   4.132  11.988  0.6157  0.0054 -0.5918
  947MOL0     C24895   7.642   4.089  12.071 -0.2216  1.2710 -0.3085
  947MOL0     O24896   7.528   4.153  12.013  0.3809  0.0973  0.1516
  947MOL0     C24897   7.403   4.110  12.060 -0.2843  0.3150  0.0068
  947MOL0     C24898   7.369   4.098  12.195 -0.5050 -0.7621  0.6607
  947MOL0     C24899   7.242   4.053  12.230  0.7879 -0.1085  0.0999
  947MOL0     C24900   7.145   4.034  12.135 -0.0992  0.0987 -0.5352
  947MOL0     C24901   7.009   3.974  12.178 -0.2188  0.0253 -0.2598
  947MOL0     O24902   6.983   3.931  12.304  0.2477  0.1403  0.3080
  947MOL0     C24903   6.867   3.871  12.343  0.3480  0.3734 -0.0236
  947MOL0     C24904   6.880   3.763  12.434  0.2195 -0.7775  0.3986
  947MOL0     C24905   6.760   3.703  12.478 -0.0154 -0.4905 -0.3768
  947MOL0     C24906   6.630   3.764  12.448  0.5348 -0.6277  0.3255
  947MOL0     O24907   6.517   3.718  12.503  0.4093  0.2235 -0.7248
  947MOL0     C24908   6.513   3.637  12.621 -0.9888  0.4295  0.0323
  947MOL0     C24909   6.372   3.636  12.691  0.1642 -0.5594  0.0060
  947MOL0     C24910   6.264   3.560  12.604  0.0179 -0.9179  0.8087
  947MOL0     C24911   6.123   3.570  12.665  0.2225  0.8981 -0.1150
  947MOL0     C24912   6.039   3.455  12.591  0.1315 -0.1575 -0.2324
  947MOL0     C24913   5.897   3.463  12.639  0.4602 -0.2767  0.3608
  947MOL0     C24914   5.817   3.351  12.577 -0.1081 -1.0846 -0.4608
  947MOL0     C24915   5.662   3.364  12.585 -0.7680  0.2513 -0.0658
  947MOL0    Cl24916   5.619   3.401  12.761  0.0642 -0.3268  0.2009
  947MOL0     C24917   6.625   3.868  12.353 -0.8914 -0.1442  0.9834
  947MOL0     C24918   6.742   3.923  12.308 -0.4887 -0.5750 -0.4975
  947MOL0     O24919   6.936   3.946  12.086  0.2420  0.3443 -0.0230
  947MOL0     C24920   7.177   4.075  12.007 -0.5955  0.8696 -0.2653
  947MOL0     C24921   7.311   4.105  11.970  1.0605 -0.0374  0.9655
  947MOL0     N24922   8.105   4.306  12.096 -0.2213  0.7799 -0.0295
  947MOL0     N24923   8.207   4.219  12.112 -0.6728  0.5764  0.3603
  947MOL0     C24924   8.906   4.350  11.041  0.2176  0.8572 -0.0617
  947MOL0     C24925   8.999   4.338  10.934  0.3167 -0.2065 -0.1696
  947MOL0     C24926   9.297   4.158  10.641 -0.4532 -0.1866  0.1851
  947MOL0     C24927   9.358   4.064  10.552 -0.1054 -0.1966 -0.3933
  947MOL0     C24928   9.493   4.082  10.506  0.6761  0.5522 -0.7802
  947MOL0     C24929   9.573   4.189  10.558 -0.6524  0.4305  0.1842
  947MOL0     O24930   9.711   4.206  10.527  0.3714 -1.0295  0.9310
  947MOL0     C24931   9.778   4.082  10.498  0.2153 -0.4388  0.1597
  947MOL0     C24932   9.914   4.110  10.434  0.1506  0.0281  0.8980
  947MOL0     C24933  10.016   4.176  10.534 -0.5349 -0.2315  0.6447
  947MOL0     C24934  10.149   4.204  10.461  0.6407 -0.5460 -0.2756
  947MOL0     C24935  10.201   4.091  10.385 -0.3630  0.4480 -0.2797
  947MOL0     C24936  10.244   3.993  10.322 -0.4934 -0.0808  0.2373
  947MOL0     C24937   9.514   4.268  10.650 -0.1548  0.1446  0.0261
  947MOL0     C24938   9.381   4.262  10.682 -0.2601 -0.8222  0.4258
  947MOL0     H24939   8.950   4.022  10.852 -0.4214  0.2596 -0.6291
  947MOL0     H24940   8.796   4.035  11.030 -0.2127  0.4497 -0.3299
  947MOL0     H24941   8.833   4.145  11.332 -1.7818 -1.0211  3.2806
  947MOL0     H24942   8.714   4.047  11.239 -2.2625 -0.6452  0.2671
  947MOL0     H24943   8.643   4.094  11.456  1.8830 -0.2064 -0.9486
  947MOL0     H24944   8.532   4.176  11.343  0.6254  0.6858 -0.9529
  947MOL0     H24945   8.649   4.388  11.379 -2.5943  0.1438 -0.5285
  947MOL0     H24946   8.742   4.306  11.510  0.9572 -1.6274 -2.0853
  947MOL0     H24947   8.537   4.423  11.575  0.9754  0.4297  1.3426
  947MOL0     H24948   8.444   4.296  11.485 -1.2717 -1.7166  1.3763
  947MOL0     H24949   8.627   4.240  11.717  0.6861  1.0563 -2.0846
  947MOL0     H24950   8.511   4.122  11.633 -2.5413  1.3491 -1.8741
  947MOL0     H24951   8.316   4.211  11.728 -1.2380  2.3210  0.6903
  947MOL0     H24952   8.395   4.347  11.788 -1.9330 -1.0244  3.0913
  947MOL0     H24953   8.529   4.117  11.909  1.2741  0.1318  1.3203
  947MOL0     H24954   8.457   4.254  11.988 -1.6625  0.1557 -1.8551
  947MOL0     H24955   8.375   4.012  12.043  0.6358 -2.4719 -2.3230
  947MOL0     H24956   8.321   4.006  11.877 -0.5022  0.5584 -0.8613
  947MOL0     H24957   8.082   4.113  11.829 -0.9903 -0.0521  0.3519
  947MOL0     H24958   7.931   4.333  11.807 -4.7833 -0.3380 -0.9116
  947MOL0     H24959   7.952   4.447  11.936  3.3467 -1.2216  0.5096
  947MOL0     H24960   7.708   4.337  11.947 -0.2175  2.1506  2.7744
  947MOL0     H24961   7.795   4.327  12.085  1.4864  0.7647 -0.8220
  947MOL0     H24962   7.774   4.100  11.883 -1.9553  0.6989 -0.8803
  947MOL0     H24963   7.853   4.074  12.038  0.3779  0.2662  0.0984
  947MOL0     H24964   7.664   4.112  12.176  2.9994  1.8794 -1.0186
  947MOL0     H24965   7.620   3.982  12.063 -1.2553  1.5573 -1.7189
  947MOL0     H24966   7.448   4.120  12.267  0.0781 -1.2680  0.1868
  947MOL0     H24967   7.223   4.034  12.335 -0.9282 -1.6002 -0.4368
  947MOL0     H24968   6.977   3.718  12.455  0.3612  0.2522  2.1113
  947MOL0     H24969   6.752   3.609  12.532 -2.3429 -0.2909 -0.2898
  947MOL0     H24970   6.594   3.674  12.685  0.1731  2.6381 -2.5115
  947MOL0     H24971   6.544   3.536  12.594  4.2026  1.0905  2.3096
  947MOL0     H24972   6.338   3.740  12.691  1.7888  0.0030 -0.5714
  947MOL0     H24973   6.384   3.594  12.791  3.6817  0.8619  0.2800
  947MOL0     H24974   6.305   3.459  12.591  1.4161 -0.0947 -1.8187
  947MOL0     H24975   6.253   3.613  12.509 -0.9870  2.2792  2.5641
  947MOL0     H24976   6.116   3.551  12.772  1.0951 -1.8497 -0.4602
  947MOL0     H24977   6.080   3.668  12.643 -5.0089 -1.6229 -2.8913
  947MOL0     H24978   6.076   3.356  12.619  2.9609  0.8462 -0.0189
  947MOL0     H24979   6.062   3.470  12.485 -0.1841 -0.7708 -0.3867
  947MOL0     H24980   5.854   3.558  12.606 -0.6620 -0.7646  0.3702
  947MOL0     H24981   5.891   3.452  12.748  2.8857 -2.2700  0.3799
  947MOL0     H24982   5.840   3.345  12.470 -0.4764 -0.5354 -0.5803
  947MOL0     H24983   5.855   3.258  12.620  6.3391  1.8085  1.2694
  947MOL0     H24984   5.625   3.268  12.549  2.6982 -0.7561 -1.4195
  947MOL0     H24985   5.630   3.447  12.522 -1.9466  0.2833  0.5501
  947MOL0     H24986   6.532   3.905  12.310  1.1231 -0.1212 -4.0789
  947MOL0     H24987   6.728   3.996  12.229 -2.8644 -0.7976 -0.3590
  947MOL0     H24988   7.108   4.076  11.923 -0.1872  0.3923 -0.6054
  947MOL0     H24989   7.338   4.114  11.866  1.7690 -0.2784  1.1216
  947MOL0     H24990   8.901   4.444  11.094  0.9075  1.3282 -0.7882
  947MOL0     H24991   9.041   4.435  10.909  0.8205 -0.9607 -2.5315
  947MOL0     H24992   9.306   3.978  10.511  0.9979 -2.7124  3.0690
  947MOL0     H24993   9.524   4.007  10.434  0.0373 -1.2688  0.7517
  947MOL0     H24994   9.737   4.009  10.428  1.2180 -0.7197 -0.1434
  947MOL0     H24995   9.794   4.029  10.592  1.4989  1.1445  0.8815
  947MOL0     H24996   9.954   4.015  10.398 -0.0135 -0.3356  1.6487
  947MOL0     H24997   9.893   4.172  10.347 -1.9646 -2.2042 -0.3151
  947MOL0     H24998  10.032   4.105  10.615 -0.3280  1.7632  2.4506
  947MOL0     H24999   9.981   4.273  10.571  1.0102  0.1504  1.1817
  947MOL0     H25000  10.142   4.289  10.393 -0.0998  0.3321  0.8540
  947MOL0     H25001  10.235   4.216  10.528 -0.3253 -0.1419  0.9294
  947MOL0     H25002  10.301   3.915  10.276 -0.4699  0.0697  0.0100
  947MOL0     H25003   9.567   4.352  10.694  1.1040 -0.3186 -0.5383
  947MOL0     H25004   9.348   4.326  10.762  2.3386  1.9050 -0.5038
  948MOL0     O25005   6.331   9.039   8.267 -0.6390  0.5482 -0.5349
  948MOL0     C25006   6.393   9.114   8.340  0.6144 -1.1864 -0.2109
  948MOL0     O25007   6.358   9.240   8.362  1.1741  0.0874 -0.2791
  948MOL0     C25008   6.238   9.284   8.321 -0.4487 -0.1851  0.6728
  948MOL0     C25009   6.122   9.266   8.398  0.4829 -0.1924 -0.9411
  948MOL0     C25010   6.004   9.336   8.367  0.0519  0.7484 -0.9525
  948MOL0     C25011   5.992   9.411   8.254 -1.3983 -0.2535 -1.6090
  948MOL0     O25012   5.868   9.451   8.219 -0.3980  0.7644  0.1383
  948MOL0     C25013   5.850   9.561   8.127 -0.4655 -0.3236  0.2591
  948MOL0     C25014   5.702   9.580   8.110 -1.2576 -0.2962  0.8183
  948MOL0     C25015   5.643   9.638   8.233  0.7772 -0.6277  0.2668
  948MOL0     C25016   5.490   9.651   8.220  0.2082  0.1742 -0.4051
  948MOL0     C25017   5.436   9.773   8.283  0.0157  0.3232  0.6423
  948MOL0     C25018   5.442   9.771   8.433  0.1023 -0.3757  0.0022
  948MOL0     C25019   5.334   9.692   8.508  0.4462  0.2253 -0.3746
  948MOL0     C25020   5.206   9.765   8.497 -0.5943 -0.1943 -0.0333
  948MOL0     N25021   5.115   9.747   8.610 -0.5950  0.1798  0.3640
  948MOL0     C25022   5.014   9.658   8.625  0.4414 -0.2938  0.2077
  948MOL0     C25023   4.981   9.669   8.756 -0.1499  0.5826  1.0069
  948MOL0     C25024   4.870   9.587   8.825 -0.2788 -1.1368  0.8009
  948MOL0     C25025   4.736   9.603   8.757  0.4922 -0.3121 -0.0473
  948MOL0     C25026   4.621   9.571   8.853 -0.2598 -0.6724  0.1241
  948MOL0     C25027   4.486   9.632   8.814 -0.0319 -0.2799 -0.0602
  948MOL0     O25028   4.397   9.606   8.923  0.1862  0.4675  0.0058
  948MOL0     C25029   4.266   9.655   8.918 -0.2416 -0.2435  0.1361
  948MOL0     C25030   4.186   9.659   9.036 -0.9853 -0.6326  0.7840
  948MOL0     C25031   4.055   9.710   9.040 -0.4437 -0.4626  0.1423
  948MOL0     C25032   3.988   9.722   8.917 -0.4892  0.0920  0.5478
  948MOL0     C25033   3.847   9.760   8.909 -0.2155 -0.0856  0.0764
  948MOL0     O25034   3.787   9.778   8.787 -0.1804  1.2032  0.6489
  948MOL0     C25035   3.667   9.838   8.765  0.1111  0.0808  0.4181
  948MOL0     C25036   3.572   9.858   8.860 -0.3739  0.0314 -1.1272
  948MOL0     C25037   3.466   9.938   8.850  0.0266 -0.1708 -0.3322
  948MOL0     C25038   3.443   9.996   8.725 -0.3107  0.1493 -0.4335
  948MOL0     O25039   3.326  10.072   8.700 -0.4292 -0.4388  0.2051
  948MOL0     C25040   3.352  10.212   8.665  0.0320 -0.4446  0.1532
  948MOL0     C25041   3.340  10.300   8.790 -0.2317  0.6917 -0.6643
  948MOL0     C25042   3.215  10.290   8.880  0.9434  0.2423  0.3818
  948MOL0     C25043   3.101  10.377   8.817  0.2518  0.7054 -0.2321
  948MOL0     C25044   2.979  10.394   8.915 -0.6787 -0.0183  0.4903
  948MOL0     C25045   2.875  10.489   8.859 -0.8146  0.3207  0.7078
  948MOL0     C25046   2.745  10.494   8.931  0.3562 -1.0432  0.3912
  948MOL0     C25047   2.645  10.586   8.845  0.1831  0.6879 -0.7010
  948MOL0    Cl25048   2.613  10.502   8.692 -0.3821  0.4109 -0.5927
  948MOL0     C25049   3.535   9.972   8.623  1.1012  0.2437 -0.0314
  948MOL0     C25050   3.646   9.896   8.640 -0.0231  0.1237  0.1667
  948MOL0     O25051   3.798   9.798   9.015  0.3467 -0.3560 -0.2315
  948MOL0     C25052   4.063   9.702   8.803 -1.0625 -0.3301 -0.0439
  948MOL0     C25053   4.195   9.667   8.794  0.0391 -0.5703  0.7041
  948MOL0     N25054   5.054   9.770   8.821  0.2805 -0.0732  0.3005
  948MOL0     N25055   5.139   9.812   8.726  0.6685  0.2533  0.0668
  948MOL0     C25056   6.111   9.441   8.182 -0.3097 -0.2390 -0.7260
  948MOL0     C25057   6.230   9.377   8.217  0.1524  0.0788 -0.5932
  948MOL0     C25058   6.512   9.060   8.394 -0.2318  0.4405  0.4122
  948MOL0     C25059   6.551   8.927   8.373  0.3866 -0.0269  0.3208
  948MOL0     C25060   6.671   8.877   8.435 -0.7637  0.3467  0.5193
  948MOL0     C25061   6.761   8.963   8.508  1.1472  0.1279 -0.2819
  948MOL0     O25062   6.878   8.923   8.560 -0.1181 -0.1855  0.3885
  948MOL0     C25063   6.931   8.788   8.537 -0.7038 -0.2548 -0.1207
  948MOL0     C25064   7.068   8.799   8.595  0.5941 -1.2756 -0.5143
  948MOL0     C25065   7.149   8.671   8.577 -0.8028  0.6960 -0.0217
  948MOL0     C25066   7.288   8.662   8.628 -0.9049 -0.5502 -0.1805
  948MOL0     C25067   7.379   8.756   8.550  0.4873  0.1522  0.2767
  948MOL0     C25068   7.457   8.833   8.505 -0.3629  0.1796  0.6936
  948MOL0     C25069   6.729   9.102   8.515  0.0877  0.7155 -0.5290
  948MOL0     C25070   6.611   9.145   8.462 -0.0825 -0.0414 -1.0338
  948MOL0     H25071   6.117   9.224   8.499 -0.7162  1.1875 -0.3969
  948MOL0     H25072   5.914   9.331   8.428  2.0383 -0.3873  2.1436
  948MOL0     H25073   5.900   9.537   8.033 -1.2125  2.5039 -0.9684
  948MOL0     H25074   5.894   9.656   8.158 -1.0997  0.2916 -0.6610
  948MOL0     H25075   5.657   9.480   8.109  1.6684 -1.8815  4.3909
  948MOL0     H25076   5.669   9.633   8.020  1.9919  0.4196 -0.0515
  948MOL0     H25077   5.687   9.736   8.257 -0.6475 -0.1432  1.0696
  948MOL0     H25078   5.669   9.570   8.315  1.7354  0.7831  1.1865
  948MOL0     H25079   5.459   9.639   8.115 -2.0697  0.0540  0.2331
  948MOL0     H25080   5.444   9.562   8.262  0.0296 -1.0956 -3.0638
  948MOL0     H25081   5.330   9.775   8.255  1.0717 -2.7127 -4.8895
  948MOL0     H25082   5.490   9.860   8.246  1.0111 -0.8399 -0.7801
  948MOL0     H25083   5.426   9.876   8.461 -0.0917  0.8684 -4.0640
  948MOL0     H25084   5.533   9.727   8.474  1.4637  2.1971 -0.0410
  948MOL0     H25085   5.324   9.587   8.479  1.0519  0.2684 -0.7621
  948MOL0     H25086   5.360   9.701   8.614 -1.1630 -0.7535  0.1291
  948MOL0     H25087   5.163   9.721   8.407  1.5036 -3.6106  0.4656
  948MOL0     H25088   5.219   9.872   8.476 -0.9663 -0.4475 -1.6871
  948MOL0     H25089   4.968   9.590   8.554 -2.2455  0.6742  0.8993
  948MOL0     H25090   4.873   9.621   8.929 -2.1058  0.7275  0.2984
  948MOL0     H25091   4.908   9.488   8.799  1.7752 -0.7016  1.9318
  948MOL0     H25092   4.743   9.533   8.673 -2.2751  0.6907 -1.2218
  948MOL0     H25093   4.718   9.703   8.717  2.4516  0.6249  1.2505
  948MOL0     H25094   4.615   9.462   8.864  0.5759 -0.7100  0.2358
  948MOL0     H25095   4.652   9.614   8.948 -0.7837  3.4217 -1.3612
  948MOL0     H25096   4.449   9.584   8.723 -0.1974 -0.7072  0.2310
  948MOL0     H25097   4.494   9.741   8.811  1.0248 -0.2039  2.6573
  948MOL0     H25098   4.237   9.645   9.130  0.9280  0.6083 -0.0191
  948MOL0     H25099   4.012   9.748   9.132 -2.9900 -1.9194 -0.3458
  948MOL0     H25100   3.583   9.803   8.954  1.8517 -1.5169 -2.1860
  948MOL0     H25101   3.398   9.943   8.935  1.9387 -0.5938  1.2896
  948MOL0     H25102   3.270  10.240   8.598 -0.1401  0.0831  0.5791
  948MOL0     H25103   3.440  10.228   8.602 -0.6850 -1.2994 -1.1296
  948MOL0     H25104   3.380  10.399   8.767  1.9859 -0.1334 -0.5988
  948MOL0     H25105   3.415  10.260   8.859 -0.6947 -1.9327 -1.5610
  948MOL0     H25106   3.233  10.333   8.979  1.9425 -0.4213  0.5075
  948MOL0     H25107   3.174  10.190   8.901 -1.6405  0.8762 -1.2203
  948MOL0     H25108   3.135  10.478   8.791  2.8373  0.1259  0.5582
  948MOL0     H25109   3.053  10.326   8.733 -1.9047  1.8815  0.2300
  948MOL0     H25110   3.005  10.448   9.006 -1.7933  1.7398 -0.1685
  948MOL0     H25111   2.937  10.295   8.935 -2.8092  0.5281 -0.8590
  948MOL0     H25112   2.861  10.465   8.753 -0.9164  2.5652  0.1568
  948MOL0     H25113   2.919  10.589   8.858 -1.1375  0.4668 -0.2448
  948MOL0     H25114   2.704  10.398   8.965 -0.5903 -0.9206 -0.3523
  948MOL0     H25115   2.778  10.559   9.012 -0.6919  0.7825 -0.5945
  948MOL0     H25116   2.690  10.680   8.814 -0.0038  0.9810 -0.1089
  948MOL0     H25117   2.551  10.608   8.897  0.0224  0.5620 -0.9370
  948MOL0     H25118   3.515  10.023   8.530  0.1193  0.9849  0.5596
  948MOL0     H25119   3.724   9.900   8.564  1.5462  1.9918  1.7878
  948MOL0     H25120   4.014   9.715   8.707  0.3798  1.3681 -0.6118
  948MOL0     H25121   4.234   9.646   8.695  1.1653 -2.1159  1.4410
  948MOL0     H25122   6.097   9.515   8.104  1.5723  1.2273  0.2557
  948MOL0     H25123   6.325   9.398   8.169  2.3306  0.4942  3.4389
  948MOL0     H25124   6.499   8.859   8.307  2.9282 -2.3249  0.5326
  948MOL0     H25125   6.693   8.772   8.422 -4.3229 -0.2205 -3.1042
  948MOL0     H25126   6.931   8.765   8.430  2.9555  2.4447 -0.8937
  948MOL0     H25127   6.879   8.708   8.591  0.6078 -0.1777  1.3342
  948MOL0     H25128   7.127   8.880   8.551  1.0533 -2.3270 -1.8772
  948MOL0     H25129   7.066   8.816   8.703  1.1603 -0.1768 -0.6637
  948MOL0     H25130   7.159   8.660   8.469  0.3472  0.3399  0.1099
  948MOL0     H25131   7.090   8.586   8.614  1.8520 -0.9660  0.7235
  948MOL0     H25132   7.286   8.682   8.735 -2.4999  1.0800 -0.4694
  948MOL0     H25133   7.336   8.566   8.607  1.1403  0.5862 -1.0255
  948MOL0     H25134   7.519   8.908   8.460  1.7478 -0.1747  2.8358
  948MOL0     H25135   6.797   9.169   8.567 -1.3060  2.0919 -0.4255
  948MOL0     H25136   6.585   9.250   8.473 -1.7079 -0.5694  0.6537
  949MOL0     O25137   6.888   8.947   7.131 -0.9770  0.5976  0.7123
  949MOL0     C25138   6.937   8.893   7.023  0.0066  0.6652  0.4442
  949MOL0     O25139   6.859   8.823   6.931 -0.0447  0.3392  1.1076
  949MOL0     C25140   6.720   8.840   6.946  0.8740 -0.1377  0.0236
  949MOL0     C25141   6.642   8.775   7.044  0.3349 -0.2757  0.4917
  949MOL0     C25142   6.504   8.799   7.049  0.9142 -0.1656  0.3845
  949MOL0     C25143   6.431   8.866   6.951 -0.5733  0.2507 -0.5477
  949MOL0     O25144   6.295   8.870   6.942  0.4169 -0.8057  0.0096
  949MOL0     C25145   6.218   8.756   6.978  0.0915 -0.5443 -0.2105
  949MOL0     C25146   6.102   8.741   6.882  0.1586  0.2679  0.4719
  949MOL0     C25147   6.057   8.599   6.878  0.1658  0.0928 -0.7281
  949MOL0     C25148   6.014   8.534   7.006 -0.0145 -0.3795  0.0452
  949MOL0     C25149   5.906   8.617   7.087  0.5018  0.1896  0.1730
  949MOL0     C25150   5.826   8.529   7.184 -0.4870  0.2864  0.8513
  949MOL0     C25151   5.709   8.607   7.246  0.4379 -0.2132 -0.3639
  949MOL0     C25152   5.581   8.544   7.202  0.2357  0.6091  0.3179
  949MOL0     N25153   5.568   8.394   7.222 -0.3966 -0.2458  0.1314
  949MOL0     C25154   5.591   8.332   7.340 -0.5827  0.5505  0.0516
  949MOL0     C25155   5.584   8.201   7.311  0.4992  0.0482  0.9708
  949MOL0     C25156   5.624   8.109   7.420  0.6038  1.0442 -0.0612
  949MOL0     C25157   5.741   8.024   7.372 -0.1409  1.5857  0.1771
  949MOL0     C25158   5.775   7.912   7.464  0.5571  0.2448 -0.2189
  949MOL0     C25159   5.656   7.840   7.530 -0.0600 -0.3406  0.2025
  949MOL0     O25160   5.603   7.745   7.430 -0.5029 -0.1061 -0.0050
  949MOL0     C25161   5.472   7.743   7.435  0.7683  0.2172 -0.3484
  949MOL0     C25162   5.390   7.840   7.376  0.2231 -0.0738  0.3473
  949MOL0     C25163   5.250   7.834   7.371 -0.2041 -0.0024 -0.3913
  949MOL0     C25164   5.184   7.743   7.449 -0.3020 -0.9125 -0.1872
  949MOL0     C25165   5.034   7.722   7.461  0.2814 -0.3743 -0.0559
  949MOL0     O25166   4.953   7.831   7.441 -0.7887  0.4989  0.1325
  949MOL0     C25167   4.815   7.796   7.438 -0.4932 -0.1243 -0.7315
  949MOL0     C25168   4.766   7.715   7.330  0.5028 -0.0034 -0.8429
  949MOL0     C25169   4.623   7.707   7.314  0.2217  0.6501 -0.2507
  949MOL0     C25170   4.537   7.757   7.424 -0.0354  0.3450 -0.2053
  949MOL0     O25171   4.398   7.742   7.417  0.0844 -0.1058  0.3533
  949MOL0     C25172   4.342   7.691   7.290 -0.7510 -0.3343 -0.6891
  949MOL0     C25173   4.199   7.757   7.295 -0.2274 -0.5903 -0.6393
  949MOL0     C25174   4.115   7.697   7.188 -0.6202 -0.2780 -0.2182
  949MOL0     C25175   3.962   7.692   7.222  0.6065 -0.0243  0.2172
  949MOL0     C25176   3.876   7.583   7.149  0.6784  0.9289  0.9734
  949MOL0     C25177   3.801   7.630   7.025  0.1188 -0.3398 -0.4781
  949MOL0     C25178   3.732   7.517   6.942  0.6257  0.0275 -0.1861
  949MOL0     C25179   3.619   7.573   6.838 -0.1808  0.0189  0.0232
  949MOL0    Cl25180   3.703   7.656   6.699 -0.2013 -0.0284 -0.2541
  949MOL0     C25181   4.597   7.825   7.531  0.4677 -0.1619  0.1726
  949MOL0     C25182   4.733   7.837   7.542 -0.0857 -0.5857 -0.2501
  949MOL0     O25183   5.000   7.604   7.463  0.3464  0.1572 -0.0617
  949MOL0     C25184   5.264   7.639   7.516 -0.6700 -0.1709  0.7294
  949MOL0     C25185   5.403   7.643   7.510 -0.5300  0.0812  0.8495
  949MOL0     N25186   5.548   8.183   7.175 -0.3880 -0.0298 -0.0310
  949MOL0     N25187   5.519   8.302   7.134 -0.0850  0.5496 -0.2261
  949MOL0     C25188   6.510   8.932   6.851 -0.0901 -0.2599 -0.3564
  949MOL0     C25189   6.650   8.921   6.852 -0.7232  0.1847 -1.2672
  949MOL0     C25190   7.078   8.892   6.990 -0.7014 -0.5002  0.8275
  949MOL0     C25191   7.165   8.959   7.079 -0.5446  0.6166 -0.4622
  949MOL0     C25192   7.304   8.938   7.071  0.0273  0.7841  0.5087
  949MOL0     C25193   7.363   8.896   6.949  1.0626 -0.3429 -0.0160
  949MOL0     O25194   7.492   8.913   6.928 -0.9714  0.1740 -0.4686
  949MOL0     C25195   7.550   9.041   6.962 -0.2212 -0.7369  0.2331
  949MOL0     C25196   7.680   9.068   6.886 -0.4987  0.6206  0.5845
  949MOL0     C25197   7.665   9.121   6.737  0.5090  0.3470 -0.3419
  949MOL0     C25198   7.769   9.060   6.643  0.2038 -0.4547 -0.5985
  949MOL0     C25199   7.875   9.153   6.604  0.4857 -0.2079  0.0390
  949MOL0     C25200   7.948   9.240   6.567 -0.5085 -0.7106 -0.2539
  949MOL0     C25201   7.277   8.853   6.846 -0.4261  0.7707 -0.5656
  949MOL0     C25202   7.139   8.843   6.876  0.0963  0.1985  0.2746
  949MOL0     H25203   6.685   8.725   7.131 -0.2859  1.6658  1.9724
  949MOL0     H25204   6.448   8.757   7.132 -1.5094  2.7016  0.4006
  949MOL0     H25205   6.186   8.764   7.082  0.7342 -0.9580  0.0209
  949MOL0     H25206   6.274   8.663   6.967 -0.9055 -1.0007 -1.8661
  949MOL0     H25207   6.123   8.768   6.778 -2.9244  0.1636 -0.2936
  949MOL0     H25208   6.026   8.811   6.916 -0.1647  0.8882 -1.3978
  949MOL0     H25209   6.136   8.531   6.843  2.3065  2.5542 -1.0371
  949MOL0     H25210   5.971   8.603   6.811 -2.9090 -0.3630  2.8676
  949MOL0     H25211   5.983   8.431   6.989 -2.4335  0.0436  1.3021
  949MOL0     H25212   6.099   8.533   7.075 -0.0326  0.1750  0.0801
  949MOL0     H25213   5.834   8.654   7.014  0.0554 -0.9981 -0.0152
  949MOL0     H25214   5.950   8.696   7.149  0.3757  0.4260 -0.0385
  949MOL0     H25215   5.886   8.476   7.259  1.5840 -0.3820 -1.1898
  949MOL0     H25216   5.778   8.444   7.134  1.3178 -0.5191  0.4364
  949MOL0     H25217   5.722   8.608   7.354  1.3951 -0.6657 -0.4632
  949MOL0     H25218   5.712   8.712   7.213 -2.6304  0.5748  1.5565
  949MOL0     H25219   5.567   8.561   7.095 -0.0499 -4.3672 -0.6955
  949MOL0     H25220   5.494   8.596   7.245 -0.1312  0.8785 -0.7329
  949MOL0     H25221   5.606   8.370   7.440  0.7919  0.4926 -0.1062
  949MOL0     H25222   5.531   8.057   7.445  1.7872  0.6061  4.1691
  949MOL0     H25223   5.656   8.169   7.505  4.6138 -0.1666 -0.5198
  949MOL0     H25224   5.832   8.082   7.352  1.1325 -0.6220 -0.8084
  949MOL0     H25225   5.723   7.971   7.278 -1.1522 -1.1906  1.8024
  949MOL0     H25226   5.837   7.834   7.419  0.7159 -0.3543  1.0069
  949MOL0     H25227   5.823   7.948   7.556 -0.5591  2.1384 -0.3370
  949MOL0     H25228   5.585   7.913   7.569  0.7890  1.8937 -2.1345
  949MOL0     H25229   5.678   7.786   7.623  1.3100 -1.4087 -0.6798
  949MOL0     H25230   5.444   7.912   7.315  0.0293 -0.7577 -0.6671
  949MOL0     H25231   5.190   7.907   7.317 -1.0116  0.5767  1.2132
  949MOL0     H25232   4.830   7.668   7.256 -0.2107 -1.7329 -0.4063
  949MOL0     H25233   4.594   7.650   7.227  1.5328 -0.6134  0.1071
  949MOL0     H25234   4.340   7.582   7.282  2.1887 -0.5015 -0.3064
  949MOL0     H25235   4.390   7.727   7.198  0.4710 -2.1187 -0.7943
  949MOL0     H25236   4.210   7.865   7.288 -3.2548 -0.1956 -0.6144
  949MOL0     H25237   4.162   7.740   7.396  0.1774 -0.2171 -0.4243
  949MOL0     H25238   4.148   7.592   7.189 -0.7542 -0.3156  0.7991
  949MOL0     H25239   4.149   7.726   7.088 -0.8009 -1.8841 -0.7719
  949MOL0     H25240   3.970   7.667   7.328 -1.2565  4.5794  1.7104
  949MOL0     H25241   3.905   7.785   7.219 -1.2328 -1.0395 -4.4054
  949MOL0     H25242   3.794   7.556   7.216 -2.0266 -1.0038 -2.6914
  949MOL0     H25243   3.940   7.496   7.128  1.0105  1.5080 -0.5417
  949MOL0     H25244   3.858   7.695   6.957 -1.6563  1.0302 -0.7483
  949MOL0     H25245   3.721   7.689   7.070  1.1169  0.7468 -0.0623
  949MOL0     H25246   3.805   7.462   6.882 -1.4429  0.3090 -3.1960
  949MOL0     H25247   3.696   7.447   7.018  3.2064 -0.3539  0.7870
  949MOL0     H25248   3.568   7.658   6.883 -0.2791  0.6328 -1.2006
  949MOL0     H25249   3.546   7.498   6.807  0.7950 -1.1409  0.4081
  949MOL0     H25250   4.549   7.887   7.605 -0.1849  0.1421 -0.4944
  949MOL0     H25251   4.784   7.894   7.618 -0.0337 -1.7688  0.6340
  949MOL0     H25252   5.229   7.559   7.580 -0.7740 -0.3213  0.4831
  949MOL0     H25253   5.471   7.566   7.545  0.8411 -0.3391 -2.3776
  949MOL0     H25254   6.461   8.984   6.769 -0.9817  0.4757  0.6079
  949MOL0     H25255   6.699   8.969   6.768 -2.2624 -0.3899 -2.5533
  949MOL0     H25256   7.120   8.990   7.173  1.4463 -2.0346  1.5174
  949MOL0     H25257   7.363   8.966   7.158  0.6126 -0.8765  0.6690
  949MOL0     H25258   7.575   9.044   7.068 -1.8211  0.1799  0.6045
  949MOL0     H25259   7.486   9.124   6.930  1.0045  0.4834  0.8595
  949MOL0     H25260   7.736   9.149   6.934  0.9170  1.0520 -1.6269
  949MOL0     H25261   7.738   8.975   6.891  3.8147  2.8693 -1.4838
  949MOL0     H25262   7.672   9.230   6.742  0.5728  0.4459 -1.9993
  949MOL0     H25263   7.565   9.096   6.698 -0.2352 -1.3119  2.3706
  949MOL0     H25264   7.815   8.975   6.694 -0.5005 -2.0940 -2.5801
  949MOL0     H25265   7.726   9.027   6.548 -0.6931 -0.7575 -0.0976
  949MOL0     H25266   8.031   9.304   6.546  0.2374 -1.7707 -0.6305
  949MOL0     H25267   7.316   8.811   6.754 -1.6937  0.1298 -0.8357
  949MOL0     H25268   7.074   8.791   6.806 -0.8418  1.2762  0.3049
  950MOL0     O25269   5.926   0.725   1.813 -0.3258  0.1621  0.0060
  950MOL0     C25270   5.984   0.759   1.918 -0.3572  0.2782 -0.0184
  950MOL0     O25271   5.964   0.698   2.030 -0.4183  0.3231 -0.5581
  950MOL0     C25272   5.846   0.623   2.058  0.4684  0.1873  0.2413
  950MOL0     C25273   5.744   0.688   2.123 -0.6173 -0.0467  0.3522
  950MOL0     C25274   5.625   0.628   2.163  0.0115  0.9694 -0.1287
  950MOL0     C25275   5.607   0.488   2.145 -0.1795  0.2577 -0.2740
  950MOL0     O25276   5.488   0.434   2.169  0.0542 -0.7497 -0.5882
  950MOL0     C25277   5.473   0.305   2.231 -1.1312  0.3893  0.5645
  950MOL0     C25278   5.336   0.311   2.294 -0.0720  0.0730 -0.0170
  950MOL0     C25279   5.315   0.170   2.354  0.4601 -0.2362 -0.2864
  950MOL0     C25280   5.180   0.161   2.422  0.2467  0.1426  0.9135
  950MOL0     C25281   5.165   0.031   2.493  1.0276 -0.3568  0.6040
  950MOL0     C25282   5.032   0.032   2.581  0.1309  0.5034  1.2581
  950MOL0     C25283   4.899   0.054   2.506  1.1694  0.6052 -0.4491
  950MOL0     C25284   4.772   0.055   2.606 -0.8737  0.1806  0.7449
  950MOL0     N25285   4.709  -0.074   2.646  0.3299  0.3636  0.0888
  950MOL0     C25286   4.586  -0.075   2.706  0.3422 -0.2565  0.0232
  950MOL0     C25287   4.574  -0.196   2.751  0.0107  1.6289  0.7372
  950MOL0     C25288   4.444  -0.258   2.811 -0.7137  0.7953 -0.4822
  950MOL0     C25289   4.457  -0.308   2.958 -0.4805 -0.1752 -0.8566
  950MOL0     C25290   4.319  -0.359   2.996  0.2699 -0.3742  0.2666
  950MOL0     C25291   4.252  -0.447   2.887  1.1584 -0.0748 -0.9566
  950MOL0     O25292   4.154  -0.529   2.953 -0.7160  0.1013  0.2009
  950MOL0     C25293   4.035  -0.482   2.997 -0.2695 -0.0654  0.0434
  950MOL0     C25294   3.973  -0.551   3.093 -0.2627  0.2385 -0.8120
  950MOL0     C25295   3.863  -0.504   3.162 -0.4556 -0.4499 -0.6569
  950MOL0     C25296   3.801  -0.382   3.120  0.5120  0.7575 -0.3524
  950MOL0     C25297   3.662  -0.350   3.179  0.2032  0.1181  1.5290
  950MOL0     O25298   3.579  -0.453   3.200 -0.6638 -0.1828  0.5606
  950MOL0     C25299   3.445  -0.424   3.201  0.0219  0.4158 -0.1457
  950MOL0     C25300   3.382  -0.339   3.111  0.4095  1.0759  0.7829
  950MOL0     C25301   3.241  -0.320   3.117 -0.2645  0.3689 -0.0481
  950MOL0     C25302   3.160  -0.392   3.208 -0.5581  0.2034  0.4935
  950MOL0     O25303   3.022  -0.382   3.225 -0.2165  0.2008  0.3912
  950MOL0     C25304   2.942  -0.335   3.113  0.8725  0.1369 -0.2304
  950MOL0     C25305   2.789  -0.367   3.138 -1.1391 -0.0152  0.0535
  950MOL0     C25306   2.741  -0.320   3.276 -0.1112  0.5507 -0.4550
  950MOL0     C25307   2.612  -0.371   3.297 -1.3340 -0.4338  0.0285
  950MOL0     C25308   2.526  -0.310   3.406  0.4270 -0.3301 -0.7944
  950MOL0     C25309   2.576  -0.339   3.546  0.5648 -0.5154 -0.4749
  950MOL0     C25310   2.463  -0.365   3.636  0.0512 -0.6864  0.6544
  950MOL0     C25311   2.492  -0.355   3.787 -0.5010 -0.1381  0.1612
  950MOL0    Cl25312   2.622  -0.459   3.826  0.1413 -0.0102  0.3160
  950MOL0     C25313   3.230  -0.470   3.302 -0.5290  0.5192 -0.1420
  950MOL0     C25314   3.366  -0.489   3.299  0.2618  0.7584  0.9107
  950MOL0     O25315   3.626  -0.232   3.192  0.1786 -0.1776  0.1717
  950MOL0     C25316   3.865  -0.307   3.021  0.2816  0.1862 -0.6398
  950MOL0     C25317   3.982  -0.360   2.958  0.4492  0.1869 -0.6947
  950MOL0     N25318   4.692  -0.268   2.731 -0.8425  1.0774  1.1084
  950MOL0     N25319   4.777  -0.190   2.670  0.4724 -0.7460 -0.1716
  950MOL0     C25320   5.706   0.418   2.071  0.2994 -0.2305 -0.6899
  950MOL0     C25321   5.826   0.485   2.039 -0.2342  0.0459  0.8946
  950MOL0     C25322   6.086   0.872   1.921 -0.7905  0.2104  0.3479
  950MOL0     C25323   6.152   0.910   2.042  0.3890  0.2109  0.4260
  950MOL0     C25324   6.241   1.024   2.044 -0.0158  0.1604 -0.4502
  950MOL0     C25325   6.263   1.095   1.921 -0.7379 -0.2532 -0.1169
  950MOL0     O25326   6.350   1.204   1.909  0.5911 -0.9045 -1.1838
  950MOL0     C25327   6.444   1.259   2.010 -0.1987  0.8547  1.0001
  950MOL0     C25328   6.569   1.176   2.031 -0.5648  0.0276 -0.0273
  950MOL0     C25329   6.660   1.160   1.908  0.4536  0.7691  0.2002
  950MOL0     C25330   6.656   1.263   1.799 -0.7974  0.3530 -0.4963
  950MOL0     C25331   6.703   1.395   1.838  0.4319 -0.1408 -0.5258
  950MOL0     C25332   6.731   1.509   1.873 -0.1720 -0.1677  0.1188
  950MOL0     C25333   6.191   1.065   1.805  0.0609 -0.0340 -0.2011
  950MOL0     C25334   6.106   0.959   1.811  0.0309  0.1107 -0.2594
  950MOL0     H25335   5.752   0.791   2.156  0.4836 -0.7731  2.5192
  950MOL0     H25336   5.551   0.681   2.221 -2.3738 -1.2201 -0.9851
  950MOL0     H25337   5.554   0.310   2.304  1.3463 -0.4800 -1.9478
  950MOL0     H25338   5.483   0.220   2.163  0.6575  1.5914 -0.7721
  950MOL0     H25339   5.265   0.336   2.214  1.6541  1.6428 -1.1244
  950MOL0     H25340   5.331   0.386   2.373 -0.2849 -1.8115  1.8365
  950MOL0     H25341   5.398   0.159   2.424 -1.5814  2.5524  2.9448
  950MOL0     H25342   5.333   0.092   2.280  2.2139 -0.8138  0.7069
  950MOL0     H25343   5.170   0.246   2.490  0.6315 -1.2562  2.8103
  950MOL0     H25344   5.095   0.165   2.353  0.5235 -1.0150  0.4783
  950MOL0     H25345   5.255  -0.008   2.541  2.3598 -0.6733 -1.9848
  950MOL0     H25346   5.145  -0.051   2.423 -1.0626  1.4390 -1.0390
  950MOL0     H25347   5.030   0.114   2.653 -0.8995 -0.6226  2.5898
  950MOL0     H25348   5.022  -0.062   2.637 -0.6043 -0.9510 -1.1700
  950MOL0     H25349   4.899   0.147   2.449  2.0996 -0.3531 -2.0921
  950MOL0     H25350   4.883  -0.019   2.426 -2.0043 -0.2387  0.7896
  950MOL0     H25351   4.693   0.112   2.556 -0.7955 -1.2309 -1.1342
  950MOL0     H25352   4.809   0.100   2.698 -1.2249 -1.2330  1.6027
  950MOL0     H25353   4.502  -0.007   2.707  1.8797  1.7420 -0.3083
  950MOL0     H25354   4.436  -0.343   2.743  1.6067 -0.0003  0.1144
  950MOL0     H25355   4.369  -0.179   2.804  1.3057  2.7109 -2.4664
  950MOL0     H25356   4.501  -0.222   3.010 -1.9912 -0.1760  0.4958
  950MOL0     H25357   4.532  -0.387   2.975  1.1363  1.7262  1.4933
  950MOL0     H25358   4.321  -0.414   3.091  0.6792  0.5059  0.7844
  950MOL0     H25359   4.245  -0.284   3.024  0.3032 -0.6126  1.0325
  950MOL0     H25360   4.317  -0.516   2.832  0.6240  0.1664 -1.9159
  950MOL0     H25361   4.223  -0.383   2.803  3.3118 -0.7693 -2.3398
  950MOL0     H25362   4.017  -0.646   3.123  1.1480  0.4204 -2.1896
  950MOL0     H25363   3.841  -0.557   3.255  1.7164  1.7163  1.2293
  950MOL0     H25364   3.443  -0.299   3.031  1.3028 -0.8863  0.4217
  950MOL0     H25365   3.197  -0.252   3.044 -0.0267  0.4733 -0.0953
  950MOL0     H25366   2.973  -0.381   3.018 -1.0841 -1.0542 -0.3480
  950MOL0     H25367   2.944  -0.227   3.096  1.8634  0.1943  0.1634
  950MOL0     H25368   2.790  -0.476   3.129  0.2653  0.1510 -2.5754
  950MOL0     H25369   2.730  -0.315   3.061 -0.7927  3.7652  2.1188
  950MOL0     H25370   2.738  -0.212   3.290 -2.1657  1.0779 -3.9519
  950MOL0     H25371   2.805  -0.369   3.351 -1.0668  1.7268  1.1850
  950MOL0     H25372   2.552  -0.361   3.205  1.4434  0.3706 -1.8268
  950MOL0     H25373   2.605  -0.480   3.308  0.7982 -0.3841  3.0362
  950MOL0     H25374   2.428  -0.357   3.394  0.5061 -0.4897 -0.8047
  950MOL0     H25375   2.512  -0.202   3.391  0.2903 -0.0840  0.8693
  950MOL0     H25376   2.642  -0.260   3.586 -0.5413 -0.7175  1.9746
  950MOL0     H25377   2.636  -0.430   3.552  0.2148 -0.7524 -0.6112
  950MOL0     H25378   2.378  -0.297   3.621  1.6936  1.6511  1.2784
  950MOL0     H25379   2.417  -0.463   3.623 -2.3596  0.1946  1.8541
  950MOL0     H25380   2.408  -0.385   3.850 -0.1481 -3.9092 -0.9073
  950MOL0     H25381   2.510  -0.251   3.813 -0.7618 -0.1205  0.2765
  950MOL0     H25382   3.173  -0.506   3.387  1.5688 -0.4093  0.9291
  950MOL0     H25383   3.424  -0.543   3.374  0.6352  1.9863  1.5420
  950MOL0     H25384   3.838  -0.212   2.975  4.2796  1.0867 -1.4438
  950MOL0     H25385   4.033  -0.299   2.885 -1.2037  0.4857 -1.6707
  950MOL0     H25386   5.706   0.316   2.033 -3.6879 -1.7922  2.6935
  950MOL0     H25387   5.900   0.412   2.007  0.7145  1.1503  0.5150
  950MOL0     H25388   6.143   0.837   2.123 -1.6291 -1.4957 -1.2220
  950MOL0     H25389   6.317   1.031   2.122 -1.0377 -0.6011  0.6411
  950MOL0     H25390   6.391   1.248   2.106 -1.9766 -4.3444 -0.2411
  950MOL0     H25391   6.461   1.363   1.981 -0.1736  0.8893  1.1390
  950MOL0     H25392   6.627   1.218   2.114 -0.1122 -0.4433 -0.0966
  950MOL0     H25393   6.541   1.072   2.050  0.3958 -0.6588 -2.0562
  950MOL0     H25394   6.645   1.063   1.860 -0.9301 -0.1887  2.4087
  950MOL0     H25395   6.761   1.159   1.952 -0.2754 -1.8677  2.0800
  950MOL0     H25396   6.717   1.230   1.715 -3.1436  0.7020 -2.4367
  950MOL0     H25397   6.555   1.280   1.760 -1.3509  1.2922  1.2282
  950MOL0     H25398   6.751   1.607   1.911  2.0499 -1.3814  2.3821
  950MOL0     H25399   6.207   1.115   1.710  2.1366 -3.4052 -1.8319
  950MOL0     H25400   6.050   0.940   1.719  0.3880  1.3667 -0.7555
  951MOL0     O25401  10.845   1.631   8.981  0.1539  0.0624 -1.1004
  951MOL0     C25402  10.903   1.728   8.940 -0.2486 -0.5172  0.1054
  951MOL0     O25403  10.850   1.818   8.865  0.7747 -0.4424 -0.6475
  951MOL0     C25404  10.713   1.812   8.836 -0.4349  0.0026 -0.5176
  951MOL0     C25405  10.620   1.851   8.935 -0.2079 -1.1395 -1.0073
  951MOL0     C25406  10.482   1.844   8.913  0.4426  0.2741  0.6782
  951MOL0     C25407  10.434   1.789   8.792  0.2270 -0.9980  0.1855
  951MOL0     O25408  10.302   1.803   8.744  0.0223  0.0828 -0.4325
  951MOL0     C25409  10.203   1.870   8.829 -0.4311 -0.0933 -0.0665
  951MOL0     C25410  10.077   1.816   8.773 -0.5681 -0.5245  0.9469
  951MOL0     C25411   9.942   1.851   8.836  0.1912  0.0806 -0.3152
  951MOL0     C25412   9.838   1.772   8.763 -0.9746 -0.1404 -0.3292
  951MOL0     C25413   9.705   1.815   8.824  0.1768  0.5995 -0.0697
  951MOL0     C25414   9.670   1.952   8.762 -0.1442  0.0598  0.5580
  951MOL0     C25415   9.523   1.988   8.789 -1.1185  0.4441 -0.4090
  951MOL0     C25416   9.484   2.125   8.711  0.0968  0.1743  0.5673
  951MOL0     N25417   9.339   2.140   8.734  0.2127  0.4429 -0.0029
  951MOL0     C25418   9.239   2.050   8.691  0.1126  0.5592  0.7794
  951MOL0     C25419   9.123   2.113   8.718 -0.6654  0.3329  0.1929
  951MOL0     C25420   8.990   2.061   8.697 -0.1202  0.7310 -0.1021
  951MOL0     C25421   8.970   1.917   8.752 -0.1497 -0.6543 -0.7179
  951MOL0     C25422   8.860   1.829   8.684  0.3373  0.9305  0.0814
  951MOL0     C25423   8.712   1.859   8.700  0.6228 -0.1564 -0.5149
  951MOL0     O25424   8.634   1.771   8.631 -0.0811  0.0311  0.3623
  951MOL0     C25425   8.500   1.795   8.641  0.7221 -0.2418 -0.3850
  951MOL0     C25426   8.423   1.834   8.536  0.0015 -0.5306 -0.4109
  951MOL0     C25427   8.284   1.860   8.547  0.0256 -1.0073  0.1619
  951MOL0     C25428   8.221   1.851   8.680  1.0007 -0.3938  0.1980
  951MOL0     C25429   8.073   1.854   8.689 -0.2747 -0.0288 -0.1762
  951MOL0     O25430   8.016   1.763   8.763 -0.0756  0.1900 -0.6117
  951MOL0     C25431   7.886   1.762   8.803  0.2171  0.2043  0.3031
  951MOL0     C25432   7.797   1.688   8.724 -0.0281 -0.7822  0.2594
  951MOL0     C25433   7.669   1.666   8.756  0.5351  0.3548 -0.5295
  951MOL0     C25434   7.613   1.719   8.878  0.7220 -0.2997  0.1953
  951MOL0     O25435   7.485   1.718   8.915 -0.1095  0.2803  0.1405
  951MOL0     C25436   7.431   1.761   9.045  0.3098  0.0142  0.2120
  951MOL0     C25437   7.285   1.745   9.033  0.9240 -0.4911  0.3243
  951MOL0     C25438   7.215   1.775   9.157 -0.1681 -0.9101 -0.1809
  951MOL0     C25439   7.059   1.780   9.146  0.3792 -0.5258 -0.7397
  951MOL0     C25440   6.988   1.760   9.281 -0.2830  0.4552  0.4658
  951MOL0     C25441   6.844   1.724   9.262 -0.0674 -0.0636 -0.7754
  951MOL0     C25442   6.762   1.844   9.212 -0.2788  0.5294  0.0176
  951MOL0     C25443   6.614   1.810   9.187  0.1905 -0.8126 -0.2271
  951MOL0    Cl25444   6.527   1.696   9.299 -0.2552 -0.0259  0.1084
  951MOL0     C25445   7.709   1.775   8.962  0.3713 -1.0046 -0.4314
  951MOL0     C25446   7.841   1.804   8.925 -0.1027 -0.7867 -0.1178
  951MOL0     O25447   8.011   1.945   8.633 -0.5664 -0.0327 -0.1064
  951MOL0     C25448   8.300   1.805   8.781  0.0911  0.3815 -0.3607
  951MOL0     C25449   8.431   1.770   8.764 -0.5591  0.1321  0.0702
  951MOL0     N25450   9.148   2.233   8.781  0.9067 -0.0430  1.0787
  951MOL0     N25451   9.276   2.250   8.776  0.4575 -0.5584  0.5488
  951MOL0     C25452  10.524   1.724   8.704  0.4074  0.0913  0.3038
  951MOL0     C25453  10.664   1.743   8.724  0.7429  1.1534 -0.4137
  951MOL0     C25454  11.041   1.744   8.978  0.9615  0.1380 -0.7508
  951MOL0     C25455  11.115   1.846   8.928 -0.2545  0.3383  0.3879
  951MOL0     C25456  11.245   1.859   8.973  0.0691  0.2562  0.0084
  951MOL0     C25457  11.313   1.773   9.067 -0.4710 -0.1638  0.0612
  951MOL0     O25458  11.437   1.800   9.110  0.3425 -0.5382  0.9831
  951MOL0     C25459  11.538   1.747   9.024 -0.0822 -0.6526 -0.4734
  951MOL0     C25460  11.663   1.837   9.026  0.0642 -0.1723  0.0141
  951MOL0     C25461  11.798   1.775   8.962 -0.1137  0.3983  0.3660
  951MOL0     C25462  11.906   1.881   8.969 -0.8790 -0.2779 -0.5988
  951MOL0     C25463  12.043   1.829   8.929 -0.2863  0.6392 -0.6718
  951MOL0     C25464  12.143   1.767   8.912  0.5545 -1.2585 -0.6797
  951MOL0     C25465  11.242   1.651   9.091 -0.6149 -0.0446 -0.6766
  951MOL0     C25466  11.108   1.646   9.057 -0.2719  0.4909  0.3437
  951MOL0     H25467  10.643   1.866   9.039 -2.2520 -2.8796 -0.2220
  951MOL0     H25468  10.410   1.868   8.991 -2.0574 -0.2815 -1.3481
  951MOL0     H25469  10.218   1.978   8.833 -0.0212 -0.1427 -0.2682
  951MOL0     H25470  10.213   1.833   8.931 -1.1929 -0.3192 -0.0654
  951MOL0     H25471  10.095   1.708   8.769  1.9631 -0.1340 -1.4711
  951MOL0     H25472  10.068   1.865   8.675 -1.0591  0.9741  1.7106
  951MOL0     H25473   9.918   1.958   8.831 -2.7481 -0.1905  3.4077
  951MOL0     H25474   9.947   1.821   8.941 -2.3080  1.1051  0.1719
  951MOL0     H25475   9.851   1.807   8.660  1.5531  3.3876  0.9715
  951MOL0     H25476   9.852   1.665   8.776 -1.6687  0.0135  2.2748
  951MOL0     H25477   9.696   1.815   8.933 -2.1657 -1.5000 -0.1855
  951MOL0     H25478   9.629   1.749   8.781 -0.6607  2.5697 -1.8193
  951MOL0     H25479   9.681   1.940   8.654  2.2088 -2.4733  0.9624
  951MOL0     H25480   9.723   2.039   8.801 -0.3975  1.2515 -1.6229
  951MOL0     H25481   9.450   1.915   8.752 -0.3817 -0.5540  0.0710
  951MOL0     H25482   9.510   2.009   8.895  0.6808  0.7749 -0.2139
  951MOL0     H25483   9.505   2.114   8.604  0.8303 -0.7530  0.7865
  951MOL0     H25484   9.535   2.210   8.756 -0.7262  0.6654  0.5996
  951MOL0     H25485   9.248   1.960   8.632 -0.1235  0.5390  0.7724
  951MOL0     H25486   8.968   2.065   8.589 -4.7509  0.5064  0.6189
  951MOL0     H25487   8.910   2.122   8.739 -2.2777 -2.0221  0.0936
  951MOL0     H25488   8.956   1.939   8.859 -1.4492  1.1663 -1.1987
  951MOL0     H25489   9.067   1.868   8.743  0.9660  1.5239 -1.2733
  951MOL0     H25490   8.886   1.820   8.578 -0.2280 -3.2201  0.1323
  951MOL0     H25491   8.878   1.725   8.713  0.7132  1.6882  2.7377
  951MOL0     H25492   8.693   1.963   8.672 -0.8540 -0.7252 -1.7388
  951MOL0     H25493   8.684   1.843   8.805 -2.2174 -0.1987 -1.2204
  951MOL0     H25494   8.474   1.845   8.442  0.8322 -1.4838 -0.0901
  951MOL0     H25495   8.222   1.884   8.462 -0.0321  2.9871  1.1083
  951MOL0     H25496   7.837   1.643   8.634  0.1599 -1.1039  0.5006
  951MOL0     H25497   7.607   1.607   8.689  0.8839 -1.4911  0.6876
  951MOL0     H25498   7.476   1.859   9.061 -0.0399  0.3310 -0.6332
  951MOL0     H25499   7.452   1.700   9.133 -3.8949 -1.2849  0.5046
  951MOL0     H25500   7.268   1.638   9.017  3.5192 -1.1982  1.8063
  951MOL0     H25501   7.249   1.807   8.950 -0.0073 -1.1555  0.2181
  951MOL0     H25502   7.256   1.871   9.191  0.0742 -0.8824 -0.5525
  951MOL0     H25503   7.233   1.693   9.227 -2.2585 -0.1292  1.3850
  951MOL0     H25504   7.029   1.880   9.113 -2.6658 -1.5301 -1.3701
  951MOL0     H25505   7.032   1.710   9.066  0.3736  0.1411 -1.3252
  951MOL0     H25506   7.007   1.832   9.361  2.2747 -0.2011  0.5379
  951MOL0     H25507   7.032   1.670   9.326 -4.3884 -0.6961  2.6726
  951MOL0     H25508   6.818   1.696   9.364  0.9716  1.2507 -0.1204
  951MOL0     H25509   6.827   1.640   9.194 -2.7639 -0.4959  0.3104
  951MOL0     H25510   6.763   1.914   9.295  1.3047 -1.1852  1.5256
  951MOL0     H25511   6.804   1.872   9.115 -1.2470  0.1908 -0.5163
  951MOL0     H25512   6.605   1.755   9.093 -0.5874 -0.1344 -0.5597
  951MOL0     H25513   6.561   1.906   9.176  2.3830  0.4748 -0.1280
  951MOL0     H25514   7.678   1.812   9.060  0.3976  0.2496 -0.8700
  951MOL0     H25515   7.911   1.853   8.990  0.6237  3.0325 -3.3761
  951MOL0     H25516   8.264   1.800   8.884 -0.5271  1.2105 -0.5226
  951MOL0     H25517   8.477   1.730   8.853  2.5781  1.0161 -1.0091
  951MOL0     H25518  10.476   1.678   8.619  2.3536 -1.6192  0.0400
  951MOL0     H25519  10.726   1.702   8.644 -1.5313  2.6083 -3.1335
  951MOL0     H25520  11.090   1.917   8.849  0.5259 -1.9311 -2.0332
  951MOL0     H25521  11.299   1.944   8.932  0.1072  1.4042  2.2641
  951MOL0     H25522  11.505   1.735   8.920 -0.0101 -1.0370 -0.4518
  951MOL0     H25523  11.560   1.651   9.070  2.2166 -0.3946 -0.9008
  951MOL0     H25524  11.627   1.926   8.972 -0.6195  1.4360  2.9176
  951MOL0     H25525  11.692   1.866   9.127 -0.9869 -0.1269  0.3142
  951MOL0     H25526  11.787   1.737   8.860  1.0630 -0.0809  0.3966
  951MOL0     H25527  11.820   1.688   9.025 -0.8766  0.4049  0.6489
  951MOL0     H25528  11.870   1.962   8.905 -0.4746  0.5795  0.2387
  951MOL0     H25529  11.909   1.926   9.069  2.0906 -0.1429 -0.6702
  951MOL0     H25530  12.223   1.696   8.901  0.4081 -1.6508  0.6516
  951MOL0     H25531  11.294   1.581   9.155 -0.5538  0.4429 -0.1896
  951MOL0     H25532  11.068   1.550   9.087  2.2717 -0.6884  0.2318
  952MOL0     O25533   6.608   7.220   2.134 -0.4429  0.3304 -0.8910
  952MOL0     C25534   6.488   7.236   2.175  0.4872 -0.9455  0.0153
  952MOL0     O25535   6.387   7.158   2.136 -0.1584  0.3162  0.8338
  952MOL0     C25536   6.426   7.057   2.048 -0.4372 -0.4342 -0.5678
  952MOL0     C25537   6.463   7.076   1.913  0.4526 -0.2232 -0.0203
  952MOL0     C25538   6.481   6.963   1.836  0.1357  0.2342  0.8376
  952MOL0     C25539   6.460   6.837   1.882 -0.2477 -0.0895 -0.6221
  952MOL0     O25540   6.473   6.740   1.782  1.0800  0.0750  0.1604
  952MOL0     C25541   6.605   6.666   1.800  0.5586  0.1265  0.2325
  952MOL0     C25542   6.595   6.524   1.755 -0.1444 -0.8322  0.0418
  952MOL0     C25543   6.731   6.447   1.747  0.1795 -0.9650  0.0821
  952MOL0     C25544   6.836   6.504   1.650 -0.8102 -0.0431  0.1274
  952MOL0     C25545   6.950   6.403   1.635  1.1783 -0.7783  0.2820
  952MOL0     C25546   7.062   6.455   1.550 -0.1289 -0.4214  0.2053
  952MOL0     C25547   7.166   6.343   1.546 -0.1076  0.3563 -0.4573
  952MOL0     C25548   7.271   6.384   1.450 -0.3892 -0.1458  0.8353
  952MOL0     N25549   7.245   6.311   1.323  0.4433  0.2746  0.8493
  952MOL0     C25550   7.316   6.198   1.287  0.1544 -0.8948 -0.2576
  952MOL0     C25551   7.259   6.158   1.170 -0.4584  0.5138  0.5619
  952MOL0     C25552   7.306   6.057   1.074  0.7432 -0.1911  0.4061
  952MOL0     C25553   7.282   5.912   1.130 -0.5474 -0.1970  0.9781
  952MOL0     C25554   7.137   5.867   1.163  0.1360 -0.2288  0.7252
  952MOL0     C25555   7.115   5.728   1.233  0.1297 -0.0638  0.5957
  952MOL0     O25556   7.172   5.723   1.364 -0.3344  0.2956  0.0117
  952MOL0     C25557   7.116   5.803   1.460 -0.6131  0.2380 -0.1149
  952MOL0     C25558   7.205   5.901   1.502 -0.7498 -0.0526  0.1624
  952MOL0     C25559   7.164   5.983   1.606 -0.5117 -0.2642 -0.6675
  952MOL0     C25560   7.036   5.977   1.660  0.5007  0.1054 -0.2272
  952MOL0     C25561   6.995   6.063   1.774  0.9152  1.1933  0.2314
  952MOL0     O25562   6.881   6.020   1.842 -0.3195  0.3542  0.2146
  952MOL0     C25563   6.850   6.091   1.958 -0.2594 -0.3293 -0.6311
  952MOL0     C25564   6.741   6.176   1.963 -0.2236  0.2559 -0.1814
  952MOL0     C25565   6.716   6.260   2.070  0.3790 -0.1191  0.8036
  952MOL0     C25566   6.806   6.264   2.170 -0.0000 -0.0250  0.7415
  952MOL0     O25567   6.800   6.347   2.276 -0.7339  0.0557  0.6863
  952MOL0     C25568   6.672   6.368   2.340  0.1286  0.0783 -0.2191
  952MOL0     C25569   6.621   6.506   2.307  1.4803  0.6796 -0.6675
  952MOL0     C25570   6.681   6.617   2.396 -0.0987  0.0643 -0.1015
  952MOL0     C25571   6.640   6.759   2.360 -0.1507 -0.3001 -0.4499
  952MOL0     C25572   6.695   6.870   2.456 -0.0788  0.2485  0.5253
  952MOL0     C25573   6.644   7.014   2.409 -0.3279 -0.3314  0.0461
  952MOL0     C25574   6.716   7.130   2.487 -0.1688 -0.0281  0.0262
  952MOL0     C25575   6.755   7.094   2.634  0.9658 -0.0074  0.5195
  952MOL0    Cl25576   6.617   7.149   2.733  0.1824  0.1966  0.3733
  952MOL0     C25577   6.907   6.171   2.179 -0.8293  0.2685 -0.2044
  952MOL0     C25578   6.926   6.079   2.078  0.9389  0.1686  0.6927
  952MOL0     O25579   7.070   6.154   1.808 -1.0979 -0.6719  0.1733
  952MOL0     C25580   6.944   5.884   1.597  0.4031 -0.6970  0.3526
  952MOL0     C25581   6.988   5.800   1.495  0.2412 -0.3489  0.2319
  952MOL0     N25582   7.152   6.245   1.140  0.0382 -0.2757 -0.6059
  952MOL0     N25583   7.147   6.338   1.227 -0.3218 -0.0440  0.2211
  952MOL0     C25584   6.428   6.815   2.012 -0.0938 -0.1036  0.7322
  952MOL0     C25585   6.412   6.926   2.096 -0.4534  0.0048 -0.4334
  952MOL0     C25586   6.456   7.353   2.263 -0.2221  0.0460 -0.0652
  952MOL0     C25587   6.326   7.398   2.271 -0.0642 -0.8278  0.8791
  952MOL0     C25588   6.302   7.519   2.318  0.7056  0.0454 -0.0164
  952MOL0     C25589   6.394   7.597   2.386  0.8118  0.1491  0.2448
  952MOL0     O25590   6.328   7.701   2.450  0.2485 -0.0404 -0.5350
  952MOL0     C25591   6.415   7.783   2.524 -0.5360 -0.4093 -0.9782
  952MOL0     C25592   6.336   7.889   2.609  0.1281  0.1560  0.4102
  952MOL0     C25593   6.426   8.003   2.661  0.3116  0.7476  0.0453
  952MOL0     C25594   6.335   8.096   2.757  0.4405 -0.2112  0.0341
  952MOL0     C25595   6.287   8.025   2.879 -0.6916  0.1842  0.2940
  952MOL0     C25596   6.256   7.984   2.986  0.5700 -0.2391 -0.1493
  952MOL0     C25597   6.530   7.558   2.366  0.4943  1.2334 -0.4741
  952MOL0     C25598   6.558   7.435   2.305 -0.5567  0.3784  0.2808
  952MOL0     H25599   6.460   7.180   1.885 -0.5723  0.3376  2.0127
  952MOL0     H25600   6.524   6.983   1.738 -3.3055  2.2729 -0.4607
  952MOL0     H25601   6.622   6.664   1.908 -2.5953  0.8122  0.8713
  952MOL0     H25602   6.681   6.720   1.743  0.2534  1.4313  1.0179
  952MOL0     H25603   6.553   6.528   1.654  2.4905 -0.3823 -1.1142
  952MOL0     H25604   6.531   6.456   1.812  1.6663 -2.6934 -0.0387
  952MOL0     H25605   6.702   6.344   1.723  1.4978 -1.4934  0.6888
  952MOL0     H25606   6.757   6.449   1.853 -0.8796 -0.6242  0.3553
  952MOL0     H25607   6.796   6.522   1.550 -1.0332 -0.1330  0.2005
  952MOL0     H25608   6.871   6.600   1.690  0.8781 -0.2603 -0.7317
  952MOL0     H25609   6.902   6.309   1.604 -0.6941  0.3594 -0.4443
  952MOL0     H25610   6.986   6.385   1.737 -3.0884 -0.7421  2.0024
  952MOL0     H25611   7.109   6.545   1.592 -1.9294  0.9785 -0.6357
  952MOL0     H25612   7.031   6.477   1.447 -0.1091 -1.0318  0.0654
  952MOL0     H25613   7.207   6.332   1.647  0.5492  0.6867 -0.6847
  952MOL0     H25614   7.105   6.257   1.518  0.1843  0.1452 -0.4463
  952MOL0     H25615   7.365   6.353   1.497 -0.4468  1.7730  2.3015
  952MOL0     H25616   7.281   6.493   1.445 -0.2328 -0.0162  3.1375
  952MOL0     H25617   7.391   6.148   1.347 -0.7347 -3.5017 -1.1632
  952MOL0     H25618   7.411   6.080   1.057  0.7490 -1.3895 -1.5658
  952MOL0     H25619   7.248   6.053   0.981  0.4130 -2.1678  0.6506
  952MOL0     H25620   7.344   5.912   1.219  2.0031  0.4784 -0.6914
  952MOL0     H25621   7.328   5.841   1.061 -0.3672  0.4668  0.4039
  952MOL0     H25622   7.100   5.944   1.232 -1.5868  0.1142 -0.5154
  952MOL0     H25623   7.070   5.896   1.081  2.9681  3.1568 -0.6604
  952MOL0     H25624   7.147   5.642   1.174 -2.4292  0.9876 -2.6596
  952MOL0     H25625   7.008   5.702   1.238  0.1656 -0.1050  1.2878
  952MOL0     H25626   7.306   5.901   1.461 -0.2824 -0.6496  1.2708
  952MOL0     H25627   7.235   6.054   1.648 -0.6474 -1.3381  1.5347
  952MOL0     H25628   6.690   6.174   1.867  0.6251 -2.8474 -0.6764
  952MOL0     H25629   6.625   6.317   2.058  0.8052  0.2745 -0.7507
  952MOL0     H25630   6.698   6.356   2.445  1.6454 -1.0073 -0.6693
  952MOL0     H25631   6.603   6.289   2.309  0.0654 -0.3608  1.0195
  952MOL0     H25632   6.521   6.509   2.352  2.4768  1.1166  1.6999
  952MOL0     H25633   6.619   6.519   2.199  0.0585 -2.3359 -1.1177
  952MOL0     H25634   6.787   6.611   2.371  0.0028  0.3070  0.2648
  952MOL0     H25635   6.662   6.597   2.502 -3.3453  0.0436 -0.5999
  952MOL0     H25636   6.668   6.784   2.257 -0.6992 -1.3184 -0.8626
  952MOL0     H25637   6.531   6.767   2.362 -0.4462 -2.8085 -1.6931
  952MOL0     H25638   6.804   6.874   2.459 -0.0270  0.1289 -0.7769
  952MOL0     H25639   6.659   6.835   2.553  0.2401  1.6389  1.1616
  952MOL0     H25640   6.538   7.026   2.431 -0.4073  3.0668 -1.4999
  952MOL0     H25641   6.654   7.026   2.301  0.1542 -0.0502  0.1175
  952MOL0     H25642   6.809   7.153   2.433  0.0894 -1.5203 -0.2191
  952MOL0     H25643   6.651   7.217   2.477 -2.5391 -1.9671 -4.4908
  952MOL0     H25644   6.841   7.159   2.656  0.7618  0.3467  0.2863
  952MOL0     H25645   6.781   6.991   2.658 -1.7133 -0.7940  0.3954
  952MOL0     H25646   6.978   6.173   2.261  0.2997  2.2081 -1.1645
  952MOL0     H25647   7.005   6.004   2.079 -0.5594 -1.4966  0.3074
  952MOL0     H25648   6.843   5.889   1.636  0.3095  0.7636 -0.0287
  952MOL0     H25649   6.931   5.725   1.441  2.4943 -0.6162 -1.9631
  952MOL0     H25650   6.388   6.719   2.044 -0.7387  0.1193  0.6167
  952MOL0     H25651   6.383   6.919   2.200  1.6586  0.2976  0.2310
  952MOL0     H25652   6.247   7.341   2.225 -0.6368  0.8207 -0.2342
  952MOL0     H25653   6.198   7.546   2.330  0.7623 -0.3985  1.6130
  952MOL0     H25654   6.478   7.846   2.460  2.2753 -0.1312  1.7802
  952MOL0     H25655   6.474   7.726   2.597  0.5122  0.5156 -1.0680
  952MOL0     H25656   6.266   7.935   2.538  1.3165 -0.3602 -1.1726
  952MOL0     H25657   6.290   7.836   2.693  0.4023  0.1575  0.5607
  952MOL0     H25658   6.478   8.071   2.593  1.6199  2.0740  2.2555
  952MOL0     H25659   6.505   7.957   2.722  0.9759  0.5172 -0.9543
  952MOL0     H25660   6.376   8.191   2.790 -0.0609 -0.1949  0.6354
  952MOL0     H25661   6.244   8.126   2.704  0.1841 -4.8785 -2.7274
  952MOL0     H25662   6.232   7.942   3.081 -1.4515  0.8054 -0.1288
  952MOL0     H25663   6.609   7.617   2.410  0.7013  0.5406  0.1169
  952MOL0     H25664   6.660   7.401   2.318 -0.0492  2.4373  2.2290
  953MOL0     O25665   1.621   4.268   8.056  0.3503 -0.0261  0.4171
  953MOL0     C25666   1.638   4.279   7.938 -0.2077 -0.2346  0.6168
  953MOL0     O25667   1.753   4.261   7.874 -0.4187 -0.1588 -0.2110
  953MOL0     C25668   1.870   4.265   7.949 -0.4449  0.2192  0.6953
  953MOL0     C25669   1.885   4.313   8.083  0.0329  0.0442 -0.2555
  953MOL0     C25670   2.007   4.307   8.147 -0.0295 -0.1708  0.1107
  953MOL0     C25671   2.120   4.270   8.080 -0.5530  0.8547 -0.5698
  953MOL0     O25672   2.231   4.291   8.164  0.1957 -0.2360 -0.3428
  953MOL0     C25673   2.358   4.294   8.099 -0.1258 -0.5887 -0.3427
  953MOL0     C25674   2.456   4.403   8.163  0.9305  0.3604  0.5124
  953MOL0     C25675   2.577   4.426   8.081 -0.8104  0.4810  0.8045
  953MOL0     C25676   2.681   4.487   8.166  0.6533  0.1792 -0.1523
  953MOL0     C25677   2.818   4.493   8.107 -0.6055 -0.1584 -0.6539
  953MOL0     C25678   2.916   4.576   8.198 -1.0535  0.9263  1.4854
  953MOL0     C25679   3.046   4.618   8.127  0.5493 -0.4540  0.3083
  953MOL0     C25680   3.143   4.647   8.237 -1.0132 -0.0114 -0.1579
  953MOL0     N25681   3.267   4.706   8.183  1.3635 -0.4231  0.8348
  953MOL0     C25682   3.295   4.842   8.163 -0.2478 -0.2692 -0.1978
  953MOL0     C25683   3.428   4.858   8.162  0.3681 -0.2545  1.2590
  953MOL0     C25684   3.497   4.987   8.126  0.3416 -0.1349 -0.0704
  953MOL0     C25685   3.477   5.090   8.232  0.2878 -0.6567 -0.1090
  953MOL0     C25686   3.540   5.062   8.358  0.1146  0.0760  0.3118
  953MOL0     C25687   3.534   5.163   8.459 -0.0672  0.2673  0.0115
  953MOL0     O25688   3.608   5.130   8.574 -0.7992  0.9380 -0.0923
  953MOL0     C25689   3.737   5.167   8.581 -0.5528 -0.2691 -0.4389
  953MOL0     C25690   3.817   5.080   8.651 -0.2868  0.5811  0.4035
  953MOL0     C25691   3.949   5.113   8.687  0.3883  0.1817 -0.3783
  953MOL0     C25692   4.004   5.237   8.645  0.4085  0.3565  0.7635
  953MOL0     C25693   4.140   5.277   8.689  0.0414  0.1686 -0.3675
  953MOL0     O25694   4.177   5.249   8.822 -0.0288 -0.6440  0.4172
  953MOL0     C25695   4.305   5.249   8.853 -1.0112 -0.4920 -0.0865
  953MOL0     C25696   4.389   5.138   8.844 -0.4626  0.0575  0.4662
  953MOL0     C25697   4.520   5.138   8.888  0.6736 -1.2105  0.1807
  953MOL0     C25698   4.574   5.258   8.946  0.1436  0.7230 -0.2846
  953MOL0     O25699   4.714   5.244   8.960 -0.1585 -0.6075 -0.0393
  953MOL0     C25700   4.775   5.289   8.839 -0.1268 -1.0751  0.1767
  953MOL0     C25701   4.916   5.305   8.872  0.8191  0.7705  0.2276
  953MOL0     C25702   4.940   5.424   8.962 -0.4496 -0.3199 -0.0518
  953MOL0     C25703   5.050   5.380   9.060 -0.0194 -0.4331  0.6890
  953MOL0     C25704   5.188   5.370   8.974  0.3385  0.2553 -0.9341
  953MOL0     C25705   5.287   5.284   9.057  0.5387 -0.3003  0.2807
  953MOL0     C25706   5.425   5.252   8.996 -0.4262  0.1129  0.3560
  953MOL0     C25707   5.533   5.202   9.099  0.3325  0.3198 -0.2521
  953MOL0    Cl25708   5.655   5.095   9.005  0.2519 -0.1399  0.6885
  953MOL0     C25709   4.488   5.369   8.969 -0.4064 -0.0342  0.7929
  953MOL0     C25710   4.356   5.366   8.920 -0.0876  0.1344  0.0297
  953MOL0     O25711   4.203   5.343   8.605 -0.4399  0.0369  0.5552
  953MOL0     C25712   3.920   5.328   8.571  0.7429  0.5550  0.3099
  953MOL0     C25713   3.785   5.294   8.542  0.6526 -0.8414  0.1743
  953MOL0     N25714   3.480   4.725   8.170  0.3291 -0.2921  0.1176
  953MOL0     N25715   3.379   4.637   8.176  0.1853 -0.0287  0.9558
  953MOL0     C25716   2.108   4.225   7.946 -0.7468 -0.6118 -0.8648
  953MOL0     C25717   1.986   4.226   7.883 -0.7116  0.7696  0.0546
  953MOL0     C25718   1.524   4.312   7.849 -0.9153 -1.3696 -0.2170
  953MOL0     C25719   1.547   4.349   7.711 -0.8831  1.2224  0.2568
  953MOL0     C25720   1.438   4.394   7.635  0.6807  1.1416 -0.1302
  953MOL0     C25721   1.305   4.386   7.670 -0.5044  0.1516 -0.5459
  953MOL0     O25722   1.205   4.431   7.588  0.3297  0.0802  0.0853
  953MOL0     C25723   1.064   4.382   7.610 -1.2304 -0.2891  0.9778
  953MOL0     C25724   0.986   4.479   7.675  0.5953 -0.3580  0.2463
  953MOL0     C25725   0.992   4.624   7.623  0.2313 -0.6765 -0.1643
  953MOL0     C25726   0.878   4.713   7.656 -0.5972 -0.4235 -0.5517
  953MOL0     C25727   0.903   4.851   7.603 -0.9397  0.6174 -0.6654
  953MOL0     C25728   0.940   4.960   7.564 -0.1259  0.6634 -0.3701
  953MOL0     C25729   1.292   4.351   7.803  0.3995 -0.4837 -0.2728
  953MOL0     C25730   1.392   4.315   7.888  0.4703  0.0884 -0.2763
  953MOL0     H25731   1.805   4.366   8.133  1.7974 -0.5134  3.4818
  953MOL0     H25732   2.034   4.344   8.245 -0.8644 -0.4014  0.4308
  953MOL0     H25733   2.366   4.310   7.991  0.0406 -2.5209 -0.6601
  953MOL0     H25734   2.410   4.202   8.128  1.2151  0.2842  0.1536
  953MOL0     H25735   2.481   4.368   8.264 -0.2575  0.2629  0.7915
  953MOL0     H25736   2.405   4.497   8.187  0.4715 -0.6802  4.3698
  953MOL0     H25737   2.545   4.494   8.002 -4.0080  0.3165  1.8110
  953MOL0     H25738   2.612   4.330   8.042  2.6643  1.2090  1.7653
  953MOL0     H25739   2.644   4.588   8.188 -0.5339 -0.1660 -0.5015
  953MOL0     H25740   2.696   4.442   8.264  1.7003 -0.1578 -0.4532
  953MOL0     H25741   2.800   4.546   8.014 -1.9832 -1.4438 -1.1559
  953MOL0     H25742   2.854   4.392   8.086 -0.9457 -0.4179 -0.0396
  953MOL0     H25743   2.949   4.508   8.277  1.2758 -2.4444 -2.0020
  953MOL0     H25744   2.870   4.668   8.235 -1.3315  0.7632  1.5478
  953MOL0     H25745   3.095   4.548   8.059 -0.4772 -0.1105 -0.8169
  953MOL0     H25746   3.030   4.708   8.068  1.5935  0.9175  1.9900
  953MOL0     H25747   3.172   4.557   8.292  1.7193  1.8999  1.8272
  953MOL0     H25748   3.093   4.713   8.309  0.0524  3.4340 -2.3244
  953MOL0     H25749   3.224   4.919   8.132 -1.3020 -0.9254  0.5425
  953MOL0     H25750   3.445   5.028   8.039 -3.1017 -1.9213  0.9734
  953MOL0     H25751   3.603   4.973   8.104  0.7102  1.7444  0.2932
  953MOL0     H25752   3.368   5.087   8.240  0.1887 -0.2093 -1.1727
  953MOL0     H25753   3.502   5.194   8.205 -0.1556 -1.1672 -2.7544
  953MOL0     H25754   3.490   4.978   8.407  1.4690  0.5624  2.6681
  953MOL0     H25755   3.648   5.046   8.351  0.7103  3.0139  1.4774
  953MOL0     H25756   3.427   5.172   8.483 -0.5971 -1.8759 -1.2872
  953MOL0     H25757   3.564   5.261   8.420 -2.5822  0.4587 -1.6973
  953MOL0     H25758   3.770   4.993   8.696 -0.1328  1.6130  2.6959
  953MOL0     H25759   4.005   5.041   8.746 -0.1206  0.4984  0.4926
  953MOL0     H25760   4.350   5.058   8.782 -1.6122 -1.4341  2.9888
  953MOL0     H25761   4.582   5.052   8.868  0.9361 -1.4739  1.9110
  953MOL0     H25762   4.732   5.377   8.792  0.9762 -1.3073 -1.3204
  953MOL0     H25763   4.772   5.211   8.763 -1.2881 -1.1873  0.3244
  953MOL0     H25764   4.974   5.314   8.780  1.3522  0.7294  0.5545
  953MOL0     H25765   4.935   5.211   8.924  0.8831  0.6586  0.0029
  953MOL0     H25766   4.849   5.445   9.018 -0.9450 -0.2772 -0.8542
  953MOL0     H25767   4.970   5.515   8.908  2.5406 -0.4476  1.1785
  953MOL0     H25768   5.070   5.454   9.138 -1.3478 -0.5419  1.1699
  953MOL0     H25769   5.021   5.288   9.111 -2.5506 -0.5063 -0.7013
  953MOL0     H25770   5.220   5.469   8.942 -1.1833  0.2151 -2.7998
  953MOL0     H25771   5.171   5.321   8.877 -0.3599  0.2847 -0.8345
  953MOL0     H25772   5.234   5.191   9.082 -2.3261  0.8819 -0.8678
  953MOL0     H25773   5.295   5.339   9.151 -3.5479  1.2395 -0.0503
  953MOL0     H25774   5.410   5.173   8.921  0.5079  0.7344 -0.5205
  953MOL0     H25775   5.463   5.338   8.940 -1.1888 -0.6101 -1.3262
  953MOL0     H25776   5.483   5.152   9.182 -2.4291  1.4070 -1.1416
  953MOL0     H25777   5.581   5.292   9.139  0.9377 -0.1881  0.2015
  953MOL0     H25778   4.534   5.459   9.010  1.3629  0.1860 -1.4837
  953MOL0     H25779   4.280   5.442   8.939 -0.2307 -0.3947  1.6901
  953MOL0     H25780   3.951   5.419   8.522 -0.3563  0.3453 -0.8400
  953MOL0     H25781   3.720   5.361   8.489 -0.4586 -0.5965  1.7784
  953MOL0     H25782   2.200   4.207   7.891 -0.3146  1.1773 -0.7784
  953MOL0     H25783   1.968   4.195   7.781 -0.7661  0.7298  0.0760
  953MOL0     H25784   1.644   4.344   7.662 -0.6724 -3.0577  0.7910
  953MOL0     H25785   1.468   4.428   7.536 -1.8199  0.2395 -1.2613
  953MOL0     H25786   1.064   4.288   7.665 -0.4542 -0.5129  0.6110
  953MOL0     H25787   1.031   4.362   7.507  1.5925 -1.0419  0.1187
  953MOL0     H25788   0.882   4.452   7.655 -0.0489 -0.0146  2.7837
  953MOL0     H25789   0.998   4.474   7.784 -1.5196  2.7965  0.7822
  953MOL0     H25790   0.991   4.619   7.513  2.8034  0.0976 -0.2796
  953MOL0     H25791   1.085   4.674   7.650  0.0766  0.8958 -2.2304
  953MOL0     H25792   0.785   4.671   7.618 -0.4301 -2.4321  1.1030
  953MOL0     H25793   0.875   4.733   7.763 -0.1855 -1.3406 -0.3627
  953MOL0     H25794   0.982   5.056   7.543  0.3441  0.8750  1.4383
  953MOL0     H25795   1.190   4.349   7.841  0.6930  2.9924  1.0756
  953MOL0     H25796   1.368   4.287   7.990  2.6562 -3.1525 -0.5005
  954MOL0     O25797   8.638   5.967   6.402  0.7808 -0.7543 -0.2330
  954MOL0     C25798   8.569   5.865   6.424 -0.0658 -0.3518  0.1524
  954MOL0     O25799   8.609   5.737   6.437 -0.3162 -0.7221 -0.1729
  954MOL0     C25800   8.742   5.717   6.445  1.0501 -0.3130  0.7640
  954MOL0     C25801   8.829   5.765   6.340 -1.2578 -0.1170 -0.1408
  954MOL0     C25802   8.965   5.725   6.350 -0.5431  0.0531  0.2185
  954MOL0     C25803   9.015   5.669   6.469 -0.2821 -0.6352  0.4312
  954MOL0     O25804   9.149   5.633   6.492 -0.7072  0.0374  0.5667
  954MOL0     C25805   9.240   5.662   6.385 -0.1576 -0.0724  0.5802
  954MOL0     C25806   9.380   5.590   6.418  1.0498  0.3604 -0.1346
  954MOL0     C25807   9.434   5.656   6.544  0.0862  0.7096  0.0335
  954MOL0     C25808   9.587   5.647   6.546 -0.6716  0.3682  0.7488
  954MOL0     C25809   9.646   5.509   6.503  0.0553 -0.1872 -0.3992
  954MOL0     C25810   9.794   5.494   6.557 -0.0531  0.1764  0.0720
  954MOL0     C25811   9.885   5.434   6.451 -0.1306 -0.5466  0.2647
  954MOL0     C25812  10.024   5.391   6.510  0.4778  0.9138 -0.3901
  954MOL0     N25813  10.007   5.254   6.563 -1.0323 -0.3328  0.6993
  954MOL0     C25814   9.975   5.218   6.690  0.4662 -0.2266  0.3347
  954MOL0     C25815   9.951   5.085   6.670  1.1573  0.9946  0.5082
  954MOL0     C25816   9.899   4.992   6.778 -0.5512 -0.4209 -0.1782
  954MOL0     C25817   9.757   4.944   6.734 -0.4294  0.5945 -0.0638
  954MOL0     C25818   9.669   5.056   6.693 -0.5460  0.2268 -0.3497
  954MOL0     C25819   9.522   5.001   6.675 -0.6865  0.4021  0.3385
  954MOL0     O25820   9.513   4.899   6.570 -0.1511 -0.6363 -0.1811
  954MOL0     C25821   9.390   4.836   6.561  0.2747  0.0948  0.0745
  954MOL0     C25822   9.291   4.839   6.663  0.7560 -0.2179 -0.9028
  954MOL0     C25823   9.178   4.764   6.658 -0.1087 -0.3951 -0.2360
  954MOL0     C25824   9.166   4.678   6.541 -0.7143  0.2189  0.1517
  954MOL0     C25825   9.063   4.578   6.530 -0.4490  0.1802 -0.5207
  954MOL0     O25826   9.019   4.523   6.649  0.3953 -0.2516 -0.6371
  954MOL0     C25827   8.922   4.423   6.632  0.3881 -0.2981  1.4173
  954MOL0     C25828   8.799   4.467   6.677  0.0376  0.3291 -0.4584
  954MOL0     C25829   8.694   4.369   6.673  0.1197  0.0770  0.3450
  954MOL0     C25830   8.715   4.249   6.601 -0.6148  0.5226 -0.2672
  954MOL0     O25831   8.618   4.161   6.557 -0.0504  0.2315 -0.0328
  954MOL0     C25832   8.485   4.210   6.544 -0.0939  0.8326 -0.1283
  954MOL0     C25833   8.396   4.095   6.545  0.5983  0.2238 -0.7190
  954MOL0     C25834   8.420   4.002   6.665 -0.7568  0.1953 -0.3383
  954MOL0     C25835   8.338   3.876   6.670  0.0377 -0.2410 -1.2053
  954MOL0     C25836   8.357   3.786   6.555 -0.1146 -0.4456 -0.1868
  954MOL0     C25837   8.512   3.761   6.525 -1.0271 -0.2425  0.1939
  954MOL0     C25838   8.535   3.647   6.425  0.9450 -0.0704 -1.0002
  954MOL0     C25839   8.675   3.621   6.378  0.1030  0.3232  0.3419
  954MOL0    Cl25840   8.756   3.753   6.304 -0.2641 -0.3675 -0.1641
  954MOL0     C25841   8.842   4.210   6.569 -0.3319  0.2387  1.1603
  954MOL0     C25842   8.951   4.293   6.595 -0.1260 -0.2337 -0.2355
  954MOL0     O25843   9.013   4.564   6.418 -0.3438  0.2045  0.3491
  954MOL0     C25844   9.255   4.685   6.435 -0.1310  0.7392  0.6797
  954MOL0     C25845   9.373   4.757   6.449  0.8415  0.3884 -0.5281
  954MOL0     N25846  10.002   5.039   6.546  0.7843 -0.5006 -0.2966
  954MOL0     N25847  10.021   5.144   6.478  0.1699  0.4274 -0.8416
  954MOL0     C25848   8.931   5.624   6.564 -0.2478 -0.8413 -0.0239
  954MOL0     C25849   8.791   5.637   6.554 -0.6019 -0.2569  0.5594
  954MOL0     C25850   8.424   5.869   6.428  0.0656 -0.0265  0.6396
  954MOL0     C25851   8.341   5.753   6.455  0.7972 -0.2533  0.3330
  954MOL0     C25852   8.202   5.778   6.477  0.0194 -0.0990 -0.0445
  954MOL0     C25853   8.147   5.905   6.484 -1.8527 -0.0454 -0.0442
  954MOL0     O25854   8.016   5.906   6.523 -0.7761 -0.2218  0.2661
  954MOL0     C25855   7.976   6.020   6.608 -0.6662  0.4789 -0.0835
  954MOL0     C25856   7.852   5.974   6.662 -0.2523  0.5375 -0.1322
  954MOL0     C25857   7.787   6.050   6.784  0.5674  0.4382  0.6214
  954MOL0     C25858   7.648   5.985   6.819 -0.1869  0.0311 -0.2545
  954MOL0     C25859   7.637   5.843   6.838  0.1305  0.1119 -0.1128
  954MOL0     C25860   7.621   5.724   6.873 -0.4274  0.5687  0.1886
  954MOL0     C25861   8.229   6.017   6.451 -0.6103 -0.0646 -0.2386
  954MOL0     C25862   8.367   5.999   6.427  0.5167 -0.2501  0.5159
  954MOL0     H25863   8.800   5.829   6.258  2.6067 -0.0590 -1.6348
  954MOL0     H25864   9.020   5.749   6.260 -1.4728 -3.5394 -1.4838
  954MOL0     H25865   9.250   5.770   6.378  0.5946 -0.2306 -1.2121
  954MOL0     H25866   9.198   5.618   6.294 -3.0828  2.3926  0.5841
  954MOL0     H25867   9.431   5.589   6.321 -2.0907 -1.4282 -1.9471
  954MOL0     H25868   9.359   5.484   6.433  0.9623  0.2773 -0.7966
  954MOL0     H25869   9.388   5.603   6.628 -0.3770 -2.0383 -1.7931
  954MOL0     H25870   9.411   5.762   6.543 -0.7977  0.5493 -2.2205
  954MOL0     H25871   9.626   5.709   6.465  1.6235 -2.3444 -0.4108
  954MOL0     H25872   9.632   5.675   6.641 -0.0385 -2.8321  1.5319
  954MOL0     H25873   9.636   5.496   6.395 -2.8583 -0.3817 -0.1910
  954MOL0     H25874   9.582   5.430   6.542 -1.8453  0.5464 -1.8706
  954MOL0     H25875   9.804   5.425   6.641 -2.4110 -1.5247 -0.9412
  954MOL0     H25876   9.832   5.592   6.589 -1.6055  0.7650  0.1701
  954MOL0     H25877   9.830   5.356   6.397 -0.4096 -2.5228  3.1891
  954MOL0     H25878   9.916   5.502   6.371 -2.5053 -1.1141 -1.2531
  954MOL0     H25879  10.070   5.461   6.581  1.8731  0.2712 -0.6445
  954MOL0     H25880  10.100   5.391   6.431  1.0664  2.6457  0.1276
  954MOL0     H25881   9.963   5.269   6.785 -0.0164 -1.7293  1.0948
  954MOL0     H25882   9.890   5.045   6.873 -0.0007 -0.2902 -0.1957
  954MOL0     H25883   9.960   4.903   6.793 -2.4330 -1.5611  1.1783
  954MOL0     H25884   9.712   4.893   6.821  0.7243  1.2267  0.9294
  954MOL0     H25885   9.768   4.873   6.652 -0.0200 -1.9681  2.0393
  954MOL0     H25886   9.669   5.122   6.780  4.7707  0.5291 -0.2646
  954MOL0     H25887   9.710   5.119   6.614  0.0237  1.1571  0.6662
  954MOL0     H25888   9.462   5.086   6.640 -3.5006 -2.5332 -2.7039
  954MOL0     H25889   9.484   4.968   6.773  0.3327  2.5570  1.5386
  954MOL0     H25890   9.304   4.901   6.751 -1.5620 -1.4902  0.4247
  954MOL0     H25891   9.095   4.773   6.727  1.0771  1.0887  1.0636
  954MOL0     H25892   8.788   4.568   6.715  0.3552  0.5585 -0.9681
  954MOL0     H25893   8.596   4.399   6.710 -0.1045  0.8397 -0.7893
  954MOL0     H25894   8.485   4.265   6.450  0.7067 -1.3470 -1.4924
  954MOL0     H25895   8.454   4.267   6.633  0.1036 -0.8340  1.0623
  954MOL0     H25896   8.413   4.051   6.447  0.6289  0.8683 -1.0066
  954MOL0     H25897   8.293   4.133   6.542  0.0969 -0.9096  0.7203
  954MOL0     H25898   8.387   4.056   6.755  2.4704  0.0857  1.0365
  954MOL0     H25899   8.529   3.993   6.664 -0.5868  0.8375 -4.5630
  954MOL0     H25900   8.359   3.825   6.764 -0.6771  1.4127 -0.1077
  954MOL0     H25901   8.231   3.896   6.673 -0.1362 -1.0220  2.4107
  954MOL0     H25902   8.312   3.825   6.463  2.3174  0.8974 -0.9132
  954MOL0     H25903   8.306   3.693   6.581  1.0383 -1.3229 -0.9580
  954MOL0     H25904   8.572   3.738   6.613  1.0706  4.0583  0.1468
  954MOL0     H25905   8.554   3.854   6.485  2.3748 -1.9987 -0.6032
  954MOL0     H25906   8.501   3.555   6.475  0.3693  0.6423 -0.0538
  954MOL0     H25907   8.476   3.658   6.334 -1.3281 -1.1153  0.2454
  954MOL0     H25908   8.675   3.539   6.305  3.3726 -0.1561  0.7084
  954MOL0     H25909   8.734   3.587   6.463  0.1829  3.7532  1.7985
  954MOL0     H25910   8.873   4.114   6.529  0.2257  1.8099 -2.5882
  954MOL0     H25911   9.042   4.254   6.550 -0.7327 -0.2582 -1.4853
  954MOL0     H25912   9.239   4.632   6.342 -1.4041  1.8531  0.2164
  954MOL0     H25913   9.453   4.753   6.375 -0.9844  0.3373 -2.5924
  954MOL0     H25914   8.971   5.580   6.655 -1.2230 -0.8427  0.4149
  954MOL0     H25915   8.727   5.598   6.632 -0.9182 -2.3429 -0.6598
  954MOL0     H25916   8.383   5.653   6.463  1.6263 -0.0397 -1.0375
  954MOL0     H25917   8.122   5.707   6.494 -1.8778  1.1551 -2.9754
  954MOL0     H25918   7.948   6.115   6.561 -0.8286  0.4531 -0.0402
  954MOL0     H25919   8.056   6.042   6.679  0.7076 -0.9074 -1.1234
  954MOL0     H25920   7.782   5.962   6.579 -0.3879 -0.4162  0.1066
  954MOL0     H25921   7.867   5.870   6.692 -1.4459  0.2832 -0.3580
  954MOL0     H25922   7.775   6.157   6.767 -2.0609  0.3341  1.3693
  954MOL0     H25923   7.855   6.046   6.869  0.8997  1.8436  0.4411
  954MOL0     H25924   7.612   6.025   6.915 -1.3237  0.6310 -0.9171
  954MOL0     H25925   7.576   6.013   6.742  0.6151 -3.5737 -2.5449
  954MOL0     H25926   7.614   5.620   6.897 -1.9876  1.2548  3.1038
  954MOL0     H25927   8.193   6.119   6.439 -0.1308  0.1651  0.2570
  954MOL0     H25928   8.441   6.077   6.409  0.3551 -0.5317 -1.5656
  955MOL0     O25929  10.880   6.772   9.004  0.4315 -0.5062 -0.5630
  955MOL0     C25930  10.811   6.672   8.983 -0.4820 -0.7903  0.6775
  955MOL0     O25931  10.858   6.547   8.950 -0.7795  0.2644  0.0506
  955MOL0     C25932  10.992   6.515   8.994  0.8615  0.3615 -0.6988
  955MOL0     C25933  11.045   6.537   9.119 -0.0030 -0.1636 -0.5518
  955MOL0     C25934  11.181   6.515   9.124 -0.8064  0.2779 -0.7355
  955MOL0     C25935  11.254   6.455   9.023 -0.7222  0.7012 -0.1723
  955MOL0     O25936  11.397   6.455   9.040  0.1170 -0.7921  0.0263
  955MOL0     C25937  11.480   6.435   8.921  0.9983 -0.3279  0.2457
  955MOL0     C25938  11.623   6.459   8.949  0.8082  0.3517  0.3744
  955MOL0     C25939  11.691   6.359   9.050  0.2834 -0.4401 -0.0781
  955MOL0     C25940  11.827   6.410   9.082 -0.9774  0.9904  0.1968
  955MOL0     C25941  11.871   6.325   9.201  0.0342 -0.4801  0.5464
  955MOL0     C25942  11.882   6.413   9.327 -0.7394  0.4203 -0.1278
  955MOL0     C25943  11.759   6.493   9.366  0.4446  0.7169 -0.2163
  955MOL0     C25944  11.653   6.417   9.455 -0.1920 -0.3354 -0.2889
  955MOL0     N25945  11.550   6.512   9.509 -0.4753 -0.0640  0.5312
  955MOL0     C25946  11.430   6.469   9.556  0.6090  0.6108  0.3488
  955MOL0     C25947  11.359   6.584   9.568  0.0998  0.1965 -0.3704
  955MOL0     C25948  11.211   6.583   9.607 -0.5130  0.0914  0.7342
  955MOL0     C25949  11.133   6.698   9.537 -0.1011 -0.3598  0.2248
  955MOL0     C25950  11.000   6.712   9.607  0.2185  0.4404  0.1080
  955MOL0     C25951  10.887   6.788   9.532 -0.3310 -0.6607  0.8984
  955MOL0     O25952  10.767   6.794   9.609 -0.1505  0.3875  0.0676
  955MOL0     C25953  10.654   6.853   9.553  0.5358 -0.8931 -0.3782
  955MOL0     C25954  10.533   6.843   9.636  0.0445 -0.1371  0.6416
  955MOL0     C25955  10.407   6.889   9.587  0.4025  0.1112 -0.6945
  955MOL0     C25956  10.405   6.958   9.466  0.8019 -0.4310 -0.5497
  955MOL0     C25957  10.281   7.019   9.414 -0.4162  0.5853 -0.2781
  955MOL0     O25958  10.269   7.045   9.277  0.1773  1.0796 -0.3231
  955MOL0     C25959  10.144   7.096   9.243  0.8554  0.0869  0.5046
  955MOL0     C25960  10.018   7.039   9.274  0.7655  0.4676 -0.8266
  955MOL0     C25961   9.893   7.078   9.222 -0.0070 -0.5790  0.6900
  955MOL0     C25962   9.892   7.186   9.131  0.8575 -0.5554  0.3062
  955MOL0     O25963   9.772   7.214   9.073 -0.0701  0.0633 -0.2325
  955MOL0     C25964   9.754   7.349   9.023  0.0336 -0.6970 -0.6124
  955MOL0     C25965   9.646   7.356   8.920  0.2974 -0.2921  0.6752
  955MOL0     C25966   9.508   7.326   8.985 -0.6443  0.1751  0.2662
  955MOL0     C25967   9.387   7.362   8.896 -0.5474 -0.1148 -0.2005
  955MOL0     C25968   9.269   7.349   8.998  1.0096  0.5278  0.4684
  955MOL0     C25969   9.229   7.481   9.074 -0.0367  0.3933  0.1172
  955MOL0     C25970   9.119   7.547   8.998  0.7708  0.5439  0.7688
  955MOL0     C25971   9.065   7.681   9.044  1.0164  0.3150  0.0799
  955MOL0    Cl25972   8.912   7.727   8.960  0.0839 -0.2384 -0.0930
  955MOL0     C25973  10.018   7.240   9.095 -0.0773 -0.5042 -0.1748
  955MOL0     C25974  10.136   7.198   9.148 -0.7393 -0.4243 -0.7819
  955MOL0     O25975  10.204   7.055   9.498 -0.1456  0.5652 -0.0146
  955MOL0     C25976  10.523   6.963   9.393 -0.0866 -0.8958 -0.1254
  955MOL0     C25977  10.639   6.910   9.428  0.2260 -0.7516 -0.1816
  955MOL0     N25978  11.435   6.696   9.535  0.0473  1.0098 -0.8579
  955MOL0     N25979  11.554   6.648   9.515 -0.4178 -0.4649  0.5313
  955MOL0     C25980  11.192   6.402   8.920  0.1049 -0.2799 -0.8282
  955MOL0     C25981  11.057   6.432   8.897 -0.2656  0.5030  0.3980
  955MOL0     C25982  10.669   6.698   8.951 -1.4159 -0.2592 -0.2956
  955MOL0     C25983  10.605   6.793   9.030 -0.8035 -1.2169 -0.7939
  955MOL0     C25984  10.471   6.826   8.993 -0.0441 -0.1830  0.0028
  955MOL0     C25985  10.396   6.762   8.897 -0.5956  0.9956 -0.0983
  955MOL0     O25986  10.267   6.792   8.873  0.7202 -0.9320  0.3840
  955MOL0     C25987  10.232   6.817   8.738  0.9636  0.7632 -0.2061
  955MOL0     C25988  10.099   6.894   8.731 -0.0909 -0.5749 -0.7994
  955MOL0     C25989   9.981   6.804   8.778 -0.5341 -0.1192 -0.1500
  955MOL0     C25990   9.853   6.887   8.770 -0.6220  0.2107 -0.7106
  955MOL0     C25991   9.817   6.916   8.627  0.5497  0.4133 -0.0077
  955MOL0     C25992   9.783   6.927   8.509 -0.0064 -0.5585 -0.6823
  955MOL0     C25993  10.466   6.662   8.822  0.3718  0.6217  0.0793
  955MOL0     C25994  10.602   6.635   8.850  0.4152 -0.3410 -0.0015
  955MOL0     H25995  11.000   6.583   9.206 -0.6065  0.9134 -1.4108
  955MOL0     H25996  11.239   6.532   9.214  0.4001  1.1019 -1.6279
  955MOL0     H25997  11.447   6.500   8.840  3.0420  0.3595 -0.1010
  955MOL0     H25998  11.465   6.332   8.886 -0.9886  0.5692 -1.7345
  955MOL0     H25999  11.634   6.561   8.989  1.4815  0.5301 -0.2430
  955MOL0     H26000  11.682   6.468   8.858  0.0862  1.9137  0.0201
  955MOL0     H26001  11.703   6.264   8.997  2.5914  0.2987 -0.9981
  955MOL0     H26002  11.628   6.350   9.139  1.7143 -1.3652  0.8915
  955MOL0     H26003  11.892   6.390   8.996 -1.7712 -1.8774  0.1404
  955MOL0     H26004  11.827   6.516   9.108 -2.1610  1.3988 -1.3063
  955MOL0     H26005  11.970   6.283   9.178  0.2526 -0.6069  1.6610
  955MOL0     H26006  11.804   6.242   9.225 -1.3637  0.6420  0.6134
  955MOL0     H26007  11.964   6.485   9.321  1.5179 -2.0368 -0.7946
  955MOL0     H26008  11.917   6.341   9.402  2.0058 -0.9553 -2.4732
  955MOL0     H26009  11.794   6.581   9.421  2.2068 -0.0236 -0.0546
  955MOL0     H26010  11.709   6.531   9.276 -1.9655 -2.7774 -0.5462
  955MOL0     H26011  11.715   6.366   9.529 -0.1278 -2.0710 -1.4628
  955MOL0     H26012  11.606   6.330   9.407  3.1168 -2.4519 -0.0381
  955MOL0     H26013  11.387   6.372   9.580 -0.4748  0.6604 -1.3137
  955MOL0     H26014  11.212   6.602   9.715 -0.0420  0.2917  0.6980
  955MOL0     H26015  11.172   6.484   9.586  1.6315 -0.8841  1.0831
  955MOL0     H26016  11.117   6.667   9.433 -0.6203 -0.7702  0.4184
  955MOL0     H26017  11.193   6.789   9.541  0.5534 -0.8218  1.3609
  955MOL0     H26018  10.964   6.610   9.625  2.4423  0.1002  3.6151
  955MOL0     H26019  11.014   6.759   9.705 -3.1754  0.6140  0.6511
  955MOL0     H26020  10.850   6.741   9.440 -0.9167  0.7808  0.3658
  955MOL0     H26021  10.922   6.887   9.502 -3.2008  0.2221  0.1511
  955MOL0     H26022  10.529   6.788   9.730 -0.4543 -2.7406 -0.8050
  955MOL0     H26023  10.315   6.860   9.637  1.8635 -4.6211 -0.3199
  955MOL0     H26024  10.025   6.951   9.337  2.5874  1.6951  0.8079
  955MOL0     H26025   9.797   7.042   9.258  0.5188 -0.4048  2.3729
  955MOL0     H26026   9.841   7.389   8.970 -1.8844  0.9324 -2.6979
  955MOL0     H26027   9.726   7.421   9.101  2.9269  1.1348 -1.1178
  955MOL0     H26028   9.667   7.279   8.846  1.5091  1.0674 -0.4820
  955MOL0     H26029   9.651   7.453   8.869 -2.4437  0.3962  1.5484
  955MOL0     H26030   9.501   7.380   9.080 -2.2902  1.4080 -0.5180
  955MOL0     H26031   9.501   7.222   9.019 -0.6494  1.7691  6.2355
  955MOL0     H26032   9.390   7.463   8.853 -0.8352 -0.4032 -0.9251
  955MOL0     H26033   9.384   7.296   8.808  0.7144  0.7551 -0.9330
  955MOL0     H26034   9.290   7.268   9.069 -2.1704 -0.1197  0.8206
  955MOL0     H26035   9.182   7.304   8.949  1.6834 -1.6699  1.1506
  955MOL0     H26036   9.317   7.545   9.078  2.1216 -2.3674 -0.5327
  955MOL0     H26037   9.199   7.465   9.178 -2.8552 -2.2210 -0.9488
  955MOL0     H26038   9.144   7.547   8.892  0.4077  1.2092  0.6798
  955MOL0     H26039   9.037   7.477   9.014  0.6695  0.7233  1.0377
  955MOL0     H26040   9.149   7.750   9.034  1.4473  0.4028  3.3741
  955MOL0     H26041   9.037   7.676   9.150 -2.0177  0.3613 -0.6258
  955MOL0     H26042  10.021   7.328   9.031  0.2913 -1.3680 -1.3703
  955MOL0     H26043  10.223   7.246   9.104 -0.1844  0.2028  0.8922
  955MOL0     H26044  10.522   7.005   9.293 -0.0316 -1.6932 -0.4594
  955MOL0     H26045  10.721   6.919   9.358 -0.2516 -2.0166 -0.9393
  955MOL0     H26046  11.243   6.345   8.843  3.0495  1.9657 -0.7292
  955MOL0     H26047  11.008   6.389   8.810  0.3532  1.6894 -0.5787
  955MOL0     H26048  10.655   6.855   9.102 -2.3302  0.8887 -1.4405
  955MOL0     H26049  10.419   6.900   9.053  0.8317  0.2748  0.2152
  955MOL0     H26050  10.221   6.735   8.666 -1.0746  2.9997 -2.6792
  955MOL0     H26051  10.310   6.880   8.694  2.5037 -2.1159 -1.8648
  955MOL0     H26052  10.099   6.982   8.795  1.8915 -0.9181 -0.2664
  955MOL0     H26053  10.099   6.914   8.623  3.1738  0.0960 -0.7862
  955MOL0     H26054  10.003   6.778   8.882  0.7320  1.3200 -0.0176
  955MOL0     H26055   9.969   6.708   8.728  0.2010 -1.4818  2.1596
  955MOL0     H26056   9.780   6.821   8.819 -2.2328 -0.0447 -3.2487
  955MOL0     H26057   9.856   6.979   8.829 -0.3955  0.8650 -1.7372
  955MOL0     H26058   9.758   6.939   8.405  1.6142 -1.5018 -1.2167
  955MOL0     H26059  10.405   6.604   8.753 -1.2492 -1.2879  2.8871
  955MOL0     H26060  10.652   6.563   8.786 -1.4447 -1.2103 -0.5428
  956MOL0     O26061   3.631   7.379   4.554 -0.3942  0.0044  0.1342
  956MOL0     C26062   3.645   7.359   4.674 -0.2199 -0.5941 -0.8451
  956MOL0     O26063   3.544   7.367   4.767 -0.0520  0.1645  0.3311
  956MOL0     C26064   3.415   7.376   4.729  0.6814  0.1193 -0.0372
  956MOL0     C26065   3.357   7.283   4.648 -0.0351  1.1393  0.0795
  956MOL0     C26066   3.223   7.288   4.619  0.0950  0.6461  0.1217
  956MOL0     C26067   3.142   7.379   4.688  0.5738 -0.2227  0.0023
  956MOL0     O26068   3.015   7.395   4.644 -0.4406  0.4018 -0.0282
  956MOL0     C26069   2.922   7.342   4.737  0.2667  0.1485  0.6733
  956MOL0     C26070   2.785   7.405   4.714  0.0246  0.6012 -0.4877
  956MOL0     C26071   2.662   7.337   4.783  0.2795  0.0442  0.2331
  956MOL0     C26072   2.526   7.406   4.755 -0.1267  0.0964  0.7719
  956MOL0     C26073   2.398   7.335   4.750  0.3330 -0.2678 -0.3107
  956MOL0     C26074   2.291   7.427   4.681  0.9387 -0.0234 -0.5343
  956MOL0     C26075   2.170   7.345   4.647 -0.0092  0.5658  0.0462
  956MOL0     C26076   2.055   7.433   4.601 -0.1495 -0.3928  0.3281
  956MOL0     N26077   1.933   7.351   4.571  1.0048  0.0902  0.9002
  956MOL0     C26078   1.893   7.294   4.449  0.1202 -0.3248 -0.0534
  956MOL0     C26079   1.789   7.222   4.484 -1.4716 -0.1692 -0.1282
  956MOL0     C26080   1.714   7.171   4.378  0.6148 -0.0687 -0.1248
  956MOL0     C26081   1.673   7.031   4.425 -0.2590  0.3606  0.0935
  956MOL0     C26082   1.634   6.935   4.316  0.5344 -0.0909 -0.4537
  956MOL0     C26083   1.514   6.986   4.226 -0.6213  0.2428 -0.4521
  956MOL0     O26084   1.409   6.898   4.255  0.4369 -0.0861 -0.2079
  956MOL0     C26085   1.286   6.942   4.232  0.1963  0.5256 -0.0056
  956MOL0     C26086   1.198   6.978   4.337  0.6642  0.1470 -0.2306
  956MOL0     C26087   1.073   7.016   4.311  0.2694  0.2284  0.0042
  956MOL0     C26088   1.021   7.010   4.182 -0.0832  0.0790 -0.5288
  956MOL0     C26089   0.891   7.058   4.157  0.2749  0.2248 -1.0711
  956MOL0     O26090   0.834   7.048   4.030 -0.1452 -0.0668  0.1768
  956MOL0     C26091   0.709   7.106   4.011 -0.0286  0.8676 -0.4667
  956MOL0     C26092   0.600   7.028   4.047  0.3543 -0.0015  0.6968
  956MOL0     C26093   0.469   7.084   4.028 -0.3652  0.1988  0.7380
  956MOL0     C26094   0.451   7.201   3.960 -1.1841 -0.3175 -0.4287
  956MOL0     O26095   0.325   7.238   3.940 -0.2047 -0.0970  0.5842
  956MOL0     C26096   0.293   7.315   3.818  0.3958 -1.5291 -0.5535
  956MOL0     C26097   0.138   7.288   3.790 -0.6086 -0.4122  0.1784
  956MOL0     C26098   0.091   7.384   3.684  1.1668  0.1799  0.7870
  956MOL0     C26099  -0.052   7.346   3.629 -0.9169  0.2610  0.8858
  956MOL0     C26100  -0.116   7.454   3.540  0.1826 -0.1961 -0.2879
  956MOL0     C26101  -0.243   7.403   3.470  0.7544 -0.1682  0.5897
  956MOL0     C26102  -0.350   7.382   3.573  0.4339 -1.0930 -0.5972
  956MOL0     C26103  -0.499   7.357   3.514 -1.1528 -0.0827 -1.3046
  956MOL0    Cl26104  -0.537   7.484   3.393  0.6881  0.2591 -0.0054
  956MOL0     C26105   0.563   7.268   3.900 -0.3514  0.5263 -0.2932
  956MOL0     C26106   0.696   7.220   3.935 -1.0109  1.1486 -0.2654
  956MOL0     O26107   0.829   7.102   4.257  0.1427 -0.4571 -0.0789
  956MOL0     C26108   1.104   6.980   4.079 -0.3702 -0.1226 -0.9168
  956MOL0     C26109   1.231   6.936   4.100 -0.2823  0.3635 -0.4298
  956MOL0     N26110   1.759   7.229   4.616  0.2135 -0.8410 -0.2613
  956MOL0     N26111   1.853   7.294   4.668 -0.1509  0.1494 -0.2179
  956MOL0     C26112   3.198   7.469   4.782  0.3238  0.3048  0.3276
  956MOL0     C26113   3.339   7.468   4.799  0.8862 -0.3514 -0.4672
  956MOL0     C26114   3.782   7.319   4.715 -0.2079  0.0201  0.1687
  956MOL0     C26115   3.890   7.328   4.624  0.4022  0.1208 -0.6511
  956MOL0     C26116   4.023   7.300   4.665  0.2494 -0.1827  0.0128
  956MOL0     C26117   4.041   7.256   4.799  0.0113  0.3075  0.3610
  956MOL0     O26118   4.166   7.245   4.834  0.2655  0.1716 -0.5698
  956MOL0     C26119   4.227   7.372   4.869  0.7762  0.2001 -0.2927
  956MOL0     C26120   4.290   7.354   5.006 -0.6137  0.1394 -0.6642
  956MOL0     C26121   4.349   7.486   5.056  0.4463  0.5698 -0.7489
  956MOL0     C26122   4.425   7.463   5.191  0.5145 -0.1019 -0.2487
  956MOL0     C26123   4.484   7.590   5.238  0.4007  0.9479 -0.7883
  956MOL0     C26124   4.551   7.684   5.249  0.1290 -0.8635 -1.0553
  956MOL0     C26125   3.935   7.235   4.883  0.0727  0.3542  0.0242
  956MOL0     C26126   3.809   7.262   4.844  0.8675 -0.0061  0.1148
  956MOL0     H26127   3.418   7.214   4.592 -0.6452  1.4467 -0.9821
  956MOL0     H26128   3.178   7.223   4.544  0.8841  2.6484 -2.2090
  956MOL0     H26129   2.966   7.364   4.834  1.9301  1.2636 -0.2718
  956MOL0     H26130   2.916   7.234   4.722  1.3869  0.2617 -0.8670
  956MOL0     H26131   2.758   7.399   4.608 -0.2749  0.0807 -0.3856
  956MOL0     H26132   2.787   7.512   4.737 -2.1725  0.4224  0.8086
  956MOL0     H26133   2.688   7.335   4.889 -1.6092 -2.9754  0.7318
  956MOL0     H26134   2.666   7.233   4.751  3.8675 -0.5892  2.2181
  956MOL0     H26135   2.512   7.486   4.828 -0.4431  0.7611  0.0017
  956MOL0     H26136   2.525   7.457   4.658 -0.7818 -1.5961 -0.1608
  956MOL0     H26137   2.372   7.302   4.851  2.5011  0.2536  0.4795
  956MOL0     H26138   2.428   7.253   4.685  4.4579 -0.9994  2.1614
  956MOL0     H26139   2.319   7.477   4.588 -1.6590 -1.3321 -2.1522
  956MOL0     H26140   2.270   7.500   4.760  1.2191 -0.6053  0.0931
  956MOL0     H26141   2.194   7.270   4.571 -2.1135 -0.2162  0.0823
  956MOL0     H26142   2.143   7.302   4.744  0.3795  2.0381  0.8355
  956MOL0     H26143   2.071   7.492   4.510 -0.7895  0.5660  0.8198
  956MOL0     H26144   2.028   7.511   4.673 -2.8966  0.7393 -1.7459
  956MOL0     H26145   1.930   7.314   4.349  0.1893 -1.0343 -0.1722
  956MOL0     H26146   1.781   7.151   4.294  2.3160  0.2000  1.1271
  956MOL0     H26147   1.636   7.243   4.351  1.8320  0.9242 -1.1091
  956MOL0     H26148   1.599   7.036   4.506 -0.6971  1.9366 -0.3729
  956MOL0     H26149   1.765   6.989   4.467  0.9504  1.3966 -1.3975
  956MOL0     H26150   1.718   6.908   4.251  1.6518 -1.4378  1.4546
  956MOL0     H26151   1.603   6.840   4.361  2.7688  1.0204  4.0418
  956MOL0     H26152   1.539   6.989   4.120 -0.8620 -0.8194 -0.5449
  956MOL0     H26153   1.489   7.084   4.267  1.8038  0.6991  0.1106
  956MOL0     H26154   1.229   6.983   4.441  0.4855  1.9414 -0.2297
  956MOL0     H26155   0.998   7.036   4.387 -2.5807  0.4171 -2.6693
  956MOL0     H26156   0.617   6.934   4.098  0.9113 -0.9278 -1.1038
  956MOL0     H26157   0.375   7.047   4.067  0.4001 -2.2120  0.4871
  956MOL0     H26158   0.350   7.291   3.728  3.8798  1.1271  0.6750
  956MOL0     H26159   0.306   7.423   3.832 -3.0375 -0.3300 -4.7558
  956MOL0     H26160   0.072   7.297   3.877  0.0457 -2.5485  0.9489
  956MOL0     H26161   0.130   7.186   3.751  1.5178 -0.7040  0.3796
  956MOL0     H26162   0.157   7.388   3.597  1.5984  0.0215  1.1029
  956MOL0     H26163   0.074   7.483   3.727 -2.9271 -0.7546  1.7761
  956MOL0     H26164  -0.037   7.262   3.560  0.5654  1.2333 -0.0240
  956MOL0     H26165  -0.124   7.327   3.709  0.7538 -0.3701  2.3053
  956MOL0     H26166  -0.044   7.489   3.465  1.3542  0.0458  0.9138
  956MOL0     H26167  -0.148   7.532   3.610  3.2154 -0.2537  1.3055
  956MOL0     H26168  -0.224   7.306   3.423  1.7588  0.3042 -0.0090
  956MOL0     H26169  -0.276   7.469   3.390 -2.9034 -1.5863  0.7535
  956MOL0     H26170  -0.324   7.301   3.641 -0.4460  1.1669  2.6587
  956MOL0     H26171  -0.363   7.479   3.623 -0.4087 -1.2986 -0.4078
  956MOL0     H26172  -0.579   7.356   3.589 -2.0477 -3.1122 -2.1413
  956MOL0     H26173  -0.509   7.261   3.463 -3.1141 -1.5192  1.5094
  956MOL0     H26174   0.551   7.345   3.824 -1.1696  0.7596  0.0723
  956MOL0     H26175   0.786   7.257   3.888  0.1306  3.6926  3.5470
  956MOL0     H26176   1.060   6.962   3.981 -1.6509  1.1613 -0.6077
  956MOL0     H26177   1.296   6.896   4.022  0.2161  0.2356  0.0492
  956MOL0     H26178   3.152   7.555   4.829  0.9534  0.0144  1.4908
  956MOL0     H26179   3.394   7.539   4.861 -0.0510  0.4824 -0.5568
  956MOL0     H26180   3.878   7.372   4.525 -3.3404 -1.3581 -1.0409
  956MOL0     H26181   4.120   7.300   4.616  2.1385 -3.2837  3.2724
  956MOL0     H26182   4.157   7.456   4.868  2.1119  1.5890  3.9203
  956MOL0     H26183   4.305   7.400   4.797  3.5499  1.5336  2.9610
  956MOL0     H26184   4.221   7.332   5.088 -0.7173  0.5315 -0.6449
  956MOL0     H26185   4.379   7.291   5.007 -0.4341  0.3194  2.1894
  956MOL0     H26186   4.263   7.552   5.071 -2.2034 -3.0151  1.5553
  956MOL0     H26187   4.404   7.530   4.973  1.1729 -1.2424 -1.2948
  956MOL0     H26188   4.369   7.414   5.272  0.1762  0.3187 -0.2235
  956MOL0     H26189   4.510   7.399   5.164  0.1975  0.3244 -2.4220
  956MOL0     H26190   4.626   7.755   5.276  0.2949 -1.9895  1.7860
  956MOL0     H26191   3.945   7.201   4.986 -0.3778  1.3203  0.4058
  956MOL0     H26192   3.719   7.243   4.902  0.3439 -1.2448 -1.0633
  957MOL0     O26193   2.077   3.001   7.142  0.3402  0.9591 -0.2133
  957MOL0     C26194   2.102   3.121   7.134 -0.0774  0.2011  0.0825
  957MOL0     O26195   2.020   3.220   7.157  0.2682 -0.1267  0.1172
  957MOL0     C26196   1.886   3.191   7.174  0.3929  0.6447  0.0257
  957MOL0     C26197   1.807   3.254   7.275 -0.9071  0.4213  0.1063
  957MOL0     C26198   1.675   3.235   7.286 -0.4562  0.8880  0.2824
  957MOL0     C26199   1.602   3.157   7.187 -1.4077 -0.0056  0.3558
  957MOL0     O26200   1.470   3.146   7.188  0.8842  0.6018  0.2140
  957MOL0     C26201   1.403   3.190   7.299  0.1129  0.1858 -0.1576
  957MOL0     C26202   1.254   3.163   7.295 -0.3374  0.0751 -0.0328
  957MOL0     C26203   1.221   3.017   7.282  1.1069  0.5879 -0.7472
  957MOL0     C26204   1.068   3.006   7.288  0.1697  1.0620 -0.1384
  957MOL0     C26205   1.026   2.855   7.284  0.4867  0.5315 -0.3725
  957MOL0     C26206   0.884   2.819   7.311  0.1106 -0.3334  0.0213
  957MOL0     C26207   0.797   2.850   7.190  0.3239  0.6536 -0.6521
  957MOL0     C26208   0.650   2.825   7.216  0.7020  0.7372 -0.5415
  957MOL0     N26209   0.603   2.684   7.205  0.5884  0.3635 -0.7618
  957MOL0     C26210   0.475   2.649   7.174  0.6627  0.1487 -0.1433
  957MOL0     C26211   0.474   2.516   7.191 -0.0424 -0.3090 -0.1674
  957MOL0     C26212   0.357   2.422   7.161 -0.8006 -0.3621 -0.2475
  957MOL0     C26213   0.357   2.375   7.016  0.9686 -0.4023  0.2844
  957MOL0     C26214   0.372   2.475   6.904 -0.5515 -0.3037 -0.3864
  957MOL0     C26215   0.253   2.564   6.871  0.2898  0.4396  1.0138
  957MOL0     O26216   0.290   2.665   6.777  0.0551 -0.0781  0.2971
  957MOL0     C26217   0.200   2.734   6.704 -0.6564 -0.7060 -0.0326
  957MOL0     C26218   0.228   2.812   6.596  0.4867  0.0970  0.2921
  957MOL0     C26219   0.141   2.903   6.528 -0.2560 -0.4063  0.1469
  957MOL0     C26220   0.015   2.914   6.586  1.5050 -0.4365 -0.2261
  957MOL0     C26221  -0.090   2.996   6.516  0.0260 -1.1922 -1.1351
  957MOL0     O26222  -0.217   2.978   6.566  0.2385  0.1047  0.1705
  957MOL0     C26223  -0.325   3.063   6.535  0.1475 -0.0361  0.5070
  957MOL0     C26224  -0.333   3.171   6.447 -0.2431  0.1486 -0.7766
  957MOL0     C26225  -0.454   3.241   6.416  0.0589 -1.0393 -0.3431
  957MOL0     C26226  -0.573   3.183   6.459  0.0352 -0.1359 -0.0118
  957MOL0     O26227  -0.692   3.239   6.432 -0.1886  0.3826 -0.1490
  957MOL0     C26228  -0.697   3.358   6.348  1.1342  0.6201 -0.6106
  957MOL0     C26229  -0.830   3.438   6.365 -0.5891 -0.0796  0.3767
  957MOL0     C26230  -0.844   3.481   6.515  0.3218 -0.1729  0.0411
  957MOL0     C26231  -0.971   3.572   6.519 -0.5730 -1.1747  0.2811
  957MOL0     C26232  -1.002   3.616   6.667 -0.7242  0.4174  0.4685
  957MOL0     C26233  -1.090   3.731   6.685 -0.3377 -0.3024  0.0228
  957MOL0     C26234  -1.234   3.700   6.698  0.2232  0.0111  0.4820
  957MOL0     C26235  -1.294   3.652   6.569  0.0385 -0.2471  0.3586
  957MOL0    Cl26236  -1.469   3.653   6.572  0.0297  0.2999  0.3457
  957MOL0     C26237  -0.569   3.067   6.532  0.1666 -0.0860  0.4986
  957MOL0     C26238  -0.451   3.009   6.582  0.7606 -0.6488 -0.2298
  957MOL0     O26239  -0.053   3.061   6.414  0.0398  0.5153 -0.3870
  957MOL0     C26240  -0.011   2.858   6.708 -0.1977  0.3049  0.2545
  957MOL0     C26241   0.073   2.763   6.761 -0.1772 -0.3481 -0.9190
  957MOL0     N26242   0.586   2.474   7.263 -0.3844  0.6776  0.7566
  957MOL0     N26243   0.664   2.579   7.266  0.8127  0.2967  0.4595
  957MOL0     C26244   1.679   3.093   7.088  0.6687  0.1681  0.0567
  957MOL0     C26245   1.819   3.113   7.079 -0.0933  0.1652 -0.0482
  957MOL0     C26246   2.247   3.158   7.108 -0.6971  0.2895  0.2851
  957MOL0     C26247   2.301   3.295   7.115 -0.2972 -0.0140  0.1581
  957MOL0     C26248   2.437   3.323   7.084 -0.9504  0.3674 -0.3067
  957MOL0     C26249   2.527   3.223   7.058 -0.8726  0.2199  0.1079
  957MOL0     O26250   2.656   3.256   7.045 -0.0820 -0.6811  0.5715
  957MOL0     C26251   2.721   3.206   6.934  0.5091 -0.0073  0.6984
  957MOL0     C26252   2.844   3.293   6.906 -0.4323  0.2772  0.3621
  957MOL0     C26253   2.821   3.435   6.865  0.6465 -0.0500 -0.1726
  957MOL0     C26254   2.951   3.513   6.856 -0.3717 -0.0694  0.0797
  957MOL0     C26255   2.938   3.659   6.808  0.0252 -0.1312 -0.1627
  957MOL0     C26256   2.932   3.768   6.766  0.7375 -0.1266  0.3222
  957MOL0     C26257   2.476   3.096   7.041  0.0260  0.9185  0.4181
  957MOL0     C26258   2.345   3.061   7.069  0.2714 -0.2369  0.0484
  957MOL0     H26259   1.872   3.302   7.347  3.9108 -0.2457 -3.3031
  957MOL0     H26260   1.631   3.277   7.376  1.4674 -1.8069  2.6488
  957MOL0     H26261   1.418   3.298   7.303 -1.3270  0.4261 -0.3727
  957MOL0     H26262   1.452   3.149   7.388 -0.4747 -1.9910 -0.7522
  957MOL0     H26263   1.215   3.222   7.212  1.7126  0.2461 -0.9307
  957MOL0     H26264   1.203   3.209   7.381 -2.5394  0.1995 -1.3467
  957MOL0     H26265   1.270   2.962   7.362 -1.5648 -1.1071 -0.1694
  957MOL0     H26266   1.265   2.987   7.186  1.9103  2.7784 -1.1279
  957MOL0     H26267   1.037   3.055   7.380  1.5433 -0.1048  0.9905
  957MOL0     H26268   1.028   3.059   7.201 -0.6797 -1.1139 -1.1521
  957MOL0     H26269   1.083   2.805   7.363  0.7159 -1.2552 -1.6224
  957MOL0     H26270   1.047   2.808   7.188 -1.3501 -1.6772  0.2223
  957MOL0     H26271   0.858   2.880   7.398  0.1679 -0.3244  0.0322
  957MOL0     H26272   0.882   2.712   7.334  4.6852 -0.2490  1.9257
  957MOL0     H26273   0.803   2.958   7.174 -2.9822  0.9822 -0.3138
  957MOL0     H26274   0.837   2.801   7.100  0.5053 -0.6790  0.1250
  957MOL0     H26275   0.592   2.881   7.142 -2.0465 -0.1992  0.7646
  957MOL0     H26276   0.626   2.869   7.314  0.0191 -1.9533  0.6089
  957MOL0     H26277   0.398   2.715   7.135  0.7719 -1.1675 -2.8305
  957MOL0     H26278   0.261   2.468   7.187 -0.2063 -0.7644  3.1159
  957MOL0     H26279   0.360   2.331   7.221  0.2919 -1.2580 -1.5863
  957MOL0     H26280   0.263   2.324   6.996 -0.2352  1.7088  0.1860
  957MOL0     H26281   0.442   2.309   6.995  0.1589 -1.2823 -0.2677
  957MOL0     H26282   0.458   2.539   6.926 -2.6973  2.2764  1.0917
  957MOL0     H26283   0.389   2.419   6.812  0.3213  0.6688 -0.8389
  957MOL0     H26284   0.215   2.612   6.962 -0.2264 -0.6482  1.3966
  957MOL0     H26285   0.175   2.501   6.827 -0.0047  0.5489  1.3753
  957MOL0     H26286   0.325   2.817   6.547 -0.0029  0.6593 -0.6520
  957MOL0     H26287   0.179   2.955   6.440  0.1867 -0.5000  0.2824
  957MOL0     H26288  -0.241   3.213   6.407  1.6164 -3.3355 -0.5657
  957MOL0     H26289  -0.441   3.326   6.349 -0.4156 -0.9264 -0.2929
  957MOL0     H26290  -0.696   3.331   6.242  1.4780  0.2400 -0.5149
  957MOL0     H26291  -0.617   3.426   6.378 -0.2497  1.4935  1.3001
  957MOL0     H26292  -0.919   3.380   6.341  0.7920 -1.3987 -1.9687
  957MOL0     H26293  -0.821   3.533   6.311  0.5313 -0.8416 -0.8634
  957MOL0     H26294  -0.756   3.539   6.543 -0.0126  0.7074 -0.6718
  957MOL0     H26295  -0.862   3.397   6.583 -0.9553 -0.6797 -0.8827
  957MOL0     H26296  -0.956   3.658   6.453 -0.9534 -1.0639  0.3401
  957MOL0     H26297  -1.056   3.517   6.477 -0.7267  0.2492 -1.4241
  957MOL0     H26298  -0.904   3.646   6.707  0.0271 -0.9958 -0.2162
  957MOL0     H26299  -1.037   3.522   6.712  0.9789  1.1247  3.6037
  957MOL0     H26300  -1.075   3.809   6.610 -2.3177  1.3984  1.2880
  957MOL0     H26301  -1.048   3.777   6.775  0.1680  1.1191 -0.9041
  957MOL0     H26302  -1.248   3.618   6.770  1.8834  0.0395  0.8792
  957MOL0     H26303  -1.276   3.793   6.737  2.1643  0.0570  2.7162
  957MOL0     H26304  -1.261   3.549   6.551  0.9292  0.0011  0.5347
  957MOL0     H26305  -1.259   3.713   6.486  0.5644 -0.6905  0.2463
  957MOL0     H26306  -0.657   3.021   6.575 -1.0650  1.2980 -0.4364
  957MOL0     H26307  -0.459   2.928   6.652 -1.2686 -0.6342 -0.3792
  957MOL0     H26308  -0.107   2.878   6.755  0.6666  2.6900  1.1633
  957MOL0     H26309   0.039   2.717   6.853  0.6878  1.6330  0.4625
  957MOL0     H26310   1.631   3.024   7.019  1.5849 -0.6358  0.2008
  957MOL0     H26311   1.875   3.054   7.008 -0.3884 -1.9459  1.3963
  957MOL0     H26312   2.226   3.367   7.144 -0.1465  1.1988 -2.2325
  957MOL0     H26313   2.489   3.419   7.087 -0.7753  0.2488  0.7943
  957MOL0     H26314   2.659   3.203   6.844 -0.8690 -0.5290  1.6295
  957MOL0     H26315   2.767   3.111   6.961  2.9465  1.6111  2.7480
  957MOL0     H26316   2.903   3.289   6.998 -0.5881  0.6659  0.4824
  957MOL0     H26317   2.902   3.243   6.827 -3.4131 -1.0968 -1.1171
  957MOL0     H26318   2.755   3.479   6.941 -0.1030  1.9219 -1.8803
  957MOL0     H26319   2.763   3.442   6.773  0.5933  0.7064 -0.0895
  957MOL0     H26320   3.006   3.514   6.951  1.4531  1.8248 -0.9088
  957MOL0     H26321   3.011   3.459   6.782 -1.6521  0.1197 -1.1420
  957MOL0     H26322   2.914   3.869   6.736  1.5253  0.5379  1.9674
  957MOL0     H26323   2.553   3.021   7.023  0.3861  1.4622 -0.3687
  957MOL0     H26324   2.330   2.954   7.071  0.5901 -0.3697 -2.1395
  958MOL0     O26325  10.441   3.162   3.778 -0.2616  0.3212 -0.7362
  958MOL0     C26326  10.552   3.201   3.749 -0.0117  0.1780 -0.0962
  958MOL0     O26327  10.610   3.323   3.794  0.0272  0.1795 -0.4770
  958MOL0     C26328  10.524   3.410   3.858  0.3312 -0.4250 -0.4566
  958MOL0     C26329  10.437   3.482   3.771  0.0216 -1.3335  0.3713
  958MOL0     C26330  10.342   3.576   3.818 -0.2258  0.0872  0.5721
  958MOL0     C26331  10.318   3.581   3.958 -0.2462  0.2737  0.5359
  958MOL0     O26332  10.225   3.649   4.029 -0.2585  0.7215  0.8796
  958MOL0     C26333  10.093   3.644   3.992  0.5528 -0.6489  0.2973
  958MOL0     C26334   9.986   3.700   4.088 -0.4880  0.7227  0.1605
  958MOL0     C26335   9.840   3.716   4.035 -0.6977  0.0825 -0.6920
  958MOL0     C26336   9.833   3.831   3.934 -0.4516 -1.0173 -0.1891
  958MOL0     C26337   9.755   3.798   3.809  0.0441 -0.1933  0.3593
  958MOL0     C26338   9.616   3.748   3.845  0.2741 -0.1078 -0.5354
  958MOL0     C26339   9.517   3.772   3.730  0.6414 -0.0081  0.7599
  958MOL0     C26340   9.557   3.686   3.610 -0.2923 -0.1033 -1.0879
  958MOL0     N26341   9.431   3.654   3.538 -0.1948  0.0712 -0.0408
  958MOL0     C26342   9.371   3.728   3.447  0.0497  0.8184  0.4811
  958MOL0     C26343   9.263   3.654   3.411  0.9522  0.1867  0.2578
  958MOL0     C26344   9.155   3.678   3.309 -0.5555  0.1001 -0.2088
  958MOL0     C26345   9.027   3.663   3.367  0.2688  0.2436  0.6790
  958MOL0     C26346   8.915   3.661   3.263 -0.2732  0.4476  0.3789
  958MOL0     C26347   8.775   3.654   3.327 -0.9155 -0.3928  0.5467
  958MOL0     O26348   8.671   3.667   3.216 -0.7690  0.0625 -0.2512
  958MOL0     C26349   8.545   3.667   3.255 -0.0803 -0.3067  0.1477
  958MOL0     C26350   8.453   3.741   3.176 -0.1877 -0.7783  0.2859
  958MOL0     C26351   8.314   3.747   3.202  0.4957  1.3202 -0.5088
  958MOL0     C26352   8.264   3.667   3.310 -0.3163  0.7267 -0.8184
  958MOL0     C26353   8.115   3.642   3.317 -0.5135  0.0874  0.0797
  958MOL0     O26354   8.044   3.699   3.211 -0.0443  0.8049  0.1800
  958MOL0     C26355   7.911   3.676   3.200  0.9591  0.1181  0.4793
  958MOL0     C26356   7.831   3.564   3.238 -0.6398 -0.5898  0.6518
  958MOL0     C26357   7.695   3.557   3.208  0.6373  0.5037 -1.1709
  958MOL0     C26358   7.630   3.656   3.140  0.5683  0.3221  0.0745
  958MOL0     O26359   7.494   3.629   3.142 -0.2677  0.3278  0.8941
  958MOL0     C26360   7.429   3.662   3.019 -0.3531  0.0350 -0.2909
  958MOL0     C26361   7.284   3.614   3.022 -0.6415  0.1624 -0.1130
  958MOL0     C26362   7.274   3.469   3.080 -0.1969  0.7707  0.5046
  958MOL0     C26363   7.139   3.402   3.053  0.0243  0.4070 -0.4191
  958MOL0     C26364   7.030   3.474   3.142  0.8153 -0.0457 -0.2107
  958MOL0     C26365   6.894   3.396   3.141  0.8669 -0.5773 -0.5317
  958MOL0     C26366   6.807   3.442   3.267 -0.3033  0.0335 -0.2650
  958MOL0     C26367   6.674   3.506   3.227 -0.5639  1.1605 -0.0262
  958MOL0    Cl26368   6.560   3.363   3.179  0.4800  0.0345 -0.3585
  958MOL0     C26369   7.705   3.768   3.101  0.0808  0.1478 -0.1456
  958MOL0     C26370   7.841   3.777   3.132  0.4063 -0.0404 -0.1422
  958MOL0     O26371   8.066   3.585   3.418  0.9990  0.0272  0.4632
  958MOL0     C26372   8.360   3.594   3.390 -0.0682  0.4035 -0.0790
  958MOL0     C26373   8.499   3.597   3.367 -0.4129 -0.4771 -0.0492
  958MOL0     N26374   9.257   3.547   3.502 -0.7776 -0.8174  0.7833
  958MOL0     N26375   9.360   3.545   3.581 -0.0080 -0.4857  0.8602
  958MOL0     C26376  10.399   3.502   4.042 -0.8518  0.1520  0.1373
  958MOL0     C26377  10.502   3.413   3.995  0.0787 -0.7492  0.0276
  958MOL0     C26378  10.637   3.124   3.652  0.1736 -0.3876 -0.3451
  958MOL0     C26379  10.772   3.142   3.623  0.4334  0.4244 -0.4979
  958MOL0     C26380  10.838   3.072   3.524 -0.4834  0.2351 -1.0206
  958MOL0     C26381  10.770   2.988   3.440  0.4441  0.1082 -0.1633
  958MOL0     O26382  10.829   2.924   3.335  0.8738 -0.3609 -0.1883
  958MOL0     C26383  10.959   2.972   3.290 -0.1871  0.9701 -0.4769
  958MOL0     C26384  11.010   2.934   3.142  1.2141 -0.5131 -0.4266
  958MOL0     C26385  11.160   2.949   3.106  0.2254  0.6132 -0.3119
  958MOL0     C26386  11.200   3.101   3.128  1.2709  0.5357 -0.5567
  958MOL0     C26387  11.242   3.126   3.264 -0.8093 -0.8993 -0.0569
  958MOL0     C26388  11.278   3.138   3.378 -0.3219 -0.2660 -0.0578
  958MOL0     C26389  10.631   2.972   3.464  0.4866 -0.5020  0.5300
  958MOL0     C26390  10.570   3.036   3.568 -0.5536 -0.3896  0.2388
  958MOL0     H26391  10.448   3.480   3.663 -0.4422  0.2480  0.2714
  958MOL0     H26392  10.277   3.630   3.750 -2.8897 -2.3997  0.9365
  958MOL0     H26393  10.067   3.542   3.963 -0.8226  0.3836 -2.4208
  958MOL0     H26394  10.089   3.702   3.899  2.3701  0.8391  1.0811
  958MOL0     H26395  10.027   3.796   4.121 -1.6212  0.7770  1.5109
  958MOL0     H26396   9.974   3.631   4.172 -1.7272 -0.7705 -1.1706
  958MOL0     H26397   9.774   3.739   4.120 -0.8030 -2.3889 -0.0351
  958MOL0     H26398   9.797   3.622   3.999 -0.1186  0.4301 -2.3593
  958MOL0     H26399   9.795   3.915   3.992  0.6388 -0.1592 -0.6614
  958MOL0     H26400   9.930   3.864   3.894  0.7921 -2.4512  1.4336
  958MOL0     H26401   9.800   3.715   3.754 -1.8960 -1.5266  0.6629
  958MOL0     H26402   9.758   3.895   3.758  0.5905  0.5636  1.7539
  958MOL0     H26403   9.583   3.799   3.936  1.3431 -0.3354 -0.0055
  958MOL0     H26404   9.627   3.641   3.865  2.9366 -0.3970 -2.9892
  958MOL0     H26405   9.420   3.736   3.764  0.0110 -0.8681 -1.7448
  958MOL0     H26406   9.505   3.878   3.704 -1.0086 -0.2639  0.4005
  958MOL0     H26407   9.596   3.587   3.634 -1.7507 -0.6118 -0.6648
  958MOL0     H26408   9.633   3.733   3.548 -1.0427  1.5424 -0.8020
  958MOL0     H26409   9.400   3.824   3.404 -0.5873  0.2763 -1.2228
  958MOL0     H26410   9.167   3.601   3.231 -1.9599 -3.4590  2.7636
  958MOL0     H26411   9.185   3.775   3.269  2.0850  0.3234  2.0334
  958MOL0     H26412   8.994   3.748   3.427  1.0032 -1.2523  3.3767
  958MOL0     H26413   9.021   3.571   3.426 -0.7366  0.6397  1.2248
  958MOL0     H26414   8.937   3.755   3.212  0.4917 -0.0812 -0.2938
  958MOL0     H26415   8.940   3.580   3.193 -1.7068  0.2504  0.0708
  958MOL0     H26416   8.763   3.739   3.394 -1.2903  0.0622 -0.0933
  958MOL0     H26417   8.762   3.557   3.376 -0.2302 -0.1264  1.2742
  958MOL0     H26418   8.487   3.804   3.094  0.3389 -1.2483  0.1375
  958MOL0     H26419   8.235   3.792   3.141 -0.5697  0.2675  0.0473
  958MOL0     H26420   7.880   3.486   3.296  1.6543 -1.0588 -1.7194
  958MOL0     H26421   7.637   3.481   3.260  1.3702  2.7216  3.4133
  958MOL0     H26422   7.478   3.606   2.938 -0.8230  1.2397 -1.4431
  958MOL0     H26423   7.416   3.769   3.001 -1.9711 -0.1224 -0.2142
  958MOL0     H26424   7.262   3.611   2.915  2.7026  0.2264 -0.9130
  958MOL0     H26425   7.215   3.675   3.080  0.9203 -0.3264  2.4062
  958MOL0     H26426   7.299   3.468   3.186 -1.2533 -2.2328  0.7930
  958MOL0     H26427   7.349   3.412   3.025 -2.1163 -1.0765 -0.3264
  958MOL0     H26428   7.105   3.409   2.950 -1.2860 -1.0645 -0.1290
  958MOL0     H26429   7.144   3.295   3.076 -0.5020 -0.1899 -2.8105
  958MOL0     H26430   7.014   3.577   3.110 -2.3911 -0.2972  0.2288
  958MOL0     H26431   7.066   3.483   3.244 -0.1074 -1.4477  0.2756
  958MOL0     H26432   6.907   3.288   3.149 -0.6870 -0.6854  1.5290
  958MOL0     H26433   6.833   3.423   3.054  2.2187  2.0341 -0.7709
  958MOL0     H26434   6.776   3.354   3.324 -3.9295  0.4457 -1.3584
  958MOL0     H26435   6.856   3.503   3.344  1.8958 -3.6133  1.5087
  958MOL0     H26436   6.700   3.570   3.142  2.2087 -0.1891 -0.2850
  958MOL0     H26437   6.642   3.573   3.308  5.1067  3.7811  0.5344
  958MOL0     H26438   7.660   3.843   3.036 -0.2435 -1.4179 -1.8259
  958MOL0     H26439   7.904   3.862   3.108  2.3457 -0.6938  2.2797
  958MOL0     H26440   8.319   3.527   3.465 -2.5120  3.4066  1.4853
  958MOL0     H26441   8.551   3.536   3.440 -0.3449 -0.2472  0.0935
  958MOL0     H26442  10.356   3.494   4.142 -1.0905  1.5269  0.1701
  958MOL0     H26443  10.544   3.349   4.072  2.8152 -1.6376 -2.0705
  958MOL0     H26444  10.816   3.219   3.686 -1.6043  3.8457 -2.9497
  958MOL0     H26445  10.942   3.100   3.511  0.1816 -0.8997  1.3121
  958MOL0     H26446  11.031   2.922   3.355 -1.1929 -0.4833 -0.4201
  958MOL0     H26447  10.955   3.081   3.296 -0.6151  0.9594 -0.5149
  958MOL0     H26448  10.980   2.830   3.127  0.7116 -0.6863  1.4737
  958MOL0     H26449  10.947   2.995   3.077 -1.0201 -1.9579  0.2390
  958MOL0     H26450  11.175   2.922   3.001 -1.2351  2.4276 -1.0433
  958MOL0     H26451  11.223   2.876   3.158  0.6109 -0.3299 -2.0412
  958MOL0     H26452  11.293   3.123   3.076  2.2481 -0.4643  0.7157
  958MOL0     H26453  11.121   3.166   3.088  1.3121  1.6735  1.1223
  958MOL0     H26454  11.304   3.161   3.479 -1.2580 -0.9557  0.3553
  958MOL0     H26455  10.575   2.909   3.396 -0.4368 -0.5248  1.2868
  958MOL0     H26456  10.463   3.030   3.581 -1.0534 -0.2472 -2.9647
  959MOL0     O26457   5.769   6.743   6.048 -0.2869 -0.2029 -0.6359
  959MOL0     C26458   5.752   6.661   6.141 -0.6789 -0.1879  0.4370
  959MOL0     O26459   5.635   6.594   6.171  0.6051  0.1179 -0.2037
  959MOL0     C26460   5.520   6.630   6.107  0.2293 -0.0214  0.1011
  959MOL0     C26461   5.435   6.530   6.068 -0.3026  0.5290  0.2286
  959MOL0     C26462   5.308   6.559   6.008  1.4250 -0.0481 -0.1326
  959MOL0     C26463   5.253   6.685   6.005  0.6878  0.0341 -0.6683
  959MOL0     O26464   5.136   6.692   5.933  0.1946 -0.2384  0.6087
  959MOL0     C26465   5.105   6.820   5.881 -0.0246  0.7681 -0.2218
  959MOL0     C26466   5.016   6.789   5.761  1.1696 -0.7515 -0.6004
  959MOL0     C26467   4.867   6.764   5.815 -0.0597  0.4484  0.5828
  959MOL0     C26468   4.808   6.876   5.898 -0.3360 -0.5888 -0.1982
  959MOL0     C26469   4.669   6.845   5.934  0.4846 -0.5672 -0.0608
  959MOL0     C26470   4.576   6.843   5.814  0.9466 -0.0145  0.1730
  959MOL0     C26471   4.424   6.859   5.870  0.0696  0.2289  0.5008
  959MOL0     C26472   4.306   6.818   5.762  0.4687  0.0326 -0.2429
  959MOL0     N26473   4.305   6.879   5.629  0.6800 -0.4199  0.8787
  959MOL0     C26474   4.248   7.004   5.600 -0.3021 -0.0466 -0.4300
  959MOL0     C26475   4.279   7.019   5.466 -0.5365  0.3629  0.0333
  959MOL0     C26476   4.232   7.138   5.378  0.3431 -0.0982 -0.6178
  959MOL0     C26477   4.084   7.126   5.330 -0.3989 -0.1610 -1.0740
  959MOL0     C26478   4.062   7.013   5.236  1.3362  0.2046 -0.0855
  959MOL0     C26479   3.910   7.001   5.211 -1.0711 -0.1309 -0.1904
  959MOL0     O26480   3.836   6.958   5.331 -0.0592  0.3650  0.0218
  959MOL0     C26481   3.698   6.961   5.327  0.8694 -0.3393 -0.0532
  959MOL0     C26482   3.632   6.840   5.326  0.4132  0.1112  0.5781
  959MOL0     C26483   3.493   6.835   5.313 -0.0252 -0.1722  0.5085
  959MOL0     C26484   3.411   6.950   5.298  0.4556 -0.1389 -0.0531
  959MOL0     C26485   3.267   6.941   5.291  0.2460  0.8852 -0.4978
  959MOL0     O26486   3.222   6.817   5.256  0.1726  0.4088  0.2573
  959MOL0     C26487   3.085   6.778   5.262  0.4902 -0.3151 -0.8598
  959MOL0     C26488   2.980   6.837   5.339  0.0502  0.6875 -0.4275
  959MOL0     C26489   2.848   6.803   5.317  0.1765  0.7719  0.1793
  959MOL0     C26490   2.819   6.687   5.243  0.3551 -0.9185 -0.1125
  959MOL0     O26491   2.688   6.645   5.238  0.1772  0.6870  0.5149
  959MOL0     C26492   2.631   6.621   5.108 -0.0488  0.2145 -0.5079
  959MOL0     C26493   2.477   6.618   5.106  0.5581 -0.2525 -0.4588
  959MOL0     C26494   2.419   6.574   4.980 -0.6537 -0.2341 -0.5061
  959MOL0     C26495   2.428   6.678   4.866 -0.3532 -0.1018 -0.2231
  959MOL0     C26496   2.340   6.657   4.745  0.3402 -0.7466 -1.3166
  959MOL0     C26497   2.328   6.790   4.662 -0.0958 -0.5648 -0.7168
  959MOL0     C26498   2.189   6.783   4.595 -0.8287 -0.2020 -0.3726
  959MOL0     C26499   2.156   6.902   4.495 -0.6584 -0.0436 -0.4207
  959MOL0    Cl26500   2.003   6.844   4.410  0.2318 -0.5812 -0.0966
  959MOL0     C26501   2.919   6.608   5.180 -0.1185  0.1213  0.0192
  959MOL0     C26502   3.049   6.662   5.194  0.3584  0.0044  0.7578
  959MOL0     O26503   3.201   7.039   5.310  0.1292 -0.2072  0.3152
  959MOL0     C26504   3.479   7.067   5.298 -0.1800  0.6910  0.0995
  959MOL0     C26505   3.619   7.079   5.319  1.3059  0.5708  0.7016
  959MOL0     N26506   4.328   6.901   5.412 -0.1745 -1.1749  0.5274
  959MOL0     N26507   4.344   6.824   5.508 -0.2032 -0.1390 -1.1474
  959MOL0     C26508   5.336   6.784   6.057  0.6161 -0.2691  0.3273
  959MOL0     C26509   5.468   6.759   6.098  0.0589  0.6510 -0.6318
  959MOL0     C26510   5.885   6.618   6.205  0.8111  0.4078 -0.1336
  959MOL0     C26511   5.985   6.711   6.209 -0.4319  0.1118  0.4912
  959MOL0     C26512   6.116   6.679   6.243  1.2213  0.3344  0.6863
  959MOL0     C26513   6.144   6.540   6.276 -0.2549  0.0992  0.6963
  959MOL0     O26514   6.268   6.488   6.300 -0.0839 -0.0066 -0.3967
  959MOL0     C26515   6.373   6.581   6.284 -0.0002 -0.1115 -0.2155
  959MOL0     C26516   6.509   6.517   6.324  0.4611 -0.5346 -0.7260
  959MOL0     C26517   6.622   6.629   6.356  0.2686  0.1390  0.3012
  959MOL0     C26518   6.736   6.545   6.418 -0.3376 -0.2590  0.0171
  959MOL0     C26519   6.846   6.625   6.483  0.7395 -0.2963 -0.1556
  959MOL0     C26520   6.928   6.702   6.534  0.3159 -0.7528 -0.1434
  959MOL0     C26521   6.043   6.450   6.287 -0.8130  0.8406  0.5094
  959MOL0     C26522   5.918   6.489   6.248 -0.9398  0.7653 -0.1282
  959MOL0     H26523   5.450   6.424   6.086 -0.1159  0.3951 -0.6340
  959MOL0     H26524   5.245   6.474   5.982  0.1724 -0.1123  2.6994
  959MOL0     H26525   5.200   6.863   5.846 -0.6920  2.1262 -0.4157
  959MOL0     H26526   5.066   6.887   5.957 -1.5909  0.5315 -0.7862
  959MOL0     H26527   5.053   6.713   5.692 -0.4187 -4.0490  1.9213
  959MOL0     H26528   5.009   6.882   5.704 -2.0566 -0.2677  0.3454
  959MOL0     H26529   4.857   6.666   5.864  0.6360 -1.5636 -2.8948
  959MOL0     H26530   4.809   6.743   5.725  2.1395  2.2240 -1.3781
  959MOL0     H26531   4.859   6.886   5.994 -0.2493  0.0701 -0.3046
  959MOL0     H26532   4.815   6.967   5.838 -0.9352 -3.2927 -4.8023
  959MOL0     H26533   4.643   6.917   6.012  5.7595 -1.8223  3.3605
  959MOL0     H26534   4.659   6.750   5.986  2.2643 -0.6608  0.1812
  959MOL0     H26535   4.587   6.757   5.747 -2.3269 -0.3448 -0.1241
  959MOL0     H26536   4.592   6.924   5.742  1.8099 -1.2933 -1.1301
  959MOL0     H26537   4.416   6.806   5.965  0.5527 -0.6648  0.0473
  959MOL0     H26538   4.403   6.964   5.895 -2.8851  0.0588 -0.8108
  959MOL0     H26539   4.214   6.844   5.815 -1.1912  0.3104 -3.0537
  959MOL0     H26540   4.311   6.711   5.739  0.2259 -0.1508  0.5252
  959MOL0     H26541   4.206   7.060   5.683 -1.1109 -0.9387 -0.2178
  959MOL0     H26542   4.308   7.147   5.300  0.3826  0.3681 -0.5288
  959MOL0     H26543   4.243   7.227   5.440  0.5680  1.9966 -3.4181
  959MOL0     H26544   4.057   7.219   5.280 -1.8234  2.0875  3.3074
  959MOL0     H26545   4.012   7.134   5.413  2.7157  2.4887  1.6597
  959MOL0     H26546   4.119   7.020   5.143 -0.0020  1.2870 -0.8531
  959MOL0     H26547   4.085   6.917   5.284 -1.4615  0.6244  2.3770
  959MOL0     H26548   3.887   6.929   5.132  0.7413  0.9952 -1.8116
  959MOL0     H26549   3.881   7.104   5.187  4.4939  2.1222  1.1114
  959MOL0     H26550   3.688   6.747   5.321 -0.4277 -0.4852  1.8053
  959MOL0     H26551   3.447   6.738   5.324  0.5229 -0.4754  0.1342
  959MOL0     H26552   2.988   6.935   5.385  1.7784  0.0653  0.6931
  959MOL0     H26553   2.769   6.868   5.352  1.3218  1.9288  0.7093
  959MOL0     H26554   2.668   6.528   5.061  0.9118  0.8483 -1.0511
  959MOL0     H26555   2.667   6.703   5.045 -1.0631  1.3914  0.4225
  959MOL0     H26556   2.450   6.722   5.127  4.2000  0.8942 -0.8870
  959MOL0     H26557   2.434   6.551   5.181  1.8244  1.0494  1.4978
  959MOL0     H26558   2.313   6.560   5.001 -1.2337  2.3722 -1.4447
  959MOL0     H26559   2.462   6.477   4.951 -0.5023 -0.3754  0.1589
  959MOL0     H26560   2.395   6.768   4.919  3.1469  0.9485  0.4420
  959MOL0     H26561   2.532   6.679   4.833 -0.3781 -0.9487 -0.3695
  959MOL0     H26562   2.239   6.635   4.779  0.1901 -1.3400 -2.1080
  959MOL0     H26563   2.374   6.572   4.685  0.6064 -0.9793 -0.8452
  959MOL0     H26564   2.407   6.801   4.587 -0.1760  3.3492 -0.4331
  959MOL0     H26565   2.327   6.878   4.727 -1.0278 -1.8258  1.0622
  959MOL0     H26566   2.177   6.686   4.548  0.5457  0.7019 -2.7721
  959MOL0     H26567   2.115   6.789   4.675 -2.4068 -4.6941 -1.2496
  959MOL0     H26568   2.231   6.934   4.423  0.5048  2.8841  1.8717
  959MOL0     H26569   2.129   6.983   4.563  1.9255 -1.8190  3.0951
  959MOL0     H26570   2.892   6.516   5.130  0.2185  0.7017 -1.2779
  959MOL0     H26571   3.118   6.603   5.135 -2.9025  0.2685 -3.8222
  959MOL0     H26572   3.427   7.161   5.282 -0.0375  0.7897  0.2133
  959MOL0     H26573   3.665   7.177   5.311  1.0452  0.7620  1.4969
  959MOL0     H26574   5.298   6.885   6.063  0.8739 -0.2227  1.4219
  959MOL0     H26575   5.534   6.837   6.134  0.6234  0.6488 -1.6305
  959MOL0     H26576   5.960   6.809   6.170 -0.7396 -0.4584 -0.8099
  959MOL0     H26577   6.189   6.758   6.253  1.0131  0.5748  0.3508
  959MOL0     H26578   6.358   6.664   6.354  1.2146 -0.5771  0.6301
  959MOL0     H26579   6.384   6.621   6.183 -1.6457 -0.5351 -0.5892
  959MOL0     H26580   6.486   6.454   6.410  0.9135  1.3033  0.7980
  959MOL0     H26581   6.556   6.467   6.238  1.0107 -1.0420 -0.1380
  959MOL0     H26582   6.587   6.701   6.430  1.0991  2.6897 -1.6123
  959MOL0     H26583   6.646   6.676   6.260  1.3628 -0.2373  0.3826
  959MOL0     H26584   6.675   6.501   6.497 -2.0670  1.5983 -0.1976
  959MOL0     H26585   6.777   6.474   6.346  0.7757  1.7918 -1.4742
  959MOL0     H26586   6.997   6.772   6.578 -0.5187  0.4618 -0.7194
  959MOL0     H26587   6.059   6.344   6.308 -2.8232  0.4593  0.3463
  959MOL0     H26588   5.836   6.421   6.267  0.8697 -1.1037  1.5318
  960MOL0     O26589  10.238   6.729   1.328 -0.1746 -0.0804 -0.0279
  960MOL0     C26590  10.284   6.688   1.431 -0.7111 -0.9848 -0.6651
  960MOL0     O26591  10.319   6.561   1.450 -0.4674 -0.5430  0.5220
  960MOL0     C26592  10.322   6.485   1.333  0.4526  0.7663  0.1451
  960MOL0     C26593  10.205   6.419   1.300 -0.4622 -0.3992  0.0487
  960MOL0     C26594  10.200   6.354   1.180 -0.2979 -0.0920 -0.3046
  960MOL0     C26595  10.310   6.345   1.093 -0.2685  0.8459 -0.8312
  960MOL0     O26596  10.300   6.255   0.995  0.1559 -0.3298 -0.3956
  960MOL0     C26597  10.349   6.294   0.871  0.1394 -0.2367  0.3224
  960MOL0     C26598  10.296   6.187   0.770 -0.0185  0.3870  0.5230
  960MOL0     C26599  10.166   6.225   0.692  0.6623  0.0105 -0.3034
  960MOL0     C26600  10.112   6.126   0.586 -0.6168 -0.2988  0.1277
  960MOL0     C26601  10.010   6.190   0.490  0.4417 -0.3254  0.4365
  960MOL0     C26602   9.873   6.228   0.559  0.3297 -0.1600 -0.3197
  960MOL0     C26603   9.795   6.094   0.580 -0.0516 -0.1498 -1.0879
  960MOL0     C26604   9.650   6.134   0.639  0.2696  0.1686 -0.4476
  960MOL0     N26605   9.635   6.183   0.774  0.5074  0.1552 -0.6757
  960MOL0     C26606   9.606   6.111   0.889  0.1663 -0.4691 -0.1294
  960MOL0     C26607   9.567   6.208   0.982  0.4312  0.6180 -0.7878
  960MOL0     C26608   9.548   6.187   1.128  0.4676 -0.6196 -0.4215
  960MOL0     C26609   9.401   6.155   1.163 -0.1228 -0.4006  0.7710
  960MOL0     C26610   9.380   6.008   1.160 -0.0299  0.3232  0.8434
  960MOL0     C26611   9.262   5.967   1.241  0.4147 -0.3593  0.0285
  960MOL0     O26612   9.148   6.051   1.197 -0.4786  0.1609 -0.2280
  960MOL0     C26613   9.049   6.070   1.283 -0.5847 -1.2921 -1.1548
  960MOL0     C26614   8.941   6.139   1.233  0.1975 -0.4909 -0.3900
  960MOL0     C26615   8.817   6.148   1.297  0.6077 -0.0778 -0.0420
  960MOL0     C26616   8.800   6.098   1.420 -1.3180 -0.9533  0.0206
  960MOL0     C26617   8.674   6.113   1.494 -0.4181  0.1683 -0.2846
  960MOL0     O26618   8.668   6.059   1.619  0.0172 -0.3152 -0.9118
  960MOL0     C26619   8.572   6.088   1.706  0.1055 -0.6070 -0.4311
  960MOL0     C26620   8.513   6.214   1.714 -0.3319 -0.6276  0.3936
  960MOL0     C26621   8.417   6.239   1.817 -0.7825 -0.8026  0.3841
  960MOL0     C26622   8.384   6.152   1.919 -0.7102  0.0509 -0.3357
  960MOL0     O26623   8.303   6.186   2.019 -0.4118  0.3125  1.5686
  960MOL0     C26624   8.366   6.180   2.152 -0.4594  0.0684 -0.0494
  960MOL0     C26625   8.271   6.246   2.251  0.3823  0.0330 -0.6503
  960MOL0     C26626   8.301   6.398   2.273 -0.1506 -0.3068  0.8479
  960MOL0     C26627   8.319   6.465   2.132 -0.5525 -0.0814  0.9006
  960MOL0     C26628   8.335   6.615   2.127  0.6496 -0.0580 -0.1479
  960MOL0     C26629   8.429   6.663   2.239  0.3666  0.4001  0.1997
  960MOL0     C26630   8.577   6.617   2.224  0.2370 -0.0601  1.2332
  960MOL0     C26631   8.647   6.671   2.103 -0.3562 -0.4433  1.0609
  960MOL0    Cl26632   8.592   6.606   1.942 -0.5207 -0.0769 -0.5732
  960MOL0     C26633   8.456   6.031   1.910  0.1288  0.3157  0.1971
  960MOL0     C26634   8.541   5.993   1.805  0.1489  0.5260  1.3642
  960MOL0     O26635   8.582   6.156   1.426  0.4811 -0.3779 -0.4886
  960MOL0     C26636   8.912   6.024   1.482  0.4306 -0.8548 -0.0249
  960MOL0     C26637   9.033   6.017   1.417 -0.7271 -0.4050 -0.2583
  960MOL0     N26638   9.585   6.330   0.929  0.0468  0.7071  0.0357
  960MOL0     N26639   9.636   6.318   0.811  0.1835 -0.2618  0.5379
  960MOL0     C26640  10.435   6.402   1.136  0.1924  0.1958  1.2069
  960MOL0     C26641  10.444   6.467   1.258 -0.7083 -0.8570 -0.1379
  960MOL0     C26642  10.291   6.779   1.553 -0.2332  0.3732 -0.3087
  960MOL0     C26643  10.248   6.912   1.542  0.2744  0.2121  0.2538
  960MOL0     C26644  10.256   7.004   1.648 -0.1126  0.3571 -0.1738
  960MOL0     C26645  10.297   6.960   1.771  0.2121  0.0066 -0.9017
  960MOL0     O26646  10.293   7.040   1.885 -0.5648 -0.3876 -1.1379
  960MOL0     C26647  10.264   7.182   1.884  0.3574 -0.1460  0.1669
  960MOL0     C26648  10.394   7.264   1.845  0.3596 -0.2475  0.7924
  960MOL0     C26649  10.506   7.275   1.949  0.3010 -0.0252 -0.1724
  960MOL0     C26650  10.647   7.345   1.916 -0.1363  0.4126 -0.4182
  960MOL0     C26651  10.689   7.304   1.779 -0.3249 -0.0993  0.5236
  960MOL0     C26652  10.743   7.277   1.672  1.0658  0.1706  0.4013
  960MOL0     C26653  10.344   6.830   1.788 -0.0007  0.8395 -0.4723
  960MOL0     C26654  10.342   6.737   1.678  0.0863  0.2708  0.4050
  960MOL0     H26655  10.122   6.409   1.369 -0.1699  1.6112  0.7349
  960MOL0     H26656  10.107   6.299   1.173 -1.3647  1.6252 -0.2262
  960MOL0     H26657  10.456   6.273   0.858 -0.4543 -2.2529 -2.1834
  960MOL0     H26658  10.337   6.400   0.849  1.1541 -0.2656 -0.4555
  960MOL0     H26659  10.287   6.093   0.825  1.4998  0.7101  1.3874
  960MOL0     H26660  10.371   6.173   0.691 -1.5507 -0.0741 -0.9218
  960MOL0     H26661  10.183   6.325   0.652 -1.5700  0.4542 -0.2644
  960MOL0     H26662  10.084   6.236   0.764  0.6653 -0.1748 -0.2703
  960MOL0     H26663  10.198   6.094   0.527  3.0246  1.3625  3.9645
  960MOL0     H26664  10.078   6.038   0.641  0.3643  0.3376  1.8377
  960MOL0     H26665   9.997   6.122   0.406 -0.6354 -0.1196  0.4243
  960MOL0     H26666  10.051   6.284   0.453  2.3178 -1.5638 -0.8216
  960MOL0     H26667   9.818   6.298   0.496 -3.8000 -1.2684  1.6234
  960MOL0     H26668   9.883   6.285   0.652  0.9637 -0.6173 -0.1055
  960MOL0     H26669   9.790   6.036   0.488  0.9257 -2.0074 -0.0459
  960MOL0     H26670   9.845   6.036   0.659 -1.8282  2.0276  1.8578
  960MOL0     H26671   9.583   6.048   0.645 -0.6279  0.9320  1.0230
  960MOL0     H26672   9.616   6.217   0.576  0.8366  0.2565 -0.6447
  960MOL0     H26673   9.597   6.005   0.909  1.3834 -0.5625  0.0011
  960MOL0     H26674   9.572   6.285   1.171 -2.0606 -0.0760 -0.1376
  960MOL0     H26675   9.623   6.119   1.168 -0.4488 -1.9769 -0.9646
  960MOL0     H26676   9.341   6.203   1.085  0.3160  2.4273  2.0669
  960MOL0     H26677   9.372   6.194   1.260  0.5033 -4.2899  2.7094
  960MOL0     H26678   9.362   5.977   1.057 -3.6479  0.5155  1.2872
  960MOL0     H26679   9.471   5.963   1.199  2.1196  1.6243 -2.2690
  960MOL0     H26680   9.297   5.977   1.344  2.7001 -2.7491 -0.4388
  960MOL0     H26681   9.238   5.863   1.220 -2.0267  0.2154 -0.3103
  960MOL0     H26682   8.952   6.171   1.130 -0.6825  1.2911  0.0349
  960MOL0     H26683   8.737   6.202   1.248 -3.4871 -3.5449  2.1631
  960MOL0     H26684   8.534   6.285   1.635  2.4187 -1.9929 -0.2144
  960MOL0     H26685   8.376   6.337   1.836  1.3195  0.2145  0.0341
  960MOL0     H26686   8.464   6.228   2.150 -0.8131  0.8776  1.0434
  960MOL0     H26687   8.383   6.075   2.178  2.5211  1.4301  4.8493
  960MOL0     H26688   8.277   6.191   2.346 -0.2960  0.3228 -0.4334
  960MOL0     H26689   8.170   6.240   2.209  0.9613  3.5089 -2.9397
  960MOL0     H26690   8.399   6.407   2.320 -0.4277 -2.1042  1.8696
  960MOL0     H26691   8.230   6.449   2.338 -1.9566 -3.6316  1.7047
  960MOL0     H26692   8.414   6.431   2.090 -1.1249 -0.2153 -0.3312
  960MOL0     H26693   8.245   6.437   2.057  0.7557 -0.6515 -0.2345
  960MOL0     H26694   8.240   6.659   2.157  0.1424 -1.3086  0.1506
  960MOL0     H26695   8.355   6.652   2.026  0.4448 -0.7911 -0.4623
  960MOL0     H26696   8.400   6.643   2.342 -2.7548 -0.6332 -0.7654
  960MOL0     H26697   8.426   6.773   2.245  1.0770  0.3858  0.8839
  960MOL0     H26698   8.636   6.651   2.310  0.3809  0.2797  1.0052
  960MOL0     H26699   8.591   6.509   2.229  1.0432 -0.1186 -1.0459
  960MOL0     H26700   8.750   6.639   2.117 -0.8363 -2.4813  0.3101
  960MOL0     H26701   8.628   6.778   2.117 -1.2792 -0.6653  1.5608
  960MOL0     H26702   8.426   5.957   1.984 -2.5941 -0.1780 -1.2996
  960MOL0     H26703   8.592   5.897   1.798  0.0821  0.6270 -2.4559
  960MOL0     H26704   8.895   5.983   1.581  0.7537  1.6792  1.1653
  960MOL0     H26705   9.116   5.971   1.468 -1.1295 -0.7355  0.1126
  960MOL0     H26706  10.523   6.378   1.077  0.1657 -0.5164  1.4500
  960MOL0     H26707  10.542   6.501   1.288 -1.7783 -1.3349  4.6860
  960MOL0     H26708  10.230   6.955   1.444  3.4007  2.0478  0.3719
  960MOL0     H26709  10.225   7.107   1.634  2.3715  0.9272 -2.1034
  960MOL0     H26710  10.213   7.215   1.975 -2.3924 -2.2153 -0.4947
  960MOL0     H26711  10.188   7.199   1.807  0.6449 -4.6491 -1.3714
  960MOL0     H26712  10.446   7.234   1.754  1.5015 -0.4135  1.4868
  960MOL0     H26713  10.360   7.366   1.825  0.4924  0.4234  3.6369
  960MOL0     H26714  10.529   7.174   1.984 -2.0167  0.4389  3.1024
  960MOL0     H26715  10.460   7.322   2.036  2.6952  0.4141  0.9548
  960MOL0     H26716  10.628   7.452   1.905  0.8829  0.7108  0.5815
  960MOL0     H26717  10.725   7.332   1.991  1.0503  3.8386 -0.9051
  960MOL0     H26718  10.790   7.274   1.576 -2.2229  0.6414 -1.3740
  960MOL0     H26719  10.378   6.802   1.888  0.7424  0.0456 -0.9373
  960MOL0     H26720  10.388   6.639   1.688  0.5447  0.2050 -1.7685
  961MOL0     O26721   4.823  10.199  10.388  0.3360 -0.2121  0.9073
  961MOL0     C26722   4.893  10.202  10.495  0.0693  0.1075 -0.5012
  961MOL0     O26723   4.836  10.210  10.619 -0.7225  0.2273  0.1743
  961MOL0     C26724   4.708  10.232  10.639  0.8130 -0.2476 -0.7331
  961MOL0     C26725   4.636  10.140  10.726  0.5817  0.8318  1.0308
  961MOL0     C26726   4.509  10.178  10.764  0.2530 -0.1924  0.7623
  961MOL0     C26727   4.446  10.292  10.710 -0.1991 -0.3350  0.1585
  961MOL0     O26728   4.308  10.305  10.731 -0.1307  0.1690  0.1207
  961MOL0     C26729   4.239  10.410  10.666 -0.3608  0.8873 -0.4214
  961MOL0     C26730   4.096  10.415  10.712  0.0087 -0.9713 -0.0910
  961MOL0     C26731   4.019  10.540  10.673  0.9943  0.4580  0.4385
  961MOL0     C26732   3.885  10.544  10.748  0.6692  0.0387  1.6259
  961MOL0     C26733   3.812  10.665  10.696  0.8482 -0.7711 -0.1467
  961MOL0     C26734   3.679  10.689  10.770  0.6276 -0.8778 -0.2379
  961MOL0     C26735   3.611  10.815  10.718  0.3858  0.4862 -0.5375
  961MOL0     C26736   3.539  10.787  10.581 -0.1027  0.0186  0.0106
  961MOL0     N26737   3.450  10.903  10.556 -0.4769 -0.6571  0.9238
  961MOL0     C26738   3.481  11.035  10.570 -0.2994 -0.1885 -0.3731
  961MOL0     C26739   3.379  11.108  10.521 -0.1546 -0.1897  0.8521
  961MOL0     C26740   3.380  11.259  10.520 -0.0438 -1.0831  1.2430
  961MOL0     C26741   3.379  11.331  10.658  1.0028  0.4784  0.2776
  961MOL0     C26742   3.253  11.289  10.729 -0.9990  0.2484  0.5565
  961MOL0     C26743   3.196  11.395  10.829 -0.6460  0.1016  0.2743
  961MOL0     O26744   3.064  11.350  10.881 -0.6259  0.3598  0.8043
  961MOL0     C26745   2.967  11.453  10.901 -0.2981  0.4840  0.1329
  961MOL0     C26746   2.998  11.588  10.923 -0.4011 -0.5416 -0.3067
  961MOL0     C26747   2.895  11.679  10.935  0.3097 -0.0995  0.9756
  961MOL0     C26748   2.766  11.655  10.892  0.6432  0.7428 -0.0858
  961MOL0     C26749   2.661  11.753  10.881  0.2460 -0.7273  0.6287
  961MOL0     O26750   2.674  11.872  10.924 -0.0296  0.2103  0.3895
  961MOL0     C26751   2.575  11.965  10.906  0.0515 -0.3314 -0.4467
  961MOL0     C26752   2.560  12.037  10.785 -0.5031 -0.6842 -0.1982
  961MOL0     C26753   2.473  12.143  10.790 -0.2083  0.0507 -0.2695
  961MOL0     C26754   2.384  12.160  10.895 -0.0823  0.0774  0.5021
  961MOL0     O26755   2.292  12.257  10.893  0.0927  0.5279  0.5007
  961MOL0     C26756   2.247  12.331  10.781  0.3715  0.1394 -0.1556
  961MOL0     C26757   2.139  12.426  10.832 -0.2142 -0.3505  0.5443
  961MOL0     C26758   2.008  12.350  10.828  0.8668  0.2941  0.8694
  961MOL0     C26759   1.898  12.434  10.882 -0.9520  0.4956  0.1936
  961MOL0     C26760   1.852  12.545  10.779 -0.5786 -0.5198  0.3110
  961MOL0     C26761   1.722  12.614  10.820  0.3633  0.1943 -0.4351
  961MOL0     C26762   1.674  12.738  10.744 -0.0996 -0.0146 -0.1035
  961MOL0     C26763   1.645  12.718  10.591 -0.5359  0.3433 -0.5362
  961MOL0    Cl26764   1.476  12.661  10.578  0.2055  0.0974  0.1892
  961MOL0     C26765   2.383  12.082  10.999 -0.4131 -0.1579 -0.3768
  961MOL0     C26766   2.478  11.979  11.007 -1.2321  0.1352 -0.8452
  961MOL0     O26767   2.567  11.712  10.812 -0.3832 -0.0371  0.0559
  961MOL0     C26768   2.735  11.518  10.872 -0.4639  0.1187 -0.4839
  961MOL0     C26769   2.838  11.422  10.879  0.0663  0.5215 -0.7336
  961MOL0     N26770   3.290  11.022  10.462  0.5563  0.1924  0.1218
  961MOL0     N26771   3.323  10.895  10.495 -0.2133  0.6530 -0.5088
  961MOL0     C26772   4.513  10.363  10.609 -0.0998 -0.2714  0.5470
  961MOL0     C26773   4.641  10.339  10.581 -1.0463  0.9241  0.1327
  961MOL0     C26774   5.045  10.208  10.486 -0.5966  0.0011  0.5361
  961MOL0     C26775   5.103  10.218  10.358 -0.1540  0.0034  0.1164
  961MOL0     C26776   5.247  10.225  10.351 -0.4845  0.5207  0.0810
  961MOL0     C26777   5.328  10.240  10.462  0.1662 -0.2089  0.3733
  961MOL0     O26778   5.461  10.252  10.436 -0.1827 -0.3719 -0.3028
  961MOL0     C26779   5.544  10.240  10.561  0.1428 -0.2636  0.4668
  961MOL0     C26780   5.688  10.255  10.514  0.4751 -0.6534  0.0475
  961MOL0     C26781   5.718  10.409  10.488 -0.3964  0.5794  0.2345
  961MOL0     C26782   5.847  10.439  10.401  0.3178  0.4962  0.3922
  961MOL0     C26783   5.865  10.583  10.376 -0.8083 -0.0167 -0.4292
  961MOL0     C26784   5.885  10.694  10.334 -0.5929  0.3983  0.1243
  961MOL0     C26785   5.271  10.219  10.582 -0.8430  0.4539  0.7113
  961MOL0     C26786   5.133  10.202  10.602 -0.9386  0.6613  0.0231
  961MOL0     H26787   4.677  10.048  10.766 -1.6712  0.6932  3.2689
  961MOL0     H26788   4.451  10.114  10.830  1.4636 -0.7485  1.3123
  961MOL0     H26789   4.238  10.414  10.557 -3.5299  3.7189 -0.4490
  961MOL0     H26790   4.287  10.507  10.684  0.4672  0.8763 -2.3505
  961MOL0     H26791   4.100  10.421  10.821  0.5047 -1.8468 -0.0482
  961MOL0     H26792   4.040  10.325  10.684 -0.0096 -0.2245 -2.7162
  961MOL0     H26793   4.007  10.539  10.564  4.8182 -3.8733 -0.2356
  961MOL0     H26794   4.076  10.628  10.707 -1.1340  0.8656  3.3173
  961MOL0     H26795   3.824  10.454  10.749  1.4409 -0.4954  1.3462
  961MOL0     H26796   3.914  10.563  10.852 -0.9549  2.4965  1.7322
  961MOL0     H26797   3.800  10.666  10.587  2.7603 -0.0953 -0.4002
  961MOL0     H26798   3.875  10.753  10.713 -1.1431  0.5953  0.5086
  961MOL0     H26799   3.709  10.702  10.874 -1.3689 -0.8603  0.3608
  961MOL0     H26800   3.618  10.600  10.753  2.2014 -1.7147 -1.9307
  961MOL0     H26801   3.543  10.842  10.799 -2.4731 -1.5602 -2.0830
  961MOL0     H26802   3.681  10.898  10.706  1.9378 -0.7867 -0.5915
  961MOL0     H26803   3.475  10.698  10.584  0.3796 -0.4472 -2.1170
  961MOL0     H26804   3.613  10.778  10.501 -1.8117 -0.1024 -1.6000
  961MOL0     H26805   3.571  11.080  10.612 -1.9918  2.9083  0.2380
  961MOL0     H26806   3.301  11.295  10.453 -0.9700 -0.8109  2.4340
  961MOL0     H26807   3.478  11.292  10.485 -1.0847  0.5493 -0.2958
  961MOL0     H26808   3.389  11.440  10.649  1.9231  0.5861  2.2323
  961MOL0     H26809   3.462  11.292  10.718  0.2805 -0.8599  0.4380
  961MOL0     H26810   3.179  11.281  10.649 -0.1313 -1.3500 -0.1355
  961MOL0     H26811   3.263  11.192  10.778 -1.5871 -0.4528 -0.6798
  961MOL0     H26812   3.180  11.488  10.774  2.7259  0.3657 -0.4692
  961MOL0     H26813   3.262  11.410  10.914  3.2572 -2.5532 -1.9266
  961MOL0     H26814   3.096  11.624  10.951 -0.3685  3.5413 -4.3719
  961MOL0     H26815   2.915  11.783  10.959 -1.0937  0.6012 -0.7436
  961MOL0     H26816   2.618  12.014  10.696 -1.9665 -0.0560 -1.3581
  961MOL0     H26817   2.466  12.194  10.694  2.8733 -0.7219 -1.0142
  961MOL0     H26818   2.213  12.249  10.716 -0.8322 -0.0011  0.6217
  961MOL0     H26819   2.319  12.395  10.729 -1.1026  2.3134  0.3572
  961MOL0     H26820   2.134  12.516  10.769 -1.3162 -1.9160 -1.7648
  961MOL0     H26821   2.161  12.450  10.936 -1.3145 -2.9104  1.4502
  961MOL0     H26822   2.019  12.262  10.892 -0.4576 -0.9156 -0.4921
  961MOL0     H26823   1.989  12.309  10.728  2.4584 -0.8539  0.9982
  961MOL0     H26824   1.815  12.369  10.912 -0.2813 -0.0812  0.8507
  961MOL0     H26825   1.945  12.492  10.961  5.2090  0.8954 -3.1528
  961MOL0     H26826   1.850  12.511  10.675  4.2944  0.0247 -0.2181
  961MOL0     H26827   1.925  12.626  10.778  1.6737 -2.4261 -0.6068
  961MOL0     H26828   1.720  12.643  10.925 -1.1238  1.9293 -0.8833
  961MOL0     H26829   1.646  12.536  10.819 -1.1229  1.5709  0.3394
  961MOL0     H26830   1.601  12.797  10.799  0.2036  1.4598 -1.2201
  961MOL0     H26831   1.750  12.816  10.754  1.4919 -1.4229 -0.6802
  961MOL0     H26832   1.712  12.642  10.550 -1.1497 -1.5982  1.7974
  961MOL0     H26833   1.660  12.804  10.525  0.7834 -0.8329 -1.8382
  961MOL0     H26834   2.311  12.092  11.080 -0.2204 -1.2332 -0.0630
  961MOL0     H26835   2.470  11.921  11.099 -2.4792  0.1791 -0.9071
  961MOL0     H26836   2.638  11.484  10.837  0.7236 -3.3073 -0.7459
  961MOL0     H26837   2.814  11.323  10.839 -1.9491 -0.1198  1.8231
  961MOL0     H26838   4.469  10.440  10.547  1.0532 -0.0590 -0.0213
  961MOL0     H26839   4.694  10.405  10.512 -0.5629  0.3188 -0.0838
  961MOL0     H26840   5.055  10.218  10.260  1.4609  0.4613 -0.7033
  961MOL0     H26841   5.287  10.240  10.251  1.0607  1.3301  0.8035
  961MOL0     H26842   5.530  10.140  10.601 -0.4515 -1.6967 -2.9533
  961MOL0     H26843   5.511  10.292  10.651 -1.2102 -0.1435 -0.0700
  961MOL0     H26844   5.746  10.227  10.603 -2.7614 -0.1381  2.5295
  961MOL0     H26845   5.706  10.196  10.424 -1.1828  0.6121 -1.1646
  961MOL0     H26846   5.722  10.458  10.586 -1.5696 -1.3122  1.2989
  961MOL0     H26847   5.634  10.450  10.431  1.1082  3.4683 -0.0676
  961MOL0     H26848   5.932  10.411  10.464  0.3791  0.0540  0.1159
  961MOL0     H26849   5.835  10.389  10.305 -1.7194 -0.8072  1.2546
  961MOL0     H26850   5.899  10.788  10.286  1.3273 -0.1482 -0.4566
  961MOL0     H26851   5.332  10.212  10.671  0.3004  1.8090  0.0664
  961MOL0     H26852   5.082  10.192  10.698  0.0932 -4.2143  0.3222
  962MOL0     O26853   6.205  10.705   0.999  0.6365 -0.4944 -0.1688
  962MOL0     C26854   6.113  10.659   0.927  0.7690 -0.1218  0.6036
  962MOL0     O26855   6.105  10.680   0.787  0.0002  0.4055  0.1406
  962MOL0     C26856   6.183  10.782   0.746 -0.1243 -0.7860  0.1788
  962MOL0     C26857   6.322  10.762   0.714 -0.5903 -0.6866 -0.3391
  962MOL0     C26858   6.402  10.871   0.688 -0.7249 -0.0310  0.3688
  962MOL0     C26859   6.362  10.999   0.676 -0.1670 -0.6397 -0.3105
  962MOL0     O26860   6.449  11.099   0.646  0.3910 -0.3816 -0.1773
  962MOL0     C26861   6.415  11.149   0.516  0.0559 -0.9356 -0.1590
  962MOL0     C26862   6.544  11.210   0.455  0.0600 -0.1462 -0.2795
  962MOL0     C26863   6.588  11.350   0.508 -0.0874 -0.8814 -0.4167
  962MOL0     C26864   6.475  11.460   0.497  0.5569  0.3632  0.3396
  962MOL0     C26865   6.424  11.490   0.353 -0.3394 -0.3957 -0.1731
  962MOL0     C26866   6.348  11.621   0.338  0.6999  0.1452  0.5209
  962MOL0     C26867   6.339  11.670   0.197 -0.0168 -0.0708  0.2112
  962MOL0     C26868   6.190  11.695   0.153 -0.3250  0.2346  0.5112
  962MOL0     N26869   6.110  11.570   0.160 -0.4353 -0.5930 -0.2255
  962MOL0     C26870   6.148  11.450   0.097  0.5573 -0.5386 -0.6937
  962MOL0     C26871   6.075  11.350   0.157 -0.0883  0.1126 -0.5758
  962MOL0     C26872   6.065  11.201   0.134 -0.8348 -0.0095 -0.8568
  962MOL0     C26873   6.084  11.118   0.263 -0.3195 -0.5125  0.4774
  962MOL0     C26874   6.012  10.985   0.265 -0.5639  0.5339  1.0906
  962MOL0     C26875   6.023  10.913   0.403 -0.0865  0.6481  0.4234
  962MOL0     O26876   5.987  10.771   0.390  0.8582  0.4403 -0.0566
  962MOL0     C26877   5.862  10.730   0.441  0.0539 -0.6241 -0.3062
  962MOL0     C26878   5.798  10.626   0.372 -0.6085  0.8415  0.0735
  962MOL0     C26879   5.675  10.567   0.418  0.9225  0.4168 -0.6237
  962MOL0     C26880   5.619  10.613   0.534 -0.2733 -0.3440  0.9245
  962MOL0     C26881   5.502  10.546   0.593  0.5296  1.1459 -0.8507
  962MOL0     O26882   5.441  10.454   0.512 -0.0306  0.2605 -0.5868
  962MOL0     C26883   5.325  10.397   0.565  1.4700  0.5313 -1.1090
  962MOL0     C26884   5.322  10.265   0.606 -0.1569  0.0944 -0.6791
  962MOL0     C26885   5.200  10.200   0.649 -1.2020 -0.4053 -1.2150
  962MOL0     C26886   5.082  10.273   0.660 -0.1974 -0.1361 -0.3057
  962MOL0     O26887   4.972  10.215   0.711  1.2543 -0.1271 -0.4996
  962MOL0     C26888   4.892  10.303   0.790  0.2780  0.9180 -0.6457
  962MOL0     C26889   4.810  10.232   0.900  0.3125  0.4940  0.4245
  962MOL0     C26890   4.895  10.201   1.019 -0.4425 -0.6286  0.7146
  962MOL0     C26891   4.834  10.106   1.122 -0.2506  0.1025  0.0857
  962MOL0     C26892   4.713  10.175   1.187 -0.8969 -0.0649  0.2644
  962MOL0     C26893   4.675  10.108   1.313 -0.1203  0.3509 -0.0384
  962MOL0     C26894   4.562  10.184   1.385 -0.5103  0.8317 -1.1108
  962MOL0     C26895   4.494  10.095   1.491 -0.0623  0.0683  0.7192
  962MOL0    Cl26896   4.624  10.032   1.601 -0.2070  0.1997  0.0147
  962MOL0     C26897   5.079  10.401   0.599  0.3473 -0.1315  0.0038
  962MOL0     C26898   5.196  10.454   0.545  0.2206 -0.3088 -0.0681
  962MOL0     O26899   5.465  10.575   0.708  0.0892  0.3532 -0.2076
  962MOL0     C26900   5.680  10.720   0.597 -0.1206  0.3985  0.6723
  962MOL0     C26901   5.799  10.775   0.554  0.1547 -0.3927  0.1358
  962MOL0     N26902   5.997  11.413   0.248 -0.4323  0.1787 -0.3127
  962MOL0     N26903   6.009  11.540   0.248 -0.2352 -0.6630  0.0287
  962MOL0     C26904   6.222  11.023   0.696 -0.1979  0.1247 -0.1889
  962MOL0     C26905   6.141  10.915   0.723 -0.0436 -0.4812 -0.2990
  962MOL0     C26906   5.997  10.613   1.001  0.6778  0.8087 -0.8555
  962MOL0     C26907   5.889  10.570   0.923  0.0516  0.1426  0.0834
  962MOL0     C26908   5.774  10.512   0.989  0.2411  0.5738  0.9484
  962MOL0     C26909   5.763  10.499   1.128  0.4767  0.6058  0.5488
  962MOL0     O26910   5.655  10.426   1.173 -0.2216  0.5006 -0.8971
  962MOL0     C26911   5.653  10.389   1.316  0.4234 -0.9595 -1.1001
  962MOL0     C26912   5.633  10.517   1.405  0.2042  0.5270  0.2021
  962MOL0     C26913   5.485  10.552   1.396  0.3097  0.4081  0.3176
  962MOL0     C26914   5.439  10.637   1.518  0.2643 -0.8811  0.9828
  962MOL0     C26915   5.294  10.638   1.541  1.0320 -0.5785 -0.4534
  962MOL0     C26916   5.177  10.660   1.567  0.7776  0.4056  0.0736
  962MOL0     C26917   5.882  10.528   1.199 -1.0413 -1.2880 -0.9536
  962MOL0     C26918   5.991  10.585   1.139 -0.6112  0.0881  0.1845
  962MOL0     H26919   6.369  10.666   0.702 -1.3637 -0.9324 -1.4667
  962MOL0     H26920   6.505  10.856   0.656 -1.0509  0.3656 -0.9040
  962MOL0     H26921   6.340  11.226   0.535  0.8923 -0.5011  1.6251
  962MOL0     H26922   6.383  11.067   0.451 -0.4066 -1.9025  1.2384
  962MOL0     H26923   6.525  11.228   0.349 -0.3965  1.7605  0.0914
  962MOL0     H26924   6.621  11.133   0.464 -2.7738 -3.0696  1.1571
  962MOL0     H26925   6.676  11.387   0.454  0.7235  0.6659  1.8164
  962MOL0     H26926   6.619  11.349   0.613 -2.5764  2.9333  0.5441
  962MOL0     H26927   6.389  11.425   0.554  0.1315 -1.6596 -1.4176
  962MOL0     H26928   6.514  11.553   0.540 -1.1113  2.0149 -1.5648
  962MOL0     H26929   6.358  11.412   0.314  0.3200 -0.2735 -1.5960
  962MOL0     H26930   6.518  11.504   0.300 -0.9492  0.5254 -1.0664
  962MOL0     H26931   6.402  11.694   0.399  0.4728  1.2256 -0.5580
  962MOL0     H26932   6.250  11.603   0.385  1.3424  0.2294  1.9371
  962MOL0     H26933   6.394  11.764   0.195  1.0451 -0.6836 -0.7085
  962MOL0     H26934   6.391  11.602   0.129 -1.6514 -1.8614  0.6628
  962MOL0     H26935   6.195  11.730   0.050  0.7288  2.4189  1.2549
  962MOL0     H26936   6.138  11.769   0.213 -1.6098  0.2841 -0.6135
  962MOL0     H26937   6.233  11.437   0.031  1.4614  0.1492  0.3047
  962MOL0     H26938   6.130  11.164   0.054 -1.0687 -0.3478 -0.8897
  962MOL0     H26939   5.973  11.180   0.080 -0.0798 -3.0517 -1.1230
  962MOL0     H26940   6.056  11.175   0.352  3.5637  2.0915  0.2639
  962MOL0     H26941   6.192  11.100   0.263  0.0845  1.5839 -0.9195
  962MOL0     H26942   5.911  10.997   0.225 -0.6471  1.8209  1.6332
  962MOL0     H26943   6.059  10.913   0.197 -3.8471 -1.8267  1.0650
  962MOL0     H26944   5.962  10.976   0.468 -1.2385  0.6184 -0.5956
  962MOL0     H26945   6.119  10.922   0.454 -0.9847  1.2260  2.1055
  962MOL0     H26946   5.845  10.582   0.284 -0.8246  0.7254  0.0166
  962MOL0     H26947   5.624  10.485   0.367  1.0303 -1.4507  2.0406
  962MOL0     H26948   5.410  10.202   0.614  0.8103  1.4431 -0.4090
  962MOL0     H26949   5.197  10.097   0.683 -0.1526  0.1336  0.7104
  962MOL0     H26950   4.826  10.362   0.725 -0.3745  0.0098 -0.8320
  962MOL0     H26951   4.956  10.376   0.839 -1.4979  1.3106  1.2464
  962MOL0     H26952   4.776  10.138   0.856  3.2365 -0.0560 -0.9185
  962MOL0     H26953   4.730  10.297   0.938 -3.9530 -3.5515 -0.7514
  962MOL0     H26954   4.931  10.297   1.060  0.1285 -0.4619 -0.1448
  962MOL0     H26955   4.987  10.148   0.992  1.2351  2.7084 -0.7210
  962MOL0     H26956   4.809  10.011   1.075  1.6111 -0.6019  0.4314
  962MOL0     H26957   4.914  10.076   1.191 -2.2078 -1.2168  1.9345
  962MOL0     H26958   4.634  10.170   1.112  0.8584 -4.5560 -1.6700
  962MOL0     H26959   4.734  10.277   1.220 -1.1621 -0.2476  1.0135
  962MOL0     H26960   4.767  10.086   1.367  1.3544  0.2704 -2.4479
  962MOL0     H26961   4.625  10.017   1.278  1.5447 -0.1324 -1.2956
  962MOL0     H26962   4.608  10.265   1.442 -2.9906  1.4669  0.1309
  962MOL0     H26963   4.487  10.217   1.312  0.0651 -1.2339 -2.7499
  962MOL0     H26964   4.430  10.023   1.441  1.1408  1.9486 -4.1056
  962MOL0     H26965   4.422  10.162   1.539 -1.4839  1.7408 -3.3071
  962MOL0     H26966   4.978  10.437   0.585  0.1074 -1.1659 -1.1797
  962MOL0     H26967   5.190  10.532   0.470  1.7397  1.5062  1.6103
  962MOL0     H26968   5.632  10.763   0.684  0.3971 -1.2071  1.7796
  962MOL0     H26969   5.841  10.861   0.605 -1.2859  0.1022  0.5277
  962MOL0     H26970   6.171  11.119   0.693 -1.7969 -0.5959  1.6377
  962MOL0     H26971   6.036  10.941   0.733  0.3309  0.0671  3.5006
  962MOL0     H26972   5.875  10.575   0.815 -0.2426  0.3648  0.1315
  962MOL0     H26973   5.699  10.459   0.931  1.0801 -1.2482  1.4656
  962MOL0     H26974   5.749  10.346   1.348  0.4244  0.9034  1.7178
  962MOL0     H26975   5.577  10.316   1.347  0.0008 -0.3534 -0.6941
  962MOL0     H26976   5.669  10.502   1.508 -0.5492 -4.5644 -0.0029
  962MOL0     H26977   5.692  10.597   1.359  1.6137 -1.1658 -1.0701
  962MOL0     H26978   5.424  10.462   1.385 -2.2909  2.3538 -2.6079
  962MOL0     H26979   5.477  10.611   1.305  0.6382 -0.2713 -0.1545
  962MOL0     H26980   5.473  10.591   1.611  2.4942 -2.1831 -0.3687
  962MOL0     H26981   5.466  10.742   1.503 -0.3672 -0.9770 -1.2492
  962MOL0     H26982   5.078  10.694   1.589  0.8422  1.5231 -1.1781
  962MOL0     H26983   5.888  10.524   1.307 -0.6155  1.1779 -0.8420
  962MOL0     H26984   6.076  10.607   1.203  2.0155 -3.9370 -1.4528
  963MOL0     O26985   6.542   5.474   2.530  0.1051  0.3242 -0.1987
  963MOL0     C26986   6.601   5.472   2.422 -0.3335 -0.2010  0.6600
  963MOL0     O26987   6.545   5.457   2.303 -0.9345 -0.0131 -0.2108
  963MOL0     C26988   6.416   5.406   2.305  0.1418 -0.5122 -0.3226
  963MOL0     C26989   6.304   5.487   2.256 -0.7442 -0.4086  0.0172
  963MOL0     C26990   6.173   5.431   2.254 -0.0483  1.1255 -0.0524
  963MOL0     C26991   6.154   5.310   2.308  0.0577  0.2056 -0.2062
  963MOL0     O26992   6.024   5.271   2.304  0.9175  0.0027 -0.1872
  963MOL0     C26993   5.978   5.144   2.358  0.6887  0.4770  0.2078
  963MOL0     C26994   5.832   5.132   2.296 -1.1406  0.4638  0.0000
  963MOL0     C26995   5.751   5.028   2.377  0.4676 -0.5566 -0.7980
  963MOL0     C26996   5.605   5.036   2.318  0.4293  0.2308 -0.3181
  963MOL0     C26997   5.506   4.945   2.386 -0.5248 -0.4249  0.1697
  963MOL0     C26998   5.511   4.806   2.337  0.1660 -0.9305  0.2299
  963MOL0     C26999   5.394   4.722   2.403  0.1827 -0.6981  0.4915
  963MOL0     C27000   5.390   4.583   2.349 -0.5162 -0.0348 -0.1598
  963MOL0     N27001   5.318   4.491   2.436  0.8126 -0.2195 -0.1252
  963MOL0     C27002   5.189   4.517   2.480 -0.9922  1.4359  0.3414
  963MOL0     C27003   5.167   4.428   2.575  0.5707  0.4995  0.3658
  963MOL0     C27004   5.043   4.411   2.640  0.3942  0.2033 -0.9934
  963MOL0     C27005   4.963   4.288   2.589  0.6035 -0.7647 -0.5293
  963MOL0     C27006   4.817   4.298   2.649  0.0397 -1.1168 -0.5047
  963MOL0     C27007   4.734   4.178   2.613  0.5787 -0.0180  0.1467
  963MOL0     O27008   4.605   4.192   2.674 -0.1720  0.7275 -0.7730
  963MOL0     C27009   4.503   4.136   2.608 -0.4445 -0.9306 -0.3915
  963MOL0     C27010   4.513   4.049   2.502  0.4580  0.4003 -0.0662
  963MOL0     C27011   4.389   4.002   2.450 -0.3516 -0.0589  0.5999
  963MOL0     C27012   4.260   4.045   2.498  0.5352 -0.1737  0.0467
  963MOL0     C27013   4.139   4.016   2.422 -0.4094 -0.3118 -0.4760
  963MOL0     O27014   4.138   3.900   2.357 -0.6082  0.4440 -0.5682
  963MOL0     C27015   4.025   3.848   2.303  0.6166  0.7680  0.9262
  963MOL0     C27016   4.032   3.762   2.186 -0.0867  0.3609 -0.5102
  963MOL0     C27017   3.921   3.711   2.132  0.7709 -0.5593  0.6248
  963MOL0     C27018   3.801   3.716   2.194 -0.2558  0.5567  0.9087
  963MOL0     O27019   3.688   3.656   2.136 -0.4969  0.9199 -0.8496
  963MOL0     C27020   3.625   3.752   2.054  0.6063  0.6037 -0.9365
  963MOL0     C27021   3.482   3.733   2.093  0.1081  0.4506  0.4458
  963MOL0     C27022   3.427   3.609   2.026  0.2208  0.1587 -0.1200
  963MOL0     C27023   3.390   3.630   1.891 -0.5311 -0.8542  1.4494
  963MOL0     C27024   3.322   3.504   1.826 -0.0155  1.3868 -0.1017
  963MOL0     C27025   3.172   3.490   1.866  0.2531  0.2452 -0.0609
  963MOL0     C27026   3.122   3.347   1.840  0.1061 -0.8219  0.2052
  963MOL0     C27027   3.063   3.309   1.702  0.3618  0.3668  0.5028
  963MOL0    Cl27028   2.919   3.405   1.664 -0.1145 -0.4904 -0.4366
  963MOL0     C27029   3.791   3.788   2.309 -0.2704 -1.4654  0.6498
  963MOL0     C27030   3.900   3.854   2.367 -0.5245  0.2835  0.9197
  963MOL0     O27031   4.053   4.099   2.416 -0.3119 -0.0321 -0.1123
  963MOL0     C27032   4.258   4.135   2.612 -0.6244 -0.2016  1.2948
  963MOL0     C27033   4.379   4.172   2.666 -0.1802 -0.3639  0.7988
  963MOL0     N27034   5.284   4.356   2.595  0.3086 -0.0064  0.5547
  963MOL0     N27035   5.374   4.393   2.515  0.0554 -0.3312 -0.0757
  963MOL0     C27036   6.264   5.235   2.356  0.5763 -0.4256  0.1843
  963MOL0     C27037   6.388   5.280   2.352  0.0861 -0.3902 -0.2317
  963MOL0     C27038   6.751   5.483   2.429  0.1445  0.2228 -0.1943
  963MOL0     C27039   6.816   5.546   2.539 -1.2629  0.2740 -0.2637
  963MOL0     C27040   6.961   5.569   2.541  0.4266 -0.5420  0.2180
  963MOL0     C27041   7.035   5.516   2.432 -0.0348  0.9020 -0.4668
  963MOL0     O27042   7.173   5.530   2.421  0.0634  0.6062 -0.2143
  963MOL0     C27043   7.242   5.612   2.526 -0.6944  0.4724 -0.2223
  963MOL0     C27044   7.389   5.617   2.490 -0.3179 -0.3961 -0.0491
  963MOL0     C27045   7.473   5.685   2.607  0.6822  1.0243 -0.1030
  963MOL0     C27046   7.612   5.717   2.573 -0.2816 -1.2315 -0.5684
  963MOL0     C27047   7.631   5.845   2.510 -1.1049 -0.6811  0.2331
  963MOL0     C27048   7.649   5.960   2.462  0.2444  0.1356 -0.6638
  963MOL0     C27049   6.967   5.452   2.329  0.5568 -0.0195 -0.9352
  963MOL0     C27050   6.829   5.437   2.325  0.4982  0.6023  0.1995
  963MOL0     H27051   6.319   5.590   2.223 -1.3391 -0.0917  0.7166
  963MOL0     H27052   6.095   5.497   2.216  0.4607  1.3145 -0.7874
  963MOL0     H27053   5.970   5.143   2.467 -2.3484  1.8206  0.0898
  963MOL0     H27054   6.037   5.057   2.327 -1.6173 -0.7986 -0.8266
  963MOL0     H27055   5.828   5.104   2.190  1.7490 -0.8194  0.1452
  963MOL0     H27056   5.784   5.230   2.296  4.0059  3.3611  1.8344
  963MOL0     H27057   5.749   5.052   2.483 -0.5264  1.7153 -1.2851
  963MOL0     H27058   5.787   4.926   2.358  1.7453 -0.2058 -0.3534
  963MOL0     H27059   5.567   5.139   2.322  0.7492  0.3191  0.8676
  963MOL0     H27060   5.617   5.006   2.214 -0.4891  2.2618 -1.0577
  963MOL0     H27061   5.408   4.984   2.358  0.1904  0.7044 -0.8752
  963MOL0     H27062   5.513   4.938   2.495  0.9535  1.0333  0.2037
  963MOL0     H27063   5.609   4.761   2.353  0.3353 -0.0787  1.8587
  963MOL0     H27064   5.481   4.807   2.232 -1.0430 -0.6946  0.5574
  963MOL0     H27065   5.404   4.716   2.512 -0.3857  3.3311  0.9423
  963MOL0     H27066   5.295   4.769   2.395  0.2565 -0.2829  1.7769
  963MOL0     H27067   5.490   4.545   2.330 -1.3617 -2.9955  0.8466
  963MOL0     H27068   5.340   4.595   2.252 -0.7683 -0.5861 -0.1003
  963MOL0     H27069   5.126   4.599   2.447  0.9543  0.7438 -6.7385
  963MOL0     H27070   4.981   4.501   2.641  0.5452  0.3098 -1.1692
  963MOL0     H27071   5.072   4.382   2.742  1.6692 -1.3374 -1.7384
  963MOL0     H27072   5.000   4.203   2.647  1.3442 -0.5972 -0.7441
  963MOL0     H27073   4.979   4.278   2.482  1.6837 -0.8606 -0.3690
  963MOL0     H27074   4.812   4.325   2.755  0.5173 -1.4843 -0.3850
  963MOL0     H27075   4.774   4.388   2.603  0.6971 -0.1979  0.6148
  963MOL0     H27076   4.775   4.084   2.649 -2.3317 -0.7806  1.7931
  963MOL0     H27077   4.732   4.176   2.503  1.1763  1.2434  0.0886
  963MOL0     H27078   4.606   4.016   2.457 -0.0224 -1.3024  0.1029
  963MOL0     H27079   4.410   3.937   2.366  2.5504  2.7294 -1.0367
  963MOL0     H27080   4.125   3.770   2.132 -1.7261  1.0456 -3.4655
  963MOL0     H27081   3.924   3.637   2.052  2.3459 -0.0063  0.1259
  963MOL0     H27082   3.640   3.739   1.946 -1.4594 -0.1674 -1.1697
  963MOL0     H27083   3.654   3.856   2.072  0.5942  0.6727 -1.2982
  963MOL0     H27084   3.425   3.819   2.057 -1.5366 -2.1245 -3.8860
  963MOL0     H27085   3.466   3.729   2.201 -0.0981  2.4359  0.5156
  963MOL0     H27086   3.338   3.594   2.088  0.5076 -1.1039  0.0120
  963MOL0     H27087   3.486   3.518   2.040 -1.1447 -0.6933  0.3227
  963MOL0     H27088   3.329   3.721   1.882 -0.6889 -1.1747 -1.7946
  963MOL0     H27089   3.480   3.653   1.835 -1.7523  1.4470  0.3114
  963MOL0     H27090   3.387   3.423   1.860  0.2775  1.7020  0.0969
  963MOL0     H27091   3.314   3.499   1.717  1.5724 -1.2823 -0.1722
  963MOL0     H27092   3.116   3.553   1.796  2.5891 -0.1741 -2.4619
  963MOL0     H27093   3.160   3.521   1.971  1.7003  1.1762 -0.1415
  963MOL0     H27094   3.201   3.272   1.854 -2.3717 -3.3983  1.3985
  963MOL0     H27095   3.046   3.320   1.914  1.1794 -1.0916  1.2470
  963MOL0     H27096   3.052   3.201   1.688 -0.0212  0.3752  0.7267
  963MOL0     H27097   3.136   3.343   1.628 -0.5006  0.8474 -0.1387
  963MOL0     H27098   3.695   3.797   2.361  0.1745  1.0539  1.1619
  963MOL0     H27099   3.885   3.913   2.457  1.8178  1.7135  0.4500
  963MOL0     H27100   4.163   4.183   2.636 -0.9390 -0.0829 -0.0681
  963MOL0     H27101   4.374   4.250   2.741 -3.0655 -0.6295  0.9887
  963MOL0     H27102   6.246   5.131   2.380 -2.1461  0.6129  3.5845
  963MOL0     H27103   6.473   5.214   2.373  1.0203  0.4761 -1.2018
  963MOL0     H27104   6.760   5.587   2.622 -0.1283 -1.4054  1.3994
  963MOL0     H27105   7.009   5.613   2.628  0.9866 -0.8131  0.0464
  963MOL0     H27106   7.228   5.563   2.623 -0.4371  0.5808 -0.1289
  963MOL0     H27107   7.200   5.712   2.535  0.7736  0.9026  3.8277
  963MOL0     H27108   7.421   5.513   2.481 -0.4038 -0.3398 -1.0674
  963MOL0     H27109   7.405   5.665   2.393  2.6652 -2.7823 -0.9207
  963MOL0     H27110   7.475   5.618   2.693 -0.9032 -0.6034 -1.2475
  963MOL0     H27111   7.411   5.771   2.634 -3.0316 -1.3424 -0.2682
  963MOL0     H27112   7.661   5.738   2.668 -1.0070  1.0158 -0.6248
  963MOL0     H27113   7.656   5.632   2.520  0.6690  0.3282 -2.4012
  963MOL0     H27114   7.659   6.053   2.410  0.3018 -0.0196 -0.9293
  963MOL0     H27115   7.025   5.420   2.242 -1.4684 -0.3687 -2.2126
  963MOL0     H27116   6.784   5.387   2.240 -1.0785  1.0628  0.7320
  964MOL0     O27117   7.353  10.007   7.198 -0.4609 -0.3365  0.1781
  964MOL0     C27118   7.383  10.049   7.305  0.1151  1.0725 -0.1186
  964MOL0     O27119   7.308  10.114   7.397 -0.0913 -0.5945 -1.3464
  964MOL0     C27120   7.175  10.096   7.380  0.1487  0.5584  0.1631
  964MOL0     C27121   7.092  10.034   7.477 -0.7097  0.2885 -0.2871
  964MOL0     C27122   6.956  10.006   7.455  0.3824 -0.1347 -0.0671
  964MOL0     C27123   6.885  10.049   7.342  0.2105  0.5071  0.0101
  964MOL0     O27124   6.754  10.009   7.334  0.0043  0.3245  0.0108
  964MOL0     C27125   6.699   9.979   7.208 -0.1103 -0.4890  0.5964
  964MOL0     C27126   6.560   9.920   7.210 -0.3960 -0.2496 -0.1179
  964MOL0     C27127   6.457  10.026   7.242  0.5315  0.7713 -0.6190
  964MOL0     C27128   6.318   9.943   7.255 -0.5306 -0.4319 -0.5216
  964MOL0     C27129   6.195  10.035   7.271 -0.3781  0.6817  0.3914
  964MOL0     C27130   6.064   9.963   7.291 -0.1396 -0.3244  0.1678
  964MOL0     C27131   5.936  10.027   7.224  0.1550 -0.2735  0.2002
  964MOL0     C27132   5.918  10.158   7.301  0.4586  0.1922  0.7409
  964MOL0     N27133   5.844  10.155   7.426 -0.1813  0.6124  0.9033
  964MOL0     C27134   5.712  10.134   7.448 -0.2013 -0.4018  0.7575
  964MOL0     C27135   5.694  10.180   7.574 -0.1630 -0.5725  0.3925
  964MOL0     C27136   5.565  10.203   7.650 -1.5946  0.2922  0.0124
  964MOL0     C27137   5.538  10.345   7.686 -0.0087 -0.1035  1.3905
  964MOL0     C27138   5.397  10.366   7.742 -0.3001 -0.8603  0.1155
  964MOL0     C27139   5.373  10.319   7.882 -0.5382 -0.2300 -0.2428
  964MOL0     O27140   5.264  10.376   7.952 -0.2073 -0.2348 -0.1394
  964MOL0     C27141   5.175  10.293   8.024 -0.3041  1.4911  0.0834
  964MOL0     C27142   5.040  10.338   8.039  0.4254 -0.1044  0.0368
  964MOL0     C27143   4.964  10.287   8.147 -0.5695  1.3060  0.0248
  964MOL0     C27144   5.010  10.173   8.212  0.4519 -0.3784 -0.6380
  964MOL0     C27145   4.922  10.104   8.317 -0.1780  0.0425 -0.5997
  964MOL0     O27146   4.812  10.169   8.357  0.3099  0.0967  0.4299
  964MOL0     C27147   4.717  10.110   8.436  0.4306  0.1811 -0.0824
  964MOL0     C27148   4.706   9.971   8.480  1.1221 -0.5686 -0.5068
  964MOL0     C27149   4.602   9.928   8.566 -0.1255 -0.9554  0.1553
  964MOL0     C27150   4.517  10.019   8.617  0.6623  1.0611  0.4885
  964MOL0     O27151   4.411   9.966   8.688 -0.3685  0.3616  0.9254
  964MOL0     C27152   4.368  10.051   8.796 -0.8082 -0.6564 -0.1791
  964MOL0     C27153   4.271   9.992   8.895  0.0680 -0.5055  0.3040
  964MOL0     C27154   4.190  10.103   8.973 -0.5387 -0.5387  1.1901
  964MOL0     C27155   4.096  10.038   9.077  0.6165  0.2740 -0.3753
  964MOL0     C27156   4.052  10.126   9.197 -0.0922 -0.3139  0.4929
  964MOL0     C27157   3.955  10.072   9.296 -0.9642 -0.8511 -0.7222
  964MOL0     C27158   3.915  10.189   9.389  0.3317 -0.2011  0.1043
  964MOL0     C27159   3.811  10.151   9.496  0.7112 -0.8916 -0.1744
  964MOL0    Cl27160   3.740  10.305   9.562  0.1743 -0.1854  0.6809
  964MOL0     C27161   4.524  10.145   8.577 -0.3040  0.3482  0.0966
  964MOL0     C27162   4.614  10.193   8.485 -0.5429  0.8686  0.3366
  964MOL0     O27163   4.965  10.002   8.374 -0.5132 -0.3745  0.3313
  964MOL0     C27164   5.130  10.111   8.181  0.3405 -0.6718  0.4515
  964MOL0     C27165   5.222  10.173   8.091  0.0507 -0.4728 -0.1877
  964MOL0     N27166   5.817  10.228   7.624  0.4000  0.1993  0.5562
  964MOL0     N27167   5.906  10.215   7.533 -0.2198 -0.4689 -0.5920
  964MOL0     C27168   6.967  10.117   7.247  0.1882 -0.6574  0.6884
  964MOL0     C27169   7.107  10.150   7.272  0.1644 -0.5949 -0.3578
  964MOL0     C27170   7.525  10.044   7.348 -0.0861  0.7840 -0.2464
  964MOL0     C27171   7.558  10.018   7.480  0.0662  0.4743 -1.1873
  964MOL0     C27172   7.694  10.011   7.516  0.1308  0.0794  0.6634
  964MOL0     C27173   7.801  10.035   7.435  0.2071  0.2829  0.0110
  964MOL0     O27174   7.919  10.062   7.500  0.0926 -0.3216 -0.2252
  964MOL0     C27175   8.032  10.004   7.440  0.9722  0.3020 -0.0193
  964MOL0     C27176   8.146  10.031   7.522 -0.3999 -0.5812 -0.1386
  964MOL0     C27177   8.272   9.960   7.467 -0.4420 -0.1987 -0.3549
  964MOL0     C27178   8.292   9.823   7.522 -0.2299  0.6566  0.3934
  964MOL0     C27179   8.195   9.716   7.488  0.6338 -0.3188 -0.7525
  964MOL0     C27180   8.115   9.626   7.472 -0.0326  0.9624 -0.7860
  964MOL0     C27181   7.769  10.064   7.302 -0.0928  0.0107 -0.3032
  964MOL0     C27182   7.635  10.061   7.262 -0.4341 -0.0946  0.6967
  964MOL0     H27183   7.151   9.997   7.561 -3.1339 -3.1732  0.0946
  964MOL0     H27184   6.904   9.948   7.531  2.4140 -0.4214  1.1747
  964MOL0     H27185   6.776   9.910   7.173 -0.4916 -0.4249 -0.4133
  964MOL0     H27186   6.707  10.065   7.140  1.0657 -0.9295  0.1437
  964MOL0     H27187   6.555   9.849   7.293 -2.8847 -0.0651 -0.0297
  964MOL0     H27188   6.539   9.860   7.121 -3.4498  0.5619 -0.0712
  964MOL0     H27189   6.466  10.099   7.161  2.5310 -0.3924 -1.5288
  964MOL0     H27190   6.483  10.074   7.337  3.8066 -2.1171  0.1615
  964MOL0     H27191   6.305   9.883   7.165 -1.2705  1.1377 -1.4917
  964MOL0     H27192   6.322   9.873   7.339 -0.8939  0.2802  0.1026
  964MOL0     H27193   6.199  10.086   7.174  0.0465 -1.9237 -1.0600
  964MOL0     H27194   6.209  10.105   7.353  1.8102  0.6277  0.1350
  964MOL0     H27195   6.055   9.924   7.393 -0.3764  1.9853  1.1029
  964MOL0     H27196   6.086   9.880   7.224  1.6467 -0.2290  0.5722
  964MOL0     H27197   5.957  10.053   7.120  1.9364 -0.5111  0.4766
  964MOL0     H27198   5.845   9.967   7.229  0.4369 -0.7264 -0.0207
  964MOL0     H27199   5.864  10.211   7.222  0.7171 -0.4885  0.0897
  964MOL0     H27200   6.016  10.205   7.316  0.3034  0.0447  2.3738
  964MOL0     H27201   5.638  10.100   7.376  1.8026 -0.6838 -1.2840
  964MOL0     H27202   5.565  10.154   7.748  2.5542 -0.1291 -0.0176
  964MOL0     H27203   5.487  10.149   7.597 -0.7955 -3.3712  2.2228
  964MOL0     H27204   5.542  10.391   7.587  1.1410  0.0491  1.4914
  964MOL0     H27205   5.606  10.399   7.752 -0.8580  1.2037  1.2209
  964MOL0     H27206   5.381  10.474   7.753 -1.8016 -1.1850  1.6007
  964MOL0     H27207   5.312  10.335   7.680 -0.9701  1.7788 -0.4334
  964MOL0     H27208   5.462  10.341   7.942  2.2660 -1.7926 -3.5444
  964MOL0     H27209   5.356  10.211   7.875 -1.8034  0.0584 -2.7246
  964MOL0     H27210   5.010  10.427   7.985  1.0165  1.6012  2.3530
  964MOL0     H27211   4.866  10.320   8.180 -0.1515  1.2048  1.4373
  964MOL0     H27212   4.766   9.891   8.439  1.4913 -2.2105  2.9015
  964MOL0     H27213   4.600   9.821   8.581  1.2512 -0.9243  0.7544
  964MOL0     H27214   4.310  10.124   8.738  2.5198  0.4098 -2.4986
  964MOL0     H27215   4.456  10.097   8.841 -0.8673 -2.0997  1.5036
  964MOL0     H27216   4.324   9.923   8.962 -0.6525 -0.6688  0.7111
  964MOL0     H27217   4.201   9.936   8.832  1.2948 -1.7975  0.0038
  964MOL0     H27218   4.132  10.158   8.899  2.3706  1.2413  0.0930
  964MOL0     H27219   4.255  10.182   9.011  1.4527  0.1535 -3.1001
  964MOL0     H27220   4.004   9.994   9.037  0.5380  1.4504 -1.5554
  964MOL0     H27221   4.141   9.948   9.119  0.6032  0.4097 -0.0679
  964MOL0     H27222   4.011  10.220   9.160 -0.5842 -0.9174 -0.5375
  964MOL0     H27223   4.144  10.156   9.250 -1.8098  0.8849  3.0042
  964MOL0     H27224   3.982   9.982   9.352 -0.8459  0.3573  1.2530
  964MOL0     H27225   3.860  10.048   9.247 -2.3171 -0.4822  1.6001
  964MOL0     H27226   3.994  10.259   9.417 -0.2189  1.2918 -1.8496
  964MOL0     H27227   3.849  10.251   9.327  0.3968  1.1475  1.3299
  964MOL0     H27228   3.859  10.103   9.582 -2.6759 -0.1271  2.3625
  964MOL0     H27229   3.727  10.095   9.455  0.9672 -0.3325 -1.5197
  964MOL0     H27230   4.440  10.211   8.597 -1.3847 -0.6929 -0.8862
  964MOL0     H27231   4.614  10.294   8.445 -2.1154  0.8138  0.1280
  964MOL0     H27232   5.164  10.027   8.241  1.4121 -0.2291  0.4830
  964MOL0     H27233   5.325  10.141   8.081  0.5469  1.1823 -0.6245
  964MOL0     H27234   6.917  10.161   7.161  0.0343  0.7520  1.4712
  964MOL0     H27235   7.156  10.213   7.199 -0.7039  1.4482  0.7465
  964MOL0     H27236   7.478  10.000   7.551 -0.5998 -0.2865 -2.1023
  964MOL0     H27237   7.723   9.994   7.619  4.9576 -1.6777 -0.6714
  964MOL0     H27238   8.033  10.042   7.337 -2.5704 -0.1823 -0.3740
  964MOL0     H27239   8.019   9.897   7.421  0.4162  0.5609 -1.1796
  964MOL0     H27240   8.167  10.139   7.516 -0.1402 -0.5565  0.9138
  964MOL0     H27241   8.123  10.012   7.627 -2.5283  0.8358 -0.2964
  964MOL0     H27242   8.361  10.016   7.497 -2.5017  1.8403  2.4765
  964MOL0     H27243   8.267   9.970   7.358  0.2795 -1.0820 -0.4799
  964MOL0     H27244   8.387   9.783   7.484 -0.3195 -0.8491  1.6713
  964MOL0     H27245   8.293   9.819   7.631  1.2101 -0.6333  0.3646
  964MOL0     H27246   8.058   9.537   7.458 -0.1063  0.8773  0.0244
  964MOL0     H27247   7.845  10.095   7.231  0.3883  0.4929  0.4022
  964MOL0     H27248   7.595  10.082   7.164 -1.8283 -2.9326  0.5555
  965MOL0     O27249   7.974   0.065   1.369 -0.2992 -0.3879 -0.1905
  965MOL0     C27250   7.957  -0.010   1.468 -0.3260 -1.6484  0.7260
  965MOL0     O27251   7.846  -0.082   1.499  1.0706 -0.0212 -0.4656
  965MOL0     C27252   7.737  -0.071   1.417  0.4254  0.1899  0.6419
  965MOL0     C27253   7.737  -0.064   1.279 -0.6159 -0.1467  0.3309
  965MOL0     C27254   7.615  -0.064   1.209  0.0669  0.2828 -0.2199
  965MOL0     C27255   7.491  -0.071   1.271 -0.4424  0.2499 -0.1178
  965MOL0     O27256   7.372  -0.077   1.215  1.0795 -0.5659  0.1296
  965MOL0     C27257   7.353  -0.145   1.097 -0.4566  0.4652 -0.1332
  965MOL0     C27258   7.198  -0.141   1.070  0.0190  0.9753 -0.3093
  965MOL0     C27259   7.145  -0.234   0.951  0.1621 -0.0999 -0.4986
  965MOL0     C27260   7.007  -0.187   0.903  0.3497  0.1031  0.4017
  965MOL0     C27261   6.933  -0.277   0.800 -0.1489 -0.4316 -0.0128
  965MOL0     C27262   6.808  -0.328   0.868 -0.1812 -0.5149  0.0355
  965MOL0     C27263   6.849  -0.412   0.987 -0.0909  0.2898  0.0033
  965MOL0     C27264   6.731  -0.480   1.058 -0.2212 -0.5696  0.5550
  965MOL0     N27265   6.629  -0.379   1.095  0.1071  0.1147 -0.3867
  965MOL0     C27266   6.502  -0.378   1.066  0.1896  0.2941 -0.1028
  965MOL0     C27267   6.440  -0.279   1.127  0.1576 -0.4114  0.6601
  965MOL0     C27268   6.294  -0.247   1.110 -0.3878  0.1612 -0.1747
  965MOL0     C27269   6.191  -0.325   1.193  0.1061 -0.4455  0.6577
  965MOL0     C27270   6.215  -0.340   1.346 -0.2441  0.3026 -0.6769
  965MOL0     C27271   6.096  -0.419   1.410  0.5561  0.4571  0.9276
  965MOL0     O27272   5.973  -0.343   1.445 -0.4018  0.0068 -0.5101
  965MOL0     C27273   5.879  -0.377   1.542  0.3267  0.3338  0.7322
  965MOL0     C27274   5.757  -0.305   1.547  0.3968 -0.4382  0.0373
  965MOL0     C27275   5.654  -0.347   1.625  0.1437  0.3293 -0.3442
  965MOL0     C27276   5.669  -0.461   1.711  0.3035 -0.1021  0.6221
  965MOL0     C27277   5.553  -0.511   1.789 -1.7030  0.3151  0.7878
  965MOL0     O27278   5.579  -0.626   1.864 -0.0428  0.5565 -0.8086
  965MOL0     C27279   5.482  -0.650   1.959 -1.0909 -0.4693  0.1939
  965MOL0     C27280   5.404  -0.764   1.940 -0.4922 -0.4705  0.0678
  965MOL0     C27281   5.306  -0.797   2.035  0.0056 -0.1258 -0.1463
  965MOL0     C27282   5.302  -0.723   2.154  0.1244  0.3890 -0.6681
  965MOL0     O27283   5.223  -0.764   2.263 -0.2345  0.3274 -0.1733
  965MOL0     C27284   5.165  -0.898   2.261 -0.0491 -0.3234  0.2318
  965MOL0     C27285   5.127  -0.955   2.397 -0.1503  0.7394 -0.6030
  965MOL0     C27286   5.063  -1.093   2.397 -0.3906  0.2674 -0.2560
  965MOL0     C27287   5.038  -1.127   2.546 -0.1860  0.8825 -0.2811
  965MOL0     C27288   4.966  -1.257   2.542  0.8661  0.0986 -0.1466
  965MOL0     C27289   4.960  -1.317   2.687 -0.9479  0.2045  0.1697
  965MOL0     C27290   4.837  -1.412   2.711 -0.0498 -0.5770  0.1804
  965MOL0     C27291   4.818  -1.439   2.856 -0.0538  0.4978  0.5530
  965MOL0    Cl27292   4.963  -1.524   2.911  0.3162  0.3515 -0.4171
  965MOL0     C27293   5.371  -0.603   2.161  0.7381 -0.2081 -0.1998
  965MOL0     C27294   5.466  -0.564   2.070 -1.7105  0.6808  0.1137
  965MOL0     O27295   5.456  -0.439   1.793 -0.3997  0.2638  0.0551
  965MOL0     C27296   5.792  -0.532   1.703  0.6271 -0.4258  0.0181
  965MOL0     C27297   5.898  -0.493   1.624  0.5092  0.4997  0.1833
  965MOL0     N27298   6.536  -0.212   1.198 -0.1511  0.3132 -0.0876
  965MOL0     N27299   6.647  -0.270   1.176  0.0877  0.8920 -1.0379
  965MOL0     C27300   7.495  -0.059   1.409  0.7290 -0.4107  0.1935
  965MOL0     C27301   7.616  -0.065   1.477 -1.5716 -0.0442 -0.2587
  965MOL0     C27302   8.085  -0.022   1.548  0.4819 -0.5369  0.1019
  965MOL0     C27303   8.084  -0.121   1.645  0.0731  0.0216  1.1019
  965MOL0     C27304   8.203  -0.141   1.716 -0.0879  0.4150 -0.1565
  965MOL0     C27305   8.310  -0.059   1.694  1.0777  0.2178 -0.3841
  965MOL0     O27306   8.429  -0.076   1.770  0.4201  1.1476  0.7980
  965MOL0     C27307   8.492  -0.201   1.769 -0.6676  0.2256 -0.7764
  965MOL0     C27308   8.584  -0.206   1.648 -0.4923 -0.5828 -0.2917
  965MOL0     C27309   8.693  -0.090   1.657 -0.4540 -0.2524  0.2742
  965MOL0     C27310   8.796  -0.111   1.765 -0.4368 -0.1736 -0.5248
  965MOL0     C27311   8.879  -0.224   1.741  0.0721 -0.1368 -0.6240
  965MOL0     C27312   8.942  -0.321   1.714  0.2802 -0.4828  0.3459
  965MOL0     C27313   8.316   0.030   1.589  0.2995  0.3104  0.5627
  965MOL0     C27314   8.205   0.046   1.511  0.8654  0.9852 -0.5260
  965MOL0     H27315   7.828  -0.075   1.220 -2.1176 -0.3587 -2.0886
  965MOL0     H27316   7.614  -0.051   1.101 -2.6275 -1.0106 -0.4415
  965MOL0     H27317   7.390  -0.245   1.120 -0.6855  0.7228  1.4893
  965MOL0     H27318   7.402  -0.101   1.010  2.8107  1.6870  2.1221
  965MOL0     H27319   7.172  -0.042   1.034 -1.9330 -0.1403 -2.2101
  965MOL0     H27320   7.121  -0.160   1.146 -0.5676 -4.1766 -1.7744
  965MOL0     H27321   7.142  -0.340   0.982 -0.8494  0.1090  0.1698
  965MOL0     H27322   7.210  -0.227   0.864  0.6683 -2.3192 -0.3656
  965MOL0     H27323   6.950  -0.173   0.995 -3.1602  1.6263 -1.7859
  965MOL0     H27324   7.020  -0.086   0.863  4.5080  0.0518  1.2061
  965MOL0     H27325   7.001  -0.360   0.779  0.4360 -0.5752  2.1934
  965MOL0     H27326   6.914  -0.224   0.706 -2.1448 -0.6530  0.2190
  965MOL0     H27327   6.743  -0.380   0.797 -2.1754 -1.1723  2.2210
  965MOL0     H27328   6.750  -0.240   0.896 -0.2742 -0.3447 -0.6737
  965MOL0     H27329   6.920  -0.491   0.960 -0.7872 -0.3650  0.0446
  965MOL0     H27330   6.910  -0.351   1.054  3.5749  0.4106 -3.1423
  965MOL0     H27331   6.770  -0.522   1.151  0.7842 -2.5809 -0.6884
  965MOL0     H27332   6.690  -0.549   0.984  0.2920  0.0155 -0.2976
  965MOL0     H27333   6.455  -0.434   0.986  2.5676 -1.4877 -0.3789
  965MOL0     H27334   6.264  -0.261   1.006  0.8282 -0.5607 -0.4509
  965MOL0     H27335   6.281  -0.140   1.129  2.4951  0.3899  1.0884
  965MOL0     H27336   6.173  -0.420   1.141 -2.1206  0.9095 -1.2336
  965MOL0     H27337   6.095  -0.275   1.178 -0.1067 -1.5112 -1.9748
  965MOL0     H27338   6.308  -0.397   1.344  2.5515  4.4011 -0.0648
  965MOL0     H27339   6.234  -0.248   1.403 -0.2670 -1.2713  2.0070
  965MOL0     H27340   6.131  -0.475   1.497  1.8070  0.9832  0.7930
  965MOL0     H27341   6.070  -0.497   1.337 -0.6197  1.3180  0.4062
  965MOL0     H27342   5.742  -0.222   1.479 -2.2329 -0.0602  0.9563
  965MOL0     H27343   5.561  -0.292   1.637 -0.0134  0.2985 -1.3269
  965MOL0     H27344   5.420  -0.833   1.858  2.7666 -0.2428  0.3769
  965MOL0     H27345   5.255  -0.892   2.019  0.5746 -0.4455 -0.1017
  965MOL0     H27346   5.247  -0.957   2.219 -0.3330 -1.4638  1.2164
  965MOL0     H27347   5.076  -0.909   2.198 -0.6770 -0.2223  1.0921
  965MOL0     H27348   5.063  -0.882   2.448  1.2611  2.3273 -1.0124
  965MOL0     H27349   5.219  -0.961   2.456 -2.1298  2.2484  3.0039
  965MOL0     H27350   5.136  -1.164   2.356  0.9822  0.2773  1.9973
  965MOL0     H27351   4.973  -1.112   2.338  0.3827 -1.3955 -0.9606
  965MOL0     H27352   5.131  -1.133   2.604  0.5113  1.5033 -1.3028
  965MOL0     H27353   4.969  -1.058   2.596 -1.3468  0.2982 -1.0284
  965MOL0     H27354   5.022  -1.331   2.484  0.4756 -1.6227  1.5566
  965MOL0     H27355   4.863  -1.253   2.507  0.4175 -1.2896  0.9387
  965MOL0     H27356   4.961  -1.236   2.760  1.8610  1.1566 -0.7676
  965MOL0     H27357   5.051  -1.373   2.709  0.8802  2.7995 -0.2593
  965MOL0     H27358   4.739  -1.370   2.684  0.7194  0.2136 -1.5226
  965MOL0     H27359   4.853  -1.511   2.666 -0.3730 -2.0529  3.0381
  965MOL0     H27360   4.733  -1.502   2.883 -1.1670  1.1571 -1.1991
  965MOL0     H27361   4.807  -1.343   2.907 -1.4135 -0.0166  1.2717
  965MOL0     H27362   5.374  -0.534   2.245  0.7007  0.0183 -0.3837
  965MOL0     H27363   5.528  -0.477   2.086  0.9660 -0.9509 -0.6602
  965MOL0     H27364   5.792  -0.621   1.766 -1.2124 -1.0493 -0.7709
  965MOL0     H27365   5.998  -0.533   1.635  0.5409  0.4130 -0.3544
  965MOL0     H27366   7.399  -0.044   1.459  1.0929  2.4922  0.1952
  965MOL0     H27367   7.619  -0.060   1.586  0.4945  1.6800 -0.3329
  965MOL0     H27368   7.996  -0.184   1.653 -0.9575  0.7021 -2.8876
  965MOL0     H27369   8.210  -0.220   1.790 -1.4450 -3.3014 -3.6430
  965MOL0     H27370   8.426  -0.288   1.774 -0.8156  0.4098  1.1321
  965MOL0     H27371   8.556  -0.191   1.857  0.5956  1.8864 -1.8245
  965MOL0     H27372   8.623  -0.308   1.642  1.0128 -0.0072 -0.6646
  965MOL0     H27373   8.520  -0.192   1.560  1.5562 -0.5290 -1.8613
  965MOL0     H27374   8.644   0.004   1.683  1.3365  0.7252  0.2803
  965MOL0     H27375   8.739  -0.082   1.558 -4.4190 -0.2328 -1.7739
  965MOL0     H27376   8.864  -0.025   1.771 -1.3875  0.6612 -1.3166
  965MOL0     H27377   8.748  -0.125   1.863  3.1776 -1.8996  1.1966
  965MOL0     H27378   9.003  -0.405   1.688 -0.2122 -0.2500 -1.7706
  965MOL0     H27379   8.408   0.086   1.582  1.2856 -1.2696  0.5001
  965MOL0     H27380   8.197   0.123   1.435 -1.3617 -0.2501 -1.6221
  966MOL0     O27381   3.949   8.805   8.745  0.6772 -0.2327 -0.3356
  966MOL0     C27382   4.009   8.708   8.712 -0.7486  0.4506  0.2193
  966MOL0     O27383   3.981   8.616   8.611  0.2816 -0.4298 -0.0875
  966MOL0     C27384   3.857   8.621   8.550  0.0253  0.7868  0.0578
  966MOL0     C27385   3.764   8.519   8.582 -0.1092  0.2590  0.9409
  966MOL0     C27386   3.631   8.517   8.532 -0.2992  0.3902 -0.1451
  966MOL0     C27387   3.584   8.629   8.452 -0.3966 -0.2774  0.5451
  966MOL0     O27388   3.459   8.640   8.387 -0.0681 -0.1718 -0.8034
  966MOL0     C27389   3.392   8.510   8.372  0.0881  0.2416  0.1134
  966MOL0     C27390   3.298   8.475   8.484 -0.5844 -0.0510  0.3042
  966MOL0     C27391   3.204   8.592   8.496 -0.0871 -0.5680  0.6195
  966MOL0     C27392   3.089   8.565   8.597 -0.7351  0.0475 -0.5420
  966MOL0     C27393   3.008   8.693   8.635  0.4774  0.9993  0.3926
  966MOL0     C27394   2.952   8.767   8.511 -0.6947 -0.4610  0.0636
  966MOL0     C27395   2.918   8.915   8.555  0.3573 -0.1931 -0.4818
  966MOL0     C27396   2.895   9.002   8.428 -0.7779  0.3864 -0.7351
  966MOL0     N27397   2.763   8.969   8.371  0.9418 -0.5948 -0.4276
  966MOL0     C27398   2.645   9.028   8.420 -0.4370  0.4806 -0.2519
  966MOL0     C27399   2.553   8.982   8.329 -0.6807  0.5817 -0.8321
  966MOL0     C27400   2.405   9.015   8.326 -0.0585  0.1127 -0.7744
  966MOL0     C27401   2.334   8.914   8.415 -0.3140 -0.1258 -0.1821
  966MOL0     C27402   2.328   8.776   8.345  0.3440  0.7306 -0.3202
  966MOL0     C27403   2.227   8.676   8.409 -0.6658 -0.0194  0.3064
  966MOL0     O27404   2.118   8.735   8.470 -0.0942 -0.3834 -0.7589
  966MOL0     C27405   2.014   8.653   8.500 -0.1758  0.1592 -0.2590
  966MOL0     C27406   2.000   8.514   8.493  0.1304  0.0691  0.9598
  966MOL0     C27407   1.876   8.452   8.512  0.7930 -0.8404  0.7428
  966MOL0     C27408   1.763   8.527   8.544 -0.0861  0.5774  0.1032
  966MOL0     C27409   1.629   8.480   8.545 -0.6406 -0.4583 -0.1632
  966MOL0     O27410   1.533   8.570   8.573  0.1593 -0.1966 -0.5653
  966MOL0     C27411   1.398   8.528   8.554 -1.4322  0.5870  0.6498
  966MOL0     C27412   1.300   8.540   8.647  0.6727 -0.1617  0.0578
  966MOL0     C27413   1.164   8.506   8.615  0.0451 -0.5715 -0.0126
  966MOL0     C27414   1.132   8.452   8.489  0.4161 -0.8753 -1.2359
  966MOL0     O27415   1.004   8.414   8.445 -0.5278  0.5532 -0.5259
  966MOL0     C27416   0.886   8.492   8.464 -0.0063  0.3017  0.1613
  966MOL0     C27417   0.759   8.397   8.434  0.1121  0.0708 -0.3688
  966MOL0     C27418   0.626   8.466   8.489 -0.8693 -0.1855  0.2377
  966MOL0     C27419   0.496   8.398   8.425  0.4268 -0.2988 -0.1363
  966MOL0     C27420   0.378   8.488   8.438 -0.1448 -0.6951 -0.0282
  966MOL0     C27421   0.249   8.438   8.368 -0.2223 -0.0177 -1.0670
  966MOL0     C27422   0.120   8.532   8.405  0.1307  0.2136 -0.0028
  966MOL0     C27423  -0.003   8.449   8.379  0.8318  0.5199 -0.6301
  966MOL0    Cl27424  -0.138   8.548   8.352 -0.2559  0.3414 -0.1020
  966MOL0     C27425   1.237   8.424   8.403 -0.7064 -0.0752 -0.7071
  966MOL0     C27426   1.367   8.466   8.429 -0.2961 -0.2349 -0.1668
  966MOL0     O27427   1.614   8.358   8.530 -0.0305 -0.3811 -0.7458
  966MOL0     C27428   1.782   8.664   8.557  0.6326 -0.7522 -0.5365
  966MOL0     C27429   1.905   8.728   8.544  0.5592  0.7712 -0.0352
  966MOL0     N27430   2.610   8.912   8.233  0.8539 -0.6709  0.4375
  966MOL0     N27431   2.737   8.903   8.262  0.6430 -0.2660  0.0601
  966MOL0     C27432   3.677   8.731   8.422  0.0866  0.0402 -0.8409
  966MOL0     C27433   3.816   8.732   8.474  0.5378  0.7608  0.0433
  966MOL0     C27434   4.153   8.704   8.768  0.7469 -0.4875 -1.0941
  966MOL0     C27435   4.240   8.604   8.717  0.7155 -0.2347 -1.1163
  966MOL0     C27436   4.374   8.604   8.756  0.0741 -0.7304 -0.3414
  966MOL0     C27437   4.428   8.712   8.839  1.1229  0.7811 -0.5123
  966MOL0     O27438   4.558   8.717   8.878 -0.3317  0.4496 -0.1827
  966MOL0     C27439   4.661   8.632   8.819  0.3307  0.1596 -0.9124
  966MOL0     C27440   4.743   8.719   8.728 -0.2320 -0.2386  0.3883
  966MOL0     C27441   4.874   8.659   8.667 -0.2518  0.7444  0.4098
  966MOL0     C27442   4.976   8.756   8.616  0.4899  0.9780 -0.0795
  966MOL0     C27443   5.012   8.859   8.710  0.2212 -0.5134  0.8566
  966MOL0     C27444   5.042   8.957   8.782  0.9962 -0.2540  0.5066
  966MOL0     C27445   4.339   8.812   8.881 -0.9664 -0.1731 -0.2460
  966MOL0     C27446   4.204   8.803   8.849 -0.2838 -0.0149  0.4209
  966MOL0     H27447   3.800   8.449   8.656 -0.6201  0.7957  1.7120
  966MOL0     H27448   3.565   8.437   8.565  0.2911  0.4558  1.2857
  966MOL0     H27449   3.455   8.422   8.359  2.0909  1.8797 -2.2501
  966MOL0     H27450   3.325   8.520   8.286 -1.7846 -2.8989  1.0650
  966MOL0     H27451   3.349   8.442   8.575 -2.3489 -1.1542  0.9452
  966MOL0     H27452   3.246   8.389   8.440  0.9636 -1.3693  0.9290
  966MOL0     H27453   3.152   8.621   8.404 -0.0710  0.1020  0.8175
  966MOL0     H27454   3.261   8.675   8.538  0.5333 -0.7008  0.0513
  966MOL0     H27455   3.022   8.493   8.549  2.6518 -4.6405  0.9679
  966MOL0     H27456   3.129   8.503   8.678 -0.0452  1.1509 -0.0271
  966MOL0     H27457   3.076   8.759   8.689 -0.2662  0.3922  2.1355
  966MOL0     H27458   2.920   8.661   8.691  0.7207 -0.3089  0.0685
  966MOL0     H27459   2.865   8.706   8.486  0.4280 -2.3769  0.6110
  966MOL0     H27460   3.011   8.762   8.419 -1.4392  2.3774 -0.6786
  966MOL0     H27461   2.829   8.903   8.619  1.8207 -0.3805  1.6137
  966MOL0     H27462   2.987   8.963   8.625 -0.2120 -2.3916  1.7270
  966MOL0     H27463   2.978   8.997   8.357 -0.0876  3.7570 -0.3495
  966MOL0     H27464   2.904   9.106   8.461  1.5269 -0.2034  0.7370
  966MOL0     H27465   2.635   9.082   8.514 -2.8290  2.8814 -1.7515
  966MOL0     H27466   2.368   9.019   8.223 -1.9834 -0.7975 -0.1628
  966MOL0     H27467   2.393   9.122   8.348  1.3512  0.2993 -0.8036
  966MOL0     H27468   2.233   8.956   8.422  0.7334  2.5464  0.1412
  966MOL0     H27469   2.367   8.905   8.519 -2.3210 -0.8296  0.4521
  966MOL0     H27470   2.301   8.798   8.241 -2.2334  1.7548  0.4795
  966MOL0     H27471   2.427   8.732   8.358  0.7173  1.6458 -0.0003
  966MOL0     H27472   2.270   8.619   8.492 -1.1403  0.6552  1.0256
  966MOL0     H27473   2.211   8.598   8.334 -2.1984 -2.1737  2.6876
  966MOL0     H27474   2.084   8.455   8.457 -1.5870  0.2403 -4.0494
  966MOL0     H27475   1.862   8.348   8.485 -1.2427 -0.5227  0.4780
  966MOL0     H27476   1.331   8.573   8.746  0.6446 -2.7641  1.0188
  966MOL0     H27477   1.086   8.516   8.690  1.8060  0.1003  1.8292
  966MOL0     H27478   0.893   8.583   8.405 -0.0820 -0.9881 -1.9258
  966MOL0     H27479   0.876   8.527   8.567  3.3644 -2.9040  1.8477
  966MOL0     H27480   0.772   8.303   8.489 -1.2151  0.8091  1.3163
  966MOL0     H27481   0.756   8.372   8.328  2.9398 -0.4324 -0.3979
  966MOL0     H27482   0.631   8.573   8.463  0.8349 -0.4371 -0.5777
  966MOL0     H27483   0.634   8.454   8.597 -0.8435 -0.3525  0.2168
  966MOL0     H27484   0.514   8.384   8.318 -2.0602 -2.5067 -0.3908
  966MOL0     H27485   0.474   8.302   8.474  0.1168 -1.1240 -1.8188
  966MOL0     H27486   0.412   8.579   8.388 -1.1004  0.6410  1.6520
  966MOL0     H27487   0.355   8.509   8.542 -0.6895  0.2959 -0.3311
  966MOL0     H27488   0.224   8.344   8.417 -0.6353  0.5046 -0.2530
  966MOL0     H27489   0.265   8.429   8.260 -0.7026 -0.4491 -1.1044
  966MOL0     H27490   0.129   8.579   8.503  1.5353 -0.7377  0.3466
  966MOL0     H27491   0.117   8.611   8.329  0.9789  2.5972  2.2869
  966MOL0     H27492  -0.030   8.390   8.467  0.8553 -0.5078 -1.3034
  966MOL0     H27493   0.022   8.385   8.294  1.9554 -1.5575  1.1715
  966MOL0     H27494   1.219   8.385   8.303 -0.8527  0.7894 -1.0193
  966MOL0     H27495   1.437   8.452   8.347 -1.6441  0.9460 -1.5942
  966MOL0     H27496   1.703   8.737   8.572  1.1161 -0.5424  1.2534
  966MOL0     H27497   1.901   8.835   8.558  1.1648  0.8723 -0.6198
  966MOL0     H27498   3.644   8.818   8.366  3.1365  2.6885  1.1158
  966MOL0     H27499   3.886   8.812   8.453 -1.2574  2.1197 -1.1355
  966MOL0     H27500   4.217   8.529   8.643  3.1049 -0.3102 -1.8720
  966MOL0     H27501   4.437   8.521   8.724  3.4805  0.3689  2.8805
  966MOL0     H27502   4.622   8.541   8.771 -0.2269 -0.1857  0.1550
  966MOL0     H27503   4.726   8.604   8.902 -1.4838  1.8615  1.1858
  966MOL0     H27504   4.683   8.744   8.640  1.6280  2.0243 -0.3418
  966MOL0     H27505   4.751   8.820   8.769  1.1180 -0.5374  0.9256
  966MOL0     H27506   4.845   8.609   8.574  0.2009  2.2087 -0.5594
  966MOL0     H27507   4.924   8.576   8.716  0.1513 -0.4151 -1.8235
  966MOL0     H27508   5.068   8.698   8.599 -0.6009 -1.9325  2.6787
  966MOL0     H27509   4.937   8.796   8.523 -2.9788 -2.8579 -0.6124
  966MOL0     H27510   5.084   9.029   8.850  0.4641  0.1513  0.4075
  966MOL0     H27511   4.393   8.891   8.933  1.4364 -0.2886 -2.3196
  966MOL0     H27512   4.139   8.888   8.869 -1.3611 -0.7248  0.0187
  967MOL0     O27513   7.891   4.891   9.989  0.0265 -0.8660  0.1476
  967MOL0     C27514   7.883   4.873  10.107  0.2870 -0.1534 -0.2728
  967MOL0     O27515   7.775   4.895  10.175  0.7679  0.5768  0.0588
  967MOL0     C27516   7.657   4.863  10.119  0.0318 -0.2080  1.0281
  967MOL0     C27517   7.600   4.741  10.144  0.2210  0.8638 -0.1954
  967MOL0     C27518   7.469   4.704  10.092  0.2913  0.0458 -0.3913
  967MOL0     C27519   7.399   4.804  10.025  0.4329 -1.1828  0.8679
  967MOL0     O27520   7.282   4.767   9.969  0.1438 -0.3378  0.2855
  967MOL0     C27521   7.308   4.711   9.837  0.8274  0.0790 -0.1869
  967MOL0     C27522   7.354   4.555   9.839 -0.0271  0.2070 -0.1249
  967MOL0     C27523   7.313   4.481   9.709  0.2683 -0.0898 -0.3958
  967MOL0     C27524   7.421   4.385   9.662 -0.5219 -0.9565 -0.5063
  967MOL0     C27525   7.378   4.324   9.523 -0.5305 -0.6288 -0.2597
  967MOL0     C27526   7.496   4.255   9.446  0.5293 -0.0118 -0.1199
  967MOL0     C27527   7.591   4.351   9.379  0.3221 -0.4594  0.1012
  967MOL0     C27528   7.530   4.455   9.280  0.0046 -0.1745 -0.0497
  967MOL0     N27529   7.449   4.384   9.178  0.1756 -0.0324 -0.2323
  967MOL0     C27530   7.509   4.297   9.099 -1.1029  0.2588 -0.0692
  967MOL0     C27531   7.407   4.251   9.023 -0.3429  0.1399 -1.0210
  967MOL0     C27532   7.427   4.139   8.931 -0.3181  0.8277 -0.7717
  967MOL0     C27533   7.508   4.169   8.806  0.3084 -0.5296 -0.3949
  967MOL0     C27534   7.482   4.059   8.705 -0.4100 -0.2240 -0.6288
  967MOL0     C27535   7.544   4.089   8.577 -0.1240 -0.0734 -0.7840
  967MOL0     O27536   7.465   4.199   8.516  0.6011  1.1257 -0.3564
  967MOL0     C27537   7.476   4.232   8.386  0.7668 -0.6489 -0.3868
  967MOL0     C27538   7.569   4.170   8.301  0.4770  0.1524  0.5090
  967MOL0     C27539   7.577   4.204   8.166  0.1887 -0.3087 -0.2020
  967MOL0     C27540   7.519   4.326   8.116 -0.1517  0.4950 -0.2934
  967MOL0     C27541   7.533   4.355   7.968  0.1667 -0.0217  0.0501
  967MOL0     O27542   7.615   4.269   7.901  0.2277  0.0997 -0.2300
  967MOL0     C27543   7.631   4.282   7.766  0.0860  0.4768 -0.3886
  967MOL0     C27544   7.641   4.164   7.692  1.0817  0.1491  0.4871
  967MOL0     C27545   7.664   4.167   7.552  0.0080 -0.9873  0.7609
  967MOL0     C27546   7.694   4.286   7.482  0.5099 -0.3500  0.0872
  967MOL0     O27547   7.719   4.284   7.350  1.0850 -0.4333  0.8027
  967MOL0     C27548   7.836   4.352   7.311  0.5107  0.2141  0.0485
  967MOL0     C27549   7.825   4.371   7.162 -0.0860 -0.0916  0.4571
  967MOL0     C27550   7.935   4.470   7.110  0.1735  0.1343 -0.5760
  967MOL0     C27551   7.953   4.463   6.959 -0.0807  0.0757  0.0345
  967MOL0     C27552   8.085   4.528   6.919 -0.3927 -0.2118  0.2161
  967MOL0     C27553   8.126   4.527   6.771  0.6726  0.3398 -0.2920
  967MOL0     C27554   8.278   4.522   6.746  0.0926  0.7580 -0.2974
  967MOL0     C27555   8.359   4.650   6.763 -0.4255 -0.6683  1.0275
  967MOL0    Cl27556   8.329   4.718   6.929 -0.0826 -0.2161  0.4372
  967MOL0     C27557   7.678   4.404   7.565 -0.3900 -1.4012  0.3901
  967MOL0     C27558   7.653   4.400   7.702 -0.3306 -0.1273  0.4105
  967MOL0     O27559   7.468   4.437   7.919  0.3651 -0.3957  1.0160
  967MOL0     C27560   7.440   4.402   8.208 -0.7361 -0.3056 -0.4205
  967MOL0     C27561   7.409   4.349   8.334  0.3943  0.6474 -0.2723
  967MOL0     N27562   7.287   4.308   9.066 -0.4585 -0.2812  0.2318
  967MOL0     N27563   7.318   4.393   9.165 -0.4906  0.4619  0.0899
  967MOL0     C27564   7.447   4.935  10.024  0.5502 -0.3688 -0.0301
  967MOL0     C27565   7.576   4.960  10.071 -0.0447  0.7089  0.2113
  967MOL0     C27566   8.016   4.854  10.172 -0.1053 -0.0113 -0.3898
  967MOL0     C27567   8.130   4.804  10.113 -0.0967  0.1857  0.3346
  967MOL0     C27568   8.250   4.791  10.179 -0.3537 -0.6639 -0.1907
  967MOL0     C27569   8.263   4.833  10.310  0.1936 -0.3584 -0.4318
  967MOL0     O27570   8.386   4.843  10.378 -0.2880  0.1021  0.1239
  967MOL0     C27571   8.515   4.808  10.321 -0.4993 -0.8446 -0.6958
  967MOL0     C27572   8.532   4.671  10.340 -0.1587  0.4408 -0.2436
  967MOL0     C27573   8.655   4.628  10.267  0.5741  0.3588  0.5363
  967MOL0     C27574   8.679   4.479  10.290  0.5380  1.6226  0.9391
  967MOL0     C27575   8.799   4.430  10.212 -0.2509  0.1989 -0.7230
  967MOL0     C27576   8.900   4.387  10.158 -0.2171 -0.2639  0.7637
  967MOL0     C27577   8.156   4.893  10.361  0.5470  0.2028 -0.1493
  967MOL0     C27578   8.026   4.887  10.303 -0.6011 -0.4375 -0.7047
  967MOL0     H27579   7.661   4.674  10.204  0.8469  2.2686  0.8001
  967MOL0     H27580   7.414   4.612  10.112  0.9391 -0.6711 -1.7890
  967MOL0     H27581   7.392   4.762   9.787  2.2261  0.0878  2.0609
  967MOL0     H27582   7.214   4.721   9.782  0.5353  1.1054  0.4671
  967MOL0     H27583   7.308   4.514   9.929  0.5146  0.2486  0.1719
  967MOL0     H27584   7.461   4.558   9.860  0.0006 -1.2964  0.1018
  967MOL0     H27585   7.303   4.556   9.629  0.6991 -2.0669 -2.4208
  967MOL0     H27586   7.210   4.446   9.721 -0.6428  2.3170 -0.6257
  967MOL0     H27587   7.515   4.440   9.651 -1.5650  0.7986 -0.9406
  967MOL0     H27588   7.448   4.307   9.734  0.2151  1.2973  1.7801
  967MOL0     H27589   7.332   4.404   9.463  0.8280  0.4097  0.0221
  967MOL0     H27590   7.294   4.255   9.535 -1.9808  0.6178 -2.3855
  967MOL0     H27591   7.457   4.196   9.363  1.3761  1.2393 -1.4476
  967MOL0     H27592   7.541   4.187   9.519 -2.2896 -0.9867  0.8530
  967MOL0     H27593   7.635   4.412   9.458 -1.9317 -2.2427  2.9590
  967MOL0     H27594   7.673   4.297   9.332 -0.7835 -0.8459 -1.4406
  967MOL0     H27595   7.603   4.515   9.225 -2.4314 -1.3832 -5.2593
  967MOL0     H27596   7.470   4.513   9.352  2.7166 -1.0703  3.2071
  967MOL0     H27597   7.614   4.268   9.106 -1.3508 -0.2092  2.7830
  967MOL0     H27598   7.327   4.099   8.910 -0.4244  0.1949  0.8387
  967MOL0     H27599   7.473   4.056   8.984  0.2359  2.4637  1.4329
  967MOL0     H27600   7.614   4.166   8.831  0.0776 -0.4614  0.6258
  967MOL0     H27601   7.486   4.265   8.758 -1.0957 -0.6759 -0.0960
  967MOL0     H27602   7.540   3.979   8.752  2.1039  2.7215  1.7366
  967MOL0     H27603   7.378   4.026   8.702  0.2614 -2.9653  1.6284
  967MOL0     H27604   7.553   3.995   8.522 -1.9131 -0.4130 -0.5503
  967MOL0     H27605   7.641   4.132   8.604  0.1173 -0.4219 -1.0808
  967MOL0     H27606   7.642   4.097   8.334  0.4172  1.0293  2.7534
  967MOL0     H27607   7.635   4.135   8.105 -0.0272  0.2510 -1.0568
  967MOL0     H27608   7.645   4.065   7.735 -1.8026 -1.3916 -2.3398
  967MOL0     H27609   7.674   4.073   7.499  3.0095 -0.3129 -0.0796
  967MOL0     H27610   7.913   4.278   7.336 -0.1224 -0.8970 -1.1938
  967MOL0     H27611   7.847   4.446   7.366 -0.0879 -0.0748  0.6882
  967MOL0     H27612   7.725   4.408   7.138  0.5351  0.5448 -1.3703
  967MOL0     H27613   7.847   4.279   7.107 -2.1237  1.2071 -2.8755
  967MOL0     H27614   8.033   4.441   7.148 -0.0156 -0.9625 -0.8912
  967MOL0     H27615   7.904   4.571   7.140 -0.7324  0.0766 -1.2691
  967MOL0     H27616   7.946   4.359   6.926 -0.3404 -0.5232  1.8532
  967MOL0     H27617   7.871   4.523   6.917  0.7936  1.7177  0.5602
  967MOL0     H27618   8.172   4.484   6.969  0.4828 -1.7081 -2.3949
  967MOL0     H27619   8.089   4.634   6.946  0.4199  0.1424 -1.1999
  967MOL0     H27620   8.085   4.617   6.723 -1.6443 -1.2632 -1.5335
  967MOL0     H27621   8.080   4.439   6.725  1.8613  0.3230 -1.5126
  967MOL0     H27622   8.321   4.445   6.810 -0.8953 -1.4579 -2.1334
  967MOL0     H27623   8.290   4.471   6.649 -3.6734 -3.0272  0.9001
  967MOL0     H27624   8.313   4.712   6.685 -1.7090  0.1427  2.3516
  967MOL0     H27625   8.467   4.643   6.750 -0.3146  2.9620 -1.5360
  967MOL0     H27626   7.698   4.501   7.519  2.4243 -1.2433  1.7166
  967MOL0     H27627   7.665   4.487   7.766 -3.4236  0.7533 -0.0614
  967MOL0     H27628   7.386   4.490   8.175 -2.7006  0.5697  4.3516
  967MOL0     H27629   7.338   4.392   8.404 -0.1171  1.5440 -1.3032
  967MOL0     H27630   7.392   5.024   9.994 -0.9713 -0.2264  2.8348
  967MOL0     H27631   7.612   5.063  10.072  0.3161  0.6078 -0.8413
  967MOL0     H27632   8.129   4.777  10.008 -0.5352  1.1946  0.0704
  967MOL0     H27633   8.334   4.750  10.124  0.8010  2.0425 -0.5995
  967MOL0     H27634   8.586   4.873  10.372 -2.5316 -0.8265  2.3626
  967MOL0     H27635   8.518   4.829  10.214  3.3158 -0.9836 -0.7322
  967MOL0     H27636   8.535   4.643  10.445  0.4629 -0.5398 -0.5088
  967MOL0     H27637   8.452   4.615  10.292  2.5030 -2.2067 -1.9593
  967MOL0     H27638   8.740   4.689  10.301  0.5516  0.8913 -0.3330
  967MOL0     H27639   8.640   4.639  10.159 -2.8356 -0.6447  0.8012
  967MOL0     H27640   8.683   4.456  10.397 -2.7781 -1.0504  0.6270
  967MOL0     H27641   8.602   4.414  10.249  3.8072 -1.6766 -0.5672
  967MOL0     H27642   8.984   4.332  10.120 -0.0332  0.9418 -0.6290
  967MOL0     H27643   8.171   4.922  10.464  3.0406  0.2182 -0.4421
  967MOL0     H27644   7.938   4.917  10.358  0.2475  0.5798  0.1509
  968MOL0     O27645   5.498   5.100   9.474  0.4820  0.4497 -0.8875
  968MOL0     C27646   5.492   4.995   9.533 -0.5306 -0.8107  0.0974
  968MOL0     O27647   5.428   4.970   9.646  0.9247 -0.0269 -0.2712
  968MOL0     C27648   5.340   5.057   9.706  0.1879 -0.7414  0.3789
  968MOL0     C27649   5.299   5.021   9.841  0.0317 -0.8477  0.1689
  968MOL0     C27650   5.221   5.114   9.915 -1.1978  0.4078 -0.1293
  968MOL0     C27651   5.160   5.231   9.857  0.1507  1.2759 -0.0786
  968MOL0     O27652   5.083   5.310   9.930  0.4722  0.4335  0.0052
  968MOL0     C27653   4.947   5.302   9.901 -0.5805  0.0882  0.4230
  968MOL0     C27654   4.871   5.384  10.004  0.6394 -0.1316  0.5578
  968MOL0     C27655   4.906   5.351  10.149  0.5854 -0.4247 -0.9072
  968MOL0     C27656   4.783   5.384  10.249 -0.1558 -0.2613 -0.7935
  968MOL0     C27657   4.751   5.534  10.262  0.0244 -0.3354 -0.4265
  968MOL0     C27658   4.870   5.621  10.313 -0.2954 -0.5898  0.1411
  968MOL0     C27659   4.821   5.750  10.339 -0.1609 -0.9281  0.0392
  968MOL0     C27660   4.934   5.862  10.321  0.3008  0.0946  0.0863
  968MOL0     N27661   4.879   5.996  10.364 -0.0844 -0.1909 -0.2594
  968MOL0     C27662   4.763   6.047  10.312  0.5093  0.1523  0.0805
  968MOL0     C27663   4.738   6.154  10.397 -0.4506  0.0427  0.5132
  968MOL0     C27664   4.609   6.235  10.401  0.0081  0.6401 -0.6115
  968MOL0     C27665   4.509   6.159  10.488  0.7654  0.3217  0.8196
  968MOL0     C27666   4.507   6.215  10.629 -0.7711 -0.0382  0.0840
  968MOL0     C27667   4.376   6.154  10.703  0.2806  0.8620  0.7339
  968MOL0     O27668   4.251   6.201  10.642 -0.3851  0.5419  0.3790
  968MOL0     C27669   4.156   6.208  10.742  0.1352 -0.8855  0.0960
  968MOL0     C27670   4.144   6.108  10.837 -0.6906  0.9913  0.2537
  968MOL0     C27671   4.054   6.113  10.939  0.5197  0.5992  0.2691
  968MOL0     C27672   3.961   6.216  10.950  0.0492 -1.5613  0.9142
  968MOL0     C27673   3.858   6.220  11.060 -0.2582 -0.0737 -1.1743
  968MOL0     O27674   3.734   6.270  11.018 -1.0967  0.0624 -0.2375
  968MOL0     C27675   3.610   6.256  11.078 -0.4494  1.0292  0.4309
  968MOL0     C27676   3.581   6.157  11.181  0.8128 -0.1418  0.4391
  968MOL0     C27677   3.452   6.142  11.239  0.5487  0.3361 -0.0650
  968MOL0     C27678   3.353   6.223  11.194  1.4633  0.0746 -0.0678
  968MOL0     O27679   3.227   6.210  11.243 -0.5843  0.7829 -0.0514
  968MOL0     C27680   3.214   6.191  11.386 -0.3668 -0.0480  0.5649
  968MOL0     C27681   3.118   6.071  11.409 -0.8790  0.1239 -0.2652
  968MOL0     C27682   3.044   6.096  11.545 -0.9643 -0.6850  0.1198
  968MOL0     C27683   2.943   5.989  11.585  0.1470  0.3376 -0.7194
  968MOL0     C27684   2.881   6.020  11.721 -1.0030  0.0346  0.3158
  968MOL0     C27685   2.740   5.965  11.741  0.4413 -0.4454  0.4519
  968MOL0     C27686   2.682   5.984  11.889 -0.6226 -0.1912  0.0769
  968MOL0     C27687   2.536   5.945  11.891  0.5261  0.4655 -1.2866
  968MOL0    Cl27688   2.434   6.035  11.786  0.1186 -0.4094  0.3200
  968MOL0     C27689   3.380   6.320  11.092  0.0273  0.1055  0.3375
  968MOL0     C27690   3.504   6.333  11.037  0.1238 -0.2023 -0.6258
  968MOL0     O27691   3.884   6.168  11.171  0.0820  0.5537  0.0483
  968MOL0     C27692   3.962   6.315  10.845 -0.2704  0.7736  0.2196
  968MOL0     C27693   4.058   6.312  10.747 -0.5617 -0.1583 -0.5887
  968MOL0     N27694   4.846   6.171  10.482 -0.6281  0.4186  1.0023
  968MOL0     N27695   4.927   6.073  10.469  0.2603  0.2972 -0.0320
  968MOL0     C27696   5.200   5.273   9.723 -0.2710  0.0516 -1.1141
  968MOL0     C27697   5.294   5.180   9.662  0.2150  0.2687  0.9430
  968MOL0     C27698   5.540   4.878   9.458 -0.3695 -0.1946 -0.5462
  968MOL0     C27699   5.617   4.901   9.345 -0.0526  0.6414 -0.0099
  968MOL0     C27700   5.655   4.797   9.265  0.1980 -0.9835 -0.2286
  968MOL0     C27701   5.616   4.665   9.283  0.2808 -0.2038  0.1129
  968MOL0     O27702   5.652   4.567   9.196 -0.3306  0.3901  1.1559
  968MOL0     C27703   5.560   4.550   9.084  0.6829  0.4754 -0.1339
  968MOL0     C27704   5.523   4.408   9.099  0.8555 -0.7146  0.1846
  968MOL0     C27705   5.430   4.362   8.991  0.1375 -0.3439  0.5432
  968MOL0     C27706   5.502   4.332   8.862 -0.2315 -0.6251  0.1636
  968MOL0     C27707   5.417   4.316   8.744  0.2252 -0.2703  0.0762
  968MOL0     C27708   5.342   4.327   8.655  0.1366  0.0275  0.0845
  968MOL0     C27709   5.543   4.641   9.400  0.3163  0.2700  0.2649
  968MOL0     C27710   5.503   4.742   9.489 -0.4301  0.4409 -0.4042
  968MOL0     H27711   5.325   4.933   9.900  2.7183  0.4446  1.0618
  968MOL0     H27712   5.197   5.085  10.017  4.1721  0.2496  1.3682
  968MOL0     H27713   4.928   5.195   9.905  0.4195 -0.1130  0.0040
  968MOL0     H27714   4.918   5.335   9.801 -0.9510 -0.0382  0.4876
  968MOL0     H27715   4.766   5.360   9.985  0.9657  0.2941 -2.1457
  968MOL0     H27716   4.886   5.490   9.980  1.1997  0.6204  3.7181
  968MOL0     H27717   4.982   5.418  10.190 -3.5417  3.3512  1.4441
  968MOL0     H27718   4.927   5.243  10.155 -0.7722 -0.6712 -0.3048
  968MOL0     H27719   4.691   5.334  10.218 -1.8750  0.8355  2.1460
  968MOL0     H27720   4.800   5.326  10.340  0.0657 -1.1003 -1.3544
  968MOL0     H27721   4.663   5.532  10.327  0.6444 -4.2138  0.5877
  968MOL0     H27722   4.727   5.573  10.163  4.0993 -0.6794 -1.7669
  968MOL0     H27723   4.947   5.624  10.236  0.7712 -1.1313  1.1499
  968MOL0     H27724   4.919   5.589  10.406  0.0384  1.4543  0.7094
  968MOL0     H27725   4.738   5.767  10.271 -0.3341 -1.9530 -0.0152
  968MOL0     H27726   4.785   5.756  10.442 -3.1915  0.1370 -0.9792
  968MOL0     H27727   4.953   5.870  10.213 -2.6496  0.0775 -0.5426
  968MOL0     H27728   5.029   5.841  10.370 -0.1634  2.3396  2.1417
  968MOL0     H27729   4.702   6.010  10.230  0.7529 -1.9750  0.7939
  968MOL0     H27730   4.573   6.237  10.298  1.6282 -3.2270 -1.4394
  968MOL0     H27731   4.622   6.336  10.441  0.0336  1.6708 -3.0249
  968MOL0     H27732   4.525   6.051  10.496 -0.7559  0.1181  1.5733
  968MOL0     H27733   4.412   6.174  10.442 -0.2417  0.7557  2.9421
  968MOL0     H27734   4.597   6.165  10.666 -0.2890  0.6035 -0.2052
  968MOL0     H27735   4.503   6.323  10.644 -1.2831 -0.2634  1.7824
  968MOL0     H27736   4.385   6.192  10.805 -1.3528  3.0257  0.1529
  968MOL0     H27737   4.386   6.047  10.683  1.0537  1.3246 -1.7315
  968MOL0     H27738   4.204   6.018  10.822  1.2715  2.1879  0.6169
  968MOL0     H27739   4.048   6.031  11.009 -0.3355  0.7967  0.4416
  968MOL0     H27740   3.657   6.081  11.196 -0.4124 -1.5406 -0.1686
  968MOL0     H27741   3.435   6.058  11.306  0.9999 -1.6068 -2.2662
  968MOL0     H27742   3.176   6.286  11.424  1.9190  2.1551 -2.2424
  968MOL0     H27743   3.307   6.184  11.443 -0.1876  1.1381  0.4534
  968MOL0     H27744   3.171   5.975  11.409 -4.0803 -1.8244 -0.6189
  968MOL0     H27745   3.053   6.060  11.321  1.1674 -4.2458 -1.5139
  968MOL0     H27746   2.983   6.187  11.537 -0.6952 -0.6506 -2.8247
  968MOL0     H27747   3.121   6.111  11.620 -0.6069 -0.9675 -0.1890
  968MOL0     H27748   2.870   5.973  11.506  0.1110  0.3660 -0.6920
  968MOL0     H27749   2.991   5.891  11.589 -0.6718 -0.2087 -3.0741
  968MOL0     H27750   2.885   6.129  11.729  4.8777  0.3863 -1.9538
  968MOL0     H27751   2.950   5.990  11.801  0.1281 -1.5491 -1.1707
  968MOL0     H27752   2.739   5.865  11.696  0.5658 -0.3061  0.1396
  968MOL0     H27753   2.679   6.034  11.681  2.2242  1.9207  1.2136
  968MOL0     H27754   2.730   5.909  11.953 -2.0615  0.0208  1.4551
  968MOL0     H27755   2.702   6.086  11.922  2.1652 -0.0039 -1.8159
  968MOL0     H27756   2.498   5.953  11.993 -1.0897 -1.1885 -1.7046
  968MOL0     H27757   2.509   5.843  11.860  1.0997  0.0149 -0.3558
  968MOL0     H27758   3.303   6.389  11.059 -1.7090 -1.2130  1.4092
  968MOL0     H27759   3.516   6.408  10.959 -1.6887  1.6772  0.8027
  968MOL0     H27760   3.891   6.396  10.837 -0.6069  0.6819  1.8417
  968MOL0     H27761   4.059   6.393  10.675 -1.0658  0.7141  0.3507
  968MOL0     H27762   5.170   5.373   9.694  0.0702  0.8070  0.9487
  968MOL0     H27763   5.327   5.220   9.567 -1.7763  1.4065  0.6904
  968MOL0     H27764   5.655   5.000   9.319  1.0528  0.3858  0.5577
  968MOL0     H27765   5.732   4.817   9.190 -0.4817  1.1807 -0.4203
  968MOL0     H27766   5.602   4.582   8.988 -1.0516  0.2126 -1.0090
  968MOL0     H27767   5.476   4.619   9.095  1.2127  1.4135 -1.7755
  968MOL0     H27768   5.610   4.341   9.108  0.6215 -0.8131  2.2753
  968MOL0     H27769   5.477   4.405   9.199  0.8937 -0.6489  0.2044
  968MOL0     H27770   5.350   4.433   8.967  1.5376  1.0857 -0.0522
  968MOL0     H27771   5.389   4.266   9.023 -0.9327  0.2146  0.8904
  968MOL0     H27772   5.561   4.419   8.829 -2.8682  0.5369 -1.8746
  968MOL0     H27773   5.561   4.245   8.891 -1.5236 -1.6934 -0.3087
  968MOL0     H27774   5.267   4.334   8.578 -0.7456  1.3289  1.0342
  968MOL0     H27775   5.509   4.539   9.411 -1.3925  0.8472  0.6231
  968MOL0     H27776   5.438   4.723   9.574 -0.9561 -1.9708 -1.2725
  969MOL0     O27777  11.116  10.618   6.283 -0.0412  0.2161 -0.1940
  969MOL0     C27778  11.140  10.571   6.394 -1.2218  0.1144 -0.6798
  969MOL0     O27779  11.052  10.513   6.477  0.8999  0.2806  0.3101
  969MOL0     C27780  10.918  10.499   6.437 -0.8699  0.4149  0.2567
  969MOL0     C27781  10.852  10.404   6.509 -0.9126  0.8394 -0.3127
  969MOL0     C27782  10.717  10.385   6.496  0.8170  0.6467 -0.1856
  969MOL0     C27783  10.634  10.461   6.420 -0.2184  0.3242 -0.4060
  969MOL0     O27784  10.500  10.437   6.414  0.0537 -0.1382 -0.4427
  969MOL0     C27785  10.405  10.526   6.353  0.8284 -0.3266 -0.7124
  969MOL0     C27786  10.265  10.477   6.381 -0.2849 -0.0538  0.5909
  969MOL0     C27787  10.158  10.580   6.329 -0.1853  0.0933  0.5143
  969MOL0     C27788  10.021  10.521   6.368  0.1179 -0.3527 -0.2401
  969MOL0     C27789   9.901  10.632   6.345  1.3120 -0.5902  0.5745
  969MOL0     C27790   9.904  10.752   6.443  0.0490 -1.3705  0.0297
  969MOL0     C27791   9.786  10.848   6.432 -0.5900 -0.1525 -0.2021
  969MOL0     C27792   9.777  10.944   6.556  0.8064  0.7489  0.3320
  969MOL0     N27793   9.659  11.029   6.528  0.1456  0.4230 -0.6025
  969MOL0     C27794   9.533  10.999   6.592 -2.2887 -1.4233 -0.3963
  969MOL0     C27795   9.457  11.113   6.558 -0.3465  1.0259  0.3922
  969MOL0     C27796   9.311  11.118   6.615  0.5419  0.3463  0.5086
  969MOL0     C27797   9.222  11.036   6.520  0.1850  0.6388  0.4740
  969MOL0     C27798   9.099  11.119   6.488  0.2802 -0.2689 -0.7566
  969MOL0     C27799   8.992  11.053   6.397 -0.1139  0.5932 -0.7776
  969MOL0     O27800   8.887  10.992   6.470 -0.8283  0.2339 -0.3131
  969MOL0     C27801   8.778  10.941   6.400  0.7452  0.5554  0.9067
  969MOL0     C27802   8.653  10.914   6.468 -0.0370  0.0369  0.0768
  969MOL0     C27803   8.547  10.849   6.410 -0.0885  0.0630 -0.0647
  969MOL0     C27804   8.557  10.798   6.274 -0.3194 -0.2692  0.6500
  969MOL0     C27805   8.447  10.713   6.213  0.7187 -0.2800 -0.1994
  969MOL0     O27806   8.331  10.692   6.285 -0.0266  0.2126 -0.4698
  969MOL0     C27807   8.230  10.605   6.241  0.6770 -0.7877  0.0352
  969MOL0     C27808   8.213  10.541   6.118 -0.2659  0.9254 -0.3905
  969MOL0     C27809   8.102  10.480   6.081 -0.7199  0.4012  0.9338
  969MOL0     C27810   7.996  10.462   6.171  1.3828  0.7033  0.0208
  969MOL0     O27811   7.873  10.400   6.138 -0.0726 -0.1340  0.3766
  969MOL0     C27812   7.839  10.400   6.003 -0.2702  0.2618  0.1213
  969MOL0     C27813   7.697  10.346   5.993  0.7166 -0.2428 -0.6076
  969MOL0     C27814   7.639  10.375   5.848 -0.1010 -0.8154  0.2676
  969MOL0     C27815   7.504  10.323   5.833  0.0007 -0.1171 -0.1989
  969MOL0     C27816   7.450  10.331   5.685  0.0601  0.1929  0.5179
  969MOL0     C27817   7.535  10.258   5.580 -1.0930  0.5258  0.0293
  969MOL0     C27818   7.450  10.226   5.450 -0.2234 -0.5421 -0.2068
  969MOL0     C27819   7.525  10.170   5.334  0.1840  0.8032 -0.2272
  969MOL0    Cl27820   7.619  10.018   5.398 -0.3019  0.0682  0.2391
  969MOL0     C27821   8.010  10.521   6.299 -0.0292 -1.1731 -0.2858
  969MOL0     C27822   8.127  10.600   6.327  0.0523  0.8410  0.4976
  969MOL0     O27823   8.472  10.673   6.097  0.0988 -0.0830 -0.3141
  969MOL0     C27824   8.676  10.831   6.208  0.2390 -0.5583 -0.4172
  969MOL0     C27825   8.782  10.903   6.263  0.1746 -0.2488 -0.4065
  969MOL0     N27826   9.531  11.200   6.481 -0.0524 -1.1224  0.2323
  969MOL0     N27827   9.649  11.149   6.461 -0.6758 -0.4145  1.5315
  969MOL0     C27828  10.701  10.551   6.335 -0.0306 -0.6930 -0.8924
  969MOL0     C27829  10.838  10.578   6.350 -0.2125  0.2732 -0.4041
  969MOL0     C27830  11.284  10.573   6.436  1.2684 -0.0725 -0.1921
  969MOL0     C27831  11.385  10.576   6.337 -0.6802 -0.2225 -1.2828
  969MOL0     C27832  11.525  10.593   6.367  0.6679  0.1763  0.5220
  969MOL0     C27833  11.565  10.591   6.502 -0.3140  0.6323 -0.3504
  969MOL0     O27834  11.695  10.591   6.546 -0.0891  0.3006 -0.2856
  969MOL0     C27835  11.789  10.545   6.454  0.0726 -0.2639 -1.7141
  969MOL0     C27836  11.902  10.500   6.534  0.6489  0.4916  0.2586
  969MOL0     C27837  12.020  10.440   6.452  0.3799 -0.1092 -0.8628
  969MOL0     C27838  12.137  10.386   6.539 -0.3544 -0.3853  0.9405
  969MOL0     C27839  12.212  10.491   6.607 -0.2798 -0.0908  0.8003
  969MOL0     C27840  12.288  10.577   6.652  0.1212  0.1351  0.1900
  969MOL0     C27841  11.463  10.598   6.599 -0.0168  0.3773 -0.3873
  969MOL0     C27842  11.323  10.586   6.568  0.2651  0.3694 -0.6940
  969MOL0     H27843  10.921  10.345   6.568 -0.9212  1.8236  0.7055
  969MOL0     H27844  10.677  10.299   6.547  1.4831 -0.5678 -1.6358
  969MOL0     H27845  10.411  10.530   6.243 -2.5465  0.6186 -0.9755
  969MOL0     H27846  10.418  10.625   6.396 -0.7275 -0.5675  0.3959
  969MOL0     H27847  10.246  10.460   6.488  1.5157  2.7691  1.4790
  969MOL0     H27848  10.255  10.389   6.318 -1.0729  1.6416 -1.7953
  969MOL0     H27849  10.167  10.601   6.222  0.2538 -2.7070 -0.0585
  969MOL0     H27850  10.181  10.677   6.376 -2.9504  0.1605  1.9453
  969MOL0     H27851  10.005  10.430   6.311  0.1374 -1.5909  1.6439
  969MOL0     H27852  10.011  10.473   6.466  1.4537  1.0577  0.6473
  969MOL0     H27853   9.804  10.585   6.364  1.0182  0.8572  3.2326
  969MOL0     H27854   9.893  10.669   6.243  0.4350  2.4994  1.6416
  969MOL0     H27855  10.001  10.801   6.433 -0.8757  0.6405  0.4608
  969MOL0     H27856   9.891  10.710   6.544  0.4464 -5.2037 -1.3386
  969MOL0     H27857   9.800  10.903   6.339 -1.2200  0.3072 -0.0288
  969MOL0     H27858   9.696  10.787   6.424 -0.8975  0.2519  0.1829
  969MOL0     H27859   9.877  10.988   6.561  1.9024 -1.5347 -0.5780
  969MOL0     H27860   9.765  10.891   6.651  1.2794 -1.1937 -0.6545
  969MOL0     H27861   9.516  10.916   6.660  0.7024 -0.3351  1.9360
  969MOL0     H27862   9.287  11.225   6.618 -1.1274  0.1058 -1.6887
  969MOL0     H27863   9.313  11.072   6.715  1.9044 -0.6389  0.0624
  969MOL0     H27864   9.186  10.944   6.566  1.1477  1.4203  2.9576
  969MOL0     H27865   9.275  11.008   6.428 -0.1570  0.0502  0.4522
  969MOL0     H27866   9.043  11.131   6.581 -1.4720 -2.4895 -1.4222
  969MOL0     H27867   9.123  11.216   6.443 -0.1501  0.7977  1.2171
  969MOL0     H27868   9.042  10.981   6.332  1.0355  0.2894  0.3999
  969MOL0     H27869   8.963  11.139   6.335  1.6301  1.3499 -0.5944
  969MOL0     H27870   8.626  10.948   6.568 -0.8067 -2.4334  0.7850
  969MOL0     H27871   8.455  10.843   6.468 -0.4178  3.6427  0.0185
  969MOL0     H27872   8.298  10.542   6.050  0.7486  0.9410  0.8498
  969MOL0     H27873   8.089  10.445   5.979 -0.3439 -0.3651  1.1430
  969MOL0     H27874   7.901  10.331   5.945 -1.0787  0.5305 -1.1072
  969MOL0     H27875   7.848  10.501   5.963 -0.1382  0.9027  1.6995
  969MOL0     H27876   7.633  10.413   6.051 -0.1556 -0.3602 -1.4141
  969MOL0     H27877   7.683  10.241   6.017  0.0655  0.0493  0.3686
  969MOL0     H27878   7.706  10.319   5.782  1.5891 -0.2272  1.4208
  969MOL0     H27879   7.646  10.483   5.832 -1.0554 -0.7408  0.2734
  969MOL0     H27880   7.510  10.216   5.858 -0.4002  0.2173  1.4265
  969MOL0     H27881   7.436  10.372   5.903 -0.1761  0.3276 -0.6808
  969MOL0     H27882   7.429  10.427   5.638 -0.7366 -2.1029 -4.3907
  969MOL0     H27883   7.351  10.287   5.693 -0.2416  1.0251  1.6135
  969MOL0     H27884   7.578  10.165   5.618  0.5101  1.6401  1.0666
  969MOL0     H27885   7.620  10.321   5.551 -1.2441 -0.4709 -2.9573
  969MOL0     H27886   7.369  10.158   5.477 -0.9347  1.1752  2.4054
  969MOL0     H27887   7.408  10.319   5.410  2.3204 -0.1110 -2.1292
  969MOL0     H27888   7.595  10.238   5.285  0.1011 -0.8025 -2.8000
  969MOL0     H27889   7.447  10.138   5.264 -0.5749  0.5362  0.7257
  969MOL0     H27890   7.926  10.534   6.367 -0.0396 -0.9166 -0.3435
  969MOL0     H27891   8.139  10.652   6.422  2.1368  1.7537 -0.1987
  969MOL0     H27892   8.697  10.805   6.104 -0.3062 -0.8987 -0.4452
  969MOL0     H27893   8.865  10.933   6.200 -0.7769 -2.2346 -2.7665
  969MOL0     H27894  10.643  10.601   6.258  2.3527 -0.0232 -2.3628
  969MOL0     H27895  10.876  10.657   6.285 -3.7649  0.3628 -2.6829
  969MOL0     H27896  11.360  10.556   6.233 -1.8110 -1.9073 -0.7424
  969MOL0     H27897  11.592  10.583   6.282  1.3958 -1.1077  1.1998
  969MOL0     H27898  11.817  10.621   6.380 -1.9650 -1.2538 -3.6476
  969MOL0     H27899  11.748  10.462   6.395  0.7423 -1.4284 -0.5836
  969MOL0     H27900  11.938  10.592   6.580 -2.8321  0.9729  2.3463
  969MOL0     H27901  11.863  10.430   6.608 -2.8036  1.1967 -0.7110
  969MOL0     H27902  12.060  10.517   6.385  0.4866 -1.6928 -2.6921
  969MOL0     H27903  11.983  10.367   6.379  0.9965  1.1214 -2.4533
  969MOL0     H27904  12.108  10.303   6.603  1.7140 -0.8590  1.3192
  969MOL0     H27905  12.203  10.342   6.463 -0.8378 -0.7411  0.7135
  969MOL0     H27906  12.344  10.661   6.688 -0.3412  2.0090 -3.0867
  969MOL0     H27907  11.489  10.609   6.704  2.5619 -1.1163 -0.7894
  969MOL0     H27908  11.254  10.577   6.651 -0.7898  0.3555 -1.5496
  970MOL0     O27909   5.709   9.081   7.060  0.2314 -0.6330 -1.1461
  970MOL0     C27910   5.706   9.166   7.149 -0.0239 -0.9766 -0.2149
  970MOL0     O27911   5.607   9.200   7.233 -0.4048  0.0686  0.4615
  970MOL0     C27912   5.505   9.112   7.254  0.3240  1.1134  0.2878
  970MOL0     C27913   5.521   8.974   7.271  0.4673 -0.2259 -0.0479
  970MOL0     C27914   5.422   8.890   7.327  0.1398 -0.1023  0.5602
  970MOL0     C27915   5.289   8.939   7.332 -0.3237  0.3240  0.6559
  970MOL0     O27916   5.187   8.864   7.369 -0.4086  0.5159  0.5400
  970MOL0     C27917   5.109   8.814   7.259  0.5050 -0.8371 -0.1573
  970MOL0     C27918   5.160   8.681   7.220  0.3452  0.4564 -0.6009
  970MOL0     C27919   5.161   8.587   7.331  0.2446  1.0976 -1.1789
  970MOL0     C27920   5.195   8.443   7.268  0.5621  0.5095 -0.5078
  970MOL0     C27921   5.233   8.341   7.382 -0.8883 -0.6359 -0.1449
  970MOL0     C27922   5.123   8.313   7.483  0.1225  0.7302 -1.1982
  970MOL0     C27923   5.152   8.192   7.578  0.5208 -0.2818  0.1004
  970MOL0     C27924   5.286   8.204   7.648  0.5219 -0.6734 -0.4844
  970MOL0     N27925   5.293   8.329   7.723  0.6693 -0.7798 -0.4256
  970MOL0     C27926   5.379   8.431   7.686 -0.0841  0.2730  0.1754
  970MOL0     C27927   5.375   8.513   7.798  0.5842  1.0538  0.1389
  970MOL0     C27928   5.463   8.633   7.805 -0.1167  0.0554 -0.0682
  970MOL0     C27929   5.466   8.711   7.669 -0.4894  0.5312  0.7237
  970MOL0     C27930   5.551   8.836   7.665  0.0893 -1.2085  0.2696
  970MOL0     C27931   5.703   8.799   7.665 -0.1951 -0.4791 -0.4135
  970MOL0     O27932   5.748   8.795   7.529  0.2579  0.4576 -0.8575
  970MOL0     C27933   5.885   8.797   7.506 -0.2135 -0.4711  0.1731
  970MOL0     C27934   5.989   8.756   7.599  0.1393  0.6477  0.1292
  970MOL0     C27935   6.129   8.776   7.573  0.5376  0.7429 -0.0563
  970MOL0     C27936   6.172   8.830   7.452  0.8775 -0.4080 -0.0694
  970MOL0     C27937   6.314   8.826   7.417  0.0893  0.0035 -0.2789
  970MOL0     O27938   6.396   8.770   7.514  0.4899 -0.1630 -0.4391
  970MOL0     C27939   6.531   8.763   7.517 -0.1410 -0.0856 -0.4968
  970MOL0     C27940   6.623   8.819   7.421 -0.6235  0.1887 -0.2574
  970MOL0     C27941   6.765   8.802   7.444  0.0484 -0.2493 -0.1095
  970MOL0     C27942   6.815   8.741   7.562  1.0487  0.6989 -0.0998
  970MOL0     O27943   6.943   8.723   7.582 -0.7416  0.0622  0.3392
  970MOL0     C27944   7.035   8.778   7.488  0.1957  0.3460 -0.4741
  970MOL0     C27945   7.172   8.775   7.557  0.3054 -0.4380  0.0496
  970MOL0     C27946   7.280   8.771   7.457  0.1454  0.4099 -0.7995
  970MOL0     C27947   7.409   8.823   7.517 -0.4000 -0.3467  0.2583
  970MOL0     C27948   7.526   8.846   7.412  0.3924  0.2996 -0.3777
  970MOL0     C27949   7.660   8.877   7.475  0.5245  0.5825 -0.1669
  970MOL0     C27950   7.777   8.840   7.390  0.6440  0.1121  0.8406
  970MOL0     C27951   7.768   8.898   7.250  0.5196 -0.6473 -0.3589
  970MOL0    Cl27952   7.886   8.814   7.151 -0.2539  0.0825 -0.1391
  970MOL0     C27953   6.715   8.686   7.650 -0.6133 -0.3984 -0.7402
  970MOL0     C27954   6.578   8.691   7.635  0.7482  0.2272 -0.8831
  970MOL0     O27955   6.353   8.865   7.308  0.4534  0.0128  0.0135
  970MOL0     C27956   6.075   8.872   7.363  0.1092  0.3176  0.2233
  970MOL0     C27957   5.932   8.860   7.386  0.0466  0.0335  0.1378
  970MOL0     N27958   5.291   8.466   7.894 -0.1355  0.6227 -0.6773
  970MOL0     N27959   5.243   8.349   7.848 -0.2286 -0.0580  0.1152
  970MOL0     C27960   5.273   9.069   7.323  0.1136 -0.3902  0.5772
  970MOL0     C27961   5.373   9.158   7.280  0.1069  0.2493 -0.2466
  970MOL0     C27962   5.821   9.248   7.159 -0.7477 -0.8166 -0.0283
  970MOL0     C27963   5.956   9.211   7.127  0.7505  0.2259  0.6401
  970MOL0     C27964   6.062   9.291   7.144  0.0089  0.7039 -0.0956
  970MOL0     C27965   6.049   9.422   7.183  0.1379  0.6025  0.8206
  970MOL0     O27966   6.154   9.501   7.207  0.7523  0.1413 -0.4018
  970MOL0     C27967   6.286   9.479   7.153  0.1202 -0.1658  0.5390
  970MOL0     C27968   6.301   9.555   7.019 -0.4038 -0.9290 -0.0754
  970MOL0     C27969   6.455   9.545   6.979 -0.2951  0.2205 -0.6907
  970MOL0     C27970   6.483   9.608   6.845  0.0239 -0.3523 -0.2374
  970MOL0     C27971   6.483   9.752   6.825  0.0151  0.6447  0.6480
  970MOL0     C27972   6.487   9.868   6.799 -0.1875 -0.0631 -0.6413
  970MOL0     C27973   5.924   9.460   7.226 -0.5698 -0.3648  0.0288
  970MOL0     C27974   5.806   9.378   7.209  0.5920 -0.1648 -0.0633
  970MOL0     H27975   5.619   8.938   7.242  1.6000  0.9454  2.0728
  970MOL0     H27976   5.447   8.788   7.352  1.0625 -0.2936 -0.9587
  970MOL0     H27977   5.112   8.890   7.180 -0.7472  1.6305  1.9911
  970MOL0     H27978   5.002   8.806   7.281 -0.2138  2.4315 -1.8275
  970MOL0     H27979   5.265   8.693   7.193  0.5832  1.8005  0.8035
  970MOL0     H27980   5.085   8.640   7.151  0.2207  1.1150 -0.8654
  970MOL0     H27981   5.066   8.582   7.386  2.0079  3.7201  2.5209
  970MOL0     H27982   5.232   8.621   7.408 -1.0499  2.2384 -0.4364
  970MOL0     H27983   5.106   8.411   7.214 -0.0967  1.1292  0.2014
  970MOL0     H27984   5.277   8.443   7.194  0.7672 -4.9283 -0.6642
  970MOL0     H27985   5.328   8.374   7.427 -2.0097  0.9981  1.1234
  970MOL0     H27986   5.262   8.251   7.327  0.3142  0.7755 -1.9509
  970MOL0     H27987   5.034   8.293   7.423 -1.4556 -1.6222  1.7012
  970MOL0     H27988   5.101   8.393   7.553 -0.0399 -1.1058  0.9506
  970MOL0     H27989   5.074   8.196   7.655  1.8226 -1.7196  1.5745
  970MOL0     H27990   5.136   8.092   7.536 -1.6494  1.3764 -3.5865
  970MOL0     H27991   5.363   8.200   7.571 -0.7199 -0.8804 -1.7605
  970MOL0     H27992   5.303   8.109   7.699  3.0099  0.2902  0.6613
  970MOL0     H27993   5.436   8.439   7.594  0.3495  0.1184  0.4318
  970MOL0     H27994   5.555   8.598   7.854  0.5873  1.3580 -0.3978
  970MOL0     H27995   5.408   8.697   7.875 -1.0594  0.0368 -0.7886
  970MOL0     H27996   5.368   8.754   7.647  1.1614  4.0362 -0.4960
  970MOL0     H27997   5.499   8.653   7.582 -0.6787  1.1511  0.2279
  970MOL0     H27998   5.521   8.901   7.583 -0.4419 -1.1251  0.5293
  970MOL0     H27999   5.541   8.891   7.759  2.9440  0.9434 -0.5536
  970MOL0     H28000   5.731   8.702   7.707  1.4830 -0.4466 -1.3540
  970MOL0     H28001   5.755   8.884   7.710  1.7070 -1.1712 -1.2121
  970MOL0     H28002   5.964   8.727   7.700  1.7568  0.6335  0.5440
  970MOL0     H28003   6.193   8.745   7.656 -1.0664 -1.1537  0.5410
  970MOL0     H28004   6.586   8.861   7.328  0.2150  1.0809 -0.1975
  970MOL0     H28005   6.820   8.818   7.352  1.4938 -1.3983  0.5067
  970MOL0     H28006   7.020   8.881   7.454 -0.9883 -0.1314 -1.4886
  970MOL0     H28007   7.043   8.712   7.401  1.7434 -1.2919  0.8242
  970MOL0     H28008   7.177   8.699   7.635  0.6307 -0.9444 -0.4522
  970MOL0     H28009   7.184   8.875   7.599  1.3544  0.8711 -3.0763
  970MOL0     H28010   7.242   8.820   7.366 -2.0752 -0.8026 -0.5900
  970MOL0     H28011   7.301   8.665   7.438  1.1409 -0.3112  3.4443
  970MOL0     H28012   7.395   8.920   7.566 -0.5357 -0.3306  0.1880
  970MOL0     H28013   7.433   8.755   7.600 -1.7418  2.4982  3.2245
  970MOL0     H28014   7.511   8.927   7.341  1.7762 -1.0800 -2.3409
  970MOL0     H28015   7.542   8.753   7.356  1.7596 -0.7631  1.6529
  970MOL0     H28016   7.679   8.831   7.573  0.6525  2.0676  0.5289
  970MOL0     H28017   7.668   8.985   7.484 -1.3716  0.8753 -1.5763
  970MOL0     H28018   7.872   8.874   7.432  1.2531 -0.4729 -0.0491
  970MOL0     H28019   7.771   8.731   7.380  3.6730  0.0061 -0.8707
  970MOL0     H28020   7.798   9.003   7.239  0.4127 -0.7762 -2.3995
  970MOL0     H28021   7.673   8.897   7.196 -0.6747  1.5863  1.5274
  970MOL0     H28022   6.745   8.621   7.731 -0.9320  0.3856  0.0193
  970MOL0     H28023   6.513   8.655   7.714 -0.7000 -0.0600 -2.1775
  970MOL0     H28024   6.091   8.919   7.266  2.5914  0.6423  0.7228
  970MOL0     H28025   5.864   8.902   7.313  1.2501  0.0557 -1.0060
  970MOL0     H28026   5.180   9.118   7.351 -0.1896 -1.7416  2.0982
  970MOL0     H28027   5.354   9.263   7.262  0.5754  0.9689  2.8423
  970MOL0     H28028   5.969   9.117   7.075  1.2525  0.0258  1.1271
  970MOL0     H28029   6.159   9.253   7.111 -1.3977 -3.4077 -0.0088
  970MOL0     H28030   6.309   9.374   7.136 -2.7783 -0.7212 -0.4090
  970MOL0     H28031   6.356   9.530   7.220 -0.7393  3.2388 -0.9323
  970MOL0     H28032   6.237   9.515   6.940 -0.9593 -0.3180  0.0540
  970MOL0     H28033   6.282   9.659   7.045 -1.4642 -1.2753  0.5978
  970MOL0     H28034   6.486   9.440   6.967  1.5944  0.8334 -1.7375
  970MOL0     H28035   6.522   9.595   7.049  1.1536 -1.2494 -0.9491
  970MOL0     H28036   6.584   9.580   6.813  1.6006  1.5388  2.6858
  970MOL0     H28037   6.409   9.565   6.776  0.6078  1.1314 -1.8770
  970MOL0     H28038   6.499   9.970   6.766  1.2215 -0.5228 -1.6706
  970MOL0     H28039   5.901   9.546   7.289 -1.4321 -0.0797 -0.6665
  970MOL0     H28040   5.704   9.412   7.222  1.4635  3.1577 -0.9343
  971MOL0     O28041   3.095   0.734   9.620 -0.9419  0.4190 -0.4691
  971MOL0     C28042   3.048   0.693   9.513 -0.5599 -0.5987  0.1788
  971MOL0     O28043   3.108   0.682   9.391  0.4956 -0.5131  0.2784
  971MOL0     C28044   3.244   0.689   9.387 -0.9215  0.2387  0.5404
  971MOL0     C28045   3.317   0.578   9.364  0.0412  0.2509 -0.0939
  971MOL0     C28046   3.459   0.585   9.373 -0.9872 -0.0224  0.0448
  971MOL0     C28047   3.528   0.711   9.395  0.5245  0.6547  0.4019
  971MOL0     O28048   3.667   0.694   9.389  0.0201 -0.3375 -0.0584
  971MOL0     C28049   3.732   0.816   9.410  0.4774 -0.1238  0.0167
  971MOL0     C28050   3.866   0.812   9.345 -0.1699 -0.0133 -0.2564
  971MOL0     C28051   3.960   0.728   9.439 -0.7073  0.2986  0.2391
  971MOL0     C28052   4.100   0.722   9.377 -0.3325 -0.1228  0.2170
  971MOL0     C28053   4.198   0.632   9.455  0.3758  1.0200  0.2144
  971MOL0     C28054   4.337   0.640   9.404  0.6778  0.7150 -0.7415
  971MOL0     C28055   4.428   0.557   9.490  0.0642  0.7377  1.2191
  971MOL0     C28056   4.579   0.616   9.512  0.0904  0.6591 -0.0127
  971MOL0     N28057   4.645   0.631   9.384 -0.7245 -1.1150 -0.1171
  971MOL0     C28058   4.674   0.752   9.334  0.7324  0.9823  0.8366
  971MOL0     C28059   4.748   0.719   9.234  0.4210  0.1424  0.2996
  971MOL0     C28060   4.822   0.806   9.153 -0.3150 -0.5431  0.5131
  971MOL0     C28061   4.973   0.805   9.180  0.5187  0.4602  0.4891
  971MOL0     C28062   5.006   0.823   9.326 -0.2879  0.5662  0.4188
  971MOL0     C28063   5.152   0.801   9.343 -0.5051  0.1394  0.4045
  971MOL0     O28064   5.224   0.927   9.323  0.1752 -0.5217 -0.2108
  971MOL0     C28065   5.357   0.930   9.356 -0.6027 -0.5720 -0.1403
  971MOL0     C28066   5.436   0.821   9.396 -0.3993  0.0363 -0.3590
  971MOL0     C28067   5.566   0.836   9.438  0.1826 -0.3319 -0.3509
  971MOL0     C28068   5.631   0.964   9.426 -0.2897 -0.0066 -0.1855
  971MOL0     C28069   5.773   0.973   9.455 -0.4554 -0.1051  0.3178
  971MOL0     O28070   5.834   0.882   9.538 -0.9872  0.0998  0.2005
  971MOL0     C28071   5.963   0.894   9.551 -0.6905 -0.4678  0.0130
  971MOL0     C28072   6.059   0.905   9.446 -0.2388  0.1245  0.5025
  971MOL0     C28073   6.201   0.903   9.470 -0.7203  0.5139  0.6603
  971MOL0     C28074   6.240   0.904   9.605 -0.3907  0.0926  0.0345
  971MOL0     O28075   6.377   0.917   9.640 -0.5561 -0.2883  0.5199
  971MOL0     C28076   6.486   0.892   9.548 -1.4161 -0.5847 -0.6559
  971MOL0     C28077   6.614   0.926   9.626 -0.9363 -0.6181 -0.3003
  971MOL0     C28078   6.740   0.918   9.538  0.8485  0.6518  0.6967
  971MOL0     C28079   6.876   0.960   9.607 -0.0887 -0.4372  0.2667
  971MOL0     C28080   6.985   0.950   9.505  0.2105  0.4168  0.6557
  971MOL0     C28081   7.119   0.966   9.574 -0.6517  1.1148 -0.2479
  971MOL0     C28082   7.229   0.937   9.478 -0.4975 -0.7076 -0.5403
  971MOL0     C28083   7.363   1.011   9.509  0.1772  0.0335  0.6787
  971MOL0    Cl28084   7.476   0.992   9.381 -0.1363  0.0015 -0.5018
  971MOL0     C28085   6.146   0.906   9.711  0.4633 -0.7734 -0.5176
  971MOL0     C28086   6.009   0.914   9.679 -0.1835 -0.3254 -0.0973
  971MOL0     O28087   5.830   1.074   9.409 -0.6937 -0.0114  0.0652
  971MOL0     C28088   5.558   1.075   9.387  1.2766  0.4189 -0.4188
  971MOL0     C28089   5.423   1.058   9.359 -0.5016  0.4541  0.0324
  971MOL0     N28090   4.760   0.584   9.216  0.7734 -0.8589 -0.0992
  971MOL0     N28091   4.697   0.533   9.313  0.3125  0.5382 -0.1682
  971MOL0     C28092   3.447   0.823   9.414  0.8074 -0.5834 -0.4521
  971MOL0     C28093   3.306   0.812   9.411 -0.4837  0.3122  0.6316
  971MOL0     C28094   2.906   0.661   9.526  1.2437 -1.4419 -0.1284
  971MOL0     C28095   2.816   0.729   9.618 -0.6775 -0.8020  0.8759
  971MOL0     C28096   2.680   0.689   9.628  0.4146 -1.1453 -0.1610
  971MOL0     C28097   2.630   0.581   9.554  0.0092 -0.6787  0.7105
  971MOL0     O28098   2.513   0.516   9.576 -0.6027 -1.1363  0.2608
  971MOL0     C28099   2.433   0.529   9.695 -1.2470  0.2758 -0.4503
  971MOL0     C28100   2.337   0.639   9.672 -0.7198 -0.9461 -0.6265
  971MOL0     C28101   2.257   0.674   9.804 -0.3086  0.3311 -0.0991
  971MOL0     C28102   2.150   0.563   9.827  0.1183 -0.4199  0.0589
  971MOL0     C28103   2.072   0.609   9.939  0.8910  0.1529  0.2471
  971MOL0     C28104   2.016   0.642  10.048  0.1493 -0.1448  0.2198
  971MOL0     C28105   2.721   0.521   9.455  0.6011 -0.0901 -0.4658
  971MOL0     C28106   2.846   0.566   9.443  0.6633  0.3926  0.8686
  971MOL0     H28107   3.274   0.480   9.343  0.8965 -0.2715  0.5408
  971MOL0     H28108   3.518   0.495   9.358 -0.8932  0.0128  0.1942
  971MOL0     H28109   3.737   0.841   9.517 -2.7529  0.8666  0.0387
  971MOL0     H28110   3.678   0.894   9.356 -1.0382  0.4416  2.1717
  971MOL0     H28111   3.887   0.919   9.344 -1.9184  0.3764  0.5506
  971MOL0     H28112   3.876   0.775   9.243  0.7858 -0.0053 -0.1768
  971MOL0     H28113   3.922   0.626   9.442 -2.2947  0.8901  1.5123
  971MOL0     H28114   3.964   0.764   9.542  0.0073  0.0889  0.2937
  971MOL0     H28115   4.090   0.671   9.281  0.0242  0.9524 -0.4126
  971MOL0     H28116   4.137   0.823   9.356 -1.4342 -0.2864 -3.2348
  971MOL0     H28117   4.172   0.526   9.459  1.9982  0.6215  0.8164
  971MOL0     H28118   4.204   0.664   9.559 -2.6360 -1.0147  1.1624
  971MOL0     H28119   4.365   0.745   9.413 -0.9303  1.0207  1.4915
  971MOL0     H28120   4.349   0.601   9.303 -2.0513 -4.1020  0.4951
  971MOL0     H28121   4.383   0.540   9.589 -0.9764  0.5739  0.7303
  971MOL0     H28122   4.454   0.455   9.460  2.1499  1.2656  1.0417
  971MOL0     H28123   4.632   0.539   9.568  0.5043  0.0164 -1.2536
  971MOL0     H28124   4.577   0.707   9.573 -1.3541 -0.3380  1.5112
  971MOL0     H28125   4.646   0.850   9.371 -1.5037  0.7156 -0.0484
  971MOL0     H28126   4.783   0.908   9.161 -0.1423 -0.3926 -0.4502
  971MOL0     H28127   4.809   0.763   9.053 -0.9062  2.8655 -1.0397
  971MOL0     H28128   5.014   0.880   9.111 -1.2438 -0.4221 -1.6347
  971MOL0     H28129   5.011   0.708   9.147 -2.4351 -0.8144  0.5394
  971MOL0     H28130   4.993   0.923   9.368  4.2546  2.1635 -1.3190
  971MOL0     H28131   4.958   0.741   9.380  2.3484 -1.9118 -0.7139
  971MOL0     H28132   5.196   0.729   9.273 -1.1383 -0.9896  1.1287
  971MOL0     H28133   5.174   0.760   9.442  0.8029 -2.1150 -0.7249
  971MOL0     H28134   5.388   0.725   9.411  1.3401 -0.5430  2.0275
  971MOL0     H28135   5.617   0.744   9.462 -1.8309 -1.0980  1.2810
  971MOL0     H28136   6.027   0.910   9.342 -1.4898  1.3742  0.9135
  971MOL0     H28137   6.266   0.920   9.385  0.4172  0.0918  1.4143
  971MOL0     H28138   6.472   0.955   9.460 -1.4082  0.1308 -0.1589
  971MOL0     H28139   6.494   0.789   9.511 -0.9123 -0.3996 -1.0765
  971MOL0     H28140   6.631   0.845   9.699 -3.0040 -1.8274 -1.0790
  971MOL0     H28141   6.612   1.020   9.681  1.1393 -0.6277 -0.1182
  971MOL0     H28142   6.719   0.979   9.449 -1.4015 -0.2488  0.5385
  971MOL0     H28143   6.744   0.817   9.496  1.0399  0.1091  1.9527
  971MOL0     H28144   6.876   1.061   9.650  2.3024  0.8376 -2.3450
  971MOL0     H28145   6.911   0.885   9.679  2.5185 -1.8535 -2.2997
  971MOL0     H28146   6.976   1.025   9.426  0.2310 -1.1738 -0.9457
  971MOL0     H28147   6.982   0.850   9.460  1.3890  0.9792 -0.7350
  971MOL0     H28148   7.132   0.894   9.655 -1.5364  0.6771 -0.4863
  971MOL0     H28149   7.121   1.064   9.622  0.2702  0.1464  1.8190
  971MOL0     H28150   7.239   0.828   9.480  3.8451 -0.4936  0.1360
  971MOL0     H28151   7.197   0.961   9.377 -0.0416  3.6292  0.1710
  971MOL0     H28152   7.413   0.970   9.597  2.6018 -0.7014 -0.9624
  971MOL0     H28153   7.337   1.117   9.515 -3.2321 -0.4176 -2.6648
  971MOL0     H28154   6.181   0.885   9.812 -0.3963  2.4572  0.5825
  971MOL0     H28155   5.939   0.913   9.762 -2.5780  5.1207 -1.6175
  971MOL0     H28156   5.600   1.175   9.383 -0.5710  1.2899  0.6286
  971MOL0     H28157   5.365   1.147   9.337 -1.2364 -0.8690 -4.2912
  971MOL0     H28158   3.493   0.921   9.424 -1.6219  0.5317  0.7825
  971MOL0     H28159   3.241   0.899   9.409  1.3389  1.7934  1.7641
  971MOL0     H28160   2.851   0.813   9.677  1.8206  0.9452 -2.7218
  971MOL0     H28161   2.621   0.746   9.699 -2.0453 -0.9402 -2.2193
  971MOL0     H28162   2.494   0.537   9.786 -3.9014 -1.4112  1.6532
  971MOL0     H28163   2.370   0.441   9.710 -1.6722  0.3677 -1.6430
  971MOL0     H28164   2.397   0.729   9.657 -1.0564  0.4473  4.3628
  971MOL0     H28165   2.279   0.621   9.581 -2.8988  1.6427  0.0943
  971MOL0     H28166   2.212   0.773   9.790 -2.9767 -0.5243  1.6216
  971MOL0     H28167   2.318   0.666   9.894 -0.7764 -0.7145  0.1337
  971MOL0     H28168   2.086   0.560   9.739  1.9238 -1.7960 -1.3039
  971MOL0     H28169   2.198   0.469   9.856  0.3486 -0.7111 -1.2295
  971MOL0     H28170   1.973   0.687  10.136 -0.2953  1.0428 -0.5631
  971MOL0     H28171   2.695   0.437   9.391  2.0269 -1.3053  0.4784
  971MOL0     H28172   2.901   0.514   9.365 -2.9138 -0.7407 -1.1059
  972MOL0     O28173   6.742   0.928  10.127  0.1446 -0.3452 -0.3056
  972MOL0     C28174   6.841   1.001  10.113 -0.3772 -0.4951 -0.4520
  972MOL0     O28175   6.835   1.134  10.092 -0.0499  0.1611 -0.0217
  972MOL0     C28176   6.711   1.198  10.080  0.7347  0.4240  0.4754
  972MOL0     C28177   6.619   1.152   9.980 -0.1538  0.2302 -0.3347
  972MOL0     C28178   6.488   1.199   9.979  0.9056  0.1318  0.5692
  972MOL0     C28179   6.449   1.296  10.067  1.5135  0.0649 -1.1266
  972MOL0     O28180   6.322   1.346  10.043 -0.3697 -0.2239 -0.4286
  972MOL0     C28181   6.291   1.487  10.085  0.0492  0.2659 -0.0153
  972MOL0     C28182   6.143   1.523  10.063 -0.7746  0.5020  0.2634
  972MOL0     C28183   6.049   1.414  10.116  0.7724 -0.0624  0.3605
  972MOL0     C28184   5.899   1.450  10.131 -0.8113 -0.9869  0.7007
  972MOL0     C28185   5.826   1.330  10.193 -0.5604 -0.2039  0.4424
  972MOL0     C28186   5.685   1.289  10.138  0.2468 -0.1153  0.2532
  972MOL0     C28187   5.574   1.402  10.113 -0.2462  1.4604 -0.4502
  972MOL0     C28188   5.447   1.349  10.048 -0.1983  0.0041 -0.0854
  972MOL0     N28189   5.360   1.255  10.121 -0.9453  0.0776 -0.2198
  972MOL0     C28190   5.306   1.289  10.239  0.1669 -0.2035  0.5748
  972MOL0     C28191   5.234   1.181  10.272  0.5084  0.5009  0.2930
  972MOL0     C28192   5.140   1.182  10.381 -0.5881  0.6139 -0.7602
  972MOL0     C28193   4.994   1.179  10.334 -0.2097 -0.3705 -0.3681
  972MOL0     C28194   4.923   1.197  10.473  0.5529 -0.5342 -0.6897
  972MOL0     C28195   4.775   1.174  10.471 -0.1639 -0.1918  0.4164
  972MOL0     O28196   4.724   1.266  10.373 -0.1133 -0.0375 -0.3414
  972MOL0     C28197   4.604   1.318  10.402 -0.1302  0.1171  0.3669
  972MOL0     C28198   4.575   1.439  10.455 -0.4113  0.3049  0.5002
  972MOL0     C28199   4.441   1.473  10.489  0.0253  0.7372 -0.5221
  972MOL0     C28200   4.340   1.381  10.457 -0.0186  0.5466  0.4925
  972MOL0     C28201   4.202   1.415  10.507  0.4488  0.4507  0.7957
  972MOL0     O28202   4.127   1.304  10.544  0.4117  0.1510  0.0216
  972MOL0     C28203   4.007   1.316  10.598  0.5484 -0.0402 -0.0813
  972MOL0     C28204   3.897   1.332  10.511  0.5753 -0.4901 -0.0442
  972MOL0     C28205   3.766   1.341  10.553 -0.7959  0.1601 -0.9165
  972MOL0     C28206   3.739   1.326  10.690 -0.3963  0.2370  0.0995
  972MOL0     O28207   3.618   1.338  10.749  0.0026  0.2278 -0.5331
  972MOL0     C28208   3.567   1.466  10.723  0.0141  0.4459  0.6867
  972MOL0     C28209   3.433   1.492  10.804 -0.2323 -0.5817  0.2609
  972MOL0     C28210   3.328   1.384  10.769  0.5534 -0.0588  0.2471
  972MOL0     C28211   3.199   1.392  10.850 -0.1879 -0.0074  0.3414
  972MOL0     C28212   3.206   1.293  10.975 -0.5443 -0.3710  0.3872
  972MOL0     C28213   3.096   1.315  11.079 -0.1817 -0.0265  0.1205
  972MOL0     C28214   3.078   1.188  11.164 -1.2191 -0.5095  0.5258
  972MOL0     C28215   2.959   1.195  11.262 -0.3151 -0.0416  1.2234
  972MOL0    Cl28216   2.990   1.320  11.374 -0.3096  0.1188 -0.1963
  972MOL0     C28217   3.843   1.290  10.771  0.2322  0.3278 -0.3386
  972MOL0     C28218   3.972   1.281  10.726 -0.0589 -0.7848 -0.0695
  972MOL0     O28219   4.169   1.535  10.514  0.8695  0.9277 -0.6907
  972MOL0     C28220   4.369   1.258  10.400 -0.8529  0.1614 -0.3431
  972MOL0     C28221   4.498   1.227  10.379 -0.8177 -0.5318 -0.0014
  972MOL0     N28222   5.252   1.081  10.182  0.0304 -0.0193 -0.4736
  972MOL0     N28223   5.331   1.124  10.087  0.3694 -0.4464  0.4043
  972MOL0     C28224   6.534   1.329  10.169  0.3793  0.3187  0.0487
  972MOL0     C28225   6.665   1.296  10.165 -0.2031  0.8943 -0.5581
  972MOL0     C28226   6.970   0.932  10.118 -0.2383 -1.0819 -0.1317
  972MOL0     C28227   7.092   1.001  10.083  0.2198 -0.4640 -0.6638
  972MOL0     C28228   7.211   0.936  10.086  0.0971 -0.4172 -0.6300
  972MOL0     C28229   7.223   0.804  10.121  0.4876 -0.3348 -0.8164
  972MOL0     O28230   7.353   0.760  10.115 -0.2851  0.2679  0.3946
  972MOL0     C28231   7.367   0.614  10.114 -0.5432  1.3397  0.5030
  972MOL0     C28232   7.510   0.567  10.161 -0.0438  0.0799 -0.1491
  972MOL0     C28233   7.615   0.610  10.061 -0.4479 -0.0431  0.5491
  972MOL0     C28234   7.760   0.575  10.086  0.1314  0.0770  0.8411
  972MOL0     C28235   7.788   0.429  10.125 -0.6185  0.3272 -0.1333
  972MOL0     C28236   7.805   0.305  10.131  0.4995  0.3368  0.3584
  972MOL0     C28237   7.102   0.737  10.154  0.6734  0.5069  0.6157
  972MOL0     C28238   6.982   0.800  10.156  0.9249  0.9432 -0.0826
  972MOL0     H28239   6.650   1.080   9.906  2.2785  0.2579  0.5650
  972MOL0     H28240   6.424   1.164   9.899  2.4303  2.3361 -1.7603
  972MOL0     H28241   6.347   1.561  10.026 -0.8097  0.9323 -0.0150
  972MOL0     H28242   6.308   1.494  10.193 -0.2961 -0.0045  0.0566
  972MOL0     H28243   6.131   1.528   9.954  1.0333  0.4521  0.0277
  972MOL0     H28244   6.117   1.617  10.112  2.2397  2.4289 -1.5396
  972MOL0     H28245   6.090   1.382  10.212  1.2735 -0.4331  0.0252
  972MOL0     H28246   6.058   1.329  10.047 -2.6420 -1.6319  1.6271
  972MOL0     H28247   5.888   1.542  10.187  2.2399  0.3365 -0.6145
  972MOL0     H28248   5.867   1.469  10.028  2.6327 -0.7274 -0.4806
  972MOL0     H28249   5.824   1.339  10.302 -0.4981  1.0489  0.3523
  972MOL0     H28250   5.895   1.245  10.181 -1.5020 -1.0189  0.6811
  972MOL0     H28251   5.649   1.221  10.215  2.3183 -2.6181 -0.8662
  972MOL0     H28252   5.703   1.247  10.039  1.4497  3.0192 -0.9929
  972MOL0     H28253   5.543   1.435  10.213  0.1295  0.4516  0.0128
  972MOL0     H28254   5.608   1.493  10.064 -0.9645  1.8107 -0.3116
  972MOL0     H28255   5.478   1.300   9.954  1.7585  0.5186  0.2387
  972MOL0     H28256   5.376   1.425  10.014 -2.5688 -2.9544 -2.3653
  972MOL0     H28257   5.316   1.383  10.293 -1.2461  1.5566 -2.0390
  972MOL0     H28258   5.154   1.273  10.440 -1.8838 -0.4287  1.2952
  972MOL0     H28259   5.162   1.099  10.449 -1.5227 -0.5443 -1.8200
  972MOL0     H28260   4.961   1.084  10.291 -0.2365  0.3411 -1.9765
  972MOL0     H28261   4.966   1.256  10.262 -1.2069 -1.7151 -1.4835
  972MOL0     H28262   4.973   1.123  10.535  0.5529  0.7860  0.9488
  972MOL0     H28263   4.944   1.290  10.526 -0.1351 -2.0375  2.4867
  972MOL0     H28264   4.726   1.179  10.568 -0.2780  0.1363  0.3425
  972MOL0     H28265   4.763   1.074  10.427 -0.8975  0.0638  0.0321
  972MOL0     H28266   4.659   1.498  10.490  0.7844 -1.2503  0.3157
  972MOL0     H28267   4.431   1.564  10.547  2.1339  0.1342  0.8923
  972MOL0     H28268   3.918   1.344  10.406  3.5860  0.1907  0.5529
  972MOL0     H28269   3.685   1.365  10.485 -0.1432  0.3708 -1.6317
  972MOL0     H28270   3.538   1.468  10.617 -0.2111  0.4884  0.7471
  972MOL0     H28271   3.641   1.545  10.735 -1.4009  1.4218  4.3454
  972MOL0     H28272   3.388   1.590  10.793  0.0726 -0.2524  1.6719
  972MOL0     H28273   3.445   1.488  10.913 -1.8987  4.2252  0.8621
  972MOL0     H28274   3.381   1.288  10.776  2.8509  0.7841 -3.2479
  972MOL0     H28275   3.300   1.391  10.664  0.2404  0.0724  0.3404
  972MOL0     H28276   3.195   1.496  10.886 -0.4965  0.4915 -1.0783
  972MOL0     H28277   3.114   1.373  10.784  0.7303 -0.2310 -0.7994
  972MOL0     H28278   3.300   1.307  11.029  0.1912  0.7876 -1.1217
  972MOL0     H28279   3.203   1.189  10.943 -1.8087  0.2851 -1.8663
  972MOL0     H28280   3.002   1.328  11.024 -0.4182  2.4271  0.9683
  972MOL0     H28281   3.113   1.404  11.140 -3.2902  1.3689 -0.8456
  972MOL0     H28282   3.077   1.099  11.101  0.2501  0.3189 -0.7220
  972MOL0     H28283   3.171   1.188  11.221  0.8113  1.5676 -2.4893
  972MOL0     H28284   2.953   1.100  11.316  1.2317 -1.2662 -0.6090
  972MOL0     H28285   2.862   1.211  11.215  0.4727  1.5133  0.0371
  972MOL0     H28286   3.833   1.278  10.879  0.4873 -2.2437 -0.5477
  972MOL0     H28287   4.048   1.258  10.801  0.9410 -0.4964 -0.9714
  972MOL0     H28288   4.289   1.185  10.388 -0.6772 -0.5674  2.3460
  972MOL0     H28289   4.533   1.131  10.342  2.2417  1.4951 -2.9937
  972MOL0     H28290   6.514   1.406  10.243 -0.9490  2.4618 -2.3776
  972MOL0     H28291   6.725   1.342  10.243  1.1007  0.4803 -1.2898
  972MOL0     H28292   7.101   1.102  10.045 -2.6585  0.0453 -0.1730
  972MOL0     H28293   7.301   0.996  10.075 -1.1129  2.1508  2.1892
  972MOL0     H28294   7.335   0.562  10.023  1.7358  0.3075  0.2088
  972MOL0     H28295   7.306   0.576  10.196  0.4683 -0.3789  0.5041
  972MOL0     H28296   7.546   0.614  10.253 -4.0044  2.0900  0.5938
  972MOL0     H28297   7.516   0.459  10.173 -0.7046  0.1332  0.7668
  972MOL0     H28298   7.612   0.719  10.047 -1.0417 -0.0534  0.5773
  972MOL0     H28299   7.591   0.567   9.964  1.2395  1.6227 -0.6870
  972MOL0     H28300   7.834   0.610  10.014 -2.2513 -1.3013 -2.5525
  972MOL0     H28301   7.791   0.626  10.178 -1.0142  0.4205  1.0525
  972MOL0     H28302   7.820   0.200  10.143  1.3706  0.1990 -1.5668
  972MOL0     H28303   7.102   0.633  10.184 -0.8759 -0.3683 -2.0570
  972MOL0     H28304   6.890   0.748  10.182  0.7794  0.7846 -0.8778
  973MOL0     O28305   2.334  10.823   0.626 -0.7798  0.4564  0.0591
  973MOL0     C28306   2.300  10.719   0.671  0.0326  0.1776  1.1819
  973MOL0     O28307   2.380  10.610   0.683  0.6778  0.7362 -0.0073
  973MOL0     C28308   2.516  10.628   0.668  0.0903 -0.5898 -0.4016
  973MOL0     C28309   2.591  10.679   0.559  0.2128 -0.1507  0.9094
  973MOL0     C28310   2.728  10.708   0.567  0.5713 -0.4953  0.7950
  973MOL0     C28311   2.805  10.661   0.679  0.8904 -0.9530  0.5813
  973MOL0     O28312   2.940  10.686   0.705 -0.1889  0.5990 -0.4005
  973MOL0     C28313   3.022  10.643   0.600 -0.5470  0.8624 -0.0892
  973MOL0     C28314   3.166  10.632   0.677  0.5545  1.1302 -0.3668
  973MOL0     C28315   3.162  10.547   0.807  0.3445  0.3463  0.8731
  973MOL0     C28316   3.306  10.545   0.870  0.1034 -0.6947  0.2044
  973MOL0     C28317   3.318  10.454   0.992  0.4625  0.7858 -0.1383
  973MOL0     C28318   3.235  10.515   1.099  0.1823 -0.3498  0.0430
  973MOL0     C28319   3.253  10.463   1.241  0.3035 -0.7915 -0.9223
  973MOL0     C28320   3.165  10.562   1.324  0.4502 -0.2010  0.4447
  973MOL0     N28321   3.019  10.526   1.322  0.0273  0.3170 -0.1834
  973MOL0     C28322   2.927  10.592   1.245 -0.4991 -0.8454  0.3019
  973MOL0     C28323   2.804  10.556   1.296  0.3515 -0.0126  0.0293
  973MOL0     C28324   2.666  10.608   1.253  0.7823  0.4739  0.5412
  973MOL0     C28325   2.597  10.699   1.343  0.0902 -0.9885  0.0049
  973MOL0     C28326   2.641  10.849   1.327 -0.1223 -0.5871  0.1261
  973MOL0     C28327   2.572  10.943   1.428  0.2238 -0.1822  0.5034
  973MOL0     O28328   2.428  10.920   1.408 -0.2128 -0.5330 -0.1311
  973MOL0     C28329   2.333  10.960   1.505  0.8446 -0.2406 -0.2438
  973MOL0     C28330   2.202  10.977   1.460 -0.1285  0.5378  0.7150
  973MOL0     C28331   2.095  11.013   1.546 -0.0999 -0.2276  0.1596
  973MOL0     C28332   2.120  11.036   1.680  0.6097  0.7104 -0.7334
  973MOL0     C28333   2.005  11.060   1.776  0.0655  0.4767  0.3450
  973MOL0     O28334   2.024  11.123   1.896 -0.1585 -0.4188 -0.3376
  973MOL0     C28335   1.918  11.166   1.972  0.3638 -0.7322  0.6213
  973MOL0     C28336   1.838  11.274   1.936 -0.2573 -0.1019  0.0406
  973MOL0     C28337   1.731  11.305   2.010  0.3677  0.0733 -0.6887
  973MOL0     C28338   1.697  11.237   2.132 -0.2113  0.2610 -0.2776
  973MOL0     O28339   1.601  11.280   2.219 -0.5312  0.1193 -0.0007
  973MOL0     C28340   1.489  11.203   2.255  0.8431  0.0575 -0.0962
  973MOL0     C28341   1.397  11.265   2.356  0.1662 -0.3775 -0.0861
  973MOL0     C28342   1.278  11.179   2.393 -0.0081  0.3904  0.2139
  973MOL0     C28343   1.193  11.248   2.496 -0.1739  0.6882 -0.5599
  973MOL0     C28344   1.090  11.144   2.552 -0.8071  0.3835 -0.6107
  973MOL0     C28345   1.153  11.037   2.650 -0.0047  0.8334  0.4001
  973MOL0     C28346   1.032  10.960   2.719  0.3215  0.0628  0.1275
  973MOL0     C28347   1.096  10.856   2.821 -0.0352  0.5088 -0.6206
  973MOL0    Cl28348   0.950  10.743   2.863  0.0528  0.4713 -0.0358
  973MOL0     C28349   1.783  11.131   2.165 -0.2196  1.3028 -0.0420
  973MOL0     C28350   1.895  11.089   2.087  1.0020  0.4175  0.4513
  973MOL0     O28351   1.888  11.028   1.740  0.3600  0.2400  0.2247
  973MOL0     C28352   2.248  11.025   1.724 -0.5327 -1.2585  0.1297
  973MOL0     C28353   2.358  10.989   1.638 -0.5389 -0.2692  0.8277
  973MOL0     N28354   2.831  10.459   1.386 -0.4112  0.7239 -0.7801
  973MOL0     N28355   2.958  10.447   1.412 -0.2694 -0.9101  0.5163
  973MOL0     C28356   2.731  10.600   0.780 -0.0081 -0.2772 -0.4903
  973MOL0     C28357   2.587  10.582   0.777  0.0754  0.7837 -0.4884
  973MOL0     C28358   2.157  10.698   0.693 -0.5493  0.0721 -0.2314
  973MOL0     C28359   2.063  10.796   0.707  0.0063  0.1112  0.1349
  973MOL0     C28360   1.924  10.766   0.731 -1.0512 -0.0580 -1.3579
  973MOL0     C28361   1.883  10.634   0.734 -0.9521  0.5990  0.7841
  973MOL0     O28362   1.756  10.597   0.759  0.0475 -0.3702  0.5517
  973MOL0     C28363   1.656  10.702   0.768 -0.7664 -0.4803 -0.2650
  973MOL0     C28364   1.524  10.628   0.780 -0.1936 -0.4505 -0.4191
  973MOL0     C28365   1.413  10.726   0.817 -0.1141  0.4425 -0.2524
  973MOL0     C28366   1.285  10.641   0.849 -0.4825  1.1310  0.5562
  973MOL0     C28367   1.167  10.731   0.874  0.3949  0.3073  0.8498
  973MOL0     C28368   1.069  10.807   0.901 -0.1967  0.5464 -0.6054
  973MOL0     C28369   1.972  10.530   0.724  0.5209 -0.7489 -0.6003
  973MOL0     C28370   2.108  10.559   0.703 -1.2693  0.0301  0.7141
  973MOL0     H28371   2.545  10.703   0.464 -0.3839  1.3961  1.5598
  973MOL0     H28372   2.781  10.761   0.489  2.6597 -1.3341  1.5617
  973MOL0     H28373   3.018  10.703   0.509  0.3427 -2.7576 -2.7869
  973MOL0     H28374   3.003  10.537   0.580  1.4276  0.1259  1.4954
  973MOL0     H28375   3.189  10.733   0.714 -0.7003  1.9533 -1.7110
  973MOL0     H28376   3.243  10.608   0.604 -0.6416 -0.4674 -1.1653
  973MOL0     H28377   3.125  10.449   0.778  1.3521  0.2514 -0.1353
  973MOL0     H28378   3.081  10.586   0.870  0.0486 -0.6661  1.1386
  973MOL0     H28379   3.382  10.511   0.799  2.1465  1.5527  1.1590
  973MOL0     H28380   3.332  10.649   0.889 -1.1066 -0.0649 -1.3938
  973MOL0     H28381   3.421  10.439   1.025 -0.2142 -0.9857  1.3491
  973MOL0     H28382   3.274  10.356   0.976  0.1102  0.9070  0.0585
  973MOL0     H28383   3.129  10.498   1.076 -0.0352  1.1909 -0.1944
  973MOL0     H28384   3.258  10.621   1.113  0.3388 -0.3306 -0.3333
  973MOL0     H28385   3.216  10.361   1.244 -3.8375  0.5336  1.3928
  973MOL0     H28386   3.355  10.485   1.274 -0.0751 -1.9883  1.1901
  973MOL0     H28387   3.180  10.664   1.287  0.9171 -0.4582 -0.0883
  973MOL0     H28388   3.191  10.549   1.430 -3.4141  0.6997  1.6642
  973MOL0     H28389   2.937  10.671   1.172 -3.5701  1.3072  1.9866
  973MOL0     H28390   2.592  10.529   1.235 -0.4503  1.9522 -1.3134
  973MOL0     H28391   2.681  10.647   1.152 -2.0033 -2.3101 -1.1067
  973MOL0     H28392   2.618  10.666   1.445 -0.3276  2.9128  1.4921
  973MOL0     H28393   2.489  10.684   1.337 -0.1940 -0.0625  2.1712
  973MOL0     H28394   2.749  10.867   1.330 -0.4468  1.5777  2.2334
  973MOL0     H28395   2.607  10.888   1.231 -5.3354 -0.0571  1.8330
  973MOL0     H28396   2.596  11.045   1.398 -0.3776 -0.2182 -0.1028
  973MOL0     H28397   2.615  10.935   1.529  3.9842  1.4563 -0.7940
  973MOL0     H28398   2.192  10.946   1.356  3.7623  0.6350  0.1778
  973MOL0     H28399   1.991  11.010   1.516 -0.7939 -0.3561  2.4160
  973MOL0     H28400   1.858  11.330   1.845 -1.7256  3.4617  1.7235
  973MOL0     H28401   1.667  11.389   1.985 -0.6324 -0.7483 -0.9849
  973MOL0     H28402   1.529  11.114   2.304  0.9234  0.3570  0.3929
  973MOL0     H28403   1.430  11.168   2.169  2.2030 -4.1369  0.4315
  973MOL0     H28404   1.356  11.360   2.320  0.1772 -1.6343 -3.7502
  973MOL0     H28405   1.456  11.289   2.445 -0.0479  1.2130 -0.3505
  973MOL0     H28406   1.312  11.082   2.430 -3.2990 -0.8215  0.4381
  973MOL0     H28407   1.214  11.158   2.306 -1.9869  4.9246  0.2821
  973MOL0     H28408   1.260  11.294   2.569  0.1942  1.6309 -1.4711
  973MOL0     H28409   1.129  11.325   2.452  0.8714  1.9290  0.0078
  973MOL0     H28410   1.039  11.100   2.465  0.5769 -1.6577 -0.4613
  973MOL0     H28411   1.023  11.207   2.610  0.6674  0.7510  0.7349
  973MOL0     H28412   1.223  11.091   2.714 -1.3026  2.2920  0.6567
  973MOL0     H28413   1.207  10.962   2.591 -3.5293 -2.7300  1.2356
  973MOL0     H28414   0.974  11.031   2.779  1.5397  2.1878 -1.1152
  973MOL0     H28415   0.971  10.910   2.643  1.7323  1.0862 -1.7784
  973MOL0     H28416   1.134  10.911   2.908 -1.3793 -2.3142  1.9764
  973MOL0     H28417   1.176  10.797   2.776 -0.6551  0.3769 -1.5736
  973MOL0     H28418   1.765  11.072   2.255 -4.3119  1.8347 -0.3327
  973MOL0     H28419   1.953  10.998   2.098 -0.2558 -0.2997  1.5381
  973MOL0     H28420   2.266  11.029   1.831  0.3619  0.0908 -0.0439
  973MOL0     H28421   2.459  10.993   1.675 -0.0807 -0.9701 -0.2777
  973MOL0     H28422   2.786  10.569   0.869 -1.4307 -1.1365  0.1292
  973MOL0     H28423   2.536  10.536   0.861 -0.7555  0.1646 -1.3138
  973MOL0     H28424   2.100  10.897   0.692 -0.6237  0.6325  1.8388
  973MOL0     H28425   1.854  10.849   0.738  0.8641  1.5233  1.2760
  973MOL0     H28426   1.661  10.758   0.674  1.2184 -1.7697 -0.9929
  973MOL0     H28427   1.668  10.763   0.858 -0.3846 -1.4347  0.3481
  973MOL0     H28428   1.512  10.576   0.685  1.8414 -0.8844 -0.4667
  973MOL0     H28429   1.524  10.544   0.850 -0.2960  0.4397  0.6819
  973MOL0     H28430   1.396  10.791   0.731  0.1995 -0.3280 -0.9041
  973MOL0     H28431   1.433  10.801   0.894 -2.1413 -0.6622  1.4790
  973MOL0     H28432   1.269  10.572   0.765  0.3426  0.8083  0.6517
  973MOL0     H28433   1.299  10.592   0.946 -0.2381 -0.0573 -0.0559
  973MOL0     H28434   0.993  10.863   0.951  0.5316  1.3601 -0.3920
  973MOL0     H28435   1.945  10.426   0.740 -1.3222 -0.6491 -2.5011
  973MOL0     H28436   2.178  10.476   0.702 -1.4681 -0.2179  2.6080
  974MOL0     O28437   4.105   2.190   1.842  0.2047 -0.7153 -0.0795
  974MOL0     C28438   4.098   2.312   1.812 -0.5476 -0.6942 -1.1767
  974MOL0     O28439   3.986   2.381   1.772 -0.2325 -0.5726 -0.5807
  974MOL0     C28440   3.852   2.347   1.809  0.6710 -0.9695 -1.3156
  974MOL0     C28441   3.757   2.450   1.825  0.3445  0.1604 -0.5603
  974MOL0     C28442   3.632   2.431   1.875  0.6537 -0.9613  0.2330
  974MOL0     C28443   3.587   2.298   1.891  0.2817  1.1328  0.1086
  974MOL0     O28444   3.458   2.281   1.942 -0.2048 -0.0641  0.8540
  974MOL0     C28445   3.416   2.162   2.004 -0.4610  0.0602  0.1719
  974MOL0     C28446   3.268   2.167   2.030 -0.7454 -0.4980  0.4469
  974MOL0     C28447   3.237   2.230   2.165 -0.1221  0.6804  0.5131
  974MOL0     C28448   3.083   2.210   2.182 -0.8046 -0.2356 -0.3614
  974MOL0     C28449   3.034   2.281   2.314 -0.3618  0.0478  0.3883
  974MOL0     C28450   2.894   2.339   2.292 -0.5004 -0.0299  0.3742
  974MOL0     C28451   2.799   2.253   2.221  0.9318  0.0868 -0.1827
  974MOL0     C28452   2.652   2.303   2.230  0.4856  0.3180 -0.3134
  974MOL0     N28453   2.552   2.208   2.169  0.3194 -1.5091  0.0478
  974MOL0     C28454   2.505   2.093   2.228  0.0485 -0.1656  0.4561
  974MOL0     C28455   2.430   2.036   2.126  0.0996  0.0665 -0.1312
  974MOL0     C28456   2.349   1.910   2.133 -0.0216  0.2821  0.1503
  974MOL0     C28457   2.205   1.919   2.181 -0.6708  0.2730 -0.6185
  974MOL0     C28458   2.200   1.938   2.332 -0.9483  0.5163  0.4251
  974MOL0     C28459   2.062   1.935   2.393 -0.5886  0.5047 -0.0233
  974MOL0     O28460   1.990   2.043   2.338 -0.0389 -0.1509 -0.0145
  974MOL0     C28461   1.855   2.048   2.363 -0.4075  0.7582  0.9326
  974MOL0     C28462   1.790   1.950   2.438  0.0867  0.4443  0.3823
  974MOL0     C28463   1.655   1.946   2.451 -0.5906 -0.2508  0.7663
  974MOL0     C28464   1.576   2.048   2.395  0.2314 -0.9533 -0.1282
  974MOL0     C28465   1.427   2.046   2.409  0.4246  0.4218 -0.9294
  974MOL0     O28466   1.376   1.928   2.456  0.2829 -0.3283  0.8520
  974MOL0     C28467   1.245   1.926   2.508 -0.6729 -0.3299  0.4287
  974MOL0     C28468   1.208   2.015   2.613  0.5186 -0.1478 -0.4679
  974MOL0     C28469   1.071   2.008   2.655  0.4045  0.3154  0.4054
  974MOL0     C28470   0.984   1.915   2.613 -0.0577  0.1447 -0.8952
  974MOL0     O28471   0.864   1.909   2.670  0.8077 -0.3076 -0.2356
  974MOL0     C28472   0.761   1.822   2.613 -0.0045 -0.0912  0.0771
  974MOL0     C28473   0.615   1.851   2.670 -1.1560  0.0324 -0.1517
  974MOL0     C28474   0.627   1.829   2.823  0.4143 -0.7222 -1.1733
  974MOL0     C28475   0.492   1.860   2.890  0.4210 -0.1172  0.1049
  974MOL0     C28476   0.494   1.908   3.035  0.8826 -0.8953  0.3984
  974MOL0     C28477   0.566   1.805   3.124  0.4150 -0.6391 -0.8936
  974MOL0     C28478   0.550   1.836   3.267  1.0305 -0.6408  0.8569
  974MOL0     C28479   0.625   1.733   3.345  0.3328 -1.0008 -0.4359
  974MOL0    Cl28480   0.807   1.725   3.317  0.2690 -0.0410  0.5361
  974MOL0     C28481   1.028   1.827   2.512 -0.0962 -0.1434 -0.2059
  974MOL0     C28482   1.149   1.836   2.451 -0.5802  0.3694 -1.0267
  974MOL0     O28483   1.369   2.154   2.388 -0.2261 -0.5090  0.0469
  974MOL0     C28484   1.643   2.144   2.317 -0.1019 -0.6459 -0.0024
  974MOL0     C28485   1.784   2.151   2.306 -0.5033  0.8665  0.2899
  974MOL0     N28486   2.413   2.131   2.018  0.2391  0.1621 -0.1415
  974MOL0     N28487   2.493   2.237   2.051 -0.6924  0.2665  1.2600
  974MOL0     C28488   3.665   2.192   1.868 -0.2371  0.7127  0.0803
  974MOL0     C28489   3.800   2.217   1.827 -0.3217 -0.0954 -2.0829
  974MOL0     C28490   4.217   2.398   1.834 -0.7183 -0.2351  0.1628
  974MOL0     C28491   4.337   2.349   1.894 -0.0419  0.0797 -0.0428
  974MOL0     C28492   4.447   2.426   1.930  0.4962  0.5926 -0.0805
  974MOL0     C28493   4.455   2.560   1.898  0.0553  0.6237  0.1118
  974MOL0     O28494   4.579   2.617   1.916 -0.3558  0.5356 -0.0027
  974MOL0     C28495   4.587   2.756   1.880  0.5812 -0.0893 -0.9226
  974MOL0     C28496   4.715   2.836   1.934  0.4670  0.6611 -0.3313
  974MOL0     C28497   4.717   2.805   2.092 -0.1522  0.3613  0.2088
  974MOL0     C28498   4.792   2.916   2.169  0.5621 -0.4018  0.5493
  974MOL0     C28499   4.923   2.938   2.118 -0.2283 -0.0100 -1.2549
  974MOL0     C28500   5.040   2.949   2.082 -0.8394 -0.1684 -0.4293
  974MOL0     C28501   4.350   2.612   1.820 -0.6941 -0.2660 -0.1582
  974MOL0     C28502   4.230   2.533   1.797  0.5511 -0.1393 -0.7830
  974MOL0     H28503   3.787   2.553   1.810  0.0755  0.6517  1.7621
  974MOL0     H28504   3.576   2.523   1.893  2.5704  0.0198  1.4610
  974MOL0     H28505   3.458   2.136   2.101 -1.0766  1.8979  0.9755
  974MOL0     H28506   3.442   2.079   1.937  0.8221  0.2028  0.4762
  974MOL0     H28507   3.228   2.066   2.042 -0.0622 -0.5142  3.5870
  974MOL0     H28508   3.221   2.227   1.951  1.5777  1.0657  0.1520
  974MOL0     H28509   3.257   2.337   2.172  2.4994  0.1952  1.4535
  974MOL0     H28510   3.296   2.182   2.244  2.5069  0.1021 -1.6669
  974MOL0     H28511   3.045   2.256   2.090 -0.5309 -2.5722 -1.7126
  974MOL0     H28512   3.046   2.108   2.172  2.6520 -1.3705 -3.8371
  974MOL0     H28513   3.095   2.366   2.347 -2.0036  1.0164  1.0378
  974MOL0     H28514   3.021   2.213   2.399  0.6791 -1.7382 -0.8101
  974MOL0     H28515   2.899   2.429   2.231 -1.7443  0.8250  1.4684
  974MOL0     H28516   2.850   2.358   2.391 -3.7895 -0.5228 -0.8539
  974MOL0     H28517   2.828   2.254   2.116  0.6778 -0.1652 -0.2562
  974MOL0     H28518   2.802   2.147   2.250  1.6304  0.5732  1.6623
  974MOL0     H28519   2.650   2.396   2.172 -0.4313 -0.1317 -1.0343
  974MOL0     H28520   2.632   2.324   2.335  0.8532  1.2325 -0.4122
  974MOL0     H28521   2.519   2.051   2.327  1.0553  1.6739  1.1384
  974MOL0     H28522   2.415   1.841   2.187  0.0180  0.3050  0.1312
  974MOL0     H28523   2.348   1.883   2.027  3.4092 -0.1749  0.1220
  974MOL0     H28524   2.158   1.823   2.161  1.3294 -0.2067 -3.5588
  974MOL0     H28525   2.154   2.002   2.130  0.2016  2.0820  1.2684
  974MOL0     H28526   2.258   1.854   2.371 -2.5427 -0.4937  0.7077
  974MOL0     H28527   2.255   2.029   2.359 -1.0113  0.7383 -0.1865
  974MOL0     H28528   2.070   1.945   2.502  1.2034 -2.0898  0.1612
  974MOL0     H28529   2.013   1.837   2.389 -0.0299  0.0136  2.8728
  974MOL0     H28530   1.841   1.863   2.478 -0.2033  0.4294  0.7306
  974MOL0     H28531   1.602   1.861   2.495 -2.2445  1.2923  1.9096
  974MOL0     H28532   1.296   2.063   2.655  0.9486 -2.9267  2.1231
  974MOL0     H28533   1.030   2.077   2.728 -0.0765  1.3968 -0.8550
  974MOL0     H28534   0.786   1.715   2.622 -0.4751 -0.2684 -0.6923
  974MOL0     H28535   0.744   1.834   2.506  0.3461  3.6202  0.3181
  974MOL0     H28536   0.536   1.792   2.624 -2.3280 -0.1309  1.9827
  974MOL0     H28537   0.595   1.955   2.642 -1.6790 -0.1984 -0.6398
  974MOL0     H28538   0.710   1.889   2.862  0.7971 -1.0443 -1.4903
  974MOL0     H28539   0.653   1.724   2.840 -2.3301 -1.0431  1.9459
  974MOL0     H28540   0.448   1.950   2.846 -3.5310 -0.6131  2.6076
  974MOL0     H28541   0.426   1.775   2.878 -0.2837  0.5944 -1.4204
  974MOL0     H28542   0.386   1.911   3.055  0.5622 -0.5208 -1.1946
  974MOL0     H28543   0.539   2.008   3.043 -0.1062 -0.3447 -0.5632
  974MOL0     H28544   0.673   1.807   3.098  0.5118  1.5944 -0.5451
  974MOL0     H28545   0.526   1.707   3.098  2.1214 -0.4500 -5.1196
  974MOL0     H28546   0.598   1.931   3.293  0.3836 -0.7541  2.6025
  974MOL0     H28547   0.444   1.846   3.292  1.1528  2.4028  0.5639
  974MOL0     H28548   0.576   1.637   3.325 -4.0084  1.0665 -0.8914
  974MOL0     H28549   0.618   1.755   3.452  1.2526 -0.7332 -0.4208
  974MOL0     H28550   0.964   1.746   2.479 -0.7763 -0.1171  1.0102
  974MOL0     H28551   1.172   1.769   2.369  0.3693 -1.2682  0.4952
  974MOL0     H28552   1.590   2.219   2.259 -2.3205 -0.7649  1.6966
  974MOL0     H28553   1.829   2.233   2.250 -0.3847  2.1703  2.1814
  974MOL0     H28554   3.624   2.093   1.883 -3.8428  1.8271 -1.3400
  974MOL0     H28555   3.866   2.133   1.809 -2.9196 -2.3164 -1.9848
  974MOL0     H28556   4.359   2.247   1.924  3.3017  1.7062  4.0478
  974MOL0     H28557   4.519   2.374   1.992 -0.2056 -0.4396 -0.1026
  974MOL0     H28558   4.499   2.801   1.928  1.4821  0.9647 -0.1969
  974MOL0     H28559   4.581   2.767   1.772 -2.6523  0.9439 -0.7224
  974MOL0     H28560   4.815   2.808   1.902  0.1478 -2.4229  0.9843
  974MOL0     H28561   4.697   2.941   1.909 -4.0169 -0.3424 -2.3986
  974MOL0     H28562   4.780   2.718   2.112 -2.1978 -1.4553 -0.8141
  974MOL0     H28563   4.614   2.797   2.127 -1.0057 -0.1499 -2.1984
  974MOL0     H28564   4.751   3.017   2.162  2.8364  0.7939  2.7482
  974MOL0     H28565   4.796   2.901   2.278  2.7244  1.5499  0.8267
  974MOL0     H28566   5.137   2.971   2.042 -1.3894  3.1449 -0.2134
  974MOL0     H28567   4.348   2.710   1.775 -0.1963  0.6954  1.8138
  974MOL0     H28568   4.139   2.582   1.764 -2.3729  0.1926  6.0233
  975MOL0     O28569   5.874   4.822  11.200 -0.2173 -0.1135 -0.4604
  975MOL0     C28570   5.885   4.937  11.146 -0.6574 -0.4965 -0.5578
  975MOL0     O28571   5.949   4.970  11.033  0.5849 -0.5332  0.0339
  975MOL0     C28572   5.987   4.868  10.953  0.1227 -0.8851  0.5792
  975MOL0     C28573   6.121   4.879  10.897  0.7669  0.6251 -0.3644
  975MOL0     C28574   6.160   4.781  10.799  0.2992  1.0281  0.5085
  975MOL0     C28575   6.069   4.680  10.763  0.8012  0.1936  0.2854
  975MOL0     O28576   6.084   4.581  10.665  0.6737 -0.1193 -0.8327
  975MOL0     C28577   6.212   4.528  10.638  0.6248  0.9996  0.5892
  975MOL0     C28578   6.198   4.397  10.564 -0.2859  0.2262 -0.3780
  975MOL0     C28579   6.140   4.288  10.658 -0.1525 -0.1815 -0.0746
  975MOL0     C28580   6.112   4.163  10.585  0.3131  0.0210 -0.0577
  975MOL0     C28581   6.097   4.046  10.675 -0.2329  0.0467 -1.1688
  975MOL0     C28582   6.230   3.984  10.740  0.2735 -0.0897 -0.1393
  975MOL0     C28583   6.310   3.922  10.632  0.3678  0.1549 -0.5755
  975MOL0     C28584   6.455   3.871  10.679  0.0570 -0.1046 -1.0505
  975MOL0     N28585   6.563   3.967  10.668 -0.2389 -0.8935  0.6804
  975MOL0     C28586   6.702   3.950  10.648  0.2459 -0.2348  0.9029
  975MOL0     C28587   6.749   4.074  10.618  0.2012 -0.1117  0.8658
  975MOL0     C28588   6.891   4.117  10.583 -0.6418 -0.6079 -0.4005
  975MOL0     C28589   6.950   4.100  10.434 -0.7005 -0.1364  0.3243
  975MOL0     C28590   7.033   4.220  10.384  0.4127  0.1727  0.1014
  975MOL0     C28591   7.071   4.213  10.233 -1.4560  0.1011 -1.3428
  975MOL0     O28592   6.960   4.208  10.152 -0.1519  0.5750  0.4855
  975MOL0     C28593   6.975   4.145  10.034  1.3533 -0.2469 -0.6564
  975MOL0     C28594   7.095   4.145   9.955 -0.2320  0.3539  0.0170
  975MOL0     C28595   7.106   4.088   9.834  0.3088 -0.0121  0.1936
  975MOL0     C28596   6.996   4.025   9.778  0.3513 -0.4775  0.4860
  975MOL0     C28597   7.006   3.974   9.632  0.1741  0.4783  0.3195
  975MOL0     O28598   7.132   3.960   9.586 -0.2193  0.1219  0.1914
  975MOL0     C28599   7.153   3.932   9.453 -0.2822 -0.3618  0.8877
  975MOL0     C28600   7.138   4.019   9.338  0.7417  0.6758 -0.8712
  975MOL0     C28601   7.141   3.985   9.204 -1.0207  0.6736 -0.0355
  975MOL0     C28602   7.191   3.852   9.184  0.1808 -0.0026  0.7149
  975MOL0     O28603   7.207   3.790   9.064  0.0067 -0.2775  0.1379
  975MOL0     C28604   7.130   3.839   8.950  0.4184  1.2876  0.6463
  975MOL0     C28605   7.080   3.714   8.864 -0.0188 -0.2845  1.0020
  975MOL0     C28606   6.952   3.640   8.909 -0.3570  0.1775  1.0112
  975MOL0     C28607   6.923   3.514   8.832 -0.1517  0.3789 -0.4261
  975MOL0     C28608   6.883   3.530   8.680  0.9191  0.1943 -0.1845
  975MOL0     C28609   6.808   3.414   8.614 -0.9860  0.2812  0.2670
  975MOL0     C28610   6.778   3.443   8.463  1.4861  0.4153 -0.3300
  975MOL0     C28611   6.681   3.558   8.433  0.7982 -0.4149  0.7485
  975MOL0    Cl28612   6.666   3.582   8.249  0.1968  0.0070  0.0565
  975MOL0     C28613   7.206   3.760   9.286  0.1233  0.1412  0.1179
  975MOL0     C28614   7.178   3.799   9.421  0.2629 -0.2368 -0.3784
  975MOL0     O28615   6.901   3.956   9.570  0.2144  0.2830 -0.2539
  975MOL0     C28616   6.878   4.012   9.857 -0.5617  0.1353 -0.2988
  975MOL0     C28617   6.863   4.074   9.984  0.3100  0.3790  0.1218
  975MOL0     N28618   6.640   4.163  10.628 -0.5233  0.2419  0.0983
  975MOL0     N28619   6.535   4.100  10.676 -0.2898  0.7210  0.0925
  975MOL0     C28620   5.942   4.672  10.823  0.0447  0.0997 -0.2454
  975MOL0     C28621   5.904   4.764  10.917 -0.3170  0.3728  0.4618
  975MOL0     C28622   5.818   5.050  11.211 -0.5603  0.4911 -0.4283
  975MOL0     C28623   5.827   5.182  11.152  0.0854  0.0193 -0.8753
  975MOL0     C28624   5.760   5.296  11.215 -0.3224  0.1361 -0.6565
  975MOL0     C28625   5.704   5.282  11.339  0.3840  1.2484 -0.3539
  975MOL0     O28626   5.661   5.386  11.422 -0.0123 -0.2566  0.0198
  975MOL0     C28627   5.742   5.507  11.431 -0.2890 -0.0215 -0.2172
  975MOL0     C28628   5.874   5.470  11.507  0.3525 -0.4166 -0.0760
  975MOL0     C28629   5.859   5.460  11.657 -0.4435  0.8237 -0.2377
  975MOL0     C28630   5.785   5.341  11.719 -0.0998 -0.4312  0.2998
  975MOL0     C28631   5.793   5.335  11.865 -0.2545 -0.1305  0.8442
  975MOL0     C28632   5.810   5.330  11.983  0.3998  0.1428  0.8856
  975MOL0     C28633   5.697   5.151  11.396  0.0813 -0.2599  0.0139
  975MOL0     C28634   5.742   5.033  11.333 -0.1341  0.2026  0.4194
  975MOL0     H28635   6.184   4.957  10.938  0.9136  1.2898 -1.7958
  975MOL0     H28636   6.262   4.779  10.762  0.3150 -0.6672  0.5440
  975MOL0     H28637   6.273   4.519  10.729  0.2760  3.2462  1.1084
  975MOL0     H28638   6.267   4.596  10.573 -0.8528 -0.2901 -2.1649
  975MOL0     H28639   6.294   4.369  10.520 -0.5531 -0.5257 -0.4942
  975MOL0     H28640   6.130   4.416  10.481 -0.6431  1.7827  0.2364
  975MOL0     H28641   6.046   4.327  10.699 -0.0871  0.6555 -0.6906
  975MOL0     H28642   6.212   4.267  10.738  0.5850 -0.7417 -0.8717
  975MOL0     H28643   6.013   4.167  10.539 -0.9785  2.3933  2.5791
  975MOL0     H28644   6.191   4.162  10.510  1.5328 -0.8597  1.1926
  975MOL0     H28645   6.029   3.977  10.623 -1.4428  1.8801 -2.1502
  975MOL0     H28646   6.043   4.083  10.763  3.7704 -0.1242  1.6504
  975MOL0     H28647   6.206   3.910  10.816  0.4088  1.9697  1.9995
  975MOL0     H28648   6.284   4.067  10.786  1.2737 -2.4569  3.2997
  975MOL0     H28649   6.263   3.832  10.591  3.5047 -1.6849 -0.4888
  975MOL0     H28650   6.336   3.995  10.554 -1.7990  0.0362 -1.4686
  975MOL0     H28651   6.481   3.784  10.617 -1.8643 -0.0042 -2.0597
  975MOL0     H28652   6.459   3.835  10.782  1.9691  1.9249 -0.3443
  975MOL0     H28653   6.754   3.855  10.648 -0.6487 -0.7357  0.7922
  975MOL0     H28654   6.958   4.055  10.644 -0.4055 -1.5659 -1.6060
  975MOL0     H28655   6.901   4.221  10.616  2.0071 -0.6347 -0.8736
  975MOL0     H28656   6.868   4.107  10.361 -0.3940  1.2785  0.0862
  975MOL0     H28657   7.003   4.007  10.415  0.1909  0.1667  1.2645
  975MOL0     H28658   6.969   4.306  10.407  1.8616  0.2371  4.8780
  975MOL0     H28659   7.122   4.226  10.448  1.1359 -2.2402 -0.5928
  975MOL0     H28660   7.145   4.134  10.217 -0.2470  0.7848  0.5083
  975MOL0     H28661   7.116   4.311  10.221 -2.7449  0.7793 -0.8493
  975MOL0     H28662   7.183   4.203   9.983 -0.6097  0.3959  1.1893
  975MOL0     H28663   7.196   4.109   9.776 -2.3790  2.7679 -3.5221
  975MOL0     H28664   7.116   4.123   9.358  2.4526  0.8469  0.3318
  975MOL0     H28665   7.124   4.058   9.126 -2.9793 -0.9230 -1.2078
  975MOL0     H28666   7.180   3.903   8.877 -3.6875  0.5523 -3.2502
  975MOL0     H28667   7.036   3.885   8.982  0.1977  0.2440  1.5784
  975MOL0     H28668   7.167   3.650   8.846 -0.9295 -0.7747 -2.4080
  975MOL0     H28669   7.057   3.748   8.763 -0.3555 -0.5599  0.9819
  975MOL0     H28670   6.872   3.715   8.911  1.7849  2.6612 -0.3494
  975MOL0     H28671   6.970   3.614   9.014  1.5026 -0.0152  0.6784
  975MOL0     H28672   7.009   3.447   8.837 -1.4824 -1.4162 -0.4706
  975MOL0     H28673   6.837   3.471   8.885 -1.4722  2.1267 -1.0550
  975MOL0     H28674   6.970   3.550   8.616 -0.1335  0.5919 -1.5494
  975MOL0     H28675   6.824   3.622   8.680  3.5783  2.0239 -0.8306
  975MOL0     H28676   6.713   3.397   8.666 -1.1817  0.1332 -0.1295
  975MOL0     H28677   6.874   3.328   8.623  0.8730  1.5908 -0.3184
  975MOL0     H28678   6.866   3.470   8.405  1.4775  0.6259 -0.2480
  975MOL0     H28679   6.747   3.347   8.421  2.1547 -0.9500  2.0851
  975MOL0     H28680   6.715   3.650   8.482 -2.0185  0.6370  0.9355
  975MOL0     H28681   6.582   3.532   8.473  0.1853  3.0846  1.8868
  975MOL0     H28682   7.250   3.663   9.269  1.4559  0.8203 -0.4686
  975MOL0     H28683   7.181   3.722   9.497 -1.0478 -0.3661 -0.4403
  975MOL0     H28684   6.790   3.969   9.810 -0.4727 -3.8143  2.5655
  975MOL0     H28685   6.767   4.083  10.032  0.6362  2.0861  0.5155
  975MOL0     H28686   5.879   4.593  10.784 -0.9758  2.0283 -2.7872
  975MOL0     H28687   5.809   4.758  10.968 -1.5220 -1.5068 -1.7930
  975MOL0     H28688   5.871   5.198  11.054  1.3850  0.6243 -0.2206
  975MOL0     H28689   5.753   5.390  11.162 -0.1644 -1.2069 -3.2058
  975MOL0     H28690   5.692   5.593  11.474 -2.4037 -0.2573 -2.0361
  975MOL0     H28691   5.778   5.535  11.331  2.6764 -0.9727  0.4630
  975MOL0     H28692   5.909   5.373  11.470 -1.1998 -1.0213 -0.0029
  975MOL0     H28693   5.956   5.542  11.492 -0.5375  1.0598  1.7509
  975MOL0     H28694   5.808   5.551  11.690 -1.0051  0.5694 -0.3974
  975MOL0     H28695   5.957   5.462  11.706  0.2032  0.0184 -1.4636
  975MOL0     H28696   5.680   5.356  11.693 -0.3812 -1.2964  0.8842
  975MOL0     H28697   5.820   5.245  11.680 -0.9736 -0.7353  0.2248
  975MOL0     H28698   5.817   5.338  12.090 -0.8789 -0.8690  1.0756
  975MOL0     H28699   5.668   5.158  11.501 -0.0538  4.1269 -0.1379
  975MOL0     H28700   5.739   4.930  11.368  0.6523 -0.7512 -2.1394
  976MOL0     O28701   0.982  11.134   5.628  0.0704 -0.5246  0.5801
  976MOL0     C28702   0.976  11.074   5.735  0.0262 -1.2478 -0.2068
  976MOL0     O28703   0.869  11.019   5.797 -0.1770  0.5397  0.2458
  976MOL0     C28704   0.754  11.022   5.730  0.4286 -0.1586  0.8857
  976MOL0     C28705   0.668  11.138   5.721 -0.9001 -0.0162  0.4269
  976MOL0     C28706   0.542  11.140   5.651 -0.2746 -0.0017 -0.5051
  976MOL0     C28707   0.493  11.014   5.600  0.2021  0.5005 -0.4078
  976MOL0     O28708   0.372  11.007   5.544  0.0028 -0.4178  0.8301
  976MOL0     C28709   0.345  11.077   5.423 -0.5053  0.8404 -0.4830
  976MOL0     C28710   0.201  11.052   5.385  0.4584 -0.6435  0.4751
  976MOL0     C28711   0.171  11.114   5.242  0.0579  0.1096 -1.3260
  976MOL0     C28712   0.026  11.082   5.198 -0.3763  0.5410  0.3301
  976MOL0     C28713   0.005  11.145   5.061 -0.1649  0.3858 -0.0346
  976MOL0     C28714  -0.086  11.046   4.974 -0.6652 -0.1603 -0.0564
  976MOL0     C28715  -0.114  11.086   4.826  0.6672  0.8078  0.2000
  976MOL0     C28716  -0.009  11.033   4.729  0.3587  1.0878 -0.9861
  976MOL0     N28717  -0.052  11.049   4.593 -0.7240 -0.4952 -0.7745
  976MOL0     C28718  -0.070  10.934   4.520  0.0296 -0.4497  0.0016
  976MOL0     C28719  -0.108  10.975   4.400  0.1325 -0.1981 -0.9440
  976MOL0     C28720  -0.148  10.880   4.293 -0.4221 -0.1356 -0.0594
  976MOL0     C28721  -0.035  10.853   4.205 -0.4802  0.4479  0.2700
  976MOL0     C28722  -0.057  10.927   4.073  0.2688  1.1367  1.0428
  976MOL0     C28723   0.054  10.906   3.968 -1.2639 -0.7522  0.2086
  976MOL0     O28724   0.179  10.939   4.029 -0.1734 -0.8089 -0.5683
  976MOL0     C28725   0.277  10.971   3.945 -0.7864  0.9636  0.0680
  976MOL0     C28726   0.282  10.955   3.805 -0.4919  0.3628 -0.1096
  976MOL0     C28727   0.390  11.017   3.735 -0.5649  0.4889  0.8183
  976MOL0     C28728   0.496  11.081   3.802  0.0881  0.0943 -0.2502
  976MOL0     C28729   0.609  11.140   3.720 -0.0480  0.0271 -0.5362
  976MOL0     O28730   0.598  11.129   3.581  0.2368 -0.5088  0.0458
  976MOL0     C28731   0.704  11.150   3.501  0.4887 -0.3593 -0.2251
  976MOL0     C28732   0.679  11.195   3.373  0.8526  0.8837  0.4499
  976MOL0     C28733   0.769  11.210   3.276  0.5131 -0.9116 -0.0464
  976MOL0     C28734   0.903  11.192   3.297  0.2546  1.1519 -0.2115
  976MOL0     O28735   0.997  11.226   3.201 -0.1287  0.6129 -0.3263
  976MOL0     C28736   1.104  11.134   3.159  0.4806 -0.2556 -0.1945
  976MOL0     C28737   1.189  11.213   3.067  0.7643  0.1249  0.3341
  976MOL0     C28738   1.239  11.341   3.140  0.3188 -0.2752 -0.0946
  976MOL0     C28739   1.381  11.380   3.104 -0.0970  0.3842  0.0436
  976MOL0     C28740   1.421  11.527   3.150 -0.0348 -0.9057  0.4282
  976MOL0     C28741   1.373  11.563   3.297  0.0691 -0.0166  0.0945
  976MOL0     C28742   1.433  11.467   3.404 -0.3949 -0.2202  0.4456
  976MOL0     C28743   1.416  11.546   3.530  0.5408  0.1098 -0.1056
  976MOL0    Cl28744   1.552  11.502   3.638 -0.5170  0.0137 -0.0020
  976MOL0     C28745   0.942  11.145   3.429 -0.2730  0.1866  0.5933
  976MOL0     C28746   0.842  11.119   3.528 -0.8018 -0.8776  0.9776
  976MOL0     O28747   0.707  11.190   3.777 -0.0300 -0.6510 -0.2989
  976MOL0     C28748   0.496  11.078   3.947 -0.2533 -0.5155  0.5946
  976MOL0     C28749   0.382  11.024   4.017 -0.6661 -0.8395 -0.0533
  976MOL0     N28750  -0.123  11.109   4.402 -1.1121 -0.1024  0.4206
  976MOL0     N28751  -0.082  11.154   4.509 -0.1072  0.0698  0.7313
  976MOL0     C28752   0.588  10.903   5.602  0.4653 -0.1859  0.2493
  976MOL0     C28753   0.715  10.905   5.674 -0.3095 -0.4685  0.9274
  976MOL0     C28754   1.104  11.074   5.811  0.0004 -0.0913 -0.8863
  976MOL0     C28755   1.218  11.119   5.763 -0.6377  0.1807  0.3875
  976MOL0     C28756   1.333  11.105   5.841 -0.0105  0.9374 -0.4859
  976MOL0     C28757   1.331  11.050   5.966  0.2502  0.3047  0.2673
  976MOL0     O28758   1.450  11.028   6.027  0.6510 -0.6083 -0.6183
  976MOL0     C28759   1.466  11.031   6.168  0.4141  0.3275 -0.3044
  976MOL0     C28760   1.579  10.931   6.195 -0.7582  0.0406  0.2383
  976MOL0     C28761   1.522  10.785   6.235  0.8279 -0.5783  0.1627
  976MOL0     C28762   1.611  10.673   6.269  0.4159  0.8643  0.5062
  976MOL0     C28763   1.696  10.622   6.152  0.6230  0.3746  0.5654
  976MOL0     C28764   1.772  10.580   6.067  0.1200 -0.2864  0.0731
  976MOL0     C28765   1.210  11.004   6.021  0.2214  0.0024 -0.3401
  976MOL0     C28766   1.095  11.010   5.936 -0.7024  0.0918 -0.4078
  976MOL0     H28767   0.700  11.231   5.767 -1.1962  0.8091 -0.9639
  976MOL0     H28768   0.488  11.234   5.649  0.3009  0.4277  1.5456
  976MOL0     H28769   0.413  11.037   5.347  0.4966 -1.3604  1.4393
  976MOL0     H28770   0.355  11.185   5.436 -0.8959  0.9060 -0.7275
  976MOL0     H28771   0.130  11.109   5.447  0.1130 -1.5522  0.9325
  976MOL0     H28772   0.170  10.948   5.375 -3.8874  0.5327 -0.9446
  976MOL0     H28773   0.248  11.081   5.172 -0.1241 -1.5022 -0.7927
  976MOL0     H28774   0.191  11.221   5.251 -1.5261  0.3002  0.4317
  976MOL0     H28775   0.011  10.974   5.209  0.5885  0.3111 -0.4641
  976MOL0     H28776  -0.027  11.134   5.279 -1.3323  0.1764 -0.0496
  976MOL0     H28777   0.107  11.152   5.024  1.0216  0.7757  2.9999
  976MOL0     H28778  -0.042  11.244   5.072 -1.5634  0.0022 -1.9938
  976MOL0     H28779  -0.189  11.036   5.010 -0.3464  1.2312  1.3205
  976MOL0     H28780  -0.043  10.948   4.999  1.3544  1.2314  2.4264
  976MOL0     H28781  -0.211  11.046   4.793  2.1008 -1.6118 -1.4137
  976MOL0     H28782  -0.126  11.192   4.804  3.7241  1.1791 -0.0301
  976MOL0     H28783   0.029  10.933   4.751 -1.8214  0.0608 -1.5164
  976MOL0     H28784   0.074  11.104   4.726 -0.2007  1.7215 -1.9112
  976MOL0     H28785  -0.046  10.832   4.547 -1.8049 -1.1252 -0.6923
  976MOL0     H28786  -0.225  10.928   4.232 -1.5880  0.5565  1.8300
  976MOL0     H28787  -0.186  10.789   4.341  2.9677 -1.1053  1.0755
  976MOL0     H28788  -0.033  10.747   4.179 -1.0707  0.5724 -0.3256
  976MOL0     H28789   0.057  10.879   4.258 -0.8086 -0.7520  1.4732
  976MOL0     H28790  -0.153  10.901   4.027  1.5692 -1.0505 -0.6513
  976MOL0     H28791  -0.062  11.035   4.092  0.8085  1.2391  0.6161
  976MOL0     H28792   0.031  10.968   3.881  0.4695 -1.4150 -0.7545
  976MOL0     H28793   0.061  10.804   3.930 -2.3043 -0.4830 -0.7645
  976MOL0     H28794   0.207  10.901   3.749  0.8752  0.9665 -2.6916
  976MOL0     H28795   0.398  11.011   3.627  0.3176 -0.0372  0.9019
  976MOL0     H28796   0.573  11.208   3.353  0.6694 -0.0303  0.7676
  976MOL0     H28797   0.737  11.236   3.176 -1.6324  0.6399  0.9758
  976MOL0     H28798   1.074  11.038   3.116 -0.8204  0.3594 -0.7443
  976MOL0     H28799   1.164  11.114   3.248  0.7001  4.2090  0.9174
  976MOL0     H28800   1.141  11.236   2.972  2.0339 -0.4882 -0.4786
  976MOL0     H28801   1.273  11.147   3.042  1.3109  0.7769  0.4245
  976MOL0     H28802   1.229  11.326   3.248 -4.4645  0.2701 -0.2532
  976MOL0     H28803   1.175  11.429   3.128  3.2010  1.6674 -2.3682
  976MOL0     H28804   1.455  11.310   3.144 -0.4422 -1.6884 -2.6415
  976MOL0     H28805   1.388  11.375   2.995 -1.7477 -0.0021 -0.0555
  976MOL0     H28806   1.358  11.594   3.091 -0.4164 -0.3173  1.4645
  976MOL0     H28807   1.526  11.553   3.131  0.3520  0.4130  3.7069
  976MOL0     H28808   1.264  11.566   3.305 -0.4292 -1.0759 -4.1850
  976MOL0     H28809   1.401  11.668   3.310  1.3087 -0.2073 -0.8128
  976MOL0     H28810   1.386  11.369   3.409  1.7703 -1.3397 -0.0262
  976MOL0     H28811   1.540  11.464   3.383 -0.3831  1.2594  0.1514
  976MOL0     H28812   1.322  11.521   3.580  1.8538 -0.9811  1.9673
  976MOL0     H28813   1.404  11.655   3.527  1.7787  0.2713  0.0616
  976MOL0     H28814   1.042  11.122   3.464  0.1236  3.7099  2.2085
  976MOL0     H28815   0.878  11.071   3.618  3.5443  1.3347  0.6489
  976MOL0     H28816   0.572  11.120   4.012  1.7091 -1.3510 -1.0879
  976MOL0     H28817   0.386  11.026   4.126 -0.0290 -2.1023 -0.0279
  976MOL0     H28818   0.573  10.814   5.543  4.4198 -0.7956 -0.1129
  976MOL0     H28819   0.787  10.824   5.676  1.2430  0.8340  0.0550
  976MOL0     H28820   1.222  11.158   5.662 -1.4271  2.0139  1.0150
  976MOL0     H28821   1.433  11.108   5.797  1.2761 -0.9809  2.0405
  976MOL0     H28822   1.378  10.990   6.218  0.9667 -2.5550 -1.5188
  976MOL0     H28823   1.496  11.129   6.205  4.3147 -0.2296 -1.5256
  976MOL0     H28824   1.659  10.921   6.121 -0.4963 -1.5486  0.6874
  976MOL0     H28825   1.633  10.961   6.285  0.6103  1.1882 -0.9233
  976MOL0     H28826   1.455  10.757   6.153 -1.6541  0.0323  1.8440
  976MOL0     H28827   1.448  10.799   6.315 -1.7854  1.4928 -2.3693
  976MOL0     H28828   1.686  10.717   6.336  0.2887 -1.9156  2.6678
  976MOL0     H28829   1.569  10.591   6.327 -0.2243  1.2737  0.6268
  976MOL0     H28830   1.840  10.573   5.985 -0.1865 -0.5050 -0.1607
  976MOL0     H28831   1.209  10.961   6.121  1.1183  1.4129  0.3163
  976MOL0     H28832   1.004  10.964   5.972 -1.8711  1.4275 -1.5375
  977MOL0     O28833   7.114   0.157   0.776  0.0846  0.4015  0.1708
  977MOL0     C28834   7.217   0.218   0.732  0.1966  0.4711 -0.4270
  977MOL0     O28835   7.266   0.207   0.600  0.6998  0.1576 -0.1094
  977MOL0     C28836   7.203   0.126   0.511 -0.3487  1.0702 -0.3617
  977MOL0     C28837   7.069   0.099   0.498 -0.8776  0.3452  0.2101
  977MOL0     C28838   7.016  -0.010   0.423  0.6148  0.6756  1.0490
  977MOL0     C28839   7.099  -0.085   0.335  0.1350 -0.2248 -0.5035
  977MOL0     O28840   7.032  -0.167   0.250  0.3462 -0.1303 -0.6494
  977MOL0     C28841   7.113  -0.229   0.148 -0.4266  0.8745 -0.3735
  977MOL0     C28842   7.029  -0.314   0.062 -0.0642  0.8009  0.1566
  977MOL0     C28843   7.098  -0.419  -0.032 -0.1464  0.5131 -0.5023
  977MOL0     C28844   6.995  -0.510  -0.096 -0.1979  0.1755  0.3083
  977MOL0     C28845   7.067  -0.631  -0.163 -0.0133  0.5323 -0.2996
  977MOL0     C28846   6.979  -0.753  -0.192 -1.2317  0.2171 -0.3176
  977MOL0     C28847   6.888  -0.729  -0.311  0.2178  0.3607  0.1662
  977MOL0     C28848   6.823  -0.865  -0.355 -0.2897 -0.6632  0.1812
  977MOL0     N28849   6.918  -0.929  -0.446 -0.5213  0.2142 -0.9673
  977MOL0     C28850   6.998  -1.043  -0.417 -0.4699  0.1234 -0.3981
  977MOL0     C28851   7.054  -1.077  -0.540  0.4149 -0.7800  0.5639
  977MOL0     C28852   7.144  -1.194  -0.557  0.5753 -0.1815  0.5689
  977MOL0     C28853   7.058  -1.315  -0.597  0.7519  0.1440 -0.4077
  977MOL0     C28854   6.990  -1.399  -0.485 -0.5805 -0.0217 -0.3086
  977MOL0     C28855   6.923  -1.521  -0.538  0.7206 -0.5011 -0.2497
  977MOL0     O28856   6.884  -1.601  -0.433 -0.1643 -0.0437  0.1715
  977MOL0     C28857   6.774  -1.571  -0.357  0.9750  0.1942  0.2544
  977MOL0     C28858   6.693  -1.464  -0.385  0.0119  0.0467  0.2279
  977MOL0     C28859   6.585  -1.444  -0.300 -0.0371  0.4084  0.3837
  977MOL0     C28860   6.538  -1.528  -0.195  0.2914 -0.1000  0.0305
  977MOL0     C28861   6.417  -1.491  -0.118  0.2321 -0.1745 -0.1963
  977MOL0     O28862   6.369  -1.575  -0.016 -0.1753 -0.4892 -0.1033
  977MOL0     C28863   6.270  -1.538   0.054  0.4092 -0.2952 -0.5690
  977MOL0     C28864   6.236  -1.403   0.094 -1.0536  0.3555  0.3184
  977MOL0     C28865   6.109  -1.378   0.145  0.1027  0.3213 -0.2309
  977MOL0     C28866   6.014  -1.480   0.185 -0.1065  0.2724  0.5065
  977MOL0     O28867   5.900  -1.435   0.246 -0.2829  0.3449  0.3118
  977MOL0     C28868   5.794  -1.526   0.246  0.1731  0.5406 -0.3289
  977MOL0     C28869   5.667  -1.452   0.257 -0.0396  0.2678 -0.1021
  977MOL0     C28870   5.546  -1.539   0.303 -0.3383 -0.0746  0.2006
  977MOL0     C28871   5.425  -1.455   0.349 -0.7526  0.3379 -0.0464
  977MOL0     C28872   5.310  -1.544   0.405 -0.2787  0.8262  0.4749
  977MOL0     C28873   5.182  -1.467   0.413 -0.5724 -0.6082 -0.0113
  977MOL0     C28874   5.061  -1.542   0.469  0.2427  0.3972 -0.5564
  977MOL0     C28875   5.052  -1.518   0.622 -0.2360 -0.4690  0.0194
  977MOL0    Cl28876   4.886  -1.574   0.683 -0.2983 -0.4148 -0.1882
  977MOL0     C28877   6.057  -1.612   0.179 -0.4551 -0.1910  0.1060
  977MOL0     C28878   6.182  -1.637   0.111  0.3629  0.3173  0.0838
  977MOL0     O28879   6.361  -1.388  -0.154 -0.6081 -0.1883 -0.3349
  977MOL0     C28880   6.610  -1.642  -0.175 -0.3814  0.1358  0.7863
  977MOL0     C28881   6.730  -1.659  -0.253 -0.1591 -0.0314  0.5371
  977MOL0     N28882   7.027  -0.976  -0.634 -0.0662 -0.2219  0.5895
  977MOL0     N28883   6.940  -0.893  -0.575 -0.4329  0.9330 -0.2683
  977MOL0     C28884   7.240  -0.070   0.355 -0.1976  0.5476 -0.4456
  977MOL0     C28885   7.287   0.038   0.437 -0.2257  0.2736  0.7388
  977MOL0     C28886   7.305   0.278   0.835 -0.1924 -0.6221  0.2700
  977MOL0     C28887   7.275   0.269   0.967 -0.3236  1.1099 -0.2109
  977MOL0     C28888   7.380   0.313   1.056  0.5033  0.0339  0.2438
  977MOL0     C28889   7.498   0.379   1.022 -0.0393  0.0828  0.2766
  977MOL0     O28890   7.578   0.420   1.131 -1.1091  0.6415  0.5448
  977MOL0     C28891   7.718   0.473   1.100  1.2529  0.7912  0.4416
  977MOL0     C28892   7.751   0.576   1.210 -0.0396 -0.5771  0.3665
  977MOL0     C28893   7.880   0.638   1.174 -0.4812 -0.5398 -0.0019
  977MOL0     C28894   7.930   0.753   1.262 -0.4316 -0.4199  0.4687
  977MOL0     C28895   7.831   0.857   1.283 -0.5542  0.3213 -0.6933
  977MOL0     C28896   7.742   0.940   1.300 -0.2812 -0.2918 -0.4550
  977MOL0     C28897   7.524   0.394   0.885 -0.0204  0.0339  0.4644
  977MOL0     C28898   7.425   0.349   0.792  0.4715 -0.2591  0.4216
  977MOL0     H28899   7.005   0.162   0.559  0.1672 -0.4146  2.1692
  977MOL0     H28900   6.909  -0.024   0.408  0.9156  0.6025 -1.6187
  977MOL0     H28901   7.182  -0.299   0.196 -0.3460  0.6745 -0.7845
  977MOL0     H28902   7.174  -0.167   0.082 -1.5708  2.2718 -0.1530
  977MOL0     H28903   6.955  -0.266  -0.002 -1.8515 -1.0527  0.7288
  977MOL0     H28904   6.974  -0.372   0.137  1.1940 -0.9562 -0.2041
  977MOL0     H28905   7.165  -0.480   0.028 -1.8359 -1.7482 -0.7638
  977MOL0     H28906   7.151  -0.373  -0.116 -0.6682  0.1304 -1.0515
  977MOL0     H28907   6.935  -0.546  -0.012 -1.5215  3.8149  1.1305
  977MOL0     H28908   6.930  -0.452  -0.163 -0.2803  0.6873  0.8140
  977MOL0     H28909   7.155  -0.663  -0.106 -0.0047  2.1043  0.6115
  977MOL0     H28910   7.116  -0.591  -0.252 -1.2397  0.2398 -1.1223
  977MOL0     H28911   6.926  -0.773  -0.099 -1.0187 -1.0999 -0.4671
  977MOL0     H28912   7.049  -0.834  -0.214 -0.6656  0.5519  0.1962
  977MOL0     H28913   6.819  -0.655  -0.268  1.4671  1.5828  0.1715
  977MOL0     H28914   6.952  -0.689  -0.390  1.1798 -0.9850  0.2358
  977MOL0     H28915   6.740  -0.840  -0.422 -1.0227 -1.3012  0.8359
  977MOL0     H28916   6.803  -0.927  -0.268  3.0174 -2.6257 -0.2672
  977MOL0     H28917   7.005  -1.101  -0.326 -2.4491 -2.9968 -2.0781
  977MOL0     H28918   7.196  -1.209  -0.462  0.3208 -0.0042  0.7377
  977MOL0     H28919   7.219  -1.182  -0.636 -1.5229 -0.3535 -1.5596
  977MOL0     H28920   7.115  -1.379  -0.665  0.6593  1.2904 -1.6104
  977MOL0     H28921   6.976  -1.283  -0.663 -0.6387 -2.4370 -0.0688
  977MOL0     H28922   7.077  -1.430  -0.426 -0.5501 -1.4138 -1.0391
  977MOL0     H28923   6.918  -1.347  -0.421  0.7024 -1.5120  2.5348
  977MOL0     H28924   6.995  -1.576  -0.599  0.3381  0.2382 -1.3965
  977MOL0     H28925   6.842  -1.481  -0.599  1.1132  0.9439  0.1382
  977MOL0     H28926   6.710  -1.387  -0.460 -1.5434  0.8424  0.6421
  977MOL0     H28927   6.539  -1.349  -0.325 -1.7155 -0.6968 -0.9381
  977MOL0     H28928   6.294  -1.317   0.062 -2.0567  0.0009 -2.7884
  977MOL0     H28929   6.074  -1.276   0.159  1.3881  0.4396  2.9517
  977MOL0     H28930   5.807  -1.587   0.336 -1.2609 -1.7776 -1.5956
  977MOL0     H28931   5.798  -1.582   0.152  0.7547  0.8834 -0.5164
  977MOL0     H28932   5.646  -1.404   0.160  1.9720 -0.0857 -0.7512
  977MOL0     H28933   5.674  -1.366   0.325  2.7037  0.0601 -0.0128
  977MOL0     H28934   5.579  -1.601   0.386  1.3255  0.3371 -0.1067
  977MOL0     H28935   5.521  -1.614   0.228 -0.6531 -2.5929  2.6800
  977MOL0     H28936   5.459  -1.379   0.420  0.8237 -0.3455 -0.0367
  977MOL0     H28937   5.396  -1.406   0.256  4.2190  0.7559 -1.6561
  977MOL0     H28938   5.340  -1.555   0.509  5.3952  1.8571 -0.7179
  977MOL0     H28939   5.301  -1.642   0.356 -0.1599  0.7079  0.6877
  977MOL0     H28940   5.166  -1.433   0.310  4.9276  2.7104 -0.1763
  977MOL0     H28941   5.211  -1.375   0.465  0.4602 -0.6322 -0.5066
  977MOL0     H28942   4.966  -1.516   0.422  0.4286 -0.0227 -1.1739
  977MOL0     H28943   5.070  -1.649   0.452 -2.2002  0.1216 -0.4924
  977MOL0     H28944   5.069  -1.411   0.642  1.2473 -0.5188 -0.8277
  977MOL0     H28945   5.132  -1.573   0.672 -1.4161 -0.6082  1.8157
  977MOL0     H28946   5.999  -1.694   0.220 -2.1085 -1.1819 -3.7936
  977MOL0     H28947   6.222  -1.737   0.119 -2.0451 -0.8138 -0.9719
  977MOL0     H28948   6.589  -1.717  -0.100 -1.1332  0.0957  0.5463
  977MOL0     H28949   6.779  -1.748  -0.216  0.7806  0.2700  0.0463
  977MOL0     H28950   7.321  -0.130   0.313 -0.1074  1.4607 -1.6231
  977MOL0     H28951   7.395   0.028   0.439 -0.3368 -2.7584 -1.5798
  977MOL0     H28952   7.183   0.224   1.004  1.6185 -2.8157  0.3304
  977MOL0     H28953   7.367   0.292   1.162 -0.6337 -2.9198 -0.3676
  977MOL0     H28954   7.726   0.525   1.004 -1.6143 -0.7273 -0.7483
  977MOL0     H28955   7.787   0.390   1.114  3.4857  2.1609 -1.6543
  977MOL0     H28956   7.666   0.645   1.209  0.0095 -0.5105 -1.1107
  977MOL0     H28957   7.752   0.532   1.310 -0.5616  1.5013  1.3517
  977MOL0     H28958   7.870   0.673   1.071  2.8929 -2.4625 -1.1235
  977MOL0     H28959   7.960   0.564   1.169 -0.9555 -1.5465  3.9600
  977MOL0     H28960   7.973   0.715   1.355 -0.1398 -0.1462  0.4478
  977MOL0     H28961   8.019   0.801   1.220  2.3943 -3.0894  2.8978
  977MOL0     H28962   7.665   1.005   1.337 -0.3910 -0.8563  0.3522
  977MOL0     H28963   7.612   0.442   0.844  3.9501 -0.9953  6.4969
  977MOL0     H28964   7.430   0.371   0.686  0.4346  1.1176  0.6842
  978MOL0     O28965   1.037   1.283   2.904 -0.4220  0.1987  0.2933
  978MOL0     C28966   0.998   1.235   3.010  1.1198  0.0398  0.9831
  978MOL0     O28967   1.074   1.200   3.115 -0.5266  0.4219 -0.2186
  978MOL0     C28968   1.203   1.239   3.118 -0.2911  0.2551 -0.8558
  978MOL0     C28969   1.237   1.368   3.164 -0.4762  0.0166 -0.4556
  978MOL0     C28970   1.370   1.405   3.182 -0.6604  0.3617  0.3698
  978MOL0     C28971   1.480   1.321   3.157 -0.5495  1.3189 -0.8997
  978MOL0     O28972   1.612   1.348   3.166 -0.3729 -0.2020  0.1592
  978MOL0     C28973   1.672   1.402   3.046  0.5712  0.5244  0.0377
  978MOL0     C28974   1.829   1.403   3.066  1.1623  0.2297 -0.0740
  978MOL0     C28975   1.900   1.405   2.927  0.4767 -0.4462  0.0033
  978MOL0     C28976   2.050   1.358   2.946  0.4649 -0.3400  0.1788
  978MOL0     C28977   2.105   1.304   2.818 -0.5048  0.2835  0.5110
  978MOL0     C28978   2.251   1.255   2.831  0.2072  0.3052 -0.0220
  978MOL0     C28979   2.262   1.139   2.934  0.1389 -0.4337  0.4941
  978MOL0     C28980   2.392   1.065   2.943  0.3888 -0.1543 -0.7770
  978MOL0     N28981   2.430   1.026   2.807 -0.4519 -0.2224 -0.0595
  978MOL0     C28982   2.414   0.896   2.762 -0.2713 -0.5269  0.2232
  978MOL0     C28983   2.493   0.890   2.652 -0.1387  0.2096 -0.4601
  978MOL0     C28984   2.507   0.767   2.557  0.7003  0.1922 -0.6901
  978MOL0     C28985   2.658   0.738   2.539  0.0795 -0.1821 -0.0662
  978MOL0     C28986   2.698   0.689   2.398  0.1752  0.0255  0.7427
  978MOL0     C28987   2.846   0.685   2.377 -0.2426 -0.2344  0.3484
  978MOL0     O28988   2.874   0.618   2.262 -0.2043  0.2402 -0.0510
  978MOL0     C28989   3.005   0.634   2.212 -0.3589  1.1836 -1.4814
  978MOL0     C28990   3.043   0.572   2.099 -0.4011  0.4938  0.4762
  978MOL0     C28991   3.169   0.584   2.047 -0.4961 -0.1476  0.2297
  978MOL0     C28992   3.267   0.660   2.110 -0.8328  0.4167  0.3269
  978MOL0     C28993   3.406   0.693   2.054  0.0236  0.1894 -0.0761
  978MOL0     O28994   3.485   0.796   2.114 -0.2950  1.2695 -0.1989
  978MOL0     C28995   3.599   0.839   2.056  0.7146 -0.9976 -0.1194
  978MOL0     C28996   3.633   0.838   1.916 -0.2975  0.6428 -1.1149
  978MOL0     C28997   3.759   0.896   1.880  0.0724  0.3997 -0.7168
  978MOL0     C28998   3.847   0.949   1.967 -0.5906 -0.1561  0.3304
  978MOL0     O28999   3.966   1.005   1.919 -0.4887  0.1992 -0.1160
  978MOL0     C29000   4.023   0.964   1.798  0.4712  0.0427  0.3841
  978MOL0     C29001   4.163   1.015   1.785  0.2619  0.3030 -0.0141
  978MOL0     C29002   4.267   0.990   1.905 -0.0486 -0.1879  0.1074
  978MOL0     C29003   4.403   1.022   1.857  0.0667  0.4402 -0.1255
  978MOL0     C29004   4.501   1.034   1.979  0.4817 -0.0468 -0.1904
  978MOL0     C29005   4.643   1.066   1.921  0.2115 -0.2715  0.6397
  978MOL0     C29006   4.768   1.043   2.007 -0.4119 -0.5627  0.0887
  978MOL0     C29007   4.757   1.126   2.140 -0.5035  0.0549 -0.5751
  978MOL0    Cl29008   4.884   1.091   2.261  0.0008 -0.3416  0.4208
  978MOL0     C29009   3.812   0.965   2.105 -0.7413 -0.5125  0.5087
  978MOL0     C29010   3.686   0.911   2.145 -0.8535 -0.0608  0.4247
  978MOL0     O29011   3.434   0.633   1.945 -0.2516 -0.6192 -0.5615
  978MOL0     C29012   3.242   0.713   2.235 -0.2281 -0.1052  0.7438
  978MOL0     C29013   3.107   0.698   2.285  0.0639  0.1749 -0.0227
  978MOL0     N29014   2.551   1.014   2.634  0.4971 -0.4532  0.0564
  978MOL0     N29015   2.518   1.094   2.728  0.9625 -0.4110  0.2170
  978MOL0     C29016   1.442   1.201   3.109  0.4995 -0.3863  0.0869
  978MOL0     C29017   1.309   1.153   3.081 -0.3489  0.3213 -0.2738
  978MOL0     C29018   0.854   1.199   3.024  0.7756  0.1586  0.4014
  978MOL0     C29019   0.809   1.088   3.103  0.4263  0.6757 -1.2118
  978MOL0     C29020   0.681   1.040   3.101 -0.0064 -0.9585 -0.1586
  978MOL0     C29021   0.584   1.113   3.026 -0.1426 -0.1602 -0.7500
  978MOL0     O29022   0.459   1.061   3.039  0.0910  0.2164  0.6901
  978MOL0     C29023   0.341   1.143   3.001 -0.4293 -0.1312  0.5730
  978MOL0     C29024   0.216   1.082   3.074 -0.0329 -0.0241 -0.1186
  978MOL0     C29025   0.220   1.094   3.229  0.5082 -0.2113 -0.1225
  978MOL0     C29026   0.077   1.119   3.301 -0.3436  0.1436 -0.7868
  978MOL0     C29027  -0.034   1.041   3.244  0.2566  0.4492  0.3430
  978MOL0     C29028  -0.122   0.975   3.193  0.3886 -0.2887 -0.8872
  978MOL0     C29029   0.618   1.221   2.952 -0.5386 -0.4633 -0.7175
  978MOL0     C29030   0.756   1.263   2.942 -0.1823 -0.9405 -0.0970
  978MOL0     H29031   1.153   1.429   3.196 -2.1007 -2.9576  1.4765
  978MOL0     H29032   1.401   1.502   3.220  0.1534 -1.3060  4.4204
  978MOL0     H29033   1.640   1.506   3.048  3.4934  1.5259  1.4282
  978MOL0     H29034   1.631   1.356   2.955  1.8209 -0.8223  0.1019
  978MOL0     H29035   1.842   1.313   3.126 -0.1362  0.4870  0.6238
  978MOL0     H29036   1.864   1.484   3.130 -1.2485 -1.0082  3.0482
  978MOL0     H29037   1.885   1.504   2.884 -0.9541  1.8358  4.9558
  978MOL0     H29038   1.847   1.331   2.867 -2.0069  0.1026  1.3953
  978MOL0     H29039   2.106   1.448   2.972 -0.1888 -0.2929  1.5037
  978MOL0     H29040   2.060   1.287   3.028  3.9217 -2.0075 -1.4539
  978MOL0     H29041   2.105   1.389   2.750 -0.7729 -0.7966 -0.8792
  978MOL0     H29042   2.046   1.230   2.763 -0.8017  0.6728  0.3058
  978MOL0     H29043   2.312   1.335   2.875 -0.0378 -0.3243  1.5284
  978MOL0     H29044   2.287   1.231   2.731 -2.4348 -1.3860 -0.6442
  978MOL0     H29045   2.225   1.175   3.030  1.1233 -0.0576  0.7467
  978MOL0     H29046   2.189   1.066   2.899 -1.5606  1.6182 -0.4730
  978MOL0     H29047   2.370   0.976   3.003  2.5539 -0.6284 -0.6059
  978MOL0     H29048   2.476   1.114   2.993  0.3927 -0.3757 -0.5632
  978MOL0     H29049   2.352   0.811   2.788  0.9740 -0.9574  1.9139
  978MOL0     H29050   2.458   0.808   2.468  0.6934 -0.5715 -1.0475
  978MOL0     H29051   2.447   0.680   2.586  2.0819 -0.2993  0.7878
  978MOL0     H29052   2.685   0.657   2.607 -0.6715 -0.3011  0.0985
  978MOL0     H29053   2.722   0.826   2.554  0.9013  0.1178 -4.2223
  978MOL0     H29054   2.654   0.589   2.396 -4.2646  1.7247  1.1869
  978MOL0     H29055   2.652   0.746   2.316  1.4356  0.2890  0.1888
  978MOL0     H29056   2.905   0.636   2.456 -0.3494 -1.8639 -0.5430
  978MOL0     H29057   2.871   0.791   2.371 -1.6358  0.0683 -0.5639
  978MOL0     H29058   2.968   0.532   2.030 -0.9250  1.2470  0.5980
  978MOL0     H29059   3.185   0.542   1.949  0.1490  0.4660  0.0638
  978MOL0     H29060   3.565   0.795   1.844  1.2267  0.3064 -2.4123
  978MOL0     H29061   3.787   0.878   1.776 -0.8380 -0.0281 -0.9008
  978MOL0     H29062   3.967   0.996   1.710  3.8477 -0.0743 -2.0053
  978MOL0     H29063   4.025   0.854   1.794 -1.0845 -0.0154  0.7065
  978MOL0     H29064   4.154   1.124   1.786  1.8124  0.4522 -0.0190
  978MOL0     H29065   4.199   0.978   1.689 -2.0493  0.7204 -1.1094
  978MOL0     H29066   4.264   0.885   1.933 -3.2057 -0.5873 -1.3127
  978MOL0     H29067   4.233   1.059   1.984 -2.9994 -0.1032 -1.1120
  978MOL0     H29068   4.432   0.944   1.787 -0.6736 -0.6901  0.7931
  978MOL0     H29069   4.403   1.114   1.797 -4.1439  0.2982 -0.6650
  978MOL0     H29070   4.503   0.938   2.031 -2.4154 -0.5309 -0.7850
  978MOL0     H29071   4.474   1.112   2.051  4.7224 -2.2495  4.3729
  978MOL0     H29072   4.644   1.170   1.889 -0.0665 -0.7696 -1.0694
  978MOL0     H29073   4.647   1.012   1.826 -0.9853  1.8382 -0.6938
  978MOL0     H29074   4.782   0.935   2.015 -0.1847 -0.4476  1.5615
  978MOL0     H29075   4.852   1.074   1.944 -0.2005 -1.4054 -0.0529
  978MOL0     H29076   4.668   1.078   2.182  0.7705 -2.3314 -0.3990
  978MOL0     H29077   4.745   1.232   2.117  0.5170 -0.0122 -1.5413
  978MOL0     H29078   3.874   1.002   2.186  1.0956 -2.5200  0.1006
  978MOL0     H29079   3.659   0.917   2.250  0.7441  1.2692  0.7973
  978MOL0     H29080   3.315   0.762   2.298  1.8836 -1.6636 -0.3801
  978MOL0     H29081   3.090   0.751   2.378 -1.3852  0.6108 -0.4997
  978MOL0     H29082   1.522   1.132   3.081 -1.1497 -1.5843 -1.9068
  978MOL0     H29083   1.298   1.062   3.023  1.5401 -0.3189  0.3055
  978MOL0     H29084   0.873   1.025   3.164 -1.1671  0.7928  0.6926
  978MOL0     H29085   0.657   0.944   3.146 -0.1780 -1.3382 -1.0322
  978MOL0     H29086   0.334   1.133   2.893  0.8212 -1.1425  0.5631
  978MOL0     H29087   0.339   1.251   3.020  0.6106  1.4225 -5.9630
  978MOL0     H29088   0.126   1.129   3.032  0.3597 -0.9958 -2.1916
  978MOL0     H29089   0.202   0.974   3.061 -2.2887  0.1012  0.7756
  978MOL0     H29090   0.280   1.179   3.264 -0.9024  0.7928 -0.0430
  978MOL0     H29091   0.263   0.999   3.261 -2.0113 -1.9686 -1.5189
  978MOL0     H29092   0.082   1.087   3.405  0.3569 -1.0068 -1.1616
  978MOL0     H29093   0.047   1.224   3.292 -0.2599  0.2136 -0.2879
  978MOL0     H29094  -0.203   0.921   3.148  1.8072 -1.3328 -2.3092
  978MOL0     H29095   0.544   1.288   2.908  1.1592  0.8290 -1.7419
  978MOL0     H29096   0.780   1.349   2.881  2.0733 -2.3628 -1.4010
  979MOL0     O29097   9.399   7.308   5.065  0.5870  0.4742  0.7238
  979MOL0     C29098   9.350   7.201   5.109  0.3322 -1.1270  0.5306
  979MOL0     O29099   9.219   7.167   5.095  0.4022 -0.4589 -0.3595
  979MOL0     C29100   9.132   7.262   5.042 -0.3898  0.3564 -0.6823
  979MOL0     C29101   9.080   7.372   5.112 -0.1592  0.0650 -0.5342
  979MOL0     C29102   8.976   7.448   5.054  0.0676 -0.0924  0.5608
  979MOL0     C29103   8.940   7.430   4.920 -0.1572 -0.4622 -0.0495
  979MOL0     O29104   8.837   7.511   4.875 -0.0919  0.6024 -0.2341
  979MOL0     C29105   8.815   7.530   4.738 -0.0984  0.5952 -0.1717
  979MOL0     C29106   8.703   7.451   4.698  0.4713 -0.1712 -0.2432
  979MOL0     C29107   8.566   7.500   4.734  0.5138  0.1000 -0.1914
  979MOL0     C29108   8.466   7.386   4.692 -0.4163 -0.2665  0.3661
  979MOL0     C29109   8.329   7.430   4.722  0.2058  0.4002 -0.5034
  979MOL0     C29110   8.209   7.343   4.668  0.3680 -0.6772  0.2520
  979MOL0     C29111   8.075   7.408   4.711 -0.5727 -0.3007  0.0579
  979MOL0     C29112   8.057   7.453   4.853 -0.1051  0.3759 -0.3712
  979MOL0     N29113   7.917   7.438   4.890  0.2097  0.2803 -0.1016
  979MOL0     C29114   7.851   7.356   4.982 -0.5980  0.5010  1.0419
  979MOL0     C29115   7.720   7.392   4.988  0.1450 -0.5961 -0.3808
  979MOL0     C29116   7.620   7.329   5.085  0.4480 -0.4209  0.2359
  979MOL0     C29117   7.580   7.435   5.195  0.4148 -0.6316 -0.1929
  979MOL0     C29118   7.458   7.391   5.282  0.3047 -0.5671 -0.6395
  979MOL0     C29119   7.475   7.264   5.370 -0.1875 -0.6329  0.4441
  979MOL0     O29120   7.359   7.235   5.453  0.5748 -0.9542 -0.5352
  979MOL0     C29121   7.239   7.191   5.398  0.5721 -0.1304  0.2467
  979MOL0     C29122   7.136   7.174   5.488 -0.3234  0.2191  0.3450
  979MOL0     C29123   7.016   7.108   5.452 -0.1485 -1.7837  0.4050
  979MOL0     C29124   6.998   7.063   5.315  0.6696 -0.3481 -0.3034
  979MOL0     C29125   6.861   7.021   5.274 -0.0770 -0.0620  0.3535
  979MOL0     O29126   6.769   6.998   5.365 -0.5086  0.3979 -0.4005
  979MOL0     C29127   6.654   6.940   5.332 -0.8508  1.0188 -0.4114
  979MOL0     C29128   6.540   7.018   5.356 -0.8611 -0.7700  0.6176
  979MOL0     C29129   6.414   6.966   5.328 -0.7006 -0.1216  0.6120
  979MOL0     C29130   6.401   6.839   5.274 -0.5934  0.9807 -0.7234
  979MOL0     O29131   6.274   6.788   5.264 -0.0326 -0.8624  0.1152
  979MOL0     C29132   6.191   6.851   5.165  0.7451 -0.5706 -0.1903
  979MOL0     C29133   6.064   6.771   5.152  0.0889 -1.1446  0.4240
  979MOL0     C29134   5.983   6.793   5.285 -0.5484 -0.0617 -0.4418
  979MOL0     C29135   5.866   6.695   5.286 -0.7492  0.5153  0.3538
  979MOL0     C29136   5.736   6.736   5.223  0.3820 -0.1746 -0.6744
  979MOL0     C29137   5.618   6.633   5.222 -0.2033 -0.0058  0.5710
  979MOL0     C29138   5.484   6.683   5.163 -0.2336  0.7206 -0.7949
  979MOL0     C29139   5.368   6.574   5.187  1.1257 -0.0121 -0.9014
  979MOL0    Cl29140   5.211   6.662   5.218  0.0683  0.2754  0.3839
  979MOL0     C29141   6.514   6.760   5.250 -0.0830 -0.4826  0.0908
  979MOL0     C29142   6.643   6.814   5.278  0.6300  0.3228 -0.7144
  979MOL0     O29143   6.845   6.998   5.155 -0.1970  0.1298  0.0050
  979MOL0     C29144   7.104   7.080   5.226  0.0309 -0.7978 -0.3299
  979MOL0     C29145   7.216   7.146   5.267 -0.0129 -0.7111  0.0916
  979MOL0     N29146   7.705   7.512   4.908  0.6533 -0.0321  0.2622
  979MOL0     N29147   7.829   7.534   4.858  1.3116 -0.0175  0.0272
  979MOL0     C29148   9.003   7.330   4.852  0.6722 -0.0555  0.6119
  979MOL0     C29149   9.102   7.245   4.909  0.6632 -0.0536  1.5663
  979MOL0     C29150   9.433   7.108   5.182  0.5184  0.2686  0.6244
  979MOL0     C29151   9.389   6.976   5.223  0.5601  0.2356 -0.2189
  979MOL0     C29152   9.473   6.890   5.293  0.6261 -0.0322  0.3384
  979MOL0     C29153   9.604   6.929   5.320  0.1506  0.0844 -0.1891
  979MOL0     O29154   9.680   6.841   5.396  0.0581  0.6732 -0.2666
  979MOL0     C29155   9.811   6.889   5.427 -0.5565  0.5490 -0.0728
  979MOL0     C29156   9.886   6.811   5.540  0.1830 -0.2574 -0.0482
  979MOL0     C29157   9.996   6.899   5.605 -0.4844 -0.6671 -0.7701
  979MOL0     C29158  10.112   6.816   5.660  0.2376  1.1472 -0.0722
  979MOL0     C29159  10.235   6.890   5.674 -0.5626 -0.0754 -0.3300
  979MOL0     C29160  10.333   6.958   5.673 -0.2463  0.0327  0.4912
  979MOL0     C29161   9.648   7.047   5.256 -0.6755 -0.2720 -0.2309
  979MOL0     C29162   9.567   7.146   5.197 -0.7090  0.8887 -0.3954
  979MOL0     H29163   9.116   7.386   5.213 -0.4751 -3.5266  0.2225
  979MOL0     H29164   8.929   7.531   5.104  0.6976  1.1707 -0.8402
  979MOL0     H29165   8.895   7.495   4.673 -0.1050  0.1779  0.0432
  979MOL0     H29166   8.809   7.637   4.717  0.8735  0.3189 -2.0326
  979MOL0     H29167   8.716   7.348   4.730  1.0541  0.5802  2.1763
  979MOL0     H29168   8.706   7.453   4.589  3.0523  3.0614 -0.2967
  979MOL0     H29169   8.538   7.590   4.679 -0.6641  0.6437  1.2284
  979MOL0     H29170   8.544   7.517   4.840  3.2371 -0.0954  0.4840
  979MOL0     H29171   8.484   7.387   4.584  2.4794 -0.8588  0.7673
  979MOL0     H29172   8.498   7.300   4.751  0.9537  0.9956  1.5342
  979MOL0     H29173   8.313   7.530   4.681 -0.4562  1.5889  2.4637
  979MOL0     H29174   8.325   7.433   4.831 -0.5980  0.2421 -0.5259
  979MOL0     H29175   8.214   7.241   4.708 -0.1095 -1.6509 -2.0227
  979MOL0     H29176   8.224   7.349   4.560  0.9321  1.1667  0.3923
  979MOL0     H29177   8.063   7.500   4.654 -1.4876  0.2068  1.0374
  979MOL0     H29178   8.001   7.335   4.678  0.1218  0.2665 -3.0599
  979MOL0     H29179   8.095   7.555   4.866  3.3567 -0.6331 -1.5361
  979MOL0     H29180   8.110   7.383   4.917 -0.1838  0.6788  0.0315
  979MOL0     H29181   7.903   7.271   5.026  1.2676 -1.0608 -3.5336
  979MOL0     H29182   7.679   7.250   5.134  0.0351  0.5630  2.4646
  979MOL0     H29183   7.535   7.288   5.030  2.0118  0.0359 -2.7380
  979MOL0     H29184   7.553   7.526   5.141 -2.3990 -2.2203 -1.7544
  979MOL0     H29185   7.665   7.445   5.262 -0.6933 -2.4588  1.6074
  979MOL0     H29186   7.437   7.481   5.340 -1.1573 -0.1179 -1.8154
  979MOL0     H29187   7.363   7.378   5.230 -0.7771 -0.4704  1.2175
  979MOL0     H29188   7.571   7.274   5.423  1.7180  0.5994 -2.9469
  979MOL0     H29189   7.485   7.181   5.299  0.5861 -1.6651  1.7082
  979MOL0     H29190   7.148   7.200   5.593  0.7981 -2.7090  1.0399
  979MOL0     H29191   6.932   7.099   5.520  0.1133 -1.7675  0.7346
  979MOL0     H29192   6.548   7.110   5.414  2.9401 -1.4374  1.4168
  979MOL0     H29193   6.330   7.030   5.356 -1.2009 -0.2699 -0.4803
  979MOL0     H29194   6.237   6.846   5.065 -0.4579  1.0168 -0.8577
  979MOL0     H29195   6.170   6.956   5.186  0.6501 -0.1258 -2.2626
  979MOL0     H29196   6.098   6.669   5.132  2.1852 -0.6607  1.3495
  979MOL0     H29197   6.000   6.811   5.072 -0.2529  0.6182  1.5190
  979MOL0     H29198   5.945   6.895   5.296  0.3015  0.0789  1.8151
  979MOL0     H29199   6.045   6.782   5.375 -1.0398 -0.6107 -0.1663
  979MOL0     H29200   5.900   6.607   5.231 -1.0254  0.9554 -0.5378
  979MOL0     H29201   5.858   6.650   5.385  1.8462 -1.7483 -0.3447
  979MOL0     H29202   5.766   6.765   5.122  3.8636 -0.5290  0.1310
  979MOL0     H29203   5.706   6.829   5.272  3.2648  0.6017 -0.2499
  979MOL0     H29204   5.607   6.581   5.318 -0.3042 -3.1786 -1.0156
  979MOL0     H29205   5.649   6.556   5.152  0.9404 -1.1180  2.2145
  979MOL0     H29206   5.462   6.774   5.221 -0.2834 -0.1521  0.5901
  979MOL0     H29207   5.484   6.711   5.057 -1.7386  1.8529 -0.5462
  979MOL0     H29208   5.390   6.501   5.265  0.8995 -0.3922 -1.1915
  979MOL0     H29209   5.359   6.508   5.100 -3.7170  2.6679 -2.7886
  979MOL0     H29210   6.511   6.661   5.206 -1.5617 -0.1730 -0.5574
  979MOL0     H29211   6.730   6.752   5.262 -0.2995 -1.6952  1.4583
  979MOL0     H29212   7.087   7.049   5.123 -0.8476 -2.6005  0.3202
  979MOL0     H29213   7.301   7.153   5.200  0.3970  3.4695  0.7710
  979MOL0     H29214   8.977   7.311   4.748  1.1042 -1.6589  0.7706
  979MOL0     H29215   9.142   7.165   4.847  0.9147  0.1735  1.4296
  979MOL0     H29216   9.290   6.938   5.201  0.1347 -2.2737  4.7210
  979MOL0     H29217   9.431   6.797   5.329  2.0695  0.0808  2.4849
  979MOL0     H29218   9.798   6.988   5.472 -0.8417 -0.5402  2.3878
  979MOL0     H29219   9.881   6.901   5.344  1.1302  0.9805  1.3332
  979MOL0     H29220   9.813   6.775   5.613  0.5346  0.6911  0.7892
  979MOL0     H29221   9.935   6.724   5.494 -1.8340 -0.8047 -1.2840
  979MOL0     H29222   9.949   6.965   5.678 -0.3180  1.0286 -2.1418
  979MOL0     H29223  10.034   6.977   5.538 -1.8252 -1.6228 -2.7437
  979MOL0     H29224  10.082   6.763   5.750 -2.1619 -0.0594 -1.4910
  979MOL0     H29225  10.133   6.745   5.579  3.7278  2.1458 -0.2208
  979MOL0     H29226  10.417   7.025   5.678 -0.9741  1.5375 -3.6147
  979MOL0     H29227   9.752   7.077   5.265 -0.0977 -2.1420 -0.2581
  979MOL0     H29228   9.621   7.232   5.158 -0.6261  0.9406 -0.1642
  980MOL0     O29229   0.615   4.065   4.336 -0.0880 -0.6449 -0.3451
  980MOL0     C29230   0.624   3.975   4.255 -0.0643  0.0189 -0.0250
  980MOL0     O29231   0.541   3.869   4.239 -0.2291 -0.2464 -0.6027
  980MOL0     C29232   0.418   3.859   4.301 -1.1519 -0.4596  0.3688
  980MOL0     C29233   0.364   3.730   4.318  0.2107  0.8469 -0.3269
  980MOL0     C29234   0.238   3.705   4.387  1.0991 -0.8674 -0.7374
  980MOL0     C29235   0.162   3.812   4.434 -0.6372 -0.1523  0.1092
  980MOL0     O29236   0.048   3.799   4.510  0.4010 -0.2305 -0.5469
  980MOL0     C29237  -0.070   3.843   4.438 -0.2941 -0.3361  0.2965
  980MOL0     C29238  -0.197   3.822   4.521 -0.3911 -0.5079  0.0093
  980MOL0     C29239  -0.312   3.886   4.439  0.1770  0.6932  0.1394
  980MOL0     C29240  -0.436   3.911   4.534  0.3664  0.2928  0.5195
  980MOL0     C29241  -0.490   3.779   4.591 -0.4988 -0.4563 -0.9448
  980MOL0     C29242  -0.575   3.802   4.713 -0.8280 -0.4841 -0.2367
  980MOL0     C29243  -0.499   3.857   4.839  0.0867 -0.3075  1.0118
  980MOL0     C29244  -0.598   3.850   4.952 -0.5537  0.5333  0.0154
  980MOL0     N29245  -0.707   3.950   4.957 -0.6203  0.1826 -0.1733
  980MOL0     C29246  -0.834   3.944   4.913  0.5521 -0.6570  0.9056
  980MOL0     C29247  -0.888   4.063   4.907  0.0933 -0.2099 -0.0410
  980MOL0     C29248  -1.023   4.113   4.851 -0.2324 -0.2765 -1.1042
  980MOL0     C29249  -1.124   4.141   4.963 -0.5816  0.5936  0.5519
  980MOL0     C29250  -1.201   4.015   5.002  0.2888 -0.2338  0.3580
  980MOL0     C29251  -1.297   3.966   4.900  0.4508  0.0245  0.3444
  980MOL0     O29252  -1.389   4.066   4.867 -0.5216  0.0631 -0.2937
  980MOL0     C29253  -1.508   4.025   4.829  0.1410  0.1832 -0.0947
  980MOL0     C29254  -1.535   3.922   4.743 -0.9503 -0.5900  0.2378
  980MOL0     C29255  -1.668   3.884   4.717  0.6967 -0.1289  0.4787
  980MOL0     C29256  -1.778   3.941   4.785  0.7052  0.2544  0.2811
  980MOL0     C29257  -1.917   3.900   4.772  1.1794  0.0382  0.8336
  980MOL0     O29258  -1.936   3.780   4.711 -0.1735 -0.1912 -0.3485
  980MOL0     C29259  -2.070   3.750   4.667 -0.2766 -0.0244 -0.0812
  980MOL0     C29260  -2.160   3.684   4.747 -0.0638  0.5310 -0.0867
  980MOL0     C29261  -2.293   3.666   4.705 -0.5295  0.4197 -0.5408
  980MOL0     C29262  -2.330   3.709   4.578 -0.2005 -0.1818  0.0003
  980MOL0     O29263  -2.458   3.706   4.525  0.7151 -0.8624 -0.8885
  980MOL0     C29264  -2.567   3.712   4.617  0.2173 -0.2971  0.5418
  980MOL0     C29265  -2.687   3.733   4.521 -0.6536 -0.3588 -0.2636
  980MOL0     C29266  -2.822   3.722   4.602  1.2920  0.0856  0.7348
  980MOL0     C29267  -2.875   3.582   4.621 -0.3455  0.4308 -0.5881
  980MOL0     C29268  -3.022   3.575   4.663 -0.3541  0.2858  0.4200
  980MOL0     C29269  -3.052   3.612   4.804 -0.6831  0.3170 -0.0009
  980MOL0     C29270  -3.204   3.573   4.830 -0.8523  0.7470  0.6179
  980MOL0     C29271  -3.230   3.539   4.981  0.5104  0.6713  0.2333
  980MOL0    Cl29272  -3.194   3.680   5.093  0.0771 -0.2910  0.4729
  980MOL0     C29273  -2.235   3.777   4.505 -0.4322  0.4406 -0.4606
  980MOL0     C29274  -2.105   3.807   4.549 -0.1225  0.5290 -0.6920
  980MOL0     O29275  -2.010   3.980   4.808 -1.5272  0.7256  0.0377
  980MOL0     C29276  -1.751   4.059   4.851 -0.7734 -0.1297  0.6174
  980MOL0     C29277  -1.619   4.099   4.873 -0.8351  0.4196  0.3317
  980MOL0     N29278  -0.786   4.153   4.933 -0.2369 -0.4352  0.7345
  980MOL0     N29279  -0.681   4.087   4.971 -0.0656  0.6823  0.9805
  980MOL0     C29280   0.209   3.940   4.402 -0.0643 -0.1848 -0.0788
  980MOL0     C29281   0.334   3.961   4.343 -0.6716  0.8521  0.2558
  980MOL0     C29282   0.748   3.982   4.167  0.0616  0.2195  0.1969
  980MOL0     C29283   0.779   3.860   4.105 -0.0213 -0.0939  0.2275
  980MOL0     C29284   0.905   3.861   4.032 -0.1022  0.5040 -0.1726
  980MOL0     C29285   0.989   3.974   4.032  0.3211  0.1718 -0.5628
  980MOL0     O29286   1.105   3.954   3.965 -0.3288  0.1232  0.3351
  980MOL0     C29287   1.222   4.006   4.022  0.0861 -0.4701  0.5286
  980MOL0     C29288   1.334   3.920   3.969 -0.4677 -0.3289  0.3206
  980MOL0     C29289   1.466   3.979   3.994 -0.4606  0.1424  0.7022
  980MOL0     C29290   1.569   3.914   3.906 -0.6606 -0.6367 -0.7941
  980MOL0     C29291   1.710   3.949   3.943 -0.1012  0.5283  0.1706
  980MOL0     C29292   1.818   3.966   4.007  0.8236  1.2121  0.4014
  980MOL0     C29293   0.952   4.094   4.087  0.8965  0.5402 -0.3805
  980MOL0     C29294   0.827   4.102   4.160  0.4366  0.9041 -0.1107
  980MOL0     H29295   0.428   3.649   4.284 -0.8809 -0.2297  0.0836
  980MOL0     H29296   0.204   3.605   4.411  2.2683 -1.2458 -0.5936
  980MOL0     H29297  -0.079   3.784   4.347  0.5173 -0.6355  0.4058
  980MOL0     H29298  -0.057   3.948   4.408 -0.2312  0.1216  1.8389
  980MOL0     H29299  -0.196   3.858   4.625 -0.7801 -1.8844  0.5147
  980MOL0     H29300  -0.218   3.715   4.527 -4.7263  0.1576 -0.3437
  980MOL0     H29301  -0.337   3.837   4.345 -2.1653  0.0686  1.0118
  980MOL0     H29302  -0.287   3.988   4.412 -5.5360  2.1213 -0.9267
  980MOL0     H29303  -0.389   3.981   4.604  3.2715 -1.1831  0.2105
  980MOL0     H29304  -0.521   3.966   4.494 -0.6247 -3.5187 -3.3489
  980MOL0     H29305  -0.410   3.710   4.619  0.5911  0.8710 -0.6759
  980MOL0     H29306  -0.561   3.737   4.518 -0.8610 -1.0757 -0.2385
  980MOL0     H29307  -0.615   3.704   4.742  0.7861 -0.0782  4.0353
  980MOL0     H29308  -0.655   3.872   4.688  0.7015  1.9750  1.3429
  980MOL0     H29309  -0.410   3.799   4.867 -0.1398 -1.6466 -0.8153
  980MOL0     H29310  -0.471   3.962   4.828 -0.6747 -0.3009 -1.4963
  980MOL0     H29311  -0.541   3.869   5.043 -1.8107 -0.6168  1.0873
  980MOL0     H29312  -0.647   3.752   4.953 -0.8378  0.6597 -0.6888
  980MOL0     H29313  -0.883   3.855   4.875 -1.3781  1.2329 -1.3597
  980MOL0     H29314  -1.058   4.039   4.778  1.7321 -2.0433 -0.3476
  980MOL0     H29315  -0.996   4.209   4.807  1.5632 -0.9722 -1.6144
  980MOL0     H29316  -1.183   4.224   4.922  0.3271 -0.3404 -2.9662
  980MOL0     H29317  -1.059   4.159   5.050 -1.2659  1.1612  0.9563
  980MOL0     H29318  -1.130   3.932   5.006 -0.0891 -0.4915  2.5696
  980MOL0     H29319  -1.243   4.026   5.102  1.8126 -4.1595  1.6340
  980MOL0     H29320  -1.348   3.875   4.936 -1.1942 -0.0185 -1.8475
  980MOL0     H29321  -1.235   3.941   4.813 -1.5828  0.2175 -1.2384
  980MOL0     H29322  -1.459   3.871   4.686 -0.7613 -0.4840  0.3953
  980MOL0     H29323  -1.689   3.808   4.643  2.0731 -0.2916  0.2239
  980MOL0     H29324  -2.127   3.648   4.843 -1.7822 -2.3274 -0.4501
  980MOL0     H29325  -2.365   3.620   4.772 -0.1822  2.4188  1.3155
  980MOL0     H29326  -2.542   3.805   4.669 -0.7616  2.3987 -3.3845
  980MOL0     H29327  -2.574   3.624   4.682  1.3797 -0.1692  0.8579
  980MOL0     H29328  -2.687   3.668   4.433 -1.6233  0.2501 -0.7315
  980MOL0     H29329  -2.676   3.835   4.485 -0.3088  2.4422  6.3320
  980MOL0     H29330  -2.900   3.774   4.546 -1.9649 -2.0639  2.9207
  980MOL0     H29331  -2.823   3.779   4.695 -0.7116  0.1667  0.7076
  980MOL0     H29332  -2.851   3.535   4.525  0.4929  2.3228 -1.3574
  980MOL0     H29333  -2.822   3.530   4.701 -0.5698 -0.4309 -0.9851
  980MOL0     H29334  -3.052   3.470   4.649 -1.8503  0.4699  2.0182
  980MOL0     H29335  -3.095   3.622   4.596  0.1877 -1.5327 -1.5895
  980MOL0     H29336  -3.030   3.717   4.825  0.1780  0.0997  0.2080
  980MOL0     H29337  -2.984   3.557   4.869 -0.2474  1.2822  0.3827
  980MOL0     H29338  -3.266   3.661   4.810 -0.8739  0.4092 -0.9635
  980MOL0     H29339  -3.232   3.490   4.764  0.8911  0.9203 -0.4189
  980MOL0     H29340  -3.183   3.446   5.015  1.9920  1.7137  1.1613
  980MOL0     H29341  -3.334   3.509   4.997  0.2038  0.0403 -2.4667
  980MOL0     H29342  -2.275   3.834   4.422  2.5203  0.3846 -2.0718
  980MOL0     H29343  -2.040   3.854   4.477 -1.1646  0.3563 -1.7711
  980MOL0     H29344  -1.837   4.107   4.896 -3.1700 -3.0032 -0.5293
  980MOL0     H29345  -1.600   4.180   4.943  2.1903 -0.6831  0.9739
  980MOL0     H29346   0.155   4.028   4.437 -0.1298  1.2394 -3.3090
  980MOL0     H29347   0.366   4.065   4.340 -4.2893  2.0874 -0.3375
  980MOL0     H29348   0.707   3.779   4.100 -2.2655  1.5593  2.7934
  980MOL0     H29349   0.933   3.771   3.979  3.7754  0.3082  1.8458
  980MOL0     H29350   1.221   3.994   4.131 -1.8499 -0.3885  0.5473
  980MOL0     H29351   1.236   4.112   4.000 -1.2700 -0.7783 -2.2902
  980MOL0     H29352   1.330   3.817   4.007  1.4033 -1.1907 -1.6070
  980MOL0     H29353   1.323   3.916   3.860  0.2604  2.5887  0.0752
  980MOL0     H29354   1.508   3.946   4.089  1.4597 -3.2528 -1.1053
  980MOL0     H29355   1.468   4.088   3.984 -0.0617  0.1052  0.2970
  980MOL0     H29356   1.573   3.805   3.909  2.8190 -0.6243 -0.7062
  980MOL0     H29357   1.546   3.947   3.805  0.4706 -2.8664 -1.8480
  980MOL0     H29358   1.908   3.967   4.064  0.5597  2.0735  0.8321
  980MOL0     H29359   1.002   4.189   4.073  0.7445  0.4961 -1.3071
  980MOL0     H29360   0.799   4.185   4.223 -0.4736  0.8035 -0.3748
  981MOL0     O29361   1.328   4.983   5.459  0.4508 -0.2607 -1.2012
  981MOL0     C29362   1.371   5.083   5.391  0.5370  0.2965 -0.6614
  981MOL0     O29363   1.294   5.197   5.359 -0.1169 -0.9650 -0.0782
  981MOL0     C29364   1.161   5.193   5.382  0.0656 -0.4569 -0.2789
  981MOL0     C29365   1.111   5.300   5.450 -0.2718  0.4046 -0.2483
  981MOL0     C29366   0.968   5.318   5.461 -0.2870  0.3687 -0.8678
  981MOL0     C29367   0.882   5.225   5.399  0.0309 -0.6343 -0.1965
  981MOL0     O29368   0.743   5.224   5.419 -0.4178 -0.3754  0.0909
  981MOL0     C29369   0.682   5.308   5.518 -0.2512  0.6152 -0.0825
  981MOL0     C29370   0.533   5.279   5.529  0.5025  0.3033 -0.2708
  981MOL0     C29371   0.463   5.331   5.407 -0.0828  0.6806  0.2219
  981MOL0     C29372   0.309   5.308   5.414 -0.2967  0.3043 -0.3392
  981MOL0     C29373   0.238   5.356   5.289  0.1661  0.5243 -0.3295
  981MOL0     C29374   0.234   5.506   5.261 -0.0224  0.5350  0.5951
  981MOL0     C29375   0.240   5.607   5.368  0.6877  0.6959  0.1780
  981MOL0     C29376   0.250   5.748   5.312 -0.1444 -0.5979  0.0532
  981MOL0     N29377   0.117   5.796   5.279 -0.2685  0.3490  0.1393
  981MOL0     C29378   0.024   5.795   5.374  1.0619 -0.6803 -0.0587
  981MOL0     C29379  -0.095   5.782   5.304 -0.2449 -0.2288  0.1944
  981MOL0     C29380  -0.235   5.757   5.377 -0.4873  0.5507  0.1194
  981MOL0     C29381  -0.343   5.838   5.308  0.6044  0.6176  0.5669
  981MOL0     C29382  -0.482   5.789   5.355  0.2873 -0.0840 -0.7659
  981MOL0     C29383  -0.591   5.849   5.273  0.9683  1.0773 -0.0786
  981MOL0     O29384  -0.712   5.781   5.297 -0.0468  0.1420 -0.7287
  981MOL0     C29385  -0.825   5.799   5.214 -0.5977 -0.7425  0.5007
  981MOL0     C29386  -0.949   5.733   5.246  0.1167 -0.1471  0.3040
  981MOL0     C29387  -1.067   5.741   5.167  0.1692  0.2692 -0.5242
  981MOL0     C29388  -1.065   5.821   5.053 -0.0385  0.1769 -0.2842
  981MOL0     C29389  -1.188   5.854   4.986  0.2194  0.6034  0.6294
  981MOL0     O29390  -1.175   5.961   4.899 -0.0475  0.2771  0.2611
  981MOL0     C29391  -1.286   5.972   4.823 -0.4567  0.0785  0.8731
  981MOL0     C29392  -1.356   5.866   4.747  0.7531 -0.1019  0.4364
  981MOL0     C29393  -1.476   5.886   4.677  0.4355 -0.3300 -0.3431
  981MOL0     C29394  -1.541   6.009   4.695 -1.0559 -0.7192  0.5767
  981MOL0     O29395  -1.654   6.043   4.624 -0.0673  0.4749  0.6737
  981MOL0     C29396  -1.650   6.020   4.483  0.6166 -0.4978 -0.1140
  981MOL0     C29397  -1.756   6.122   4.429 -0.3908  0.6660 -0.3423
  981MOL0     C29398  -1.796   6.102   4.282 -0.2342  0.0757  0.8691
  981MOL0     C29399  -1.912   6.201   4.240 -0.5334 -0.1061  0.5156
  981MOL0     C29400  -1.959   6.197   4.091 -0.4234 -0.0783 -0.5307
  981MOL0     C29401  -2.023   6.070   4.031 -1.0547 -0.4772 -1.3456
  981MOL0     C29402  -1.927   5.991   3.942 -0.4973  0.0464 -1.2640
  981MOL0     C29403  -1.987   5.862   3.893  0.6328  0.1636 -0.3350
  981MOL0    Cl29404  -1.867   5.747   3.817 -0.0929 -0.0087  0.0120
  981MOL0     C29405  -1.477   6.111   4.770  1.5066  0.3475 -0.3351
  981MOL0     C29406  -1.350   6.094   4.826  0.0742  0.1895  0.5024
  981MOL0     O29407  -1.288   5.789   5.005  0.4569  0.1310  0.1163
  981MOL0     C29408  -0.946   5.884   5.015  0.9899  0.0476 -0.3557
  981MOL0     C29409  -0.832   5.879   5.098 -0.8358 -0.3626  0.3607
  981MOL0     N29410  -0.062   5.810   5.168 -0.2629 -0.4516  0.1292
  981MOL0     N29411   0.062   5.808   5.158 -0.6655  0.2176 -1.0160
  981MOL0     C29412   0.937   5.115   5.329  0.3052 -0.2265 -0.2865
  981MOL0     C29413   1.076   5.099   5.321  0.3524  0.0691 -0.4710
  981MOL0     C29414   1.521   5.092   5.365  0.3657 -0.5433 -0.2693
  981MOL0     C29415   1.589   5.203   5.324  0.0245  0.1682 -0.0187
  981MOL0     C29416   1.727   5.203   5.300 -1.0158 -0.4451 -0.2264
  981MOL0     C29417   1.806   5.091   5.322  0.1023 -0.3818 -0.3774
  981MOL0     O29418   1.942   5.107   5.316  0.0189 -0.5187  0.2118
  981MOL0     C29419   2.022   4.988   5.319 -0.8820 -0.1283 -0.4531
  981MOL0     C29420   2.158   5.025   5.256 -0.1841 -0.3360  0.7770
  981MOL0     C29421   2.262   4.924   5.313 -0.1007 -0.8916 -0.0474
  981MOL0     C29422   2.406   4.953   5.253 -0.5963 -0.4846  0.5372
  981MOL0     C29423   2.466   5.082   5.299 -0.4687 -0.0280  0.2736
  981MOL0     C29424   2.549   5.166   5.341  0.4773 -0.5347  0.0247
  981MOL0     C29425   1.741   4.977   5.361  0.1003  0.5775  0.3215
  981MOL0     C29426   1.600   4.974   5.379 -0.1711  0.4063 -0.2152
  981MOL0     H29427   1.177   5.375   5.492 -0.0170  2.2146 -3.4881
  981MOL0     H29428   0.931   5.407   5.511  1.9567  0.4601  0.7528
  981MOL0     H29429   0.705   5.413   5.497 -0.1414  0.4251 -0.9539
  981MOL0     H29430   0.723   5.299   5.619 -2.3809 -0.7365  0.7255
  981MOL0     H29431   0.494   5.332   5.616  1.3557 -1.2879  1.1310
  981MOL0     H29432   0.518   5.173   5.554  1.3796 -0.0277 -1.0776
  981MOL0     H29433   0.501   5.285   5.314 -1.5009 -1.3243  0.5625
  981MOL0     H29434   0.489   5.436   5.392 -0.5387  0.2767 -5.8813
  981MOL0     H29435   0.288   5.202   5.431  4.7365 -0.9912 -0.4319
  981MOL0     H29436   0.264   5.369   5.493 -2.2455 -0.3109 -0.9165
  981MOL0     H29437   0.133   5.329   5.307 -0.3599  1.4963 -1.7552
  981MOL0     H29438   0.273   5.301   5.201 -0.2804  1.3149 -1.0120
  981MOL0     H29439   0.143   5.532   5.206  1.0342  3.0237 -0.1086
  981MOL0     H29440   0.322   5.517   5.197  1.0953 -2.5506  1.4290
  981MOL0     H29441   0.166   5.595   5.447 -0.3847 -1.9250 -1.0787
  981MOL0     H29442   0.335   5.599   5.422  1.5221 -0.7343 -1.3981
  981MOL0     H29443   0.316   5.756   5.226  1.1471 -3.0866  0.7324
  981MOL0     H29444   0.295   5.827   5.373 -0.6800  1.4479 -2.0413
  981MOL0     H29445   0.053   5.800   5.479 -0.0769 -1.6487  0.3233
  981MOL0     H29446  -0.240   5.777   5.485 -3.8964 -1.3247  0.4258
  981MOL0     H29447  -0.254   5.651   5.362 -0.2216  0.3203  1.2898
  981MOL0     H29448  -0.335   5.827   5.199 -1.9464 -0.3502  0.4217
  981MOL0     H29449  -0.320   5.943   5.330  1.7856  0.5385 -0.1838
  981MOL0     H29450  -0.489   5.680   5.345  0.7782 -0.1251 -0.6797
  981MOL0     H29451  -0.493   5.810   5.461 -1.5690  0.8447 -1.0881
  981MOL0     H29452  -0.577   5.832   5.166  3.0346  0.6916  0.2223
  981MOL0     H29453  -0.609   5.957   5.281 -0.9137  0.6476  4.4213
  981MOL0     H29454  -0.947   5.670   5.334 -1.0874 -0.2674  0.2584
  981MOL0     H29455  -1.154   5.687   5.204  0.0871 -0.0987 -1.2292
  981MOL0     H29456  -1.313   5.766   4.746 -0.7602 -0.7992 -1.7616
  981MOL0     H29457  -1.531   5.818   4.612 -3.4405  1.5827  0.6209
  981MOL0     H29458  -1.672   5.913   4.475  1.6925 -1.0180  2.6066
  981MOL0     H29459  -1.552   6.033   4.438  0.7670 -1.3805 -0.0473
  981MOL0     H29460  -1.715   6.221   4.450  1.1519  0.2451 -1.2166
  981MOL0     H29461  -1.853   6.100   4.475 -0.3037  2.7275  0.9300
  981MOL0     H29462  -1.838   6.003   4.263 -0.6785  0.3789  0.2062
  981MOL0     H29463  -1.708   6.103   4.217  0.1732  2.6957  1.3459
  981MOL0     H29464  -2.001   6.188   4.302 -0.6512 -2.2263 -0.0297
  981MOL0     H29465  -1.870   6.301   4.254 -0.2985 -0.3779  1.9866
  981MOL0     H29466  -1.879   6.232   4.025 -0.0787  0.6522  0.2387
  981MOL0     H29467  -2.039   6.271   4.087  0.3158  1.1170  2.9805
  981MOL0     H29468  -2.096   6.112   3.962 -0.6070  0.5446 -1.2176
  981MOL0     H29469  -2.072   6.009   4.108 -5.2373  2.9176 -0.9199
  981MOL0     H29470  -1.884   6.054   3.863 -1.1070  0.2058 -1.4760
  981MOL0     H29471  -1.843   5.980   4.011 -0.1564  2.5340 -1.1750
  981MOL0     H29472  -2.075   5.890   3.834  0.8778  0.1697 -0.7068
  981MOL0     H29473  -2.029   5.813   3.981 -0.7562  4.7058  1.8112
  981MOL0     H29474  -1.524   6.209   4.773 -0.5991 -0.6385  1.8292
  981MOL0     H29475  -1.309   6.170   4.894 -0.4687  0.3457  0.6560
  981MOL0     H29476  -0.952   5.940   4.923 -1.8674  1.5508  0.6057
  981MOL0     H29477  -0.740   5.908   5.048  0.1555 -1.7196  1.3032
  981MOL0     H29478   0.872   5.042   5.281  0.4071 -0.5738  0.0893
  981MOL0     H29479   1.113   5.013   5.266 -0.2856 -0.9708  0.6650
  981MOL0     H29480   1.537   5.295   5.302 -0.6236 -0.2896 -0.4158
  981MOL0     H29481   1.766   5.295   5.258  2.9605 -0.5556  2.6080
  981MOL0     H29482   1.974   4.916   5.252 -3.7098  1.0643  0.1570
  981MOL0     H29483   2.030   4.950   5.421 -1.8491  0.7317 -0.0359
  981MOL0     H29484   2.151   5.010   5.148  0.7913  1.0178  0.5044
  981MOL0     H29485   2.190   5.124   5.289  1.5234 -0.1356 -1.2809
  981MOL0     H29486   2.241   4.823   5.278  0.4115 -1.7410  1.9793
  981MOL0     H29487   2.265   4.911   5.421  3.7070 -1.4749 -0.0807
  981MOL0     H29488   2.470   4.867   5.273  1.2299  0.7891  0.4379
  981MOL0     H29489   2.391   4.972   5.147 -1.8683 -0.0870  0.7752
  981MOL0     H29490   2.625   5.233   5.376  0.0975  0.9989 -1.9204
  981MOL0     H29491   1.786   4.880   5.382 -4.6982 -2.2049 -0.4779
  981MOL0     H29492   1.560   4.875   5.394  3.0408 -1.3828 -2.3243
  982MOL0     O29493   9.706   7.425   0.324  1.2807  0.1318  0.0722
  982MOL0     C29494   9.749   7.538   0.331  0.5024 -0.0181  0.8665
  982MOL0     O29495   9.669   7.648   0.311 -0.4054 -0.5547  0.2743
  982MOL0     C29496   9.546   7.645   0.240 -0.1582 -0.7381 -0.6732
  982MOL0     C29497   9.490   7.773   0.218 -0.7303  0.4110  0.7923
  982MOL0     C29498   9.366   7.795   0.153  0.8661  0.5530 -0.4058
  982MOL0     C29499   9.283   7.683   0.131  0.4152  0.4257 -0.0420
  982MOL0     O29500   9.152   7.709   0.082 -0.1197  0.1488 -0.1041
  982MOL0     C29501   9.041   7.612   0.093 -0.0971 -0.8192 -0.0158
  982MOL0     C29502   8.917   7.684   0.035  0.3346 -0.9947 -0.2841
  982MOL0     C29503   8.910   7.702  -0.119 -0.4785 -0.0899  0.2452
  982MOL0     C29504   8.895   7.574  -0.194  0.0785  0.4054 -0.1346
  982MOL0     C29505   8.926   7.584  -0.338 -0.7014  0.2501 -0.2207
  982MOL0     C29506   8.909   7.454  -0.413 -0.7936  0.4467  1.0119
  982MOL0     C29507   8.968   7.460  -0.559 -0.6485  0.4885 -0.4308
  982MOL0     C29508   9.125   7.459  -0.570  0.4994 -0.2492  0.6069
  982MOL0     N29509   9.175   7.499  -0.708  1.5424  0.0555 -0.5514
  982MOL0     C29510   9.235   7.613  -0.743  0.3093 -0.7863  0.5296
  982MOL0     C29511   9.288   7.587  -0.864 -0.3721  0.1471 -0.4508
  982MOL0     C29512   9.378   7.687  -0.945 -0.4213  0.1340 -0.2716
  982MOL0     C29513   9.287   7.775  -1.027 -0.1734  0.6033  0.3347
  982MOL0     C29514   9.180   7.842  -0.937 -0.9500 -0.0777 -0.1359
  982MOL0     C29515   9.111   7.966  -1.002 -0.6730  0.4565  0.3374
  982MOL0     O29516   8.988   7.929  -1.062 -0.2537  0.3118 -0.6170
  982MOL0     C29517   8.889   7.875  -0.983  0.7340  0.1982 -0.5842
  982MOL0     C29518   8.814   7.773  -1.040 -0.1098  0.0732 -0.1630
  982MOL0     C29519   8.729   7.690  -0.959 -0.1590 -0.1197  0.8533
  982MOL0     C29520   8.706   7.722  -0.828 -0.4127 -0.6837 -0.6611
  982MOL0     C29521   8.614   7.635  -0.748 -1.2596 -1.0882 -0.1909
  982MOL0     O29522   8.628   7.645  -0.617 -0.2441 -0.4828 -0.7684
  982MOL0     C29523   8.563   7.560  -0.533 -0.2059  0.5544 -0.2130
  982MOL0     C29524   8.509   7.439  -0.563  0.1575  0.6701 -0.1921
  982MOL0     C29525   8.445   7.364  -0.453  0.6022 -0.4120  0.2022
  982MOL0     C29526   8.446   7.416  -0.316 -0.4216 -0.5235  0.3619
  982MOL0     O29527   8.375   7.341  -0.223  0.0539  0.9136 -0.1664
  982MOL0     C29528   8.426   7.344  -0.090 -0.1774 -0.4184 -0.8270
  982MOL0     C29529   8.439   7.202  -0.040 -0.2939 -0.9104  0.3299
  982MOL0     C29530   8.537   7.116  -0.127  0.0449  0.7345  0.8167
  982MOL0     C29531   8.680   7.149  -0.081 -0.0653  0.1893  0.4056
  982MOL0     C29532   8.788   7.083  -0.168  0.0359 -0.7293 -0.2388
  982MOL0     C29533   8.779   6.939  -0.213  0.1343  0.7200 -0.1627
  982MOL0     C29534   8.915   6.875  -0.247  0.6621  0.1544 -0.4616
  982MOL0     C29535   8.883   6.733  -0.276 -0.3093  0.6332  0.3840
  982MOL0    Cl29536   9.029   6.630  -0.317 -0.2184 -0.3672 -0.0465
  982MOL0     C29537   8.509   7.537  -0.287 -0.0499  1.0507 -0.3516
  982MOL0     C29538   8.556   7.608  -0.398 -0.7859 -0.0771  0.1058
  982MOL0     O29539   8.538   7.564  -0.810  0.0393  0.1863 -0.7972
  982MOL0     C29540   8.775   7.830  -0.770 -0.1109  0.7591 -0.2378
  982MOL0     C29541   8.868   7.910  -0.848  0.1693 -0.0176  0.2740
  982MOL0     N29542   9.260   7.455  -0.892  0.1383  0.6337 -0.3433
  982MOL0     N29543   9.187   7.405  -0.799  0.0343  0.5101  0.7303
  982MOL0     C29544   9.336   7.550   0.153 -0.0741 -0.5659  0.0131
  982MOL0     C29545   9.464   7.535   0.205 -0.1572 -1.3812  0.6565
  982MOL0     C29546   9.889   7.562   0.389 -0.0351  0.7624 -0.0805
  982MOL0     C29547   9.947   7.693   0.404 -0.2704 -0.8344  0.0907
  982MOL0     C29548  10.070   7.705   0.464 -0.1233  1.3688  0.5136
  982MOL0     C29549  10.140   7.587   0.511  0.0949 -0.6616  0.2366
  982MOL0     O29550  10.258   7.590   0.588  0.3133  1.1636 -0.1048
  982MOL0     C29551  10.356   7.675   0.550  0.1514 -0.5353  0.1796
  982MOL0     C29552  10.496   7.630   0.598  0.5113 -0.2895  1.2231
  982MOL0     C29553  10.522   7.480   0.573  0.4048  0.6652  0.5885
  982MOL0     C29554  10.658   7.424   0.607  0.2327 -0.4528  0.5013
  982MOL0     C29555  10.697   7.283   0.571 -0.5055 -0.2370  0.4486
  982MOL0     C29556  10.740   7.179   0.536 -0.4536  0.2623 -0.3224
  982MOL0     C29557  10.087   7.458   0.487 -0.2441  0.0101  1.0396
  982MOL0     C29558   9.962   7.445   0.422 -0.3053 -0.3736 -0.1546
  982MOL0     H29559   9.542   7.862   0.253  0.8367  0.7021 -1.9392
  982MOL0     H29560   9.339   7.900   0.143 -0.0553  0.3841  0.1440
  982MOL0     H29561   9.027   7.585   0.198  0.4973 -3.0614 -0.4572
  982MOL0     H29562   9.061   7.520   0.038  2.7213 -1.0549  1.2726
  982MOL0     H29563   8.914   7.788   0.071 -0.0373 -2.2609  3.8107
  982MOL0     H29564   8.828   7.634   0.073 -1.8652  2.7213 -0.0208
  982MOL0     H29565   8.998   7.751  -0.162 -1.8979 -0.0259 -2.8199
  982MOL0     H29566   8.819   7.759  -0.141 -1.3784 -0.9980  1.4327
  982MOL0     H29567   8.960   7.495  -0.156  0.2819  0.5030 -0.2747
  982MOL0     H29568   8.793   7.537  -0.184 -0.1208  0.4989 -1.5098
  982MOL0     H29569   9.033   7.607  -0.351 -0.5943 -1.4007 -2.7803
  982MOL0     H29570   8.860   7.665  -0.369  0.4249  1.2057 -0.2134
  982MOL0     H29571   8.805   7.422  -0.404 -0.6427 -1.9349 -3.2277
  982MOL0     H29572   8.967   7.372  -0.369  2.1969  2.1912  0.6022
  982MOL0     H29573   8.930   7.376  -0.617  0.1407  2.5623 -4.2501
  982MOL0     H29574   8.926   7.547  -0.611 -4.4320 -1.1319 -0.4281
  982MOL0     H29575   9.167   7.360  -0.552 -0.2387 -1.1353 -2.0598
  982MOL0     H29576   9.168   7.532  -0.501 -3.3635  2.2984  0.6886
  982MOL0     H29577   9.253   7.704  -0.687 -1.0323 -1.6237  2.4217
  982MOL0     H29578   9.453   7.633  -1.002 -0.9961 -0.3960 -0.5399
  982MOL0     H29579   9.443   7.747  -0.881 -0.0865 -0.3853 -0.1178
  982MOL0     H29580   9.233   7.721  -1.105 -0.6532  4.0562 -1.9838
  982MOL0     H29581   9.346   7.855  -1.072  4.1342 -1.9905  0.8728
  982MOL0     H29582   9.096   7.775  -0.914 -1.4897  0.2100 -1.2110
  982MOL0     H29583   9.236   7.874  -0.849 -2.0003  2.2362 -0.2518
  982MOL0     H29584   9.179   8.015  -1.072 -2.1592 -0.2387 -1.6802
  982MOL0     H29585   9.087   8.042  -0.927  0.0992  3.0483 -1.8720
  982MOL0     H29586   8.821   7.749  -1.145  2.8039 -1.7564  0.3371
  982MOL0     H29587   8.685   7.609  -1.015  1.3030  0.2001 -0.8569
  982MOL0     H29588   8.505   7.406  -0.666  0.1082  1.0932 -0.3247
  982MOL0     H29589   8.390   7.274  -0.479 -3.6492  1.6906  0.8954
  982MOL0     H29590   8.352   7.392  -0.025  1.4364  0.4493  0.4346
  982MOL0     H29591   8.515   7.407  -0.084 -0.5785  0.2414 -1.6629
  982MOL0     H29592   8.341   7.155  -0.049 -0.2912 -1.1898  1.5801
  982MOL0     H29593   8.477   7.209   0.062  1.0879  0.1991 -0.2171
  982MOL0     H29594   8.515   7.129  -0.233  0.5601 -1.8503  0.3149
  982MOL0     H29595   8.522   7.012  -0.094 -1.6040  0.5675 -0.3743
  982MOL0     H29596   8.702   7.256  -0.080  0.1825  0.2004 -1.6479
  982MOL0     H29597   8.702   7.112   0.019  0.4862  0.0395  0.2375
  982MOL0     H29598   8.876   7.097  -0.105 -0.7644 -1.7912  1.1982
  982MOL0     H29599   8.795   7.139  -0.261 -2.4975 -0.4173 -0.3007
  982MOL0     H29600   8.716   6.921  -0.301  3.5012  2.2384 -3.1741
  982MOL0     H29601   8.730   6.882  -0.134 -0.6311 -2.3854 -2.6948
  982MOL0     H29602   8.967   6.921  -0.331  2.7368 -0.8575  0.2164
  982MOL0     H29603   8.982   6.879  -0.161  1.1729  1.0524 -0.8861
  982MOL0     H29604   8.815   6.724  -0.361 -0.3931  0.5340  0.4601
  982MOL0     H29605   8.826   6.687  -0.195 -2.9753  1.3536 -0.9731
  982MOL0     H29606   8.519   7.582  -0.188  2.3956 -2.0871  1.0109
  982MOL0     H29607   8.591   7.708  -0.377  1.8798 -1.0531  0.8156
  982MOL0     H29608   8.772   7.862  -0.667  1.9157  0.8545 -0.1787
  982MOL0     H29609   8.921   7.994  -0.805 -0.1257  0.4077 -0.1847
  982MOL0     H29610   9.277   7.464   0.125  0.7066 -1.2218  0.3613
  982MOL0     H29611   9.506   7.435   0.201  1.6925 -0.8449  3.7308
  982MOL0     H29612   9.897   7.788   0.386  1.2349  0.1526  0.9294
  982MOL0     H29613  10.103   7.807   0.483  0.6813  0.7070  3.1530
  982MOL0     H29614  10.349   7.772   0.601  1.7984 -1.3448  2.1191
  982MOL0     H29615  10.357   7.697   0.443 -1.0599 -0.7937  0.1074
  982MOL0     H29616  10.565   7.694   0.541  1.8166 -1.1304  1.8072
  982MOL0     H29617  10.524   7.663   0.699  2.3539  0.7567  0.4397
  982MOL0     H29618  10.516   7.467   0.464  0.8470  0.1921  0.6173
  982MOL0     H29619  10.446   7.430   0.634  0.8754  2.8147  3.1163
  982MOL0     H29620  10.717   7.492   0.544 -0.7712 -1.1771 -1.2709
  982MOL0     H29621  10.679   7.443   0.713 -1.4592  2.3970  0.4186
  982MOL0     H29622  10.766   7.080   0.501  2.0224  1.2319 -1.4587
  982MOL0     H29623  10.149   7.374   0.515  1.0324  0.6715  0.2617
  982MOL0     H29624   9.923   7.346   0.405 -1.5663  0.2475 -1.0407
  983MOL0     O29625   0.730   6.534   5.323  0.6488  0.2660  0.2062
  983MOL0     C29626   0.718   6.495   5.432  0.4091  0.1256 -0.0842
  983MOL0     O29627   0.825   6.441   5.506  0.1718  0.8254  0.1441
  983MOL0     C29628   0.960   6.447   5.471 -0.3631  0.0016  0.1660
  983MOL0     C29629   1.032   6.327   5.452 -0.3074  0.4051  0.2161
  983MOL0     C29630   1.167   6.338   5.419 -0.4397  0.4671 -0.5861
  983MOL0     C29631   1.243   6.458   5.424  0.3894  0.1433  0.4523
  983MOL0     O29632   1.375   6.459   5.386  0.3817 -0.6677  0.5038
  983MOL0     C29633   1.396   6.412   5.254 -0.7943  0.2044 -0.2920
  983MOL0     C29634   1.491   6.516   5.183  0.3264 -0.6572  0.0438
  983MOL0     C29635   1.424   6.655   5.164 -0.3159  0.6085  0.4706
  983MOL0     C29636   1.533   6.747   5.112 -0.5653 -1.7495 -0.6689
  983MOL0     C29637   1.477   6.895   5.104 -0.1606 -0.1864  0.5961
  983MOL0     C29638   1.422   6.962   5.241  0.0980  0.8474  0.0331
  983MOL0     C29639   1.515   6.955   5.360 -0.0194  0.3954  0.1725
  983MOL0     C29640   1.472   7.061   5.454 -0.1329 -0.8301 -0.5225
  983MOL0     N29641   1.342   7.051   5.522 -0.0452  1.1418 -0.5393
  983MOL0     C29642   1.214   7.078   5.477 -0.5251  0.0739  0.1354
  983MOL0     C29643   1.132   6.999   5.543  0.5517  1.0016  0.1491
  983MOL0     C29644   0.981   6.990   5.509  0.0207 -0.2564  0.5886
  983MOL0     C29645   0.903   6.982   5.641  0.0217 -0.2238  0.2490
  983MOL0     C29646   0.752   6.961   5.617  1.1089  0.2771 -0.0689
  983MOL0     C29647   0.684   6.925   5.744 -0.0525  0.0126  1.3589
  983MOL0     O29648   0.723   6.794   5.796 -0.8710 -0.5904  0.2606
  983MOL0     C29649   0.647   6.745   5.894 -0.0530  0.0693 -0.2002
  983MOL0     C29650   0.712   6.644   5.971 -0.3274 -0.4070 -0.7664
  983MOL0     C29651   0.649   6.582   6.082 -1.1788 -0.6442 -0.2689
  983MOL0     C29652   0.525   6.626   6.135  0.4789 -0.2307  0.2198
  983MOL0     C29653   0.465   6.559   6.259  0.6487  0.0071  1.1270
  983MOL0     O29654   0.339   6.589   6.293 -0.6298 -0.1174 -0.4357
  983MOL0     C29655   0.287   6.542   6.413 -1.4250  0.2112  0.4610
  983MOL0     C29656   0.308   6.420   6.477 -0.1455  0.0212 -0.0714
  983MOL0     C29657   0.251   6.386   6.599  0.7593  0.6162 -0.3158
  983MOL0     C29658   0.146   6.467   6.651 -0.5848 -0.6264  0.0612
  983MOL0     O29659   0.070   6.447   6.762 -0.3367  0.0004  0.2477
  983MOL0     C29660   0.126   6.369   6.871 -0.2190 -0.1161  0.9418
  983MOL0     C29661   0.019   6.354   6.981 -0.2709  0.1903  0.4764
  983MOL0     C29662  -0.100   6.273   6.934  1.2865 -0.7565 -0.5399
  983MOL0     C29663  -0.212   6.304   7.027 -0.1496  0.6369  0.0639
  983MOL0     C29664  -0.270   6.443   6.997 -0.1906  0.0144  0.0650
  983MOL0     C29665  -0.407   6.454   7.068  0.4936  0.4022 -1.0791
  983MOL0     C29666  -0.524   6.429   6.975  0.2317  0.7937 -0.2325
  983MOL0     C29667  -0.660   6.442   7.042  0.7117 -0.2246  0.3888
  983MOL0    Cl29668  -0.692   6.349   7.187  0.3862 -0.2050  0.2032
  983MOL0     C29669   0.117   6.587   6.579 -0.8434 -0.1185  0.1079
  983MOL0     C29670   0.189   6.628   6.463  0.0625  0.3273 -0.1655
  983MOL0     O29671   0.535   6.476   6.310  0.4288  0.2381  0.1221
  983MOL0     C29672   0.470   6.732   6.056  0.8751  0.3934  0.9519
  983MOL0     C29673   0.527   6.798   5.943 -0.2432  0.0277 -1.1199
  983MOL0     N29674   1.203   6.936   5.642  0.0842  0.3449 -0.0026
  983MOL0     N29675   1.327   6.953   5.621 -0.4633  0.3545 -0.3843
  983MOL0     C29676   1.164   6.573   5.459 -0.1688 -0.5794  0.3587
  983MOL0     C29677   1.028   6.568   5.488 -0.1219  0.6597 -0.0216
  983MOL0     C29678   0.580   6.503   5.497 -0.3891  0.0417 -0.1034
  983MOL0     C29679   0.571   6.500   5.636 -0.0958  0.2343 -0.1313
  983MOL0     C29680   0.455   6.506   5.707 -0.0993  0.3297 -0.2203
  983MOL0     C29681   0.326   6.513   5.645 -0.3897 -0.0382 -0.7864
  983MOL0     O29682   0.206   6.508   5.715  0.4715  1.4601  0.9956
  983MOL0     C29683   0.209   6.454   5.847 -0.1552 -0.4610 -0.0834
  983MOL0     C29684   0.070   6.444   5.907 -0.2236  0.1651 -0.3290
  983MOL0     C29685   0.074   6.481   6.053 -0.2399 -0.0071 -0.3400
  983MOL0     C29686  -0.060   6.449   6.119 -0.0474 -0.1937  0.3661
  983MOL0     C29687  -0.175   6.522   6.065 -0.1739 -0.5829  1.2363
  983MOL0     C29688  -0.274   6.581   6.021  0.4360 -1.1487 -0.3124
  983MOL0     C29689   0.334   6.526   5.504  0.1403  0.7076  0.2159
  983MOL0     C29690   0.458   6.515   5.431 -0.0440 -0.3892 -0.1803
  983MOL0     H29691   0.985   6.230   5.461 -0.2895  0.3709 -0.0518
  983MOL0     H29692   1.225   6.251   5.392 -1.0297  0.2606 -1.2033
  983MOL0     H29693   1.303   6.412   5.196 -1.1851  0.6101  0.3367
  983MOL0     H29694   1.462   6.325   5.263  3.2347  2.5614 -3.5266
  983MOL0     H29695   1.519   6.463   5.091 -1.8475 -2.8857  0.5436
  983MOL0     H29696   1.580   6.514   5.246 -0.5677 -0.0105  1.3566
  983MOL0     H29697   1.385   6.689   5.261 -0.2962  0.2493  0.6046
  983MOL0     H29698   1.330   6.645   5.108  0.9664 -3.2953 -1.2947
  983MOL0     H29699   1.621   6.738   5.176 -0.2973 -1.0660 -0.9292
  983MOL0     H29700   1.567   6.722   5.011 -1.0377  0.1610 -1.3465
  983MOL0     H29701   1.385   6.882   5.046 -0.0584  0.1606  0.3497
  983MOL0     H29702   1.539   6.965   5.046  1.1049  0.8362  3.0633
  983MOL0     H29703   1.342   6.892   5.268  1.1250 -0.2738  0.2466
  983MOL0     H29704   1.379   7.061   5.223 -0.7930  0.0534 -2.7206
  983MOL0     H29705   1.511   6.855   5.404 -0.2773  0.1957 -0.2986
  983MOL0     H29706   1.615   6.963   5.317 -0.1874 -1.7040 -0.7306
  983MOL0     H29707   1.466   7.152   5.393 -1.3870  1.0536  2.2289
  983MOL0     H29708   1.544   7.081   5.534 -1.7915  0.9682  0.6017
  983MOL0     H29709   1.189   7.143   5.394  0.8257  0.9553  0.3916
  983MOL0     H29710   0.954   6.904   5.447  2.6069  0.7313 -2.1230
  983MOL0     H29711   0.953   7.085   5.463  1.2051 -0.5296 -0.7663
  983MOL0     H29712   0.927   7.073   5.697  2.3411 -1.4015  1.3673
  983MOL0     H29713   0.943   6.898   5.700  1.4427 -1.6414 -2.5179
  983MOL0     H29714   0.705   7.055   5.587  0.6592  0.9667  2.5297
  983MOL0     H29715   0.736   6.878   5.548 -1.0891  0.0921  0.5695
  983MOL0     H29716   0.579   6.934   5.716  0.4974  1.9840 -0.3221
  983MOL0     H29717   0.715   6.997   5.820 -1.8403  1.5044  0.7541
  983MOL0     H29718   0.804   6.605   5.928  1.5646  2.1903  0.6479
  983MOL0     H29719   0.714   6.508   6.127 -0.6409 -0.3531 -0.5455
  983MOL0     H29720   0.379   6.349   6.437 -1.3566 -0.6556 -1.0682
  983MOL0     H29721   0.278   6.291   6.645  0.5806  0.4384 -0.5715
  983MOL0     H29722   0.222   6.409   6.906 -0.1138 -1.1260  1.8868
  983MOL0     H29723   0.149   6.268   6.835 -0.1295  1.0744 -2.6704
  983MOL0     H29724  -0.002   6.456   7.013  3.0269  0.3912  2.4337
  983MOL0     H29725   0.050   6.295   7.068 -0.1628 -1.0395 -0.3685
  983MOL0     H29726  -0.076   6.167   6.949 -0.0051 -0.7885  1.7368
  983MOL0     H29727  -0.133   6.281   6.830  1.3445  0.8237 -0.4564
  983MOL0     H29728  -0.285   6.223   7.016  0.4505  0.2506 -1.3036
  983MOL0     H29729  -0.176   6.314   7.129 -0.2639  0.1132  0.1586
  983MOL0     H29730  -0.280   6.455   6.888  0.3862 -1.9062 -0.2387
  983MOL0     H29731  -0.197   6.518   7.027  2.5030 -1.4098 -2.3235
  983MOL0     H29732  -0.415   6.560   7.093 -2.2965  1.5096 -5.4984
  983MOL0     H29733  -0.408   6.389   7.156 -1.8485  0.3323 -1.0897
  983MOL0     H29734  -0.522   6.500   6.892  0.2626 -0.9758 -1.8104
  983MOL0     H29735  -0.519   6.333   6.923  0.8536  0.9508 -0.4659
  983MOL0     H29736  -0.733   6.409   6.967 -0.6581  1.9327  0.6716
  983MOL0     H29737  -0.687   6.548   7.053  0.1284 -0.3809  0.4783
  983MOL0     H29738   0.040   6.655   6.615  1.0310  1.8422  0.6643
  983MOL0     H29739   0.169   6.722   6.413 -0.5680  0.2150 -0.1300
  983MOL0     H29740   0.367   6.758   6.080 -1.2122 -3.9874 -1.8961
  983MOL0     H29741   0.462   6.866   5.889 -1.4428 -1.2448 -1.3344
  983MOL0     H29742   1.209   6.672   5.462  1.3751 -1.2503  0.2199
  983MOL0     H29743   0.977   6.655   5.529 -0.7066 -0.2810  1.3339
  983MOL0     H29744   0.663   6.484   5.691  1.5428  2.3804 -2.0407
  983MOL0     H29745   0.469   6.502   5.814  3.6766  2.8756 -0.4416
  983MOL0     H29746   0.281   6.517   5.899  0.1595 -0.7793 -0.1227
  983MOL0     H29747   0.264   6.359   5.849  1.5253  0.4407 -1.2861
  983MOL0     H29748  -0.001   6.505   5.851 -5.0225 -3.9631  0.4697
  983MOL0     H29749   0.029   6.343   5.898 -0.0882  0.0029  0.7191
  983MOL0     H29750   0.102   6.586   6.066  1.2403 -0.3687 -0.4154
  983MOL0     H29751   0.151   6.428   6.110 -0.3544  2.6793  2.5962
  983MOL0     H29752  -0.087   6.344   6.105 -2.0263  0.1433  1.2569
  983MOL0     H29753  -0.044   6.467   6.226 -1.1694  0.5267  0.4291
  983MOL0     H29754  -0.365   6.622   5.982  0.2020 -4.5505 -3.9062
  983MOL0     H29755   0.243   6.547   5.449  1.5704  1.1015 -2.1081
  983MOL0     H29756   0.455   6.513   5.322  0.4424 -0.5580 -0.1928
  984MOL0     O29757   2.602   3.588   7.304 -0.0942 -0.6076  0.1237
  984MOL0     C29758   2.637   3.630   7.192 -0.2359  0.1922 -0.6770
  984MOL0     O29759   2.766   3.649   7.160 -0.1533  0.0918  0.3443
  984MOL0     C29760   2.882   3.602   7.220 -0.1327  0.5777 -0.2297
  984MOL0     C29761   2.996   3.672   7.204 -0.0874 -0.1438 -0.1423
  984MOL0     C29762   3.119   3.624   7.248 -0.7557 -0.6619 -0.5895
  984MOL0     C29763   3.125   3.512   7.326 -0.0274 -0.7308  0.5827
  984MOL0     O29764   3.251   3.472   7.360  0.0349  0.1547  0.0532
  984MOL0     C29765   3.262   3.355   7.448  0.9502 -0.3549 -0.3076
  984MOL0     C29766   3.407   3.336   7.493 -0.1953 -0.1872  0.7046
  984MOL0     C29767   3.430   3.222   7.590  0.1250 -0.8196  1.1064
  984MOL0     C29768   3.433   3.087   7.515  0.2282 -0.0421 -0.0938
  984MOL0     C29769   3.407   2.956   7.602 -0.9739  0.5691  0.4630
  984MOL0     C29770   3.264   2.963   7.642  0.7014 -0.7503 -0.4791
  984MOL0     C29771   3.227   2.833   7.713  0.3443  0.2852 -0.3293
  984MOL0     C29772   3.076   2.831   7.761 -0.2858  0.9948  0.3125
  984MOL0     N29773   3.070   2.695   7.815  0.0367  0.3016  0.1801
  984MOL0     C29774   3.034   2.670   7.948 -0.1692 -0.1654 -0.1392
  984MOL0     C29775   3.037   2.536   7.961 -0.1979 -0.0049  0.2617
  984MOL0     C29776   2.992   2.470   8.089  0.2756 -0.2243  0.2520
  984MOL0     C29777   2.894   2.351   8.055  0.0826 -0.1983  0.4186
  984MOL0     C29778   2.832   2.285   8.169  0.3657  0.0121  0.2007
  984MOL0     C29779   2.725   2.178   8.125  0.4779  0.8713 -0.2759
  984MOL0     O29780   2.616   2.244   8.055 -0.5988  0.3690  1.0299
  984MOL0     C29781   2.523   2.159   8.001 -0.5329  0.3646  0.4822
  984MOL0     C29782   2.435   2.221   7.921 -0.4167 -0.8020 -0.3438
  984MOL0     C29783   2.331   2.173   7.846 -0.2639  0.9419 -0.7783
  984MOL0     C29784   2.319   2.028   7.844  0.8853  0.7951  0.2785
  984MOL0     C29785   2.204   1.961   7.771  0.2646  0.4928 -1.5534
  984MOL0     O29786   2.157   2.036   7.677  1.0052 -0.0362 -0.1967
  984MOL0     C29787   2.063   1.987   7.590 -1.3126  0.2300 -0.4556
  984MOL0     C29788   2.103   1.920   7.471 -0.3377 -0.3728 -0.2714
  984MOL0     C29789   1.997   1.894   7.383 -0.3759 -0.4402 -0.7834
  984MOL0     C29790   1.857   1.920   7.407 -0.3828 -0.0926  0.3631
  984MOL0     O29791   1.758   1.911   7.314  0.2996  0.4679 -0.0121
  984MOL0     C29792   1.772   1.818   7.207  0.2784  0.0449  0.0603
  984MOL0     C29793   1.645   1.798   7.140 -0.2638 -0.0291  0.1200
  984MOL0     C29794   1.599   1.919   7.063 -0.3328 -0.7598  0.6173
  984MOL0     C29795   1.513   1.890   6.933  0.4257 -0.3021 -0.2124
  984MOL0     C29796   1.461   2.015   6.861  0.1942  0.1814  0.5110
  984MOL0     C29797   1.571   2.123   6.828 -0.5236  0.6638  0.1754
  984MOL0     C29798   1.694   2.078   6.742  0.5277  0.6380 -1.1083
  984MOL0     C29799   1.814   2.178   6.742 -0.2318  0.8667 -1.0793
  984MOL0    Cl29800   1.945   2.149   6.631 -0.5687  0.0241 -0.5574
  984MOL0     C29801   1.823   1.972   7.531  0.5900  0.4228  0.1407
  984MOL0     C29802   1.928   2.012   7.621  0.5243 -0.2182  0.2297
  984MOL0     O29803   2.165   1.845   7.804 -0.4929  0.1785 -0.4963
  984MOL0     C29804   2.405   1.950   7.924 -0.1115 -0.8687 -0.9024
  984MOL0     C29805   2.507   2.019   8.005 -0.1923  0.1927 -0.3629
  984MOL0     N29806   3.069   2.479   7.839  0.5722 -0.8766 -0.4978
  984MOL0     N29807   3.097   2.576   7.759 -0.0030  0.1843  0.1718
  984MOL0     C29808   3.013   3.431   7.349  0.5724 -0.3565  0.2182
  984MOL0     C29809   2.885   3.483   7.300  0.2375 -0.1717  0.1665
  984MOL0     C29810   2.532   3.690   7.104 -0.1887  1.0939 -0.0313
  984MOL0     C29811   2.398   3.697   7.151  0.0259  0.4154 -0.1371
  984MOL0     C29812   2.314   3.781   7.082  0.3995 -0.3996  0.0707
  984MOL0     C29813   2.347   3.862   6.979 -0.2036 -0.4732 -0.9146
  984MOL0     O29814   2.251   3.947   6.938  0.4981 -0.8852  0.5509
  984MOL0     C29815   2.291   4.040   6.830  0.4108  0.9235  0.0393
  984MOL0     C29816   2.187   4.148   6.807  0.6187 -0.3342  0.2546
  984MOL0     C29817   2.178   4.249   6.925  0.0093 -0.0219 -0.8974
  984MOL0     C29818   2.042   4.311   6.946  0.6024 -0.5963  0.5496
  984MOL0     C29819   2.043   4.405   7.056  0.0717  0.3562 -0.3273
  984MOL0     C29820   2.043   4.494   7.133 -0.4903 -0.1275 -0.6903
  984MOL0     C29821   2.475   3.833   6.920 -0.2140 -0.9386 -0.0850
  984MOL0     C29822   2.565   3.741   6.978  0.3115  0.1321  0.6281
  984MOL0     H29823   2.996   3.760   7.140  1.5778  1.5103  1.9827
  984MOL0     H29824   3.210   3.679   7.226 -2.9970  2.7834 -2.1404
  984MOL0     H29825   3.222   3.270   7.393  1.2152  0.7720 -2.3111
  984MOL0     H29826   3.212   3.369   7.545  3.0622 -1.2690  1.0027
  984MOL0     H29827   3.436   3.426   7.548  2.9496 -0.4738 -0.2959
  984MOL0     H29828   3.479   3.321   7.413 -0.6246  0.2160  0.2407
  984MOL0     H29829   3.352   3.218   7.668 -1.5121 -0.9308 -0.4624
  984MOL0     H29830   3.517   3.249   7.651 -0.1825 -0.9175  1.5969
  984MOL0     H29831   3.360   3.092   7.433 -1.1928  1.8689  1.1955
  984MOL0     H29832   3.528   3.083   7.461 -1.9260 -3.3478 -4.2739
  984MOL0     H29833   3.472   2.963   7.689 -0.1602 -2.9783  0.2877
  984MOL0     H29834   3.430   2.860   7.556 -0.1144 -0.6291  3.2077
  984MOL0     H29835   3.203   2.981   7.553 -2.2365 -0.5981  1.4121
  984MOL0     H29836   3.247   3.047   7.711  3.4001 -0.9682  0.5735
  984MOL0     H29837   3.260   2.747   7.654  1.4561 -0.7031  1.6311
  984MOL0     H29838   3.285   2.835   7.806 -1.4785  0.4733  0.8583
  984MOL0     H29839   3.010   2.838   7.673  0.7149 -1.0604 -0.6557
  984MOL0     H29840   3.046   2.905   7.836  1.4252  1.4821  0.5549
  984MOL0     H29841   2.991   2.731   8.027  0.0719 -0.4068  0.1829
  984MOL0     H29842   2.936   2.538   8.154  0.1284 -1.9710  2.0586
  984MOL0     H29843   3.076   2.432   8.148 -0.3133  0.0532  1.3059
  984MOL0     H29844   2.943   2.271   7.999 -2.8530 -2.5742  0.9770
  984MOL0     H29845   2.819   2.388   7.984  0.3579 -1.9047 -0.7994
  984MOL0     H29846   2.919   2.236   8.215  0.3400 -1.5584 -1.3265
  984MOL0     H29847   2.801   2.358   8.244 -0.1303 -1.5627  1.5820
  984MOL0     H29848   2.680   2.131   8.213  0.7921  2.0633  0.5328
  984MOL0     H29849   2.773   2.105   8.059  0.4600  1.4108 -0.8972
  984MOL0     H29850   2.441   2.329   7.930  2.1515 -0.7130 -2.1823
  984MOL0     H29851   2.262   2.240   7.798  0.3460  3.6057  1.7653
  984MOL0     H29852   2.208   1.908   7.446 -0.4115 -1.1139 -0.2455
  984MOL0     H29853   2.030   1.848   7.290  0.6221  1.1092 -1.2206
  984MOL0     H29854   1.813   1.723   7.243 -1.4629 -0.1696  1.6296
  984MOL0     H29855   1.846   1.855   7.136 -0.1839  1.7866  0.4383
  984MOL0     H29856   1.572   1.768   7.216  0.2313  0.3630  0.7622
  984MOL0     H29857   1.651   1.704   7.083 -3.9199  0.0893 -0.6856
  984MOL0     H29858   1.680   1.986   7.033 -0.5933 -0.2877  0.9502
  984MOL0     H29859   1.530   1.977   7.126  0.1288 -0.6335  1.0075
  984MOL0     H29860   1.573   1.830   6.865 -1.2133 -2.2209 -0.0765
  984MOL0     H29861   1.431   1.821   6.956  1.7129 -1.6713  0.4094
  984MOL0     H29862   1.387   2.064   6.924  2.3181  2.1913  1.5889
  984MOL0     H29863   1.413   1.978   6.770 -0.6078 -0.6871  1.2661
  984MOL0     H29864   1.617   2.174   6.914  0.9539  0.1954 -0.3208
  984MOL0     H29865   1.524   2.206   6.774  3.6032  3.1509 -0.0317
  984MOL0     H29866   1.730   1.981   6.778 -0.4199  0.5071 -0.4975
  984MOL0     H29867   1.666   2.057   6.638 -1.6440  0.5208 -0.5451
  984MOL0     H29868   1.859   2.183   6.842  1.8122 -2.5964 -1.6432
  984MOL0     H29869   1.779   2.280   6.729 -2.4800  0.2500 -0.3951
  984MOL0     H29870   1.718   1.988   7.551  0.3887  0.5353 -0.9524
  984MOL0     H29871   1.905   2.068   7.711 -2.4646  2.4790 -2.0250
  984MOL0     H29872   2.390   1.843   7.935  0.5771 -0.8025  0.9333
  984MOL0     H29873   2.569   1.957   8.069  0.2742  0.6186 -0.3863
  984MOL0     H29874   3.006   3.349   7.419 -1.8444 -0.7555 -0.3946
  984MOL0     H29875   2.792   3.430   7.320 -0.6874  1.6104  0.8480
  984MOL0     H29876   2.370   3.653   7.246 -0.9887  0.5828 -0.3362
  984MOL0     H29877   2.210   3.784   7.113 -0.2004 -3.6608 -1.2669
  984MOL0     H29878   2.321   3.981   6.743  1.4511 -1.4652  1.9180
  984MOL0     H29879   2.374   4.106   6.857  0.8525  0.7162 -0.7743
  984MOL0     H29880   2.209   4.210   6.720 -2.7054  2.5071  1.2145
  984MOL0     H29881   2.090   4.100   6.789  1.8311 -3.2831  0.9290
  984MOL0     H29882   2.259   4.319   6.943  1.9840 -2.8616  2.6460
  984MOL0     H29883   2.193   4.183   7.012  0.8394 -0.0666 -1.0665
  984MOL0     H29884   2.011   4.366   6.856  0.2618  0.0568  1.0584
  984MOL0     H29885   1.964   4.236   6.962  0.2279 -0.7170 -1.5375
  984MOL0     H29886   2.031   4.573   7.205  0.8251 -0.3104 -0.2406
  984MOL0     H29887   2.494   3.881   6.825  1.2791 -2.2847 -0.5133
  984MOL0     H29888   2.656   3.735   6.920 -1.4894 -0.5548 -2.3771
  985MOL0     O29889   4.709   2.964  10.897 -0.2297  0.3466  1.1068
  985MOL0     C29890   4.737   2.895  10.992 -0.1748  0.2054 -0.4182
  985MOL0     O29891   4.681   2.788  11.042  0.9658 -0.5766 -0.4979
  985MOL0     C29892   4.578   2.713  10.984  0.0867  1.1768 -0.1720
  985MOL0     C29893   4.556   2.702  10.848 -0.5979  0.2956 -1.1771
  985MOL0     C29894   4.439   2.622  10.810 -1.0347  0.1065  0.5680
  985MOL0     C29895   4.356   2.561  10.904 -0.0158  0.5289  0.5551
  985MOL0     O29896   4.261   2.491  10.841 -0.0690 -0.0589  0.1263
  985MOL0     C29897   4.161   2.429  10.923  0.5518 -0.7177 -0.0683
  985MOL0     C29898   4.061   2.529  10.984  0.7007  0.3261  0.5922
  985MOL0     C29899   4.007   2.635  10.879  0.5059  0.3975 -0.1268
  985MOL0     C29900   3.920   2.587  10.769  0.0569  0.1460 -0.2325
  985MOL0     C29901   3.766   2.603  10.795 -0.1255 -0.7768 -0.0241
  985MOL0     C29902   3.691   2.491  10.876 -1.1532 -0.0617  0.4563
  985MOL0     C29903   3.542   2.545  10.905 -1.0557 -0.5566 -0.6570
  985MOL0     C29904   3.537   2.645  11.021 -0.1381  0.5157  0.2492
  985MOL0     N29905   3.399   2.698  11.015 -0.5078 -0.6915  0.2373
  985MOL0     C29906   3.292   2.626  11.060  0.0160  0.5029  0.5827
  985MOL0     C29907   3.185   2.702  11.020 -0.4398  0.3085  0.5320
  985MOL0     C29908   3.049   2.638  11.016 -0.1739  0.5865 -0.4093
  985MOL0     C29909   2.984   2.616  11.164 -0.0902  0.6665 -0.1456
  985MOL0     C29910   2.840   2.571  11.143 -0.1223  0.2388 -0.3026
  985MOL0     C29911   2.763   2.514  11.265 -0.2877  0.5342 -0.2929
  985MOL0     O29912   2.856   2.421  11.334 -0.0872 -0.4775  1.0201
  985MOL0     C29913   2.797   2.315  11.398 -1.2972  0.7132 -0.1087
  985MOL0     C29914   2.891   2.226  11.460  0.7901 -0.6889  0.0162
  985MOL0     C29915   2.848   2.110  11.526 -0.0692 -0.5284  0.7616
  985MOL0     C29916   2.714   2.079  11.521 -0.0556 -0.9013 -0.8016
  985MOL0     C29917   2.666   1.958  11.586  0.4503 -0.2582  0.7416
  985MOL0     O29918   2.530   1.928  11.574 -0.6037  0.3210  0.1350
  985MOL0     C29919   2.466   1.825  11.644  0.4532 -0.1646  0.6685
  985MOL0     C29920   2.498   1.796  11.780 -0.1748 -0.0705 -0.2065
  985MOL0     C29921   2.440   1.685  11.846 -0.0670  0.3997 -0.3040
  985MOL0     C29922   2.365   1.586  11.786 -1.0750 -0.1327 -0.2384
  985MOL0     O29923   2.325   1.476  11.853 -1.1494 -0.3629 -0.3492
  985MOL0     C29924   2.237   1.385  11.791 -0.7786  0.5136 -0.4294
  985MOL0     C29925   2.092   1.426  11.750 -0.7631  0.6560  0.0054
  985MOL0     C29926   2.050   1.525  11.861 -0.1382  1.2354  0.3069
  985MOL0     C29927   1.900   1.532  11.870 -0.0700 -0.5737 -0.1607
  985MOL0     C29928   1.848   1.625  11.754  0.5069  0.4928 -0.7511
  985MOL0     C29929   1.690   1.654  11.772 -0.6975 -0.4037  0.0670
  985MOL0     C29930   1.623   1.742  11.665 -0.5086  0.5160 -0.4479
  985MOL0     C29931   1.480   1.738  11.684 -0.2435  0.3234  0.1817
  985MOL0    Cl29932   1.405   1.574  11.696 -0.3219 -0.1818 -0.0687
  985MOL0     C29933   2.347   1.605  11.646 -0.5839 -0.7860 -0.5730
  985MOL0     C29934   2.387   1.723  11.578 -1.1073 -0.9654 -1.0575
  985MOL0     O29935   2.747   1.887  11.648 -0.1200  0.2201 -0.1320
  985MOL0     C29936   2.623   2.171  11.469  0.9751 -0.1536 -0.0812
  985MOL0     C29937   2.662   2.287  11.413 -0.3395 -0.4027 -0.2343
  985MOL0     N29938   3.233   2.798  10.930  1.1187  0.0523 -0.3284
  985MOL0     N29939   3.355   2.808  10.933 -0.4019  0.1524 -0.9395
  985MOL0     C29940   4.386   2.579  11.035  0.4738  0.7727  0.0973
  985MOL0     C29941   4.493   2.654  11.077 -0.1732  0.7636 -0.1682
  985MOL0     C29942   4.852   2.939  11.069 -0.2736 -0.2043 -1.1335
  985MOL0     C29943   4.905   3.064  11.038  0.3632 -0.8377 -0.3043
  985MOL0     C29944   5.024   3.098  11.104 -0.1745 -0.6408 -0.1365
  985MOL0     C29945   5.087   3.013  11.202  0.3373  0.5640  0.1556
  985MOL0     O29946   5.197   3.051  11.259 -0.4142  0.2778  0.2823
  985MOL0     C29947   5.327   3.062  11.185  0.2909 -0.2523 -0.1860
  985MOL0     C29948   5.411   2.958  11.266 -0.1291 -0.7536  0.5624
  985MOL0     C29949   5.425   2.993  11.413 -1.1319 -0.7209 -0.4730
  985MOL0     C29950   5.474   3.137  11.450  0.3522  0.7876  0.0848
  985MOL0     C29951   5.595   3.158  11.376 -0.3430  1.1221  0.8320
  985MOL0     C29952   5.705   3.163  11.318  0.4616  0.2148 -1.1543
  985MOL0     C29953   5.029   2.890  11.228 -0.0077  0.9000  0.0169
  985MOL0     C29954   4.912   2.852  11.165  0.3037 -0.1991 -0.0358
  985MOL0     H29955   4.616   2.741  10.766 -2.3311  1.4904 -1.9541
  985MOL0     H29956   4.414   2.618  10.704 -0.3500 -1.8194  0.4325
  985MOL0     H29957   4.211   2.365  10.995  0.4378 -0.1048  0.5663
  985MOL0     H29958   4.095   2.370  10.860  0.1782  1.3847 -1.7908
  985MOL0     H29959   4.105   2.574  11.073  1.4206  0.6991  0.0582
  985MOL0     H29960   3.975   2.473  11.022  0.4260  0.7181  0.5481
  985MOL0     H29961   4.093   2.678  10.826  0.8871 -1.4540 -1.1156
  985MOL0     H29962   3.947   2.703  10.940  1.9996 -0.7526  2.8581
  985MOL0     H29963   3.954   2.638  10.678  2.7324  1.3662  1.3380
  985MOL0     H29964   3.932   2.480  10.747 -0.2394 -1.0149  4.3697
  985MOL0     H29965   3.713   2.613  10.700  1.6044 -0.3266 -0.9781
  985MOL0     H29966   3.754   2.702  10.839 -1.1633 -0.4020 -1.0916
  985MOL0     H29967   3.753   2.485  10.966  0.1315  0.1291 -0.3862
  985MOL0     H29968   3.690   2.400  10.816  1.1421  1.3422 -1.9735
  985MOL0     H29969   3.505   2.588  10.811 -0.2360  0.7294 -0.4126
  985MOL0     H29970   3.474   2.467  10.939 -0.6194  0.1013  1.9224
  985MOL0     H29971   3.612   2.725  11.024  1.8962 -1.3352  1.6241
  985MOL0     H29972   3.539   2.593  11.117  0.6885 -1.3947 -0.7472
  985MOL0     H29973   3.293   2.541  11.128  1.3636 -1.4193 -1.6482
  985MOL0     H29974   3.047   2.541  10.967  0.0115  1.4698 -2.2545
  985MOL0     H29975   2.974   2.698  10.964 -0.4054 -0.8703 -1.8009
  985MOL0     H29976   2.990   2.708  11.223  0.7093  1.0283 -0.7727
  985MOL0     H29977   3.041   2.535  11.211  0.2698  0.2673 -1.2390
  985MOL0     H29978   2.791   2.657  11.096 -0.6907  0.5325  0.7962
  985MOL0     H29979   2.845   2.488  11.072  0.6029 -0.3624  0.4338
  985MOL0     H29980   2.676   2.458  11.231 -1.0287 -0.4315  2.8329
  985MOL0     H29981   2.735   2.600  11.327  1.3304  0.2498  0.8940
  985MOL0     H29982   2.995   2.249  11.442  1.1026 -0.0191  2.4219
  985MOL0     H29983   2.921   2.035  11.553  0.8891  0.2248  0.2919
  985MOL0     H29984   2.562   1.862  11.839  0.2733  1.3042 -2.1386
  985MOL0     H29985   2.483   1.671  11.945  2.0660 -0.6429 -1.3238
  985MOL0     H29986   2.229   1.300  11.858  1.1875  0.2154 -0.4966
  985MOL0     H29987   2.285   1.348  11.699 -0.8581  1.6738 -0.9560
  985MOL0     H29988   2.034   1.333  11.754  0.9902 -0.5608 -1.1994
  985MOL0     H29989   2.079   1.475  11.653 -0.1140  0.1110 -0.3623
  985MOL0     H29990   2.091   1.622  11.830 -1.6001  0.5583 -4.5019
  985MOL0     H29991   2.099   1.488  11.952  0.3695 -0.4367 -0.6224
  985MOL0     H29992   1.852   1.437  11.845 -0.4491  0.0345 -1.8725
  985MOL0     H29993   1.865   1.569  11.967 -0.0709 -0.8998 -0.0349
  985MOL0     H29994   1.857   1.558  11.668 -2.2758 -1.6212  0.4727
  985MOL0     H29995   1.901   1.721  11.747 -0.1707  0.9585  0.2580
  985MOL0     H29996   1.683   1.717  11.861 -3.6880 -0.2765 -0.1321
  985MOL0     H29997   1.631   1.565  11.797 -2.0324 -0.2310 -2.1584
  985MOL0     H29998   1.647   1.849  11.657 -1.1062  1.0219  2.9887
  985MOL0     H29999   1.642   1.701  11.565 -0.3137 -0.8548  0.1414
  985MOL0     H30000   1.429   1.800  11.609 -0.3297  1.2402  0.9729
  985MOL0     H30001   1.446   1.783  11.777 -4.5380  0.7733 -1.3670
  985MOL0     H30002   2.295   1.523  11.597  0.0585 -0.2759 -2.1639
  985MOL0     H30003   2.377   1.755  11.475  1.2478 -1.7784 -1.6075
  985MOL0     H30004   2.517   2.151  11.481  0.4048  0.7082 -3.0101
  985MOL0     H30005   2.592   2.356  11.366  2.1309  1.4846 -1.3439
  985MOL0     H30006   4.328   2.518  11.104  0.3136 -1.5922 -2.0001
  985MOL0     H30007   4.515   2.662  11.183 -0.5886  1.8054 -0.1489
  985MOL0     H30008   4.867   3.140  10.972  1.1335 -0.1081  0.0619
  985MOL0     H30009   5.065   3.197  11.088 -1.7153 -0.0122 -0.2845
  985MOL0     H30010   5.353   3.168  11.187 -0.6863 -0.0031  0.3507
  985MOL0     H30011   5.327   3.031  11.080  1.7907 -0.8435 -0.0284
  985MOL0     H30012   5.371   2.857  11.255  2.2053 -1.6933  0.1428
  985MOL0     H30013   5.506   2.944  11.214 -0.7929  1.8710 -1.6013
  985MOL0     H30014   5.501   2.921  11.444  0.2008  1.6384  2.2214
  985MOL0     H30015   5.341   2.975  11.481 -1.1166  0.7091 -0.0526
  985MOL0     H30016   5.411   3.219  11.415  1.6814  2.4200  1.3581
  985MOL0     H30017   5.483   3.144  11.558 -1.5217 -2.0370  0.5399
  985MOL0     H30018   5.804   3.166  11.277 -0.5624 -2.9939 -4.5086
  985MOL0     H30019   5.087   2.811  11.275 -0.9113 -0.7548 -1.5309
  985MOL0     H30020   4.884   2.753  11.199  1.3929 -0.3318  0.5213
  986MOL0     O30021   1.940   2.031   5.080 -0.0250  0.4506 -0.5841
  986MOL0     C30022   2.033   1.957   5.055  0.6200 -0.1022 -1.3792
  986MOL0     O30023   2.041   1.826   5.087  0.2318 -0.1348 -0.1760
  986MOL0     C30024   1.935   1.757   5.145 -0.0097 -0.5295 -0.1859
  986MOL0     C30025   1.799   1.800   5.184 -0.0222  1.2037  0.2007
  986MOL0     C30026   1.714   1.703   5.250 -0.0143 -0.1342  0.1018
  986MOL0     C30027   1.750   1.573   5.281  0.6989  0.2167 -0.8434
  986MOL0     O30028   1.669   1.477   5.342 -0.2064 -0.5967 -0.1195
  986MOL0     C30029   1.540   1.528   5.388  0.7178  0.9099  0.0940
  986MOL0     C30030   1.461   1.418   5.455 -0.7126  0.4970 -0.0678
  986MOL0     C30031   1.333   1.471   5.522  0.8628  0.1651  0.7734
  986MOL0     C30032   1.265   1.360   5.608 -0.8774  0.5001  0.2176
  986MOL0     C30033   1.105   1.377   5.598 -0.6448  0.3076 -0.4980
  986MOL0     C30034   1.067   1.480   5.700  0.7843  0.8520 -0.2759
  986MOL0     C30035   0.914   1.486   5.721  0.2869 -0.6721 -0.8425
  986MOL0     C30036   0.822   1.557   5.622  0.3650  0.4065  0.0218
  986MOL0     N30037   0.676   1.531   5.638  0.0579  0.0543 -0.0946
  986MOL0     C30038   0.585   1.605   5.573  0.1127 -0.5646  0.6207
  986MOL0     C30039   0.467   1.548   5.599 -0.0157  0.7053  0.2770
  986MOL0     C30040   0.338   1.578   5.528  0.2521  0.4418 -0.7262
  986MOL0     C30041   0.212   1.509   5.579  0.5620  0.3325 -0.6209
  986MOL0     C30042   0.096   1.518   5.495 -0.0106  0.3483  0.8004
  986MOL0     C30043  -0.036   1.480   5.563  0.6042  0.7032 -0.7138
  986MOL0     O30044  -0.050   1.567   5.687 -0.1374 -0.0688  0.4883
  986MOL0     C30045  -0.123   1.684   5.672  0.3042 -0.1417  0.4754
  986MOL0     C30046  -0.113   1.771   5.773  0.1619  0.5537  0.5232
  986MOL0     C30047  -0.187   1.890   5.778  0.7086 -0.1047 -0.0936
  986MOL0     C30048  -0.284   1.921   5.678  0.7821  0.2794 -1.2432
  986MOL0     C30049  -0.365   2.037   5.694 -0.3551  0.1419 -0.1194
  986MOL0     O30050  -0.315   2.144   5.762  0.0577  0.6420 -0.3695
  986MOL0     C30051  -0.369   2.268   5.736 -0.2968 -0.6391  1.5601
  986MOL0     C30052  -0.291   2.348   5.654 -0.0962  0.1847  0.4693
  986MOL0     C30053  -0.340   2.474   5.614  0.5750 -0.2404  0.5296
  986MOL0     C30054  -0.458   2.530   5.670 -0.8116  0.1254  0.1116
  986MOL0     O30055  -0.504   2.657   5.638  0.1662 -0.3089  0.6540
  986MOL0     C30056  -0.610   2.706   5.717  0.5319 -0.0734 -0.5175
  986MOL0     C30057  -0.656   2.850   5.676  0.5014  0.3555 -0.9805
  986MOL0     C30058  -0.787   2.915   5.748  0.3791  0.8704 -0.0183
  986MOL0     C30059  -0.833   3.038   5.674  0.3539 -0.2148 -0.2199
  986MOL0     C30060  -0.963   3.092   5.740 -0.1506 -0.3505  0.7098
  986MOL0     C30061  -0.937   3.198   5.848  0.2993  0.2330  0.6491
  986MOL0     C30062  -1.062   3.278   5.884 -0.0169 -0.2573 -0.3070
  986MOL0     C30063  -1.109   3.375   5.782 -0.3531  0.1140  0.2869
  986MOL0    Cl30064  -0.986   3.510   5.758 -0.2677  0.6268 -0.3003
  986MOL0     C30065  -0.530   2.444   5.760  0.0134  1.1454  1.0311
  986MOL0     C30066  -0.487   2.317   5.791  0.4318  0.7744 -0.4455
  986MOL0     O30067  -0.469   2.045   5.626 -0.9854  0.1897  0.3144
  986MOL0     C30068  -0.292   1.829   5.570 -0.4572 -0.2272  0.3587
  986MOL0     C30069  -0.211   1.715   5.568 -0.6109  0.5314 -0.0357
  986MOL0     N30070   0.493   1.442   5.683  0.4453 -1.6177 -0.4123
  986MOL0     N30071   0.617   1.435   5.716  0.1571  0.5413  0.1461
  986MOL0     C30072   1.874   1.541   5.238  0.2681 -0.3837 -0.4235
  986MOL0     C30073   1.965   1.622   5.173  0.3458 -0.7842 -0.5740
  986MOL0     C30074   2.148   2.024   4.977 -0.8537  0.3230 -1.0974
  986MOL0     C30075   2.119   2.137   4.899 -0.1543 -0.5557 -0.4664
  986MOL0     C30076   2.229   2.212   4.837  0.7724 -0.3446 -0.8144
  986MOL0     C30077   2.360   2.162   4.835  0.6184 -0.1690 -0.6388
  986MOL0     O30078   2.458   2.232   4.790 -1.3315  0.0512 -0.2950
  986MOL0     C30079   2.592   2.192   4.809 -1.9327  0.4190 -1.2187
  986MOL0     C30080   2.698   2.269   4.738  0.1509 -0.0747  0.2007
  986MOL0     C30081   2.721   2.216   4.590 -0.2072  0.3989  0.3860
  986MOL0     C30082   2.786   2.324   4.505 -0.6530 -0.4268 -0.0599
  986MOL0     C30083   2.829   2.259   4.374 -0.4139  0.1871  0.4266
  986MOL0     C30084   2.857   2.199   4.269 -0.0303 -0.7115  0.0315
  986MOL0     C30085   2.379   2.043   4.911 -0.5314 -0.5185 -0.4968
  986MOL0     C30086   2.280   1.974   4.979  0.2625 -0.9381  0.8738
  986MOL0     H30087   1.750   1.892   5.155 -3.8493  0.4505  3.4195
  986MOL0     H30088   1.613   1.726   5.281 -1.6569 -1.3273 -3.7567
  986MOL0     H30089   1.480   1.555   5.301  1.5628  2.0713 -0.1498
  986MOL0     H30090   1.555   1.604   5.465 -0.9938 -1.5014  2.9980
  986MOL0     H30091   1.536   1.362   5.511 -3.3320 -0.4895  2.7716
  986MOL0     H30092   1.424   1.353   5.375  0.3498 -0.7147  0.3889
  986MOL0     H30093   1.267   1.511   5.444  1.5692 -0.2167 -0.0489
  986MOL0     H30094   1.356   1.545   5.599  1.6711 -1.1811  1.8709
  986MOL0     H30095   1.301   1.266   5.564  1.0954  1.0904  0.4578
  986MOL0     H30096   1.305   1.351   5.709 -1.3607 -2.3279  0.2517
  986MOL0     H30097   1.062   1.282   5.633  0.2476 -0.1668 -0.6539
  986MOL0     H30098   1.068   1.391   5.497 -0.4568 -1.2946 -0.8131
  986MOL0     H30099   1.102   1.577   5.664  0.4643  0.2747 -2.2251
  986MOL0     H30100   1.117   1.451   5.794 -0.6604  0.3051  0.3492
  986MOL0     H30101   0.874   1.384   5.725 -1.8436  0.1437  1.0114
  986MOL0     H30102   0.881   1.531   5.816 -5.3873 -1.6414 -1.9769
  986MOL0     H30103   0.852   1.540   5.518  0.5921 -0.1418  0.1745
  986MOL0     H30104   0.836   1.665   5.638 -1.6397  0.7283 -0.0523
  986MOL0     H30105   0.607   1.680   5.497 -1.2424 -0.8053 -0.0400
  986MOL0     H30106   0.346   1.560   5.421  0.9612  1.3903 -0.8444
  986MOL0     H30107   0.329   1.687   5.527 -1.6350  0.3550  0.4469
  986MOL0     H30108   0.199   1.560   5.675 -0.8240  0.3756 -0.8063
  986MOL0     H30109   0.224   1.403   5.605  0.1081  0.5551  0.5847
  986MOL0     H30110   0.094   1.620   5.453  1.1184 -1.0537 -3.1658
  986MOL0     H30111   0.121   1.451   5.412 -0.5804  1.6690 -0.5016
  986MOL0     H30112  -0.033   1.382   5.612 -1.1743  0.2955 -1.3361
  986MOL0     H30113  -0.122   1.484   5.495 -0.9329  0.4680  1.1385
  986MOL0     H30114  -0.053   1.733   5.856 -0.0672  0.0096  0.4490
  986MOL0     H30115  -0.167   1.953   5.864  2.0946  1.4185 -1.4570
  986MOL0     H30116  -0.192   2.324   5.617  0.3597  3.3716 -0.7067
  986MOL0     H30117  -0.274   2.531   5.548 -0.8223  1.6414  0.6843
  986MOL0     H30118  -0.574   2.711   5.820  1.7453  0.1760 -0.9334
  986MOL0     H30119  -0.691   2.633   5.719  0.9113 -0.5680  2.9628
  986MOL0     H30120  -0.675   2.849   5.568  2.2835 -0.2821 -1.3250
  986MOL0     H30121  -0.568   2.913   5.691  0.0581  0.8951 -0.6342
  986MOL0     H30122  -0.761   2.937   5.852  0.6506  1.6420 -0.2432
  986MOL0     H30123  -0.870   2.843   5.754  0.5869  0.7469  2.1685
  986MOL0     H30124  -0.750   3.109   5.670  1.3176 -1.3471 -1.3177
  986MOL0     H30125  -0.855   3.010   5.570 -0.9444 -0.6404  0.1520
  986MOL0     H30126  -1.021   3.004   5.770 -0.8847 -0.4800 -0.9729
  986MOL0     H30127  -1.026   3.143   5.666 -0.1499  0.5637  1.3209
  986MOL0     H30128  -0.864   3.272   5.813  1.2700 -0.5263  0.9917
  986MOL0     H30129  -0.905   3.141   5.936 -2.4829 -2.3116  0.1685
  986MOL0     H30130  -1.144   3.206   5.889  1.6298 -2.1766  0.8035
  986MOL0     H30131  -1.049   3.317   5.985 -0.5860  0.1240 -0.3730
  986MOL0     H30132  -1.202   3.426   5.808 -0.9178 -1.2122  0.9648
  986MOL0     H30133  -1.133   3.328   5.687  1.8795  2.8095 -1.7887
  986MOL0     H30134  -0.623   2.479   5.805 -0.2176  0.9766  0.6936
  986MOL0     H30135  -0.548   2.252   5.854  0.1396  0.3612 -1.1420
  986MOL0     H30136  -0.354   1.855   5.485  1.5709 -0.3221 -1.2284
  986MOL0     H30137  -0.215   1.656   5.477 -2.4918  1.5315 -0.6394
  986MOL0     H30138   1.906   1.438   5.255  2.8156  0.2862 -0.7371
  986MOL0     H30139   2.057   1.579   5.135 -0.3121  0.2820 -3.6825
  986MOL0     H30140   2.025   2.183   4.870 -0.6319 -1.6897 -0.7713
  986MOL0     H30141   2.210   2.306   4.787  2.5667 -0.0087 -0.9555
  986MOL0     H30142   2.606   2.087   4.785 -0.8719 -0.2511  1.8557
  986MOL0     H30143   2.615   2.205   4.915 -1.1469  1.6478 -1.5211
  986MOL0     H30144   2.665   2.372   4.722  1.7733  0.4359 -0.0813
  986MOL0     H30145   2.785   2.275   4.804 -1.1813  0.2357  1.9738
  986MOL0     H30146   2.618   2.204   4.558 -0.2403 -0.1138  0.6783
  986MOL0     H30147   2.779   2.123   4.589  1.7248  1.4376 -3.6066
  986MOL0     H30148   2.742   2.423   4.490  0.3140  0.1390  0.6667
  986MOL0     H30149   2.874   2.342   4.568 -1.0077  0.3367  0.2186
  986MOL0     H30150   2.890   2.140   4.186  0.9238 -1.0790  0.6530
  986MOL0     H30151   2.481   2.011   4.928 -0.3314  0.3569 -0.0004
  986MOL0     H30152   2.314   1.884   5.029  1.0682 -0.7673  0.6565
  987MOL0     O30153   0.983   5.810  10.604 -0.6093 -0.2725 -0.4060
  987MOL0     C30154   1.029   5.876  10.694 -1.1253  0.2893  0.1813
  987MOL0     O30155   0.961   5.972  10.763  0.3463  0.1030  0.6681
  987MOL0     C30156   0.826   5.986  10.727  0.1505  0.2671 -0.1386
  987MOL0     C30157   0.745   5.885  10.785  1.4137  0.7407 -0.8439
  987MOL0     C30158   0.609   5.883  10.766  0.2245 -0.5375  0.4034
  987MOL0     C30159   0.553   5.989  10.692  0.5128 -0.1061 -0.7186
  987MOL0     O30160   0.417   5.988  10.667  0.7842 -0.4847 -0.2666
  987MOL0     C30161   0.355   6.108  10.725 -0.1177 -1.2109 -0.4358
  987MOL0     C30162   0.207   6.073  10.737  1.2161 -0.3060 -0.4833
  987MOL0     C30163   0.125   6.181  10.812  0.4744  0.9097  0.2723
  987MOL0     C30164  -0.024   6.153  10.807 -0.3065  0.2168  0.6968
  987MOL0     C30165  -0.120   6.266  10.826 -0.2997  0.4031 -0.0237
  987MOL0     C30166  -0.258   6.221  10.778  0.4042  0.1577  1.3668
  987MOL0     C30167  -0.329   6.122  10.871  0.0207  0.1387  0.4484
  987MOL0     C30168  -0.468   6.081  10.822  0.3468 -0.6979 -0.0672
  987MOL0     N30169  -0.574   6.179  10.852 -0.9429 -0.6609  0.0234
  987MOL0     C30170  -0.685   6.155  10.918 -0.0585  0.0675 -1.0043
  987MOL0     C30171  -0.761   6.263  10.889  1.1809 -0.2351  0.3690
  987MOL0     C30172  -0.899   6.291  10.939 -0.9650 -0.3593  0.3320
  987MOL0     C30173  -0.937   6.443  10.944  0.3645  0.8605 -0.1908
  987MOL0     C30174  -1.082   6.470  10.984  0.3292 -0.4008 -0.8336
  987MOL0     C30175  -1.118   6.618  10.969 -0.3363 -0.0504 -0.8230
  987MOL0     O30176  -1.248   6.651  11.035  0.2302 -0.1309  1.0613
  987MOL0     C30177  -1.310   6.771  11.021 -0.4628 -0.0972 -0.2513
  987MOL0     C30178  -1.438   6.789  11.068 -0.1452 -0.5964  0.7205
  987MOL0     C30179  -1.499   6.913  11.053 -0.9070 -0.7048 -0.6047
  987MOL0     C30180  -1.436   7.025  10.989  0.0179  0.8543  0.5778
  987MOL0     C30181  -1.511   7.142  10.967  1.2233  0.0736  0.3453
  987MOL0     O30182  -1.637   7.150  11.014  1.0270  0.0293 -0.1787
  987MOL0     C30183  -1.705   7.268  10.989  0.0363 -0.6285  0.1241
  987MOL0     C30184  -1.719   7.364  11.088 -0.9474 -1.1386  0.2795
  987MOL0     C30185  -1.790   7.487  11.080 -0.1296  0.8297  0.6155
  987MOL0     C30186  -1.856   7.517  10.959 -0.7055  0.2854 -0.8962
  987MOL0     O30187  -1.923   7.635  10.942  0.1772 -0.9728  0.5593
  987MOL0     C30188  -1.903   7.747  11.023  0.3180  0.3509 -0.0703
  987MOL0     C30189  -1.971   7.869  10.949 -0.3586  1.8361 -0.5582
  987MOL0     C30190  -2.125   7.865  10.942  0.8386 -0.5573 -0.3404
  987MOL0     C30191  -2.171   7.995  10.874 -0.5989  0.3842  0.2613
  987MOL0     C30192  -2.318   8.002  10.846  0.0707 -0.3817 -0.4313
  987MOL0     C30193  -2.389   8.024  10.983 -0.1174  0.0563  0.6553
  987MOL0     C30194  -2.534   8.062  10.980 -0.2455  0.2012  0.6096
  987MOL0     C30195  -2.600   8.072  11.124  0.4581 -0.3250 -0.9511
  987MOL0    Cl30196  -2.775   8.047  11.110 -0.1260 -0.3933  0.6590
  987MOL0     C30197  -1.851   7.420  10.857 -0.9588 -0.2307  0.1102
  987MOL0     C30198  -1.779   7.294  10.872  0.1118  0.0123  0.9183
  987MOL0     O30199  -1.453   7.234  10.910  0.0987 -0.2917  0.4359
  987MOL0     C30200  -1.303   7.014  10.953  1.0076  0.5877  0.2582
  987MOL0     C30201  -1.240   6.887  10.968  1.1983  0.3711 -0.7743
  987MOL0     N30202  -0.703   6.361  10.818 -0.3022  0.0222  0.5030
  987MOL0     N30203  -0.593   6.303  10.787 -0.2105  0.6815  0.4852
  987MOL0     C30204   0.629   6.095  10.644 -1.1876  1.2226 -0.4473
  987MOL0     C30205   0.775   6.088  10.656  0.5211 -0.8212  0.3151
  987MOL0     C30206   1.176   5.877  10.705 -0.6915 -0.5181 -1.1132
  987MOL0     C30207   1.237   5.953  10.803  0.7164  0.2148 -0.3576
  987MOL0     C30208   1.371   5.952  10.834  0.2477  0.1742 -0.4031
  987MOL0     C30209   1.458   5.873  10.767 -0.0218  0.4248  0.1121
  987MOL0     O30210   1.591   5.871  10.791  0.2583 -0.2668  0.3177
  987MOL0     C30211   1.663   5.961  10.887 -0.8813  0.0782  1.3515
  987MOL0     C30212   1.701   6.088  10.809 -0.4486 -0.9380  0.9525
  987MOL0     C30213   1.840   6.088  10.731  0.3545 -0.5873  0.2286
  987MOL0     C30214   1.849   5.998  10.611 -0.3481  0.0862 -0.0537
  987MOL0     C30215   1.986   5.999  10.549  0.5392  0.0720 -0.8465
  987MOL0     C30216   2.093   6.006  10.492 -0.2980 -0.1176 -0.0274
  987MOL0     C30217   1.409   5.791  10.668 -0.1527 -0.5737  0.4915
  987MOL0     C30218   1.270   5.781  10.649  0.7097  0.2773  0.5648
  987MOL0     H30219   0.782   5.810  10.854 -0.3081 -0.7135 -1.4319
  987MOL0     H30220   0.545   5.801  10.799  0.2965 -0.9437 -0.4405
  987MOL0     H30221   0.372   6.179  10.644  2.6812 -3.0531 -1.6003
  987MOL0     H30222   0.398   6.132  10.823 -1.7901 -0.8172  0.2251
  987MOL0     H30223   0.199   5.973  10.779  1.7531 -0.2810 -0.3115
  987MOL0     H30224   0.158   6.076  10.639 -2.5424  0.6841  1.2604
  987MOL0     H30225   0.145   6.276  10.763  1.3369  2.1147  2.7866
  987MOL0     H30226   0.164   6.176  10.915  2.1964  1.0794 -0.3454
  987MOL0     H30227  -0.049   6.090  10.721  0.3383 -2.8917  2.6123
  987MOL0     H30228  -0.043   6.083  10.889  0.8802 -0.8565  0.0919
  987MOL0     H30229  -0.081   6.348  10.765  1.7043 -1.0170 -0.7446
  987MOL0     H30230  -0.117   6.301  10.930 -1.5715 -1.4353  0.6873
  987MOL0     H30231  -0.257   6.175  10.678 -0.7029 -1.9386  2.2579
  987MOL0     H30232  -0.316   6.313  10.763 -0.2847 -0.6738 -1.9992
  987MOL0     H30233  -0.268   6.031  10.875 -2.8145 -1.8638  3.0332
  987MOL0     H30234  -0.327   6.175  10.966 -2.0654  2.3116 -0.6073
  987MOL0     H30235  -0.491   5.988  10.874 -4.1194 -0.1854 -0.7309
  987MOL0     H30236  -0.460   6.061  10.715 -1.8042 -0.7489 -0.2649
  987MOL0     H30237  -0.720   6.068  10.973 -0.6413  2.6732  3.2325
  987MOL0     H30238  -0.922   6.247  11.037 -0.3914 -0.3938  0.4512
  987MOL0     H30239  -0.973   6.259  10.865  2.9252  0.3733 -4.3479
  987MOL0     H30240  -0.938   6.484  10.843  0.6654  0.2530 -0.4442
  987MOL0     H30241  -0.866   6.489  11.013 -1.4580  0.6687  1.9755
  987MOL0     H30242  -1.158   6.412  10.932 -3.2917  3.1473  0.0592
  987MOL0     H30243  -1.087   6.449  11.091 -1.5581 -0.1484 -0.8408
  987MOL0     H30244  -1.117   6.647  10.863  0.7982 -2.0998 -1.4272
  987MOL0     H30245  -1.038   6.679  11.012 -0.3459 -0.5898 -0.0334
  987MOL0     H30246  -1.496   6.706  11.108  0.0163 -1.7532 -1.3376
  987MOL0     H30247  -1.601   6.919  11.090 -0.8941 -3.7207  0.1765
  987MOL0     H30248  -1.652   7.344  11.171 -1.0683  0.4207  0.7932
  987MOL0     H30249  -1.769   7.548  11.167  0.4751 -2.8588  3.2642
  987MOL0     H30250  -1.795   7.763  11.021  0.6128 -1.4756 -0.7818
  987MOL0     H30251  -1.945   7.736  11.123 -0.9684 -0.8980 -0.7038
  987MOL0     H30252  -1.942   7.867  10.843 -1.6174 -1.5040 -0.9535
  987MOL0     H30253  -1.944   7.968  10.987 -1.3719  0.9986  2.6750
  987MOL0     H30254  -2.180   7.865  11.037 -1.1990  0.5954 -1.4351
  987MOL0     H30255  -2.173   7.786  10.883 -1.9923  0.7409  0.0207
  987MOL0     H30256  -2.137   8.074  10.940  2.2528 -1.8076  1.6186
  987MOL0     H30257  -2.121   7.997  10.777  0.4573 -0.2188  0.7701
  987MOL0     H30258  -2.358   7.908  10.806  0.9112 -1.5160  1.2596
  987MOL0     H30259  -2.314   8.089  10.780  0.1066  0.6336  0.8746
  987MOL0     H30260  -2.336   8.108  11.028 -1.2650 -0.4087  3.0316
  987MOL0     H30261  -2.374   7.928  11.032  2.6289 -1.6361 -3.0406
  987MOL0     H30262  -2.557   8.161  10.941 -0.0534 -0.7362 -2.0932
  987MOL0     H30263  -2.598   7.997  10.919  1.9266  1.3582 -3.2774
  987MOL0     H30264  -2.575   8.171  11.162  3.6568 -0.4173 -2.4781
  987MOL0     H30265  -2.549   8.001  11.190 -0.0028  0.6858  0.5449
  987MOL0     H30266  -1.903   7.444  10.764  0.4299 -0.6526 -0.8126
  987MOL0     H30267  -1.777   7.213  10.800  0.9301 -0.4136  1.4088
  987MOL0     H30268  -1.248   7.102  10.922  0.4488  0.9444  0.2499
  987MOL0     H30269  -1.133   6.891  10.956  1.7956  0.1866  3.1220
  987MOL0     H30270   0.589   6.182  10.593 -0.2755  0.8247 -1.9024
  987MOL0     H30271   0.829   6.171  10.613  0.9749 -0.1357  2.1245
  987MOL0     H30272   1.175   6.019  10.862  1.8456  0.7062  0.3014
  987MOL0     H30273   1.400   6.017  10.916  0.3013 -0.3276 -0.0207
  987MOL0     H30274   1.750   5.909  10.928  1.3759  1.7694 -0.9838
  987MOL0     H30275   1.591   5.971  10.969 -2.6412 -1.8006  0.1346
  987MOL0     H30276   1.614   6.122  10.751  0.5147  1.8176  0.9961
  987MOL0     H30277   1.722   6.168  10.880 -1.0498 -0.2544  0.3754
  987MOL0     H30278   1.915   6.067  10.807 -2.1117 -1.4334  2.5952
  987MOL0     H30279   1.857   6.189  10.691 -5.4278  1.4316  1.8552
  987MOL0     H30280   1.830   5.896  10.646 -0.8581 -0.3929 -1.6499
  987MOL0     H30281   1.773   6.027  10.538 -1.1872  1.8735  1.4345
  987MOL0     H30282   2.174   6.029  10.426 -1.6134  1.8504 -1.0400
  987MOL0     H30283   1.473   5.727  10.608 -0.3752 -0.5888  0.2697
  987MOL0     H30284   1.236   5.704  10.580  2.5527 -0.8926  0.8902
  988MOL0     O30285   5.816   9.013   3.130  0.3138  0.5140 -0.0267
  988MOL0     C30286   5.821   8.989   3.011 -0.0439  1.2901  0.1563
  988MOL0     O30287   5.932   8.984   2.933 -0.4533  0.1714 -0.9820
  988MOL0     C30288   6.051   9.032   2.982  0.6716  0.3040  0.0221
  988MOL0     C30289   6.069   9.161   3.032  0.7078 -0.0548  0.4804
  988MOL0     C30290   6.189   9.203   3.098 -0.2043 -0.4153 -0.6484
  988MOL0     C30291   6.289   9.115   3.099 -0.6069  0.3084 -1.1071
  988MOL0     O30292   6.410   9.160   3.155  0.0850  0.1877  0.5720
  988MOL0     C30293   6.524   9.074   3.172  0.1502  0.1922 -0.8459
  988MOL0     C30294   6.624   9.133   3.269 -0.5613 -0.6856 -0.8035
  988MOL0     C30295   6.591   9.116   3.415  0.4777 -1.1416  0.8861
  988MOL0     C30296   6.724   9.132   3.502  0.1125  0.1128  0.1677
  988MOL0     C30297   6.836   9.219   3.453 -0.1902 -0.6658 -0.8532
  988MOL0     C30298   6.948   9.232   3.554 -0.4146  0.2131  0.2663
  988MOL0     C30299   7.050   9.129   3.538 -0.3739  0.5943  0.3322
  988MOL0     C30300   7.169   9.165   3.635 -0.2029  0.9137 -0.2357
  988MOL0     N30301   7.278   9.062   3.642  0.8139  0.0723 -0.0937
  988MOL0     C30302   7.267   8.929   3.697 -0.0375  0.3419  0.2029
  988MOL0     C30303   7.390   8.872   3.662  0.3893 -0.2588  1.2553
  988MOL0     C30304   7.429   8.731   3.669 -0.2223  0.2080 -0.3680
  988MOL0     C30305   7.378   8.646   3.555  1.0389  0.3908 -0.0452
  988MOL0     C30306   7.433   8.494   3.550  0.0079 -0.4002  0.2484
  988MOL0     C30307   7.327   8.387   3.583  1.9484 -0.5644 -0.1358
  988MOL0     O30308   7.260   8.415   3.715 -0.1056 -0.4518  0.0744
  988MOL0     C30309   7.148   8.337   3.733  0.2101 -0.5217  0.3453
  988MOL0     C30310   7.132   8.209   3.678  0.1466  0.3276 -0.0809
  988MOL0     C30311   7.003   8.137   3.703  0.1272 -0.1481  0.6963
  988MOL0     C30312   6.907   8.193   3.784 -0.1341  0.4760 -0.4769
  988MOL0     C30313   6.775   8.131   3.821 -0.5449  0.6064 -0.3224
  988MOL0     O30314   6.681   8.193   3.895 -0.8671  0.2485 -0.4943
  988MOL0     C30315   6.552   8.137   3.903  0.1552 -0.7748 -0.4606
  988MOL0     C30316   6.501   8.040   3.817 -0.5093 -0.0564 -0.2598
  988MOL0     C30317   6.370   7.991   3.833  0.5982 -0.3965 -0.6261
  988MOL0     C30318   6.281   8.030   3.937 -0.1312  0.5010  0.1375
  988MOL0     O30319   6.162   7.982   3.928  0.7621 -0.1250 -0.5378
  988MOL0     C30320   6.077   7.998   4.052  0.5647 -0.2520  0.5891
  988MOL0     C30321   5.932   7.982   4.002  0.4807 -0.3518  0.2019
  988MOL0     C30322   5.877   7.840   3.978 -0.5706  0.1816 -0.4972
  988MOL0     C30323   5.728   7.851   3.952 -0.0179 -0.1864  0.3802
  988MOL0     C30324   5.661   7.714   3.957 -0.2362  0.3836 -0.2199
  988MOL0     C30325   5.519   7.700   3.895 -0.0042 -0.9106  0.9972
  988MOL0     C30326   5.429   7.820   3.921 -0.0602  0.6594  0.1773
  988MOL0     C30327   5.280   7.779   3.894 -0.3222  0.0806 -0.1603
  988MOL0    Cl30328   5.179   7.918   3.964 -0.8372  0.3145 -0.0191
  988MOL0     C30329   6.338   8.126   4.027  0.1560 -0.1904 -0.5714
  988MOL0     C30330   6.469   8.176   4.008  0.2652  0.0069 -0.4868
  988MOL0     O30331   6.772   8.004   3.785  0.3923 -0.8575  0.2272
  988MOL0     C30332   6.934   8.317   3.849 -0.8349 -0.1770  0.3894
  988MOL0     C30333   7.050   8.394   3.820  0.3475  0.5550  0.1489
  988MOL0     N30334   7.461   8.970   3.592  0.0420  0.4573 -0.5332
  988MOL0     N30335   7.392   9.083   3.586 -0.0385  0.0338  0.1868
  988MOL0     C30336   6.279   8.989   3.036 -0.4914 -0.6880  0.8513
  988MOL0     C30337   6.163   8.946   2.971  0.2317 -0.9789 -0.0568
  988MOL0     C30338   5.697   8.951   2.950  0.2532  0.7029  0.5098
  988MOL0     C30339   5.569   8.940   3.006  0.0403  0.5457  0.0842
  988MOL0     C30340   5.464   8.908   2.929 -0.0565  0.0914  0.1013
  988MOL0     C30341   5.462   8.898   2.794 -0.6792  0.3886 -0.0913
  988MOL0     O30342   5.339   8.871   2.728 -0.8991 -0.0426 -0.1824
  988MOL0     C30343   5.307   8.756   2.645  0.9244 -0.1440 -0.3172
  988MOL0     C30344   5.205   8.667   2.708 -0.1721  0.1473  0.6630
  988MOL0     C30345   5.105   8.739   2.798  0.5775 -0.8051  0.4094
  988MOL0     C30346   4.993   8.644   2.828  0.3883  0.5514 -1.2519
  988MOL0     C30347   5.027   8.539   2.928  0.4773 -0.2116 -0.7332
  988MOL0     C30348   5.057   8.449   3.008  0.6292  0.4991 -0.1640
  988MOL0     C30349   5.583   8.916   2.728  0.6086  0.2650  0.2781
  988MOL0     C30350   5.699   8.937   2.806 -0.0414  0.2493 -0.3890
  988MOL0     H30351   5.971   9.207   3.034  1.0192  0.6245  3.2906
  988MOL0     H30352   6.197   9.304   3.134  2.5944 -1.3779  1.8186
  988MOL0     H30353   6.584   9.047   3.085  3.7342  3.1323  0.4808
  988MOL0     H30354   6.481   8.983   3.216 -1.4287 -0.0266 -2.7223
  988MOL0     H30355   6.638   9.240   3.250 -2.8730 -0.3494 -0.9154
  988MOL0     H30356   6.716   9.079   3.246 -1.4370 -1.1412 -3.5621
  988MOL0     H30357   6.543   9.019   3.428 -2.0277  0.0151  1.0226
  988MOL0     H30358   6.521   9.199   3.431  1.3380  0.1070 -1.3264
  988MOL0     H30359   6.699   9.174   3.599  2.0591  0.7445  0.4334
  988MOL0     H30360   6.758   9.029   3.511 -0.8801 -0.1488  1.1075
  988MOL0     H30361   6.794   9.318   3.432 -1.0507 -1.0981 -1.2382
  988MOL0     H30362   6.877   9.177   3.361  0.4256  0.9033 -1.3257
  988MOL0     H30363   6.900   9.232   3.652  1.1747  0.5078  1.0623
  988MOL0     H30364   7.003   9.326   3.541  3.6538 -1.9445  0.3519
  988MOL0     H30365   7.002   9.035   3.567  0.1852  0.0451 -0.4693
  988MOL0     H30366   7.103   9.117   3.443 -1.0791 -0.6395  0.0703
  988MOL0     H30367   7.129   9.167   3.736  4.2903 -1.6918  1.8945
  988MOL0     H30368   7.217   9.258   3.604  0.2005  0.4873 -0.9260
  988MOL0     H30369   7.175   8.899   3.747  1.1790  1.0230  3.0639
  988MOL0     H30370   7.394   8.688   3.764  1.2014 -1.0625 -0.3848
  988MOL0     H30371   7.538   8.734   3.673 -0.1195  0.8331 -2.6833
  988MOL0     H30372   7.420   8.700   3.470 -0.3401  2.2770  0.4203
  988MOL0     H30373   7.269   8.643   3.548  0.9486 -0.3199  1.2764
  988MOL0     H30374   7.479   8.465   3.455 -1.9241 -1.5755 -0.3960
  988MOL0     H30375   7.517   8.474   3.618 -1.3220 -2.8519  1.3134
  988MOL0     H30376   7.380   8.292   3.585  0.2107 -1.5649  0.5906
  988MOL0     H30377   7.258   8.369   3.500  0.9753 -0.8665  0.7246
  988MOL0     H30378   7.216   8.170   3.621 -0.0787 -0.9033  0.4124
  988MOL0     H30379   6.973   8.040   3.665  1.0784 -0.5964  1.0550
  988MOL0     H30380   6.547   8.023   3.720 -2.8727  1.0294 -1.6577
  988MOL0     H30381   6.332   7.938   3.746 -3.2592 -0.5772  0.9612
  988MOL0     H30382   6.092   8.092   4.105 -4.1446  0.2348  1.4197
  988MOL0     H30383   6.102   7.931   4.134  0.3584 -1.0961 -0.0244
  988MOL0     H30384   5.911   8.045   3.915 -0.5167  2.4641  2.3051
  988MOL0     H30385   5.876   8.020   4.088  2.7394  0.0504  1.5865
  988MOL0     H30386   5.905   7.772   4.059  0.4262 -2.3339 -2.8031
  988MOL0     H30387   5.918   7.804   3.883 -0.2408 -1.1537  0.1351
  988MOL0     H30388   5.680   7.903   4.035 -2.0478 -1.0273 -0.2165
  988MOL0     H30389   5.710   7.899   3.855 -1.3153 -0.7575  0.3214
  988MOL0     H30390   5.660   7.674   4.059  0.2990 -0.6447 -0.6125
  988MOL0     H30391   5.730   7.653   3.899  0.5371  1.2564 -0.2281
  988MOL0     H30392   5.484   7.610   3.946 -1.7707 -1.7703 -1.5351
  988MOL0     H30393   5.510   7.693   3.786  0.1066 -0.5274  0.9632
  988MOL0     H30394   5.446   7.846   4.026 -0.4246  0.5192  0.2721
  988MOL0     H30395   5.445   7.906   3.856 -3.4566  1.3935  0.1133
  988MOL0     H30396   5.249   7.680   3.929 -0.0425  0.2819  0.6918
  988MOL0     H30397   5.274   7.788   3.786  1.3885 -1.6304 -0.4459
  988MOL0     H30398   6.290   8.163   4.116 -0.7180 -2.0516 -0.2212
  988MOL0     H30399   6.510   8.247   4.079 -0.1988  1.7944 -1.9248
  988MOL0     H30400   6.874   8.354   3.932  0.0930 -1.0194  1.4825
  988MOL0     H30401   7.060   8.495   3.858  1.3411  0.8272 -0.7839
  988MOL0     H30402   6.358   8.914   3.033 -0.8033 -0.9833 -0.9324
  988MOL0     H30403   6.151   8.852   2.918  4.1951 -0.5526 -2.1445
  988MOL0     H30404   5.567   8.940   3.114 -0.7746 -0.8309  0.0874
  988MOL0     H30405   5.367   8.909   2.978 -0.0377  2.5965  0.2278
  988MOL0     H30406   5.398   8.697   2.631  1.3125 -0.5253  2.9870
  988MOL0     H30407   5.270   8.781   2.545 -3.7404  0.0589  1.2188
  988MOL0     H30408   5.151   8.613   2.629  0.4240  0.5236 -0.0118
  988MOL0     H30409   5.261   8.594   2.766  3.0318  0.3504 -1.9082
  988MOL0     H30410   5.066   8.821   2.736  3.8411  0.2343 -0.4414
  988MOL0     H30411   5.142   8.781   2.892  0.8089 -1.5745  0.6631
  988MOL0     H30412   4.903   8.698   2.859  0.1900  0.9672 -2.5018
  988MOL0     H30413   4.979   8.582   2.739  3.9238 -1.0807 -0.8585
  988MOL0     H30414   5.104   8.366   3.057  1.3517  1.4389  0.7639
  988MOL0     H30415   5.569   8.929   2.622  3.6042 -3.6467 -0.8506
  988MOL0     H30416   5.794   8.946   2.753  0.5314 -0.5806  0.4517
  989MOL0     O30417   6.502   7.026   1.358 -0.5413 -0.6456  0.1063
  989MOL0     C30418   6.605   7.079   1.304 -0.5027  0.1269 -0.3331
  989MOL0     O30419   6.609   7.209   1.267 -1.5545 -0.5428 -0.2360
  989MOL0     C30420   6.497   7.296   1.263 -0.1295  0.9152 -0.0231
  989MOL0     C30421   6.357   7.264   1.280 -0.6176  0.1754 -0.1464
  989MOL0     C30422   6.261   7.363   1.244  0.5732  0.7961 -0.7386
  989MOL0     C30423   6.296   7.495   1.219  0.3670 -0.1142 -0.1656
  989MOL0     O30424   6.187   7.583   1.189  0.1875  0.2420  0.5520
  989MOL0     C30425   6.207   7.726   1.181 -0.0888 -0.5504  0.5567
  989MOL0     C30426   6.084   7.803   1.227  0.1775  0.1682 -0.0405
  989MOL0     C30427   5.960   7.763   1.147  0.4911  0.4819  0.1703
  989MOL0     C30428   5.969   7.800   0.999 -0.7879 -0.4987  0.2566
  989MOL0     C30429   5.837   7.807   0.926 -1.2015 -0.7271 -0.4543
  989MOL0     C30430   5.849   7.848   0.774  0.9844  0.7191  0.2810
  989MOL0     C30431   5.729   7.805   0.685  0.0790 -0.6286 -0.5834
  989MOL0     C30432   5.606   7.897   0.710  0.6363 -0.1074  0.2326
  989MOL0     N30433   5.554   7.876   0.851  0.1411 -0.2955 -0.3766
  989MOL0     C30434   5.492   7.761   0.898 -0.0034  0.0188 -0.2350
  989MOL0     C30435   5.429   7.799   1.015  0.5926 -0.1947  0.3768
  989MOL0     C30436   5.371   7.708   1.119  0.6341  0.0977 -0.0269
  989MOL0     C30437   5.217   7.722   1.131 -0.2706 -0.2048 -0.4484
  989MOL0     C30438   5.155   7.668   0.997 -0.4133 -0.1409  0.5036
  989MOL0     C30439   5.004   7.670   0.991  0.6955  0.0997  0.5530
  989MOL0     O30440   4.958   7.802   1.021 -0.1133 -0.1509 -0.6987
  989MOL0     C30441   4.821   7.827   1.029  0.2095  0.6727 -0.5377
  989MOL0     C30442   4.778   7.945   1.089  0.9438  0.3921 -0.4027
  989MOL0     C30443   4.650   7.999   1.086  0.9333  0.5582  0.2175
  989MOL0     C30444   4.546   7.920   1.025 -0.0101 -0.1092 -0.9444
  989MOL0     C30445   4.407   7.970   1.022  0.1572  0.7568 -0.2813
  989MOL0     O30446   4.320   7.904   0.946 -0.7255  0.3562  0.2296
  989MOL0     C30447   4.195   7.891   0.984  0.1914  0.4234 -0.0395
  989MOL0     C30448   4.161   7.870   1.120  0.0588 -0.1994  0.6807
  989MOL0     C30449   4.027   7.866   1.163 -0.3634  0.0488 -0.0211
  989MOL0     C30450   3.921   7.866   1.062 -1.0826 -0.4621 -0.0436
  989MOL0     O30451   3.798   7.862   1.116  0.8339 -0.0571  0.0302
  989MOL0     C30452   3.694   7.826   1.030  0.3718  0.1730  0.5977
  989MOL0     C30453   3.573   7.817   1.123 -0.8284  0.4579  0.3436
  989MOL0     C30454   3.515   7.960   1.162  0.3246 -0.0011  0.0715
  989MOL0     C30455   3.380   7.947   1.239  0.3725  0.4002  0.1675
  989MOL0     C30456   3.286   8.064   1.230  1.3004  0.5036 -0.4255
  989MOL0     C30457   3.336   8.196   1.300  0.4923  0.1824  0.0839
  989MOL0     C30458   3.226   8.298   1.309  0.0641  0.4989  0.0312
  989MOL0     C30459   3.278   8.437   1.363  0.3320 -0.9545  0.5528
  989MOL0    Cl30460   3.256   8.462   1.536 -0.3454  0.1119  0.0920
  989MOL0     C30461   3.956   7.868   0.922 -0.2955 -1.3385 -0.8438
  989MOL0     C30462   4.096   7.881   0.885 -0.5388  0.1241  0.5061
  989MOL0     O30463   4.380   8.061   1.107  0.3125 -0.0584  0.7508
  989MOL0     C30464   4.582   7.796   0.971  0.2581  0.5613 -0.3101
  989MOL0     C30465   4.716   7.755   0.959 -0.7276 -0.8262 -1.3537
  989MOL0     N30466   5.461   7.934   1.037 -0.0363  0.4129 -0.7247
  989MOL0     N30467   5.537   7.980   0.940  0.8150 -0.6507 -0.7322
  989MOL0     C30468   6.436   7.523   1.208  0.9998  0.2644 -1.0763
  989MOL0     C30469   6.534   7.423   1.225  0.5568  0.4741 -0.0673
  989MOL0     C30470   6.738   7.008   1.298 -0.2052 -0.0155  0.6755
  989MOL0     C30471   6.844   7.072   1.226  0.4449  0.5546  0.1825
  989MOL0     C30472   6.960   7.003   1.207 -1.1003  0.9646  0.4226
  989MOL0     C30473   6.982   6.879   1.270  0.4503 -0.3715 -0.3526
  989MOL0     O30474   7.106   6.814   1.273  0.0430 -0.1756 -0.0645
  989MOL0     C30475   7.225   6.870   1.214  0.3033  0.8770 -0.7776
  989MOL0     C30476   7.364   6.800   1.237 -0.5868 -1.1632 -0.4548
  989MOL0     C30477   7.391   6.655   1.184 -0.2624 -0.2520  1.1468
  989MOL0     C30478   7.517   6.599   1.264 -0.6736 -0.0576  0.1205
  989MOL0     C30479   7.555   6.478   1.200 -0.3944  1.0597 -0.8303
  989MOL0     C30480   7.569   6.367   1.142  0.3644 -0.4354 -0.2570
  989MOL0     C30481   6.876   6.825   1.342  0.0974  0.9566 -0.3423
  989MOL0     C30482   6.750   6.886   1.361 -0.0581  0.3718  0.2625
  989MOL0     H30483   6.322   7.165   1.306 -1.1499  1.0196  2.7866
  989MOL0     H30484   6.156   7.337   1.236  1.0015 -0.4827 -3.1440
  989MOL0     H30485   6.243   7.763   1.084  0.1360  2.6247  1.7400
  989MOL0     H30486   6.288   7.749   1.251  1.5086 -2.0509 -0.7007
  989MOL0     H30487   6.105   7.909   1.210 -0.1444  0.1248 -0.7562
  989MOL0     H30488   6.073   7.782   1.333  0.1001  0.6524  0.0465
  989MOL0     H30489   5.878   7.822   1.189  0.8571  0.7457  0.5183
  989MOL0     H30490   5.932   7.659   1.168  2.2701  0.2745  1.7506
  989MOL0     H30491   6.026   7.893   0.987  0.3374 -0.9766  1.5692
  989MOL0     H30492   6.039   7.724   0.962 -3.7403 -3.6730  0.6741
  989MOL0     H30493   5.766   7.880   0.966 -2.1884 -1.2238 -1.2508
  989MOL0     H30494   5.788   7.710   0.942 -1.7367 -0.4926 -0.6512
  989MOL0     H30495   5.940   7.813   0.724  1.5535  2.1660  0.2444
  989MOL0     H30496   5.855   7.957   0.782  2.5401  0.5403  3.3483
  989MOL0     H30497   5.761   7.820   0.581 -1.0671  1.5249 -0.6901
  989MOL0     H30498   5.704   7.700   0.703  1.4449 -0.7481  0.8201
  989MOL0     H30499   5.526   7.875   0.639  1.0665 -1.5462  0.1625
  989MOL0     H30500   5.623   8.002   0.686 -1.4643 -0.0187 -1.1532
  989MOL0     H30501   5.510   7.659   0.867  0.3093 -0.3482  1.0737
  989MOL0     H30502   5.416   7.739   1.214  0.4676 -2.1498  0.8430
  989MOL0     H30503   5.404   7.604   1.110  0.2341  0.1019 -2.0758
  989MOL0     H30504   5.193   7.826   1.155  0.4111 -0.1363 -0.0429
  989MOL0     H30505   5.180   7.671   1.221 -0.9979 -1.4318 -1.4003
  989MOL0     H30506   5.187   7.738   0.918 -1.1341  0.3750  0.6598
  989MOL0     H30507   5.198   7.568   0.989  2.4512  0.9418  1.0989
  989MOL0     H30508   4.965   7.597   1.062 -0.1749 -2.0178 -1.9078
  989MOL0     H30509   4.970   7.648   0.889 -0.8243 -0.6729  1.1779
  989MOL0     H30510   4.849   8.008   1.142 -0.6623 -0.5259  3.1236
  989MOL0     H30511   4.621   8.091   1.134  0.6211 -0.4961  2.1545
  989MOL0     H30512   4.242   7.861   1.192  0.6372 -0.4819  0.0102
  989MOL0     H30513   4.022   7.872   1.271  1.7504 -3.0224  0.3864
  989MOL0     H30514   3.711   7.729   0.984  0.0244  1.0487 -1.5004
  989MOL0     H30515   3.676   7.905   0.956 -1.8174  1.2916  2.1897
  989MOL0     H30516   3.594   7.761   1.215 -0.5479  1.7713  1.1120
  989MOL0     H30517   3.504   7.755   1.066 -2.1281 -0.7768  3.1138
  989MOL0     H30518   3.491   8.009   1.068  1.1283 -0.3920 -0.3498
  989MOL0     H30519   3.585   8.025   1.215 -1.1982  3.2476 -1.6295
  989MOL0     H30520   3.331   7.851   1.220  1.1129 -0.3852  1.9449
  989MOL0     H30521   3.395   7.942   1.348 -1.0953 -0.7996  0.3546
  989MOL0     H30522   3.195   8.044   1.288  0.8270  1.4064 -0.8248
  989MOL0     H30523   3.259   8.092   1.128 -1.0017  1.5934  0.3976
  989MOL0     H30524   3.423   8.214   1.236 -0.0229 -4.5294 -2.4301
  989MOL0     H30525   3.361   8.172   1.403 -0.6910 -0.0672  0.3233
  989MOL0     H30526   3.205   8.320   1.204  2.3274  3.7571  0.1023
  989MOL0     H30527   3.139   8.266   1.366  1.0186 -0.8347  0.7685
  989MOL0     H30528   3.218   8.517   1.320 -1.2557  0.3990  4.7797
  989MOL0     H30529   3.383   8.439   1.331 -0.1427  1.6182 -1.0900
  989MOL0     H30530   3.887   7.851   0.840  0.6562  1.9464 -2.4768
  989MOL0     H30531   4.112   7.869   0.778  1.9590 -1.6966  1.0166
  989MOL0     H30532   4.509   7.752   0.905 -2.4915  2.8972  0.9708
  989MOL0     H30533   4.743   7.669   0.898 -2.6026  0.4891 -4.2274
  989MOL0     H30534   6.469   7.615   1.161  1.1985 -0.2802 -2.0291
  989MOL0     H30535   6.639   7.450   1.214  0.7722 -0.1164  0.5076
  989MOL0     H30536   6.822   7.162   1.168 -2.0958  0.4515  0.8490
  989MOL0     H30537   7.039   7.056   1.155  2.0915 -2.6453  1.1713
  989MOL0     H30538   7.243   6.973   1.248 -0.2381  0.1375  2.0639
  989MOL0     H30539   7.199   6.872   1.108 -0.2458 -0.3997 -0.6814
  989MOL0     H30540   7.436   6.853   1.174  0.2899 -2.4036 -0.5344
  989MOL0     H30541   7.395   6.813   1.341 -0.5075  1.9993 -0.7798
  989MOL0     H30542   7.413   6.650   1.077 -0.0575 -1.2067  1.2220
  989MOL0     H30543   7.298   6.600   1.204 -1.4526  1.7348  1.2999
  989MOL0     H30544   7.599   6.671   1.257 -1.4786  0.7478 -5.1369
  989MOL0     H30545   7.487   6.582   1.368 -2.7814  0.0543 -0.4294
  989MOL0     H30546   7.582   6.266   1.110  0.7570 -0.8381  1.1103
  989MOL0     H30547   6.896   6.740   1.406 -1.7269  1.5024  1.0412
  989MOL0     H30548   6.669   6.846   1.421  0.9129  2.0578  2.8943
  990MOL0     O30549   3.395  10.418   7.644  0.1526 -0.1961  0.1299
  990MOL0     C30550   3.448  10.302   7.655  0.6639 -0.1847 -0.5950
  990MOL0     O30551   3.414  10.204   7.744  0.4383 -0.1214  0.2630
  990MOL0     C30552   3.297  10.225   7.828 -0.3814 -0.1776 -0.2870
  990MOL0     C30553   3.320  10.267   7.962  0.5687 -0.5524 -1.4825
  990MOL0     C30554   3.203  10.289   8.044 -0.2424 -0.5092 -0.1816
  990MOL0     C30555   3.072  10.279   7.996 -0.6308 -0.6589 -0.0718
  990MOL0     O30556   2.959  10.328   8.048  0.0552  0.1874 -0.9016
  990MOL0     C30557   2.942  10.269   8.183  0.4515  0.5039 -0.1874
  990MOL0     C30558   2.811  10.312   8.245  0.0008 -0.8747 -0.1006
  990MOL0     C30559   2.731  10.424   8.166  0.6544 -0.0921  0.3280
  990MOL0     C30560   2.596  10.447   8.233  0.1536 -0.1981  0.9144
  990MOL0     C30561   2.501  10.546   8.146 -0.3664 -1.3536  0.1239
  990MOL0     C30562   2.349  10.551   8.184 -0.1203  0.1843 -0.6294
  990MOL0     C30563   2.282  10.670   8.126  0.1533  0.3793  0.3984
  990MOL0     C30564   2.187  10.642   8.007 -0.4568  0.1212  0.7722
  990MOL0     N30565   2.079  10.556   8.050  0.7478  0.3116 -0.4553
  990MOL0     C30566   2.059  10.424   8.021 -0.4286  0.8457 -0.9588
  990MOL0     C30567   1.961  10.384   8.109  0.0884  0.0241 -1.2576
  990MOL0     C30568   1.910  10.246   8.100 -0.5032 -0.1965  0.2689
  990MOL0     C30569   1.757  10.254   8.132  0.0438  0.0253  1.3600
  990MOL0     C30570   1.682  10.219   8.012  0.6040 -0.2395  0.5912
  990MOL0     C30571   1.536  10.231   8.038 -0.3224  0.5635  0.0024
  990MOL0     O30572   1.471  10.153   7.936 -0.4677 -0.4937 -0.1723
  990MOL0     C30573   1.344  10.169   7.908 -0.2348  0.1951 -0.0847
  990MOL0     C30574   1.300  10.083   7.803 -1.3925 -0.6871 -0.1823
  990MOL0     C30575   1.169  10.090   7.752 -0.5603  0.6025  0.0942
  990MOL0     C30576   1.086  10.182   7.818  0.8174 -0.4183 -0.2327
  990MOL0     C30577   0.942  10.180   7.771 -1.0940  0.3405  0.3714
  990MOL0     O30578   0.899  10.068   7.695 -0.5848  0.6042  0.3969
  990MOL0     C30579   0.780  10.087   7.640 -1.1307 -0.0338 -0.0574
  990MOL0     C30580   0.670  10.022   7.702  1.7799  0.4474 -0.1313
  990MOL0     C30581   0.549  10.038   7.640 -0.0990 -0.4168  0.3457
  990MOL0     C30582   0.527  10.113   7.526 -0.5155 -0.0364 -1.0425
  990MOL0     O30583   0.401  10.110   7.473  0.3196 -0.4834  0.5126
  990MOL0     C30584   0.357  10.223   7.397 -0.2789 -0.6216 -0.3747
  990MOL0     C30585   0.213  10.217   7.367 -0.9043 -0.7498 -0.4506
  990MOL0     C30586   0.168  10.095   7.293  1.0882  0.0401  0.1964
  990MOL0     C30587   0.017  10.087   7.287  0.3627  0.9528 -0.0681
  990MOL0     C30588  -0.034   9.968   7.207  0.2562  1.0239 -0.6079
  990MOL0     C30589  -0.033   9.842   7.294 -0.7877 -1.1361  0.1588
  990MOL0     C30590  -0.091   9.718   7.229 -0.4432  0.7604  0.3355
  990MOL0     C30591  -0.075   9.604   7.313  0.3040  0.8719 -0.4503
  990MOL0    Cl30592   0.086   9.539   7.325 -0.4382  0.0533 -0.1335
  990MOL0     C30593   0.632  10.185   7.477 -0.4361  0.0895 -0.0608
  990MOL0     C30594   0.757  10.182   7.528  0.4862 -0.2411  0.0813
  990MOL0     O30595   0.879  10.271   7.815 -0.4238 -0.6659  0.0736
  990MOL0     C30596   1.117  10.254   7.932 -0.3477 -0.0465 -0.1718
  990MOL0     C30597   1.254  10.253   7.968  0.1515  0.1143  0.5830
  990MOL0     N30598   1.924  10.493   8.191  0.1423  0.4594  0.5728
  990MOL0     N30599   1.993  10.593   8.152 -0.1516  0.7364 -0.0999
  990MOL0     C30600   3.055  10.243   7.860 -0.4909 -0.1046 -0.1702
  990MOL0     C30601   3.166  10.209   7.784 -0.8936 -0.1688 -0.2523
  990MOL0     C30602   3.555  10.266   7.563 -0.3537  0.2652 -0.5204
  990MOL0     C30603   3.660  10.187   7.602 -0.4945 -0.2442 -0.0584
  990MOL0     C30604   3.779  10.180   7.534 -0.2056  0.5199  1.0810
  990MOL0     C30605   3.781  10.247   7.410 -0.1164 -0.8247  0.1193
  990MOL0     O30606   3.904  10.239   7.335 -0.0032 -0.5222 -0.6822
  990MOL0     C30607   3.902  10.292   7.202 -0.1614  0.3448 -0.2047
  990MOL0     C30608   4.036  10.288   7.128 -0.0541  0.5587  0.2959
  990MOL0     C30609   4.062  10.157   7.057  0.3471  0.3365 -0.6794
  990MOL0     C30610   4.017  10.132   6.910  0.1620 -0.4836  0.3079
  990MOL0     C30611   3.877  10.116   6.897 -0.0573  0.9273  0.8845
  990MOL0     C30612   3.766  10.098   6.875 -0.2470 -0.1914 -0.3444
  990MOL0     C30613   3.674  10.327   7.359 -1.1722  0.2898 -0.8362
  990MOL0     C30614   3.565  10.335   7.437  0.1712 -1.1424  0.3937
  990MOL0     H30615   3.418  10.280   8.008 -1.6586  3.7467  2.9769
  990MOL0     H30616   3.232  10.306   8.147  0.1244  4.3941 -0.8718
  990MOL0     H30617   3.034  10.290   8.239  1.0328 -0.5984 -0.7012
  990MOL0     H30618   2.920  10.163   8.171 -2.2380  1.2425 -3.1273
  990MOL0     H30619   2.836  10.347   8.345  0.1880 -1.0157 -0.0972
  990MOL0     H30620   2.745  10.227   8.264  0.0378 -0.7807  0.4639
  990MOL0     H30621   2.711  10.389   8.065  0.1334 -2.0061  1.0402
  990MOL0     H30622   2.804  10.506   8.171  2.7350 -1.8177 -0.2820
  990MOL0     H30623   2.535  10.357   8.221 -2.2094  1.5164 -0.9603
  990MOL0     H30624   2.606  10.484   8.335 -0.8024 -2.8968  2.0867
  990MOL0     H30625   2.518  10.520   8.041  0.8730 -1.6141  0.3702
  990MOL0     H30626   2.533  10.649   8.163 -3.4813 -0.3405  0.4123
  990MOL0     H30627   2.339  10.554   8.293  0.5437  1.7474 -0.5834
  990MOL0     H30628   2.317  10.453   8.146  0.5633 -0.0346 -0.6753
  990MOL0     H30629   2.228  10.717   8.209  0.5814 -0.2887  1.0667
  990MOL0     H30630   2.357  10.739   8.088  2.1951 -1.6041  0.6282
  990MOL0     H30631   2.250  10.596   7.930  1.5578  0.1158  2.3314
  990MOL0     H30632   2.146  10.734   7.964  0.2354 -0.5092 -1.3669
  990MOL0     H30633   2.110  10.359   7.950  1.9990 -0.9377  2.1760
  990MOL0     H30634   1.956  10.194   8.185  0.2868  3.3259  2.2119
  990MOL0     H30635   1.932  10.198   8.005 -0.7800 -0.3354  0.2746
  990MOL0     H30636   1.720  10.349   8.172 -1.1725  0.7950 -1.3028
  990MOL0     H30637   1.732  10.186   8.214 -0.2594 -1.2313  0.2742
  990MOL0     H30638   1.709  10.296   7.940 -0.5448  1.7717  2.2087
  990MOL0     H30639   1.723  10.121   7.985  0.3489  0.6645 -3.6455
  990MOL0     H30640   1.519  10.339   8.031 -0.8939  0.5070  0.4310
  990MOL0     H30641   1.510  10.186   8.134  2.5222 -2.0650 -0.3128
  990MOL0     H30642   1.367  10.022   7.743 -0.0616  0.5373  0.0059
  990MOL0     H30643   1.146  10.019   7.673  0.3647 -0.1627  0.4875
  990MOL0     H30644   0.679   9.968   7.796 -2.6113  0.5109  0.5081
  990MOL0     H30645   0.465   9.978   7.673  1.4546 -3.1115 -0.3449
  990MOL0     H30646   0.428  10.236   7.315  1.9927  1.2404  1.7043
  990MOL0     H30647   0.372  10.309   7.463  1.3379 -0.2964 -1.1200
  990MOL0     H30648   0.180  10.311   7.321 -0.8556  0.9116  2.6089
  990MOL0     H30649   0.172  10.215   7.468  0.5830  3.2680  0.4438
  990MOL0     H30650   0.202  10.005   7.345  0.2247  0.3548  1.3328
  990MOL0     H30651   0.200  10.099   7.188 -1.1361 -1.4353 -0.6246
  990MOL0     H30652  -0.023  10.073   7.388 -2.6190  1.2698 -1.1124
  990MOL0     H30653  -0.016  10.181   7.241  1.9034  0.9922 -1.1579
  990MOL0     H30654   0.023   9.946   7.116  2.5961 -5.2050  1.7665
  990MOL0     H30655  -0.139   9.985   7.181 -0.0868  1.2218  0.8369
  990MOL0     H30656  -0.079   9.865   7.391  2.2097 -0.0840  1.4213
  990MOL0     H30657   0.071   9.821   7.318  0.1874  1.9754 -1.0107
  990MOL0     H30658  -0.199   9.735   7.234 -0.8215 -0.3547 -2.3072
  990MOL0     H30659  -0.064   9.700   7.125 -1.5462  0.8780  0.0174
  990MOL0     H30660  -0.139   9.526   7.269 -0.9981  2.4566 -1.5198
  990MOL0     H30661  -0.111   9.628   7.413  1.0706  3.5976 -0.7478
  990MOL0     H30662   0.628  10.257   7.396 -1.1248  2.2026  1.7614
  990MOL0     H30663   0.842  10.244   7.502 -0.8474  0.8804 -1.9150
  990MOL0     H30664   1.051  10.314   7.994  1.4766  0.5070  1.3594
  990MOL0     H30665   1.292  10.318   8.045  0.9447 -0.6979  0.8963
  990MOL0     H30666   2.961  10.227   7.808 -1.1033 -0.7063  1.0730
  990MOL0     H30667   3.141  10.188   7.680 -2.9374 -0.6650  0.2978
  990MOL0     H30668   3.643  10.128   7.691 -2.2294  0.3606  0.0563
  990MOL0     H30669   3.865  10.117   7.553 -0.2855 -0.4727 -1.5432
  990MOL0     H30670   3.883  10.400   7.201  3.0192  1.0102  0.3625
  990MOL0     H30671   3.826  10.235   7.148  0.1360  0.6363 -0.9395
  990MOL0     H30672   4.039  10.363   7.048  0.5058  0.7831  0.5237
  990MOL0     H30673   4.118  10.304   7.198 -0.5979 -1.9735  1.6419
  990MOL0     H30674   4.029  10.075   7.121 -2.1162  1.5739 -0.2114
  990MOL0     H30675   4.171  10.151   7.063  0.2094 -1.3306  2.5834
  990MOL0     H30676   4.045  10.215   6.845 -1.8762 -0.6247 -0.8203
  990MOL0     H30677   4.066  10.043   6.868  1.6957  1.0449 -1.3016
  990MOL0     H30678   3.670  10.052   6.861  0.9336 -2.1297 -2.9196
  990MOL0     H30679   3.681  10.379   7.264  2.5657  1.1901 -0.2296
  990MOL0     H30680   3.488  10.403   7.400 -0.1993 -1.7238  0.0952
  991MOL0     O30681   0.917   1.057  10.537 -0.0263  0.0683  0.3310
  991MOL0     C30682   0.949   0.971  10.452 -0.4901  0.4322 -0.7500
  991MOL0     O30683   0.870   0.894  10.377 -0.8545  0.0650  0.2001
  991MOL0     C30684   0.737   0.925  10.372 -0.9711 -0.3624 -0.4839
  991MOL0     C30685   0.650   0.843  10.438  0.1081  0.8957  0.1002
  991MOL0     C30686   0.514   0.874  10.443  0.0188  0.3793 -0.0088
  991MOL0     C30687   0.470   0.991  10.379 -0.0566 -0.2589 -1.0170
  991MOL0     O30688   0.345   1.047  10.382  0.3257 -0.1905 -0.1357
  991MOL0     C30689   0.247   0.966  10.457 -0.0513 -0.2621  0.3123
  991MOL0     C30690   0.117   1.033  10.405 -0.0708 -0.3551 -0.9105
  991MOL0     C30691  -0.000   0.934  10.379  0.9447 -0.4602  0.6091
  991MOL0     C30692  -0.113   1.006  10.301 -0.4166 -0.8642 -0.5210
  991MOL0     C30693  -0.229   0.926  10.255  0.1760  0.4286  0.0580
  991MOL0     C30694  -0.348   1.019  10.217 -0.6682  0.3454 -0.3436
  991MOL0     C30695  -0.483   0.953  10.201  0.2347 -0.3867  0.5548
  991MOL0     C30696  -0.571   1.051  10.123  0.0517  0.3222  0.6504
  991MOL0     N30697  -0.699   0.987  10.105 -0.5462  0.2047 -1.1531
  991MOL0     C30698  -0.774   0.930  10.204  1.3126  0.2712  0.9547
  991MOL0     C30699  -0.887   0.883  10.138 -0.0301 -0.2689 -0.1117
  991MOL0     C30700  -0.998   0.801  10.198 -0.0216 -0.0331 -0.1872
  991MOL0     C30701  -1.094   0.877  10.293  0.3846  0.1277  0.2106
  991MOL0     C30702  -1.184   0.977  10.224 -0.8939 -0.4404  0.1796
  991MOL0     C30703  -1.309   1.013  10.302  0.4168 -0.3091 -0.0532
  991MOL0     O30704  -1.391   0.898  10.301  0.0209  0.2669  0.4028
  991MOL0     C30705  -1.493   0.895  10.396 -0.0117 -0.1495 -0.3618
  991MOL0     C30706  -1.517   0.775  10.471  0.6425  0.6300  0.5245
  991MOL0     C30707  -1.630   0.774  10.555 -1.0057  1.3190  0.4957
  991MOL0     C30708  -1.701   0.892  10.592 -1.0216 -0.1885 -0.6103
  991MOL0     C30709  -1.810   0.898  10.688  0.2694 -0.3136  0.2324
  991MOL0     O30710  -1.819   1.025  10.755  0.0374  0.1266 -0.3497
  991MOL0     C30711  -1.929   1.049  10.832  0.2308 -0.5583 -0.2771
  991MOL0     C30712  -1.928   1.018  10.967  0.5496  0.4476  0.6630
  991MOL0     C30713  -2.038   1.040  11.052 -0.6354 -0.2283 -0.0645
  991MOL0     C30714  -2.152   1.097  11.000  0.2758  0.0352  0.8470
  991MOL0     O30715  -2.250   1.117  11.092 -0.5057  0.0295  0.1154
  991MOL0     C30716  -2.375   1.167  11.049  0.3119 -0.5022 -0.1170
  991MOL0     C30717  -2.446   1.205  11.175 -0.2633  0.1215 -0.7797
  991MOL0     C30718  -2.510   1.086  11.239  0.0695 -0.6521 -0.2155
  991MOL0     C30719  -2.581   1.129  11.368 -0.0314  0.3913 -0.2194
  991MOL0     C30720  -2.607   1.018  11.462  0.3210  0.0932 -0.0906
  991MOL0     C30721  -2.653   1.078  11.592  0.1976  0.1869  0.7499
  991MOL0     C30722  -2.685   0.957  11.677  0.7492  1.4685 -0.3281
  991MOL0     C30723  -2.760   1.006  11.792  0.0267  0.0258 -0.1341
  991MOL0    Cl30724  -2.744   0.895  11.929  0.3738  0.2533 -0.5971
  991MOL0     C30725  -2.160   1.114  10.856 -0.1862  0.0740 -0.8545
  991MOL0     C30726  -2.049   1.104  10.775 -0.7029  0.0284  0.6853
  991MOL0     O30727  -1.882   0.801  10.700 -0.2031 -0.1775 -0.4066
  991MOL0     C30728  -1.661   1.011  10.526 -0.1265  0.3855  0.8419
  991MOL0     C30729  -1.570   1.010  10.429 -0.2344  0.7970 -1.0096
  991MOL0     N30730  -0.875   0.920  10.005  0.1941  0.3659 -0.0581
  991MOL0     N30731  -0.765   0.984   9.987  0.5419  0.2225  0.5599
  991MOL0     C30732   0.555   1.064  10.291 -0.3764 -0.7538 -0.5782
  991MOL0     C30733   0.694   1.034  10.299 -0.7299 -0.2471  0.2652
  991MOL0     C30734   1.095   0.958  10.441  0.1379 -0.3782  0.2019
  991MOL0     C30735   1.150   0.858  10.362  0.7069  0.6225  0.6249
  991MOL0     C30736   1.284   0.864  10.343  0.5758 -1.1069  0.4357
  991MOL0     C30737   1.373   0.946  10.410  0.0133  0.0794 -0.4359
  991MOL0     O30738   1.511   0.934  10.393 -1.2369  0.3880 -0.1332
  991MOL0     C30739   1.612   1.027  10.429  0.9357  0.5294 -0.9853
  991MOL0     C30740   1.751   0.978  10.389  1.0084 -0.2795 -0.5853
  991MOL0     C30741   1.811   0.860  10.461  0.2379 -0.9880 -0.0488
  991MOL0     C30742   1.733   0.725  10.437  0.0908  0.1301 -0.2050
  991MOL0     C30743   1.707   0.695  10.299  0.1013 -0.3081  0.8122
  991MOL0     C30744   1.673   0.683  10.180  0.3212 -0.5248 -0.3569
  991MOL0     C30745   1.310   1.024  10.513  0.0694 -0.4739  1.1517
  991MOL0     C30746   1.177   1.035  10.520  0.1516 -0.8655  0.1796
  991MOL0     H30747   0.698   0.757  10.483 -0.8630  2.5455  4.9361
  991MOL0     H30748   0.441   0.817  10.501 -1.8251 -0.3400 -2.8266
  991MOL0     H30749   0.255   0.981  10.565 -0.1778  0.7430  0.1865
  991MOL0     H30750   0.247   0.861  10.425  1.2711  0.2100 -1.3424
  991MOL0     H30751   0.137   1.094  10.317  2.0942  2.0662  1.0794
  991MOL0     H30752   0.090   1.097  10.490  1.5786 -2.3939  1.3018
  991MOL0     H30753  -0.040   0.894  10.473  0.5574  0.9863  1.0849
  991MOL0     H30754   0.046   0.849  10.328  1.6828  0.4342 -0.2530
  991MOL0     H30755  -0.155   1.086  10.363 -0.0258 -2.5907  2.1394
  991MOL0     H30756  -0.076   1.053  10.210  0.4237 -1.3604 -0.4358
  991MOL0     H30757  -0.260   0.862  10.338 -0.1632  0.5284  0.0077
  991MOL0     H30758  -0.185   0.864  10.176  2.3788  0.9437  0.8009
  991MOL0     H30759  -0.314   1.087  10.138  1.7244  1.1929  1.2918
  991MOL0     H30760  -0.359   1.093  10.296  1.4601  1.9821 -1.4607
  991MOL0     H30761  -0.462   0.871  10.132  1.7206  1.8116 -1.8137
  991MOL0     H30762  -0.529   0.929  10.297 -1.6339  0.8166  0.0184
  991MOL0     H30763  -0.527   1.077  10.026 -0.2262 -0.0437  0.4249
  991MOL0     H30764  -0.587   1.145  10.176  1.3353  0.5440  0.6810
  991MOL0     H30765  -0.761   0.909  10.310  0.6779 -3.7727  0.3985
  991MOL0     H30766  -0.939   0.725  10.249  2.7856  0.5429 -2.2974
  991MOL0     H30767  -1.055   0.757  10.115 -0.1006 -3.6560  1.6310
  991MOL0     H30768  -1.049   0.908  10.387 -1.0189 -2.6412  1.9454
  991MOL0     H30769  -1.161   0.794  10.317  3.5061 -2.3765  0.8945
  991MOL0     H30770  -1.118   1.063  10.211 -3.4354  1.2684 -2.9265
  991MOL0     H30771  -1.198   0.956  10.118 -0.9410  0.6248 -0.0380
  991MOL0     H30772  -1.367   1.102  10.279  1.9846  1.1681  1.4420
  991MOL0     H30773  -1.283   1.036  10.406  2.5283  1.1766 -0.8373
  991MOL0     H30774  -1.456   0.688  10.451 -0.5356 -0.5352  1.7946
  991MOL0     H30775  -1.668   0.676  10.583  1.4212  0.9553  2.8353
  991MOL0     H30776  -1.835   0.971  10.995  0.6981 -0.0622 -0.6108
  991MOL0     H30777  -2.024   1.020  11.157 -1.8009  3.0334  0.8399
  991MOL0     H30778  -2.438   1.094  10.998  1.2153 -1.7707  0.5042
  991MOL0     H30779  -2.355   1.263  11.000 -3.4477  2.1370  2.9305
  991MOL0     H30780  -2.526   1.278  11.160 -0.1831  0.7679  1.5209
  991MOL0     H30781  -2.380   1.248  11.251 -1.7554  0.4118  0.3975
  991MOL0     H30782  -2.428   1.020  11.267  0.5977  0.3512  0.6621
  991MOL0     H30783  -2.575   1.028  11.172 -1.9690 -0.2684  1.3284
  991MOL0     H30784  -2.522   1.206  11.420  0.2220 -0.8375  1.3839
  991MOL0     H30785  -2.664   1.194  11.337  0.9254  0.4757 -2.8346
  991MOL0     H30786  -2.517   0.956  11.470 -0.0699 -0.5572 -0.5876
  991MOL0     H30787  -2.689   0.957  11.422  1.0246 -1.2482  0.4417
  991MOL0     H30788  -2.735   1.149  11.578  2.3808  2.3286 -2.7119
  991MOL0     H30789  -2.577   1.143  11.638 -0.9806  2.4648 -0.3500
  991MOL0     H30790  -2.740   0.878  11.624  1.0033  1.5756 -0.7542
  991MOL0     H30791  -2.594   0.919  11.725  0.5068  2.1010  0.6545
  991MOL0     H30792  -2.864   1.027  11.764 -0.5981 -3.0135 -0.4373
  991MOL0     H30793  -2.721   1.102  11.828 -1.5782  0.3419  0.8878
  991MOL0     H30794  -2.257   1.141  10.817 -0.3881  0.7961  0.0947
  991MOL0     H30795  -2.065   1.127  10.670 -0.6342  1.7622  1.0232
  991MOL0     H30796  -1.705   1.105  10.559 -2.4022 -1.0568  2.2148
  991MOL0     H30797  -1.556   1.110  10.391 -0.4365  0.8111 -1.0465
  991MOL0     H30798   0.539   1.151  10.229  1.0404 -1.0240 -1.3631
  991MOL0     H30799   0.765   1.077  10.230 -1.5040 -0.1696 -0.4983
  991MOL0     H30800   1.077   0.797  10.311  1.8628 -0.3697  0.1204
  991MOL0     H30801   1.307   0.786  10.272 -0.3225  1.2329 -2.6854
  991MOL0     H30802   1.602   1.030  10.538 -0.3132  1.4707 -1.1010
  991MOL0     H30803   1.594   1.125  10.384 -0.9702 -0.1277 -1.7681
  991MOL0     H30804   1.764   0.976  10.280  4.1178 -1.5042 -0.2812
  991MOL0     H30805   1.822   1.057  10.414  0.1711 -0.2579  2.0338
  991MOL0     H30806   1.835   0.885  10.565 -0.0238  0.3032 -0.2820
  991MOL0     H30807   1.909   0.856  10.412  0.2455  1.4961 -0.3580
  991MOL0     H30808   1.802   0.654  10.482  1.6909  2.7933  1.9146
  991MOL0     H30809   1.637   0.727  10.489 -0.8577  1.5562 -1.9027
  991MOL0     H30810   1.643   0.676  10.078  0.4389 -2.0410 -0.3212
  991MOL0     H30811   1.369   1.086  10.580 -0.2060  0.9145  0.1484
  991MOL0     H30812   1.141   1.099  10.600  3.3073 -4.0020  4.5538
  992MOL0     O30813   3.590  11.189   2.325 -0.2991  0.3080  0.0161
  992MOL0     C30814   3.529  11.295   2.312 -0.0337  0.2194  0.4836
  992MOL0     O30815   3.385  11.301   2.291 -0.4095 -0.7139 -1.2366
  992MOL0     C30816   3.308  11.192   2.283 -0.7982 -0.2184 -0.2839
  992MOL0     C30817   3.196  11.187   2.197  0.2689  0.6383 -0.2344
  992MOL0     C30818   3.103  11.079   2.208  0.1044 -0.0198 -0.5679
  992MOL0     C30819   3.110  10.991   2.315  0.5321  0.0841  0.7059
  992MOL0     O30820   3.013  10.894   2.327  0.0740  0.2145 -0.4525
  992MOL0     C30821   3.030  10.799   2.439 -0.2307  0.6042 -0.0943
  992MOL0     C30822   2.939  10.682   2.403  0.4974 -0.5437 -0.4757
  992MOL0     C30823   2.788  10.719   2.380  0.7255  0.0849  0.6329
  992MOL0     C30824   2.695  10.596   2.396 -0.4354 -0.4008 -0.0223
  992MOL0     C30825   2.568  10.611   2.302 -0.0589  0.3296  0.1375
  992MOL0     C30826   2.462  10.498   2.315  0.1547  0.4674  0.5658
  992MOL0     C30827   2.368  10.503   2.196 -0.7043 -0.2548  1.0183
  992MOL0     C30828   2.437  10.441   2.070  0.3211 -0.2870 -0.1710
  992MOL0     N30829   2.364  10.328   2.011 -0.3949  0.4329 -0.6125
  992MOL0     C30830   2.307  10.327   1.886  0.4877 -0.3677 -0.0087
  992MOL0     C30831   2.251  10.200   1.879 -0.4332 -0.5119  0.0144
  992MOL0     C30832   2.156  10.134   1.781  0.4277 -0.9718 -0.4530
  992MOL0     C30833   2.018  10.204   1.779 -0.3413 -0.5201 -0.5211
  992MOL0     C30834   1.926  10.177   1.897 -0.0538 -0.2608  0.2600
  992MOL0     C30835   1.793  10.262   1.879 -0.2064 -0.2081  0.3897
  992MOL0     O30836   1.694  10.216   1.979  0.1311  0.4043 -0.3075
  992MOL0     C30837   1.576  10.296   1.976  0.1489  0.0812 -0.1939
  992MOL0     C30838   1.487  10.285   2.076  0.5036 -0.4390  0.7053
  992MOL0     C30839   1.361  10.347   2.058  0.0604  0.4779  0.0398
  992MOL0     C30840   1.319  10.418   1.941 -0.3764 -0.1518 -0.2904
  992MOL0     C30841   1.188  10.481   1.938  1.1922  0.9019  0.0772
  992MOL0     O30842   1.088  10.439   2.017 -0.5382  0.1563 -0.1192
  992MOL0     C30843   0.975  10.508   2.011  0.7287  0.4912 -0.6349
  992MOL0     C30844   0.954  10.644   2.011 -0.1053 -0.4744 -0.1595
  992MOL0     C30845   0.816  10.694   1.989 -0.0870  0.0132  0.3976
  992MOL0     C30846   0.707  10.611   1.993  0.0622  0.2570 -0.8489
  992MOL0     O30847   0.583  10.666   1.987 -0.1107 -0.2499 -0.1622
  992MOL0     C30848   0.497  10.632   1.881  0.4733  0.5322 -0.0051
  992MOL0     C30849   0.451  10.755   1.801  0.7828 -0.5348 -0.0560
  992MOL0     C30850   0.560  10.821   1.713 -0.2812  0.5918  0.0459
  992MOL0     C30851   0.573  10.972   1.725  0.5830 -0.7001  0.9218
  992MOL0     C30852   0.646  11.035   1.614 -0.2621  0.7731  0.9712
  992MOL0     C30853   0.791  10.985   1.619 -0.6762 -0.3253  0.8161
  992MOL0     C30854   0.874  11.087   1.539  0.2931 -0.2142  0.8677
  992MOL0     C30855   1.019  11.054   1.520 -0.8309  0.0929  0.7966
  992MOL0    Cl30856   1.091  11.079   1.674 -0.4076 -0.4261  0.3987
  992MOL0     C30857   0.732  10.472   2.008 -0.2146  0.0913 -0.0758
  992MOL0     C30858   0.865  10.425   2.029  0.3487  0.8907 -0.4708
  992MOL0     O30859   1.175  10.566   1.852 -0.1826 -0.0227 -0.8681
  992MOL0     C30860   1.417  10.428   1.846  0.2578  0.4345  0.1073
  992MOL0     C30861   1.543  10.374   1.866  0.4187 -0.8239  0.4092
  992MOL0     N30862   2.279  10.138   1.995  0.3059 -0.6693  0.8956
  992MOL0     N30863   2.337  10.213   2.079  0.2561  0.3632 -0.6450
  992MOL0     C30864   3.214  11.006   2.400 -0.0240  0.2706 -0.4280
  992MOL0     C30865   3.304  11.109   2.393  0.4197  0.3849  0.0215
  992MOL0     C30866   3.605  11.423   2.311 -0.6682  0.4219 -0.1771
  992MOL0     C30867   3.542  11.546   2.304  0.1459 -0.2584 -1.0515
  992MOL0     C30868   3.606  11.662   2.333 -0.9518 -0.3754  0.7286
  992MOL0     C30869   3.747  11.670   2.352 -0.2312  0.5530 -0.4537
  992MOL0     O30870   3.797  11.802   2.355  0.2518 -0.2020  0.0445
  992MOL0     C30871   3.938  11.825   2.358 -0.3953  0.1586 -0.6936
  992MOL0     C30872   3.965  11.956   2.292 -0.6915 -0.1412  1.5759
  992MOL0     C30873   4.097  12.022   2.332  0.2254  0.6397  0.1222
  992MOL0     C30874   4.128  12.138   2.244 -0.7632 -0.9336  0.4856
  992MOL0     C30875   4.271  12.183   2.271 -0.2541  0.4653 -0.5522
  992MOL0     C30876   4.393  12.204   2.296 -0.1606  1.5315  0.2227
  992MOL0     C30877   3.810  11.543   2.362 -1.0277  0.1872 -0.5520
  992MOL0     C30878   3.743  11.424   2.347 -0.0500 -0.2054 -0.0071
  992MOL0     H30879   3.191  11.253   2.111 -2.6793 -0.4539 -1.0228
  992MOL0     H30880   3.034  11.070   2.125 -0.4867  2.7400 -0.4899
  992MOL0     H30881   3.002  10.848   2.533  1.5151  0.5128  0.5130
  992MOL0     H30882   3.131  10.759   2.449  0.9537  3.5041  0.8540
  992MOL0     H30883   2.954  10.610   2.484 -0.4449  2.2558  2.3473
  992MOL0     H30884   2.966  10.628   2.311 -0.0176 -2.6820  0.5582
  992MOL0     H30885   2.776  10.757   2.278  1.3856  0.7187  0.7788
  992MOL0     H30886   2.747  10.789   2.453 -1.2045 -1.8519  1.4997
  992MOL0     H30887   2.755  10.509   2.366  5.2932  1.9190  3.0535
  992MOL0     H30888   2.665  10.580   2.500  0.8402  0.6523  0.5350
  992MOL0     H30889   2.602  10.594   2.200 -0.9358 -3.1489  0.2930
  992MOL0     H30890   2.515  10.704   2.323 -0.1334  0.2372  0.3643
  992MOL0     H30891   2.406  10.507   2.409 -0.7215 -0.0111  0.1045
  992MOL0     H30892   2.513  10.401   2.320 -0.7364 -0.0938 -0.8456
  992MOL0     H30893   2.278  10.447   2.226 -1.9435  1.0849 -0.0530
  992MOL0     H30894   2.336  10.605   2.177  2.1251  0.2067 -2.1989
  992MOL0     H30895   2.544  10.428   2.087  0.8824  2.2041 -1.3392
  992MOL0     H30896   2.423  10.524   2.000 -2.8321 -0.1094  0.4910
  992MOL0     H30897   2.312  10.409   1.814 -0.0085 -1.8420 -1.8025
  992MOL0     H30898   2.136  10.035   1.822 -1.1035 -1.3040 -1.8923
  992MOL0     H30899   2.203  10.129   1.682  2.0843 -2.2740  0.3454
  992MOL0     H30900   1.968  10.166   1.689  0.9165 -0.3896 -1.3071
  992MOL0     H30901   2.036  10.311   1.766  3.5355 -0.5266  2.7469
  992MOL0     H30902   1.910  10.068   1.901  0.3490 -0.2744  1.9729
  992MOL0     H30903   1.972  10.194   1.994  1.6771 -0.9986 -0.3863
  992MOL0     H30904   1.751  10.250   1.779  3.1009  2.3429 -1.4674
  992MOL0     H30905   1.829  10.364   1.891  0.6477 -0.3515 -0.7908
  992MOL0     H30906   1.506  10.227   2.166 -2.0020 -1.4343  0.6495
  992MOL0     H30907   1.279  10.326   2.126 -0.4852  2.0669 -0.0766
  992MOL0     H30908   1.038  10.712   2.018 -0.4933 -0.1244  1.3520
  992MOL0     H30909   0.805  10.802   1.978  1.3082  0.0785 -0.6010
  992MOL0     H30910   0.401  10.588   1.911 -0.1527  2.4742  0.9715
  992MOL0     H30911   0.550  10.571   1.806 -1.5614 -1.5637  0.1426
  992MOL0     H30912   0.427  10.831   1.877 -0.0972  0.1385 -0.9768
  992MOL0     H30913   0.365  10.730   1.738  0.2754  0.1314  0.3639
  992MOL0     H30914   0.549  10.770   1.617 -0.8146  0.8897 -0.0531
  992MOL0     H30915   0.658  10.785   1.744 -0.3069  0.6274  0.1670
  992MOL0     H30916   0.468  11.000   1.710  0.5963 -0.6838  0.8574
  992MOL0     H30917   0.612  10.997   1.824  2.1447 -1.0231  0.4195
  992MOL0     H30918   0.641  11.144   1.629  2.6383  1.3848 -1.3899
  992MOL0     H30919   0.610  11.028   1.511  4.6541  0.2515 -1.0062
  992MOL0     H30920   0.806  10.892   1.565  0.0419 -2.1617  3.9420
  992MOL0     H30921   0.829  10.973   1.721  1.1631 -1.5534  0.0280
  992MOL0     H30922   0.827  11.105   1.442  0.5317  1.4909  1.0541
  992MOL0     H30923   0.859  11.180   1.594  1.4321 -0.3138  1.3635
  992MOL0     H30924   1.066  11.126   1.453  0.3009 -0.9348  0.4344
  992MOL0     H30925   1.021  10.955   1.473 -2.0867 -0.5741  2.0584
  992MOL0     H30926   0.657  10.394   2.011 -1.5421  1.3410  1.5850
  992MOL0     H30927   0.883  10.319   2.038  1.4931  1.1256  0.1864
  992MOL0     H30928   1.404  10.477   1.750  4.1444 -1.5034 -1.6217
  992MOL0     H30929   1.608  10.389   1.780  1.6916  2.1404  1.7365
  992MOL0     H30930   3.229  10.943   2.487 -1.1857  0.4709 -0.0715
  992MOL0     H30931   3.383  11.118   2.467 -1.4267  0.3684  2.0834
  992MOL0     H30932   3.440  11.564   2.270  0.3073  1.8929 -0.5325
  992MOL0     H30933   3.552  11.756   2.326 -3.1998 -1.6711 -0.3681
  992MOL0     H30934   3.987  11.743   2.306 -0.6989  0.5379 -1.5903
  992MOL0     H30935   3.962  11.825   2.465  0.0760  1.3692 -0.7811
  992MOL0     H30936   3.973  11.931   2.186 -0.8520 -1.4085  1.8413
  992MOL0     H30937   3.883  12.028   2.298  0.0343  1.0235 -0.9744
  992MOL0     H30938   4.182  11.954   2.321  1.3400  2.3223 -2.5756
  992MOL0     H30939   4.089  12.048   2.438 -0.8612 -2.3161  0.8711
  992MOL0     H30940   4.130  12.105   2.140  2.4268  0.4250  0.0063
  992MOL0     H30941   4.067  12.225   2.268  0.3994  0.2503 -0.7153
  992MOL0     H30942   4.497  12.228   2.295  0.6574 -1.6280 -1.6806
  992MOL0     H30943   3.918  11.538   2.375 -0.9310  1.7762 -0.6503
  992MOL0     H30944   3.797  11.332   2.367  1.5996  1.0444  1.6372
  993MOL0     O30945   1.607   1.638  10.022 -0.8528 -0.2832  0.1889
  993MOL0     C30946   1.643   1.568   9.923  0.3246 -0.5084  0.2357
  993MOL0     O30947   1.563   1.480   9.849 -0.5165 -0.2731 -0.5695
  993MOL0     C30948   1.433   1.465   9.875  0.3283 -0.2744  0.7002
  993MOL0     C30949   1.347   1.407   9.778  0.2813 -0.1457 -0.3934
  993MOL0     C30950   1.213   1.370   9.801  0.3074  0.2298 -0.1581
  993MOL0     C30951   1.160   1.387   9.919  0.3502  0.4195 -0.3168
  993MOL0     O30952   1.030   1.344   9.938 -1.0390  0.0598  0.2438
  993MOL0     C30953   0.948   1.381  10.050 -0.4436 -0.8363 -0.3933
  993MOL0     C30954   0.799   1.382  10.017 -0.3151  0.0034  0.7026
  993MOL0     C30955   0.747   1.504   9.931  0.4604 -0.2323  0.3767
  993MOL0     C30956   0.601   1.488   9.899  0.2929  0.5638 -0.5836
  993MOL0     C30957   0.503   1.507  10.017  0.2689  0.8692 -0.1547
  993MOL0     C30958   0.491   1.641  10.089  0.1356 -0.6204  0.1287
  993MOL0     C30959   0.479   1.753   9.990  0.2034  0.2256  0.0824
  993MOL0     C30960   0.480   1.886  10.068  1.2431 -0.5136  0.3033
  993MOL0     N30961   0.603   1.905  10.147 -0.2280 -0.3563  0.5868
  993MOL0     C30962   0.728   1.880  10.112 -0.2611  0.0190 -0.6589
  993MOL0     C30963   0.810   1.883  10.218 -0.6099 -0.5766  0.4423
  993MOL0     C30964   0.960   1.864  10.221 -0.0669  0.5702 -0.8495
  993MOL0     C30965   1.028   1.874  10.087  0.2255 -0.2170 -0.8415
  993MOL0     C30966   1.181   1.879  10.109  0.3199 -0.1950  0.1951
  993MOL0     C30967   1.255   1.863   9.981 -1.1166 -0.7151  0.4231
  993MOL0     O30968   1.235   1.976   9.895  0.3333 -0.2373  0.7379
  993MOL0     C30969   1.332   2.024   9.808 -0.5354 -0.2228 -0.4866
  993MOL0     C30970   1.436   1.952   9.758  0.0701  0.0024 -0.0549
  993MOL0     C30971   1.517   2.001   9.658  0.6302  0.2180 -0.7477
  993MOL0     C30972   1.505   2.139   9.613 -0.1900 -0.2966 -0.7860
  993MOL0     C30973   1.603   2.208   9.519 -0.8544 -0.2234 -0.3261
  993MOL0     O30974   1.562   2.321   9.463  0.5197 -0.1759  0.2619
  993MOL0     C30975   1.639   2.375   9.360  0.5873  0.3564  0.4194
  993MOL0     C30976   1.579   2.372   9.225 -0.1880  0.0299 -0.8260
  993MOL0     C30977   1.649   2.436   9.125 -0.2337  1.0089  0.4801
  993MOL0     C30978   1.784   2.468   9.137 -0.1991  0.7293  0.1900
  993MOL0     O30979   1.857   2.503   9.024 -0.1380  0.8865 -0.3094
  993MOL0     C30980   1.800   2.534   8.904 -0.6002  1.1558  0.3245
  993MOL0     C30981   1.763   2.676   8.887  0.8624  0.6840  0.3841
  993MOL0     C30982   1.872   2.782   8.882 -0.2232  0.3476  0.8188
  993MOL0     C30983   1.828   2.928   8.907 -0.1991 -0.0035 -0.0416
  993MOL0     C30984   1.931   3.040   8.906  0.2280 -0.0971 -0.8256
  993MOL0     C30985   2.022   3.020   9.032  0.0152 -0.2071  0.1112
  993MOL0     C30986   2.126   3.134   9.026 -0.2125 -0.9164  0.9092
  993MOL0     C30987   2.255   3.069   9.082  0.2881  0.0968  0.4575
  993MOL0    Cl30988   2.409   3.136   9.016 -0.1807 -0.0590  0.0207
  993MOL0     C30989   1.847   2.462   9.259  0.3670  0.4342  0.6430
  993MOL0     C30990   1.770   2.420   9.371  0.3729  0.7451 -0.4677
  993MOL0     O30991   1.709   2.147   9.498 -0.8244  0.1119  0.0270
  993MOL0     C30992   1.396   2.210   9.665 -0.1112  0.2876  0.5167
  993MOL0     C30993   1.312   2.154   9.763 -0.8800 -0.1972 -0.8583
  993MOL0     N30994   0.727   1.936  10.316 -0.7508 -0.7974  1.0879
  993MOL0     N30995   0.605   1.945  10.274 -0.6097 -0.3959 -0.0907
  993MOL0     C30996   1.235   1.444  10.017 -0.8352  0.0607  1.3878
  993MOL0     C30997   1.364   1.478   9.997 -0.4503  0.0276  0.1543
  993MOL0     C30998   1.788   1.573   9.890 -0.3443  0.0065  0.5844
  993MOL0     C30999   1.877   1.670   9.930  1.1372 -0.0440 -0.3019
  993MOL0     C31000   2.011   1.662   9.886  1.3075 -0.0712  0.7697
  993MOL0     C31001   2.049   1.559   9.801  0.0789 -0.4974 -0.9516
  993MOL0     O31002   2.179   1.572   9.753  0.1900  0.3974  0.2472
  993MOL0     C31003   2.222   1.476   9.650 -0.8802 -0.3000  0.1673
  993MOL0     C31004   2.373   1.505   9.632 -0.2795  0.3931 -1.0936
  993MOL0     C31005   2.384   1.611   9.522 -0.5724  1.6105 -1.2506
  993MOL0     C31006   2.528   1.627   9.476 -0.0341 -0.5856  0.6560
  993MOL0     C31007   2.596   1.501   9.444 -0.4921  0.0869 -0.7774
  993MOL0     C31008   2.649   1.388   9.426 -1.5654  0.3031 -0.4153
  993MOL0     C31009   1.962   1.455   9.764 -0.5807 -0.4370 -0.3791
  993MOL0     C31010   1.833   1.470   9.800  0.1690  0.8110  0.1366
  993MOL0     H31011   1.391   1.396   9.679  0.1430 -0.4679 -0.4197
  993MOL0     H31012   1.159   1.316   9.724 -0.0629  0.7710 -0.2840
  993MOL0     H31013   0.978   1.481  10.084  0.0704 -1.1484  0.0983
  993MOL0     H31014   0.970   1.311  10.131 -1.6657 -1.2920 -0.4387
  993MOL0     H31015   0.749   1.383  10.115 -0.3141 -1.2303  0.7311
  993MOL0     H31016   0.782   1.293   9.957  0.3480  1.8826 -2.4815
  993MOL0     H31017   0.802   1.506   9.837 -1.5924 -1.8830 -0.9441
  993MOL0     H31018   0.758   1.604   9.974  0.6470 -0.4173  0.7710
  993MOL0     H31019   0.579   1.554   9.814  1.6507  0.2990 -1.1702
  993MOL0     H31020   0.579   1.385   9.869 -0.6774  1.1035 -1.8418
  993MOL0     H31021   0.530   1.434  10.094  0.0888  2.1281  1.1279
  993MOL0     H31022   0.410   1.474   9.970 -1.0454  0.5752  2.4394
  993MOL0     H31023   0.578   1.661  10.152 -1.2678  1.8849  1.4097
  993MOL0     H31024   0.401   1.629  10.150 -1.1662  2.7784 -0.8946
  993MOL0     H31025   0.565   1.764   9.924 -0.9504  2.1201 -1.2001
  993MOL0     H31026   0.386   1.742   9.934 -0.8086 -1.8993  1.9891
  993MOL0     H31027   0.398   1.894  10.141  2.4689  3.6322  1.5241
  993MOL0     H31028   0.462   1.960   9.990  0.2410  0.1414  1.1274
  993MOL0     H31029   0.771   1.878  10.013 -2.3255  0.3107 -1.6059
  993MOL0     H31030   0.982   1.761  10.252 -4.5256 -0.3025  0.1489
  993MOL0     H31031   0.999   1.931  10.299  0.0920 -0.4141 -0.0625
  993MOL0     H31032   0.995   1.970  10.046  1.7548  0.9539  0.5189
  993MOL0     H31033   1.009   1.793  10.016  2.4073  0.0091 -1.7707
  993MOL0     H31034   1.211   1.967  10.166  0.5175 -0.1667  0.0490
  993MOL0     H31035   1.215   1.793  10.168  1.5791  0.8357  1.0171
  993MOL0     H31036   1.228   1.764   9.943  1.0881 -1.8152  1.5296
  993MOL0     H31037   1.360   1.851  10.006 -1.3492 -0.1073  1.7939
  993MOL0     H31038   1.465   1.850   9.782 -1.1990 -0.5733 -0.8406
  993MOL0     H31039   1.597   1.938   9.620 -1.1785 -2.0156 -1.0066
  993MOL0     H31040   1.483   2.327   9.206  0.0203  0.6053 -3.6025
  993MOL0     H31041   1.600   2.441   9.029  0.7391  1.1112 -0.0292
  993MOL0     H31042   1.721   2.466   8.871  0.0387  1.3532 -1.7607
  993MOL0     H31043   1.876   2.511   8.828 -1.8325  2.1840 -1.2856
  993MOL0     H31044   1.697   2.705   8.970  1.4095 -0.5841  1.2973
  993MOL0     H31045   1.699   2.683   8.798  2.6746  2.3639 -0.8739
  993MOL0     H31046   1.923   2.785   8.785 -0.5643  0.7108  0.6449
  993MOL0     H31047   1.954   2.744   8.942  1.8630 -1.9935 -3.0728
  993MOL0     H31048   1.773   2.956   8.816  3.2570  3.2611 -1.4124
  993MOL0     H31049   1.763   2.937   8.994  1.0158  0.2861  0.8562
  993MOL0     H31050   1.892   3.142   8.904 -1.9593 -0.8769 -0.6712
  993MOL0     H31051   1.990   3.022   8.815  0.6593 -1.0026 -0.3797
  993MOL0     H31052   2.077   2.926   9.018 -0.7238 -0.6008 -0.2150
  993MOL0     H31053   1.964   3.022   9.125  0.0204  0.4270  0.1007
  993MOL0     H31054   2.130   3.174   8.924 -0.9797  0.4182  1.3816
  993MOL0     H31055   2.104   3.223   9.085  2.3836  0.3291  0.1647
  993MOL0     H31056   2.261   2.961   9.062 -1.6661  0.2791 -1.5416
  993MOL0     H31057   2.254   3.065   9.191 -0.4416 -3.5359  0.4470
  993MOL0     H31058   1.945   2.506   9.273  1.1133 -1.0937  0.4481
  993MOL0     H31059   1.805   2.432   9.473 -1.6588  0.3690  0.3219
  993MOL0     H31060   1.371   2.303   9.614 -0.4446 -2.2920 -4.7704
  993MOL0     H31061   1.223   2.197   9.806 -1.9835 -1.7278 -1.5132
  993MOL0     H31062   1.193   1.465  10.115 -1.3703  2.9306  0.6124
  993MOL0     H31063   1.422   1.502  10.086  0.2467  2.4984 -0.8988
  993MOL0     H31064   1.842   1.762   9.976  0.1318 -0.8620  0.6121
  993MOL0     H31065   2.066   1.752   9.911  0.2039  0.4488  1.4116
  993MOL0     H31066   2.164   1.485   9.558 -0.6279 -2.5294 -0.2813
  993MOL0     H31067   2.198   1.376   9.690 -2.8177  1.2820  3.4425
  993MOL0     H31068   2.417   1.551   9.721 -2.0561  2.9084 -1.3804
  993MOL0     H31069   2.422   1.409   9.618 -0.5900 -0.0481  0.6115
  993MOL0     H31070   2.342   1.708   9.551  2.1940  1.9709  2.1884
  993MOL0     H31071   2.329   1.573   9.435  0.2176 -1.4206 -0.5540
  993MOL0     H31072   2.518   1.692   9.389  0.1553 -0.7403  0.5178
  993MOL0     H31073   2.594   1.668   9.553 -0.9137  1.0793  0.5567
  993MOL0     H31074   2.713   1.305   9.400 -0.8902  0.4084  0.8451
  993MOL0     H31075   1.978   1.374   9.694 -4.6624 -0.5423 -1.4596
  993MOL0     H31076   1.765   1.393   9.766  1.2568 -0.4210  0.6680
  994MOL0     O31077   4.340  10.834   6.919 -0.3506 -0.6953  0.1844
  994MOL0     C31078   4.435  10.914   6.909  0.0992 -1.4035 -0.1459
  994MOL0     O31079   4.462  11.013   7.000  0.5832  0.5136  0.1634
  994MOL0     C31080   4.354  11.036   7.083  0.3813 -0.2899 -0.0405
  994MOL0     C31081   4.345  10.974   7.214 -0.1044  0.2748 -0.2479
  994MOL0     C31082   4.242  11.011   7.298  1.2017 -0.0432 -0.3058
  994MOL0     C31083   4.142  11.111   7.261 -0.2358  0.5606 -0.6758
  994MOL0     O31084   4.046  11.156   7.342  0.3716 -0.7120 -0.5218
  994MOL0     C31085   3.905  11.109   7.326  0.9955  0.3080  0.1835
  994MOL0     C31086   3.859  11.044   7.459  0.5443 -0.7105  0.3117
  994MOL0     C31087   3.709  11.027   7.471  0.4413 -0.0504 -0.0991
  994MOL0     C31088   3.664  10.892   7.407  0.3872 -0.0204 -1.0033
  994MOL0     C31089   3.516  10.872   7.448  0.7967  0.2094 -0.6576
  994MOL0     C31090   3.483  10.850   7.599 -0.7002  0.2969 -0.6280
  994MOL0     C31091   3.370  10.944   7.640  0.1438 -0.1304 -0.2467
  994MOL0     C31092   3.228  10.893   7.591 -1.2216  0.3523  0.2694
  994MOL0     N31093   3.116  10.980   7.626 -0.5124  0.4404  0.1992
  994MOL0     C31094   3.028  11.032   7.539  0.5128  0.2386 -0.7917
  994MOL0     C31095   2.933  11.093   7.611  2.0812  0.9336 -0.4086
  994MOL0     C31096   2.807  11.155   7.567  0.5392 -0.1139  0.0193
  994MOL0     C31097   2.693  11.139   7.675 -0.1716 -0.0021  0.2005
  994MOL0     C31098   2.651  10.997   7.690  0.5334 -0.0397 -0.5281
  994MOL0     C31099   2.532  10.980   7.797 -0.1071 -0.3595  0.1828
  994MOL0     O31100   2.415  11.037   7.740  0.1122  0.2632  0.1901
  994MOL0     C31101   2.302  11.049   7.819  0.3001 -0.2824  0.3470
  994MOL0     C31102   2.182  11.098   7.764  0.5656 -0.1831  0.7152
  994MOL0     C31103   2.065  11.106   7.829 -0.8982 -0.2232 -0.5161
  994MOL0     C31104   2.057  11.059   7.962  0.4832  0.6691  0.4602
  994MOL0     C31105   1.923  11.062   8.033 -1.5231  0.2603 -0.2217
  994MOL0     O31106   1.813  11.118   7.961 -0.0049 -0.3461 -0.4584
  994MOL0     C31107   1.684  11.107   8.026 -0.9369  0.0372 -0.3409
  994MOL0     C31108   1.620  11.224   8.071 -0.3133 -0.0100  0.1602
  994MOL0     C31109   1.490  11.214   8.112 -0.2284 -0.5926 -0.2035
  994MOL0     C31110   1.417  11.094   8.109  0.0745 -0.7264 -0.0083
  994MOL0     O31111   1.291  11.088   8.166  0.2539 -0.4600  0.0634
  994MOL0     C31112   1.225  10.968   8.175 -1.0051  0.3419  0.0353
  994MOL0     C31113   1.087  10.985   8.222  0.5695 -0.1519 -0.2293
  994MOL0     C31114   1.036  10.866   8.298  0.9081 -0.6597 -0.2393
  994MOL0     C31115   0.888  10.864   8.356  0.4625 -0.3274 -0.3365
  994MOL0     C31116   0.789  10.848   8.249 -0.6924 -0.1668 -0.2617
  994MOL0     C31117   0.652  10.890   8.304 -0.2474 -0.8293 -0.3705
  994MOL0     C31118   0.534  10.860   8.213  0.9818  0.0038  0.0252
  994MOL0     C31119   0.402  10.929   8.244  0.8656 -0.5780  0.4577
  994MOL0    Cl31120   0.269  10.885   8.133  0.7961 -0.0134 -0.0102
  994MOL0     C31121   1.473  10.983   8.042  1.5120 -0.0888  0.5133
  994MOL0     C31122   1.603  10.993   8.005 -0.4340  0.2167 -0.0058
  994MOL0     O31123   1.918  11.041   8.154 -0.2398  0.5059  0.3290
  994MOL0     C31124   2.168  10.994   8.019 -0.0422  0.1079 -0.1890
  994MOL0     C31125   2.293  11.000   7.946 -0.1531  0.6516 -0.7711
  994MOL0     N31126   2.969  11.085   7.744 -0.3477  0.6570  0.1926
  994MOL0     N31127   3.080  11.015   7.749 -0.0056 -0.2233 -0.3379
  994MOL0     C31128   4.158  11.171   7.134 -0.3593  0.0829 -0.2931
  994MOL0     C31129   4.261  11.137   7.047 -0.2053 -0.1245 -0.3240
  994MOL0     C31130   4.533  10.905   6.790 -0.4077 -0.1992 -0.6867
  994MOL0     C31131   4.668  10.941   6.813 -0.3046  0.6317  0.6039
  994MOL0     C31132   4.758  10.927   6.710  0.2320 -0.7995  0.0708
  994MOL0     C31133   4.709  10.904   6.580 -0.4466 -0.0275 -0.0290
  994MOL0     O31134   4.797  10.880   6.475 -0.0672 -0.5288  0.3346
  994MOL0     C31135   4.916  10.956   6.476 -0.6388 -0.1868  0.0199
  994MOL0     C31136   4.992  10.937   6.343  0.1000  0.2322 -0.0573
  994MOL0     C31137   5.065  10.803   6.355  0.2440 -0.4448  0.8676
  994MOL0     C31138   5.135  10.736   6.236  0.6860  0.2999 -0.6080
  994MOL0     C31139   5.043  10.735   6.117 -0.8160 -0.7273 -0.8735
  994MOL0     C31140   4.981  10.735   6.017  0.2406  0.1125 -0.3115
  994MOL0     C31141   4.579  10.870   6.552 -0.8281  0.6402 -0.0546
  994MOL0     C31142   4.487  10.858   6.660  0.8871 -0.6433 -0.7025
  994MOL0     H31143   4.420  10.902   7.244  0.0910  0.7246  0.3729
  994MOL0     H31144   4.239  10.973   7.400 -1.0301 -2.1285 -1.0603
  994MOL0     H31145   3.896  11.038   7.242 -2.1001 -2.4527  2.5923
  994MOL0     H31146   3.840  11.196   7.316  1.8264  0.8287 -0.9567
  994MOL0     H31147   3.886  11.118   7.536 -1.1413  1.4130 -1.0064
  994MOL0     H31148   3.906  10.946   7.463 -0.2845 -1.1540 -0.3938
  994MOL0     H31149   3.649  11.106   7.425 -0.8135 -1.1496 -0.3969
  994MOL0     H31150   3.679  11.019   7.577 -1.2281 -2.1568 -0.6518
  994MOL0     H31151   3.689  10.891   7.301  3.2477  2.2817 -0.4778
  994MOL0     H31152   3.725  10.813   7.452  0.4944  1.8080  2.4297
  994MOL0     H31153   3.477  10.783   7.399 -1.6134  0.9109 -0.1339
  994MOL0     H31154   3.451  10.952   7.412  0.9350  2.3706  3.2649
  994MOL0     H31155   3.574  10.872   7.655  0.9429  0.2583 -3.1134
  994MOL0     H31156   3.475  10.744   7.624  1.0791 -0.2346 -2.0597
  994MOL0     H31157   3.364  10.948   7.749  2.8435  2.4210 -0.0729
  994MOL0     H31158   3.378  11.049   7.611 -2.4526 -0.3098 -1.9436
  994MOL0     H31159   3.209  10.792   7.629 -0.4732  0.0474 -0.1675
  994MOL0     H31160   3.236  10.891   7.482 -1.7707 -0.8754  0.2391
  994MOL0     H31161   3.039  11.038   7.431  1.2803 -0.6358 -0.7751
  994MOL0     H31162   2.776  11.092   7.483  2.6191 -1.3257  0.0885
  994MOL0     H31163   2.813  11.262   7.545 -0.5440  0.4100  1.9903
  994MOL0     H31164   2.604  11.197   7.648 -2.3457 -3.5343 -1.0223
  994MOL0     H31165   2.737  11.166   7.771 -0.7739  1.4348  0.0992
  994MOL0     H31166   2.620  10.952   7.596 -0.9966 -1.1081  0.4433
  994MOL0     H31167   2.735  10.945   7.737  0.8010  0.2829 -0.6436
  994MOL0     H31168   2.548  11.036   7.890 -1.1638  0.5313 -0.1512
  994MOL0     H31169   2.524  10.878   7.834 -0.9793  0.5819  2.8724
  994MOL0     H31170   2.181  11.130   7.661 -0.6926 -3.4192 -0.4121
  994MOL0     H31171   1.980  11.150   7.777 -1.7628 -1.3371 -0.0991
  994MOL0     H31172   1.668  11.320   8.086  2.1484 -0.9491 -1.1698
  994MOL0     H31173   1.456  11.308   8.155 -2.2207 -1.5231  0.3664
  994MOL0     H31174   1.276  10.905   8.247 -1.5233 -0.5253 -0.3344
  994MOL0     H31175   1.212  10.931   8.072 -1.8368  0.4599  0.0842
  994MOL0     H31176   1.028  10.997   8.131  0.3178  0.4673  0.0156
  994MOL0     H31177   1.077  11.073   8.286 -2.4403  1.1417 -2.2661
  994MOL0     H31178   1.094  10.860   8.390 -0.3629 -0.4689  0.5957
  994MOL0     H31179   1.066  10.777   8.241  0.5518 -0.6203 -0.4958
  994MOL0     H31180   0.881  10.778   8.422  2.4440 -0.3840 -0.1588
  994MOL0     H31181   0.868  10.953   8.417 -1.2057 -0.8978  0.0042
  994MOL0     H31182   0.792  10.745   8.213  0.7544  0.2245 -1.3332
  994MOL0     H31183   0.804  10.915   8.163 -5.8654  2.7248  0.6205
  994MOL0     H31184   0.664  10.996   8.329  0.4812 -0.5915 -1.6571
  994MOL0     H31185   0.632  10.838   8.399 -0.4833 -0.0440  0.0218
  994MOL0     H31186   0.565  10.872   8.109 -1.4635  0.3649 -0.7339
  994MOL0     H31187   0.514  10.753   8.229  1.5556 -0.1869 -0.5070
  994MOL0     H31188   0.414  11.037   8.242 -0.9761 -0.3383 -1.3348
  994MOL0     H31189   0.369  10.908   8.346 -2.3286 -0.4953 -0.4519
  994MOL0     H31190   1.412  10.898   8.015 -0.1432  1.5049 -1.0489
  994MOL0     H31191   1.656  10.910   7.959 -2.3306  0.0132 -1.9769
  994MOL0     H31192   2.173  10.959   8.122  0.3958  0.4016 -0.1134
  994MOL0     H31193   2.380  10.959   7.995 -1.6559 -0.8456  0.7700
  994MOL0     H31194   4.083  11.243   7.104 -1.3900  0.1556  2.1640
  994MOL0     H31195   4.267  11.185   6.950 -0.5470 -0.4305 -0.4990
  994MOL0     H31196   4.700  10.966   6.913  0.1162 -1.9697  1.2003
  994MOL0     H31197   4.861  10.942   6.739  1.2576 -4.8834 -0.8353
  994MOL0     H31198   4.987  10.916   6.548  3.2253  1.0374 -2.7576
  994MOL0     H31199   4.906  11.065   6.485 -0.8771 -0.2659  0.7921
  994MOL0     H31200   4.925  10.944   6.257  0.3784  0.9833 -0.2124
  994MOL0     H31201   5.065  11.017   6.332 -1.7374  1.7180 -2.2455
  994MOL0     H31202   4.990  10.735   6.395 -1.0537  0.2319 -0.3417
  994MOL0     H31203   5.145  10.807   6.429  0.1443 -0.3675  0.9698
  994MOL0     H31204   5.219  10.801   6.214 -0.2777  1.6998 -0.2628
  994MOL0     H31205   5.166  10.636   6.267 -1.1705 -1.0601 -2.7173
  994MOL0     H31206   4.932  10.737   5.922 -0.2144 -2.3990 -0.1844
  994MOL0     H31207   4.556  10.824   6.457 -2.0209 -0.3836  0.6992
  994MOL0     H31208   4.382  10.834   6.646  0.3889  1.6598 -1.3269
  995MOL0     O31209   1.434   6.157   9.381  0.1186  0.8400 -0.5814
  995MOL0     C31210   1.486   6.100   9.473 -0.3878 -0.2295  0.8599
  995MOL0     O31211   1.443   6.105   9.602 -0.4375  0.3609  0.2282
  995MOL0     C31212   1.332   6.185   9.644  0.5283  0.3438  0.7652
  995MOL0     C31213   1.227   6.127   9.706 -0.0830 -0.4213 -0.2200
  995MOL0     C31214   1.126   6.204   9.757 -0.1053 -0.6831 -0.4268
  995MOL0     C31215   1.129   6.348   9.755 -0.7374 -0.6489  0.3341
  995MOL0     O31216   1.038   6.441   9.806 -0.0525 -0.4698  0.2466
  995MOL0     C31217   0.948   6.385   9.910  0.3175 -0.6557  0.6279
  995MOL0     C31218   0.848   6.489   9.965 -0.4307 -0.3126  0.6408
  995MOL0     C31219   0.802   6.595   9.858  0.1330 -0.0599 -0.2652
  995MOL0     C31220   0.714   6.525   9.749  0.6234 -0.9463  0.0354
  995MOL0     C31221   0.579   6.484   9.806  0.6120 -0.1298  0.2647
  995MOL0     C31222   0.493   6.606   9.857  0.1615  0.3706 -0.0457
  995MOL0     C31223   0.348   6.573   9.874  0.6979  0.0460  1.1436
  995MOL0     C31224   0.320   6.477   9.981  0.1205 -0.4031  0.2496
  995MOL0     N31225   0.177   6.428   9.972  0.0069  0.6019  1.0249
  995MOL0     C31226   0.076   6.495  10.026  0.2852 -0.8312 -0.0891
  995MOL0     C31227  -0.033   6.424   9.980  0.2241 -0.6654  0.2446
  995MOL0     C31228  -0.173   6.444  10.030 -0.0797  0.9347  0.1135
  995MOL0     C31229  -0.272   6.479   9.918 -1.1942 -0.5141  0.0330
  995MOL0     C31230  -0.416   6.512   9.976 -0.3929  0.5626 -0.3062
  995MOL0     C31231  -0.514   6.543   9.873 -0.6962 -0.0231 -0.2442
  995MOL0     O31232  -0.644   6.569   9.936 -0.0765 -0.0971  0.9220
  995MOL0     C31233  -0.756   6.534   9.867  0.4144 -0.7372 -0.0487
  995MOL0     C31234  -0.863   6.624   9.888  1.0443  0.3391 -0.3434
  995MOL0     C31235  -0.986   6.606   9.833  0.9189  0.0464  0.0492
  995MOL0     C31236  -1.009   6.495   9.753 -0.1671  0.4694  0.0450
  995MOL0     C31237  -1.144   6.469   9.705  0.8302 -0.0897  0.3897
  995MOL0     O31238  -1.223   6.574   9.689  0.2412  0.1345 -0.1145
  995MOL0     C31239  -1.353   6.546   9.643  0.0250 -0.1013 -0.5659
  995MOL0     C31240  -1.370   6.505   9.509  0.4086  0.5677  0.5340
  995MOL0     C31241  -1.499   6.480   9.465  0.6113 -0.2107 -0.1350
  995MOL0     C31242  -1.611   6.514   9.543  1.2551  0.3647  0.5501
  995MOL0     O31243  -1.740   6.518   9.492 -0.1939  0.6013  0.2811
  995MOL0     C31244  -1.776   6.416   9.398 -1.2525 -0.7146 -0.0621
  995MOL0     C31245  -1.926   6.386   9.420 -0.3779  0.0043 -0.5122
  995MOL0     C31246  -2.007   6.484   9.502 -0.6988  0.8315 -0.9271
  995MOL0     C31247  -2.137   6.436   9.534 -0.8929  0.3630 -0.4630
  995MOL0     C31248  -2.238   6.548   9.568 -0.0683 -0.3966  0.2804
  995MOL0     C31249  -2.376   6.490   9.581 -0.6195  0.7804  0.7058
  995MOL0     C31250  -2.488   6.598   9.586 -0.5376  0.4495 -0.2889
  995MOL0     C31251  -2.616   6.549   9.638 -0.1787 -0.7747 -0.2915
  995MOL0    Cl31252  -2.763   6.655   9.604  0.2658 -0.0111  0.1392
  995MOL0     C31253  -1.594   6.560   9.673  0.1308 -0.0820 -0.0725
  995MOL0     C31254  -1.464   6.566   9.719  0.6306  0.4701  0.2769
  995MOL0     O31255  -1.182   6.353   9.692  0.5172  0.6045 -0.5821
  995MOL0     C31256  -0.905   6.406   9.720  0.5495 -0.6912 -0.5928
  995MOL0     C31257  -0.780   6.426   9.782  0.6231  0.0990 -0.3517
  995MOL0     N31258   0.001   6.322   9.894  0.7124 -0.9179  0.2082
  995MOL0     N31259   0.133   6.324   9.896  0.5552 -0.4175  0.3872
  995MOL0     C31260   1.233   6.403   9.689 -0.5305 -0.1187 -0.1803
  995MOL0     C31261   1.344   6.320   9.639 -0.3785 -0.3347 -0.3472
  995MOL0     C31262   1.608   6.025   9.445 -1.2013  0.4355  0.1358
  995MOL0     C31263   1.648   6.013   9.315 -0.7095 -0.2864 -0.0067
  995MOL0     C31264   1.775   5.964   9.282 -0.3309  0.5991 -0.9847
  995MOL0     C31265   1.847   5.898   9.382  0.8974 -1.0393  0.4252
  995MOL0     O31266   1.961   5.828   9.358  0.9309 -0.6889  0.1935
  995MOL0     C31267   2.054   5.863   9.255 -0.5395 -0.2957  0.0750
  995MOL0     C31268   2.135   5.748   9.222  0.3058  0.0072 -0.4232
  995MOL0     C31269   2.243   5.782   9.125  0.1092 -0.0223 -0.2442
  995MOL0     C31270   2.325   5.655   9.083  0.4588  0.0272  0.5782
  995MOL0     C31271   2.398   5.688   8.958 -0.3429 -0.1481  0.6303
  995MOL0     C31272   2.474   5.708   8.865 -0.0671 -0.3480  0.7185
  995MOL0     C31273   1.812   5.907   9.521  0.6160 -0.2437 -0.8758
  995MOL0     C31274   1.691   5.970   9.553  0.6532  0.3837  0.2334
  995MOL0     H31275   1.207   6.020   9.714 -3.0399 -0.0094 -0.8917
  995MOL0     H31276   1.053   6.146   9.813 -1.3696  3.0368  2.2088
  995MOL0     H31277   1.008   6.331   9.984  2.4704 -0.4188 -0.8265
  995MOL0     H31278   0.890   6.310   9.857 -0.0944  0.2453 -0.2324
  995MOL0     H31279   0.911   6.544  10.036  1.1186 -1.8688  0.5501
  995MOL0     H31280   0.769   6.435  10.017 -0.8564 -1.1791 -0.8429
  995MOL0     H31281   0.890   6.649   9.821  0.7797  0.9041  2.4538
  995MOL0     H31282   0.739   6.673   9.903 -1.6335 -2.3263  1.4139
  995MOL0     H31283   0.699   6.601   9.672  0.5641 -0.4325  0.5497
  995MOL0     H31284   0.766   6.449   9.690 -0.9454 -2.7215  0.8313
  995MOL0     H31285   0.592   6.407   9.883 -1.2260  0.8294  1.5963
  995MOL0     H31286   0.533   6.422   9.728  2.4787 -1.6820  0.3217
  995MOL0     H31287   0.493   6.694   9.793  2.4783 -0.3262 -1.0957
  995MOL0     H31288   0.539   6.636   9.952 -1.4351  1.1042  0.5355
  995MOL0     H31289   0.298   6.668   9.897 -0.7414 -1.2885  4.2568
  995MOL0     H31290   0.307   6.541   9.778 -2.2715 -1.8343  2.8527
  995MOL0     H31291   0.327   6.535  10.074 -3.5766  0.4339  0.1713
  995MOL0     H31292   0.392   6.395   9.988  1.4087  0.6892  0.2715
  995MOL0     H31293   0.056   6.569  10.102 -3.8165  1.7045 -3.2151
  995MOL0     H31294  -0.174   6.517  10.111  1.1185  1.9266 -0.7320
  995MOL0     H31295  -0.208   6.351  10.077  1.2694  0.1887 -0.2983
  995MOL0     H31296  -0.273   6.388   9.857 -0.4558 -1.6178  1.5871
  995MOL0     H31297  -0.237   6.560   9.854 -3.1100  1.7188  1.6820
  995MOL0     H31298  -0.459   6.425  10.027  0.8095 -0.2263 -0.5811
  995MOL0     H31299  -0.409   6.600  10.041  0.5808  0.0750  0.2819
  995MOL0     H31300  -0.521   6.469   9.793 -1.3036 -0.1489 -0.0782
  995MOL0     H31301  -0.487   6.636   9.821 -1.8603 -0.4460 -1.6674
  995MOL0     H31302  -0.850   6.712   9.951 -0.6749  0.2383  0.1981
  995MOL0     H31303  -1.067   6.674   9.860  0.6385 -0.2124 -0.1327
  995MOL0     H31304  -1.281   6.492   9.449  0.9319  1.4009  1.0905
  995MOL0     H31305  -1.514   6.442   9.365 -0.1276 -0.9037  0.2221
  995MOL0     H31306  -1.713   6.327   9.407  2.7401  1.9564  0.7615
  995MOL0     H31307  -1.760   6.435   9.291 -1.4513  1.3908  0.2438
  995MOL0     H31308  -1.936   6.289   9.470  1.4940  0.3001  0.5482
  995MOL0     H31309  -1.975   6.382   9.322 -0.1757  3.3441 -0.8572
  995MOL0     H31310  -2.024   6.577   9.446 -4.1127 -0.2148 -1.8863
  995MOL0     H31311  -1.964   6.496   9.601 -1.6954  1.4614 -0.5489
  995MOL0     H31312  -2.180   6.381   9.450  0.7746 -0.4792 -0.7910
  995MOL0     H31313  -2.135   6.371   9.621 -3.8927  1.3743  0.4686
  995MOL0     H31314  -2.242   6.628   9.493 -1.9204  0.3192  1.0761
  995MOL0     H31315  -2.202   6.603   9.655  0.4338  5.2506 -3.0242
  995MOL0     H31316  -2.376   6.426   9.669  3.2865 -1.0149 -0.3542
  995MOL0     H31317  -2.393   6.423   9.495 -1.0974  1.2590  0.4238
  995MOL0     H31318  -2.446   6.672   9.655  0.8425 -1.5547  1.1515
  995MOL0     H31319  -2.501   6.644   9.488  0.0673  2.4184  0.5173
  995MOL0     H31320  -2.600   6.527   9.744  3.1165 -0.5096 -0.6449
  995MOL0     H31321  -2.626   6.455   9.583  2.2282 -3.1573  2.9471
  995MOL0     H31322  -1.680   6.588   9.732 -1.0385 -2.9634 -0.2059
  995MOL0     H31323  -1.456   6.599   9.823 -2.4636 -1.4563  1.2662
  995MOL0     H31324  -0.922   6.320   9.655 -1.7449 -0.1437 -0.7861
  995MOL0     H31325  -0.706   6.351   9.755 -0.0408 -1.2897  1.4547
  995MOL0     H31326   1.235   6.511   9.690 -1.4464 -0.0990  0.6149
  995MOL0     H31327   1.422   6.378   9.591 -2.3273  0.4864 -2.7752
  995MOL0     H31328   1.596   6.060   9.231 -0.7861  0.0861  0.2475
  995MOL0     H31329   1.798   5.950   9.177 -1.6579  0.9129 -1.3377
  995MOL0     H31330   2.120   5.943   9.290 -2.5918  0.9803  1.1883
  995MOL0     H31331   2.002   5.899   9.166 -0.1219  0.7666  0.2481
  995MOL0     H31332   2.175   5.699   9.312 -1.0132 -0.5075 -0.0787
  995MOL0     H31333   2.072   5.685   9.158 -0.5914  3.6068 -3.4579
  995MOL0     H31334   2.313   5.857   9.164  3.8301 -3.3154  0.0298
  995MOL0     H31335   2.193   5.827   9.039 -0.1565  1.9929  0.8910
  995MOL0     H31336   2.392   5.638   9.168 -0.1103  1.4510  1.3360
  995MOL0     H31337   2.264   5.564   9.070  2.7190 -1.4607 -0.2184
  995MOL0     H31338   2.514   5.735   8.769 -0.7930  1.0750  0.7818
  995MOL0     H31339   1.872   5.850   9.591 -2.3008 -1.7130  0.6084
  995MOL0     H31340   1.651   5.958   9.654 -0.0569 -0.5657 -0.1415
  996MOL0     O31341   3.851   0.663   5.592  0.3515  0.5053  0.2390
  996MOL0     C31342   3.857   0.599   5.485  0.4687  0.4412  0.2495
  996MOL0     O31343   3.744   0.565   5.400  0.0742 -0.5907  0.4623
  996MOL0     C31344   3.619   0.615   5.420 -0.1304  0.1840  0.5399
  996MOL0     C31345   3.521   0.515   5.427  0.0854  0.4864 -1.1117
  996MOL0     C31346   3.392   0.566   5.437  0.2849  0.3456 -0.0310
  996MOL0     C31347   3.358   0.697   5.442 -0.1430  0.8877 -0.0534
  996MOL0     O31348   3.227   0.735   5.432 -0.2390 -1.0799 -0.2637
  996MOL0     C31349   3.133   0.632   5.402  0.4524 -0.9057  0.0509
  996MOL0     C31350   2.990   0.688   5.389  0.0704  0.0666  0.5892
  996MOL0     C31351   2.980   0.803   5.284  0.3802  0.2338  0.2643
  996MOL0     C31352   2.844   0.860   5.296  0.6464 -0.0740 -0.1213
  996MOL0     C31353   2.806   0.965   5.183  0.5539 -0.5513 -0.7819
  996MOL0     C31354   2.781   0.901   5.041 -0.8443  0.7738 -1.0443
  996MOL0     C31355   2.772   1.010   4.940 -0.6498  0.2412 -0.4479
  996MOL0     C31356   2.682   0.953   4.823  0.1544  0.3209  0.9071
  996MOL0     N31357   2.533   0.961   4.858 -0.1880 -0.8095  0.0830
  996MOL0     C31358   2.455   1.070   4.825 -0.2093  0.2122  0.4797
  996MOL0     C31359   2.332   1.043   4.866  0.5679  0.7179 -0.8803
  996MOL0     C31360   2.214   1.140   4.850 -0.1189 -1.6561 -0.1954
  996MOL0     C31361   2.073   1.095   4.850  1.0064  0.0460  0.6945
  996MOL0     C31362   2.015   1.013   4.964 -0.3507  0.6865 -0.3538
  996MOL0     C31363   2.061   1.073   5.097  0.4248  0.1987 -0.4889
  996MOL0     O31364   1.983   1.017   5.206 -0.5448 -0.0219  0.4308
  996MOL0     C31365   1.960   1.097   5.316  0.3527 -0.4239 -0.1980
  996MOL0     C31366   2.025   1.220   5.347  0.0558  0.5961 -0.2243
  996MOL0     C31367   1.985   1.293   5.461  0.0214  0.2327  0.2270
  996MOL0     C31368   1.866   1.259   5.535 -0.7628  0.6138  0.1048
  996MOL0     C31369   1.813   1.336   5.645  0.0353 -0.6088  0.1416
  996MOL0     O31370   1.698   1.284   5.702  0.2917  0.0187 -1.4360
  996MOL0     C31371   1.641   1.356   5.805  0.7584  0.4965 -0.6864
  996MOL0     C31372   1.642   1.305   5.941  0.1453  0.2353  0.3237
  996MOL0     C31373   1.581   1.387   6.034  0.6401 -0.5400 -0.5652
  996MOL0     C31374   1.505   1.503   6.000  0.5760 -0.0647  0.0119
  996MOL0     O31375   1.459   1.587   6.100  1.3131 -0.0034  0.6082
  996MOL0     C31376   1.324   1.623   6.077  0.8799  0.4424 -0.5161
  996MOL0     C31377   1.259   1.679   6.206 -1.0955  0.1574 -0.6687
  996MOL0     C31378   1.306   1.825   6.225 -0.0703 -0.2873  0.2368
  996MOL0     C31379   1.225   1.885   6.347  0.9880 -0.1249  0.7334
  996MOL0     C31380   1.264   2.031   6.370  0.3501  1.0678  0.6295
  996MOL0     C31381   1.165   2.104   6.463  0.2083 -0.3869 -0.5715
  996MOL0     C31382   1.242   2.199   6.546 -0.1456  0.1201  0.3125
  996MOL0     C31383   1.147   2.276   6.639 -0.3608 -0.0094  0.6228
  996MOL0    Cl31384   1.251   2.396   6.735  0.3154 -0.2262 -0.0990
  996MOL0     C31385   1.510   1.547   5.869  0.1458  0.0344 -1.2444
  996MOL0     C31386   1.578   1.474   5.776  0.5197 -0.3836 -0.3319
  996MOL0     O31387   1.867   1.443   5.687  0.8536  0.2565 -0.1833
  996MOL0     C31388   1.800   1.139   5.506  0.5789  0.2691  1.2370
  996MOL0     C31389   1.848   1.058   5.393  0.4198 -0.4410  0.1431
  996MOL0     N31390   2.326   0.916   4.921 -0.3549 -0.2981 -0.0366
  996MOL0     N31391   2.446   0.872   4.907 -0.1644  0.3586  0.5725
  996MOL0     C31392   3.458   0.796   5.454 -0.4112  0.2000  0.7865
  996MOL0     C31393   3.594   0.755   5.442 -0.2603  0.1513 -0.3557
  996MOL0     C31394   3.990   0.538   5.440  0.6741 -1.0320  0.2043
  996MOL0     C31395   4.000   0.452   5.328  0.3819  0.3066 -0.0741
  996MOL0     C31396   4.124   0.398   5.300  0.8937  0.1624 -0.1074
  996MOL0     C31397   4.228   0.415   5.375 -0.2346 -0.5307 -0.7247
  996MOL0     O31398   4.343   0.353   5.338 -0.0232  0.0026 -0.1061
  996MOL0     C31399   4.405   0.271   5.437 -0.1595  0.1085  0.4342
  996MOL0     C31400   4.539   0.232   5.375 -0.0995  0.4412  0.8821
  996MOL0     C31401   4.521   0.162   5.241 -0.7005 -0.2568  0.4781
  996MOL0     C31402   4.647   0.184   5.149 -0.5464  0.4398 -0.4343
  996MOL0     C31403   4.765   0.168   5.224 -0.2641 -0.5228 -0.9385
  996MOL0     C31404   4.868   0.169   5.291  1.4175 -0.1200 -0.7072
  996MOL0     C31405   4.222   0.501   5.480  0.7555  0.8021 -0.4965
  996MOL0     C31406   4.105   0.559   5.517  1.2931 -0.0629  0.1800
  996MOL0     H31407   3.553   0.415   5.399  0.4296  0.2330  0.1008
  996MOL0     H31408   3.325   0.482   5.420  1.4694 -0.3950 -1.2436
  996MOL0     H31409   3.133   0.563   5.486  2.2097  1.2182  1.9235
  996MOL0     H31410   3.161   0.570   5.317  1.2480 -3.5403  2.1069
  996MOL0     H31411   2.953   0.724   5.486  0.4298 -0.9834  1.1342
  996MOL0     H31412   2.922   0.608   5.358 -2.6849  2.8940 -1.1314
  996MOL0     H31413   2.994   0.782   5.178  0.8169  0.3173  0.3005
  996MOL0     H31414   3.055   0.881   5.302 -1.1559  1.7054  0.5133
  996MOL0     H31415   2.770   0.780   5.293  0.4753  0.0757  0.0065
  996MOL0     H31416   2.825   0.914   5.390  0.7112  1.3023 -0.8659
  996MOL0     H31417   2.879   1.045   5.170 -0.7658  1.4984  2.8790
  996MOL0     H31418   2.711   1.012   5.211  0.7093 -0.5974 -0.1550
  996MOL0     H31419   2.685   0.848   5.049 -0.2353 -0.1480  0.6357
  996MOL0     H31420   2.860   0.833   5.008 -0.2489  1.4623 -1.0663
  996MOL0     H31421   2.732   1.106   4.972 -3.3541 -1.4401  1.6713
  996MOL0     H31422   2.876   1.018   4.905 -1.3729  3.3831 -2.2540
  996MOL0     H31423   2.710   0.848   4.810  2.4489  0.4814  3.4610
  996MOL0     H31424   2.698   1.014   4.733 -0.1902  1.0941  1.3658
  996MOL0     H31425   2.497   1.164   4.790 -1.3493  0.6369  0.2155
  996MOL0     H31426   2.232   1.199   4.760  2.7667 -0.3009  1.1355
  996MOL0     H31427   2.208   1.217   4.928 -1.8532 -1.2038 -0.7400
  996MOL0     H31428   2.052   1.048   4.754  2.0219  0.2828  0.3422
  996MOL0     H31429   2.018   1.188   4.841 -0.4690 -1.0074 -2.6765
  996MOL0     H31430   1.906   1.004   4.956 -0.6777  2.1486  1.6763
  996MOL0     H31431   2.053   0.910   4.964 -2.3375 -0.0942 -0.9100
  996MOL0     H31432   2.035   1.179   5.107  1.0470  0.1791  2.3656
  996MOL0     H31433   2.169   1.066   5.108  0.3115  1.7277  3.4983
  996MOL0     H31434   2.117   1.250   5.298  2.0700 -0.8378  2.3922
  996MOL0     H31435   2.036   1.386   5.484 -3.2348  1.7273  2.1104
  996MOL0     H31436   1.688   1.212   5.972 -0.5294  1.0372  4.2688
  996MOL0     H31437   1.573   1.352   6.136  2.6427 -0.2051 -0.2663
  996MOL0     H31438   1.268   1.531   6.059  0.9477 -0.4251  3.0771
  996MOL0     H31439   1.326   1.685   5.987  1.9360 -0.8156 -1.3962
  996MOL0     H31440   1.284   1.612   6.288 -3.0633  0.4284  0.1968
  996MOL0     H31441   1.152   1.676   6.186 -1.0436 -1.8815 -0.8453
  996MOL0     H31442   1.264   1.891   6.149 -0.9027  1.9708  2.5032
  996MOL0     H31443   1.416   1.823   6.225 -0.0419 -3.4418 -0.3803
  996MOL0     H31444   1.119   1.895   6.326  0.7904  1.5172  2.2019
  996MOL0     H31445   1.235   1.824   6.438  1.1107  1.5784  1.9259
  996MOL0     H31446   1.261   2.071   6.268 -3.9302  0.4234  0.3192
  996MOL0     H31447   1.369   2.027   6.400  0.1170 -2.3385  1.4010
  996MOL0     H31448   1.104   2.043   6.530 -0.7473 -0.1708 -1.2218
  996MOL0     H31449   1.086   2.158   6.410 -0.8922 -1.1295  0.2499
  996MOL0     H31450   1.317   2.145   6.604  1.1954 -0.2191 -1.6053
  996MOL0     H31451   1.288   2.267   6.473 -1.7367  0.0413 -0.8355
  996MOL0     H31452   1.104   2.213   6.717  2.2462 -0.8130  1.5133
  996MOL0     H31453   1.065   2.318   6.580 -1.5756 -1.1328  1.4405
  996MOL0     H31454   1.457   1.636   5.836  2.2031  0.4279 -3.8105
  996MOL0     H31455   1.584   1.524   5.680  1.2256  0.8872  0.3404
  996MOL0     H31456   1.710   1.102   5.554  0.2776 -0.5815  0.0493
  996MOL0     H31457   1.790   0.968   5.374 -1.7748  1.0723 -0.8527
  996MOL0     H31458   3.442   0.903   5.467  0.2242  0.0847  2.8083
  996MOL0     H31459   3.674   0.828   5.451 -0.0603  0.0768 -1.3673
  996MOL0     H31460   3.913   0.424   5.268  0.4880 -1.5296  0.5722
  996MOL0     H31461   4.139   0.335   5.212  0.3824 -0.5772  0.3193
  996MOL0     H31462   4.341   0.187   5.466  2.1237 -1.0317  2.5509
  996MOL0     H31463   4.440   0.315   5.531 -0.1164  0.6202  0.1834
  996MOL0     H31464   4.599   0.322   5.362  0.0978  0.1910  0.0145
  996MOL0     H31465   4.583   0.162   5.447 -2.2149 -0.4931  1.3326
  996MOL0     H31466   4.434   0.198   5.186  0.4493  2.1901  0.1566
  996MOL0     H31467   4.508   0.053   5.249 -0.2854 -0.3094  0.4939
  996MOL0     H31468   4.647   0.122   5.059 -1.8359  3.0576 -2.3871
  996MOL0     H31469   4.656   0.288   5.116 -0.9845 -0.7109 -4.7655
  996MOL0     H31470   4.945   0.169   5.366 -1.0232 -1.2344  1.9857
  996MOL0     H31471   4.314   0.520   5.535  1.0180 -0.5408 -0.4510
  996MOL0     H31472   4.099   0.627   5.602 -0.3611 -1.0415  0.8959
  997MOL0     O31473   8.192   1.532   5.454  0.0162 -0.1669 -0.4880
  997MOL0     C31474   8.191   1.532   5.572 -0.5371  0.4141  0.2243
  997MOL0     O31475   8.296   1.563   5.656  0.3530  0.0738  0.3992
  997MOL0     C31476   8.404   1.610   5.588 -0.4031  0.2311 -0.3863
  997MOL0     C31477   8.516   1.519   5.581 -0.0467 -0.5122 -0.0806
  997MOL0     C31478   8.636   1.576   5.522  0.1670 -0.0654  0.5059
  997MOL0     C31479   8.638   1.707   5.468 -0.0891  0.1541 -0.1368
  997MOL0     O31480   8.740   1.752   5.401 -0.4406 -0.4811  0.2502
  997MOL0     C31481   8.866   1.681   5.401  0.9728  0.0793 -0.0284
  997MOL0     C31482   8.972   1.766   5.325 -0.9662  0.0199  0.3701
  997MOL0     C31483   9.047   1.866   5.419 -0.0585  0.3464 -0.2914
  997MOL0     C31484   9.184   1.910   5.358  0.2762  0.6469  0.0822
  997MOL0     C31485   9.278   1.786   5.364 -1.2065  1.2859  0.5144
  997MOL0     C31486   9.427   1.831   5.336  0.6823 -0.3308 -0.1098
  997MOL0     C31487   9.457   1.864   5.188 -0.6366 -0.2400  0.5905
  997MOL0     C31488   9.603   1.908   5.166 -0.1187  0.2310 -1.4508
  997MOL0     N31489   9.627   2.038   5.239 -0.4006  0.0995 -0.1732
  997MOL0     C31490   9.627   2.154   5.181  0.1796 -0.0826 -0.1294
  997MOL0     C31491   9.680   2.243   5.266 -0.3580  0.1603 -0.0138
  997MOL0     C31492   9.691   2.388   5.243 -0.5394  0.4518  0.6583
  997MOL0     C31493   9.830   2.438   5.191  0.1474 -0.1109  0.3048
  997MOL0     C31494   9.888   2.555   5.266 -0.5631  0.9635 -0.4918
  997MOL0     C31495  10.035   2.579   5.237 -0.2697 -0.3181  0.4491
  997MOL0     O31496  10.033   2.612   5.106  0.5635 -0.0933 -0.5749
  997MOL0     C31497  10.143   2.593   5.026 -0.1199  0.0222  0.0554
  997MOL0     C31498  10.234   2.695   5.019  0.1029  0.1245  1.0123
  997MOL0     C31499  10.349   2.679   4.946 -0.2423 -0.1815 -0.8107
  997MOL0     C31500  10.380   2.562   4.884 -0.4510  0.8716 -0.4647
  997MOL0     C31501  10.506   2.560   4.793  0.3356  0.6216 -0.6274
  997MOL0     O31502  10.605   2.656   4.816 -0.3992  0.1806  0.1790
  997MOL0     C31503  10.710   2.650   4.728  0.4628 -0.8948 -0.0772
  997MOL0     C31504  10.826   2.588   4.767  0.4210  0.8658  0.6391
  997MOL0     C31505  10.935   2.564   4.679  0.2387  0.4438  0.1669
  997MOL0     C31506  10.923   2.613   4.548 -0.9343  0.1906  0.0878
  997MOL0     O31507  11.026   2.578   4.458  0.3815  0.2765  0.5301
  997MOL0     C31508  11.062   2.667   4.356 -0.2123  0.5336 -0.7100
  997MOL0     C31509  11.130   2.596   4.237  0.2764 -0.2023 -0.0632
  997MOL0     C31510  11.187   2.707   4.157  0.0631  0.0182  0.3260
  997MOL0     C31511  11.284   2.650   4.060  0.6429  0.4630  0.3350
  997MOL0     C31512  11.332   2.748   3.955  0.5263  1.1805  0.0586
  997MOL0     C31513  11.443   2.687   3.868  0.1438 -0.4482 -0.4918
  997MOL0     C31514  11.462   2.786   3.755  1.0170 -0.2732  0.6513
  997MOL0     C31515  11.496   2.933   3.797  0.4846 -0.3515  0.3480
  997MOL0    Cl31516  11.540   3.025   3.648 -0.0074 -0.0344 -0.4246
  997MOL0     C31517  10.807   2.681   4.512 -1.0330 -0.1509  0.3951
  997MOL0     C31518  10.703   2.701   4.598  0.2490  0.4522 -0.6070
  997MOL0     O31519  10.523   2.458   4.730  0.1643  0.7358  0.2200
  997MOL0     C31520  10.286   2.452   4.892 -1.5061 -0.8268  1.2440
  997MOL0     C31521  10.171   2.467   4.964  0.0839  0.4481  0.0901
  997MOL0     N31522   9.702   2.180   5.382 -0.2939 -0.5167 -0.0598
  997MOL0     N31523   9.687   2.055   5.358  1.2790 -0.0726 -0.2725
  997MOL0     C31524   8.521   1.779   5.464 -0.7193  0.1013  0.0935
  997MOL0     C31525   8.411   1.739   5.530 -0.1898 -1.6183  0.8110
  997MOL0     C31526   8.074   1.468   5.628  0.8976  0.3779 -0.2827
  997MOL0     C31527   7.952   1.449   5.556  0.2745  0.6190 -0.0319
  997MOL0     C31528   7.844   1.388   5.622 -0.7020  0.0939 -0.6519
  997MOL0     C31529   7.847   1.358   5.761  0.4211 -0.0322 -0.4142
  997MOL0     O31530   7.749   1.286   5.836  0.6226  0.1368  0.1229
  997MOL0     C31531   7.626   1.249   5.769  1.1424  0.1895  0.0666
  997MOL0     C31532   7.512   1.239   5.877 -0.1575  0.6716 -0.3844
  997MOL0     C31533   7.381   1.168   5.813  0.1892 -1.0232  0.0504
  997MOL0     C31534   7.306   1.090   5.920  0.0335 -0.3489  0.5434
  997MOL0     C31535   7.371   0.972   5.942 -0.6550  1.0636 -0.3568
  997MOL0     C31536   7.439   0.872   5.974 -0.7210 -0.1182 -0.4383
  997MOL0     C31537   7.957   1.406   5.829  0.0478 -0.1316 -0.6698
  997MOL0     C31538   8.076   1.437   5.769 -0.0712  0.5094 -0.1645
  997MOL0     H31539   8.520   1.420   5.626  0.8299 -0.6271 -0.3842
  997MOL0     H31540   8.713   1.500   5.526 -1.3302 -1.7129 -0.3829
  997MOL0     H31541   8.861   1.592   5.338  0.2231  1.1174 -1.5012
  997MOL0     H31542   8.889   1.660   5.506 -1.1513  2.0492  0.9121
  997MOL0     H31543   8.924   1.817   5.242  1.3475 -2.1991 -2.5383
  997MOL0     H31544   9.037   1.689   5.283 -0.8082  1.1530 -1.5667
  997MOL0     H31545   9.069   1.809   5.509  2.4590 -0.7832 -1.5408
  997MOL0     H31546   8.969   1.940   5.443  1.2044  1.7064 -0.2650
  997MOL0     H31547   9.154   1.949   5.259  0.7007  0.8629  0.0363
  997MOL0     H31548   9.210   1.999   5.415 -2.8121  0.0458  2.7368
  997MOL0     H31549   9.267   1.709   5.287 -0.1566  0.1316  1.4632
  997MOL0     H31550   9.268   1.735   5.461 -0.1067  1.8657  0.9521
  997MOL0     H31551   9.489   1.745   5.362  0.4918 -1.0194 -1.7860
  997MOL0     H31552   9.436   1.916   5.403  0.6898  0.9442 -1.6701
  997MOL0     H31553   9.445   1.776   5.125  1.7916  1.3726 -2.4011
  997MOL0     H31554   9.390   1.940   5.146  0.2917 -0.9777 -2.5028
  997MOL0     H31555   9.623   1.913   5.059  0.4043 -1.3400 -1.4563
  997MOL0     H31556   9.665   1.827   5.206 -3.3185 -0.1863  3.6802
  997MOL0     H31557   9.579   2.169   5.085  0.6635 -0.3157 -0.4169
  997MOL0     H31558   9.672   2.444   5.335  3.0990  3.5052 -0.2269
  997MOL0     H31559   9.621   2.433   5.172  0.7691 -1.2132 -1.8133
  997MOL0     H31560   9.799   2.470   5.091 -2.7580 -3.6240 -0.1338
  997MOL0     H31561   9.897   2.353   5.178 -1.8131 -1.4883 -1.4218
  997MOL0     H31562   9.830   2.644   5.240  1.0316  2.3509  0.3855
  997MOL0     H31563   9.877   2.525   5.371 -1.1663 -3.9822 -1.7250
  997MOL0     H31564  10.090   2.484   5.240 -1.9355 -1.5197 -2.7498
  997MOL0     H31565  10.076   2.650   5.310  0.2429 -2.3393  2.2339
  997MOL0     H31566  10.229   2.783   5.082  0.8842  1.3976 -0.6209
  997MOL0     H31567  10.422   2.758   4.934 -0.3986  0.0386 -0.3354
  997MOL0     H31568  10.829   2.545   4.866  0.3906 -0.1855  0.1948
  997MOL0     H31569  11.016   2.495   4.699 -0.3912 -0.2388  0.4103
  997MOL0     H31570  11.125   2.744   4.402  2.1803 -2.0322  0.5958
  997MOL0     H31571  10.971   2.714   4.315 -2.1435  0.2837  2.8572
  997MOL0     H31572  11.068   2.535   4.171 -0.4712 -0.2306  0.6488
  997MOL0     H31573  11.211   2.533   4.274 -0.2971  0.1796  1.9455
  997MOL0     H31574  11.240   2.767   4.232 -1.1582 -1.0194  2.0990
  997MOL0     H31575  11.110   2.760   4.101  0.6917 -0.4945 -1.0588
  997MOL0     H31576  11.372   2.614   4.114 -0.0302  0.4521  1.4758
  997MOL0     H31577  11.243   2.565   4.006  3.6497 -0.8633 -0.0568
  997MOL0     H31578  11.373   2.832   4.013  1.5268  0.6188  0.1929
  997MOL0     H31579  11.251   2.785   3.892  1.2796  0.4203 -1.4107
  997MOL0     H31580  11.421   2.586   3.831  2.2369 -1.7797  1.5704
  997MOL0     H31581  11.535   2.681   3.926 -0.8574  2.1764  1.5707
  997MOL0     H31582  11.553   2.765   3.698  0.4040 -1.3962  0.0492
  997MOL0     H31583  11.374   2.773   3.691 -0.5542  0.0141  2.6633
  997MOL0     H31584  11.592   2.926   3.848  1.3724  0.5455 -1.1497
  997MOL0     H31585  11.414   2.979   3.854 -0.7351  1.1158 -2.3587
  997MOL0     H31586  10.800   2.723   4.411 -0.4297  0.0954  0.4496
  997MOL0     H31587  10.616   2.743   4.549 -0.5949  0.3194  0.7099
  997MOL0     H31588  10.307   2.359   4.840  0.8120  2.5728 -5.0697
  997MOL0     H31589  10.091   2.394   4.977  1.3088 -0.5095  3.0329
  997MOL0     H31590   8.524   1.873   5.409  0.6411 -0.5781 -1.0385
  997MOL0     H31591   8.313   1.785   5.534 -0.4829 -1.9692 -1.0845
  997MOL0     H31592   7.937   1.480   5.454 -0.8540  0.0153 -0.0685
  997MOL0     H31593   7.759   1.361   5.560 -1.0388  0.0706 -0.1836
  997MOL0     H31594   7.628   1.157   5.711  1.1864  0.7681 -0.8682
  997MOL0     H31595   7.604   1.334   5.704 -4.9997  0.9089  2.3846
  997MOL0     H31596   7.560   1.166   5.943  2.5648  2.7009  0.0288
  997MOL0     H31597   7.479   1.330   5.927  1.8849  0.1778  2.0707
  997MOL0     H31598   7.401   1.110   5.722  0.4041 -0.7043 -0.1078
  997MOL0     H31599   7.305   1.242   5.788 -0.8169 -2.2825 -0.7643
  997MOL0     H31600   7.304   1.157   6.007  1.3759  1.6556 -0.8601
  997MOL0     H31601   7.207   1.075   5.876 -0.4769  1.0138  1.1730
  997MOL0     H31602   7.490   0.780   5.991 -0.2056  0.2848  0.2455
  997MOL0     H31603   7.956   1.377   5.933 -1.7504 -2.6533 -1.2947
  997MOL0     H31604   8.169   1.448   5.824 -0.3376  0.5298  0.2864
  998MOL0     O31605   3.420   8.039   6.983 -0.1553  0.4227  0.1357
  998MOL0     C31606   3.482   7.967   6.908 -0.5239  0.6943  0.1316
  998MOL0     O31607   3.439   7.907   6.802  0.6457  0.0673  0.3736
  998MOL0     C31608   3.309   7.892   6.764 -0.1484 -0.1578  0.0557
  998MOL0     C31609   3.197   7.970   6.813 -0.2511  0.1240 -0.8014
  998MOL0     C31610   3.066   7.947   6.757  0.5924 -0.0310 -0.1650
  998MOL0     C31611   3.043   7.849   6.665  0.4049 -0.6621 -0.1968
  998MOL0     O31612   2.916   7.828   6.616 -0.9039  0.6802 -0.0665
  998MOL0     C31613   2.890   7.805   6.475  0.1060  0.2522  0.0162
  998MOL0     C31614   2.740   7.785   6.461 -0.0854  0.1511  0.1097
  998MOL0     C31615   2.689   7.755   6.313 -0.3815  0.1704 -0.0018
  998MOL0     C31616   2.540   7.724   6.308  0.3384  0.0433  0.7536
  998MOL0     C31617   2.474   7.843   6.246  0.2231 -0.4251 -0.6300
  998MOL0     C31618   2.321   7.821   6.212  0.1923 -0.4276 -0.5146
  998MOL0     C31619   2.262   7.946   6.163  0.7275  0.3267  0.1082
  998MOL0     C31620   2.237   8.070   6.266  0.2288  0.3309  0.0938
  998MOL0     N31621   2.148   8.022   6.365 -0.4412  0.2482 -0.1714
  998MOL0     C31622   2.032   7.952   6.348  0.4912 -0.3112 -0.5212
  998MOL0     C31623   1.978   7.936   6.477 -0.3637  0.5032  0.0293
  998MOL0     C31624   1.860   7.860   6.517 -0.9659  0.1948 -0.0240
  998MOL0     C31625   1.734   7.870   6.417 -0.4904 -0.0202  0.7119
  998MOL0     C31626   1.668   8.004   6.415 -0.1644  1.0382  0.8538
  998MOL0     C31627   1.512   7.992   6.399 -1.2209  0.1355 -0.0970
  998MOL0     O31628   1.448   8.112   6.433 -0.5201 -0.8870  0.3843
  998MOL0     C31629   1.319   8.130   6.387 -0.9630 -0.5934  0.7660
  998MOL0     C31630   1.231   8.034   6.395 -0.0358  0.2819 -0.3703
  998MOL0     C31631   1.100   8.056   6.354 -0.1003  0.1050  0.0261
  998MOL0     C31632   1.064   8.174   6.279 -0.3386 -0.1828  1.3437
  998MOL0     C31633   0.941   8.199   6.220  0.6322 -0.7007  0.3917
  998MOL0     O31634   0.850   8.102   6.253 -0.1109 -0.1513  0.2148
  998MOL0     C31635   0.722   8.106   6.197 -0.3439 -0.3108 -0.5897
  998MOL0     C31636   0.678   8.025   6.091 -1.1295 -0.3938  0.4666
  998MOL0     C31637   0.541   8.016   6.048  0.7265 -1.0669 -0.1322
  998MOL0     C31638   0.444   8.089   6.132 -1.0869  1.0198  0.0492
  998MOL0     O31639   0.313   8.068   6.102 -0.9581 -0.1050  0.4081
  998MOL0     C31640   0.219   8.177   6.120 -0.0365  0.0843  0.1481
  998MOL0     C31641   0.126   8.185   6.001 -0.3987  0.0666 -1.0904
  998MOL0     C31642   0.014   8.076   5.991 -0.3177 -0.0351 -0.5700
  998MOL0     C31643  -0.063   8.113   5.863 -0.3135  0.4479 -0.6451
  998MOL0     C31644  -0.172   8.004   5.839 -0.3868 -0.9293 -0.0308
  998MOL0     C31645  -0.255   8.022   5.719 -0.1562  0.6122 -0.0941
  998MOL0     C31646  -0.352   7.904   5.697  0.5127 -0.7740 -0.3090
  998MOL0     C31647  -0.492   7.920   5.761  0.4379 -0.2210  0.8771
  998MOL0    Cl31648  -0.611   7.797   5.686  0.0100 -0.0045  0.0306
  998MOL0     C31649   0.487   8.149   6.248  0.2492  0.5866 -0.5676
  998MOL0     C31650   0.619   8.167   6.279  0.1278  1.4551 -1.2335
  998MOL0     O31651   0.914   8.303   6.156 -0.4290 -0.0912 -0.2150
  998MOL0     C31652   1.163   8.274   6.265 -0.3917  0.1170  0.2250
  998MOL0     C31653   1.290   8.250   6.324 -0.1601 -0.2670  0.1707
  998MOL0     N31654   2.057   8.015   6.562  0.1669 -0.0892 -0.2388
  998MOL0     N31655   2.160   8.059   6.498 -0.2506  0.6706  0.5370
  998MOL0     C31656   3.146   7.765   6.632 -0.5981  0.9677  0.4486
  998MOL0     C31657   3.280   7.790   6.668 -0.1233  0.4841  0.3691
  998MOL0     C31658   3.622   7.958   6.944  0.0644 -0.3973 -0.5332
  998MOL0     C31659   3.721   7.936   6.847  0.2487 -0.0699  0.0351
  998MOL0     C31660   3.852   7.944   6.881 -0.6602  0.4101 -0.5090
  998MOL0     C31661   3.896   7.985   7.012 -0.1488 -0.2321 -0.9602
  998MOL0     O31662   4.027   8.004   7.048  0.4621 -0.7672  0.2931
  998MOL0     C31663   4.101   8.075   6.947  0.3249  0.7106 -0.2030
  998MOL0     C31664   4.233   8.127   6.997 -0.7063  0.2961 -0.2473
  998MOL0     C31665   4.348   8.020   7.005  0.1900 -0.0468 -0.7654
  998MOL0     C31666   4.461   8.064   7.087 -1.0469 -0.4914  0.2978
  998MOL0     C31667   4.565   7.965   7.066 -0.0114  0.7805 -0.4912
  998MOL0     C31668   4.648   7.876   7.043 -0.2608 -0.4126  0.0746
  998MOL0     C31669   3.797   8.006   7.103 -0.4619  1.0591 -0.2934
  998MOL0     C31670   3.658   7.988   7.077 -0.4748 -0.2450 -0.0619
  998MOL0     H31671   3.209   8.050   6.885  0.7918 -2.9299  2.6846
  998MOL0     H31672   2.971   7.993   6.785  0.1962  1.2482 -3.2441
  998MOL0     H31673   2.939   7.712   6.444 -1.7739 -0.4533 -1.0158
  998MOL0     H31674   2.915   7.893   6.414  0.1253  1.4853  1.7320
  998MOL0     H31675   2.698   7.874   6.509 -1.1292 -1.5444  2.5908
  998MOL0     H31676   2.721   7.694   6.520  3.1616 -0.5790  0.2675
  998MOL0     H31677   2.746   7.671   6.272 -2.7374 -0.7406 -1.6518
  998MOL0     H31678   2.711   7.847   6.259  0.5428  0.5833  1.0622
  998MOL0     H31679   2.516   7.631   6.257  0.1370  0.2943  0.3867
  998MOL0     H31680   2.501   7.715   6.410  0.1866  1.1495  0.8151
  998MOL0     H31681   2.516   7.876   6.150 -0.9057 -2.0348 -1.7256
  998MOL0     H31682   2.485   7.929   6.313  0.4975 -0.6710 -0.3539
  998MOL0     H31683   2.272   7.797   6.307 -0.4712  0.9750 -0.4624
  998MOL0     H31684   2.310   7.751   6.129 -1.3827  2.0652 -2.5547
  998MOL0     H31685   2.329   8.000   6.096  0.9276  3.2721  2.4896
  998MOL0     H31686   2.169   7.927   6.108  0.6711  1.7016 -0.3019
  998MOL0     H31687   2.192   8.155   6.213 -1.4883 -1.3755 -1.3532
  998MOL0     H31688   2.334   8.107   6.301  2.0608 -0.5738 -3.5276
  998MOL0     H31689   1.991   7.915   6.254 -0.2571  0.2738 -0.4290
  998MOL0     H31690   1.833   7.894   6.618 -0.2092 -2.5702  1.2139
  998MOL0     H31691   1.883   7.752   6.519  0.5945  0.4299 -1.8823
  998MOL0     H31692   1.663   7.788   6.429 -1.7068  0.9961  0.7136
  998MOL0     H31693   1.769   7.844   6.317  1.0128 -2.6350  1.8059
  998MOL0     H31694   1.693   8.052   6.510  2.5131 -3.1054  2.5471
  998MOL0     H31695   1.703   8.056   6.325 -0.0938 -1.1721 -0.4757
  998MOL0     H31696   1.474   7.904   6.451  2.8511 -2.1848 -0.6198
  998MOL0     H31697   1.493   7.976   6.292  1.1470 -1.0410 -0.4177
  998MOL0     H31698   1.251   7.942   6.449 -3.0404 -0.3191 -0.1130
  998MOL0     H31699   1.020   7.984   6.367 -0.6182  0.1283 -2.6050
  998MOL0     H31700   0.757   7.984   6.029 -1.7739 -1.2327  0.1868
  998MOL0     H31701   0.500   7.978   5.956  0.1290  1.0652 -0.8068
  998MOL0     H31702   0.276   8.268   6.141  1.8732 -1.0294  0.0070
  998MOL0     H31703   0.156   8.172   6.210 -0.3714  0.0633 -0.0830
  998MOL0     H31704   0.192   8.180   5.914 -0.7147  2.2353 -1.5053
  998MOL0     H31705   0.074   8.280   6.009 -0.3555  0.0851 -1.0165
  998MOL0     H31706  -0.055   8.072   6.076 -0.1421 -0.4081 -0.4428
  998MOL0     H31707   0.066   7.980   5.988 -0.9889 -0.3970 -1.3551
  998MOL0     H31708  -0.105   8.214   5.870  2.9063  1.8714  0.0744
  998MOL0     H31709  -0.003   8.119   5.771 -2.0057 -0.5986 -1.8650
  998MOL0     H31710  -0.238   8.007   5.926 -2.6350 -1.4797 -1.6479
  998MOL0     H31711  -0.126   7.905   5.845  0.7481 -0.5011 -1.0513
  998MOL0     H31712  -0.187   8.005   5.635 -1.1538 -0.3055 -0.7441
  998MOL0     H31713  -0.314   8.115   5.717 -1.1714  0.1460  3.0260
  998MOL0     H31714  -0.370   7.898   5.589 -3.2333  2.3745 -0.0745
  998MOL0     H31715  -0.303   7.808   5.717  0.4440 -1.1706 -1.8912
  998MOL0     H31716  -0.531   8.018   5.734 -0.2456  0.0983  2.8397
  998MOL0     H31717  -0.499   7.901   5.869 -3.7678 -0.2462  0.7596
  998MOL0     H31718   0.415   8.194   6.315  1.7548  3.9392 -0.9720
  998MOL0     H31719   0.639   8.230   6.365 -2.0182 -0.5742  0.8560
  998MOL0     H31720   1.153   8.368   6.211  1.7253 -1.0005 -2.3039
  998MOL0     H31721   1.364   8.330   6.321  1.9914 -2.0902  1.7118
  998MOL0     H31722   3.124   7.678   6.571  1.6345  0.1329  0.7271
  998MOL0     H31723   3.351   7.723   6.622 -1.4331  0.3121 -1.4722
  998MOL0     H31724   3.688   7.908   6.748 -4.1346  1.8973  0.6743
  998MOL0     H31725   3.928   7.928   6.805  1.6675  0.9520  1.5917
  998MOL0     H31726   4.047   8.166   6.917 -3.0902 -0.4544  1.8753
  998MOL0     H31727   4.112   8.017   6.855  1.0984  0.8105 -0.1825
  998MOL0     H31728   4.268   8.206   6.930  3.2461  1.8224  3.1872
  998MOL0     H31729   4.222   8.180   7.093 -0.0154 -2.6489  1.5875
  998MOL0     H31730   4.377   7.985   6.906  0.9463 -0.3147 -0.4532
  998MOL0     H31731   4.317   7.927   7.054  1.3919 -0.7361 -1.2692
  998MOL0     H31732   4.496   8.160   7.046  0.6280 -0.8365  0.8269
  998MOL0     H31733   4.429   8.061   7.191  3.4551  0.4794  1.9564
  998MOL0     H31734   4.726   7.807   7.018 -0.1846 -0.1482 -0.4137
  998MOL0     H31735   3.837   8.026   7.202 -2.4628  3.5414  0.1208
  998MOL0     H31736   3.579   8.009   7.147 -0.6460  1.1840 -0.6530
  999MOL0     O31737  10.827   1.591  10.302  0.2802  0.7583  0.8473
  999MOL0     C31738  10.793   1.522  10.211  0.0234 -0.1092 -0.1872
  999MOL0     O31739  10.670   1.513  10.155  0.6047  0.7540 -0.2631
  999MOL0     C31740  10.571   1.585  10.210 -0.6277  0.6581  0.5780
  999MOL0     C31741  10.575   1.725  10.202 -0.1568  0.4527 -0.4249
  999MOL0     C31742  10.468   1.799  10.256  0.1276 -0.8439  0.2816
  999MOL0     C31743  10.351   1.740  10.293 -0.3386 -0.5708  0.2428
  999MOL0     O31744  10.264   1.836  10.349 -0.2113 -0.5615  0.5109
  999MOL0     C31745  10.153   1.783  10.423 -0.6251 -1.6663 -0.2997
  999MOL0     C31746  10.028   1.794  10.347  0.0404  1.0530 -0.0502
  999MOL0     C31747   9.894   1.799  10.414 -0.1720  0.4981 -0.7372
  999MOL0     C31748   9.782   1.817  10.310 -0.1159  0.3990 -0.3429
  999MOL0     C31749   9.649   1.825  10.385 -0.2038 -0.6103  0.0899
  999MOL0     C31750   9.534   1.867  10.294  0.6402  0.0222 -0.3554
  999MOL0     C31751   9.405   1.833  10.355 -0.0128  0.2484  0.6898
  999MOL0     C31752   9.284   1.902  10.282  0.5970  0.3125 -0.5774
  999MOL0     N31753   9.158   1.836  10.295  0.4847 -0.5127 -0.2706
  999MOL0     C31754   9.128   1.711  10.247  0.1324  0.0234 -0.3909
  999MOL0     C31755   8.997   1.692  10.241 -0.0981 -0.2846  0.1635
  999MOL0     C31756   8.925   1.573  10.184  0.8576 -0.2294 -0.4560
  999MOL0     C31757   8.948   1.546  10.040 -0.9436  0.2166  0.5326
  999MOL0     C31758   9.065   1.437  10.025  0.1074  0.1298 -0.0653
  999MOL0     C31759   9.173   1.474   9.922 -0.1626 -1.1293  0.0866
  999MOL0     O31760   9.282   1.536   9.995  0.2971 -0.0580  0.3599
  999MOL0     C31761   9.409   1.544   9.949  0.1335  0.5656  0.3497
  999MOL0     C31762   9.514   1.568  10.035 -0.5057 -0.2790 -0.2437
  999MOL0     C31763   9.635   1.611   9.977 -0.6999  0.5079  0.3325
  999MOL0     C31764   9.651   1.619   9.835  0.1017 -0.3590 -0.5282
  999MOL0     C31765   9.780   1.650   9.782 -0.0507  0.4873 -0.5107
  999MOL0     O31766   9.888   1.603   9.862  0.9216 -0.2955 -2.1578
  999MOL0     C31767  10.021   1.583   9.836 -0.2424  0.2813 -0.7340
  999MOL0     C31768  10.127   1.597   9.929 -0.0678 -0.3616 -0.0689
  999MOL0     C31769  10.265   1.577   9.896 -0.0044  0.2171 -0.2095
  999MOL0     C31770  10.299   1.533   9.763  1.2698  0.0354  0.4767
  999MOL0     O31771  10.431   1.528   9.708  0.8666 -0.3352 -0.9930
  999MOL0     C31772  10.541   1.539   9.802  0.9182 -0.7347  0.2375
  999MOL0     C31773  10.682   1.557   9.749 -0.6052 -0.2795  0.3944
  999MOL0     C31774  10.775   1.656   9.832  0.4260  0.1306 -0.2269
  999MOL0     C31775  10.919   1.638   9.792  1.1572 -0.3478 -0.2099
  999MOL0     C31776  10.987   1.723   9.896  0.0214  0.0933 -0.4616
  999MOL0     C31777  11.133   1.690   9.902 -1.2443 -0.1709  0.5782
  999MOL0     C31778  11.201   1.760  10.024 -0.5599  0.4195  1.1476
  999MOL0     C31779  11.346   1.784   9.996  0.0359 -0.0965 -0.9444
  999MOL0    Cl31780  11.439   1.636  10.001  0.0058 -0.0383  0.1117
  999MOL0     C31781  10.191   1.513   9.673 -0.4233 -0.7694 -0.2482
  999MOL0     C31782  10.055   1.551   9.708  0.0908  0.5179  0.4555
  999MOL0     O31783   9.790   1.694   9.669  0.0778  0.3955  0.3317
  999MOL0     C31784   9.540   1.609   9.759  0.5411  0.7382 -1.0600
  999MOL0     C31785   9.422   1.564   9.816  0.3919 -0.2918  0.3396
  999MOL0     N31786   8.945   1.811  10.281  0.3365  0.6166 -0.2212
  999MOL0     N31787   9.036   1.891  10.314 -0.0913  0.5568  0.1994
  999MOL0     C31788  10.341   1.600  10.292  0.8029  0.9712  0.7390
  999MOL0     C31789  10.454   1.527  10.251  0.7857 -0.0383  0.1879
  999MOL0     C31790  10.886   1.433  10.144 -0.3877  0.5197  1.1141
  999MOL0     C31791  11.029   1.448  10.166  0.6236  0.1732  0.5148
  999MOL0     C31792  11.119   1.389  10.079  0.3412  0.7625 -0.0346
  999MOL0     C31793  11.070   1.308   9.971 -0.4504 -0.3546 -1.5031
  999MOL0     O31794  11.151   1.238   9.888  0.4721 -0.1001  0.0483
  999MOL0     C31795  11.295   1.269   9.869  0.1477 -0.3803  0.3050
  999MOL0     C31796  11.383   1.198   9.958 -0.7699 -0.8092  0.5957
  999MOL0     C31797  11.538   1.210   9.921  0.4593 -0.7464  0.2433
  999MOL0     C31798  11.614   1.132  10.030  0.1070 -0.3527  0.1762
  999MOL0     C31799  11.739   1.098   9.966 -0.3236 -0.8720 -0.5752
  999MOL0     C31800  11.849   1.047   9.940 -0.2801 -1.1663 -1.3606
  999MOL0     C31801  10.933   1.289   9.964 -0.4730 -0.2876  0.4466
  999MOL0     C31802  10.842   1.350  10.041 -0.8885 -0.9669 -0.5804
  999MOL0     H31803  10.663   1.768  10.156  0.0191  1.8785  1.1571
  999MOL0     H31804  10.487   1.906  10.254  0.5381 -0.8770  1.6460
  999MOL0     H31805  10.150   1.858  10.503  1.2060 -0.4622 -1.3007
  999MOL0     H31806  10.165   1.687  10.475 -1.7961  0.1622  3.8092
  999MOL0     H31807  10.035   1.702  10.289  1.1861  0.2146  1.3251
  999MOL0     H31808  10.045   1.871  10.271 -0.9759 -0.2223 -1.6463
  999MOL0     H31809   9.898   1.881  10.487  2.3618  0.8499 -1.1959
  999MOL0     H31810   9.884   1.704  10.468  2.2510  0.8384  0.4547
  999MOL0     H31811   9.789   1.909  10.251  1.3528  1.6960  1.6949
  999MOL0     H31812   9.787   1.740  10.233  0.9567  0.8130 -0.7127
  999MOL0     H31813   9.649   1.897  10.468 -2.6391 -0.1262 -0.2706
  999MOL0     H31814   9.623   1.727  10.425 -1.9596  0.0481  0.6400
  999MOL0     H31815   9.539   1.807  10.202  0.4636 -2.1442  0.9885
  999MOL0     H31816   9.533   1.974  10.270 -1.7448  0.1353  0.0551
  999MOL0     H31817   9.392   1.724  10.354 -0.7758  0.3324  0.4148
  999MOL0     H31818   9.398   1.852  10.462  0.6453  0.2327  0.7417
  999MOL0     H31819   9.308   1.895  10.176  1.4924  3.1124 -0.6252
  999MOL0     H31820   9.278   2.005  10.318 -2.4569  1.1483 -2.9921
  999MOL0     H31821   9.193   1.633  10.208 -1.4934 -1.9423  0.6213
  999MOL0     H31822   8.817   1.588  10.177  0.5116 -1.3458  1.6503
  999MOL0     H31823   8.933   1.477  10.235 -2.1657 -0.0107  0.6355
  999MOL0     H31824   8.985   1.639   9.994  0.6018 -0.2964  0.6653
  999MOL0     H31825   8.864   1.507   9.982  0.5030  0.0184 -1.5271
  999MOL0     H31826   9.110   1.422  10.123 -0.9224  1.0935  0.5889
  999MOL0     H31827   9.016   1.342  10.004  1.0789 -0.2493 -0.6866
  999MOL0     H31828   9.131   1.550   9.855  1.0214 -1.6572 -1.2968
  999MOL0     H31829   9.201   1.386   9.864  0.9937 -0.3241 -0.6196
  999MOL0     H31830   9.495   1.565  10.141  1.8079 -2.0609  0.1928
  999MOL0     H31831   9.720   1.639  10.037  3.1900  1.0076 -4.7952
  999MOL0     H31832  10.110   1.624  10.033 -1.6190 -3.3866  0.5850
  999MOL0     H31833  10.332   1.601   9.977 -0.7400  2.5249 -0.2203
  999MOL0     H31834  10.541   1.461   9.878  1.0107 -0.8896  0.0808
  999MOL0     H31835  10.515   1.630   9.856 -3.2009 -0.9670 -1.0082
  999MOL0     H31836  10.683   1.601   9.649 -0.6764 -0.8031  0.1596
  999MOL0     H31837  10.740   1.465   9.738  0.4437  0.3486  0.4787
  999MOL0     H31838  10.755   1.625   9.935  2.1164  1.5595  0.5847
  999MOL0     H31839  10.731   1.756   9.827  0.5398  0.2308  0.6902
  999MOL0     H31840  10.942   1.532   9.805 -0.7438 -0.6253  1.4545
  999MOL0     H31841  10.937   1.677   9.692 -0.3226  1.7245  0.2530
  999MOL0     H31842  10.945   1.713   9.997 -0.3003 -2.7912 -0.7971
  999MOL0     H31843  10.979   1.829   9.870 -0.7261  0.3820  0.8437
  999MOL0     H31844  11.186   1.715   9.809 -0.2057 -0.7677  0.9882
  999MOL0     H31845  11.145   1.582   9.909 -0.2455  0.0301  4.6867
  999MOL0     H31846  11.156   1.856  10.048  0.9921  1.6353 -0.5838
  999MOL0     H31847  11.186   1.703  10.117  0.2988 -0.4172  0.7971
  999MOL0     H31848  11.380   1.855  10.072 -2.0228  2.0531 -1.8955
  999MOL0     H31849  11.358   1.842   9.904  2.6338 -0.6425 -1.0340
  999MOL0     H31850  10.214   1.492   9.569  0.3556 -0.6111 -0.1119
  999MOL0     H31851   9.988   1.553   9.622  0.6321  2.6634  0.0207
  999MOL0     H31852   9.548   1.637   9.654  2.3272  0.8672 -0.9285
  999MOL0     H31853   9.332   1.556   9.755  1.7617 -1.6489 -1.6388
  999MOL0     H31854  10.249   1.555  10.327  0.3671  1.0897 -0.2235
  999MOL0     H31855  10.453   1.420  10.237  0.6225  0.2746 -2.7405
  999MOL0     H31856  11.067   1.514  10.243  0.9270 -0.3283  0.7979
  999MOL0     H31857  11.226   1.394  10.095  0.9437 -1.8345 -2.4937
  999MOL0     H31858  11.315   1.376   9.865 -2.0541  0.0516 -2.2420
  999MOL0     H31859  11.319   1.233   9.769  1.0148 -0.8839  0.6815
  999MOL0     H31860  11.362   1.238  10.058  0.4992  2.0455 -0.1921
  999MOL0     H31861  11.347   1.095   9.959 -1.3220 -0.6145  0.8317
  999MOL0     H31862  11.548   1.319   9.926 -3.1536 -0.3001  3.4412
  999MOL0     H31863  11.548   1.171   9.820 -1.7251  0.2997 -0.4546
  999MOL0     H31864  11.640   1.186  10.121  0.4123  0.1764 -0.2210
  999MOL0     H31865  11.561   1.044  10.067 -0.4272  0.8474  2.3847
  999MOL0     H31866  11.951   1.014   9.929  0.0020 -2.5854  3.3335
  999MOL0     H31867  10.906   1.215   9.889 -0.3000 -0.2594  0.3556
  999MOL0     H31868  10.739   1.345  10.006 -1.2104 -0.7313  0.3223
 1000MOL0     O31869   3.633   5.246   3.309 -0.2121 -0.3779  1.0176
 1000MOL0     C31870   3.677   5.147   3.252  0.5681 -1.0046  0.7332
 1000MOL0     O31871   3.628   5.029   3.260 -0.2308 -0.9129 -0.6769
 1000MOL0     C31872   3.530   5.008   3.354 -1.0295 -0.3524 -0.2548
 1000MOL0     C31873   3.566   5.015   3.489  0.0277  1.0130  0.2944
 1000MOL0     C31874   3.474   4.989   3.592  0.1615 -0.1680 -0.6787
 1000MOL0     C31875   3.338   4.973   3.563  0.1027  0.2678 -0.3526
 1000MOL0     O31876   3.251   4.944   3.667  1.1777  0.2095  0.1895
 1000MOL0     C31877   3.117   4.927   3.627 -0.1419  0.4112  0.7261
 1000MOL0     C31878   3.034   4.887   3.749 -0.3610 -0.3186  0.4049
 1000MOL0     C31879   3.051   4.747   3.786 -0.6975 -0.6076 -0.5868
 1000MOL0     C31880   2.960   4.705   3.902 -0.6550  0.0731  0.1820
 1000MOL0     C31881   2.999   4.568   3.947  0.3663  0.0059 -0.2598
 1000MOL0     C31882   2.941   4.520   4.083  0.3321 -0.2152 -0.2052
 1000MOL0     C31883   3.010   4.393   4.131  0.5640  0.0601  0.0179
 1000MOL0     C31884   2.946   4.269   4.068 -0.8356 -0.0258 -0.2640
 1000MOL0     N31885   2.804   4.244   4.105 -0.2607 -0.3817  0.6221
 1000MOL0     C31886   2.766   4.159   4.196  0.0674 -0.8994 -0.6229
 1000MOL0     C31887   2.630   4.166   4.199 -0.6652 -0.8563  0.0665
 1000MOL0     C31888   2.546   4.091   4.294 -0.8326 -0.5846 -0.2074
 1000MOL0     C31889   2.404   4.118   4.300  0.6447 -0.1158 -0.0264
 1000MOL0     C31890   2.342   4.062   4.425  1.4454 -0.0183 -0.5345
 1000MOL0     C31891   2.184   4.098   4.443  1.2195 -0.1864  0.1381
 1000MOL0     O31892   2.099   4.020   4.345 -0.6415 -0.6113  0.0340
 1000MOL0     C31893   1.969   4.006   4.385  0.9385  0.3500 -0.8506
 1000MOL0     C31894   1.908   3.878   4.407  0.0692 -0.1251 -0.1481
 1000MOL0     C31895   1.774   3.858   4.451 -0.2457 -0.9203  0.2367
 1000MOL0     C31896   1.692   3.973   4.449  0.6146 -0.3567  0.8312
 1000MOL0     C31897   1.538   3.953   4.478 -0.4686 -0.2625  0.2320
 1000MOL0     O31898   1.466   4.063   4.517  0.3153 -0.7480  0.0750
 1000MOL0     C31899   1.342   4.041   4.582 -0.1965 -0.5495  0.1214
 1000MOL0     C31900   1.235   4.094   4.510 -0.5482 -0.7807  0.4269
 1000MOL0     C31901   1.104   4.098   4.548 -0.2808 -0.4206  0.0217
 1000MOL0     C31902   1.066   4.041   4.669 -0.5219  0.2016  0.8616
 1000MOL0     O31903   0.936   4.035   4.718  0.4763 -0.2292 -0.2810
 1000MOL0     C31904   0.826   4.099   4.654 -0.4445 -0.5627  0.4249
 1000MOL0     C31905   0.705   4.059   4.738  0.4563  0.0030  0.6931
 1000MOL0     C31906   0.577   4.120   4.691  0.2893 -0.3787 -0.8512
 1000MOL0     C31907   0.570   4.265   4.717  0.1111  0.3228  0.5865
 1000MOL0     C31908   0.426   4.325   4.714 -0.0020  0.0249  0.2059
 1000MOL0     C31909   0.329   4.263   4.808  0.2721 -0.0420 -0.5455
 1000MOL0     C31910   0.219   4.364   4.832  0.6176 -0.1987  0.0557
 1000MOL0     C31911   0.138   4.313   4.954  0.2360 -0.0595  0.1300
 1000MOL0    Cl31912   0.047   4.460   5.010  0.2112 -0.2295 -0.2086
 1000MOL0     C31913   1.174   3.962   4.730  0.5092 -0.2120  0.1210
 1000MOL0     C31914   1.312   3.968   4.694 -0.3029 -1.1051  0.7176
 1000MOL0     O31915   1.503   3.836   4.479  0.4138  0.3324 -0.6244
 1000MOL0     C31916   1.747   4.092   4.433  0.4976  0.2699 -0.4002
 1000MOL0     C31917   1.885   4.110   4.402 -0.3076 -0.9288  0.5659
 1000MOL0     N31918   2.591   4.247   4.093  1.1647 -0.0710 -0.5121
 1000MOL0     N31919   2.699   4.287   4.032  0.2611  0.3303  0.6670
 1000MOL0     C31920   3.298   4.975   3.425  0.2890 -0.0691 -0.2749
 1000MOL0     C31921   3.395   4.986   3.327 -0.6449 -0.0901  0.4020
 1000MOL0     C31922   3.767   5.173   3.138  0.5016  0.7486 -1.1210
 1000MOL0     C31923   3.805   5.065   3.060 -0.1918  0.2819  0.3980
 1000MOL0     C31924   3.890   5.102   2.954  0.8095  0.2457 -0.1136
 1000MOL0     C31925   3.943   5.228   2.938 -0.2558  0.3523  0.1838
 1000MOL0     O31926   4.036   5.234   2.839 -0.6414  0.4314 -0.7465
 1000MOL0     C31927   4.062   5.367   2.787  0.2119  0.0798  0.1727
 1000MOL0     C31928   4.118   5.359   2.646  0.4525 -0.1421 -0.0993
 1000MOL0     C31929   4.218   5.259   2.622 -0.8664 -0.2801 -0.4155
 1000MOL0     C31930   4.348   5.295   2.713  1.3044  1.1785  0.4803
 1000MOL0     C31931   4.422   5.413   2.681 -0.5567 -0.1656  0.9087
 1000MOL0     C31932   4.484   5.521   2.654 -0.7608  0.0835 -0.7672
 1000MOL0     C31933   3.901   5.332   3.018  0.0126 -0.0381 -0.4385
 1000MOL0     C31934   3.818   5.299   3.122 -0.0720 -0.0582  0.1825
 1000MOL0     H31935   3.673   5.018   3.512  0.5358  0.5026 -1.8096
 1000MOL0     H31936   3.498   4.980   3.697 -1.3121 -1.2916 -0.4110
 1000MOL0     H31937   3.084   4.858   3.548 -1.4396  1.3213  0.4386
 1000MOL0     H31938   3.080   5.028   3.610 -1.9981  0.1657  2.8267
 1000MOL0     H31939   2.925   4.897   3.739 -0.6281 -0.3372  2.6964
 1000MOL0     H31940   3.067   4.951   3.832  1.6663  0.5152 -0.9830
 1000MOL0     H31941   3.155   4.737   3.818 -0.2536  0.0535 -1.7709
 1000MOL0     H31942   3.038   4.681   3.700  1.7718  0.9327 -2.2688
 1000MOL0     H31943   2.960   4.770   3.990  0.9633 -0.1829  0.3952
 1000MOL0     H31944   2.855   4.691   3.876 -0.4782 -1.6918  0.3448
 1000MOL0     H31945   3.108   4.558   3.952  0.1463 -2.2505  1.4369
 1000MOL0     H31946   2.971   4.492   3.872  1.3596 -1.9502  1.2583
 1000MOL0     H31947   2.835   4.496   4.074  0.9039 -2.5467 -1.4772
 1000MOL0     H31948   2.957   4.597   4.158  1.9360 -1.8765  1.2487
 1000MOL0     H31949   3.116   4.410   4.109  0.1348 -0.3400 -2.7982
 1000MOL0     H31950   3.000   4.383   4.239 -3.8081 -1.2942 -0.3551
 1000MOL0     H31951   3.003   4.182   4.101 -0.3047  0.0253 -1.0157
 1000MOL0     H31952   2.954   4.274   3.959  2.2405  4.2395 -0.1153
 1000MOL0     H31953   2.827   4.098   4.261 -0.1318  0.9044  1.4025
 1000MOL0     H31954   2.571   4.090   4.400 -1.3033 -1.9609 -0.0921
 1000MOL0     H31955   2.573   3.988   4.271  4.3751 -0.3888  3.4050
 1000MOL0     H31956   2.353   4.078   4.213  2.4714  1.7007 -2.0384
 1000MOL0     H31957   2.400   4.227   4.289 -1.1605  0.0422  1.5174
 1000MOL0     H31958   2.349   3.953   4.429  0.0336 -0.1029  3.1487
 1000MOL0     H31959   2.395   4.106   4.510 -0.0197 -0.8179  0.8377
 1000MOL0     H31960   2.181   4.208   4.440  2.7279 -0.0495  1.6925
 1000MOL0     H31961   2.146   4.071   4.542 -2.4617  2.7672 -0.1939
 1000MOL0     H31962   1.976   3.795   4.390  1.7615  1.5099 -1.8361
 1000MOL0     H31963   1.740   3.757   4.473 -2.0740 -0.9085 -2.1460
 1000MOL0     H31964   1.268   4.154   4.426 -0.9246 -0.4341  0.5194
 1000MOL0     H31965   1.033   4.136   4.475 -0.9145  2.0004  1.7618
 1000MOL0     H31966   0.820   4.053   4.555  2.9565  1.3733 -0.8828
 1000MOL0     H31967   0.841   4.207   4.646 -0.2713 -0.6495 -0.6259
 1000MOL0     H31968   0.728   4.094   4.839  1.8413  1.8159 -0.2146
 1000MOL0     H31969   0.693   3.950   4.738  2.3865 -0.2387  1.0245
 1000MOL0     H31970   0.495   4.071   4.745 -0.7233  1.8136 -0.2665
 1000MOL0     H31971   0.564   4.099   4.584 -1.5474  0.1228 -0.7664
 1000MOL0     H31972   0.594   4.278   4.823  0.8019 -1.8365  0.7460
 1000MOL0     H31973   0.646   4.315   4.657  0.6780 -1.9603 -0.6867
 1000MOL0     H31974   0.384   4.327   4.613  1.1606  0.8611 -0.2783
 1000MOL0     H31975   0.447   4.429   4.742  0.1258  0.3376 -1.0047
 1000MOL0     H31976   0.367   4.236   4.907  1.3714 -3.3538 -1.7275
 1000MOL0     H31977   0.291   4.169   4.766  0.0156 -0.4550  0.5734
 1000MOL0     H31978   0.246   4.468   4.849 -4.7079  1.6835 -1.0289
 1000MOL0     H31979   0.156   4.366   4.742  0.3727  3.9437  0.1531
 1000MOL0     H31980   0.199   4.277   5.038 -0.7461  2.9185  2.2772
 1000MOL0     H31981   0.062   4.240   4.926  2.1333 -1.2078 -2.5072
 1000MOL0     H31982   1.147   3.895   4.811  3.8286 -2.4287 -0.3915
 1000MOL0     H31983   1.384   3.903   4.742  2.1779  1.7038  1.1125
 1000MOL0     H31984   1.672   4.169   4.451  0.0451 -0.2249 -0.1543
 1000MOL0     H31985   1.929   4.209   4.406  1.0118 -1.3227 -2.0990
 1000MOL0     H31986   3.194   4.964   3.396 -0.6220  1.5225  2.0430
 1000MOL0     H31987   3.371   4.975   3.222  0.0566 -1.8413  0.3827
 1000MOL0     H31988   3.764   4.965   3.068 -1.3519  0.6080 -0.9483
 1000MOL0     H31989   3.902   5.018   2.887  0.2436  2.0962 -2.6862
 1000MOL0     H31990   4.123   5.423   2.860 -1.6092  1.6972  0.5325
 1000MOL0     H31991   3.972   5.429   2.787  0.5352  0.5846 -1.2859
 1000MOL0     H31992   4.036   5.328   2.581  0.5630 -1.6465  0.4417
 1000MOL0     H31993   4.159   5.457   2.620 -0.1842 -0.0287 -0.7017
 1000MOL0     H31994   4.247   5.259   2.517 -0.2763  0.4381 -0.2607
 1000MOL0     H31995   4.172   5.162   2.646 -0.6985 -0.3742 -0.4700
 1000MOL0     H31996   4.312   5.302   2.816 -1.1388 -2.6615  0.1182
 1000MOL0     H31997   4.406   5.207   2.681 -2.8569 -1.3407 -0.9826
 1000MOL0     H31998   4.555   5.598   2.633  1.0805 -1.4427 -0.4749
 1000MOL0     H31999   3.947   5.430   3.010 -0.0091 -0.0760 -1.0837
 1000MOL0     H32000   3.796   5.384   3.185 -1.0452 -0.5231  0.4892
 1001MOL0     O32001   1.835   8.474  11.321 -0.8648  0.6895 -0.2147
 1001MOL0     C32002   1.893   8.578  11.351 -1.1018  0.1655 -0.5714
 1001MOL0     O32003   1.860   8.661  11.454 -0.4881 -0.4761 -0.3883
 1001MOL0     C32004   1.738   8.644  11.520  0.5858 -0.2149 -0.0088
 1001MOL0     C32005   1.624   8.691  11.447 -0.6686 -0.4971  0.2920
 1001MOL0     C32006   1.501   8.668  11.494  1.1550 -0.0321 -0.9075
 1001MOL0     C32007   1.477   8.604  11.621 -0.7160 -0.8446  0.0969
 1001MOL0     O32008   1.353   8.572  11.673 -0.4451 -0.5924  0.1697
 1001MOL0     C32009   1.238   8.591  11.596 -0.1557  0.4516  0.5687
 1001MOL0     C32010   1.103   8.559  11.665 -0.7928 -0.5431 -1.1847
 1001MOL0     C32011   1.092   8.616  11.816 -0.7018  0.1079  0.1765
 1001MOL0     C32012   0.974   8.560  11.905  0.2912 -0.0541  0.0580
 1001MOL0     C32013   0.966   8.605  12.051 -0.3049 -0.8012  0.5329
 1001MOL0     C32014   0.937   8.753  12.079 -0.0481  0.5044  0.2382
 1001MOL0     C32015   0.901   8.780  12.227  0.0786  0.9159  0.0544
 1001MOL0     C32016   0.744   8.789  12.238  0.5668 -0.3822 -0.5074
 1001MOL0     N32017   0.687   8.658  12.258 -0.0061 -1.0402  0.2132
 1001MOL0     C32018   0.599   8.599  12.170 -0.1901 -0.5608  1.0888
 1001MOL0     C32019   0.569   8.483  12.231  0.8284  0.4012  0.2928
 1001MOL0     C32020   0.474   8.378  12.183 -0.5160 -0.1581 -0.7095
 1001MOL0     C32021   0.536   8.236  12.201  0.3863  0.1926  0.1324
 1001MOL0     C32022   0.618   8.205  12.077 -1.0124  0.4408  0.4391
 1001MOL0     C32023   0.674   8.065  12.084 -0.5470  1.3232  0.0911
 1001MOL0     O32024   0.567   7.971  12.058  0.4683  0.1945 -0.0511
 1001MOL0     C32025   0.590   7.837  12.094  0.4368  0.1875  0.3313
 1001MOL0     C32026   0.705   7.770  12.149  0.0621  0.8517  0.7585
 1001MOL0     C32027   0.695   7.632  12.171  0.3200  0.1714 -0.5793
 1001MOL0     C32028   0.589   7.559  12.133  0.7946  0.4189 -0.4993
 1001MOL0     C32029   0.580   7.420  12.165 -0.6352  0.2687 -0.0806
 1001MOL0     O32030   0.700   7.353  12.203  0.4979  0.1962  0.2154
 1001MOL0     C32031   0.723   7.224  12.238 -1.0049 -0.0542  0.1610
 1001MOL0     C32032   0.638   7.119  12.216 -0.8197  0.7063  0.4698
 1001MOL0     C32033   0.687   6.987  12.223  0.3135 -0.3659 -0.4765
 1001MOL0     C32034   0.813   6.957  12.265  0.0251 -0.3510 -0.0894
 1001MOL0     O32035   0.844   6.831  12.270  0.7701  0.8782  0.0584
 1001MOL0     C32036   0.893   6.779  12.391  0.6172 -0.2159 -0.4615
 1001MOL0     C32037   0.796   6.780  12.511  0.5395 -0.7775  0.5816
 1001MOL0     C32038   0.659   6.705  12.471 -0.2661 -0.2003 -0.0299
 1001MOL0     C32039   0.668   6.551  12.464  0.5224 -0.2801 -0.5682
 1001MOL0     C32040   0.532   6.476  12.486  1.0751 -0.3479 -0.2810
 1001MOL0     C32041   0.549   6.329  12.461 -0.3724  0.0868  0.8791
 1001MOL0     C32042   0.432   6.237  12.489  0.4290 -0.9141  0.4724
 1001MOL0     C32043   0.478   6.089  12.486  0.2510  0.3565 -0.1456
 1001MOL0    Cl32044   0.564   6.055  12.638 -0.4544  0.0460  0.6184
 1001MOL0     C32045   0.898   7.062  12.297 -0.3679 -0.0681 -0.5930
 1001MOL0     C32046   0.853   7.196  12.284  0.3364  0.4096  0.6619
 1001MOL0     O32047   0.470   7.369  12.149 -0.7710  0.0335 -0.3170
 1001MOL0     C32048   0.485   7.628  12.065 -1.0964  0.3696  0.2194
 1001MOL0     C32049   0.483   7.764  12.042  0.9298  0.0532  0.1743
 1001MOL0     N32050   0.623   8.483  12.362 -0.0165  0.5717  0.5514
 1001MOL0     N32051   0.693   8.588  12.371 -0.2886  0.5680 -0.7300
 1001MOL0     C32052   1.592   8.569  11.693  0.5489  0.1316 -1.0663
 1001MOL0     C32053   1.723   8.577  11.641 -0.0294 -0.1234 -0.1163
 1001MOL0     C32054   2.018   8.611  11.270 -0.9029  0.3877  0.0986
 1001MOL0     C32055   2.102   8.714  11.316 -0.5885 -0.0103  0.0657
 1001MOL0     C32056   2.211   8.735  11.238  0.0784  0.7690  0.5206
 1001MOL0     C32057   2.250   8.655  11.132  0.1760  1.0734 -0.1721
 1001MOL0     O32058   2.372   8.669  11.066  0.2311 -0.0090 -0.3721
 1001MOL0     C32059   2.486   8.738  11.133 -0.5532  0.2799  0.3191
 1001MOL0     C32060   2.606   8.715  11.034  0.0165  1.3726 -0.7946
 1001MOL0     C32061   2.661   8.845  10.973 -0.1737  0.2925  0.1096
 1001MOL0     C32062   2.777   8.806  10.879 -0.5220  0.6900  0.0269
 1001MOL0     C32063   2.884   8.741  10.959  0.1284 -0.5296 -0.2259
 1001MOL0     C32064   2.978   8.691  11.018  0.4070 -0.4041 -1.4895
 1001MOL0     C32065   2.157   8.564  11.085  0.0669 -0.0748 -0.0022
 1001MOL0     C32066   2.041   8.534  11.154 -0.3725 -0.9068 -0.1066
 1001MOL0     H32067   1.647   8.736  11.351 -1.3966 -2.9162 -1.1154
 1001MOL0     H32068   1.415   8.714  11.447 -0.4422 -0.7954  1.0820
 1001MOL0     H32069   1.244   8.533  11.503  1.2763 -0.1768  1.0128
 1001MOL0     H32070   1.240   8.698  11.574 -2.5676  0.4743  0.2105
 1001MOL0     H32071   1.092   8.450  11.665  0.7367 -0.7144 -0.9160
 1001MOL0     H32072   1.013   8.578  11.605 -1.1456 -1.9246 -1.1420
 1001MOL0     H32073   1.083   8.724  11.803 -2.2779 -0.2410 -2.2514
 1001MOL0     H32074   1.182   8.594  11.874 -1.4425 -2.4717  0.4889
 1001MOL0     H32075   0.882   8.558  11.845  1.9706 -2.9051 -2.7908
 1001MOL0     H32076   1.000   8.453  11.901 -1.1092 -0.4012 -0.3748
 1001MOL0     H32077   1.061   8.581  12.101 -0.2986  0.7931  1.3511
 1001MOL0     H32078   0.885   8.547  12.095 -0.1358 -0.5173  1.2287
 1001MOL0     H32079   0.856   8.788  12.014  1.3252  2.5328 -0.4738
 1001MOL0     H32080   1.021   8.813  12.042 -0.8846  0.2459 -2.3246
 1001MOL0     H32081   0.934   8.694  12.285 -0.3927  0.8916  0.2888
 1001MOL0     H32082   0.961   8.868  12.255  4.9187 -1.6000 -1.3578
 1001MOL0     H32083   0.701   8.828  12.145  0.7472  0.4054 -0.2686
 1001MOL0     H32084   0.715   8.846  12.327 -2.1579 -0.5706 -1.1875
 1001MOL0     H32085   0.554   8.628  12.076  0.3891  0.6838  1.1833
 1001MOL0     H32086   0.444   8.390  12.078 -1.6744 -1.7787 -0.6017
 1001MOL0     H32087   0.387   8.393  12.247  0.1013  3.1852 -0.4765
 1001MOL0     H32088   0.460   8.162  12.226  1.2289  0.0886  2.7375
 1001MOL0     H32089   0.601   8.247  12.289  2.0494  2.3618 -1.2717
 1001MOL0     H32090   0.560   8.217  11.985  0.5765  0.8683 -0.5549
 1001MOL0     H32091   0.701   8.274  12.060 -0.3710 -0.3351  0.3248
 1001MOL0     H32092   0.702   8.050  12.189  3.0827 -1.3837 -1.0609
 1001MOL0     H32093   0.757   8.051  12.015  2.0003  3.3140  2.4839
 1001MOL0     H32094   0.800   7.813  12.178  0.8552  0.1297 -0.6478
 1001MOL0     H32095   0.775   7.588  12.231 -1.3176  0.4570  1.9766
 1001MOL0     H32096   0.544   7.143  12.166 -1.4485 -4.5044 -1.5094
 1001MOL0     H32097   0.617   6.906  12.204  0.5053 -1.0713  1.5453
 1001MOL0     H32098   0.986   6.822  12.430  1.2235 -3.1362  1.6238
 1001MOL0     H32099   0.918   6.674  12.374  0.3710 -0.6469  1.6344
 1001MOL0     H32100   0.769   6.883  12.536  0.7449 -0.7559  0.7205
 1001MOL0     H32101   0.840   6.741  12.604  1.6577 -0.7228  0.0845
 1001MOL0     H32102   0.627   6.743  12.373  0.4335  1.3015  0.2903
 1001MOL0     H32103   0.578   6.737  12.537 -1.0363 -0.9470 -0.5898
 1001MOL0     H32104   0.699   6.513  12.366  0.7427 -1.7362  0.0342
 1001MOL0     H32105   0.740   6.512  12.537  1.3651  1.0513 -0.6532
 1001MOL0     H32106   0.455   6.524  12.424 -3.8654 -0.9519  4.6585
 1001MOL0     H32107   0.501   6.481  12.591 -0.3226 -1.0905 -0.6262
 1001MOL0     H32108   0.624   6.305  12.536 -0.2211 -0.4191  0.5721
 1001MOL0     H32109   0.578   6.312  12.357 -0.0630 -1.6597  1.2136
 1001MOL0     H32110   0.387   6.251  12.588  1.0151  0.8357  0.5375
 1001MOL0     H32111   0.362   6.245  12.405  2.6388 -1.0305 -1.4692
 1001MOL0     H32112   0.539   6.081  12.395  0.4761 -1.2330  0.1139
 1001MOL0     H32113   0.384   6.034  12.478 -1.7386  3.3040  1.1500
 1001MOL0     H32114   0.999   7.038  12.331 -0.1270  1.7396  0.0935
 1001MOL0     H32115   0.916   7.279  12.316  2.7085 -0.5410 -1.2276
 1001MOL0     H32116   0.408   7.570  12.014 -0.4581 -0.6084  0.3540
 1001MOL0     H32117   0.403   7.814  11.989  0.9102 -0.7076 -0.5367
 1001MOL0     H32118   1.590   8.508  11.783  0.4123  0.0908 -1.0960
 1001MOL0     H32119   1.809   8.541  11.695 -1.3181 -1.6138  1.0310
 1001MOL0     H32120   2.086   8.776  11.403  0.2939 -0.8803  0.8756
 1001MOL0     H32121   2.275   8.809  11.285  1.5057 -1.4190  2.2481
 1001MOL0     H32122   2.507   8.689  11.229 -2.3353  1.0517  1.1594
 1001MOL0     H32123   2.470   8.846  11.139 -1.5132  0.1305  0.6289
 1001MOL0     H32124   2.689   8.674  11.091 -1.6628 -0.8924  0.1498
 1001MOL0     H32125   2.590   8.647  10.951  2.8082  1.3299 -1.3765
 1001MOL0     H32126   2.701   8.921  11.041  2.3317 -0.1687 -0.7360
 1001MOL0     H32127   2.587   8.909  10.923  0.1567  0.4549 -0.1772
 1001MOL0     H32128   2.735   8.729  10.813 -1.3038  1.5003 -0.4485
 1001MOL0     H32129   2.816   8.891  10.823  1.4456 -0.4876 -0.4787
 1001MOL0     H32130   3.065   8.643  11.057  0.1598  0.0700 -0.3151
 1001MOL0     H32131   2.197   8.508  11.002  2.8474 -1.4104  2.0918
 1001MOL0     H32132   1.981   8.452  11.117 -0.0309  0.1373 -3.2269
 1002MOL0     O32133   6.921   7.861   4.390 -0.2804  0.1352  0.6207
 1002MOL0     C32134   6.905   7.896   4.271 -0.5946  0.2542 -0.5943
 1002MOL0     O32135   6.791   7.900   4.202 -0.7973 -0.4217  0.3742
 1002MOL0     C32136   6.661   7.884   4.250 -0.7490 -0.2701  0.2191
 1002MOL0     C32137   6.563   7.844   4.154 -0.5444 -0.6051  0.5220
 1002MOL0     C32138   6.429   7.826   4.188  0.3938 -0.7302  1.0016
 1002MOL0     C32139   6.382   7.848   4.316 -0.5592  0.6452  0.3231
 1002MOL0     O32140   6.245   7.839   4.349 -0.7236 -0.2561  0.0463
 1002MOL0     C32141   6.217   7.763   4.465 -0.2510  0.7377  0.4287
 1002MOL0     C32142   6.070   7.744   4.483 -0.1555 -0.0272 -0.0425
 1002MOL0     C32143   5.992   7.874   4.477 -0.2850 -0.4319  0.1377
 1002MOL0     C32144   5.837   7.862   4.505  0.3914 -0.3141 -0.9043
 1002MOL0     C32145   5.756   7.795   4.393 -0.1169  0.3705  0.0556
 1002MOL0     C32146   5.617   7.775   4.439  0.0305 -0.4112  0.2249
 1002MOL0     C32147   5.542   7.685   4.344  0.6285 -0.3350  0.3130
 1002MOL0     C32148   5.395   7.690   4.392  1.1112 -0.1716 -0.9653
 1002MOL0     N32149   5.313   7.633   4.287  1.0655  0.1076  0.7706
 1002MOL0     C32150   5.178   7.654   4.292 -0.1259 -1.0002 -0.8477
 1002MOL0     C32151   5.135   7.580   4.187  0.1336 -0.5361  1.3927
 1002MOL0     C32152   4.988   7.565   4.156 -0.0010 -0.1824 -0.3744
 1002MOL0     C32153   4.934   7.659   4.054  0.4504 -0.3210  0.8879
 1002MOL0     C32154   4.779   7.652   4.053 -0.4604  0.0839 -0.0950
 1002MOL0     C32155   4.717   7.751   3.956  0.4185 -0.3062  0.2986
 1002MOL0     O32156   4.586   7.799   3.992  0.0930  0.2104  0.2101
 1002MOL0     C32157   4.485   7.711   3.986  0.7741  0.2207 -0.4586
 1002MOL0     C32158   4.446   7.646   3.860  0.9316  0.6903 -0.4573
 1002MOL0     C32159   4.337   7.565   3.858 -0.5111 -0.7075  0.0740
 1002MOL0     C32160   4.252   7.549   3.968 -1.1002  0.8162 -0.9380
 1002MOL0     C32161   4.125   7.467   3.952  0.8333 -0.1643  0.2924
 1002MOL0     O32162   4.064   7.435   4.070  0.2280  0.5572  0.3616
 1002MOL0     C32163   3.949   7.360   4.080 -0.0057 -0.6799  0.0157
 1002MOL0     C32164   3.940   7.235   4.030  0.1411 -0.3991  0.4053
 1002MOL0     C32165   3.826   7.155   4.048  0.3097  0.7119 -0.4346
 1002MOL0     C32166   3.718   7.201   4.125  0.9787  0.1335 -0.9582
 1002MOL0     O32167   3.618   7.104   4.138  0.8687  0.0094 -0.0172
 1002MOL0     C32168   3.529   7.108   4.248  0.2966 -0.4110 -0.1264
 1002MOL0     C32169   3.433   6.988   4.246 -0.2551  0.7866  0.1527
 1002MOL0     C32170   3.351   6.996   4.379  0.1259 -0.1257  0.4562
 1002MOL0     C32171   3.226   6.910   4.362  0.9894  0.0402 -0.8565
 1002MOL0     C32172   3.151   6.905   4.497  0.2268 -0.6428  0.2335
 1002MOL0     C32173   3.041   6.798   4.494  0.2089  0.8051  0.4370
 1002MOL0     C32174   2.963   6.770   4.622 -0.0019  0.7669  0.7636
 1002MOL0     C32175   2.878   6.647   4.611  0.2750  0.2884  0.0795
 1002MOL0    Cl32176   2.816   6.609   4.782  0.0576 -0.6126  0.3886
 1002MOL0     C32177   3.727   7.323   4.191 -0.6371  0.0072 -0.4580
 1002MOL0     C32178   3.844   7.398   4.169  0.6169  0.1150 -0.9378
 1002MOL0     O32179   4.087   7.432   3.838  0.1067 -0.5201 -0.0930
 1002MOL0     C32180   4.286   7.615   4.086  0.0312  0.1274  0.1022
 1002MOL0     C32181   4.399   7.695   4.101  0.2233 -1.1806  0.3866
 1002MOL0     N32182   5.241   7.526   4.122 -0.3147 -0.1495  0.7987
 1002MOL0     N32183   5.350   7.560   4.177  0.0593  0.5274  0.2923
 1002MOL0     C32184   6.485   7.880   4.415  0.1417 -0.1578  0.8857
 1002MOL0     C32185   6.615   7.896   4.381 -0.4543 -1.3197  0.8779
 1002MOL0     C32186   7.030   7.915   4.194 -0.2205 -0.9913  0.3985
 1002MOL0     C32187   7.143   7.945   4.266  0.4352  0.2713  0.3637
 1002MOL0     C32188   7.257   7.979   4.203 -0.3971  0.6735  0.1749
 1002MOL0     C32189   7.265   8.001   4.059 -0.4905  0.7686  0.2394
 1002MOL0     O32190   7.373   8.043   3.988  0.2288  0.0242  0.1022
 1002MOL0     C32191   7.506   8.024   4.027 -0.4507 -0.2003 -0.4311
 1002MOL0     C32192   7.544   7.879   4.043 -0.2113 -0.9948 -0.3314
 1002MOL0     C32193   7.694   7.849   4.084  0.2859  0.1123  0.0257
 1002MOL0     C32194   7.724   7.699   4.078  0.1411  0.1587  1.2417
 1002MOL0     C32195   7.858   7.665   4.124 -0.8686 -0.0015 -0.4485
 1002MOL0     C32196   7.977   7.660   4.163  0.5819 -0.7891  0.2872
 1002MOL0     C32197   7.153   7.990   3.981  0.0915  0.6484 -0.4189
 1002MOL0     C32198   7.032   7.947   4.047 -0.0413 -0.1532  1.1436
 1002MOL0     H32199   6.584   7.839   4.047  0.3830  3.3080  0.3573
 1002MOL0     H32200   6.349   7.817   4.115 -0.5711  0.8936  1.7858
 1002MOL0     H32201   6.268   7.818   4.544  2.4423 -1.1132  0.1230
 1002MOL0     H32202   6.252   7.660   4.454  3.7206  1.9859 -0.1893
 1002MOL0     H32203   6.043   7.702   4.580 -0.6875 -1.5224 -0.8189
 1002MOL0     H32204   6.030   7.671   4.412  2.2277 -2.8086  1.2687
 1002MOL0     H32205   6.007   7.915   4.377 -2.1569  0.5477  0.2130
 1002MOL0     H32206   6.036   7.944   4.549 -0.4086 -2.1048  1.9378
 1002MOL0     H32207   5.850   7.806   4.598  2.5147 -0.1540 -1.0449
 1002MOL0     H32208   5.803   7.965   4.520 -2.2968 -1.4802  2.2241
 1002MOL0     H32209   5.798   7.695   4.375  1.4850  1.1972 -1.1339
 1002MOL0     H32210   5.756   7.862   4.306  0.7003  1.6453  1.0111
 1002MOL0     H32211   5.570   7.873   4.452  1.4449  0.0124  2.9923
 1002MOL0     H32212   5.616   7.728   4.538 -0.8779 -1.6175 -0.3230
 1002MOL0     H32213   5.548   7.728   4.244  0.4167  0.2262  0.5378
 1002MOL0     H32214   5.591   7.588   4.359  0.1858 -0.3519  1.7887
 1002MOL0     H32215   5.356   7.791   4.407 -0.7682 -0.7981 -1.3953
 1002MOL0     H32216   5.380   7.647   4.491 -0.1949  3.5872  0.6804
 1002MOL0     H32217   5.117   7.718   4.356  0.5323  0.8210 -1.9466
 1002MOL0     H32218   4.927   7.575   4.247  0.9605 -1.7479  0.4916
 1002MOL0     H32219   4.977   7.464   4.117  2.8783  0.1619 -2.3529
 1002MOL0     H32220   4.972   7.636   3.954  0.7690 -0.8580  1.1281
 1002MOL0     H32221   4.972   7.760   4.075  0.5297 -0.3436  0.8549
 1002MOL0     H32222   4.758   7.546   4.037  1.4576 -0.0749 -2.1575
 1002MOL0     H32223   4.747   7.679   4.154 -0.5380  2.4622 -0.6757
 1002MOL0     H32224   4.715   7.708   3.856 -1.5294  0.2576  0.0580
 1002MOL0     H32225   4.777   7.842   3.947 -2.8430  2.0317  0.7985
 1002MOL0     H32226   4.498   7.667   3.768  0.8037  0.5624 -0.5601
 1002MOL0     H32227   4.317   7.511   3.766 -1.0644  0.4002 -0.4762
 1002MOL0     H32228   4.019   7.191   3.969  1.7291  0.2859  1.8977
 1002MOL0     H32229   3.818   7.063   3.992  0.3715  1.6366 -2.0223
 1002MOL0     H32230   3.482   7.206   4.239  1.4006  0.4847  2.7659
 1002MOL0     H32231   3.591   7.106   4.338  0.8447  0.4244 -0.4774
 1002MOL0     H32232   3.488   6.895   4.229  0.6434  1.6353 -1.8664
 1002MOL0     H32233   3.368   6.994   4.159  2.9442  1.4448 -2.3753
 1002MOL0     H32234   3.326   7.100   4.402 -1.2497  0.1107 -1.8071
 1002MOL0     H32235   3.411   6.957   4.462  0.1558 -1.5775 -0.2194
 1002MOL0     H32236   3.160   6.958   4.289 -1.7857  1.7400  2.5059
 1002MOL0     H32237   3.254   6.810   4.328  0.6752  0.1417 -1.4191
 1002MOL0     H32238   3.093   6.997   4.509 -1.2210 -1.6818  1.4708
 1002MOL0     H32239   3.225   6.880   4.574  2.3741  5.2254  0.5717
 1002MOL0     H32240   3.078   6.699   4.465  0.2973  0.6210  1.1667
 1002MOL0     H32241   2.964   6.829   4.422 -1.6209  1.7964  2.7096
 1002MOL0     H32242   3.041   6.754   4.696  1.8913 -1.5508 -1.5575
 1002MOL0     H32243   2.892   6.853   4.632  1.7546  2.5228 -0.4562
 1002MOL0     H32244   2.938   6.557   4.595  1.9828  1.2556  0.8149
 1002MOL0     H32245   2.796   6.656   4.540  0.1081  0.5049  0.2981
 1002MOL0     H32246   3.663   7.365   4.268  0.4143  1.4427 -0.3066
 1002MOL0     H32247   3.850   7.497   4.213 -1.4409 -0.8452  1.7637
 1002MOL0     H32248   4.217   7.602   4.169 -1.7724 -1.1553 -1.5224
 1002MOL0     H32249   4.410   7.760   4.187 -1.0783  1.2458 -1.1626
 1002MOL0     H32250   6.460   7.902   4.518  1.9044  2.6954  0.8048
 1002MOL0     H32251   6.688   7.930   4.454 -0.3718 -0.3077  0.3360
 1002MOL0     H32252   7.141   7.933   4.374 -3.1831  0.2912  0.4389
 1002MOL0     H32253   7.353   7.988   4.253  0.5884 -1.5494 -1.1508
 1002MOL0     H32254   7.533   8.068   4.123 -0.3665 -0.8211 -0.1606
 1002MOL0     H32255   7.574   8.076   3.960 -0.8060 -0.1917 -0.7885
 1002MOL0     H32256   7.483   7.832   4.121 -0.6322 -0.8908 -0.5933
 1002MOL0     H32257   7.530   7.836   3.943 -0.5416 -0.4617 -0.5194
 1002MOL0     H32258   7.728   7.882   4.183  4.3099 -1.8705 -0.4768
 1002MOL0     H32259   7.757   7.898   4.008  3.1084  1.0003  2.7183
 1002MOL0     H32260   7.650   7.641   4.133 -0.9507 -0.8332 -1.1250
 1002MOL0     H32261   7.716   7.661   3.975  1.5249  0.3745  1.0299
 1002MOL0     H32262   8.076   7.656   4.202  0.0421 -0.0091  1.8037
 1002MOL0     H32263   7.147   8.018   3.877 -1.1467 -2.8387 -1.4388
 1002MOL0     H32264   6.934   7.935   4.002 -0.3453 -0.2484  1.8086
 1003MOL0     O32265   0.086   5.132   2.580 -0.5238 -0.9549 -0.0056
 1003MOL0     C32266   0.144   5.241   2.568 -0.2357  0.5907 -0.6303
 1003MOL0     O32267   0.093   5.365   2.622  0.7190 -0.1333  0.1974
 1003MOL0     C32268  -0.014   5.366   2.712  0.4534 -0.5632 -0.0200
 1003MOL0     C32269  -0.138   5.439   2.705 -0.5621  0.1837  0.5261
 1003MOL0     C32270  -0.235   5.428   2.811  0.0847 -0.7751  1.0347
 1003MOL0     C32271  -0.206   5.372   2.929 -0.7865 -0.8544 -0.4706
 1003MOL0     O32272  -0.304   5.370   3.023  0.6135 -0.3586  0.3914
 1003MOL0     C32273  -0.296   5.282   3.134  0.6588  0.4031  0.2829
 1003MOL0     C32274  -0.413   5.269   3.223 -0.0223 -0.0102  0.5458
 1003MOL0     C32275  -0.439   5.394   3.301  0.3368  0.3838  0.3328
 1003MOL0     C32276  -0.571   5.382   3.385 -0.0678 -0.0010  0.2756
 1003MOL0     C32277  -0.623   5.521   3.433  0.5242 -0.2145 -0.1573
 1003MOL0     C32278  -0.772   5.540   3.421 -1.1627 -0.0512  0.2082
 1003MOL0     C32279  -0.840   5.442   3.518  0.2224 -0.2373  0.0232
 1003MOL0     C32280  -0.991   5.444   3.529  0.3214 -1.3802  0.0263
 1003MOL0     N32281  -1.056   5.581   3.552  0.5776 -0.0403 -0.0019
 1003MOL0     C32282  -1.058   5.682   3.452  0.1393  0.5386 -0.6637
 1003MOL0     C32283  -1.117   5.786   3.512  0.1029 -0.5121 -0.3034
 1003MOL0     C32284  -1.139   5.909   3.432 -1.1215 -0.7499 -0.2570
 1003MOL0     C32285  -1.016   5.992   3.388  0.8599 -0.3526 -1.0655
 1003MOL0     C32286  -0.953   6.022   3.523 -0.3881 -0.8918  0.7100
 1003MOL0     C32287  -0.823   6.103   3.491  0.2487  0.5086  0.7196
 1003MOL0     O32288  -0.745   6.035   3.392  0.1852  0.0026 -0.3101
 1003MOL0     C32289  -0.625   5.971   3.417  0.0755 -0.3548  0.9262
 1003MOL0     C32290  -0.564   5.917   3.298  0.3261 -0.4776 -0.6205
 1003MOL0     C32291  -0.427   5.863   3.305  0.5071 -0.7827  0.3054
 1003MOL0     C32292  -0.360   5.866   3.428 -0.1827  0.7029  0.9299
 1003MOL0     C32293  -0.232   5.791   3.435 -0.0285  0.6264 -0.6003
 1003MOL0     O32294  -0.207   5.685   3.349 -1.2649 -0.5886 -0.2174
 1003MOL0     C32295  -0.080   5.639   3.366  0.9162  0.6727  0.8310
 1003MOL0     C32296  -0.058   5.502   3.382 -0.1080 -0.7326 -0.0513
 1003MOL0     C32297   0.062   5.443   3.400  0.4052  0.6848 -0.2488
 1003MOL0     C32298   0.178   5.518   3.391  0.1957 -0.0116  0.6479
 1003MOL0     O32299   0.297   5.449   3.409 -0.2168  0.9221  0.4883
 1003MOL0     C32300   0.409   5.531   3.432  0.0140  0.3461  0.2388
 1003MOL0     C32301   0.519   5.448   3.497 -0.3285  0.3526 -0.2356
 1003MOL0     C32302   0.566   5.344   3.386  0.8945 -0.3694 -0.0173
 1003MOL0     C32303   0.670   5.244   3.432  0.0993 -0.3360 -0.7154
 1003MOL0     C32304   0.714   5.155   3.323  0.3296  0.3060  0.6369
 1003MOL0     C32305   0.852   5.096   3.348  0.1219 -0.1514  0.1330
 1003MOL0     C32306   0.893   5.007   3.235  1.3375 -0.7880 -0.0270
 1003MOL0     C32307   1.041   4.979   3.238 -0.6198  0.7607  0.1856
 1003MOL0    Cl32308   1.085   4.888   3.386 -0.4734  0.2887 -0.2876
 1003MOL0     C32309   0.157   5.659   3.367 -0.0362 -0.3258  1.0126
 1003MOL0     C32310   0.034   5.718   3.345  0.2681  1.3501 -0.2821
 1003MOL0     O32311  -0.153   5.832   3.523  0.2909  0.1431  0.2450
 1003MOL0     C32312  -0.418   5.917   3.549 -0.3034 -0.9974  0.4239
 1003MOL0     C32313  -0.555   5.966   3.538  0.1296  0.0044  0.6934
 1003MOL0     N32314  -1.150   5.743   3.646  0.2967  0.2599 -0.0140
 1003MOL0     N32315  -1.116   5.624   3.672  0.1486  0.1705  0.8722
 1003MOL0     C32316  -0.081   5.320   2.947  0.0804 -0.1202  0.1598
 1003MOL0     C32317   0.007   5.302   2.837 -0.1382 -1.0623 -0.2542
 1003MOL0     C32318   0.264   5.255   2.486 -1.1977 -0.2780 -0.4445
 1003MOL0     C32319   0.350   5.144   2.466  1.0418 -0.0405 -0.1948
 1003MOL0     C32320   0.459   5.146   2.378  1.4076  0.0201 -0.6806
 1003MOL0     C32321   0.470   5.268   2.302  0.2518  0.0638 -0.1781
 1003MOL0     O32322   0.569   5.286   2.210  0.0986 -0.3726  0.0887
 1003MOL0     C32323   0.585   5.174   2.124 -1.4324 -0.2390  0.8882
 1003MOL0     C32324   0.678   5.222   2.006  0.1120  0.8013 -1.2421
 1003MOL0     C32325   0.825   5.228   2.056 -0.7222 -1.1201  0.5488
 1003MOL0     C32326   0.853   5.348   2.142  0.4155  0.4065  0.6291
 1003MOL0     C32327   0.990   5.397   2.155  0.2234  0.3924 -0.0068
 1003MOL0     C32328   1.101   5.428   2.168 -0.9661 -0.2133 -0.1053
 1003MOL0     C32329   0.392   5.377   2.324  0.3231  0.0502  0.7340
 1003MOL0     C32330   0.293   5.381   2.424 -0.8796  0.4321 -0.5220
 1003MOL0     H32331  -0.144   5.477   2.603 -0.8713 -2.9088 -0.7307
 1003MOL0     H32332  -0.335   5.470   2.802  0.4249 -0.1811 -0.2793
 1003MOL0     H32333  -0.214   5.314   3.199  2.4467 -1.5118 -0.8960
 1003MOL0     H32334  -0.272   5.181   3.098  1.7558  1.5532 -2.4826
 1003MOL0     H32335  -0.392   5.188   3.293  1.6019  0.2907  0.4443
 1003MOL0     H32336  -0.505   5.242   3.171  0.9735  0.1296 -1.4184
 1003MOL0     H32337  -0.454   5.471   3.225 -1.6137 -1.5621 -1.3848
 1003MOL0     H32338  -0.348   5.417   3.358  0.6904 -0.3951  0.0955
 1003MOL0     H32339  -0.653   5.341   3.326 -0.5296 -0.4217  1.1723
 1003MOL0     H32340  -0.560   5.315   3.472  1.0993  1.7793  1.5736
 1003MOL0     H32341  -0.603   5.602   3.363 -5.2019  2.4773  0.7238
 1003MOL0     H32342  -0.588   5.551   3.533 -1.6159 -0.4950  0.7351
 1003MOL0     H32343  -0.794   5.523   3.315  0.9572  1.2252 -0.4882
 1003MOL0     H32344  -0.806   5.640   3.450 -1.1811  0.1693 -0.5356
 1003MOL0     H32345  -0.800   5.345   3.484 -0.2995 -0.3784 -0.2027
 1003MOL0     H32346  -0.798   5.454   3.618 -0.3447 -0.5188  0.3016
 1003MOL0     H32347  -1.022   5.395   3.622 -1.2842  2.8040  1.9652
 1003MOL0     H32348  -1.036   5.389   3.446  0.7180  0.3124 -1.3762
 1003MOL0     H32349  -1.012   5.685   3.354  2.1992  3.9944  0.2437
 1003MOL0     H32350  -1.213   5.973   3.481  0.7827  0.8273  0.7153
 1003MOL0     H32351  -1.199   5.870   3.350 -4.9489 -2.5299  3.0016
 1003MOL0     H32352  -1.057   6.080   3.339 -0.1996 -1.0541 -1.4676
 1003MOL0     H32353  -0.949   5.944   3.316  2.6427 -1.7674  1.3649
 1003MOL0     H32354  -1.016   6.081   3.590 -3.3587 -4.4917  1.4211
 1003MOL0     H32355  -0.923   5.935   3.581  0.5082 -0.3818  1.0478
 1003MOL0     H32356  -0.766   6.134   3.579 -1.7591  0.6696  2.0332
 1003MOL0     H32357  -0.862   6.198   3.453  1.2201  2.2483  3.7958
 1003MOL0     H32358  -0.626   5.915   3.209 -1.7943 -0.7726  0.8114
 1003MOL0     H32359  -0.383   5.814   3.219  0.5667 -1.3341  0.6506
 1003MOL0     H32360  -0.148   5.443   3.395 -2.1980  2.7397  3.0571
 1003MOL0     H32361   0.061   5.335   3.407  0.4568  0.7468  0.9367
 1003MOL0     H32362   0.390   5.607   3.509  0.2379  0.0462  0.5986
 1003MOL0     H32363   0.443   5.581   3.341 -5.0405 -0.0808 -2.2065
 1003MOL0     H32364   0.498   5.387   3.585 -0.8286  2.5759  1.2577
 1003MOL0     H32365   0.599   5.520   3.520  1.0138 -0.0783 -3.0620
 1003MOL0     H32366   0.627   5.404   3.319  1.3995  0.6864  1.3390
 1003MOL0     H32367   0.482   5.288   3.344  0.1477 -0.5209  1.5842
 1003MOL0     H32368   0.743   5.298   3.492 -2.7001  0.5865  2.1510
 1003MOL0     H32369   0.624   5.173   3.502  1.0162  0.9412  1.2907
 1003MOL0     H32370   0.713   5.197   3.222  2.3549  0.9438  0.8369
 1003MOL0     H32371   0.630   5.086   3.305 -0.5717  1.6440 -0.5261
 1003MOL0     H32372   0.861   5.032   3.436  0.3633 -2.3090 -1.3843
 1003MOL0     H32373   0.927   5.176   3.352  0.6640 -0.5173 -1.7580
 1003MOL0     H32374   0.835   4.914   3.231 -2.8230  1.4630  2.1654
 1003MOL0     H32375   0.866   5.061   3.144  0.8089  0.1063  0.6503
 1003MOL0     H32376   1.106   5.067   3.246  3.1837 -1.6779 -1.0324
 1003MOL0     H32377   1.073   4.921   3.151  1.9221 -0.2383  1.6603
 1003MOL0     H32378   0.237   5.732   3.365 -0.9343  0.6701  0.4119
 1003MOL0     H32379   0.023   5.819   3.307 -2.4828  1.0435 -0.4783
 1003MOL0     H32380  -0.373   5.920   3.648 -2.1802 -0.1701  1.3045
 1003MOL0     H32381  -0.598   6.013   3.626 -1.4082 -1.0481  0.5316
 1003MOL0     H32382  -0.060   5.273   3.042 -2.2118  3.0246  2.4406
 1003MOL0     H32383   0.096   5.243   2.849  0.9031  0.3007 -0.9646
 1003MOL0     H32384   0.334   5.050   2.518 -0.7800  0.3751  0.0542
 1003MOL0     H32385   0.516   5.058   2.351  2.1955  0.6099 -0.9703
 1003MOL0     H32386   0.491   5.140   2.080 -1.1128  0.2339 -0.1898
 1003MOL0     H32387   0.644   5.091   2.162 -0.6710  0.2110  0.7020
 1003MOL0     H32388   0.669   5.155   1.921  0.4734 -1.1733  0.2068
 1003MOL0     H32389   0.650   5.321   1.969  0.5089  0.4445 -2.5562
 1003MOL0     H32390   0.894   5.236   1.972  1.4222 -0.5763  2.2727
 1003MOL0     H32391   0.860   5.145   2.118  2.5916  1.0292  1.8012
 1003MOL0     H32392   0.789   5.431   2.112  1.1471  0.0529 -2.1875
 1003MOL0     H32393   0.821   5.317   2.242  2.2121 -0.4132  0.9916
 1003MOL0     H32394   1.200   5.468   2.180 -2.1077  2.2905  1.5825
 1003MOL0     H32395   0.417   5.465   2.266  1.7550 -0.6132  0.3121
 1003MOL0     H32396   0.229   5.469   2.424  1.7883  2.5539  1.7447
 1004MOL0     O32397   3.281   2.308  11.233 -0.4849 -0.3414 -0.4423
 1004MOL0     C32398   3.329   2.252  11.135 -0.9711 -0.2146 -0.3378
 1004MOL0     O32399   3.257   2.226  11.025  0.3943  0.5476 -0.6315
 1004MOL0     C32400   3.126   2.233  11.006  0.0687 -0.0676 -0.1328
 1004MOL0     C32401   3.033   2.201  11.101  0.3776 -0.7661 -0.5021
 1004MOL0     C32402   2.898   2.196  11.074 -0.2742 -0.3899  0.2190
 1004MOL0     C32403   2.855   2.215  10.938  0.1685  0.4185 -0.2207
 1004MOL0     O32404   2.727   2.205  10.895  0.0247 -0.1520 -0.1146
 1004MOL0     C32405   2.627   2.162  10.989 -0.4672 -0.1534  0.0145
 1004MOL0     C32406   2.631   2.013  11.035  0.0862 -0.2573  0.3175
 1004MOL0     C32407   2.518   1.986  11.132 -0.3730 -0.0339 -0.4723
 1004MOL0     C32408   2.386   2.022  11.076 -1.0432  0.6199  0.1352
 1004MOL0     C32409   2.260   1.992  11.160 -0.4206  0.9356  0.1676
 1004MOL0     C32410   2.141   2.021  11.068 -0.5824  0.2432 -0.0134
 1004MOL0     C32411   2.007   2.005  11.144  0.7949 -0.0493 -0.7581
 1004MOL0     C32412   1.958   2.125  11.215 -0.3636  0.3688 -0.6137
 1004MOL0     N32413   1.838   2.103  11.295 -0.8228  0.1082  0.2597
 1004MOL0     C32414   1.714   2.083  11.241 -0.3202 -0.5331  0.2501
 1004MOL0     C32415   1.634   2.061  11.349 -0.7544  0.1602  0.4770
 1004MOL0     C32416   1.490   2.029  11.348  0.3310 -0.7364  0.0388
 1004MOL0     C32417   1.456   1.890  11.295  0.9120 -0.4456  0.3677
 1004MOL0     C32418   1.307   1.858  11.315  0.6324 -0.7546  0.5056
 1004MOL0     C32419   1.211   1.958  11.254 -0.3211  0.1495  0.2423
 1004MOL0     O32420   1.078   1.919  11.283  0.2551 -0.3047 -0.5242
 1004MOL0     C32421   0.978   1.977  11.216  0.2065  0.4607 -0.1998
 1004MOL0     C32422   0.854   1.912  11.215  0.6146 -0.3861  0.3111
 1004MOL0     C32423   0.745   1.986  11.157  0.3992 -0.0336 -0.8218
 1004MOL0     C32424   0.761   2.116  11.101 -0.1662 -0.0131 -0.0791
 1004MOL0     C32425   0.639   2.176  11.057  0.5277  0.9700 -1.7483
 1004MOL0     O32426   0.522   2.095  11.061 -0.1427  0.1896  0.0501
 1004MOL0     C32427   0.407   2.154  11.086 -0.1662 -0.3642 -0.3487
 1004MOL0     C32428   0.355   2.259  11.005 -0.0853  0.6522 -0.3282
 1004MOL0     C32429   0.240   2.325  11.038  0.5386  0.6190  0.2767
 1004MOL0     C32430   0.169   2.288  11.152  0.0043  0.2396  0.3250
 1004MOL0     O32431   0.045   2.342  11.152  0.3786  0.8305 -0.3486
 1004MOL0     C32432  -0.045   2.308  11.259 -0.9039  0.2597 -0.0233
 1004MOL0     C32433  -0.180   2.367  11.245  0.2114  1.1382  0.9519
 1004MOL0     C32434  -0.282   2.321  11.359 -0.6600 -0.4692  0.7450
 1004MOL0     C32435  -0.409   2.407  11.351 -0.6374 -0.3972 -0.3809
 1004MOL0     C32436  -0.505   2.351  11.449  0.7768  0.4782 -0.6303
 1004MOL0     C32437  -0.631   2.442  11.445 -0.2907  0.4746 -0.1118
 1004MOL0     C32438  -0.746   2.384  11.514 -0.7273 -0.1319  0.2157
 1004MOL0     C32439  -0.873   2.440  11.455 -0.1327 -0.3642  0.2466
 1004MOL0    Cl32440  -0.995   2.449  11.583 -0.1655  0.0223  0.3925
 1004MOL0     C32441   0.211   2.182  11.230 -0.5754 -0.1934  0.4096
 1004MOL0     C32442   0.329   2.116  11.197 -0.2481 -0.3244  0.1963
 1004MOL0     O32443   0.646   2.293  11.015  0.0755 -0.4543 -0.4841
 1004MOL0     C32444   0.885   2.169  11.097 -0.9306 -0.0595 -0.5726
 1004MOL0     C32445   0.992   2.106  11.161 -0.1581 -0.5144 -0.0696
 1004MOL0     N32446   1.714   2.076  11.463  0.7959  0.0340  0.3604
 1004MOL0     N32447   1.830   2.101  11.433  0.0326  0.3069  0.2755
 1004MOL0     C32448   2.950   2.243  10.845  0.1519  0.9674 -0.2558
 1004MOL0     C32449   3.087   2.254  10.876  0.4155 -0.4388 -0.1691
 1004MOL0     C32450   3.474   2.222  11.145 -0.1350  0.0408  0.0613
 1004MOL0     C32451   3.546   2.192  11.030  0.6386  0.1261  0.3011
 1004MOL0     C32452   3.679   2.174  11.028  0.4635 -0.6700  0.0088
 1004MOL0     C32453   3.752   2.190  11.146  0.5131 -0.7072 -0.1003
 1004MOL0     O32454   3.889   2.184  11.141 -0.7483  0.1488 -0.2379
 1004MOL0     C32455   3.955   2.074  11.214  0.5854  0.9112  0.2293
 1004MOL0     C32456   4.027   1.981  11.119 -0.1342 -0.1767 -0.2991
 1004MOL0     C32457   4.128   1.880  11.196 -0.0462 -0.4595  0.8851
 1004MOL0     C32458   4.256   1.856  11.109  1.3089 -0.7633 -0.2046
 1004MOL0     C32459   4.322   1.732  11.160 -0.0472 -0.1760  0.1890
 1004MOL0     C32460   4.348   1.627  11.197  0.2732  0.9138 -0.7676
 1004MOL0     C32461   3.686   2.218  11.269 -0.1632  0.5819  0.3408
 1004MOL0     C32462   3.547   2.236  11.260  0.6374 -0.8897  0.9606
 1004MOL0     H32463   3.069   2.182  11.202  2.2217 -1.8093 -1.2980
 1004MOL0     H32464   2.824   2.166  11.149  0.3218  1.8663  1.8152
 1004MOL0     H32465   2.539   2.170  10.925  0.6167 -0.7128 -1.6278
 1004MOL0     H32466   2.618   2.234  11.070 -3.1799  0.2454 -0.5528
 1004MOL0     H32467   2.726   1.970  11.066 -1.4266 -2.3250  2.4596
 1004MOL0     H32468   2.603   1.954  10.948 -0.2960  0.6521 -0.1882
 1004MOL0     H32469   2.548   2.037  11.224  0.2965  1.0025 -1.2398
 1004MOL0     H32470   2.522   1.881  11.160  1.1196 -0.0133 -0.5004
 1004MOL0     H32471   2.371   2.130  11.065 -2.2068  1.0142  4.2107
 1004MOL0     H32472   2.373   1.978  10.977 -0.3527 -0.2540  0.4230
 1004MOL0     H32473   2.254   2.033  11.261 -1.5546 -3.5036  2.1376
 1004MOL0     H32474   2.256   1.884  11.171 -3.0797  0.5401 -2.8896
 1004MOL0     H32475   2.150   1.958  10.979  3.4731 -0.1198  0.4636
 1004MOL0     H32476   2.153   2.126  11.038  1.8348  0.3423  1.0459
 1004MOL0     H32477   1.934   1.968  11.070 -4.3259  0.6572  3.3763
 1004MOL0     H32478   2.011   1.930  11.224  2.9710  1.0793  0.2784
 1004MOL0     H32479   1.938   2.211  11.150 -1.1678  1.0910  0.5376
 1004MOL0     H32480   2.035   2.157  11.286  0.1656  1.3989 -1.6127
 1004MOL0     H32481   1.683   2.087  11.137  3.5878 -4.0160 -1.3343
 1004MOL0     H32482   1.447   2.102  11.279  0.2998 -0.6653  0.1345
 1004MOL0     H32483   1.456   2.047  11.450  4.9847  0.5728  1.6202
 1004MOL0     H32484   1.518   1.822  11.353  3.1747 -0.1877 -1.5992
 1004MOL0     H32485   1.495   1.881  11.193  2.4342 -0.3493  0.9163
 1004MOL0     H32486   1.287   1.761  11.269 -0.7643 -0.0295 -0.4881
 1004MOL0     H32487   1.277   1.850  11.419  0.7060  1.6176  0.7635
 1004MOL0     H32488   1.227   1.958  11.146 -1.3475 -2.6597  0.0116
 1004MOL0     H32489   1.226   2.060  11.289  2.6253 -0.7689  2.0172
 1004MOL0     H32490   0.838   1.809  11.248  1.1112 -0.2732  0.9217
 1004MOL0     H32491   0.660   1.919  11.167  2.5709 -2.6828  2.0102
 1004MOL0     H32492   0.413   2.282  10.916  0.9889 -0.4366  0.0676
 1004MOL0     H32493   0.211   2.405  10.969 -0.1669 -1.1764 -1.6149
 1004MOL0     H32494  -0.001   2.338  11.355  1.5215  0.1213 -1.0102
 1004MOL0     H32495  -0.061   2.200  11.272 -0.4885  0.1307 -0.5632
 1004MOL0     H32496  -0.210   2.342  11.143  1.4982  2.6823  0.1447
 1004MOL0     H32497  -0.149   2.471  11.256 -0.8692  1.4093  1.5304
 1004MOL0     H32498  -0.235   2.339  11.456 -1.2361  2.0674  0.6281
 1004MOL0     H32499  -0.312   2.219  11.332 -1.1272 -0.6917  2.0239
 1004MOL0     H32500  -0.373   2.507  11.377  1.1711 -1.6955  2.5710
 1004MOL0     H32501  -0.446   2.422  11.249 -1.6330  0.0735  0.0390
 1004MOL0     H32502  -0.465   2.348  11.552 -1.0282 -0.0312  0.0888
 1004MOL0     H32503  -0.535   2.250  11.421 -3.4453 -0.1431  4.5213
 1004MOL0     H32504  -0.651   2.457  11.339  1.1957 -3.1858 -1.0463
 1004MOL0     H32505  -0.617   2.539  11.493 -0.3189 -0.4531  1.8878
 1004MOL0     H32506  -0.737   2.275  11.499  3.4448 -0.1398  1.4776
 1004MOL0     H32507  -0.745   2.401  11.622 -4.0906 -0.9000  0.4734
 1004MOL0     H32508  -0.906   2.376  11.372  1.9307  0.5118 -1.3334
 1004MOL0     H32509  -0.856   2.537  11.406  0.1055 -0.3975  0.2632
 1004MOL0     H32510   0.144   2.143  11.305  0.1680  1.0768  1.7684
 1004MOL0     H32511   0.352   2.023  11.250 -1.1117  0.7211  2.5601
 1004MOL0     H32512   0.904   2.267  11.054  2.1853  0.0741  0.8598
 1004MOL0     H32513   1.087   2.158  11.174  0.1681 -0.7800 -1.2575
 1004MOL0     H32514   2.927   2.254  10.740  0.6786  2.4867 -0.2402
 1004MOL0     H32515   3.151   2.266  10.789 -0.2032 -1.9972 -0.8786
 1004MOL0     H32516   3.499   2.181  10.932  0.6245  0.3434  0.2822
 1004MOL0     H32517   3.732   2.138  10.941  0.2581 -0.7692 -0.0762
 1004MOL0     H32518   3.894   2.013  11.281  1.6605 -2.9552 -2.0538
 1004MOL0     H32519   4.030   2.111  11.284  1.0558 -0.2712  0.3672
 1004MOL0     H32520   3.947   1.929  11.067  0.1831  0.1836 -1.1589
 1004MOL0     H32521   4.080   2.046  11.049 -0.8852 -0.3047 -0.9996
 1004MOL0     H32522   4.071   1.792  11.226 -0.4670 -0.3708  0.3585
 1004MOL0     H32523   4.164   1.930  11.286  1.6026 -0.7258  0.4259
 1004MOL0     H32524   4.220   1.832  11.008 -2.2365 -0.0455  0.7696
 1004MOL0     H32525   4.332   1.934  11.108  1.0890 -0.4426 -3.1807
 1004MOL0     H32526   4.363   1.527  11.233  0.9464  0.9745 -0.8689
 1004MOL0     H32527   3.738   2.219  11.364  0.2379  0.8140  0.1206
 1004MOL0     H32528   3.498   2.263  11.353 -1.1859  1.4969 -0.5702
 1005MOL0     O32529   4.271   5.902   1.104 -0.0226 -0.2006 -0.2295
 1005MOL0     C32530   4.352   5.996   1.089  0.3248 -0.1776 -0.6865
 1005MOL0     O32531   4.318   6.132   1.074 -0.5155  0.3997  0.3531
 1005MOL0     C32532   4.191   6.179   1.107 -0.1462 -0.9666  0.2670
 1005MOL0     C32533   4.091   6.120   1.191 -0.3117  0.6791  0.3801
 1005MOL0     C32534   3.969   6.183   1.209 -0.9578 -0.1851  0.0683
 1005MOL0     C32535   3.949   6.301   1.137 -0.1101 -0.7094 -0.1557
 1005MOL0     O32536   3.833   6.366   1.165  0.2320  0.2081 -0.4280
 1005MOL0     C32537   3.809   6.417   1.295 -0.5640 -0.7271  0.5919
 1005MOL0     C32538   3.670   6.478   1.317 -1.3682  0.8346  0.6460
 1005MOL0     C32539   3.583   6.373   1.386  0.1148 -0.5685 -0.3490
 1005MOL0     C32540   3.446   6.435   1.377  0.5760 -0.1474  0.3767
 1005MOL0     C32541   3.346   6.349   1.463  1.4086 -0.1797  0.0628
 1005MOL0     C32542   3.204   6.402   1.451  1.8950 -0.2251  0.5521
 1005MOL0     C32543   3.099   6.302   1.514 -0.8603  0.1529  0.4596
 1005MOL0     C32544   2.955   6.343   1.470  0.3639  0.3880  0.8403
 1005MOL0     N32545   2.850   6.256   1.513  0.3058 -0.1542 -0.4743
 1005MOL0     C32546   2.722   6.287   1.482 -0.3129 -0.6120 -0.1546
 1005MOL0     C32547   2.649   6.182   1.521  0.2514  0.4393  0.3671
 1005MOL0     C32548   2.497   6.171   1.497 -0.0804 -0.3148  0.4998
 1005MOL0     C32549   2.450   6.025   1.501 -0.7960 -0.0990  0.1122
 1005MOL0     C32550   2.301   6.010   1.503  1.8021 -0.1097 -0.4142
 1005MOL0     C32551   2.266   5.871   1.534 -0.5905  1.1065  1.1068
 1005MOL0     O32552   2.127   5.832   1.521  0.4787 -0.8060  0.3967
 1005MOL0     C32553   2.062   5.814   1.638  0.0516 -0.5876  0.2863
 1005MOL0     C32554   1.939   5.755   1.623  0.1412  0.1433  0.2517
 1005MOL0     C32555   1.859   5.736   1.735  0.5777 -0.3051  0.5726
 1005MOL0     C32556   1.897   5.776   1.860 -0.1341 -0.2491 -0.2563
 1005MOL0     C32557   1.806   5.774   1.979 -0.2535 -0.3755  1.3232
 1005MOL0     O32558   1.692   5.700   1.952  0.3413 -0.4445 -0.2771
 1005MOL0     C32559   1.610   5.679   2.063  0.2019  0.1008 -0.0047
 1005MOL0     C32560   1.642   5.585   2.167  0.3153 -0.2525  0.8210
 1005MOL0     C32561   1.560   5.577   2.279  0.2463  0.4104  0.2621
 1005MOL0     C32562   1.431   5.631   2.277  0.4809  0.0656 -0.4133
 1005MOL0     O32563   1.352   5.598   2.381  0.1816  0.4412  0.4254
 1005MOL0     C32564   1.308   5.721   2.451 -0.9249  0.9016  0.3792
 1005MOL0     C32565   1.186   5.688   2.529 -0.6189  0.1968 -0.2770
 1005MOL0     C32566   1.087   5.605   2.449  0.0423  1.1662 -0.6308
 1005MOL0     C32567   0.954   5.615   2.528 -0.0174 -0.3163 -0.6241
 1005MOL0     C32568   0.857   5.535   2.447  0.9140  0.2055 -0.1210
 1005MOL0     C32569   0.713   5.576   2.467 -0.8510  0.4271  0.4712
 1005MOL0     C32570   0.674   5.532   2.610 -0.6952  0.7074 -0.1796
 1005MOL0     C32571   0.528   5.506   2.632  0.0539  0.9956 -0.6590
 1005MOL0    Cl32572   0.417   5.635   2.600 -0.0977  0.1042  0.3105
 1005MOL0     C32573   1.400   5.727   2.181 -0.0840 -0.1024  0.5509
 1005MOL0     C32574   1.491   5.755   2.079  0.9524  0.4728 -0.6289
 1005MOL0     O32575   1.843   5.816   2.084 -0.1813  0.1671 -1.1499
 1005MOL0     C32576   2.026   5.832   1.869 -0.0662 -0.7005 -0.9774
 1005MOL0     C32577   2.108   5.856   1.764 -0.6852 -0.0211  0.4731
 1005MOL0     N32578   2.734   6.083   1.576 -1.2795  0.5063  0.3469
 1005MOL0     N32579   2.861   6.136   1.567  0.3087 -0.8274  0.0549
 1005MOL0     C32580   4.047   6.360   1.061  0.4204 -0.2246  0.4630
 1005MOL0     C32581   4.169   6.303   1.048  0.4013  0.9939  0.7142
 1005MOL0     C32582   4.493   5.961   1.074 -0.0774 -1.1664  0.2672
 1005MOL0     C32583   4.588   6.064   1.071  0.6858 -0.1966 -0.6620
 1005MOL0     C32584   4.726   6.041   1.072  0.5967 -0.2872 -0.6515
 1005MOL0     C32585   4.782   5.910   1.074 -0.8194  0.0414 -0.3368
 1005MOL0     O32586   4.915   5.877   1.079 -0.0085  0.3551 -0.5015
 1005MOL0     C32587   5.009   5.980   1.049 -0.8906 -0.2227 -0.9400
 1005MOL0     C32588   5.138   5.919   0.977  0.1847 -0.2510 -1.0029
 1005MOL0     C32589   5.242   6.038   0.942  1.3393 -0.0719  0.7511
 1005MOL0     C32590   5.297   6.120   1.056  0.4442  0.7965 -0.9468
 1005MOL0     C32591   5.414   6.200   1.009  0.3593  0.0603  0.3462
 1005MOL0     C32592   5.496   6.275   0.956  0.6681 -0.4700  0.8406
 1005MOL0     C32593   4.685   5.803   1.083  0.5137 -0.0219 -0.0198
 1005MOL0     C32594   4.546   5.833   1.073 -0.0131 -0.0548  0.0168
 1005MOL0     H32595   4.122   6.032   1.246  5.2339  0.1658 -2.8392
 1005MOL0     H32596   3.893   6.135   1.269  0.6543 -1.9441  0.7839
 1005MOL0     H32597   3.884   6.490   1.325 -0.8581 -0.9057  1.8179
 1005MOL0     H32598   3.821   6.332   1.363  0.0236 -1.4067 -0.3365
 1005MOL0     H32599   3.620   6.508   1.225  0.0340  1.8079  0.1794
 1005MOL0     H32600   3.685   6.563   1.385  2.4991  1.2938 -0.5257
 1005MOL0     H32601   3.606   6.357   1.492 -1.3452  3.2898  0.7439
 1005MOL0     H32602   3.577   6.280   1.330 -1.9410  1.1395 -3.2225
 1005MOL0     H32603   3.437   6.538   1.412 -1.1692  0.2838 -1.1690
 1005MOL0     H32604   3.413   6.434   1.272 -1.4078 -0.5699  0.9670
 1005MOL0     H32605   3.375   6.359   1.568  0.7807  1.0518  0.1345
 1005MOL0     H32606   3.354   6.248   1.422  1.1265 -0.4332  0.6044
 1005MOL0     H32607   3.182   6.422   1.346  0.6319 -0.9947  0.6448
 1005MOL0     H32608   3.201   6.498   1.504 -1.5136  0.5773 -0.8462
 1005MOL0     H32609   3.127   6.201   1.482  2.5749  1.1050  0.0750
 1005MOL0     H32610   3.099   6.298   1.624 -0.9103 -0.6215  0.4412
 1005MOL0     H32611   2.957   6.348   1.361  1.8686  0.1561  0.8402
 1005MOL0     H32612   2.941   6.448   1.496 -1.4953  0.7575 -1.3505
 1005MOL0     H32613   2.690   6.377   1.430  0.0605 -0.3039  0.1469
 1005MOL0     H32614   2.476   6.226   1.405 -1.1831  3.4341  2.7803
 1005MOL0     H32615   2.438   6.222   1.573  1.0975  0.8135  0.6889
 1005MOL0     H32616   2.489   5.980   1.592  0.4714  1.5331  0.4282
 1005MOL0     H32617   2.497   5.970   1.419  1.2075  1.2962  0.2567
 1005MOL0     H32618   2.274   6.093   1.570  2.6559  0.0490 -0.2459
 1005MOL0     H32619   2.255   6.030   1.406  0.0324 -1.7633  0.0231
 1005MOL0     H32620   2.314   5.834   1.625  0.3828 -0.0937  0.1436
 1005MOL0     H32621   2.313   5.814   1.454 -2.0570 -1.2056  1.7908
 1005MOL0     H32622   1.908   5.733   1.521 -0.6932  1.4673  0.2032
 1005MOL0     H32623   1.757   5.701   1.724  0.1492  0.9291  0.4563
 1005MOL0     H32624   1.724   5.514   2.159  2.1473  1.7118  0.8987
 1005MOL0     H32625   1.598   5.503   2.350 -2.7828 -1.1211  0.4503
 1005MOL0     H32626   1.268   5.793   2.379 -1.2541 -1.3926 -1.8878
 1005MOL0     H32627   1.390   5.760   2.513  2.2471 -1.3068 -2.0785
 1005MOL0     H32628   1.139   5.783   2.555  0.7815  0.8902 -0.2243
 1005MOL0     H32629   1.212   5.642   2.625 -1.9920  1.0379  0.5270
 1005MOL0     H32630   1.126   5.503   2.448 -1.5588  0.5381 -0.4360
 1005MOL0     H32631   1.081   5.645   2.348 -0.2680  1.6890 -0.4079
 1005MOL0     H32632   0.966   5.578   2.630 -0.7635  0.9422 -0.0550
 1005MOL0     H32633   0.926   5.720   2.544 -0.8920 -0.4119 -1.4194
 1005MOL0     H32634   0.856   5.426   2.454 -1.7601  0.1027 -1.0208
 1005MOL0     H32635   0.882   5.555   2.343 -0.3122 -2.9986 -1.1445
 1005MOL0     H32636   0.651   5.521   2.396 -3.0649  0.4727  2.2594
 1005MOL0     H32637   0.701   5.684   2.455 -1.1278  0.5053  1.3462
 1005MOL0     H32638   0.718   5.432   2.610 -3.8223 -0.8328 -1.3569
 1005MOL0     H32639   0.719   5.595   2.686  0.7977 -0.2950 -0.1974
 1005MOL0     H32640   0.517   5.461   2.731  0.0175  1.1959 -0.5707
 1005MOL0     H32641   0.495   5.423   2.569 -3.3193 -1.5810  3.9641
 1005MOL0     H32642   1.298   5.764   2.176  0.4544  1.2855 -2.5260
 1005MOL0     H32643   1.451   5.832   2.014 -1.8918 -0.0572  0.3595
 1005MOL0     H32644   2.055   5.861   1.969  0.9385 -1.1474 -1.1241
 1005MOL0     H32645   2.203   5.907   1.774 -0.2672 -0.6049 -0.3360
 1005MOL0     H32646   4.025   6.449   1.003  0.5464  0.7379  1.8414
 1005MOL0     H32647   4.245   6.349   0.986 -0.0783 -0.3852 -0.9617
 1005MOL0     H32648   4.547   6.164   1.076 -2.8953 -1.5878  2.7557
 1005MOL0     H32649   4.787   6.130   1.058 -0.4364  0.6755  0.7059
 1005MOL0     H32650   5.043   6.031   1.140 -0.6616  1.9103 -2.1553
 1005MOL0     H32651   4.971   6.052   0.976 -0.7953 -0.6989 -1.4661
 1005MOL0     H32652   5.181   5.833   1.029  2.1945  0.0219 -2.1016
 1005MOL0     H32653   5.092   5.862   0.895 -2.3450  0.4796 -0.1791
 1005MOL0     H32654   5.185   6.101   0.874  1.5713 -2.8887 -2.3151
 1005MOL0     H32655   5.318   5.992   0.878  1.3955  0.3854  0.4843
 1005MOL0     H32656   5.219   6.191   1.084 -0.8399 -0.0163 -2.3053
 1005MOL0     H32657   5.319   6.069   1.150 -0.4576  0.9509 -0.6365
 1005MOL0     H32658   5.538   6.357   0.902 -1.7710  0.6481  0.4917
 1005MOL0     H32659   4.713   5.698   1.079 -1.0184 -0.5485  1.6808
 1005MOL0     H32660   4.472   5.754   1.079 -0.3156  0.2428  0.2151
 1006MOL0     O32661   9.279   5.268  11.263  0.1662 -0.1547  0.3326
 1006MOL0     C32662   9.294   5.386  11.293  0.9715 -0.4448 -0.6863
 1006MOL0     O32663   9.415   5.438  11.342  0.3185 -0.7783  0.3329
 1006MOL0     C32664   9.508   5.340  11.379  1.1643  0.2038  0.5432
 1006MOL0     C32665   9.622   5.334  11.304  0.0760  0.5272  1.0680
 1006MOL0     C32666   9.729   5.252  11.349  1.3122  0.3444  0.6321
 1006MOL0     C32667   9.709   5.173  11.461  0.4067  0.2056 -0.1337
 1006MOL0     O32668   9.804   5.080  11.498 -0.3599 -0.6008  0.2114
 1006MOL0     C32669   9.898   5.110  11.602  0.3135 -0.9273  0.8681
 1006MOL0     C32670  10.031   5.177  11.577  0.0788 -0.1901  0.3437
 1006MOL0     C32671  10.138   5.104  11.662  0.4795 -0.1883 -0.1756
 1006MOL0     C32672  10.278   5.164  11.617  0.2869 -0.3194 -0.9195
 1006MOL0     C32673  10.411   5.106  11.679 -0.6082  0.2251 -0.1624
 1006MOL0     C32674  10.411   4.950  11.665 -1.2841  0.2803 -0.3432
 1006MOL0     C32675  10.543   4.882  11.695  0.1331 -0.2685  0.0950
 1006MOL0     C32676  10.553   4.732  11.646 -0.1217 -0.2763  0.1174
 1006MOL0     N32677  10.661   4.654  11.717  0.8952 -0.7052 -0.4884
 1006MOL0     C32678  10.635   4.537  11.787 -0.4833 -0.6296 -0.6917
 1006MOL0     C32679  10.752   4.494  11.831  0.6324 -0.0362  0.1297
 1006MOL0     C32680  10.774   4.367  11.901 -0.1931  0.3894 -1.2174
 1006MOL0     C32681  10.742   4.378  12.053  0.8132  0.3060  0.4863
 1006MOL0     C32682  10.843   4.469  12.131 -0.0260  0.0559  0.0212
 1006MOL0     C32683  10.791   4.494  12.269  0.1026  0.1547  0.7079
 1006MOL0     O32684  10.839   4.614  12.334  0.4757  0.3554 -0.3778
 1006MOL0     C32685  10.942   4.622  12.417 -0.6241 -0.0130  0.2940
 1006MOL0     C32686  11.040   4.522  12.432 -0.2507 -0.3137  0.0868
 1006MOL0     C32687  11.153   4.546  12.524 -0.5200 -0.1987 -0.0356
 1006MOL0     C32688  11.151   4.660  12.600  0.5009  0.3562  0.0422
 1006MOL0     C32689  11.267   4.685  12.691  0.2113  0.1222 -0.5521
 1006MOL0     O32690  11.272   4.819  12.731  0.3603  0.7359 -0.0073
 1006MOL0     C32691  11.392   4.840  12.795  0.1670 -0.7383 -0.0501
 1006MOL0     C32692  11.407   4.859  12.937  0.1848 -0.2965  0.5649
 1006MOL0     C32693  11.534   4.862  12.996 -0.6197 -0.3958 -0.5717
 1006MOL0     C32694  11.653   4.867  12.930 -0.2212  0.2485 -0.5399
 1006MOL0     O32695  11.776   4.863  12.979 -0.6942 -0.1532  1.2540
 1006MOL0     C32696  11.829   4.984  13.046 -0.2562  0.3010  0.3299
 1006MOL0     C32697  11.970   5.035  12.987 -0.2385 -0.4264  0.4935
 1006MOL0     C32698  12.079   4.934  13.016  0.0050 -0.0330 -0.8568
 1006MOL0     C32699  12.225   4.975  12.982  0.6794  0.6163  0.2041
 1006MOL0     C32700  12.274   5.104  13.035 -0.5160  0.2612  0.0612
 1006MOL0     C32701  12.421   5.145  13.005  1.0498 -0.2866 -0.1806
 1006MOL0     C32702  12.455   5.173  12.851  0.3709  1.0925  0.0949
 1006MOL0     C32703  12.586   5.112  12.816  0.3793  0.6642  1.2482
 1006MOL0    Cl32704  12.645   5.169  12.656  0.2617  0.5606  0.0893
 1006MOL0     C32705  11.633   4.873  12.786 -0.2303  0.1346  0.2033
 1006MOL0     C32706  11.514   4.848  12.720 -0.4605  0.1198  0.4554
 1006MOL0     O32707  11.342   4.589  12.724 -0.2713 -0.0755 -0.4225
 1006MOL0     C32708  11.049   4.760  12.582  0.0139  0.1888  0.5828
 1006MOL0     C32709  10.944   4.735  12.500 -0.7631 -0.9076  0.4452
 1006MOL0     N32710  10.852   4.569  11.775  0.0232  0.0110 -1.4467
 1006MOL0     N32711  10.797   4.661  11.705 -0.1623  0.1086 -0.3840
 1006MOL0     C32712   9.596   5.181  11.537  0.1581  0.5311  0.6499
 1006MOL0     C32713   9.493   5.272  11.496 -0.9189  0.0896 -0.2242
 1006MOL0     C32714   9.182   5.481  11.252  0.3021  0.6129 -0.9338
 1006MOL0     C32715   9.059   5.431  11.204  0.5537 -0.4703 -0.1368
 1006MOL0     C32716   8.952   5.512  11.195 -0.4756 -0.6143  0.2427
 1006MOL0     C32717   8.959   5.650  11.242 -0.2850 -0.3418  0.1828
 1006MOL0     O32718   8.852   5.736  11.232  0.1500  1.0224 -0.3125
 1006MOL0     C32719   8.721   5.699  11.197  0.2213  0.5193 -0.3213
 1006MOL0     C32720   8.658   5.601  11.296  0.4158 -0.2391 -0.6450
 1006MOL0     C32721   8.515   5.557  11.259 -0.4965  0.2234 -0.3471
 1006MOL0     C32722   8.457   5.484  11.374  0.5830 -0.0881  0.6267
 1006MOL0     C32723   8.340   5.405  11.329 -0.0336  0.6859 -0.7168
 1006MOL0     C32724   8.253   5.344  11.277  0.1580 -0.2361  0.0337
 1006MOL0     C32725   9.079   5.696  11.278 -0.1348 -0.7268 -0.6017
 1006MOL0     C32726   9.195   5.613  11.290 -1.6410 -0.4249 -0.9813
 1006MOL0     H32727   9.630   5.390  11.211 -0.9061  1.0434  1.2710
 1006MOL0     H32728   9.824   5.251  11.296 -0.0697 -1.6007 -2.0218
 1006MOL0     H32729   9.913   5.021  11.664  3.7514 -1.2721 -0.2490
 1006MOL0     H32730   9.845   5.177  11.670  1.5415 -0.3085  1.2602
 1006MOL0     H32731  10.023   5.284  11.597  1.3939  0.1934 -0.9675
 1006MOL0     H32732  10.057   5.161  11.472  0.1768  0.7793  0.2140
 1006MOL0     H32733  10.137   4.999  11.632  1.5169  0.7483 -3.9807
 1006MOL0     H32734  10.116   5.118  11.769 -2.0774  0.5458 -0.7171
 1006MOL0     H32735  10.283   5.154  11.508 -1.4902  0.3664 -1.0897
 1006MOL0     H32736  10.277   5.271  11.641 -0.6106 -0.9155  2.0614
 1006MOL0     H32737  10.423   5.131  11.785  1.7026 -0.2709 -0.2702
 1006MOL0     H32738  10.494   5.148  11.622 -0.2108  2.7949  2.0596
 1006MOL0     H32739  10.384   4.924  11.562 -2.3522 -1.3969  0.3157
 1006MOL0     H32740  10.341   4.907  11.737 -0.3434  2.8253  2.2867
 1006MOL0     H32741  10.630   4.934  11.655 -2.6019  3.1683 -1.9189
 1006MOL0     H32742  10.553   4.880  11.804 -1.6332  0.4512  0.3033
 1006MOL0     H32743  10.551   4.721  11.538 -0.0176 -1.4814  0.2339
 1006MOL0     H32744  10.459   4.678  11.662 -0.5657  0.1164 -1.0891
 1006MOL0     H32745  10.536   4.502  11.813 -0.4734 -0.3115 -0.2302
 1006MOL0     H32746  10.877   4.330  11.902 -0.9768 -1.9368 -0.9866
 1006MOL0     H32747  10.715   4.286  11.858  0.6132 -1.5724  1.1808
 1006MOL0     H32748  10.759   4.277  12.091 -0.8195 -1.3646 -2.7630
 1006MOL0     H32749  10.641   4.417  12.069  0.7690  0.7948 -0.8581
 1006MOL0     H32750  10.946   4.433  12.125  0.5592  1.5681  0.5723
 1006MOL0     H32751  10.856   4.563  12.077  2.8920  0.4132  1.1500
 1006MOL0     H32752  10.807   4.400  12.323 -0.7390 -0.1697  0.4008
 1006MOL0     H32753  10.685   4.519  12.267 -0.0525 -0.5373 -0.9852
 1006MOL0     H32754  11.032   4.429  12.376  2.7648 -0.0307 -1.0022
 1006MOL0     H32755  11.216   4.458  12.535 -2.6455 -2.1164 -1.9464
 1006MOL0     H32756  11.307   4.848  12.978 -1.2628  1.6003 -2.1303
 1006MOL0     H32757  11.552   4.868  13.103 -0.9963 -0.2440 -0.5180
 1006MOL0     H32758  11.845   4.966  13.153  1.0735  4.3145  0.9859
 1006MOL0     H32759  11.758   5.067  13.041 -0.4698  0.3481  2.8541
 1006MOL0     H32760  12.008   5.126  13.032  0.2760 -2.3967  4.4227
 1006MOL0     H32761  11.957   5.038  12.878 -0.6278 -1.1522  0.5128
 1006MOL0     H32762  12.056   4.847  12.954  0.0719 -0.2003 -0.6469
 1006MOL0     H32763  12.076   4.891  13.116  1.2616  1.2771 -0.2282
 1006MOL0     H32764  12.299   4.900  13.014  1.9153  0.1515 -3.2979
 1006MOL0     H32765  12.228   4.961  12.874 -1.4998 -0.4407  0.2200
 1006MOL0     H32766  12.267   5.114  13.144 -0.5123  2.5626 -0.1050
 1006MOL0     H32767  12.222   5.188  12.988  1.9276  2.2718  0.7203
 1006MOL0     H32768  12.483   5.063  13.042  0.0851 -0.2999  1.5145
 1006MOL0     H32769  12.443   5.235  13.063 -3.8016 -1.0086  3.4576
 1006MOL0     H32770  12.372   5.127  12.796  1.8298 -1.1055 -0.3824
 1006MOL0     H32771  12.462   5.281  12.837 -1.6968  1.1188 -1.2619
 1006MOL0     H32772  12.586   5.003  12.805 -1.7460  0.8832 -2.5250
 1006MOL0     H32773  12.660   5.133  12.894  1.4589  0.2890  0.3588
 1006MOL0     H32774  11.724   4.885  12.728  1.2012  0.2497  2.3379
 1006MOL0     H32775  11.512   4.843  12.612 -1.9458 -0.8913  0.5107
 1006MOL0     H32776  11.056   4.850  12.643 -0.4445 -0.8786  2.2764
 1006MOL0     H32777  10.874   4.817  12.490 -0.7275 -1.0114 -0.8341
 1006MOL0     H32778   9.570   5.122  11.624  1.1824 -1.2225 -0.1685
 1006MOL0     H32779   9.404   5.282  11.557 -0.8062  1.7141 -0.2988
 1006MOL0     H32780   9.046   5.328  11.173 -0.8910  0.6310 -3.7478
 1006MOL0     H32781   8.859   5.474  11.153 -2.1182  2.6806  0.5634
 1006MOL0     H32782   8.723   5.646  11.101  0.8465 -1.8960  0.9502
 1006MOL0     H32783   8.657   5.787  11.187 -0.2533  0.0586 -1.5019
 1006MOL0     H32784   8.725   5.515  11.309 -0.1188 -0.7742 -1.3543
 1006MOL0     H32785   8.657   5.646  11.395 -1.3229 -1.5301 -0.0259
 1006MOL0     H32786   8.517   5.491  11.172  1.5231 -0.6033  0.2842
 1006MOL0     H32787   8.457   5.647  11.237 -1.7373 -0.7332 -1.1912
 1006MOL0     H32788   8.533   5.423  11.423  2.1921  1.9177  0.7429
 1006MOL0     H32789   8.427   5.559  11.447  0.3477 -0.9178  1.4041
 1006MOL0     H32790   8.179   5.287  11.226  1.2784  0.6943 -2.8557
 1006MOL0     H32791   9.089   5.803  11.292 -0.0928 -0.0202 -4.8858
 1006MOL0     H32792   9.289   5.647  11.332 -1.8133 -1.2818  0.1324
 1007MOL0     O32793  10.422  10.416  10.196  0.8831  0.3783 -0.2799
 1007MOL0     C32794  10.478  10.500  10.131  1.0716  0.3761 -0.0819
 1007MOL0     O32795  10.431  10.561  10.019  0.6321  0.1699 -0.5386
 1007MOL0     C32796  10.303  10.536   9.969 -0.2505  0.4953  0.9189
 1007MOL0     C32797  10.187  10.486  10.028  0.0617 -1.1881  0.0941
 1007MOL0     C32798  10.061  10.488   9.965 -0.2665  0.2754 -0.1620
 1007MOL0     C32799  10.050  10.530   9.835  0.1943  0.0277 -0.0272
 1007MOL0     O32800   9.930  10.538   9.754 -0.4261 -0.1847 -0.3386
 1007MOL0     C32801   9.842  10.426   9.763  0.5650 -0.3537  0.1995
 1007MOL0     C32802   9.749  10.459   9.638 -0.1785 -0.3093  0.2656
 1007MOL0     C32803   9.624  10.367   9.639 -0.1645  0.1013 -0.5297
 1007MOL0     C32804   9.516  10.407   9.535 -0.5806  0.4894  0.0953
 1007MOL0     C32805   9.391  10.325   9.544 -0.2839  0.0952  0.4320
 1007MOL0     C32806   9.312  10.342   9.674  0.4693 -0.3479  0.2201
 1007MOL0     C32807   9.176  10.272   9.659  0.1334  0.3737 -0.4539
 1007MOL0     C32808   9.071  10.287   9.768  0.4291 -0.1707 -0.9549
 1007MOL0     N32809   8.937  10.232   9.725 -0.6284 -0.6355 -0.0124
 1007MOL0     C32810   8.884  10.112   9.739 -0.4416  0.1705  0.0760
 1007MOL0     C32811   8.749  10.115   9.719  0.2673 -0.5384  0.5283
 1007MOL0     C32812   8.649  10.000   9.747 -0.0534  0.3698 -0.5462
 1007MOL0     C32813   8.515  10.039   9.809  0.1439  0.4398 -0.0495
 1007MOL0     C32814   8.423  10.099   9.711  0.1390  0.0634  0.2338
 1007MOL0     C32815   8.305  10.153   9.796 -0.6758 -0.6997 -0.2151
 1007MOL0     O32816   8.214  10.211   9.711 -0.0507  0.5298  0.2656
 1007MOL0     C32817   8.099  10.264   9.770  0.1523  0.6741  0.1800
 1007MOL0     C32818   7.991  10.284   9.682 -0.5869 -0.2728 -0.9014
 1007MOL0     C32819   7.861  10.314   9.725 -0.7612 -0.2592  0.7453
 1007MOL0     C32820   7.832  10.321   9.861  0.3255 -0.3236 -0.7384
 1007MOL0     C32821   7.699  10.363   9.909  0.2606 -0.3679 -0.0935
 1007MOL0     O32822   7.609  10.415   9.821 -0.2799 -0.6182 -0.4267
 1007MOL0     C32823   7.478  10.432   9.851  1.0639 -1.1622 -0.7798
 1007MOL0     C32824   7.406  10.561   9.836 -0.8957  0.7244 -0.1682
 1007MOL0     C32825   7.267  10.570   9.845 -0.3281 -0.8596 -0.9089
 1007MOL0     C32826   7.200  10.460   9.877 -0.2996 -0.0520  0.3928
 1007MOL0     O32827   7.063  10.462   9.874  0.0247  0.1929  0.2351
 1007MOL0     C32828   6.992  10.586   9.895 -0.0409  0.6100 -0.8183
 1007MOL0     C32829   6.843  10.573   9.902  0.0809 -0.2130 -0.3099
 1007MOL0     C32830   6.782  10.716   9.942 -0.6569  0.1477 -0.4244
 1007MOL0     C32831   6.631  10.721   9.953 -0.3777 -0.1058  0.4682
 1007MOL0     C32832   6.563  10.858   9.929 -0.3175  0.2535  0.2021
 1007MOL0     C32833   6.554  10.947  10.053 -0.3134 -0.0339  0.3826
 1007MOL0     C32834   6.555  11.097  10.018  0.2842  0.1539  0.1160
 1007MOL0     C32835   6.552  11.188  10.137  0.4807  0.2345 -0.0642
 1007MOL0    Cl32836   6.395  11.185  10.230 -0.5651  0.2366  0.3476
 1007MOL0     C32837   7.259  10.334   9.877  0.1277 -0.0194 -0.0603
 1007MOL0     C32838   7.397  10.323   9.863  0.6541  0.0831  0.0254
 1007MOL0     O32839   7.677  10.338  10.026 -0.3265  0.7115 -0.7836
 1007MOL0     C32840   7.940  10.300   9.952  0.0759  0.0654 -0.3968
 1007MOL0     C32841   8.072  10.273   9.906  1.0988 -0.6900  0.4660
 1007MOL0     N32842   8.723  10.244   9.670  0.0112 -0.3814 -0.1346
 1007MOL0     N32843   8.838  10.312   9.681 -0.8217 -0.2693 -0.1831
 1007MOL0     C32844  10.170  10.550   9.758  0.4922 -0.3242 -0.1725
 1007MOL0     C32845  10.289  10.562   9.827  0.2316  0.7955 -0.6165
 1007MOL0     C32846  10.614  10.542  10.183 -0.6777  0.7716 -0.3203
 1007MOL0     C32847  10.692  10.463  10.266 -0.2231 -0.9215  0.0087
 1007MOL0     C32848  10.816  10.504  10.307  0.0141 -0.4340  0.5164
 1007MOL0     C32849  10.863  10.629  10.277 -1.2691  0.7597 -0.0119
 1007MOL0     O32850  11.002  10.650  10.317  0.4580 -0.5286  1.2242
 1007MOL0     C32851  11.056  10.778  10.339  0.2100  0.7370  0.1415
 1007MOL0     C32852  11.172  10.785  10.441 -0.0051 -0.4910  0.6891
 1007MOL0     C32853  11.190  10.931  10.477  0.0980  0.5090 -0.0205
 1007MOL0     C32854  11.269  10.974  10.602  0.5516 -0.5865  0.0938
 1007MOL0     C32855  11.401  10.915  10.617 -0.2120  0.4720 -0.1314
 1007MOL0     C32856  11.516  10.878  10.639  0.4168  1.0650 -0.1732
 1007MOL0     C32857  10.792  10.709  10.187 -0.0903 -0.3582 -0.1679
 1007MOL0     C32858  10.669  10.669  10.147  0.2885 -0.6016  0.5461
 1007MOL0     H32859  10.180  10.443  10.128 -3.5330 -1.4402 -0.1430
 1007MOL0     H32860   9.971  10.452  10.015  0.2812  0.6157  1.1032
 1007MOL0     H32861   9.795  10.435   9.861  2.4412 -2.2017  1.3535
 1007MOL0     H32862   9.907  10.339   9.746  4.3096  2.0507  0.9820
 1007MOL0     H32863   9.806  10.456   9.544 -0.8082 -1.8092 -0.1088
 1007MOL0     H32864   9.715  10.563   9.637 -0.1523 -0.2336  2.6900
 1007MOL0     H32865   9.594  10.381   9.743 -2.6764  0.9923 -1.3242
 1007MOL0     H32866   9.648  10.260   9.630 -0.2714 -0.3860  3.2211
 1007MOL0     H32867   9.489  10.513   9.536  1.2028  1.0183 -1.5390
 1007MOL0     H32868   9.559  10.400   9.434  0.0913  1.7451  0.2675
 1007MOL0     H32869   9.414  10.219   9.527 -2.6783 -1.0247  3.3254
 1007MOL0     H32870   9.335  10.355   9.455 -2.5880 -0.4133  1.6461
 1007MOL0     H32871   9.296  10.443   9.711 -1.6160  0.4332 -2.4628
 1007MOL0     H32872   9.366  10.294   9.756  1.5778  1.6054  0.6950
 1007MOL0     H32873   9.122  10.312   9.572  2.8399  0.3490 -2.2755
 1007MOL0     H32874   9.206  10.167   9.648  0.7044 -0.4984  5.8916
 1007MOL0     H32875   9.055  10.394   9.786  0.8802 -0.3785  0.8709
 1007MOL0     H32876   9.097  10.245   9.866 -2.3878  1.6441  0.7244
 1007MOL0     H32877   8.936  10.021   9.765 -2.0968 -0.1237  2.6346
 1007MOL0     H32878   8.709   9.934   9.810  0.4690  0.3463 -1.0601
 1007MOL0     H32879   8.638   9.943   9.654  0.8370 -0.1322 -0.3527
 1007MOL0     H32880   8.540  10.120   9.879  2.8005 -0.5428  0.2401
 1007MOL0     H32881   8.475   9.952   9.862 -0.0107  0.3081 -0.3808
 1007MOL0     H32882   8.459  10.188   9.659  2.3466 -1.6491 -1.3207
 1007MOL0     H32883   8.382  10.022   9.646  0.6281 -1.5111  1.7076
 1007MOL0     H32884   8.338  10.228   9.868 -1.9789 -0.7186  0.4330
 1007MOL0     H32885   8.258  10.075   9.856 -1.7616  1.7858  2.4259
 1007MOL0     H32886   8.029  10.275   9.580  3.4497  2.5542  0.1255
 1007MOL0     H32887   7.779  10.333   9.657  0.6481  0.0670 -0.9400
 1007MOL0     H32888   7.468  10.647   9.815 -0.5166  0.2108 -1.2356
 1007MOL0     H32889   7.227  10.667   9.817  3.0601  0.2613 -2.3899
 1007MOL0     H32890   7.020  10.656   9.816  2.2799 -1.1777 -1.7049
 1007MOL0     H32891   7.037  10.633   9.983 -0.4663 -0.5138  0.0200
 1007MOL0     H32892   6.813  10.494   9.971  0.8513  0.4102  0.7718
 1007MOL0     H32893   6.805  10.538   9.806 -1.3441 -0.2220  0.2391
 1007MOL0     H32894   6.811  10.781   9.859  1.9431 -2.0671 -1.4244
 1007MOL0     H32895   6.821  10.746  10.040 -1.4395 -0.0906 -0.0251
 1007MOL0     H32896   6.599  10.652   9.874  1.1174 -0.0275 -0.2453
 1007MOL0     H32897   6.609  10.684  10.054 -0.4987 -0.9827  0.1285
 1007MOL0     H32898   6.461  10.856   9.888 -0.7690 -1.5303  1.3045
 1007MOL0     H32899   6.621  10.905   9.849  1.5159  0.0690  1.3676
 1007MOL0     H32900   6.638  10.933  10.123 -0.6512 -1.2318  0.5813
 1007MOL0     H32901   6.462  10.922  10.106  1.1805 -2.7517  1.9340
 1007MOL0     H32902   6.647  11.120   9.962  0.3093 -3.7481 -1.7513
 1007MOL0     H32903   6.472  11.132   9.956  0.4998 -0.2220 -0.3911
 1007MOL0     H32904   6.568  11.284  10.089  1.1881 -1.0047 -2.4317
 1007MOL0     H32905   6.637  11.167  10.202  1.5945  1.8768 -0.9375
 1007MOL0     H32906   7.204  10.243   9.900 -0.3187 -0.1606 -1.5879
 1007MOL0     H32907   7.438  10.223   9.879  1.6396  0.6925  1.5622
 1007MOL0     H32908   7.910  10.313  10.055 -3.4251  1.7707 -1.4670
 1007MOL0     H32909   8.153  10.245   9.972 -1.0081  0.6675  3.8789
 1007MOL0     H32910  10.160  10.584   9.655  0.7954  3.9835  1.0353
 1007MOL0     H32911  10.381  10.599   9.782  1.2273  0.5865  1.1360
 1007MOL0     H32912  10.647  10.371  10.303  0.7790 -2.4808 -2.4233
 1007MOL0     H32913  10.875  10.441  10.373  2.9336 -0.3083 -1.7779
 1007MOL0     H32914  10.976  10.839  10.385 -1.2698 -0.2635 -1.0024
 1007MOL0     H32915  11.074  10.829  10.244  1.3877  0.2388  0.0819
 1007MOL0     H32916  11.133  10.725  10.524 -2.0039 -1.0361 -0.5703
 1007MOL0     H32917  11.267  10.759  10.395 -0.3991  0.6929 -0.9082
 1007MOL0     H32918  11.090  10.975  10.480 -0.3565 -0.4987  0.0618
 1007MOL0     H32919  11.242  10.973  10.390  2.7214  2.4773  2.3237
 1007MOL0     H32920  11.271  11.084  10.597 -0.7337 -0.5270  0.4568
 1007MOL0     H32921  11.212  10.938  10.688  0.6150 -0.5356  0.1569
 1007MOL0     H32922  11.614  10.838  10.656 -0.4289 -1.2577 -0.4810
 1007MOL0     H32923  10.835  10.795  10.138 -0.7041  0.7108  1.1353
 1007MOL0     H32924  10.614  10.728  10.074 -0.3145 -0.3331  1.2116
 1008MOL0     O32925   9.338  10.504   9.187 -0.0771  0.0722  0.2281
 1008MOL0     C32926   9.392  10.610   9.219  0.3454  0.2471 -0.2399
 1008MOL0     O32927   9.329  10.721   9.270 -0.0537  0.8667  0.6610
 1008MOL0     C32928   9.194  10.727   9.302 -0.5964  0.4304 -0.1835
 1008MOL0     C32929   9.173  10.805   9.417 -0.2659 -1.0012  0.3274
 1008MOL0     C32930   9.049  10.836   9.459 -0.6243  0.5809 -0.9973
 1008MOL0     C32931   8.935  10.772   9.402  0.2088 -0.2766  0.6485
 1008MOL0     O32932   8.804  10.787   9.451 -0.3311 -0.5525 -0.3177
 1008MOL0     C32933   8.781  10.853   9.580  0.4466  1.1203 -0.3424
 1008MOL0     C32934   8.632  10.881   9.599  0.0019 -0.1292 -0.3282
 1008MOL0     C32935   8.598  10.953   9.729  0.3708  0.3554 -0.2416
 1008MOL0     C32936   8.626  10.865   9.862  0.0870 -1.0918  1.2712
 1008MOL0     C32937   8.686  10.962   9.963 -0.3841 -1.0961  0.7493
 1008MOL0     C32938   8.840  10.975   9.924  0.7309  0.0777  0.3806
 1008MOL0     C32939   8.930  11.007  10.040 -0.1254  0.4151 -0.1984
 1008MOL0     C32940   9.042  11.116  10.020  0.3622  0.1040  0.6319
 1008MOL0     N32941   9.132  11.087   9.902  0.9577  0.0920 -0.6298
 1008MOL0     C32942   9.264  11.112   9.916 -0.8232  1.3859 -0.1771
 1008MOL0     C32943   9.305  11.114   9.786 -0.6614 -0.2214 -0.5713
 1008MOL0     C32944   9.441  11.169   9.748 -0.0382 -0.4419 -0.2509
 1008MOL0     C32945   9.564  11.095   9.810  0.3309 -0.3237 -0.1182
 1008MOL0     C32946   9.566  10.937   9.804 -0.3706 -0.1949  0.3992
 1008MOL0     C32947   9.530  10.870   9.669 -0.3542  0.1313 -0.4092
 1008MOL0     O32948   9.608  10.902   9.552  0.3856 -0.5560  0.5980
 1008MOL0     C32949   9.739  10.917   9.560  0.2390  0.3593  0.0754
 1008MOL0     C32950   9.821  10.837   9.644 -0.1396  1.0084  0.5113
 1008MOL0     C32951   9.961  10.856   9.643 -0.2912 -0.0760  0.0743
 1008MOL0     C32952  10.009  10.958   9.562 -0.0707  0.5956  0.1811
 1008MOL0     C32953  10.158  10.985   9.571  0.5624  1.2297 -0.4585
 1008MOL0     O32954  10.236  10.881   9.618  0.3758  0.5393 -0.2434
 1008MOL0     C32955  10.343  10.904   9.697  0.1464 -0.2904  0.6013
 1008MOL0     C32956  10.465  10.901   9.633 -0.3938  0.3255 -0.1862
 1008MOL0     C32957  10.584  10.914   9.702 -0.3211 -0.5784  1.2870
 1008MOL0     C32958  10.584  10.913   9.843 -0.8098  0.0215 -0.2864
 1008MOL0     O32959  10.707  10.916   9.907  0.0751 -0.1638  0.3720
 1008MOL0     C32960  10.721  11.026   9.996  0.5677 -0.6004 -0.4183
 1008MOL0     C32961  10.871  11.069   9.996 -1.0129  0.2971  0.8161
 1008MOL0     C32962  10.912  11.199  10.068 -0.8745 -0.6373 -0.1013
 1008MOL0     C32963  10.935  11.200  10.220  0.9367 -0.5720  0.9926
 1008MOL0     C32964  10.970  11.328  10.289 -0.4604  0.1480 -0.3554
 1008MOL0     C32965  11.107  11.323  10.352 -0.4429 -0.2593 -0.3360
 1008MOL0     C32966  11.128  11.449  10.452  0.4186  0.2368 -0.4607
 1008MOL0     C32967  11.261  11.424  10.513 -0.0082 -0.1914 -0.0589
 1008MOL0    Cl32968  11.287  11.533  10.650 -0.4987  0.0777  0.1963
 1008MOL0     C32969  10.460  10.915   9.910 -0.3402 -0.1828  0.8257
 1008MOL0     C32970  10.339  10.911   9.839  0.3873 -0.4086 -0.0329
 1008MOL0     O32971  10.209  11.090   9.519  0.5251 -0.0505 -0.0538
 1008MOL0     C32972   9.933  11.029   9.471 -0.3956  0.5081 -0.3336
 1008MOL0     C32973   9.794  11.006   9.476  0.2490 -0.1941 -0.0856
 1008MOL0     N32974   9.206  11.064   9.700 -0.1788  0.3825 -0.1288
 1008MOL0     N32975   9.097  11.063   9.772 -0.0980  0.1855 -0.2095
 1008MOL0     C32976   8.955  10.690   9.284 -0.1901  0.9048  0.1509
 1008MOL0     C32977   9.084  10.669   9.237 -0.3723  0.5085 -0.4151
 1008MOL0     C32978   9.541  10.605   9.214  0.2237 -0.2395 -0.1245
 1008MOL0     C32979   9.615  10.501   9.159 -0.3770  0.4075 -0.4497
 1008MOL0     C32980   9.747  10.492   9.185  0.3661 -0.5383  0.6773
 1008MOL0     C32981   9.823  10.596   9.247  0.1798 -0.2467 -0.3853
 1008MOL0     O32982   9.960  10.566   9.234  0.4959 -0.3242  0.5655
 1008MOL0     C32983  10.045  10.671   9.282  0.8307  0.5270  0.6811
 1008MOL0     C32984  10.193  10.643   9.265 -0.3449 -0.4883  0.0209
 1008MOL0     C32985  10.291  10.767   9.269 -0.5759  0.2145 -0.1031
 1008MOL0     C32986  10.433  10.704   9.277  0.5366 -0.2060 -0.5389
 1008MOL0     C32987  10.538  10.806   9.258 -0.1819  0.2859 -0.3754
 1008MOL0     C32988  10.623  10.885   9.222  0.0202  0.7502  1.1804
 1008MOL0     C32989   9.751  10.710   9.278  0.4873  0.4678 -0.2353
 1008MOL0     C32990   9.610  10.719   9.269 -0.1441  0.3255 -0.0841
 1008MOL0     H32991   9.254  10.854   9.470  1.6504 -1.8791 -1.6116
 1008MOL0     H32992   9.044  10.897   9.548  1.5452  0.2952 -0.6063
 1008MOL0     H32993   8.833  10.949   9.589  1.6846  0.4559 -0.2469
 1008MOL0     H32994   8.818  10.793   9.663  0.0983  1.9179  0.4083
 1008MOL0     H32995   8.586  10.782   9.604 -1.7119  0.6562 -0.1771
 1008MOL0     H32996   8.591  10.939   9.516 -0.5292  2.4019  1.5763
 1008MOL0     H32997   8.494  10.983   9.738 -0.1105 -1.2641 -0.1288
 1008MOL0     H32998   8.662  11.042   9.722 -0.7170  1.0342 -2.4828
 1008MOL0     H32999   8.525  10.839   9.895  0.4037  0.2025  3.4927
 1008MOL0     H33000   8.686  10.774   9.864  0.1448 -1.0479  1.8851
 1008MOL0     H33001   8.682  10.920  10.063  0.1196 -2.1472  0.3429
 1008MOL0     H33002   8.636  11.059   9.966  0.5837 -0.5330 -0.2640
 1008MOL0     H33003   8.855  11.045   9.840 -0.0693 -3.2243 -2.7698
 1008MOL0     H33004   8.886  10.888   9.876 -1.3145  0.0801 -1.8052
 1008MOL0     H33005   8.868  11.037  10.125  0.1893 -4.4483  2.0820
 1008MOL0     H33006   8.972  10.910  10.066 -0.6532  0.8802  2.6289
 1008MOL0     H33007   9.105  11.122  10.110  2.7814  0.0145 -0.9706
 1008MOL0     H33008   9.003  11.217  10.007  0.3514 -0.0633 -0.7609
 1008MOL0     H33009   9.316  11.145  10.005  2.4287  0.5600 -1.6495
 1008MOL0     H33010   9.429  11.274   9.774 -2.0308 -0.2153 -1.8907
 1008MOL0     H33011   9.447  11.157   9.640 -3.2786  3.1246 -1.0262
 1008MOL0     H33012   9.555  11.119   9.916  0.0577 -1.4658  0.1310
 1008MOL0     H33013   9.658  11.136   9.771 -0.5936  2.5973  0.5067
 1008MOL0     H33014   9.669  10.918   9.833 -0.7848 -1.8881  0.9059
 1008MOL0     H33015   9.504  10.887   9.880 -1.7607 -0.7326 -1.0133
 1008MOL0     H33016   9.425  10.897   9.651 -0.1086  0.4255 -1.4889
 1008MOL0     H33017   9.532  10.761   9.677  3.4929  0.0364 -0.9195
 1008MOL0     H33018   9.781  10.752   9.699  2.3650 -0.5476  0.1190
 1008MOL0     H33019  10.012  10.792   9.715 -0.7592  1.3952  1.7914
 1008MOL0     H33020  10.470  10.874   9.528 -1.3337 -1.8109  0.2653
 1008MOL0     H33021  10.678  10.911   9.648 -1.1355 -0.5905 -0.1797
 1008MOL0     H33022  10.685  11.005  10.097  4.0784 -0.9648  0.9079
 1008MOL0     H33023  10.669  11.115   9.959  1.0309 -0.5254 -0.8989
 1008MOL0     H33024  10.900  11.064   9.891 -0.8840 -2.0833  0.9226
 1008MOL0     H33025  10.914  10.980  10.042  0.7816  1.4149  1.3982
 1008MOL0     H33026  10.840  11.275  10.036  2.6484  2.2452 -1.9401
 1008MOL0     H33027  11.007  11.239  10.030  0.9234 -2.0623  2.5267
 1008MOL0     H33028  10.832  11.176  10.249  0.3754  0.9939  0.3641
 1008MOL0     H33029  11.000  11.119  10.256  3.2135  0.1202 -1.2921
 1008MOL0     H33030  10.899  11.343  10.371 -0.8647  1.0207 -0.8567
 1008MOL0     H33031  10.958  11.416  10.225 -0.4245  0.8574  0.5892
 1008MOL0     H33032  11.179  11.337  10.271 -0.1213  2.1136  0.3076
 1008MOL0     H33033  11.123  11.228  10.405 -0.3951 -2.5061 -4.0059
 1008MOL0     H33034  11.126  11.541  10.393 -1.5486  2.0540  2.1627
 1008MOL0     H33035  11.047  11.450  10.526  0.4417 -1.6823 -0.3553
 1008MOL0     H33036  11.338  11.427  10.435 -0.4931 -0.0386 -0.5420
 1008MOL0     H33037  11.261  11.324  10.557 -1.5284  1.1373  3.3364
 1008MOL0     H33038  10.438  10.927  10.016 -0.7548  2.3980  0.5045
 1008MOL0     H33039  10.248  10.897   9.896  0.0315 -2.0112 -0.9180
 1008MOL0     H33040   9.972  11.108   9.408 -2.1419  0.7171 -1.2351
 1008MOL0     H33041   9.720  11.055   9.413 -1.5245 -1.4552  0.9357
 1008MOL0     H33042   8.865  10.644   9.244 -1.9447  1.4421  3.1754
 1008MOL0     H33043   9.104  10.612   9.146  0.1282 -3.9043  2.1552
 1008MOL0     H33044   9.569  10.412   9.117 -1.0793  0.2957  0.5305
 1008MOL0     H33045   9.806  10.406   9.155  0.3209  0.3964 -2.4646
 1008MOL0     H33046  10.026  10.671   9.390  2.8464 -3.0910  1.1847
 1008MOL0     H33047  10.032  10.767   9.231  3.5445 -0.1268 -1.5568
 1008MOL0     H33048  10.223  10.578   9.347  0.3896  2.8353  2.6177
 1008MOL0     H33049  10.209  10.585   9.174 -2.8295 -1.6783  0.2647
 1008MOL0     H33050  10.272  10.839   9.349  1.6971  1.1562 -0.3487
 1008MOL0     H33051  10.287  10.834   9.182  1.1940  1.0856  0.4469
 1008MOL0     H33052  10.454  10.659   9.374 -2.0963  0.4223  0.3915
 1008MOL0     H33053  10.451  10.626   9.203  1.1356 -1.5828  0.9934
 1008MOL0     H33054  10.702  10.950   9.191 -0.3296  0.7577  0.2874
 1008MOL0     H33055   9.800  10.796   9.323 -1.1235  0.9496  0.7111
 1008MOL0     H33056   9.553  10.802   9.308 -1.0951 -0.7055  0.7775
 1009MOL0     O33057   2.591   4.732   2.581  0.8549  0.2218 -0.0350
 1009MOL0     C33058   2.704   4.703   2.626  0.6896  0.1195 -0.0591
 1009MOL0     O33059   2.742   4.580   2.674  0.6018 -0.3756 -0.0591
 1009MOL0     C33060   2.640   4.495   2.711  0.3602 -0.2545  0.2290
 1009MOL0     C33061   2.514   4.527   2.771 -0.0883  0.1842  0.2039
 1009MOL0     C33062   2.416   4.429   2.793  0.8056  0.0181  0.9581
 1009MOL0     C33063   2.450   4.297   2.757 -0.3883 -0.1734  0.7107
 1009MOL0     O33064   2.351   4.195   2.756  0.2152  0.5554  0.7124
 1009MOL0     C33065   2.215   4.218   2.789  0.4172  0.6166  1.3053
 1009MOL0     C33066   2.129   4.111   2.719  0.2057  0.2414  0.1780
 1009MOL0     C33067   1.979   4.117   2.750 -0.5032  0.6382  1.3478
 1009MOL0     C33068   1.891   4.027   2.665  0.2584  0.0846  0.3496
 1009MOL0     C33069   1.738   4.019   2.691 -0.1336 -0.6388  0.3097
 1009MOL0     C33070   1.658   4.149   2.693 -0.6451  0.0842  0.2027
 1009MOL0     C33071   1.509   4.132   2.723  0.0914  1.2068  0.5879
 1009MOL0     C33072   1.442   4.262   2.762 -0.3463  0.5967 -0.2704
 1009MOL0     N33073   1.299   4.274   2.750 -0.2957 -0.0651  0.0680
 1009MOL0     C33074   1.206   4.183   2.785  0.9134  0.0222 -0.6450
 1009MOL0     C33075   1.088   4.243   2.762 -0.0406  0.2108  0.0888
 1009MOL0     C33076   0.952   4.171   2.773 -0.0307  0.0631 -0.6032
 1009MOL0     C33077   0.834   4.269   2.752  0.6778  0.0607  0.0450
 1009MOL0     C33078   0.686   4.223   2.801 -0.9754 -0.4633  0.7444
 1009MOL0     C33079   0.607   4.168   2.678  0.0053 -0.3107  0.0268
 1009MOL0     O33080   0.485   4.110   2.722 -0.3988  0.1644 -0.1240
 1009MOL0     C33081   0.379   4.188   2.757  1.6424 -0.1126 -0.0414
 1009MOL0     C33082   0.371   4.330   2.743  0.9142  0.6079 -0.0205
 1009MOL0     C33083   0.247   4.392   2.767 -0.1145  0.8331  0.7122
 1009MOL0     C33084   0.137   4.317   2.821 -0.4164  0.2689  0.2112
 1009MOL0     C33085   0.015   4.397   2.857 -1.4662  0.6299  0.0505
 1009MOL0     O33086  -0.079   4.317   2.919  0.1223 -0.5889  0.2600
 1009MOL0     C33087  -0.212   4.336   2.912 -0.2958  0.4330  0.1804
 1009MOL0     C33088  -0.282   4.217   2.955  0.1501  0.3513  0.7081
 1009MOL0     C33089  -0.422   4.235   2.964 -0.3560  0.1980  0.4126
 1009MOL0     C33090  -0.484   4.358   2.939  0.0075 -0.3234  0.0303
 1009MOL0     O33091  -0.616   4.376   2.980  0.6278 -0.3370 -0.2504
 1009MOL0     C33092  -0.679   4.504   2.978 -0.2857  0.6281  0.9652
 1009MOL0     C33093  -0.808   4.496   3.061 -0.1109  0.7183 -0.3323
 1009MOL0     C33094  -0.891   4.626   3.046 -0.5569 -0.2217 -0.3930
 1009MOL0     C33095  -1.013   4.637   3.133 -0.1713  0.2039 -0.3328
 1009MOL0     C33096  -1.095   4.762   3.112 -0.1721 -0.0052 -0.1876
 1009MOL0     C33097  -1.220   4.768   3.200 -0.3815  0.0611  0.1260
 1009MOL0     C33098  -1.323   4.867   3.157 -0.3548 -0.4778  0.4206
 1009MOL0     C33099  -1.444   4.857   3.244  0.0318 -1.1007 -1.9365
 1009MOL0    Cl33100  -1.575   4.938   3.153  0.6866  0.1684  0.4361
 1009MOL0     C33101  -0.407   4.467   2.886 -0.1342 -0.1074 -0.0888
 1009MOL0     C33102  -0.276   4.453   2.864 -0.1524 -0.6082  0.0178
 1009MOL0     O33103   0.010   4.513   2.820  0.2897 -0.3429  0.2925
 1009MOL0     C33104   0.150   4.179   2.834  0.0534  1.1882  0.2064
 1009MOL0     C33105   0.265   4.112   2.790 -0.5047 -0.3859 -0.1683
 1009MOL0     N33106   1.106   4.369   2.729 -0.3921 -0.8530  0.3245
 1009MOL0     N33107   1.234   4.389   2.723 -0.7742  0.8340 -0.1068
 1009MOL0     C33108   2.583   4.256   2.713  0.1983 -0.4120 -0.0524
 1009MOL0     C33109   2.675   4.362   2.697  0.5166 -0.3787  0.1533
 1009MOL0     C33110   2.815   4.800   2.609  0.5097 -0.2868 -0.9150
 1009MOL0     C33111   2.954   4.759   2.642  0.6892 -0.3420  0.7812
 1009MOL0     C33112   3.051   4.851   2.613  0.1926  0.1875  0.4636
 1009MOL0     C33113   3.024   4.977   2.541 -0.4262 -0.2474 -0.1582
 1009MOL0     O33114   3.138   5.051   2.510  0.0250 -0.2375 -0.5201
 1009MOL0     C33115   3.122   5.189   2.477  0.1959  0.8941  0.6296
 1009MOL0     C33116   3.263   5.226   2.429  0.0022 -0.2048  0.2901
 1009MOL0     C33117   3.263   5.373   2.424 -0.5820  0.4134  0.0181
 1009MOL0     C33118   3.392   5.446   2.356  0.8545  0.2861  0.3933
 1009MOL0     C33119   3.385   5.469   2.212  0.9743  0.0945  0.1557
 1009MOL0     C33120   3.378   5.507   2.097  0.0284 -0.1502  0.2973
 1009MOL0     C33121   2.893   5.016   2.521 -0.4998  0.2558 -0.6265
 1009MOL0     C33122   2.793   4.934   2.563 -0.1645  0.5444 -0.7035
 1009MOL0     H33123   2.492   4.632   2.791  0.2935  0.3086 -0.0237
 1009MOL0     H33124   2.314   4.454   2.820  0.5555 -0.2327  0.2686
 1009MOL0     H33125   2.186   4.311   2.738 -0.1670 -0.2687 -0.0451
 1009MOL0     H33126   2.194   4.240   2.894  0.3591  1.8157  1.0650
 1009MOL0     H33127   2.161   4.015   2.761  0.7995  2.0177  4.2599
 1009MOL0     H33128   2.143   4.123   2.611 -0.2064 -2.0371 -0.1839
 1009MOL0     H33129   1.946   4.221   2.744 -1.4510  0.3649  1.7501
 1009MOL0     H33130   1.968   4.095   2.857 -3.8709  0.4588  1.0617
 1009MOL0     H33131   1.902   4.055   2.560 -3.1894 -1.4826 -0.5923
 1009MOL0     H33132   1.939   3.929   2.666 -0.3751 -0.2413 -0.2597
 1009MOL0     H33133   1.727   3.980   2.793  0.2393  0.0577  0.6208
 1009MOL0     H33134   1.695   3.951   2.617  1.1029 -0.9540 -0.1280
 1009MOL0     H33135   1.664   4.210   2.603 -1.9830 -1.5780 -1.0624
 1009MOL0     H33136   1.713   4.198   2.774  1.4855 -1.3462 -0.2922
 1009MOL0     H33137   1.454   4.100   2.633  0.7419  1.3632  0.1277
 1009MOL0     H33138   1.493   4.067   2.809 -1.3264  2.1047  1.0475
 1009MOL0     H33139   1.488   4.349   2.712  1.6929  0.4937  1.3046
 1009MOL0     H33140   1.462   4.285   2.867  1.6902  3.5896 -1.1613
 1009MOL0     H33141   1.235   4.080   2.803  3.3470  0.5746 -1.0358
 1009MOL0     H33142   0.953   4.117   2.868  0.1239  0.3099 -0.4641
 1009MOL0     H33143   0.934   4.094   2.698  0.2568 -0.1316 -0.4753
 1009MOL0     H33144   0.826   4.301   2.647 -1.5347  3.6873  1.1390
 1009MOL0     H33145   0.864   4.354   2.814  1.9017 -1.7069  2.0089
 1009MOL0     H33146   0.705   4.130   2.857  0.0380 -1.5118 -1.2262
 1009MOL0     H33147   0.630   4.294   2.861 -1.4103 -0.3559  0.2098
 1009MOL0     H33148   0.670   4.091   2.630 -2.1838 -0.9408 -2.0497
 1009MOL0     H33149   0.578   4.232   2.594  0.8850 -1.3112 -1.0979
 1009MOL0     H33150   0.447   4.393   2.699  0.6274  0.0809 -1.3356
 1009MOL0     H33151   0.241   4.499   2.750 -1.2147  0.6639 -0.0307
 1009MOL0     H33152  -0.231   4.123   2.969 -0.5468  0.3066  3.6829
 1009MOL0     H33153  -0.483   4.146   2.978 -0.5012 -0.6390 -4.1795
 1009MOL0     H33154  -0.703   4.517   2.872  0.7444 -0.3136  0.5932
 1009MOL0     H33155  -0.613   4.583   3.016  2.2896 -1.8927  2.1196
 1009MOL0     H33156  -0.773   4.477   3.163 -0.6042  4.3991  0.6755
 1009MOL0     H33157  -0.870   4.410   3.034  2.6889 -2.0910  1.5231
 1009MOL0     H33158  -0.909   4.630   2.938 -0.5295 -1.5139 -0.4624
 1009MOL0     H33159  -0.825   4.713   3.053  2.1361 -1.9296 -2.1629
 1009MOL0     H33160  -1.087   4.560   3.112 -1.1735  1.4002 -1.3831
 1009MOL0     H33161  -0.976   4.618   3.234  1.5321  0.1060 -0.9388
 1009MOL0     H33162  -1.129   4.762   3.008  0.2359 -1.8791 -0.3645
 1009MOL0     H33163  -1.024   4.843   3.133  0.0972  0.0127 -1.1132
 1009MOL0     H33164  -1.186   4.801   3.298 -0.4868  0.4197  0.0431
 1009MOL0     H33165  -1.267   4.670   3.211  1.7831 -0.9695  0.7859
 1009MOL0     H33166  -1.298   4.972   3.167 -2.7559  0.0816  1.1601
 1009MOL0     H33167  -1.346   4.848   3.051 -1.8786 -1.0430  0.8361
 1009MOL0     H33168  -1.429   4.909   3.340  3.7430 -0.4528 -2.6936
 1009MOL0     H33169  -1.468   4.751   3.258 -2.8630 -0.2253  1.1142
 1009MOL0     H33170  -0.452   4.562   2.855 -1.3118 -0.9135 -0.9474
 1009MOL0     H33171  -0.234   4.540   2.815 -0.7385 -1.2338 -1.6343
 1009MOL0     H33172   0.075   4.107   2.867 -2.4557  2.0352 -3.0446
 1009MOL0     H33173   0.274   4.004   2.798  0.4478 -0.3141 -0.1575
 1009MOL0     H33174   2.614   4.156   2.686 -0.3165 -0.6506  0.2234
 1009MOL0     H33175   2.770   4.322   2.661  0.4979 -3.1726  2.7650
 1009MOL0     H33176   2.977   4.656   2.670 -0.1767 -0.8605 -0.3499
 1009MOL0     H33177   3.158   4.835   2.625 -0.0067 -0.1930  1.8185
 1009MOL0     H33178   3.081   5.243   2.562 -1.1678  0.3305  0.3550
 1009MOL0     H33179   3.052   5.207   2.395  1.4129 -0.1029 -0.6790
 1009MOL0     H33180   3.334   5.196   2.506 -0.6750  1.6200  1.7363
 1009MOL0     H33181   3.289   5.172   2.338 -2.2446 -2.4631  0.8827
 1009MOL0     H33182   3.274   5.425   2.520 -2.5713  1.1563 -0.1019
 1009MOL0     H33183   3.170   5.411   2.381 -0.2401 -1.3032 -2.4041
 1009MOL0     H33184   3.412   5.540   2.409 -0.4142  0.9265 -0.2372
 1009MOL0     H33185   3.474   5.378   2.384 -1.8691 -2.6227  1.9968
 1009MOL0     H33186   3.379   5.540   1.995 -2.8062 -1.1369 -0.1567
 1009MOL0     H33187   2.859   5.111   2.481 -0.1847  1.0165  0.8448
 1009MOL0     H33188   2.700   4.979   2.527 -0.9288 -0.0462  0.4784
 1010MOL0     O33189  10.514   3.484   4.347 -0.1447  0.6738 -0.2840
 1010MOL0     C33190  10.613   3.462   4.424 -1.4243 -0.0794  0.5448
 1010MOL0     O33191  10.599   3.467   4.564  0.6896  0.3308  0.8428
 1010MOL0     C33192  10.486   3.505   4.635  0.1612 -0.5105 -0.5287
 1010MOL0     C33193  10.356   3.549   4.584  0.0648 -1.1268 -1.1564
 1010MOL0     C33194  10.260   3.606   4.668 -0.1221  0.3259  0.9526
 1010MOL0     C33195  10.287   3.630   4.797 -0.5483 -0.2467  0.0514
 1010MOL0     O33196  10.187   3.690   4.876  0.0164 -0.0858  0.2923
 1010MOL0     C33197  10.119   3.607   4.965  0.3029  0.4642 -0.0695
 1010MOL0     C33198  10.006   3.527   4.902  0.7698  0.7658  0.6680
 1010MOL0     C33199   9.912   3.619   4.836  0.0795 -0.5302 -0.5521
 1010MOL0     C33200   9.829   3.531   4.744 -0.4433 -0.5930  0.2109
 1010MOL0     C33201   9.744   3.423   4.820 -0.4690 -0.4108  0.2158
 1010MOL0     C33202   9.637   3.352   4.735  1.3021 -0.6620  0.4804
 1010MOL0     C33203   9.502   3.439   4.750 -0.4425 -0.8239 -0.1664
 1010MOL0     C33204   9.387   3.357   4.681 -0.3478  0.5333  0.5266
 1010MOL0     N33205   9.386   3.343   4.533 -0.2700  0.5505 -0.0744
 1010MOL0     C33206   9.396   3.443   4.442 -0.2663 -0.5893  0.1995
 1010MOL0     C33207   9.389   3.386   4.315 -1.6592 -0.3876 -0.5315
 1010MOL0     C33208   9.398   3.477   4.193  0.2375  0.3543 -0.0829
 1010MOL0     C33209   9.295   3.440   4.088  0.7059  0.5648 -0.7511
 1010MOL0     C33210   9.309   3.524   3.963  0.2114 -0.6250  1.0066
 1010MOL0     C33211   9.179   3.516   3.889  0.5637 -0.2957  0.4566
 1010MOL0     O33212   9.079   3.574   3.961 -0.2956  0.5406 -0.0276
 1010MOL0     C33213   8.948   3.569   3.919 -0.7392  0.7139  0.3827
 1010MOL0     C33214   8.906   3.507   3.802  0.1795  0.7250  0.5826
 1010MOL0     C33215   8.768   3.489   3.775 -0.1876  0.1397 -0.2420
 1010MOL0     C33216   8.676   3.551   3.863 -0.1881 -0.1118  0.5390
 1010MOL0     C33217   8.531   3.550   3.817 -0.4741 -0.1631  0.1259
 1010MOL0     O33218   8.446   3.600   3.907  0.7261 -0.2804  0.1317
 1010MOL0     C33219   8.308   3.596   3.884  0.3083 -0.2548 -0.1891
 1010MOL0     C33220   8.248   3.510   3.791 -0.3175 -0.6971  0.2144
 1010MOL0     C33221   8.108   3.507   3.779 -0.5341  0.6414  0.4242
 1010MOL0     C33222   8.026   3.584   3.855 -1.3023  0.0888 -0.0605
 1010MOL0     O33223   7.897   3.596   3.836  0.0452  0.1722  0.2549
 1010MOL0     C33224   7.847   3.562   3.701  0.1921  0.2250 -0.1937
 1010MOL0     C33225   7.703   3.610   3.698 -0.4156 -0.0872  0.6503
 1010MOL0     C33226   7.665   3.620   3.550 -0.1542 -0.4326  0.2742
 1010MOL0     C33227   7.515   3.650   3.516 -0.1619  0.4364 -0.6826
 1010MOL0     C33228   7.403   3.545   3.554 -1.0253 -0.0875  0.0100
 1010MOL0     C33229   7.269   3.593   3.502 -0.2729 -0.0471  0.2629
 1010MOL0     C33230   7.155   3.493   3.547 -0.4325  0.6872  0.0012
 1010MOL0     C33231   7.021   3.571   3.567 -0.7121 -0.5257 -0.2008
 1010MOL0    Cl33232   6.887   3.465   3.606 -0.4514  0.0159  0.2039
 1010MOL0     C33233   8.083   3.675   3.943 -0.0734  0.4636 -1.2576
 1010MOL0     C33234   8.228   3.677   3.960  1.0198  0.8849  0.2384
 1010MOL0     O33235   8.512   3.529   3.694 -0.0709 -0.6157 -0.2566
 1010MOL0     C33236   8.718   3.618   3.977  0.0248  0.1817 -0.0824
 1010MOL0     C33237   8.855   3.628   4.002  0.3304 -0.0888  0.4236
 1010MOL0     N33238   9.368   3.248   4.332 -0.5624 -0.3604  0.5880
 1010MOL0     N33239   9.381   3.230   4.462  0.8385 -0.3436  0.0850
 1010MOL0     C33240  10.412   3.587   4.855  0.4194  0.2232 -0.2191
 1010MOL0     C33241  10.510   3.529   4.767  0.3451  0.2172  0.0147
 1010MOL0     C33242  10.751   3.467   4.368 -0.2575  1.2108 -0.2849
 1010MOL0     C33243  10.866   3.448   4.444  0.3430 -1.0364  0.1172
 1010MOL0     C33244  10.989   3.455   4.386 -0.5527  0.3361 -0.8125
 1010MOL0     C33245  11.007   3.486   4.250 -0.0906 -0.8307  0.1039
 1010MOL0     O33246  11.124   3.482   4.181  0.0373 -0.2295  0.4476
 1010MOL0     C33247  11.246   3.445   4.250  0.6753  0.8489  0.1177
 1010MOL0     C33248  11.355   3.403   4.152  0.0446 -0.5637 -0.4112
 1010MOL0     C33249  11.404   3.526   4.069 -0.3058 -0.2927 -0.5741
 1010MOL0     C33250  11.531   3.504   3.990  0.3878 -0.0321  0.1847
 1010MOL0     C33251  11.642   3.439   4.062  0.1397 -0.7031 -0.1061
 1010MOL0     C33252  11.745   3.393   4.121 -1.2440  0.1254  0.3463
 1010MOL0     C33253  10.899   3.528   4.178 -0.7328 -0.5754  0.3066
 1010MOL0     C33254  10.777   3.517   4.236 -0.2671 -0.0542 -0.1328
 1010MOL0     H33255  10.328   3.538   4.479 -1.3140  1.2897 -1.1094
 1010MOL0     H33256  10.166   3.643   4.629 -1.6975 -0.6050  3.6138
 1010MOL0     H33257  10.084   3.665   5.050  3.2520 -3.1003  4.0007
 1010MOL0     H33258  10.183   3.533   5.013  0.6817  1.4493  0.9840
 1010MOL0     H33259   9.954   3.469   4.979 -0.9933 -0.0551 -1.0621
 1010MOL0     H33260  10.045   3.465   4.821  1.5693  0.5345  1.2179
 1010MOL0     H33261   9.965   3.680   4.762  0.9734 -1.4254 -0.6814
 1010MOL0     H33262   9.842   3.670   4.902 -2.2013 -3.0218 -0.8888
 1010MOL0     H33263   9.755   3.599   4.702 -0.0141  1.1136  2.0537
 1010MOL0     H33264   9.894   3.499   4.662  0.9237  0.6573  0.7639
 1010MOL0     H33265   9.706   3.468   4.912  0.3336 -1.2230  0.9567
 1010MOL0     H33266   9.816   3.345   4.848  0.3151  1.0175  2.4019
 1010MOL0     H33267   9.620   3.250   4.773  2.2136 -1.2224 -0.5468
 1010MOL0     H33268   9.662   3.348   4.629  1.3151  2.2175  0.2981
 1010MOL0     H33269   9.483   3.459   4.856  1.6865  1.7111 -0.1543
 1010MOL0     H33270   9.516   3.539   4.709  4.3179 -0.7785  0.9525
 1010MOL0     H33271   9.287   3.396   4.700 -1.3096  0.4997 -3.5710
 1010MOL0     H33272   9.402   3.253   4.713  2.1969 -0.5704 -3.5322
 1010MOL0     H33273   9.396   3.549   4.464  0.2207 -0.2623 -1.2706
 1010MOL0     H33274   9.505   3.472   4.171  0.3244  0.8421  0.2104
 1010MOL0     H33275   9.380   3.582   4.220  1.2415  1.1210 -2.1787
 1010MOL0     H33276   9.198   3.451   4.137  0.5906  1.7423 -1.1921
 1010MOL0     H33277   9.287   3.332   4.073  2.6972  0.1766  0.6283
 1010MOL0     H33278   9.321   3.631   3.984  0.2361  0.0944 -2.1510
 1010MOL0     H33279   9.396   3.489   3.908 -1.1974  1.3978 -2.9033
 1010MOL0     H33280   9.153   3.411   3.878 -0.0817 -0.3535  2.3012
 1010MOL0     H33281   9.179   3.556   3.787 -0.5410 -1.4924 -0.0312
 1010MOL0     H33282   8.979   3.486   3.724  0.6025  1.5819  0.7252
 1010MOL0     H33283   8.753   3.429   3.686  0.7110  3.2306 -2.6526
 1010MOL0     H33284   8.308   3.438   3.735  0.8879 -0.1636  0.8013
 1010MOL0     H33285   8.067   3.424   3.721 -0.8206  1.6882 -0.9484
 1010MOL0     H33286   7.848   3.454   3.682  0.5047 -0.2000  1.9892
 1010MOL0     H33287   7.899   3.613   3.620 -1.7970 -0.8988 -2.2886
 1010MOL0     H33288   7.699   3.709   3.744  1.6912  0.8509 -1.0226
 1010MOL0     H33289   7.634   3.543   3.751  1.4443 -2.1369  0.6283
 1010MOL0     H33290   7.680   3.518   3.512 -0.0929 -0.4294  0.2902
 1010MOL0     H33291   7.729   3.681   3.486 -0.1831 -1.0583 -0.3614
 1010MOL0     H33292   7.485   3.735   3.578 -1.5051  0.1372 -0.8788
 1010MOL0     H33293   7.515   3.671   3.409  1.4690  2.5309 -0.3433
 1010MOL0     H33294   7.409   3.539   3.663 -0.2195  0.3414 -0.0058
 1010MOL0     H33295   7.430   3.448   3.510 -0.9922  1.5897 -4.0780
 1010MOL0     H33296   7.274   3.602   3.393 -1.5476 -2.9943 -0.1149
 1010MOL0     H33297   7.251   3.687   3.555 -0.3630 -0.6381  1.2931
 1010MOL0     H33298   7.152   3.410   3.475  1.1009 -0.2376  0.9365
 1010MOL0     H33299   7.177   3.456   3.648  1.1249  1.0546 -0.1739
 1010MOL0     H33300   7.002   3.630   3.477  2.8133  2.1912  0.6338
 1010MOL0     H33301   7.045   3.639   3.649 -0.4512 -2.8287  1.7552
 1010MOL0     H33302   8.025   3.742   4.006  1.7089  1.6061 -0.7515
 1010MOL0     H33303   8.263   3.744   4.038 -2.1627  0.4569  2.2548
 1010MOL0     H33304   8.647   3.659   4.048 -0.9012  1.4839 -1.6786
 1010MOL0     H33305   8.893   3.664   4.097  0.3857 -0.1156  0.4119
 1010MOL0     H33306  10.434   3.596   4.961  0.0571  1.1775 -0.2193
 1010MOL0     H33307  10.602   3.487   4.805  1.0082  0.9720 -0.7254
 1010MOL0     H33308  10.868   3.421   4.549 -0.2018  0.5511  0.5688
 1010MOL0     H33309  11.075   3.426   4.444 -0.6691 -0.7651 -1.1733
 1010MOL0     H33310  11.239   3.362   4.321 -0.7974  1.3528  0.5820
 1010MOL0     H33311  11.273   3.527   4.317  3.0768 -0.1156  0.4547
 1010MOL0     H33312  11.441   3.352   4.197  0.7735  0.3832 -0.6933
 1010MOL0     H33313  11.310   3.327   4.087 -1.5506 -0.1654  0.1781
 1010MOL0     H33314  11.424   3.615   4.130 -1.4324  0.4584 -1.2633
 1010MOL0     H33315  11.325   3.551   3.998 -1.8120 -2.7235  0.1434
 1010MOL0     H33316  11.492   3.434   3.916 -0.6613 -0.8454  1.4474
 1010MOL0     H33317  11.567   3.601   3.956 -0.3160  0.3097  0.3896
 1010MOL0     H33318  11.831   3.368   4.180 -1.1222  1.2581  0.6814
 1010MOL0     H33319  10.894   3.541   4.070 -0.1760 -0.0366  0.3376
 1010MOL0     H33320  10.688   3.544   4.180 -0.1159  0.7912  0.0189
 1011MOL0     O33321   7.722   0.725   0.188 -0.2300  0.9825  0.0300
 1011MOL0     C33322   7.662   0.682   0.091 -0.4926  0.2110 -0.1000
 1011MOL0     O33323   7.538   0.617   0.103 -0.5094 -0.0714  0.5440
 1011MOL0     C33324   7.477   0.617   0.222 -0.8748 -0.8687 -0.2822
 1011MOL0     C33325   7.464   0.485   0.274 -1.2678  0.2097 -0.8026
 1011MOL0     C33326   7.396   0.457   0.390  0.2012  0.4955  0.3300
 1011MOL0     C33327   7.329   0.560   0.465  0.2605  0.1305  0.1394
 1011MOL0     O33328   7.255   0.532   0.575 -0.5285 -0.4352 -0.7941
 1011MOL0     C33329   7.210   0.642   0.656 -0.1247 -0.5005 -0.1531
 1011MOL0     C33330   7.108   0.606   0.774  0.1881 -0.0058 -0.7266
 1011MOL0     C33331   6.993   0.512   0.736  0.2504 -0.4319 -0.3035
 1011MOL0     C33332   6.911   0.455   0.845  0.1524  0.1870  0.5444
 1011MOL0     C33333   6.790   0.386   0.795  1.1233  1.1741  0.0532
 1011MOL0     C33334   6.725   0.286   0.898  0.8009  0.4770 -0.0154
 1011MOL0     C33335   6.810   0.161   0.937 -0.3941  0.4668  0.8511
 1011MOL0     C33336   6.875   0.163   1.078 -1.1405  0.4511 -0.0405
 1011MOL0     N33337   6.762   0.177   1.168 -0.7258  0.0766 -1.2330
 1011MOL0     C33338   6.658   0.087   1.180  1.4025 -0.2837 -0.6736
 1011MOL0     C33339   6.565   0.149   1.267  1.0815  0.1708  0.3976
 1011MOL0     C33340   6.427   0.109   1.295  0.2841  0.2903 -0.1402
 1011MOL0     C33341   6.388   0.080   1.443 -0.6799 -0.2192 -0.2541
 1011MOL0     C33342   6.465  -0.035   1.515 -0.1428  0.5137  0.9937
 1011MOL0     C33343   6.427  -0.057   1.658 -0.3871  0.6725  0.6934
 1011MOL0     O33344   6.332  -0.161   1.657  0.4993 -0.9879  0.8182
 1011MOL0     C33345   6.261  -0.185   1.768  0.2197 -0.3465 -0.4109
 1011MOL0     C33346   6.131  -0.221   1.754  0.0238  0.0208 -0.2853
 1011MOL0     C33347   6.053  -0.249   1.869  0.2887 -0.4903  0.1446
 1011MOL0     C33348   6.106  -0.242   1.993  0.3257  0.8630 -0.7526
 1011MOL0     C33349   6.028  -0.285   2.121 -1.8259  0.7490 -0.1159
 1011MOL0     O33350   5.892  -0.317   2.090  0.0929 -0.0476  0.2960
 1011MOL0     C33351   5.812  -0.369   2.186 -0.9351 -0.5711 -0.3557
 1011MOL0     C33352   5.834  -0.493   2.248 -0.1730  0.0586 -0.2697
 1011MOL0     C33353   5.745  -0.532   2.348 -0.0903 -0.1921  0.9655
 1011MOL0     C33354   5.621  -0.466   2.380  0.5146 -0.6035  0.4521
 1011MOL0     O33355   5.529  -0.504   2.480 -0.6618  0.1926 -0.1967
 1011MOL0     C33356   5.521  -0.644   2.505  0.9116  0.1109  0.0153
 1011MOL0     C33357   5.413  -0.670   2.605  0.0366  0.4550 -0.3046
 1011MOL0     C33358   5.282  -0.595   2.571 -0.1759 -0.3296  0.6377
 1011MOL0     C33359   5.167  -0.639   2.650 -0.4138  0.1473 -0.4104
 1011MOL0     C33360   5.043  -0.570   2.604 -0.0358  0.3738 -0.6084
 1011MOL0     C33361   4.944  -0.589   2.711  0.0277  0.1693 -1.2290
 1011MOL0     C33362   4.804  -0.576   2.656 -0.1728 -0.8427 -0.0028
 1011MOL0     C33363   4.691  -0.614   2.750  0.9967 -0.5708  0.1441
 1011MOL0    Cl33364   4.538  -0.613   2.665  0.1810 -0.0118  0.0218
 1011MOL0     C33365   5.602  -0.344   2.307  0.0882 -0.7862 -0.1024
 1011MOL0     C33366   5.696  -0.297   2.209  0.6951  0.2476  0.7111
 1011MOL0     O33367   6.081  -0.291   2.230 -0.0743  0.7511 -0.4369
 1011MOL0     C33368   6.242  -0.204   2.008 -0.5459 -0.1487 -0.1655
 1011MOL0     C33369   6.315  -0.173   1.897 -0.0143  0.8903 -0.3164
 1011MOL0     N33370   6.621   0.271   1.291 -0.5890  0.4712 -0.3676
 1011MOL0     N33371   6.738   0.292   1.241  0.3246  0.4972 -0.2308
 1011MOL0     C33372   7.378   0.690   0.433 -0.9314 -0.1171  0.6183
 1011MOL0     C33373   7.446   0.722   0.310  0.4889 -0.0618  0.9794
 1011MOL0     C33374   7.736   0.674  -0.039 -0.3873 -0.5248 -0.7224
 1011MOL0     C33375   7.721   0.570  -0.130 -0.1210  0.7779  0.8769
 1011MOL0     C33376   7.802   0.567  -0.244  0.2136 -0.1314 -0.8309
 1011MOL0     C33377   7.891   0.667  -0.276  0.3667  0.6911 -0.6701
 1011MOL0     O33378   7.957   0.654  -0.393 -0.5535  0.4174  0.0925
 1011MOL0     C33379   8.053   0.547  -0.397  0.9222  0.0807 -0.2590
 1011MOL0     C33380   8.153   0.563  -0.512 -0.2157 -0.5625  0.3190
 1011MOL0     C33381   8.246   0.682  -0.507  0.0601  0.4986  0.2680
 1011MOL0     C33382   8.305   0.713  -0.652 -0.2383  0.5274  1.4591
 1011MOL0     C33383   8.396   0.827  -0.662  0.4103  0.5709  0.6368
 1011MOL0     C33384   8.458   0.921  -0.694  0.5163  0.5689 -0.2452
 1011MOL0     C33385   7.915   0.770  -0.183 -0.7243  0.4902 -0.0119
 1011MOL0     C33386   7.844   0.770  -0.064  0.6797  0.9314  0.2041
 1011MOL0     H33387   7.516   0.409   0.217 -2.1554 -0.7303 -0.3923
 1011MOL0     H33388   7.383   0.354   0.422  3.2112 -0.4782 -1.2745
 1011MOL0     H33389   7.150   0.709   0.594 -0.7717 -1.5150 -0.6530
 1011MOL0     H33390   7.294   0.703   0.689 -0.9512  0.6358 -0.0851
 1011MOL0     H33391   7.049   0.692   0.810 -1.9397 -1.3304 -0.8788
 1011MOL0     H33392   7.161   0.561   0.858  0.8223 -0.4102 -1.3377
 1011MOL0     H33393   7.029   0.431   0.673 -0.8363 -1.0489 -0.1419
 1011MOL0     H33394   6.925   0.567   0.670 -0.8646 -1.6836 -0.2395
 1011MOL0     H33395   6.984   0.386   0.887  2.0366 -0.5312 -3.4838
 1011MOL0     H33396   6.884   0.530   0.921  1.8211  1.3920  0.0186
 1011MOL0     H33397   6.821   0.323   0.711 -0.2016  1.3923 -0.6322
 1011MOL0     H33398   6.715   0.456   0.757 -2.8340 -2.4293  0.5018
 1011MOL0     H33399   6.628   0.254   0.859 -0.2631  1.5384  1.6513
 1011MOL0     H33400   6.715   0.347   0.988  1.5046  0.1877  0.2732
 1011MOL0     H33401   6.749   0.071   0.924 -1.9600  1.2811  2.2047
 1011MOL0     H33402   6.899   0.146   0.875 -1.5876 -0.4897 -0.7171
 1011MOL0     H33403   6.945   0.247   1.079 -0.6546  0.2651  5.0916
 1011MOL0     H33404   6.928   0.067   1.084 -2.6500 -0.7008 -2.9561
 1011MOL0     H33405   6.637  -0.008   1.132 -1.6340 -0.1282  0.1566
 1011MOL0     H33406   6.398   0.016   1.244  0.6461  0.3921 -0.5418
 1011MOL0     H33407   6.369   0.192   1.254 -1.0021 -0.5089  0.0128
 1011MOL0     H33408   6.280   0.072   1.452 -1.1120  3.1440 -1.0110
 1011MOL0     H33409   6.429   0.165   1.499  1.5517 -1.4333  0.0926
 1011MOL0     H33410   6.432  -0.126   1.465 -0.2542 -0.2356  2.3859
 1011MOL0     H33411   6.567   0.000   1.496 -1.4195  4.2456  0.1400
 1011MOL0     H33412   6.380   0.027   1.710 -1.4713  1.2359 -1.1241
 1011MOL0     H33413   6.516  -0.089   1.714 -0.6860 -3.9132 -1.0174
 1011MOL0     H33414   6.086  -0.232   1.655  0.2892 -1.7469 -0.2384
 1011MOL0     H33415   5.946  -0.264   1.859 -0.4228  1.6948  3.0782
 1011MOL0     H33416   5.920  -0.557   2.232 -0.5459 -0.2311 -1.1726
 1011MOL0     H33417   5.765  -0.625   2.401 -0.1953 -0.6266  0.2606
 1011MOL0     H33418   5.615  -0.685   2.544  1.0408  1.0562  0.7423
 1011MOL0     H33419   5.482  -0.689   2.413  0.6104  0.0480  0.1706
 1011MOL0     H33420   5.451  -0.633   2.700  2.9353 -2.1643 -0.2733
 1011MOL0     H33421   5.389  -0.775   2.624  0.4600  0.2703 -0.7471
 1011MOL0     H33422   5.256  -0.614   2.466 -1.3792 -1.0700  1.0461
 1011MOL0     H33423   5.297  -0.488   2.589 -0.2597 -0.5750  2.3672
 1011MOL0     H33424   5.165  -0.748   2.656  0.1504  0.1965  2.3525
 1011MOL0     H33425   5.182  -0.615   2.756  2.2305  2.8831 -1.2677
 1011MOL0     H33426   5.011  -0.612   2.509  1.9447 -0.1679 -1.0890
 1011MOL0     H33427   5.062  -0.463   2.591  3.5999 -0.2175 -1.2099
 1011MOL0     H33428   4.943  -0.509   2.786 -0.0894 -0.5963 -0.4028
 1011MOL0     H33429   4.951  -0.682   2.767  2.6179  1.9762  1.7985
 1011MOL0     H33430   4.803  -0.469   2.635  1.2667 -0.5342  1.3508
 1011MOL0     H33431   4.784  -0.633   2.564  2.6407 -0.8456 -0.6793
 1011MOL0     H33432   4.682  -0.534   2.824 -0.5215  0.5504 -1.1905
 1011MOL0     H33433   4.704  -0.713   2.795  0.5205 -2.6530 -3.8651
 1011MOL0     H33434   5.516  -0.283   2.332 -1.6450 -2.4888 -1.5315
 1011MOL0     H33435   5.689  -0.199   2.163  0.8550  2.1053  4.3451
 1011MOL0     H33436   6.276  -0.196   2.111 -1.9734 -0.2911  0.3394
 1011MOL0     H33437   6.419  -0.144   1.913 -0.3394  1.5937  0.5829
 1011MOL0     H33438   7.357   0.775   0.498  0.2447  0.8025 -0.1599
 1011MOL0     H33439   7.479   0.824   0.298 -0.0218  0.1487  1.3501
 1011MOL0     H33440   7.644   0.493  -0.118  1.6655 -1.5653 -1.3891
 1011MOL0     H33441   7.799   0.476  -0.303  1.6561 -1.7760  1.4770
 1011MOL0     H33442   8.004   0.449  -0.399  1.1299 -0.1174  1.8667
 1011MOL0     H33443   8.111   0.556  -0.304  0.3105 -3.1205  0.5470
 1011MOL0     H33444   8.220   0.476  -0.513 -1.7128 -1.7642  1.3871
 1011MOL0     H33445   8.101   0.558  -0.608  1.1631 -1.3254 -0.4218
 1011MOL0     H33446   8.335   0.663  -0.447  1.5606 -0.3134 -2.0963
 1011MOL0     H33447   8.185   0.765  -0.468  0.7195  1.2638 -0.2929
 1011MOL0     H33448   8.358   0.622  -0.680  1.2963  1.2596  1.8471
 1011MOL0     H33449   8.216   0.733  -0.712 -0.1967 -0.0659  1.2008
 1011MOL0     H33450   8.494   1.011  -0.739  0.8824 -0.6483 -2.5175
 1011MOL0     H33451   7.996   0.839  -0.203  0.8386 -1.2219  0.1036
 1011MOL0     H33452   7.871   0.840   0.013  4.2730 -0.5375  0.4903
 1012MOL0     O33453   8.702   2.050  11.181  0.2341 -0.3298  0.0890
 1012MOL0     C33454   8.771   2.143  11.152  0.1319 -0.8722  0.6046
 1012MOL0     O33455   8.731   2.272  11.125 -0.0438 -0.7787 -0.0855
 1012MOL0     C33456   8.605   2.307  11.164 -0.1094 -0.0232  0.5702
 1012MOL0     C33457   8.499   2.308  11.067  0.1614 -0.0312  0.4886
 1012MOL0     C33458   8.371   2.345  11.093 -0.1764 -0.3446 -0.4011
 1012MOL0     C33459   8.338   2.376  11.229 -0.2363 -0.0513  0.3828
 1012MOL0     O33460   8.207   2.401  11.266  0.3087 -0.2709 -1.0583
 1012MOL0     C33461   8.105   2.362  11.178  0.2674 -0.0550 -0.4065
 1012MOL0     C33462   7.976   2.355  11.263  0.5348 -0.8681 -0.3896
 1012MOL0     C33463   7.845   2.386  11.187  0.1493  0.0904 -0.6016
 1012MOL0     C33464   7.727   2.376  11.276 -0.0842 -0.5612 -0.1018
 1012MOL0     C33465   7.612   2.384  11.185  0.0516 -0.2109 -0.4791
 1012MOL0     C33466   7.483   2.384  11.267  0.0496 -0.7744  0.1618
 1012MOL0     C33467   7.362   2.354  11.163 -1.0232 -0.6517  0.0793
 1012MOL0     C33468   7.337   2.485  11.092  0.1443 -0.6734 -0.1284
 1012MOL0     N33469   7.220   2.458  11.013  0.2292  0.6210 -0.7059
 1012MOL0     C33470   7.230   2.379  10.898  0.2862 -0.1063  0.0260
 1012MOL0     C33471   7.101   2.325  10.881 -0.2969 -0.0498 -0.5426
 1012MOL0     C33472   7.051   2.214  10.796  0.0267 -0.3226  0.1257
 1012MOL0     C33473   7.016   2.260  10.652 -0.5280 -0.0272 -0.5071
 1012MOL0     C33474   6.939   2.165  10.567  0.1225 -0.2003 -0.5265
 1012MOL0     C33475   6.785   2.158  10.602 -0.0893 -0.2466 -0.6147
 1012MOL0     O33476   6.710   2.073  10.514 -0.6944  0.2945 -0.7058
 1012MOL0     C33477   6.576   2.080  10.536 -0.1369  0.0325  0.6012
 1012MOL0     C33478   6.505   2.199  10.544  0.8520  0.4312  0.3595
 1012MOL0     C33479   6.367   2.203  10.567  0.3743  0.1041  0.7227
 1012MOL0     C33480   6.294   2.082  10.583 -0.5544 -0.6551 -0.7749
 1012MOL0     C33481   6.151   2.091  10.632 -0.5221  0.7057  0.1978
 1012MOL0     O33482   6.084   1.976  10.675 -0.6160 -0.2444  0.0188
 1012MOL0     C33483   5.962   2.001  10.716 -0.5872 -0.1116 -0.2293
 1012MOL0     C33484   5.939   1.965  10.847  0.1761 -0.4088  0.1515
 1012MOL0     C33485   5.817   2.004  10.907  0.4371 -0.7770  0.5114
 1012MOL0     C33486   5.714   2.073  10.835  0.5647 -0.8300  0.7105
 1012MOL0     O33487   5.593   2.115  10.886 -0.3436 -0.0038 -0.4481
 1012MOL0     C33488   5.550   2.066  11.006 -0.0894  0.4316  1.4138
 1012MOL0     C33489   5.407   2.099  11.022  0.2191 -0.9382 -0.4294
 1012MOL0     C33490   5.364   2.114  11.159  0.2162 -0.0876 -0.0530
 1012MOL0     C33491   5.214   2.143  11.163 -0.1711  0.3090  0.1411
 1012MOL0     C33492   5.146   2.184  11.305  0.8856  0.3742 -0.3288
 1012MOL0     C33493   5.208   2.318  11.357 -0.2563 -0.0936  0.4432
 1012MOL0     C33494   5.159   2.355  11.501 -0.6062 -0.7431  0.1860
 1012MOL0     C33495   5.116   2.506  11.510  0.1654 -0.2007  0.2658
 1012MOL0    Cl33496   4.962   2.536  11.410 -0.5877  0.0104  0.4668
 1012MOL0     C33497   5.739   2.098  10.699 -0.5125  0.0516 -0.2283
 1012MOL0     C33498   5.857   2.058  10.637  0.1639 -0.6429 -0.3776
 1012MOL0     O33499   6.101   2.205  10.636  0.2254  0.4356 -0.1041
 1012MOL0     C33500   6.362   1.964  10.573  0.5501 -0.3592 -0.3157
 1012MOL0     C33501   6.494   1.963  10.545  0.2143 -0.6347 -0.3529
 1012MOL0     N33502   7.020   2.392  10.970  0.1176 -0.2285 -0.5021
 1012MOL0     N33503   7.086   2.465  11.051 -0.0948 -0.2016 -0.5173
 1012MOL0     C33504   8.436   2.375  11.318  0.1519 -0.5040  0.2826
 1012MOL0     C33505   8.568   2.335  11.293 -0.1636  0.2617 -0.7493
 1012MOL0     C33506   8.919   2.114  11.151 -0.0935 -0.5115  1.0977
 1012MOL0     C33507   9.007   2.217  11.179  0.3349 -0.3314 -0.2161
 1012MOL0     C33508   9.143   2.199  11.188 -0.0802  0.0875  0.3926
 1012MOL0     C33509   9.195   2.070  11.176 -0.1730  0.9837 -1.0026
 1012MOL0     O33510   9.330   2.043  11.175 -0.1841  0.3223  0.0667
 1012MOL0     C33511   9.386   1.910  11.174  0.9788 -0.5204  0.0874
 1012MOL0     C33512   9.540   1.915  11.174  0.3122 -0.8613  0.2288
 1012MOL0     C33513   9.602   1.966  11.048  0.0222 -0.7806  0.2483
 1012MOL0     C33514   9.754   1.977  11.054 -0.4199 -0.4381 -0.4950
 1012MOL0     C33515   9.831   1.847  11.069  0.5838  0.3199  0.0543
 1012MOL0     C33516   9.899   1.747  11.073  0.4403 -0.2279 -0.3333
 1012MOL0     C33517   9.107   1.960  11.161 -0.1003  0.0664  0.2653
 1012MOL0     C33518   8.967   1.984  11.138 -0.2071 -0.5499  0.1427
 1012MOL0     H33519   8.518   2.309  10.960  0.6746  1.2734  0.5823
 1012MOL0     H33520   8.295   2.343  11.016 -3.1682  0.4816  2.3021
 1012MOL0     H33521   8.116   2.268  11.122  0.2733  0.1841 -0.8091
 1012MOL0     H33522   8.114   2.444  11.106 -0.5406 -0.3419 -0.8409
 1012MOL0     H33523   7.980   2.426  11.346 -2.6234  2.9195 -3.1175
 1012MOL0     H33524   7.965   2.255  11.308  1.3305 -1.1165 -0.7417
 1012MOL0     H33525   7.845   2.317  11.102  1.8084 -0.0150 -0.5462
 1012MOL0     H33526   7.865   2.485  11.145  0.6369  0.2789  0.0677
 1012MOL0     H33527   7.723   2.290  11.343 -0.2134  0.5969  1.4333
 1012MOL0     H33528   7.733   2.458  11.348  0.4462 -2.5746  2.2512
 1012MOL0     H33529   7.607   2.289  11.131 -0.4897 -1.3705  1.5027
 1012MOL0     H33530   7.616   2.450  11.098 -0.1795 -0.2326 -0.5058
 1012MOL0     H33531   7.475   2.484  11.311  0.3357 -0.0935 -1.2824
 1012MOL0     H33532   7.485   2.315  11.352  0.6236  1.1504  1.7829
 1012MOL0     H33533   7.397   2.280  11.091 -1.3933  0.4176 -1.2345
 1012MOL0     H33534   7.274   2.318  11.219 -0.8642  0.1672  0.8771
 1012MOL0     H33535   7.416   2.519  11.026 -1.2824  1.7506 -0.7130
 1012MOL0     H33536   7.323   2.566  11.163  0.8251  0.1072 -0.8631
 1012MOL0     H33537   7.315   2.326  10.857  1.3991  0.6822  1.2594
 1012MOL0     H33538   6.963   2.172  10.845  0.6292 -2.0807 -0.2266
 1012MOL0     H33539   7.123   2.132  10.787  2.0158  1.5165 -2.4296
 1012MOL0     H33540   7.115   2.273  10.606  0.4484 -0.7805  1.2863
 1012MOL0     H33541   6.961   2.355  10.652 -2.7577 -1.2275 -1.7030
 1012MOL0     H33542   6.947   2.188  10.460  1.1499 -1.5434 -0.7756
 1012MOL0     H33543   6.989   2.068  10.579  2.5093  1.2310  2.4540
 1012MOL0     H33544   6.753   2.262  10.601  0.4898 -0.0658 -0.8924
 1012MOL0     H33545   6.757   2.124  10.702 -1.4591 -0.3365 -1.0081
 1012MOL0     H33546   6.557   2.290  10.516  0.1252 -0.7494 -6.8890
 1012MOL0     H33547   6.314   2.297  10.555  0.3417  0.3139  2.2862
 1012MOL0     H33548   6.010   1.918  10.914  2.5459  1.0641 -1.1991
 1012MOL0     H33549   5.808   1.990  11.014 -0.6842 -0.0525  0.5275
 1012MOL0     H33550   5.606   2.092  11.096  1.3698 -0.5401  0.8221
 1012MOL0     H33551   5.538   1.959  10.986 -2.2280  1.1129 -1.6916
 1012MOL0     H33552   5.357   2.020  10.965 -1.7450  0.2094 -0.4018
 1012MOL0     H33553   5.390   2.195  10.973  2.9619  0.9279  1.9580
 1012MOL0     H33554   5.422   2.198  11.199  0.6558 -1.1264  1.5518
 1012MOL0     H33555   5.385   2.025  11.218 -0.0045  0.5771  1.0536
 1012MOL0     H33556   5.199   2.234  11.104 -2.4063 -0.7691 -1.0566
 1012MOL0     H33557   5.156   2.062  11.120 -0.5894  0.8138 -0.2516
 1012MOL0     H33558   5.171   2.097  11.366 -0.5753  0.2764  0.1644
 1012MOL0     H33559   5.037   2.195  11.298  1.0467  1.5252 -1.3776
 1012MOL0     H33560   5.181   2.402  11.292 -0.5172  0.8305  1.7127
 1012MOL0     H33561   5.318   2.316  11.351 -0.1261  2.0704  1.3090
 1012MOL0     H33562   5.068   2.296  11.518 -0.4352 -2.0708 -2.7529
 1012MOL0     H33563   5.232   2.323  11.576  3.1030 -2.3074 -3.6825
 1012MOL0     H33564   5.197   2.562  11.461  0.3813 -1.3742 -0.7599
 1012MOL0     H33565   5.099   2.542  11.612 -0.5439  0.7102 -0.1671
 1012MOL0     H33566   5.660   2.137  10.634  1.9516  3.1375 -1.6836
 1012MOL0     H33567   5.895   2.094  10.542  1.0399 -1.2496 -0.2776
 1012MOL0     H33568   6.310   1.869  10.568 -1.8600  0.6750  2.6043
 1012MOL0     H33569   6.552   1.871  10.543  0.8279 -0.3198  1.2135
 1012MOL0     H33570   8.399   2.401  11.417  0.8940 -1.5789  0.8706
 1012MOL0     H33571   8.635   2.348  11.377  0.3956 -1.3700 -0.8968
 1012MOL0     H33572   8.975   2.320  11.192 -2.2869 -1.1897  0.6778
 1012MOL0     H33573   9.207   2.287  11.188 -0.0010  0.0688 -1.8210
 1012MOL0     H33574   9.351   1.857  11.084  2.9213  0.8487 -1.5691
 1012MOL0     H33575   9.358   1.858  11.266 -0.3229  2.6751  1.6451
 1012MOL0     H33576   9.561   1.988  11.253  0.1677  1.4296 -1.7438
 1012MOL0     H33577   9.576   1.818  11.207 -2.8812 -2.1724  0.2375
 1012MOL0     H33578   9.551   2.060  11.023 -0.8784 -0.8971  1.5192
 1012MOL0     H33579   9.578   1.899  10.965  0.1308  0.8483 -1.1598
 1012MOL0     H33580   9.795   2.021  10.962  0.0863 -1.6487 -0.8785
 1012MOL0     H33581   9.786   2.041  11.137 -0.1919 -0.5239 -0.5138
 1012MOL0     H33582   9.929   1.645  11.067  0.7538 -0.0639 -2.1192
 1012MOL0     H33583   9.136   1.856  11.166  0.3918  0.2356  1.1996
 1012MOL0     H33584   8.894   1.911  11.105 -0.4492  0.8657 -2.7906
 1013MOL0     O33585   3.033   0.831   6.737  0.3562 -0.3609 -0.3523
 1013MOL0     C33586   3.054   0.891   6.633  0.4518 -0.4531 -0.0338
 1013MOL0     O33587   2.972   0.904   6.523 -0.1529 -0.4375 -0.8678
 1013MOL0     C33588   2.844   0.855   6.533  0.6512  1.1778 -0.4896
 1013MOL0     C33589   2.740   0.919   6.459 -0.3112 -0.1839  0.2619
 1013MOL0     C33590   2.603   0.873   6.464 -0.9993 -0.3871 -0.1041
 1013MOL0     C33591   2.569   0.756   6.535 -0.2911  0.0976 -0.3405
 1013MOL0     O33592   2.436   0.724   6.533 -0.1507 -0.3787 -0.0901
 1013MOL0     C33593   2.419   0.584   6.544  0.3274 -0.0543  0.2591
 1013MOL0     C33594   2.271   0.537   6.529 -0.2435 -0.0698 -0.3584
 1013MOL0     C33595   2.180   0.587   6.643  0.1870  0.0554 -0.1520
 1013MOL0     C33596   2.033   0.534   6.621 -0.8882  0.1146 -0.0050
 1013MOL0     C33597   1.942   0.592   6.724 -0.5914 -0.7903 -0.1009
 1013MOL0     C33598   1.800   0.608   6.683 -0.5767  0.1385 -0.1095
 1013MOL0     C33599   1.739   0.469   6.655  0.5343 -0.6117  0.0542
 1013MOL0     C33600   1.587   0.476   6.595  0.4207 -0.5479 -0.7021
 1013MOL0     N33601   1.515   0.359   6.560  0.6328  1.1843 -0.2684
 1013MOL0     C33602   1.471   0.260   6.643  0.3610  0.5396 -0.2498
 1013MOL0     C33603   1.405   0.172   6.561  0.0801 -0.2428 -0.4642
 1013MOL0     C33604   1.328   0.055   6.617  0.0618  0.2896 -0.1609
 1013MOL0     C33605   1.333  -0.056   6.507 -0.1809  0.1750 -0.5122
 1013MOL0     C33606   1.289  -0.182   6.578  0.0409  0.4226  0.4543
 1013MOL0     C33607   1.270  -0.287   6.473  0.3101 -1.1621 -0.3591
 1013MOL0     O33608   1.174  -0.252   6.377 -1.0166  0.6604  0.0823
 1013MOL0     C33609   1.038  -0.250   6.401 -0.9253 -0.3311 -0.2938
 1013MOL0     C33610   0.958  -0.204   6.298  0.2723  0.1713  0.7743
 1013MOL0     C33611   0.822  -0.186   6.313  0.4236 -0.3741  0.5179
 1013MOL0     C33612   0.761  -0.225   6.433 -0.9240 -0.0807 -0.0992
 1013MOL0     C33613   0.620  -0.215   6.439  0.0894 -1.1896 -0.1002
 1013MOL0     O33614   0.561  -0.127   6.357  0.3779 -0.7838  0.4907
 1013MOL0     C33615   0.422  -0.115   6.356  0.6295 -0.4322  0.0425
 1013MOL0     C33616   0.325  -0.214   6.340 -0.1752  0.5982  0.6893
 1013MOL0     C33617   0.192  -0.181   6.365  0.3656  0.3140 -0.8202
 1013MOL0     C33618   0.147  -0.053   6.373 -0.3245 -0.6533 -0.0567
 1013MOL0     O33619   0.008  -0.041   6.386  0.1128  0.1269  0.3637
 1013MOL0     C33620  -0.049   0.095   6.366  0.4055 -0.2426  0.2992
 1013MOL0     C33621  -0.205   0.077   6.367 -0.3194  0.0345  0.0611
 1013MOL0     C33622  -0.238  -0.000   6.236  0.0955 -0.1497  0.6176
 1013MOL0     C33623  -0.385  -0.007   6.207  0.2247 -0.5305 -1.2969
 1013MOL0     C33624  -0.463  -0.069   6.318 -0.7463 -1.3330  0.2005
 1013MOL0     C33625  -0.604  -0.105   6.270  0.5143  0.0154  0.0305
 1013MOL0     C33626  -0.704  -0.002   6.325 -0.0218  0.2521  0.2409
 1013MOL0     C33627  -0.844  -0.034   6.264  0.5680 -0.7095 -0.3807
 1013MOL0    Cl33628  -0.902  -0.183   6.345  0.1175  0.1214 -0.2203
 1013MOL0     C33629   0.240   0.050   6.381  0.7766  0.1518 -0.3279
 1013MOL0     C33630   0.379   0.019   6.366  0.0867  0.1169  0.8236
 1013MOL0     O33631   0.557  -0.290   6.523 -0.5891  0.6788  1.4828
 1013MOL0     C33632   0.833  -0.282   6.539 -0.3809 -0.6928  0.1274
 1013MOL0     C33633   0.978  -0.273   6.524 -0.7871 -0.3380  0.2912
 1013MOL0     N33634   1.433   0.204   6.427 -0.1953 -0.1640 -0.8322
 1013MOL0     N33635   1.486   0.322   6.430 -0.4553  0.9655  0.6825
 1013MOL0     C33636   2.671   0.686   6.599 -0.2770  0.0082  0.7802
 1013MOL0     C33637   2.805   0.729   6.586  0.4287  0.9617 -0.0344
 1013MOL0     C33638   3.194   0.943   6.614  0.7097  0.0801 -0.6167
 1013MOL0     C33639   3.287   0.923   6.720  0.6391 -0.6562  0.7896
 1013MOL0     C33640   3.414   0.986   6.703  0.6408 -1.8325 -0.2303
 1013MOL0     C33641   3.457   1.035   6.578 -0.2945 -0.3624  0.4135
 1013MOL0     O33642   3.586   1.077   6.564 -0.2733  0.4885 -0.1012
 1013MOL0     C33643   3.618   1.194   6.486 -0.7253 -0.8043 -0.0566
 1013MOL0     C33644   3.743   1.180   6.400 -0.3793 -0.7946  0.5523
 1013MOL0     C33645   3.807   1.313   6.341 -0.5603  0.0418  0.1797
 1013MOL0     C33646   3.833   1.285   6.184 -0.6029  0.2422 -0.9242
 1013MOL0     C33647   3.945   1.192   6.167  0.0911  0.4459 -0.2252
 1013MOL0     C33648   4.018   1.105   6.153 -0.0774  0.2899 -0.5307
 1013MOL0     C33649   3.366   1.039   6.466 -0.3343  0.0914  0.1757
 1013MOL0     C33650   3.233   1.006   6.494 -0.5654 -0.7257  0.1178
 1013MOL0     H33651   2.779   0.993   6.391 -0.7305  0.2130  0.4478
 1013MOL0     H33652   2.527   0.920   6.402 -0.9868 -1.9500 -1.3806
 1013MOL0     H33653   2.443   0.549   6.645  0.4971  0.5756  0.4403
 1013MOL0     H33654   2.481   0.541   6.464  2.0044  2.0236  0.3613
 1013MOL0     H33655   2.270   0.429   6.544  1.0856  0.0987  1.2037
 1013MOL0     H33656   2.233   0.560   6.429 -0.0929  0.9878 -0.1868
 1013MOL0     H33657   2.175   0.696   6.635  1.9507  0.4864  3.0605
 1013MOL0     H33658   2.214   0.560   6.743  0.0242  0.7900  0.1107
 1013MOL0     H33659   2.006   0.561   6.518  0.3052  3.3228  0.4188
 1013MOL0     H33660   2.048   0.426   6.634 -0.4141  0.0988 -0.6517
 1013MOL0     H33661   1.985   0.689   6.752  4.1302 -2.9378  1.2253
 1013MOL0     H33662   1.939   0.540   6.820 -2.1370 -1.1568 -0.3264
 1013MOL0     H33663   1.796   0.675   6.597  2.7647  2.6914  1.4959
 1013MOL0     H33664   1.741   0.669   6.752  0.9074  3.0281 -1.2343
 1013MOL0     H33665   1.785   0.418   6.570 -0.0892 -4.3067  1.7475
 1013MOL0     H33666   1.737   0.421   6.753  2.4925 -0.6587  0.1086
 1013MOL0     H33667   1.599   0.527   6.499 -1.7448 -0.1504 -0.8191
 1013MOL0     H33668   1.522   0.532   6.664 -0.0785 -4.5980  2.5389
 1013MOL0     H33669   1.478   0.235   6.748  2.5086  0.7009 -0.3184
 1013MOL0     H33670   1.222   0.072   6.636 -0.2477 -0.6945 -0.9139
 1013MOL0     H33671   1.386   0.028   6.705  4.1956 -0.5934 -2.8757
 1013MOL0     H33672   1.434  -0.079   6.473 -1.2459 -2.0465 -2.4808
 1013MOL0     H33673   1.270  -0.023   6.423 -2.5572  2.7534  2.0461
 1013MOL0     H33674   1.365  -0.211   6.650  0.7896  0.4469 -0.3142
 1013MOL0     H33675   1.197  -0.161   6.635  0.4985 -1.1906  1.8656
 1013MOL0     H33676   1.242  -0.382   6.518 -0.2435  0.0975  2.1958
 1013MOL0     H33677   1.371  -0.299   6.434  0.1561  0.8753 -1.5082
 1013MOL0     H33678   1.005  -0.174   6.205 -2.4858  2.1220 -0.1136
 1013MOL0     H33679   0.760  -0.154   6.230 -0.6046 -0.3042  1.2858
 1013MOL0     H33680   0.344  -0.320   6.330 -1.1825  0.5164 -0.4882
 1013MOL0     H33681   0.115  -0.258   6.360 -0.6005  0.5288  4.7180
 1013MOL0     H33682  -0.001   0.141   6.279  0.4145  0.3678  0.6210
 1013MOL0     H33683  -0.025   0.165   6.446  0.3340 -0.4909  0.5388
 1013MOL0     H33684  -0.252   0.175   6.376  0.2414  0.6507 -2.7677
 1013MOL0     H33685  -0.239   0.024   6.456  2.5311 -0.5149  0.9180
 1013MOL0     H33686  -0.188  -0.097   6.246  2.9170  0.9495 -1.5900
 1013MOL0     H33687  -0.183   0.050   6.156  1.3488 -1.5396  0.5561
 1013MOL0     H33688  -0.423   0.095   6.192  0.2175 -0.8530 -3.8158
 1013MOL0     H33689  -0.395  -0.072   6.120 -1.6495 -1.0465 -0.7457
 1013MOL0     H33690  -0.465  -0.006   6.407  1.6319 -1.6520  0.5482
 1013MOL0     H33691  -0.402  -0.157   6.343  1.0384 -0.1944  0.0480
 1013MOL0     H33692  -0.625  -0.201   6.318  1.2524  0.0591  0.4530
 1013MOL0     H33693  -0.606  -0.109   6.161  3.3208  0.9629 -0.1445
 1013MOL0     H33694  -0.701  -0.002   6.434 -1.9782 -2.5469  0.4079
 1013MOL0     H33695  -0.680   0.094   6.278 -0.2000  1.3435  2.2489
 1013MOL0     H33696  -0.845  -0.040   6.155 -0.2744  0.4734 -0.4518
 1013MOL0     H33697  -0.918   0.038   6.300 -0.0631 -1.2848 -0.5271
 1013MOL0     H33698   0.212   0.153   6.398  1.4174  0.0287  1.7075
 1013MOL0     H33699   0.450   0.102   6.372  0.9962 -0.4583 -1.0381
 1013MOL0     H33700   0.786  -0.329   6.625  1.7558 -1.5724  0.8881
 1013MOL0     H33701   1.038  -0.298   6.611  1.8985 -2.1010 -1.8990
 1013MOL0     H33702   2.653   0.602   6.664  0.8627 -0.6803  0.2442
 1013MOL0     H33703   2.890   0.665   6.609 -0.0158 -0.6464 -2.4777
 1013MOL0     H33704   3.263   0.892   6.822  0.2459 -1.0551  0.5770
 1013MOL0     H33705   3.483   0.987   6.787  0.9786 -1.8148 -0.5056
 1013MOL0     H33706   3.628   1.283   6.549 -2.9840  0.0263 -0.7782
 1013MOL0     H33707   3.536   1.221   6.418  0.7684 -0.6625 -1.8946
 1013MOL0     H33708   3.828   1.145   6.459  1.1277  1.5639 -0.0851
 1013MOL0     H33709   3.722   1.105   6.323 -1.8162  0.3048 -0.1821
 1013MOL0     H33710   3.901   1.336   6.391  0.4902 -0.6388 -1.4171
 1013MOL0     H33711   3.742   1.399   6.359  0.7165  0.5697  2.7094
 1013MOL0     H33712   3.745   1.242   6.135  0.7043  0.1669 -3.3701
 1013MOL0     H33713   3.867   1.375   6.133  1.1940 -0.3896 -0.9124
 1013MOL0     H33714   4.069   1.013   6.137 -3.6880 -1.6879 -1.7737
 1013MOL0     H33715   3.401   1.077   6.370 -1.0434 -2.1371 -1.0245
 1013MOL0     H33716   3.157   1.033   6.422  2.2360  0.8270 -2.5371
 1014MOL0     O33717   0.693   9.502   4.376  0.1261  0.1344  1.3978
 1014MOL0     C33718   0.702   9.551   4.263 -0.1403  0.1643 -0.4925
 1014MOL0     O33719   0.617   9.638   4.203  0.2624 -0.1373 -1.5825
 1014MOL0     C33720   0.476   9.638   4.231 -0.1473  0.1385  0.2365
 1014MOL0     C33721   0.401   9.755   4.216 -1.0401  1.2914 -0.2415
 1014MOL0     C33722   0.262   9.755   4.235 -0.0810 -0.0227  0.9812
 1014MOL0     C33723   0.198   9.646   4.279  0.4355  0.0517 -0.4573
 1014MOL0     O33724   0.058   9.631   4.307 -0.2385 -0.1657  0.5766
 1014MOL0     C33725  -0.031   9.744   4.271 -0.9307 -0.0949 -0.1383
 1014MOL0     C33726  -0.143   9.742   4.375 -0.0097 -0.7299 -0.4456
 1014MOL0     C33727  -0.218   9.608   4.391  0.0377  0.1924  0.0354
 1014MOL0     C33728  -0.357   9.606   4.449  0.3910  0.2716  0.3478
 1014MOL0     C33729  -0.451   9.667   4.349  0.5482  0.7101  0.8740
 1014MOL0     C33730  -0.599   9.638   4.393  0.0045 -0.4583  0.3734
 1014MOL0     C33731  -0.708   9.737   4.332 -0.3711 -0.5503 -1.0923
 1014MOL0     C33732  -0.852   9.697   4.377  0.2899 -0.2432  1.3339
 1014MOL0     N33733  -0.947   9.765   4.295 -0.1623 -0.5513 -0.1426
 1014MOL0     C33734  -1.034   9.705   4.208 -0.2817  0.0314 -0.5499
 1014MOL0     C33735  -1.116   9.804   4.170 -0.5949  0.0304  0.0971
 1014MOL0     C33736  -1.227   9.800   4.073  0.5425  1.0900  0.4242
 1014MOL0     C33737  -1.195   9.710   3.958  0.0909 -0.1527 -0.5177
 1014MOL0     C33738  -1.295   9.740   3.845 -1.0324  0.3569 -0.0331
 1014MOL0     C33739  -1.451   9.742   3.872  0.2780  0.1448 -0.0116
 1014MOL0     O33740  -1.528   9.739   3.756  0.6655  0.5194  0.0574
 1014MOL0     C33741  -1.665   9.715   3.768 -0.3268  0.2504 -0.4034
 1014MOL0     C33742  -1.735   9.735   3.889 -0.3156  0.3270  0.5136
 1014MOL0     C33743  -1.874   9.697   3.895 -1.2974  1.0148 -0.6444
 1014MOL0     C33744  -1.937   9.630   3.795  0.1623 -0.1800 -0.1704
 1014MOL0     C33745  -2.071   9.566   3.809  0.7840 -0.3376  0.8651
 1014MOL0     O33746  -2.147   9.603   3.916  0.0468  0.0381 -0.0102
 1014MOL0     C33747  -2.246   9.519   3.965  0.3591 -0.3950 -0.4781
 1014MOL0     C33748  -2.359   9.583   4.011  0.1556  0.2227 -0.0651
 1014MOL0     C33749  -2.458   9.515   4.085  0.1903 -0.2130  0.0912
 1014MOL0     C33750  -2.456   9.381   4.101 -0.0091 -0.1206  0.5521
 1014MOL0     O33751  -2.550   9.312   4.167  0.2245  0.0809 -0.2599
 1014MOL0     C33752  -2.668   9.294   4.099 -0.7728  1.1511 -0.2297
 1014MOL0     C33753  -2.775   9.233   4.194  0.7400  0.2149 -0.1546
 1014MOL0     C33754  -2.834   9.345   4.273  0.4815 -0.0971 -0.0216
 1014MOL0     C33755  -2.937   9.291   4.383 -1.4989 -0.0052 -1.0473
 1014MOL0     C33756  -3.072   9.348   4.358 -0.8250 -0.9363  0.8840
 1014MOL0     C33757  -3.168   9.280   4.453  0.8013 -1.0708 -1.4293
 1014MOL0     C33758  -3.293   9.251   4.384  0.1894  0.0548 -0.5404
 1014MOL0     C33759  -3.407   9.234   4.477  1.0002  0.3705  0.6099
 1014MOL0    Cl33760  -3.543   9.158   4.396  0.6923 -0.4606  0.0234
 1014MOL0     C33761  -2.338   9.316   4.057 -0.5715  0.9748 -0.2948
 1014MOL0     C33762  -2.238   9.376   3.988  0.2109 -0.1175  0.1009
 1014MOL0     O33763  -2.104   9.487   3.718  0.4212 -0.2140 -0.6379
 1014MOL0     C33764  -1.861   9.611   3.676 -1.3394  0.6833 -0.2709
 1014MOL0     C33765  -1.729   9.654   3.666 -0.1294  0.0600 -0.3885
 1014MOL0     N33766  -1.065   9.922   4.215 -0.7558 -0.2956  0.3805
 1014MOL0     N33767  -0.961   9.900   4.291 -0.2806 -0.5419  0.4586
 1014MOL0     C33768   0.276   9.533   4.322  0.2641  0.6788 -0.1330
 1014MOL0     C33769   0.414   9.532   4.295 -0.3113  0.9360  0.0023
 1014MOL0     C33770   0.825   9.551   4.191 -0.4404  0.9022  1.0282
 1014MOL0     C33771   0.901   9.429   4.187  0.8150 -0.3912  0.0155
 1014MOL0     C33772   1.018   9.411   4.116 -0.5566 -1.0832  0.6609
 1014MOL0     C33773   1.066   9.523   4.045  0.3168 -0.3878 -0.2486
 1014MOL0     O33774   1.179   9.507   3.968 -0.1772 -0.0359  0.1172
 1014MOL0     C33775   1.293   9.587   4.006 -0.1081 -0.4284  0.3248
 1014MOL0     C33776   1.385   9.511   4.099  0.3879  0.4504 -0.0540
 1014MOL0     C33777   1.476   9.408   4.030 -0.0584 -1.0306 -0.2160
 1014MOL0     C33778   1.609   9.481   3.971 -0.2626  0.1450 -0.7598
 1014MOL0     C33779   1.735   9.408   4.024  0.2355  0.3850  0.3937
 1014MOL0     C33780   1.821   9.353   4.080 -0.2124  0.5970 -0.5814
 1014MOL0     C33781   1.006   9.650   4.050  0.0315  0.5322 -0.0190
 1014MOL0     C33782   0.880   9.658   4.113  0.5938  0.5405 -0.3191
 1014MOL0     H33783   0.450   9.843   4.175 -0.8046  1.1675 -0.2287
 1014MOL0     H33784   0.199   9.837   4.202 -0.1819 -0.9461 -1.2483
 1014MOL0     H33785  -0.062   9.729   4.167 -0.1457  0.5575 -0.4733
 1014MOL0     H33786   0.013   9.844   4.274  3.4435 -1.8280  2.8812
 1014MOL0     H33787  -0.224   9.815   4.365 -1.3731 -2.3553 -1.9571
 1014MOL0     H33788  -0.102   9.762   4.474  1.7016  1.8072 -1.5660
 1014MOL0     H33789  -0.169   9.550   4.469 -1.1724  0.0309  0.6967
 1014MOL0     H33790  -0.218   9.547   4.300 -3.7332 -0.7129  0.5148
 1014MOL0     H33791  -0.397   9.510   4.483 -1.1785  0.9002  0.3433
 1014MOL0     H33792  -0.364   9.673   4.536 -1.3492  3.4864 -2.0390
 1014MOL0     H33793  -0.445   9.610   4.256  0.2516 -1.1148  1.9367
 1014MOL0     H33794  -0.435   9.772   4.324 -1.1130  0.2543 -2.6655
 1014MOL0     H33795  -0.602   9.659   4.500  0.3819 -1.6053  0.6182
 1014MOL0     H33796  -0.622   9.534   4.370  2.4447 -1.1103  0.6446
 1014MOL0     H33797  -0.679   9.839   4.356  1.1076 -1.0197 -0.7726
 1014MOL0     H33798  -0.696   9.730   4.223  3.1487 -5.1913 -0.7326
 1014MOL0     H33799  -0.875   9.718   4.482  1.1345  0.6988  1.3447
 1014MOL0     H33800  -0.868   9.593   4.349  2.2852  0.2304 -2.1328
 1014MOL0     H33801  -1.038   9.600   4.183 -2.0449 -0.8093  2.7538
 1014MOL0     H33802  -1.252   9.902   4.044 -0.2775  0.8663  0.3194
 1014MOL0     H33803  -1.309   9.751   4.127  2.5060 -1.7944  1.0666
 1014MOL0     H33804  -1.202   9.606   3.991  0.2845 -0.1679 -0.5243
 1014MOL0     H33805  -1.092   9.735   3.931 -0.0812  0.8518 -0.2787
 1014MOL0     H33806  -1.278   9.830   3.785 -1.6031  1.7206  1.7613
 1014MOL0     H33807  -1.265   9.664   3.772  2.8421  1.7635 -0.1177
 1014MOL0     H33808  -1.475   9.829   3.934  0.4167 -0.5652  1.0659
 1014MOL0     H33809  -1.476   9.658   3.937  0.6089 -2.0811 -2.5813
 1014MOL0     H33810  -1.688   9.782   3.975 -1.5952  1.4886  0.6169
 1014MOL0     H33811  -1.935   9.720   3.982  1.1044  1.0359  1.1366
 1014MOL0     H33812  -2.373   9.689   3.991 -0.8466 -0.0205 -0.7311
 1014MOL0     H33813  -2.539   9.569   4.133  0.2356  0.9084 -1.0589
 1014MOL0     H33814  -2.648   9.224   4.017  2.7339 -0.3865  1.6786
 1014MOL0     H33815  -2.693   9.389   4.051 -1.3722 -0.6765 -3.8739
 1014MOL0     H33816  -2.733   9.151   4.253 -0.7820 -2.1657 -2.1553
 1014MOL0     H33817  -2.854   9.178   4.142  0.1882 -2.2146  2.9422
 1014MOL0     H33818  -2.881   9.410   4.198  0.6989 -1.2110 -1.1728
 1014MOL0     H33819  -2.758   9.408   4.319  1.7897 -0.9638 -0.9182
 1014MOL0     H33820  -2.931   9.182   4.369  1.9947  0.0582 -0.8716
 1014MOL0     H33821  -2.911   9.321   4.485  0.7562  1.5475 -1.9982
 1014MOL0     H33822  -3.099   9.317   4.256 -1.2809  0.4271  0.5584
 1014MOL0     H33823  -3.066   9.457   4.369  3.3139 -1.1082  1.6872
 1014MOL0     H33824  -3.194   9.349   4.534 -2.4702 -1.0011 -2.4167
 1014MOL0     H33825  -3.139   9.185   4.500 -0.3423  0.6714  3.4059
 1014MOL0     H33826  -3.311   9.327   4.307  0.6405 -0.2482 -0.9469
 1014MOL0     H33827  -3.282   9.156   4.332 -2.8756 -0.6007 -0.1749
 1014MOL0     H33828  -3.437   9.325   4.530 -0.1511 -0.4847  1.4868
 1014MOL0     H33829  -3.394   9.163   4.560  3.2368 -1.9796 -1.5675
 1014MOL0     H33830  -2.321   9.209   4.064 -1.1194  0.7761 -1.7129
 1014MOL0     H33831  -2.148   9.323   3.958 -0.4805 -1.5940  0.5198
 1014MOL0     H33832  -1.911   9.550   3.602 -4.0427 -0.6439  2.4139
 1014MOL0     H33833  -1.680   9.629   3.572 -1.3986 -1.7540 -0.6187
 1014MOL0     H33834   0.235   9.438   4.353  1.4528 -0.0581 -0.7303
 1014MOL0     H33835   0.465   9.436   4.307  0.6565  1.4211 -0.1300
 1014MOL0     H33836   0.853   9.344   4.235 -2.0726  1.2235  0.2170
 1014MOL0     H33837   1.064   9.313   4.110  2.3652  0.1895  0.5694
 1014MOL0     H33838   1.251   9.677   4.053 -2.3586 -1.5911  0.6442
 1014MOL0     H33839   1.345   9.607   3.912 -0.5563 -1.0294 -0.0513
 1014MOL0     H33840   1.451   9.576   4.157  0.9940  0.3194 -0.5941
 1014MOL0     H33841   1.328   9.461   4.178  0.2865 -0.7499 -0.8744
 1014MOL0     H33842   1.423   9.348   3.956  1.4187  0.1038 -2.3150
 1014MOL0     H33843   1.511   9.330   4.098  3.2012 -0.7483 -1.3924
 1014MOL0     H33844   1.614   9.484   3.861  1.5109  1.5170 -0.6989
 1014MOL0     H33845   1.607   9.585   4.007  3.2417  0.3787 -0.9125
 1014MOL0     H33846   1.915   9.324   4.121  0.6992  0.6506 -2.5273
 1014MOL0     H33847   1.044   9.730   3.988  3.2131  0.2879  1.4268
 1014MOL0     H33848   0.827   9.753   4.105 -1.4257 -0.6706 -2.8247
 1015MOL0     O33849  11.194   5.514  10.221  0.3425  0.0641  0.5635
 1015MOL0     C33850  11.185   5.434  10.122  0.1260 -0.2092 -0.1228
 1015MOL0     O33851  11.075   5.411  10.041 -0.4887 -0.1188 -0.2869
 1015MOL0     C33852  10.961   5.481  10.079 -0.0300  0.4015  0.0795
 1015MOL0     C33853  10.889   5.421  10.183 -0.6160 -0.3056  0.3579
 1015MOL0     C33854  10.776   5.474  10.241 -0.1492 -0.2475 -0.1453
 1015MOL0     C33855  10.734   5.594  10.175 -0.0874 -0.1759 -0.6627
 1015MOL0     O33856  10.615   5.651  10.221 -0.4730  0.1388  0.1224
 1015MOL0     C33857  10.583   5.786  10.197  0.5822  0.0434 -0.7172
 1015MOL0     C33858  10.441   5.811  10.256  0.5463  0.1279 -0.3020
 1015MOL0     C33859  10.378   5.954  10.249 -0.6066 -0.5774 -0.5140
 1015MOL0     C33860  10.240   5.953  10.307 -0.4141 -0.6154 -0.0309
 1015MOL0     C33861  10.173   6.092  10.285 -0.8737  0.6856  0.5377
 1015MOL0     C33862  10.155   6.126  10.138  0.9033  0.4772  0.1665
 1015MOL0     C33863  10.067   6.257  10.136  0.9595  1.1540 -0.1852
 1015MOL0     C33864   9.930   6.222  10.076  0.0842 -0.9050 -0.1081
 1015MOL0     N33865   9.843   6.332  10.122 -0.3640 -0.1939  0.5852
 1015MOL0     C33866   9.758   6.333  10.226 -0.1671 -0.6871 -0.6001
 1015MOL0     C33867   9.710   6.460  10.227 -0.2391  0.8936 -0.3319
 1015MOL0     C33868   9.617   6.526  10.323 -0.0931  0.4103 -0.1487
 1015MOL0     C33869   9.468   6.534  10.275  0.2271 -0.1247  0.6991
 1015MOL0     C33870   9.367   6.557  10.393  0.9330  0.1148 -0.2445
 1015MOL0     C33871   9.234   6.599  10.331 -0.0072 -0.7910  0.7404
 1015MOL0     O33872   9.149   6.662  10.435 -0.2545 -0.0743  0.3066
 1015MOL0     C33873   9.058   6.596  10.508  0.6395  0.3778  0.2378
 1015MOL0     C33874   9.006   6.471  10.480 -0.1319 -0.5989 -0.0545
 1015MOL0     C33875   8.887   6.426  10.548  0.3248  0.0520  0.1139
 1015MOL0     C33876   8.840   6.499  10.655  0.3525  0.0459 -0.0108
 1015MOL0     C33877   8.743   6.434  10.742  0.4455 -0.1077 -0.0630
 1015MOL0     O33878   8.650   6.520  10.792 -0.0153 -0.2432  0.3112
 1015MOL0     C33879   8.559   6.465  10.876 -0.3603  0.2471 -0.1917
 1015MOL0     C33880   8.436   6.416  10.837  0.3508  0.5481  0.3898
 1015MOL0     C33881   8.347   6.356  10.931  0.3011 -0.9932 -0.2751
 1015MOL0     C33882   8.384   6.356  11.063 -0.0167 -0.0424  0.0832
 1015MOL0     O33883   8.296   6.282  11.137 -0.2648  0.7006 -0.3346
 1015MOL0     C33884   8.262   6.353  11.262  0.3188 -0.6973 -0.6292
 1015MOL0     C33885   8.113   6.327  11.300  0.3614  0.3865 -0.4958
 1015MOL0     C33886   8.009   6.390  11.211  0.1458 -0.4884 -0.2862
 1015MOL0     C33887   8.000   6.539  11.240 -0.9460  0.6907 -0.0507
 1015MOL0     C33888   7.901   6.620  11.153 -0.0598  1.0103 -0.3822
 1015MOL0     C33889   7.886   6.765  11.185 -0.8196 -1.0720 -0.2317
 1015MOL0     C33890   8.025   6.837  11.160 -0.5094  0.1731  0.1668
 1015MOL0     C33891   8.062   6.833  11.012 -0.3636 -0.2756 -0.1477
 1015MOL0    Cl33892   8.194   6.945  10.979  0.2427 -0.2742  0.3950
 1015MOL0     C33893   8.499   6.414  11.110 -1.1342 -0.6411 -0.0301
 1015MOL0     C33894   8.595   6.472  11.013  0.3895  0.4763 -0.7366
 1015MOL0     O33895   8.755   6.310  10.762  0.4685 -0.3396  0.3727
 1015MOL0     C33896   8.890   6.622  10.682 -0.1305 -0.1057 -0.5814
 1015MOL0     C33897   9.000   6.677  10.613  0.0448 -0.1671 -0.1371
 1015MOL0     N33898   9.784   6.542  10.146  0.0894  0.5721  0.0811
 1015MOL0     N33899   9.857   6.466  10.074  0.3357  0.2000  0.2145
 1015MOL0     C33900  10.798   5.653  10.059 -0.3085  0.9099  0.2045
 1015MOL0     C33901  10.914   5.596  10.013 -0.1241  0.1271  0.8013
 1015MOL0     C33902  11.309   5.356  10.080  0.1704 -0.0840  0.2879
 1015MOL0     C33903  11.433   5.391  10.137 -0.2927  0.1087  0.8329
 1015MOL0     C33904  11.552   5.319  10.110  0.2364  0.2713 -0.0738
 1015MOL0     C33905  11.557   5.221  10.008  0.3529 -0.6336 -0.2155
 1015MOL0     O33906  11.682   5.177   9.971 -0.5908  0.6490 -0.0325
 1015MOL0     C33907  11.696   5.045   9.905  0.2056 -0.1315  0.3368
 1015MOL0     C33908  11.851   5.008   9.902  0.6973 -0.0629  0.5649
 1015MOL0     C33909  11.858   4.886   9.817 -0.0073  0.7532 -0.1284
 1015MOL0     C33910  11.861   4.912   9.660 -0.2959  0.1824  0.3268
 1015MOL0     C33911  11.867   4.786   9.576  0.1382 -0.8189  0.6828
 1015MOL0     C33912  11.879   4.691   9.506  0.7468  0.2729 -0.3817
 1015MOL0     C33913  11.437   5.186   9.944  0.3277  0.4622 -0.2444
 1015MOL0     C33914  11.318   5.247   9.980  0.8051  0.6311  0.2486
 1015MOL0     H33915  10.915   5.324  10.225 -2.2963 -1.5837 -1.3256
 1015MOL0     H33916  10.715   5.430  10.318  1.1898 -3.5666 -0.8182
 1015MOL0     H33917  10.588   5.797  10.088  0.1052 -1.6365 -0.9329
 1015MOL0     H33918  10.666   5.845  10.239  1.0584 -1.3777  0.4271
 1015MOL0     H33919  10.446   5.785  10.362 -1.0931  0.5418 -0.1051
 1015MOL0     H33920  10.376   5.732  10.219 -1.2418  0.5965  1.6252
 1015MOL0     H33921  10.375   5.973  10.141 -0.2658 -2.2819 -0.8493
 1015MOL0     H33922  10.441   6.028  10.299 -0.4820 -2.1260  1.7693
 1015MOL0     H33923  10.180   5.884  10.247  2.4269 -1.4132 -2.1555
 1015MOL0     H33924  10.231   5.913  10.409  0.1074 -0.8923 -0.0937
 1015MOL0     H33925  10.241   6.162  10.334  1.0863 -0.4435 -0.4449
 1015MOL0     H33926  10.078   6.088  10.338 -2.0839 -0.8423 -1.5794
 1015MOL0     H33927  10.115   6.047  10.074  1.6997  0.4966 -0.3647
 1015MOL0     H33928  10.249   6.146  10.086  0.4443  0.2756 -0.7523
 1015MOL0     H33929  10.051   6.288  10.240  3.9418  1.8233  0.1678
 1015MOL0     H33930  10.108   6.340  10.077 -1.9687  3.0763  0.2358
 1015MOL0     H33931   9.901   6.122  10.109  0.5025 -0.9960 -0.0033
 1015MOL0     H33932   9.937   6.224   9.967 -0.7216 -2.9320 -0.2261
 1015MOL0     H33933   9.697   6.266  10.285 -1.9815  4.3789  4.0954
 1015MOL0     H33934   9.635   6.627  10.362 -2.6800  1.2514 -0.8863
 1015MOL0     H33935   9.616   6.459  10.410  0.5471  0.9041  0.2450
 1015MOL0     H33936   9.442   6.443  10.220 -1.2961  0.0801  1.0590
 1015MOL0     H33937   9.472   6.620  10.207  1.3935 -0.9126 -0.2798
 1015MOL0     H33938   9.354   6.465  10.451 -2.9808 -0.4312 -1.6918
 1015MOL0     H33939   9.408   6.645  10.443  2.5977  0.4534 -2.1076
 1015MOL0     H33940   9.189   6.509  10.288 -1.2161 -0.0824  0.4870
 1015MOL0     H33941   9.240   6.677  10.255 -2.8781 -0.7477  0.4566
 1015MOL0     H33942   9.051   6.412  10.401  2.7971 -2.0688  2.4746
 1015MOL0     H33943   8.839   6.333  10.520  0.0460  0.4335 -0.7069
 1015MOL0     H33944   8.400   6.411  10.735  1.7664 -2.0561 -0.0650
 1015MOL0     H33945   8.254   6.310  10.899  0.3389 -0.5372 -1.0812
 1015MOL0     H33946   8.285   6.460  11.258 -1.9145  0.0390  2.2855
 1015MOL0     H33947   8.324   6.307  11.339 -1.2920 -1.1816  0.4250
 1015MOL0     H33948   8.089   6.349  11.404 -3.3799 -0.3669 -1.0186
 1015MOL0     H33949   8.111   6.218  11.295  0.0702  0.3953 -0.6464
 1015MOL0     H33950   7.908   6.355  11.232 -0.6872  1.1446 -1.3726
 1015MOL0     H33951   8.040   6.377  11.107 -1.7961  1.4845 -1.2026
 1015MOL0     H33952   7.972   6.536  11.346  1.0832 -0.3714  0.4991
 1015MOL0     H33953   8.102   6.577  11.234 -0.9623  0.5459 -1.3483
 1015MOL0     H33954   7.803   6.574  11.163 -0.6512  1.8325 -1.9743
 1015MOL0     H33955   7.927   6.611  11.047 -0.4489 -2.5606 -0.2958
 1015MOL0     H33956   7.866   6.774  11.292  0.5219 -0.0391 -0.0486
 1015MOL0     H33957   7.807   6.809  11.123  0.4481  2.2766  0.2923
 1015MOL0     H33958   7.997   6.940  11.183 -2.4317 -0.2848  0.0384
 1015MOL0     H33959   8.105   6.805  11.228  0.8838  0.0954 -1.4563
 1015MOL0     H33960   7.970   6.854  10.955 -0.0890  0.3188 -0.3748
 1015MOL0     H33961   8.100   6.734  10.983 -0.4996  0.1269 -1.8214
 1015MOL0     H33962   8.521   6.415  11.216 -2.0583  2.4866  0.2389
 1015MOL0     H33963   8.693   6.508  11.045 -0.1240  1.5557 -0.3601
 1015MOL0     H33964   8.853   6.686  10.763 -1.4385 -2.1359  0.5089
 1015MOL0     H33965   9.029   6.781  10.626  1.8135 -0.7806  1.1817
 1015MOL0     H33966  10.762   5.745  10.014  2.8582  1.5000 -1.4027
 1015MOL0     H33967  10.972   5.648   9.938 -0.7248 -2.4511 -1.6435
 1015MOL0     H33968  11.435   5.470  10.212 -2.1252 -0.2541  1.3081
 1015MOL0     H33969  11.642   5.360  10.155 -0.9285 -0.0556  2.7010
 1015MOL0     H33970  11.646   5.057   9.809 -1.2094  1.9174  1.2829
 1015MOL0     H33971  11.634   4.965   9.947 -2.1549  1.4505  0.0057
 1015MOL0     H33972  11.903   5.089   9.848 -1.3307  1.0958  0.2258
 1015MOL0     H33973  11.883   5.006  10.006  1.2479  2.0323  0.4982
 1015MOL0     H33974  11.780   4.813   9.841  1.6231 -2.0000 -2.5719
 1015MOL0     H33975  11.949   4.830   9.844  1.4642  3.7795  1.6505
 1015MOL0     H33976  11.768   4.967   9.644  0.6406  2.6761  2.7372
 1015MOL0     H33977  11.951   4.968   9.635  0.3706 -1.0462 -0.1362
 1015MOL0     H33978  11.883   4.611   9.436  0.9205  0.0491 -0.1188
 1015MOL0     H33979  11.454   5.100   9.880 -3.3420  1.3113 -2.6545
 1015MOL0     H33980  11.234   5.227   9.914  0.5595 -0.6305  0.9094
 1016MOL0     O33981   1.445   9.559   1.471  0.3674 -0.5067 -0.2305
 1016MOL0     C33982   1.418   9.600   1.360  0.4123 -0.5981 -0.3450
 1016MOL0     O33983   1.302   9.649   1.321  0.3763 -0.5869  0.2985
 1016MOL0     C33984   1.192   9.661   1.407 -0.1482 -0.3608  0.0295
 1016MOL0     C33985   1.201   9.706   1.544  0.2227  0.9897  0.9825
 1016MOL0     C33986   1.086   9.742   1.621  0.5717  0.0840 -0.2000
 1016MOL0     C33987   0.962   9.713   1.576  0.4829  0.2894  0.1232
 1016MOL0     O33988   0.848   9.752   1.652 -0.0981 -0.1548 -0.2648
 1016MOL0     C33989   0.722   9.693   1.631  0.1578 -0.4318 -0.2810
 1016MOL0     C33990   0.626   9.778   1.717 -0.0773  0.0758  0.6687
 1016MOL0     C33991   0.482   9.730   1.691  0.5627 -0.0545 -0.6738
 1016MOL0     C33992   0.382   9.796   1.782 -0.3443  0.6086 -0.7101
 1016MOL0     C33993   0.234   9.744   1.748  0.0682 -0.0894 -0.4066
 1016MOL0     C33994   0.129   9.813   1.832 -0.2137  0.4573 -0.1625
 1016MOL0     C33995  -0.006   9.799   1.758  0.2913  0.0256  0.1996
 1016MOL0     C33996  -0.055   9.655   1.774  0.5730 -0.6940  0.2599
 1016MOL0     N33997  -0.197   9.629   1.746 -1.2980 -0.0578  0.2447
 1016MOL0     C33998  -0.260   9.649   1.627  0.0201 -0.5451  0.3293
 1016MOL0     C33999  -0.383   9.630   1.650  1.0386 -0.6931 -0.0871
 1016MOL0     C34000  -0.492   9.651   1.550 -0.4542 -0.1483 -0.1213
 1016MOL0     C34001  -0.614   9.729   1.608  0.0371 -0.2574  0.5599
 1016MOL0     C34002  -0.720   9.639   1.663 -0.0724  0.5427 -0.2040
 1016MOL0     C34003  -0.834   9.728   1.721 -0.1508  0.0104 -0.6146
 1016MOL0     O34004  -0.907   9.808   1.627  0.5504  0.3063  0.6709
 1016MOL0     C34005  -1.029   9.876   1.648  0.4851  0.5791  0.1183
 1016MOL0     C34006  -1.071   9.965   1.554  0.0516  0.1291  0.2094
 1016MOL0     C34007  -1.181  10.051   1.582  0.1134  0.1706 -0.0952
 1016MOL0     C34008  -1.256  10.030   1.697 -0.0658 -0.4676 -0.2591
 1016MOL0     C34009  -1.376  10.120   1.722 -0.1363  0.0719  0.1140
 1016MOL0     O34010  -1.412  10.208   1.622 -0.8924 -0.7122 -0.0490
 1016MOL0     C34011  -1.504  10.293   1.660  0.3187 -0.1587 -0.2536
 1016MOL0     C34012  -1.634  10.280   1.613 -0.0838  0.4848 -0.6344
 1016MOL0     C34013  -1.724  10.357   1.656  0.9824 -0.3182 -0.4522
 1016MOL0     C34014  -1.701  10.464   1.736 -0.3527 -0.0770 -0.8607
 1016MOL0     O34015  -1.806  10.553   1.762 -0.3239  0.2173 -0.0581
 1016MOL0     C34016  -1.873  10.519   1.885 -0.2342  0.1927 -0.2924
 1016MOL0     C34017  -1.889  10.629   1.994 -0.8654  0.5883  0.7539
 1016MOL0     C34018  -1.745  10.676   2.022  0.3115  0.1357 -0.3205
 1016MOL0     C34019  -1.743  10.795   2.119  0.2272 -0.1367  0.7947
 1016MOL0     C34020  -1.616  10.854   2.192 -0.0352 -1.6072  0.6359
 1016MOL0     C34021  -1.522  10.759   2.255 -0.0700  0.6195 -0.5525
 1016MOL0     C34022  -1.593  10.683   2.361  0.1165  0.5057 -0.5765
 1016MOL0     C34023  -1.491  10.578   2.398 -0.2682 -0.8401  0.3263
 1016MOL0    Cl34024  -1.553  10.492   2.545 -0.1214 -0.1279 -0.6508
 1016MOL0     C34025  -1.572  10.484   1.779 -0.5969  0.1210 -0.1852
 1016MOL0     C34026  -1.476  10.398   1.747  0.6158 -0.4162  0.1788
 1016MOL0     O34027  -1.413  10.118   1.840  0.2934  0.7967 -0.0528
 1016MOL0     C34028  -1.214   9.932   1.791  0.1532 -0.3581  0.0465
 1016MOL0     C34029  -1.105   9.856   1.757  0.1219  1.0784 -0.0061
 1016MOL0     N34030  -0.404   9.590   1.780 -0.0008 -0.3341 -0.3957
 1016MOL0     N34031  -0.286   9.577   1.833 -0.0496 -1.0926 -0.2298
 1016MOL0     C34032   0.948   9.673   1.437 -0.0540  0.3984 -0.6736
 1016MOL0     C34033   1.058   9.650   1.354 -0.5191 -0.1159 -1.1419
 1016MOL0     C34034   1.540   9.622   1.267 -0.0201  0.4629  0.3795
 1016MOL0     C34035   1.511   9.685   1.139 -0.4539 -0.1412 -0.0208
 1016MOL0     C34036   1.613   9.704   1.038  0.5097  0.2992 -0.1574
 1016MOL0     C34037   1.742   9.676   1.069 -0.5134 -0.1125  0.0625
 1016MOL0     O34038   1.853   9.694   0.997  0.2972 -0.1580  0.7367
 1016MOL0     C34039   1.884   9.832   0.957 -1.0273 -0.6317  0.5419
 1016MOL0     C34040   1.985   9.839   0.846  0.1398  0.3288  0.3366
 1016MOL0     C34041   2.133   9.851   0.884  0.2717  0.7197  0.3164
 1016MOL0     C34042   2.215   9.722   0.870  1.0246  0.8932  0.1713
 1016MOL0     C34043   2.353   9.738   0.913 -0.2310  0.4905 -0.2916
 1016MOL0     C34044   2.471   9.753   0.922  0.4552 -0.5678 -0.2163
 1016MOL0     C34045   1.772   9.623   1.195 -1.1949  0.4372 -0.6467
 1016MOL0     C34046   1.674   9.596   1.294  0.5072  0.2216 -0.3995
 1016MOL0     H34047   1.301   9.714   1.584  1.1530  1.2565 -1.2326
 1016MOL0     H34048   1.109   9.788   1.716  0.2157  2.3876 -1.1559
 1016MOL0     H34049   0.723   9.588   1.661 -3.5579  0.1817  2.8257
 1016MOL0     H34050   0.684   9.703   1.529  0.9375 -1.2720 -0.6605
 1016MOL0     H34051   0.631   9.882   1.683  1.7047 -0.3733 -0.6106
 1016MOL0     H34052   0.654   9.780   1.822 -3.4353 -0.2353  1.6882
 1016MOL0     H34053   0.469   9.621   1.695  0.6775 -0.2478 -3.3537
 1016MOL0     H34054   0.441   9.745   1.590  0.1431 -0.6209 -0.5959
 1016MOL0     H34055   0.407   9.762   1.883 -0.4838  0.5839 -0.6843
 1016MOL0     H34056   0.385   9.904   1.764 -2.4677  1.0680  1.1425
 1016MOL0     H34057   0.227   9.637   1.767  0.6216 -0.0947 -0.2250
 1016MOL0     H34058   0.217   9.754   1.640  4.4204  0.4529 -1.2148
 1016MOL0     H34059   0.150   9.920   1.836  0.2772  0.4179 -1.2983
 1016MOL0     H34060   0.125   9.774   1.934 -2.5553 -2.5709 -1.2250
 1016MOL0     H34061  -0.083   9.864   1.801 -0.6265 -1.1492  0.3568
 1016MOL0     H34062  -0.004   9.825   1.652  2.0496  0.8530  0.3993
 1016MOL0     H34063  -0.045   9.625   1.878  1.9138  2.2627  1.1009
 1016MOL0     H34064   0.009   9.582   1.722 -2.1368 -2.3344 -1.0031
 1016MOL0     H34065  -0.230   9.670   1.525 -4.4485 -0.9890 -1.2544
 1016MOL0     H34066  -0.518   9.553   1.508 -0.9687 -0.2543  0.4377
 1016MOL0     H34067  -0.447   9.700   1.462  2.2927 -0.8912  0.7822
 1016MOL0     H34068  -0.660   9.778   1.521  0.1292 -1.6619 -0.3110
 1016MOL0     H34069  -0.576   9.806   1.676  0.8035  0.6047 -0.8060
 1016MOL0     H34070  -0.759   9.580   1.579 -0.9999  1.3910 -0.3750
 1016MOL0     H34071  -0.683   9.574   1.744  4.5162  1.5120 -1.2099
 1016MOL0     H34072  -0.792   9.797   1.795  0.9427  0.5579 -1.7247
 1016MOL0     H34073  -0.909   9.663   1.768 -0.3278  0.4747 -0.2425
 1016MOL0     H34074  -1.011   9.983   1.466 -0.5652 -2.9947 -0.9880
 1016MOL0     H34075  -1.204  10.137   1.520 -0.1766 -1.4325 -2.3156
 1016MOL0     H34076  -1.644  10.192   1.550 -0.2338 -1.0596  1.4601
 1016MOL0     H34077  -1.820  10.345   1.606  0.6589 -1.9440  0.4867
 1016MOL0     H34078  -1.832  10.438   1.946 -0.6939  0.2192  0.0559
 1016MOL0     H34079  -1.970  10.480   1.853 -0.9453  1.3123  0.4262
 1016MOL0     H34080  -1.933  10.585   2.084  0.7440  3.2593  2.9988
 1016MOL0     H34081  -1.954  10.711   1.961  0.3767  2.2830  2.3708
 1016MOL0     H34082  -1.710  10.711   1.924 -1.3350  1.7156 -0.3924
 1016MOL0     H34083  -1.683  10.592   2.055  1.9826  1.1427 -0.7267
 1016MOL0     H34084  -1.764  10.886   2.062  2.2667 -0.8209 -1.2138
 1016MOL0     H34085  -1.823  10.778   2.191 -1.6753  2.0800 -0.6441
 1016MOL0     H34086  -1.657  10.933   2.255  1.3265 -0.5460  0.2507
 1016MOL0     H34087  -1.551  10.900   2.116 -0.9938  0.8010  1.1878
 1016MOL0     H34088  -1.440  10.810   2.306 -0.9833  2.7197 -1.0883
 1016MOL0     H34089  -1.486  10.692   2.177 -1.6402  0.5967 -1.2984
 1016MOL0     H34090  -1.636  10.738   2.445 -0.3952  0.2483 -0.6593
 1016MOL0     H34091  -1.677  10.632   2.312 -0.7122  2.0303 -0.8124
 1016MOL0     H34092  -1.405  10.629   2.443  0.1317 -0.0993 -1.2281
 1016MOL0     H34093  -1.453  10.517   2.316  1.1208 -0.4122  0.6144
 1016MOL0     H34094  -1.569  10.573   1.839 -3.0837 -0.6266  1.1719
 1016MOL0     H34095  -1.375  10.418   1.781  0.3877  1.6545 -0.2226
 1016MOL0     H34096  -1.267   9.912   1.883 -1.3043 -2.3777 -1.1518
 1016MOL0     H34097  -1.069   9.778   1.824 -2.8649 -0.3579  0.1070
 1016MOL0     H34098   0.850   9.651   1.395  1.2670 -2.5949 -2.4938
 1016MOL0     H34099   1.041   9.619   1.252  0.2300 -0.2280 -1.2400
 1016MOL0     H34100   1.409   9.715   1.118  0.6306  3.0800 -1.2701
 1016MOL0     H34101   1.575   9.733   0.940 -1.0063  0.7840  0.5358
 1016MOL0     H34102   1.924   9.892   1.038 -0.8548 -0.3003  0.2108
 1016MOL0     H34103   1.797   9.888   0.921  1.9249  2.5563 -2.4170
 1016MOL0     H34104   1.957   9.749   0.791 -1.5704  0.7804  0.3998
 1016MOL0     H34105   1.966   9.931   0.790 -1.4340 -0.2957 -0.1959
 1016MOL0     H34106   2.154   9.889   0.984 -0.3369  2.5896 -0.2264
 1016MOL0     H34107   2.178   9.930   0.824 -0.1067  2.3278  2.0469
 1016MOL0     H34108   2.161   9.644   0.924  2.5865  0.4573  1.1556
 1016MOL0     H34109   2.218   9.694   0.764 -0.3376  1.0482  0.0721
 1016MOL0     H34110   2.577   9.766   0.932  0.6489 -2.5259  0.7364
 1016MOL0     H34111   1.874   9.590   1.212 -1.9894 -2.3474 -0.7564
 1016MOL0     H34112   1.703   9.549   1.388 -0.8788  1.2501  0.5831
 1017MOL0     O34113   5.399   7.323   7.583  0.2759 -0.6795 -0.2152
 1017MOL0     C34114   5.414   7.238   7.496  0.9411 -0.4348 -0.6409
 1017MOL0     O34115   5.311   7.152   7.456  0.5459  0.4864 -0.3871
 1017MOL0     C34116   5.192   7.180   7.514  1.3613  0.7478 -0.0687
 1017MOL0     C34117   5.111   7.293   7.480 -0.3823 -0.0185  0.6098
 1017MOL0     C34118   4.984   7.302   7.536  0.5302  0.7111 -0.4681
 1017MOL0     C34119   4.932   7.200   7.610 -0.5585  0.5358  0.5654
 1017MOL0     O34120   4.813   7.212   7.673 -0.6537  0.0865  0.2255
 1017MOL0     C34121   4.700   7.145   7.619 -0.5152  0.0326  0.2324
 1017MOL0     C34122   4.586   7.244   7.649  0.1941 -0.1157  0.9123
 1017MOL0     C34123   4.476   7.213   7.557 -0.6698  0.9216 -0.4054
 1017MOL0     C34124   4.351   7.294   7.579 -0.3526  0.3832  0.3539
 1017MOL0     C34125   4.231   7.265   7.506 -0.5018  0.7705  0.5773
 1017MOL0     C34126   4.110   7.370   7.530  0.7891 -0.8243  0.3168
 1017MOL0     C34127   3.978   7.320   7.472 -0.7635 -0.8054  0.1548
 1017MOL0     C34128   3.852   7.404   7.513 -0.3482  0.7480  0.5450
 1017MOL0     N34129   3.722   7.352   7.464  0.5047 -0.1610 -0.4452
 1017MOL0     C34130   3.603   7.396   7.518  0.9561  0.2123 -1.3125
 1017MOL0     C34131   3.515   7.354   7.429 -0.4336 -0.2048  0.3697
 1017MOL0     C34132   3.372   7.398   7.428 -0.5977 -0.1527  0.5714
 1017MOL0     C34133   3.366   7.536   7.367 -0.0551 -0.4848  0.2401
 1017MOL0     C34134   3.225   7.577   7.305  0.2631  0.7007  0.6861
 1017MOL0     C34135   3.189   7.504   7.176 -0.2890 -0.5742 -1.4663
 1017MOL0     O34136   3.167   7.369   7.162 -0.0106  0.4334  0.4868
 1017MOL0     C34137   3.042   7.309   7.186  0.6645  0.2338  0.5639
 1017MOL0     C34138   2.941   7.363   7.263  0.0623 -0.0226 -0.0987
 1017MOL0     C34139   2.820   7.298   7.280  0.5952  0.3546 -0.6473
 1017MOL0     C34140   2.801   7.182   7.205 -1.3907 -0.1047 -0.2233
 1017MOL0     C34141   2.675   7.115   7.204  1.2308  0.5810  0.4765
 1017MOL0     O34142   2.637   7.048   7.086  0.3109  0.1202  0.4455
 1017MOL0     C34143   2.516   6.987   7.060 -0.3230 -0.2653  0.4111
 1017MOL0     C34144   2.513   6.894   6.961 -0.0615  0.1482 -0.0150
 1017MOL0     C34145   2.394   6.822   6.937  0.3608 -0.2210 -0.1231
 1017MOL0     C34146   2.278   6.853   7.004 -0.0758  0.6881  0.0503
 1017MOL0     O34147   2.173   6.783   6.956 -0.5276  0.1143 -0.6712
 1017MOL0     C34148   2.039   6.813   7.005  0.6847 -0.6625 -0.3455
 1017MOL0     C34149   1.922   6.737   6.933 -0.5863  0.7355 -0.8193
 1017MOL0     C34150   1.950   6.754   6.781 -0.3861  0.1613 -1.0911
 1017MOL0     C34151   1.850   6.652   6.709  0.3771  0.1508  1.1245
 1017MOL0     C34152   1.842   6.662   6.548  0.4557 -0.2411 -0.2408
 1017MOL0     C34153   1.961   6.586   6.477  0.5349  0.4068  0.6307
 1017MOL0     C34154   1.916   6.446   6.440 -0.7000 -1.0190  0.5406
 1017MOL0     C34155   2.042   6.384   6.375 -0.2836 -0.2824  0.4246
 1017MOL0    Cl34156   2.173   6.344   6.498  0.0684  0.0297  0.1148
 1017MOL0     C34157   2.283   6.944   7.111  0.0110 -0.5342  0.6202
 1017MOL0     C34158   2.404   7.019   7.132 -0.3021 -0.4524 -0.3941
 1017MOL0     O34159   2.604   7.133   7.298 -0.0542  0.6297 -0.0692
 1017MOL0     C34160   2.899   7.126   7.118 -0.3381  0.5487 -0.3591
 1017MOL0     C34161   3.027   7.193   7.111  0.7572  0.6623 -0.2949
 1017MOL0     N34162   3.573   7.270   7.340  0.5662 -0.4420  0.0922
 1017MOL0     N34163   3.699   7.276   7.356  0.1373  0.9551 -0.1122
 1017MOL0     C34164   5.009   7.094   7.642  0.2006  0.5223  0.8457
 1017MOL0     C34165   5.146   7.083   7.593  0.5589  0.3971 -1.3156
 1017MOL0     C34166   5.547   7.238   7.427  0.3748 -0.3825 -0.5238
 1017MOL0     C34167   5.571   7.134   7.348 -0.6703 -0.2079  0.6068
 1017MOL0     C34168   5.687   7.123   7.270  0.4562 -0.4018  0.0162
 1017MOL0     C34169   5.781   7.221   7.281 -0.4711 -1.0756 -0.4584
 1017MOL0     O34170   5.893   7.220   7.216  0.1576  0.5376  0.5399
 1017MOL0     C34171   5.907   7.141   7.092 -0.3460 -0.1615  1.2176
 1017MOL0     C34172   6.056   7.159   7.077  0.2797  0.0511  0.2795
 1017MOL0     C34173   6.138   7.132   7.196 -0.5995 -0.1818 -0.3329
 1017MOL0     C34174   6.287   7.135   7.146  0.2351  0.3717 -0.3102
 1017MOL0     C34175   6.361   7.055   7.235  0.3306 -0.9011  0.1489
 1017MOL0     C34176   6.416   7.008   7.334  0.4910  0.1380 -0.3073
 1017MOL0     C34177   5.748   7.336   7.346  0.4515 -0.2434  0.1542
 1017MOL0     C34178   5.630   7.345   7.419  0.1240  0.4408  0.7463
 1017MOL0     H34179   5.150   7.375   7.422 -0.3106 -1.7027 -1.8875
 1017MOL0     H34180   4.923   7.387   7.507  1.3233  1.1602 -0.8354
 1017MOL0     H34181   4.676   7.047   7.660 -1.7413  0.0014 -0.5075
 1017MOL0     H34182   4.713   7.132   7.511 -0.1706  2.3539 -0.0680
 1017MOL0     H34183   4.612   7.346   7.621  0.9462 -0.9055 -1.5587
 1017MOL0     H34184   4.549   7.243   7.752  0.5346  0.8096  1.0454
 1017MOL0     H34185   4.458   7.106   7.543  1.1346  0.9976 -5.1081
 1017MOL0     H34186   4.522   7.230   7.459 -0.2077  0.9016 -0.1967
 1017MOL0     H34187   4.331   7.295   7.687 -0.0405 -1.1255  0.4507
 1017MOL0     H34188   4.380   7.395   7.548 -0.0517 -0.0280 -0.7374
 1017MOL0     H34189   4.191   7.169   7.541 -3.3125  1.5547 -0.1812
 1017MOL0     H34190   4.255   7.267   7.399 -0.6676  2.2571  0.5480
 1017MOL0     H34191   4.130   7.473   7.501  1.2543 -0.1998  2.6167
 1017MOL0     H34192   4.098   7.384   7.638 -2.3552  5.6725 -0.4394
 1017MOL0     H34193   3.990   7.324   7.363  0.1776  1.3388  0.2816
 1017MOL0     H34194   3.973   7.219   7.512  1.3151 -0.8443  0.3960
 1017MOL0     H34195   3.870   7.511   7.498  0.1377  0.3104 -2.7906
 1017MOL0     H34196   3.836   7.388   7.620 -2.9702  0.9812  0.2495
 1017MOL0     H34197   3.590   7.468   7.599  3.9726  0.8942 -1.3081
 1017MOL0     H34198   3.349   7.398   7.535 -0.0962 -1.0717  0.6937
 1017MOL0     H34199   3.299   7.327   7.388 -2.2541  1.4437  0.6289
 1017MOL0     H34200   3.435   7.530   7.282  0.5678  2.1095  0.4665
 1017MOL0     H34201   3.407   7.616   7.429  0.5383  0.5256 -1.3843
 1017MOL0     H34202   3.149   7.552   7.379 -0.4083 -0.4667 -0.3654
 1017MOL0     H34203   3.218   7.684   7.282  0.6144  0.6796  0.4667
 1017MOL0     H34204   3.266   7.529   7.103 -1.2087  1.6900 -1.7505
 1017MOL0     H34205   3.097   7.560   7.156 -0.0360  0.1957 -0.5851
 1017MOL0     H34206   2.967   7.453   7.317  0.8701  0.9104 -1.9337
 1017MOL0     H34207   2.736   7.344   7.332  1.7758  0.3809  1.3219
 1017MOL0     H34208   2.603   6.877   6.903  1.7235  0.5519  2.4639
 1017MOL0     H34209   2.387   6.738   6.869  0.1641  0.0702 -0.4667
 1017MOL0     H34210   2.002   6.916   7.008 -0.6477 -1.1333  1.4991
 1017MOL0     H34211   2.031   6.777   7.108 -2.6676  0.3789 -0.1164
 1017MOL0     H34212   1.826   6.780   6.960  0.2536  0.8337  2.4582
 1017MOL0     H34213   1.926   6.631   6.960  1.2560  0.4598 -1.9501
 1017MOL0     H34214   2.053   6.728   6.754 -1.2846 -3.0604 -1.9683
 1017MOL0     H34215   1.939   6.859   6.755  2.3676  0.4799 -1.3365
 1017MOL0     H34216   1.864   6.545   6.728 -1.1063 -0.5373 -1.2816
 1017MOL0     H34217   1.755   6.687   6.749  1.3066  1.4824  2.2906
 1017MOL0     H34218   1.844   6.768   6.522  0.5044  0.8748  3.6510
 1017MOL0     H34219   1.748   6.624   6.505  0.3691 -0.1289 -0.1535
 1017MOL0     H34220   2.052   6.581   6.537  2.3654  0.7601 -1.9820
 1017MOL0     H34221   1.987   6.645   6.389 -0.0420 -0.7763 -0.3527
 1017MOL0     H34222   1.888   6.386   6.527  0.8434 -0.6803  1.3081
 1017MOL0     H34223   1.839   6.453   6.363 -0.9334  0.7897  0.8886
 1017MOL0     H34224   2.081   6.442   6.290  1.7706 -0.8101  0.9423
 1017MOL0     H34225   2.015   6.285   6.335  1.0541 -0.1506 -0.9207
 1017MOL0     H34226   2.197   6.973   7.171 -0.1426  0.0682  0.1136
 1017MOL0     H34227   2.401   7.093   7.212  1.1290 -2.0612  1.2476
 1017MOL0     H34228   2.874   7.036   7.062 -3.7662  0.1668  1.5482
 1017MOL0     H34229   3.108   7.152   7.051  0.3856 -1.2102  0.3852
 1017MOL0     H34230   4.967   7.012   7.700 -2.0244  0.5472 -0.6391
 1017MOL0     H34231   5.212   7.000   7.618  0.2083  0.7610  1.0246
 1017MOL0     H34232   5.494   7.062   7.324  0.0747 -1.6124  2.1837
 1017MOL0     H34233   5.683   7.035   7.207  1.2586 -2.5759  2.7614
 1017MOL0     H34234   5.848   7.184   7.011 -0.3789 -2.7927 -0.2917
 1017MOL0     H34235   5.896   7.032   7.091 -0.4651 -0.2669 -2.6271
 1017MOL0     H34236   6.076   7.092   6.993  0.8481  0.6076 -0.0325
 1017MOL0     H34237   6.066   7.266   7.054  1.1208 -0.4308 -1.7973
 1017MOL0     H34238   6.111   7.041   7.250 -0.1566 -0.1882 -0.1137
 1017MOL0     H34239   6.131   7.217   7.264 -0.6939 -0.6854  0.2903
 1017MOL0     H34240   6.285   7.078   7.053 -2.5673  0.0000 -0.1105
 1017MOL0     H34241   6.331   7.233   7.127 -1.3456  0.4382 -4.6063
 1017MOL0     H34242   6.465   6.969   7.422 -1.7010 -0.8372  0.5578
 1017MOL0     H34243   5.809   7.426   7.345 -0.2446  0.3080 -2.3117
 1017MOL0     H34244   5.607   7.432   7.479 -1.9737 -0.0798  0.7631
 1018MOL0     O34245   9.705   1.699   2.837 -0.1991 -0.1033 -0.1552
 1018MOL0     C34246   9.799   1.768   2.880  0.2058  1.1873  0.4190
 1018MOL0     O34247   9.791   1.869   2.962 -0.4019  1.0521 -0.1677
 1018MOL0     C34248   9.683   1.918   3.026 -0.4394 -0.2224 -0.2397
 1018MOL0     C34249   9.585   1.845   3.102  0.6565  0.5270 -0.1998
 1018MOL0     C34250   9.485   1.904   3.183 -0.7163 -0.5250  0.3007
 1018MOL0     C34251   9.479   2.043   3.199  0.4026 -0.0921 -0.3220
 1018MOL0     O34252   9.385   2.109   3.269 -0.4614 -0.1774 -0.4482
 1018MOL0     C34253   9.367   2.075   3.409 -0.0996 -0.2797  0.5609
 1018MOL0     C34254   9.455   2.160   3.503 -0.4012 -0.3388  0.1467
 1018MOL0     C34255   9.609   2.152   3.482 -0.0543  0.0065 -0.6513
 1018MOL0     C34256   9.675   2.236   3.597  0.4175  0.2161  0.6416
 1018MOL0     C34257   9.818   2.204   3.588  0.7406 -0.3735 -0.2604
 1018MOL0     C34258   9.894   2.289   3.678 -1.1371 -0.2491 -1.0432
 1018MOL0     C34259  10.048   2.265   3.661  0.3855 -0.1943  0.3982
 1018MOL0     C34260  10.090   2.140   3.727  0.7874 -0.1075  0.1355
 1018MOL0     N34261  10.236   2.112   3.700  0.0373  0.3895 -0.0140
 1018MOL0     C34262  10.335   2.106   3.799 -0.1215  0.0816  0.0743
 1018MOL0     C34263  10.453   2.119   3.741  0.0528 -0.0127 -0.9576
 1018MOL0     C34264  10.591   2.097   3.801  0.5568 -0.0320 -0.2139
 1018MOL0     C34265  10.647   2.240   3.830 -0.5496  0.9235 -0.0698
 1018MOL0     C34266  10.795   2.223   3.851 -0.6428 -0.6570 -0.5789
 1018MOL0     C34267  10.878   2.174   3.732 -0.0068 -0.2911  0.5505
 1018MOL0     O34268  11.007   2.185   3.779 -0.6622 -0.3907  0.1784
 1018MOL0     C34269  11.103   2.244   3.696 -0.0060  0.2079 -0.2664
 1018MOL0     C34270  11.203   2.309   3.763  0.0237 -0.3452  0.0414
 1018MOL0     C34271  11.308   2.372   3.692  0.1125  0.3874 -1.2074
 1018MOL0     C34272  11.298   2.384   3.555 -0.2128 -0.0846  0.7978
 1018MOL0     C34273  11.391   2.463   3.467  0.5175  1.3264 -0.2557
 1018MOL0     O34274  11.394   2.451   3.337  0.3584  0.5318  0.2158
 1018MOL0     C34275  11.464   2.539   3.252 -0.3066  0.6875  0.7667
 1018MOL0     C34276  11.455   2.677   3.268 -0.6372 -0.0385 -0.7417
 1018MOL0     C34277  11.535   2.757   3.182 -0.1824 -1.1271 -0.5142
 1018MOL0     C34278  11.597   2.694   3.072  0.6730  0.0869  0.0467
 1018MOL0     O34279  11.670   2.770   2.982 -0.3637 -0.1844  0.8704
 1018MOL0     C34280  11.708   2.906   3.001  0.1053  1.0605  0.2745
 1018MOL0     C34281  11.803   2.928   2.890 -0.2083 -0.5906  0.1892
 1018MOL0     C34282  11.948   2.866   2.916  0.1348  0.4575 -0.8522
 1018MOL0     C34283  12.060   2.908   2.823  0.4339  0.8286  0.7401
 1018MOL0     C34284  12.196   2.883   2.898 -0.5258 -0.7042  0.9144
 1018MOL0     C34285  12.242   2.741   2.902  0.7960 -0.0441 -0.2679
 1018MOL0     C34286  12.397   2.715   2.942  1.9042  0.3873  0.8564
 1018MOL0     C34287  12.437   2.771   3.077 -0.3221 -0.4584  0.1569
 1018MOL0    Cl34288  12.339   2.721   3.214  0.0371 -0.2165  0.3059
 1018MOL0     C34289  11.579   2.555   3.048  0.3217 -0.1250  1.2379
 1018MOL0     C34290  11.518   2.479   3.139  0.1324  0.2176 -0.4439
 1018MOL0     O34291  11.462   2.541   3.530 -0.4644 -0.1707  0.4903
 1018MOL0     C34292  11.193   2.324   3.491 -1.0762  0.0371 -0.2081
 1018MOL0     C34293  11.107   2.240   3.557  0.3991  0.7063 -0.1537
 1018MOL0     N34294  10.429   2.144   3.606 -0.1505 -0.6798 -0.2900
 1018MOL0     N34295  10.304   2.136   3.584  0.1170  0.2676  0.3239
 1018MOL0     C34296   9.577   2.117   3.132 -0.7442 -0.3932 -1.2135
 1018MOL0     C34297   9.673   2.058   3.045 -0.7581  1.1454 -1.0316
 1018MOL0     C34298   9.932   1.745   2.812  0.3169 -0.1442  0.0494
 1018MOL0     C34299  10.036   1.835   2.836 -0.3990 -0.9108 -0.7708
 1018MOL0     C34300  10.157   1.827   2.769  0.4187  0.9351  0.7421
 1018MOL0     C34301  10.174   1.725   2.671  0.5828 -0.2216  0.2344
 1018MOL0     O34302  10.277   1.702   2.580 -0.9120  0.9338  0.1550
 1018MOL0     C34303  10.387   1.626   2.641  0.6408  0.1161 -0.5913
 1018MOL0     C34304  10.469   1.724   2.726  0.1613  0.5519 -0.0759
 1018MOL0     C34305  10.607   1.661   2.753 -0.1839 -0.3219 -0.2113
 1018MOL0     C34306  10.697   1.759   2.827  0.5378  0.3184  0.5610
 1018MOL0     C34307  10.662   1.776   2.966 -0.3061  0.6030 -0.1411
 1018MOL0     C34308  10.635   1.789   3.083  0.6930 -0.2497 -0.0392
 1018MOL0     C34309  10.072   1.631   2.660  0.4080  0.3925  0.1484
 1018MOL0     C34310   9.950   1.636   2.729  0.4552 -0.0023 -0.4594
 1018MOL0     H34311   9.575   1.737   3.094 -0.3783  0.6438 -0.7466
 1018MOL0     H34312   9.406   1.849   3.233 -2.1519  1.1389 -0.0765
 1018MOL0     H34313   9.379   1.967   3.420  2.4347 -0.2232 -0.7364
 1018MOL0     H34314   9.268   2.110   3.438  0.1279  0.3088  0.6339
 1018MOL0     H34315   9.430   2.116   3.600  1.1278 -2.3826 -0.3102
 1018MOL0     H34316   9.419   2.263   3.511 -1.5091 -0.7388  0.4738
 1018MOL0     H34317   9.640   2.196   3.387 -1.0919  0.3278 -0.8503
 1018MOL0     H34318   9.634   2.045   3.480 -1.7296 -0.4914  1.6172
 1018MOL0     H34319   9.651   2.342   3.585 -4.4012 -0.6970 -0.1043
 1018MOL0     H34320   9.637   2.215   3.697  1.7754  1.8373  1.5389
 1018MOL0     H34321   9.846   2.201   3.483 -1.1143 -1.1765 -0.7701
 1018MOL0     H34322   9.828   2.101   3.625 -1.1184 -0.5896 -0.2541
 1018MOL0     H34323   9.867   2.257   3.779 -4.5552  1.7703 -1.1474
 1018MOL0     H34324   9.869   2.396   3.672 -2.0023 -0.3073  0.7994
 1018MOL0     H34325  10.072   2.248   3.555 -0.1298  2.1900 -0.1692
 1018MOL0     H34326  10.104   2.353   3.695  1.8466 -0.7948 -0.3653
 1018MOL0     H34327  10.028   2.054   3.697 -0.3783  0.6984  0.1690
 1018MOL0     H34328  10.079   2.155   3.834  0.2213 -1.2035  0.2488
 1018MOL0     H34329  10.325   2.096   3.907 -1.5099 -1.1202 -0.1331
 1018MOL0     H34330  10.645   2.042   3.724 -0.7571  2.6425 -3.2879
 1018MOL0     H34331  10.592   2.037   3.893 -1.9305  0.8033  0.4443
 1018MOL0     H34332  10.619   2.274   3.930 -1.6655 -1.2167  0.4127
 1018MOL0     H34333  10.626   2.320   3.759 -0.7322  0.6546 -0.3197
 1018MOL0     H34334  10.830   2.322   3.883 -1.9786 -1.1297  2.7591
 1018MOL0     H34335  10.821   2.169   3.942 -1.3603 -1.4461 -0.8344
 1018MOL0     H34336  10.870   2.236   3.642  0.6821  2.0777  1.9986
 1018MOL0     H34337  10.842   2.073   3.712 -2.1195  0.1809  1.7047
 1018MOL0     H34338  11.188   2.318   3.870 -0.1193  0.2435 -0.0270
 1018MOL0     H34339  11.373   2.424   3.761 -3.9755  1.7646  2.0085
 1018MOL0     H34340  11.410   2.721   3.356  2.9887  1.8902  0.3441
 1018MOL0     H34341  11.553   2.862   3.202 -0.7317 -0.5283 -2.9087
 1018MOL0     H34342  11.744   2.939   3.099  0.6762  2.2663 -0.3208
 1018MOL0     H34343  11.616   2.963   2.981 -0.4020  0.7691  1.6695
 1018MOL0     H34344  11.816   3.036   2.880  2.2043 -0.8119  0.2712
 1018MOL0     H34345  11.762   2.885   2.799  0.1373  1.7844 -1.1747
 1018MOL0     H34346  11.935   2.758   2.921 -0.5392  0.5507 -0.3378
 1018MOL0     H34347  11.990   2.886   3.015  2.2435  0.5186 -1.7159
 1018MOL0     H34348  12.053   2.854   2.728  4.2573  2.9808 -0.9705
 1018MOL0     H34349  12.058   3.013   2.793  2.4151  0.2285 -1.8746
 1018MOL0     H34350  12.203   2.923   2.999  1.7965  0.0486  0.5170
 1018MOL0     H34351  12.279   2.928   2.842  1.5197 -6.3360 -1.3811
 1018MOL0     H34352  12.228   2.691   2.806  1.0132 -2.9650  1.0858
 1018MOL0     H34353  12.171   2.691   2.969 -0.2514 -1.7567 -2.5119
 1018MOL0     H34354  12.426   2.611   2.930  0.4442  0.1312 -0.8431
 1018MOL0     H34355  12.456   2.756   2.860 -0.9086 -0.0792 -1.5978
 1018MOL0     H34356  12.430   2.880   3.075  1.0350 -0.3041  1.6457
 1018MOL0     H34357  12.541   2.753   3.103 -0.6952 -1.0134  1.3133
 1018MOL0     H34358  11.625   2.506   2.963 -1.5333  0.2022 -0.0083
 1018MOL0     H34359  11.491   2.375   3.125 -1.2011  0.5549 -0.6051
 1018MOL0     H34360  11.178   2.324   3.383  2.4640  1.4716 -0.8293
 1018MOL0     H34361  11.026   2.187   3.509  1.9878 -1.7015 -0.3159
 1018MOL0     H34362   9.578   2.225   3.147  1.4446 -0.4925 -0.1097
 1018MOL0     H34363   9.749   2.120   2.997  0.2092  0.4630 -0.4282
 1018MOL0     H34364  10.018   1.922   2.898  0.6968 -0.2854 -1.2981
 1018MOL0     H34365  10.231   1.905   2.787 -1.0229  1.8694  3.2861
 1018MOL0     H34366  10.437   1.585   2.553 -0.9703 -0.7170 -1.1486
 1018MOL0     H34367  10.358   1.536   2.696 -2.8192  1.2090 -0.3903
 1018MOL0     H34368  10.504   1.807   2.664  1.0597 -0.1872 -0.5988
 1018MOL0     H34369  10.419   1.757   2.817  1.0811 -0.1973  0.7267
 1018MOL0     H34370  10.662   1.632   2.663  0.1061  0.5735 -0.3301
 1018MOL0     H34371  10.591   1.571   2.813  1.3735  0.3383  1.2741
 1018MOL0     H34372  10.797   1.715   2.834 -0.3839 -2.0325 -0.1926
 1018MOL0     H34373  10.711   1.852   2.771  2.5083  0.0170  0.4970
 1018MOL0     H34374  10.583   1.788   3.177 -1.4469  0.0199 -1.1440
 1018MOL0     H34375  10.095   1.545   2.597  2.5994  1.8364 -1.1711
 1018MOL0     H34376   9.878   1.557   2.715  0.6340 -0.4039  0.7779
 1019MOL0     O34377   9.837  10.632   0.773 -0.1637  0.3475 -0.1739
 1019MOL0     C34378   9.867  10.511   0.786  0.2069 -0.0825  0.2576
 1019MOL0     O34379   9.782  10.409   0.766  0.0940  0.3240  0.2099
 1019MOL0     C34380   9.654  10.434   0.731 -0.0725  0.5993 -0.0046
 1019MOL0     C34381   9.565  10.493   0.821  0.7397 -0.3553 -0.3082
 1019MOL0     C34382   9.429  10.509   0.777 -0.0446 -0.4329 -1.2846
 1019MOL0     C34383   9.383  10.475   0.653 -0.0814  0.0403 -0.2999
 1019MOL0     O34384   9.257  10.507   0.620  1.0020 -0.2108 -0.2672
 1019MOL0     C34385   9.179  10.416   0.540 -1.2011  0.1642  0.3644
 1019MOL0     C34386   9.037  10.475   0.540 -0.2383  0.3564  0.2074
 1019MOL0     C34387   8.982  10.470   0.681 -0.6253 -0.5931 -0.3839
 1019MOL0     C34388   8.838  10.531   0.687  0.4754 -0.0744  0.7243
 1019MOL0     C34389   8.751  10.454   0.782  0.6947 -0.0535  0.5074
 1019MOL0     C34390   8.716  10.313   0.724 -1.0090  0.5506 -0.1590
 1019MOL0     C34391   8.609  10.235   0.794 -0.4993 -0.0210  0.4934
 1019MOL0     C34392   8.467  10.291   0.758 -0.2201 -0.1969 -0.3372
 1019MOL0     N34393   8.355  10.197   0.772 -0.4776 -0.0219  0.9487
 1019MOL0     C34394   8.321  10.114   0.887  0.1903 -0.5726  0.5415
 1019MOL0     C34395   8.261  10.007   0.830 -0.1595  0.0880  0.0888
 1019MOL0     C34396   8.239   9.876   0.909  0.7461 -0.3250  0.7502
 1019MOL0     C34397   8.155   9.771   0.829 -0.5074 -0.0809  0.7883
 1019MOL0     C34398   8.105   9.668   0.930 -0.2910 -0.7203  0.6347
 1019MOL0     C34399   8.203   9.587   1.013 -0.5258  0.3112 -0.5771
 1019MOL0     O34400   8.133   9.471   1.063  0.2630  0.0022 -0.0017
 1019MOL0     C34401   8.044   9.471   1.162 -0.7199 -0.5185 -0.7090
 1019MOL0     C34402   8.026   9.568   1.257 -0.4403 -0.1937  0.4235
 1019MOL0     C34403   7.923   9.558   1.348 -0.5183  0.3072  0.7108
 1019MOL0     C34404   7.827   9.451   1.349  0.1076 -0.5416 -0.1496
 1019MOL0     C34405   7.719   9.451   1.448 -0.6154 -0.5823 -0.6664
 1019MOL0     O34406   7.636   9.346   1.436  0.9115  0.0410 -0.1736
 1019MOL0     C34407   7.510   9.338   1.493  0.1626  0.5758  0.1060
 1019MOL0     C34408   7.415   9.256   1.429  0.6973 -0.1639  0.2403
 1019MOL0     C34409   7.284   9.245   1.476 -0.3707 -0.7863  0.3001
 1019MOL0     C34410   7.245   9.320   1.591  0.8318  0.1504  0.1622
 1019MOL0     O34411   7.110   9.319   1.633  0.3136  0.2752  0.0412
 1019MOL0     C34412   7.012   9.233   1.579 -0.0461  1.0143 -0.3472
 1019MOL0     C34413   6.873   9.250   1.648 -0.0035  0.2555 -0.0356
 1019MOL0     C34414   6.898   9.200   1.788 -0.1896 -0.0577 -0.7950
 1019MOL0     C34415   6.765   9.215   1.870  0.0778 -0.3157  0.5519
 1019MOL0     C34416   6.749   9.123   1.994 -0.3107  0.2682  0.5424
 1019MOL0     C34417   6.628   9.168   2.073 -0.5165  0.7462 -0.8258
 1019MOL0     C34418   6.588   9.059   2.173  0.2901  0.2579 -0.3692
 1019MOL0     C34419   6.480   8.962   2.136  0.6936 -0.6665  0.0415
 1019MOL0    Cl34420   6.460   8.834   2.254 -0.0475 -0.2547  0.0467
 1019MOL0     C34421   7.346   9.390   1.663 -0.0665 -0.0027  1.0523
 1019MOL0     C34422   7.473   9.393   1.609  0.3317  0.1087 -0.5562
 1019MOL0     O34423   7.709   9.543   1.536 -0.8801  0.4471 -0.3150
 1019MOL0     C34424   7.836   9.362   1.242 -0.2840  1.1560  0.5953
 1019MOL0     C34425   7.947   9.368   1.153  0.2658  0.3075 -0.0263
 1019MOL0     N34426   8.235  10.038   0.697  0.4467  0.3068 -0.3137
 1019MOL0     N34427   8.275  10.158   0.672  0.2586 -0.7364 -0.1177
 1019MOL0     C34428   9.475  10.413   0.570 -0.2988  0.8223 -0.3189
 1019MOL0     C34429   9.601  10.392   0.614 -0.2292  0.4462 -0.2107
 1019MOL0     C34430   9.998  10.467   0.825 -0.1752  0.2644  0.1765
 1019MOL0     C34431  10.103  10.548   0.807 -0.3861 -1.1373 -0.0849
 1019MOL0     C34432  10.234  10.513   0.832  0.1942  0.2537  0.2925
 1019MOL0     C34433  10.257  10.379   0.870  0.0051  0.2230  0.0404
 1019MOL0     O34434  10.387  10.339   0.889 -0.4659 -0.4752  0.9219
 1019MOL0     C34435  10.425  10.205   0.895 -1.0955  0.2230  0.3008
 1019MOL0     C34436  10.580  10.208   0.876  0.0411  0.6224 -0.5559
 1019MOL0     C34437  10.649  10.278   0.993 -0.2404 -0.9679  0.4573
 1019MOL0     C34438  10.599  10.245   1.135  0.5661 -0.3610 -0.0252
 1019MOL0     C34439  10.593  10.099   1.158 -0.8812  0.3303 -0.2502
 1019MOL0     C34440  10.589   9.978   1.164 -0.3134  0.7408  0.2495
 1019MOL0     C34441  10.150  10.289   0.895  0.4663 -0.0020 -0.0326
 1019MOL0     C34442  10.022  10.339   0.873  1.2554 -0.0223  0.4626
 1019MOL0     H34443   9.588  10.522   0.923 -1.7422  1.2405 -0.0998
 1019MOL0     H34444   9.354  10.555   0.842  1.4043  0.8954 -0.4893
 1019MOL0     H34445   9.172  10.313   0.577  0.3197  0.3279  1.1838
 1019MOL0     H34446   9.222  10.410   0.440  0.4809  0.2301  1.0527
 1019MOL0     H34447   8.982  10.405   0.476  0.5550  0.3236 -0.4609
 1019MOL0     H34448   9.042  10.577   0.502  0.1666 -0.8013 -3.2088
 1019MOL0     H34449   9.051  10.526   0.745 -2.2277 -1.1065  1.9097
 1019MOL0     H34450   8.986  10.366   0.714  0.1203  0.3146  2.7059
 1019MOL0     H34451   8.842  10.639   0.702  0.1193 -0.0003  0.3024
 1019MOL0     H34452   8.796  10.520   0.586  3.0510 -0.5993 -0.3809
 1019MOL0     H34453   8.663  10.517   0.801  2.2921  1.5278  3.5822
 1019MOL0     H34454   8.792  10.453   0.883 -0.5174  0.9346  1.0520
 1019MOL0     H34455   8.805  10.253   0.747 -0.0358  2.5138  1.5557
 1019MOL0     H34456   8.694  10.321   0.618  3.2581 -0.2151 -1.2983
 1019MOL0     H34457   8.604  10.130   0.766 -7.7178 -0.5101  1.7076
 1019MOL0     H34458   8.627  10.230   0.902  2.3906  0.4842  0.1154
 1019MOL0     H34459   8.462  10.327   0.654 -0.5413 -0.9835 -0.5982
 1019MOL0     H34460   8.459  10.376   0.826 -0.3682 -0.4343 -0.0576
 1019MOL0     H34461   8.341  10.120   0.993  2.4739 -2.3227  0.2995
 1019MOL0     H34462   8.186   9.901   1.001  0.3893  0.9741  0.2078
 1019MOL0     H34463   8.335   9.825   0.923  1.8871  0.3897 -3.1278
 1019MOL0     H34464   8.226   9.731   0.755 -1.0529  0.0383  0.1980
 1019MOL0     H34465   8.074   9.819   0.774 -0.4679 -2.8204 -1.9632
 1019MOL0     H34466   8.044   9.722   1.004 -1.4517 -1.5237  0.2851
 1019MOL0     H34467   8.039   9.597   0.880  1.9541 -2.0989 -0.5175
 1019MOL0     H34468   8.252   9.639   1.096 -0.4104 -0.7565  0.0424
 1019MOL0     H34469   8.272   9.555   0.934 -1.5432  1.9423 -2.2272
 1019MOL0     H34470   8.102   9.645   1.272 -1.1334  0.3081  1.4764
 1019MOL0     H34471   7.913   9.641   1.418 -2.2803  1.6820 -1.0822
 1019MOL0     H34472   7.438   9.196   1.341 -3.6011 -0.6641 -0.7753
 1019MOL0     H34473   7.211   9.197   1.412 -2.8795  0.4109  2.1126
 1019MOL0     H34474   7.053   9.135   1.604 -0.5461  0.9636  0.3198
 1019MOL0     H34475   7.001   9.236   1.471 -0.9837 -1.0215 -0.3401
 1019MOL0     H34476   6.790   9.193   1.606  0.8879 -1.9483  1.0332
 1019MOL0     H34477   6.842   9.355   1.650 -3.7407 -0.7000 -0.5714
 1019MOL0     H34478   6.987   9.239   1.838 -0.3027  1.8308 -1.9529
 1019MOL0     H34479   6.911   9.092   1.779  2.0491  0.0205  0.6414
 1019MOL0     H34480   6.757   9.322   1.892 -2.8860  0.0587 -1.7173
 1019MOL0     H34481   6.683   9.187   1.804  1.7602  0.7676 -2.1933
 1019MOL0     H34482   6.834   9.143   2.060 -0.2509 -1.6851  1.1308
 1019MOL0     H34483   6.735   9.017   1.972 -1.1030  0.8640 -2.1157
 1019MOL0     H34484   6.539   9.193   2.015 -0.6715 -0.4061 -1.1171
 1019MOL0     H34485   6.665   9.256   2.125 -0.2181  1.3554 -2.0335
 1019MOL0     H34486   6.672   8.996   2.205 -0.1886 -0.2261 -0.0533
 1019MOL0     H34487   6.556   9.120   2.259  1.2347  0.7625 -0.3649
 1019MOL0     H34488   6.517   8.917   2.043  1.4294  1.2052 -0.6053
 1019MOL0     H34489   6.386   9.009   2.106 -0.1134 -1.4038  1.3206
 1019MOL0     H34490   7.312   9.449   1.747 -2.0310 -1.1330  1.1310
 1019MOL0     H34491   7.543   9.455   1.664 -1.9605  1.8438  0.5965
 1019MOL0     H34492   7.766   9.279   1.228 -0.4032  1.4375 -0.6889
 1019MOL0     H34493   7.960   9.293   1.077 -0.6831 -0.7855  0.8460
 1019MOL0     H34494   9.441  10.392   0.469 -1.2932 -2.2861  0.5425
 1019MOL0     H34495   9.673  10.351   0.544  1.2888 -0.2593  1.6836
 1019MOL0     H34496  10.094  10.649   0.769 -3.3247  1.2735  5.6106
 1019MOL0     H34497  10.323  10.568   0.802  1.3741 -2.0518 -0.6932
 1019MOL0     H34498  10.390  10.148   0.809  0.7568 -0.2661 -0.1825
 1019MOL0     H34499  10.390  10.158   0.987 -2.0305 -2.9799 -1.5323
 1019MOL0     H34500  10.628  10.110   0.877  0.3058  0.7285  1.1700
 1019MOL0     H34501  10.591  10.253   0.777 -0.4049  0.0994 -0.8447
 1019MOL0     H34502  10.667  10.383   0.967 -2.6691 -0.1130  1.9482
 1019MOL0     H34503  10.748  10.231   0.992  0.6987  0.9073  0.7703
 1019MOL0     H34504  10.662  10.304   1.202  1.7107  1.8593 -2.8534
 1019MOL0     H34505  10.501  10.289   1.158  0.7687  1.6950 -2.5228
 1019MOL0     H34506  10.589   9.871   1.163 -3.0713  0.6846 -0.3871
 1019MOL0     H34507  10.165  10.193   0.944 -0.0368  1.3697  3.0462
 1019MOL0     H34508   9.941  10.269   0.893 -0.6853  1.8198 -0.5531
 1020MOL0     O34509   7.974   3.217   9.784 -0.5112  0.1190 -1.0574
 1020MOL0     C34510   7.976   3.097   9.764  0.6495 -0.0482 -0.1420
 1020MOL0     O34511   8.068   3.008   9.806  0.5905 -0.1309  0.1562
 1020MOL0     C34512   8.180   3.042   9.877 -0.1380  0.9624 -0.2706
 1020MOL0     C34513   8.192   2.978   9.998 -1.1055 -0.8218  0.0679
 1020MOL0     C34514   8.311   3.008  10.073 -0.1511 -0.4604  0.4153
 1020MOL0     C34515   8.395   3.110  10.037 -0.0103  0.3984  0.0343
 1020MOL0     O34516   8.504   3.149  10.123 -0.0990 -0.3609 -0.0575
 1020MOL0     C34517   8.514   3.290  10.148 -0.1104 -0.1092 -0.1398
 1020MOL0     C34518   8.610   3.296  10.271 -0.0622  0.3311  0.2120
 1020MOL0     C34519   8.526   3.296  10.403 -0.7365 -0.6142 -0.4008
 1020MOL0     C34520   8.431   3.415  10.430 -0.7249 -0.2364  0.2188
 1020MOL0     C34521   8.370   3.454  10.569 -0.2340  0.1205  0.8610
 1020MOL0     C34522   8.269   3.360  10.639 -0.3166  0.6060 -0.2310
 1020MOL0     C34523   8.205   3.425  10.765  0.6589  0.6996 -0.2025
 1020MOL0     C34524   8.306   3.496  10.851  0.2106  0.1437  0.0584
 1020MOL0     N34525   8.246   3.535  10.973 -0.2450 -0.4635  0.3752
 1020MOL0     C34526   8.131   3.614  10.976 -0.1380  0.1062  0.3281
 1020MOL0     C34527   8.112   3.645  11.110  0.0438  1.2222  0.1866
 1020MOL0     C34528   8.018   3.745  11.157 -0.0233 -0.3955  0.1166
 1020MOL0     C34529   7.961   3.694  11.284 -0.6044  0.3247 -0.3853
 1020MOL0     C34530   7.853   3.578  11.276  0.2400  0.3483  0.0130
 1020MOL0     C34531   7.722   3.597  11.344 -0.7716 -0.3075 -0.6873
 1020MOL0     O34532   7.733   3.558  11.486  1.2759  0.2632  0.4811
 1020MOL0     C34533   7.625   3.500  11.544 -0.0028 -0.3218  0.0421
 1020MOL0     C34534   7.489   3.500  11.492 -0.5051  0.4752 -0.2451
 1020MOL0     C34535   7.398   3.423  11.562 -0.4107  0.0186 -0.3258
 1020MOL0     C34536   7.431   3.356  11.683 -0.2345 -0.1399 -0.2769
 1020MOL0     C34537   7.332   3.266  11.754 -1.0404 -0.4912  0.3750
 1020MOL0     O34538   7.230   3.217  11.673  0.6686  0.5281 -0.5381
 1020MOL0     C34539   7.132   3.141  11.734 -0.0538  0.3075  0.0544
 1020MOL0     C34540   7.083   3.022  11.678 -1.0001  0.0883 -0.4035
 1020MOL0     C34541   6.979   2.951  11.742  0.6325  0.0962 -0.0328
 1020MOL0     C34542   6.903   3.002  11.849 -1.0863  1.4010  0.1051
 1020MOL0     O34543   6.803   2.918  11.904 -0.4082 -1.5154 -0.2533
 1020MOL0     C34544   6.697   2.976  11.966  0.0440 -0.0059 -0.6953
 1020MOL0     C34545   6.576   2.884  11.966  0.3181  0.0152 -0.9828
 1020MOL0     C34546   6.470   2.935  12.054  0.6296 -0.4700 -0.0256
 1020MOL0     C34547   6.338   2.851  12.051  1.0066 -0.4763  0.1915
 1020MOL0     C34548   6.355   2.697  12.079 -0.0220  0.5818  0.5507
 1020MOL0     C34549   6.235   2.620  12.054  0.7529  0.1468  0.1752
 1020MOL0     C34550   6.223   2.576  11.903  0.2705 -0.7390 -0.4133
 1020MOL0     C34551   6.103   2.499  11.872  0.2682  0.0927  0.0612
 1020MOL0    Cl34552   6.086   2.491  11.694  0.1566 -0.2111 -0.1673
 1020MOL0     C34553   6.941   3.123  11.903 -0.2272 -0.4681  0.0994
 1020MOL0     C34554   7.058   3.186  11.854 -0.0963 -0.5856 -0.1703
 1020MOL0     O34555   7.349   3.261  11.875 -0.2298  0.0430 -0.4432
 1020MOL0     C34556   7.559   3.363  11.731  0.9452 -0.1615  0.3284
 1020MOL0     C34557   7.657   3.438  11.665  0.0767 -0.0134  0.9239
 1020MOL0     N34558   8.220   3.590  11.180  0.2217  0.1433  0.1950
 1020MOL0     N34559   8.302   3.523  11.100  0.2376  0.2604 -0.9873
 1020MOL0     C34560   8.371   3.174   9.915 -0.4592 -0.9993  0.2271
 1020MOL0     C34561   8.264   3.139   9.832  0.5013  0.1624 -0.2361
 1020MOL0     C34562   7.856   3.039   9.698  1.2775 -0.9457 -0.1359
 1020MOL0     C34563   7.733   3.108   9.683  0.6647  0.9433 -0.1879
 1020MOL0     C34564   7.631   3.066   9.614  0.5121  0.5274  0.7112
 1020MOL0     C34565   7.636   2.942   9.552  0.2149  0.3376 -0.0660
 1020MOL0     O34566   7.534   2.891   9.473  0.6437  0.7100  0.2232
 1020MOL0     C34567   7.433   2.967   9.423  0.1899 -0.3122  0.5306
 1020MOL0     C34568   7.480   3.079   9.329  0.3381  0.4578  0.7378
 1020MOL0     C34569   7.543   3.008   9.201 -0.5552  0.1801 -0.3554
 1020MOL0     C34570   7.608   3.112   9.108  0.0175  0.0287  0.3480
 1020MOL0     C34571   7.527   3.153   8.997  0.3801  0.7155 -0.1121
 1020MOL0     C34572   7.465   3.181   8.899 -0.3872 -0.3949  0.4838
 1020MOL0     C34573   7.750   2.864   9.576 -0.2281  0.6488 -0.8344
 1020MOL0     C34574   7.859   2.907   9.646  0.3926 -0.0733  0.1802
 1020MOL0     H34575   8.120   2.915  10.050  0.6955 -0.2796  3.4917
 1020MOL0     H34576   8.336   2.954  10.164  0.9985 -0.0760  0.3474
 1020MOL0     H34577   8.419   3.338  10.171  0.7633  0.3042  2.9403
 1020MOL0     H34578   8.554   3.336  10.057 -0.6005  0.9659  0.1743
 1020MOL0     H34579   8.659   3.394  10.262 -0.5743  0.3999 -3.1017
 1020MOL0     H34580   8.695   3.227  10.265 -1.4891 -1.5196  0.6167
 1020MOL0     H34581   8.600   3.310  10.482 -1.0433 -2.0643  0.1733
 1020MOL0     H34582   8.477   3.198  10.405 -0.4308 -0.8282 -2.0318
 1020MOL0     H34583   8.474   3.505  10.385 -0.1918  0.7473  2.5292
 1020MOL0     H34584   8.346   3.392  10.366 -2.1834  0.6672  1.7568
 1020MOL0     H34585   8.320   3.550  10.556 -0.4679  0.2317  2.4218
 1020MOL0     H34586   8.453   3.470  10.639 -0.8187 -2.0725  2.1811
 1020MOL0     H34587   8.329   3.273  10.669 -0.1547  0.9347  0.3959
 1020MOL0     H34588   8.200   3.325  10.561  0.4843  1.8037 -1.5187
 1020MOL0     H34589   8.139   3.502  10.726 -2.2675 -0.9609  1.1317
 1020MOL0     H34590   8.151   3.342  10.811  1.8504 -0.8944 -1.5493
 1020MOL0     H34591   8.342   3.588  10.805  2.2703 -0.6966 -0.0946
 1020MOL0     H34592   8.386   3.422  10.864  0.3096  0.3691  0.7766
 1020MOL0     H34593   8.079   3.654  10.889 -1.5599 -3.5842 -0.7196
 1020MOL0     H34594   7.931   3.751  11.090  0.6088 -0.0564 -0.6877
 1020MOL0     H34595   8.064   3.844  11.161 -0.9166  0.0238  0.2068
 1020MOL0     H34596   7.909   3.780  11.326 -2.6820 -0.6404 -0.8670
 1020MOL0     H34597   8.042   3.653  11.346 -1.0526 -0.8324 -0.5369
 1020MOL0     H34598   7.826   3.550  11.174  0.6889 -0.3621  0.0865
 1020MOL0     H34599   7.897   3.486  11.315 -2.2060 -1.4191 -1.1443
 1020MOL0     H34600   7.637   3.552  11.292  0.9191 -1.5856 -2.5098
 1020MOL0     H34601   7.707   3.705  11.343  0.1774 -0.1554  0.0046
 1020MOL0     H34602   7.452   3.553  11.405 -2.4803 -0.5744 -0.1166
 1020MOL0     H34603   7.296   3.412  11.525 -0.0395  1.7165 -2.0145
 1020MOL0     H34604   7.144   2.988  11.595  1.0372  1.5285  0.4127
 1020MOL0     H34605   6.949   2.852  11.709 -1.0911  0.6660 -0.2788
 1020MOL0     H34606   6.668   3.077  11.935 -3.6558  0.5503  3.5582
 1020MOL0     H34607   6.735   2.994  12.067  1.5211  2.0800 -1.5411
 1020MOL0     H34608   6.605   2.784  11.999 -0.9654 -0.5084 -1.3741
 1020MOL0     H34609   6.531   2.879  11.866  1.0578  2.4126 -1.5190
 1020MOL0     H34610   6.443   3.033  12.014  1.6519 -1.7207 -4.3024
 1020MOL0     H34611   6.503   2.961  12.154  2.3947 -0.2942 -0.6322
 1020MOL0     H34612   6.267   2.888  12.125  3.1441  0.3055  1.9311
 1020MOL0     H34613   6.290   2.865  11.954 -0.1460  1.6356  1.0134
 1020MOL0     H34614   6.360   2.682  12.187 -2.0033  0.6290  0.6791
 1020MOL0     H34615   6.442   2.649  12.034 -2.4000 -0.3635 -3.5860
 1020MOL0     H34616   6.140   2.669  12.075 -0.0397 -1.1592 -0.2945
 1020MOL0     H34617   6.240   2.525  12.108  3.5326 -0.8403 -1.5910
 1020MOL0     H34618   6.220   2.672  11.850 -0.4666 -0.5195  0.0087
 1020MOL0     H34619   6.318   2.529  11.874  2.0465  2.2453  0.1276
 1020MOL0     H34620   6.015   2.554  11.905  0.1886 -0.7209  1.2764
 1020MOL0     H34621   6.103   2.397  11.913 -1.7846  0.0381  0.0381
 1020MOL0     H34622   6.885   3.171  11.983  0.2270  1.6324 -0.7709
 1020MOL0     H34623   7.099   3.277  11.897 -2.4896  0.9098 -0.8715
 1020MOL0     H34624   7.588   3.304  11.818  0.6855 -3.4974 -1.6795
 1020MOL0     H34625   7.758   3.436  11.706  1.6855  2.8737 -2.3816
 1020MOL0     H34626   8.434   3.257   9.887 -3.4913  1.8107  1.0721
 1020MOL0     H34627   8.244   3.186   9.736 -2.4840 -3.3679 -1.5492
 1020MOL0     H34628   7.721   3.203   9.733  0.1793  1.7234 -1.7138
 1020MOL0     H34629   7.540   3.126   9.612 -0.6727 -0.9961  3.4552
 1020MOL0     H34630   7.362   2.999   9.500 -3.3717 -0.0336 -2.5598
 1020MOL0     H34631   7.364   2.902   9.368 -3.5817  3.0471  0.8525
 1020MOL0     H34632   7.394   3.136   9.294 -0.2234  0.6256  2.3292
 1020MOL0     H34633   7.556   3.146   9.370  2.1055 -2.7091  3.1572
 1020MOL0     H34634   7.460   2.959   9.149 -0.6857  0.3645 -0.3237
 1020MOL0     H34635   7.610   2.923   9.217  0.4256  1.0387  0.1823
 1020MOL0     H34636   7.634   3.204   9.161  1.5963  0.1010 -0.5088
 1020MOL0     H34637   7.706   3.071   9.084  0.1494 -0.7984  2.1190
 1020MOL0     H34638   7.416   3.215   8.810 -1.2116 -1.3498  0.5522
 1020MOL0     H34639   7.757   2.761   9.544 -0.6297 -0.7178  2.9342
 1020MOL0     H34640   7.946   2.842   9.657  0.6851  0.4711  1.2743
 1021MOL0     O34641   8.681   2.762   0.404  0.1759 -0.2601  0.5559
 1021MOL0     C34642   8.673   2.663   0.328 -0.2294 -0.1205 -0.3831
 1021MOL0     O34643   8.584   2.562   0.335  0.2285 -0.6517 -0.5928
 1021MOL0     C34644   8.490   2.581   0.430 -0.4622  0.2559  0.5587
 1021MOL0     C34645   8.521   2.564   0.565  0.4767 -0.7246  0.5004
 1021MOL0     C34646   8.417   2.569   0.659  1.2409  0.4253 -0.6100
 1021MOL0     C34647   8.283   2.600   0.614  0.8705  0.0535 -0.2245
 1021MOL0     O34648   8.171   2.619   0.690 -0.1172 -0.2268 -0.5376
 1021MOL0     C34649   8.167   2.525   0.794  0.3422  0.0123 -0.6361
 1021MOL0     C34650   8.040   2.540   0.883 -0.6674 -0.4175 -0.4203
 1021MOL0     C34651   7.912   2.537   0.799  0.0153 -0.2437  0.0974
 1021MOL0     C34652   7.791   2.540   0.890 -0.7211  0.4421 -0.1252
 1021MOL0     C34653   7.656   2.563   0.823  0.5762 -0.1259 -0.6540
 1021MOL0     C34654   7.549   2.613   0.922 -0.1640  0.3329 -0.2916
 1021MOL0     C34655   7.546   2.543   1.055  0.6548 -0.4352 -0.0637
 1021MOL0     C34656   7.494   2.394   1.049  0.2653  0.2235  0.7947
 1021MOL0     N34657   7.354   2.381   1.027 -0.2471 -0.0876 -0.3675
 1021MOL0     C34658   7.296   2.282   0.956 -0.0300  0.0664 -0.9522
 1021MOL0     C34659   7.171   2.333   0.929 -0.1923 -0.6558  0.0645
 1021MOL0     C34660   7.075   2.283   0.826  0.5595 -0.0414 -0.1295
 1021MOL0     C34661   7.038   2.135   0.839 -0.1134  0.0553  0.0615
 1021MOL0     C34662   6.983   2.068   0.711  0.1414 -0.0164 -1.3237
 1021MOL0     C34663   6.853   2.124   0.655 -0.7059 -0.1393 -0.5315
 1021MOL0     O34664   6.819   2.065   0.528 -0.1425  0.9575 -0.3146
 1021MOL0     C34665   6.735   1.952   0.531 -0.4257 -0.8850  0.3583
 1021MOL0     C34666   6.737   1.877   0.413  0.1687 -0.5563 -0.3457
 1021MOL0     C34667   6.660   1.755   0.407 -0.5149 -1.1667  0.7787
 1021MOL0     C34668   6.576   1.708   0.512  0.9298  0.2155 -0.1232
 1021MOL0     C34669   6.487   1.591   0.500  0.3797 -0.3138  0.1143
 1021MOL0     O34670   6.400   1.550   0.602 -0.4452 -0.5007 -0.5406
 1021MOL0     C34671   6.298   1.465   0.578 -0.6960  0.2904 -0.7294
 1021MOL0     C34672   6.247   1.419   0.458 -0.1761  0.2922 -0.1559
 1021MOL0     C34673   6.124   1.358   0.439  0.1051 -0.7931 -0.0340
 1021MOL0     C34674   6.055   1.314   0.550  0.3324  1.2872 -0.2838
 1021MOL0     O34675   5.942   1.237   0.531 -0.0948  0.0247 -0.1936
 1021MOL0     C34676   5.840   1.290   0.445  0.1066  0.2060  0.5935
 1021MOL0     C34677   5.765   1.401   0.502 -0.0182  0.4407 -0.1215
 1021MOL0     C34678   5.659   1.468   0.410  0.3974 -1.0213  0.4988
 1021MOL0     C34679   5.515   1.418   0.422  0.2252  0.6850 -0.2189
 1021MOL0     C34680   5.419   1.475   0.308  0.0963 -0.4827  0.2574
 1021MOL0     C34681   5.274   1.439   0.333  0.0477 -0.0498 -0.4346
 1021MOL0     C34682   5.175   1.503   0.245 -1.1763  0.4366 -0.3043
 1021MOL0     C34683   5.027   1.487   0.285  0.1793  0.2613 -0.0660
 1021MOL0    Cl34684   4.977   1.317   0.294 -0.0977  0.0670  0.2394
 1021MOL0     C34685   6.097   1.358   0.681 -0.7803  0.9401  0.4634
 1021MOL0     C34686   6.214   1.427   0.687 -0.4946 -0.6774  0.6033
 1021MOL0     O34687   6.514   1.526   0.399  0.2884  1.4726 -0.2004
 1021MOL0     C34688   6.578   1.785   0.630 -0.3744  0.0953 -0.2724
 1021MOL0     C34689   6.662   1.899   0.637 -0.0034 -0.6146 -0.1918
 1021MOL0     N34690   7.157   2.461   0.985  0.0997 -0.5293 -0.0147
 1021MOL0     N34691   7.272   2.487   1.047  0.8408  0.4804 -0.2272
 1021MOL0     C34692   8.256   2.618   0.475 -0.7793 -0.2660 -0.3141
 1021MOL0     C34693   8.363   2.611   0.392  0.1927  0.0205  0.5327
 1021MOL0     C34694   8.773   2.649   0.215  0.9087  0.1984 -0.8833
 1021MOL0     C34695   8.837   2.752   0.156  0.5145 -0.0658  0.2045
 1021MOL0     C34696   8.955   2.731   0.072  0.9064  0.0463 -0.4017
 1021MOL0     C34697   8.998   2.606   0.045 -0.1251 -0.2665  0.4814
 1021MOL0     O34698   9.103   2.569  -0.036 -0.1176  0.0084  0.2009
 1021MOL0     C34699   9.174   2.665  -0.108  0.1519  0.2633 -0.8810
 1021MOL0     C34700   9.286   2.708  -0.021 -0.5739 -0.6774  0.1348
 1021MOL0     C34701   9.410   2.777  -0.086  0.3232  0.2152  0.0077
 1021MOL0     C34702   9.387   2.837  -0.232  0.3458  0.8124 -0.2481
 1021MOL0     C34703   9.516   2.890  -0.273 -0.7658  1.0446 -0.2011
 1021MOL0     C34704   9.613   2.926  -0.331  0.4046 -0.6728  0.0172
 1021MOL0     C34705   8.933   2.502   0.112  0.5082  0.1671  1.3184
 1021MOL0     C34706   8.825   2.524   0.197 -0.1624 -0.9517 -0.4255
 1021MOL0     H34707   8.623   2.536   0.592  0.4675 -0.3747  0.9141
 1021MOL0     H34708   8.446   2.564   0.763  2.0167  1.5235 -0.7612
 1021MOL0     H34709   8.256   2.531   0.857  0.8003 -5.0423 -0.4083
 1021MOL0     H34710   8.158   2.428   0.744 -3.4505  0.2042 -0.6313
 1021MOL0     H34711   8.037   2.636   0.935 -1.6353 -1.2119  1.0873
 1021MOL0     H34712   8.024   2.464   0.960 -0.5742  1.2317  1.2943
 1021MOL0     H34713   7.908   2.441   0.746 -0.5828 -1.1688  1.7250
 1021MOL0     H34714   7.918   2.615   0.723 -0.6423 -0.9535 -0.7077
 1021MOL0     H34715   7.770   2.442   0.934  0.1069  0.9369  1.4298
 1021MOL0     H34716   7.814   2.618   0.963 -0.1598 -1.5582  1.9564
 1021MOL0     H34717   7.622   2.474   0.770 -2.6466  1.4325 -1.4454
 1021MOL0     H34718   7.675   2.644   0.751 -1.6429 -0.3481 -1.5551
 1021MOL0     H34719   7.449   2.613   0.876 -1.4040  0.2333  2.2169
 1021MOL0     H34720   7.578   2.716   0.939  0.6022 -0.3503  3.5059
 1021MOL0     H34721   7.646   2.556   1.096  1.2092 -1.1154 -1.1406
 1021MOL0     H34722   7.482   2.606   1.117  0.3409 -1.4995  0.7170
 1021MOL0     H34723   7.519   2.347   1.144  0.8361 -1.1698 -0.0132
 1021MOL0     H34724   7.541   2.334   0.970 -2.1220  0.2597 -0.7858
 1021MOL0     H34725   7.331   2.189   0.913 -0.9383 -0.7584  0.0568
 1021MOL0     H34726   7.118   2.300   0.726  2.5734 -3.7553 -0.0805
 1021MOL0     H34727   6.985   2.344   0.837 -0.6558 -1.5390 -1.2892
 1021MOL0     H34728   6.966   2.115   0.919 -0.1379 -3.1435 -0.5983
 1021MOL0     H34729   7.126   2.075   0.866 -1.0607 -0.7196  1.5866
 1021MOL0     H34730   7.056   2.072   0.629  0.3223 -0.6829 -1.2047
 1021MOL0     H34731   6.958   1.962   0.721 -2.5326  0.5815 -0.8584
 1021MOL0     H34732   6.870   2.230   0.632  0.2624 -0.0052  0.7192
 1021MOL0     H34733   6.774   2.123   0.731  0.0131 -2.7738  0.2953
 1021MOL0     H34734   6.797   1.906   0.327  1.9828 -3.1109 -0.0523
 1021MOL0     H34735   6.656   1.704   0.311 -0.9737 -0.0990  0.2066
 1021MOL0     H34736   6.308   1.441   0.371 -0.9541  0.2908 -0.7121
 1021MOL0     H34737   6.112   1.333   0.334  2.0791 -1.7706 -0.0607
 1021MOL0     H34738   5.777   1.205   0.418 -0.0222  0.9509 -1.6908
 1021MOL0     H34739   5.891   1.335   0.359 -1.2057  3.1650  1.2317
 1021MOL0     H34740   5.844   1.472   0.524 -0.0591  0.9735 -1.5993
 1021MOL0     H34741   5.714   1.380   0.596 -1.2888 -2.3750 -1.3035
 1021MOL0     H34742   5.705   1.460   0.311  3.2848  3.1831  1.2095
 1021MOL0     H34743   5.653   1.575   0.433  2.3896 -0.6299 -0.6034
 1021MOL0     H34744   5.505   1.310   0.431 -2.0059  0.9176  0.6835
 1021MOL0     H34745   5.477   1.460   0.516  3.0738  1.8820  0.5254
 1021MOL0     H34746   5.451   1.436   0.211 -0.0379  0.4108 -0.1587
 1021MOL0     H34747   5.435   1.581   0.288  2.1007 -0.7736  0.0243
 1021MOL0     H34748   5.241   1.471   0.432  0.0759  2.7578 -1.2358
 1021MOL0     H34749   5.276   1.330   0.339  1.8604 -0.3823 -4.2343
 1021MOL0     H34750   5.209   1.606   0.228  1.1437 -0.3005 -0.5446
 1021MOL0     H34751   5.181   1.450   0.149 -0.9197 -0.4188  0.1687
 1021MOL0     H34752   4.978   1.546   0.208 -0.9890  0.3842  0.7348
 1021MOL0     H34753   5.013   1.535   0.382  2.8152 -0.6701  0.8600
 1021MOL0     H34754   6.042   1.339   0.772 -2.2843 -0.1307 -0.6130
 1021MOL0     H34755   6.246   1.460   0.786 -1.4268 -1.2654  1.1097
 1021MOL0     H34756   6.528   1.763   0.723 -1.3823  1.1681 -0.5379
 1021MOL0     H34757   6.657   1.943   0.736 -0.3424 -1.3815  0.1391
 1021MOL0     H34758   8.157   2.637   0.437 -0.3530  0.8608 -0.8844
 1021MOL0     H34759   8.342   2.628   0.287 -2.8858 -0.1555  1.0238
 1021MOL0     H34760   8.811   2.855   0.175 -0.7750 -0.7468  2.5188
 1021MOL0     H34761   9.014   2.819   0.048  0.7638  0.2736  0.0785
 1021MOL0     H34762   9.105   2.742  -0.144 -0.2863  0.0560 -0.4950
 1021MOL0     H34763   9.206   2.615  -0.200  1.2060  0.8666 -0.8590
 1021MOL0     H34764   9.248   2.765   0.064  2.0843 -0.8732  1.5636
 1021MOL0     H34765   9.320   2.613   0.023 -1.1765 -0.1282  1.8755
 1021MOL0     H34766   9.495   2.709  -0.086  2.4031  2.6221 -1.2475
 1021MOL0     H34767   9.443   2.857  -0.020 -2.5208  0.7802  0.8732
 1021MOL0     H34768   9.358   2.750  -0.290 -1.8740 -0.3801  2.4167
 1021MOL0     H34769   9.317   2.920  -0.225 -1.9146 -0.9960 -0.1953
 1021MOL0     H34770   9.701   2.960  -0.380  1.1029  0.5286  1.9927
 1021MOL0     H34771   8.966   2.399   0.102 -2.4949 -0.8864  1.1568
 1021MOL0     H34772   8.784   2.437   0.248 -0.1189 -1.1874 -0.7917
 1022MOL0     O34773   2.480   9.739   1.692  0.3529 -0.6238 -0.4858
 1022MOL0     C34774   2.455   9.757   1.815  0.0931 -0.6047 -0.4471
 1022MOL0     O34775   2.538   9.824   1.900  0.0831  0.4387  0.4888
 1022MOL0     C34776   2.672   9.831   1.875  0.4049 -0.3484 -0.4394
 1022MOL0     C34777   2.758   9.729   1.909  0.3582 -0.9374 -0.1686
 1022MOL0     C34778   2.898   9.746   1.912  0.5846 -1.1146  0.7170
 1022MOL0     C34779   2.953   9.868   1.876  0.0750  0.8188  0.0062
 1022MOL0     O34780   3.093   9.874   1.885  0.3876 -0.0171  0.2429
 1022MOL0     C34781   3.156   9.988   1.825 -0.4330 -0.5640  0.7912
 1022MOL0     C34782   3.309   9.991   1.839 -0.4293 -0.5985 -0.5082
 1022MOL0     C34783   3.343  10.089   1.954  0.4787  0.6181  0.1171
 1022MOL0     C34784   3.491  10.120   1.973 -0.6240  0.1617 -0.0959
 1022MOL0     C34785   3.508  10.222   2.080  0.0349 -0.8906  0.6831
 1022MOL0     C34786   3.643  10.296   2.071  1.1689  0.9333  0.3768
 1022MOL0     C34787   3.666  10.395   2.173  0.4424 -0.3937 -0.4423
 1022MOL0     C34788   3.708  10.334   2.316 -0.0992 -0.0353  0.6723
 1022MOL0     N34789   3.851  10.300   2.319  0.1397  0.3379 -0.0054
 1022MOL0     C34790   3.946  10.382   2.355 -0.4529  0.9761  0.3478
 1022MOL0     C34791   4.061  10.310   2.359  1.2224  0.0087  0.4631
 1022MOL0     C34792   4.191  10.355   2.418 -0.6267  0.0470 -0.5448
 1022MOL0     C34793   4.242  10.487   2.356 -0.0630  0.0623  0.2012
 1022MOL0     C34794   4.282  10.487   2.213  0.0096 -0.1835 -0.1477
 1022MOL0     C34795   4.334  10.617   2.162 -0.0839  0.1497 -0.7386
 1022MOL0     O34796   4.359  10.598   2.024  0.1926  0.1306 -0.9813
 1022MOL0     C34797   4.409  10.710   1.951  0.5784  0.4660 -0.7130
 1022MOL0     C34798   4.396  10.845   1.982  0.9940 -0.5432 -0.3505
 1022MOL0     C34799   4.452  10.937   1.900  0.0657  0.6183  0.9303
 1022MOL0     C34800   4.522  10.911   1.781 -0.5893  1.0243  0.3672
 1022MOL0     C34801   4.582  11.021   1.704  0.6874  0.1212  0.1559
 1022MOL0     O34802   4.646  10.978   1.598 -1.2557  0.0874  0.2164
 1022MOL0     C34803   4.728  11.058   1.522 -0.1277  0.3028  1.2308
 1022MOL0     C34804   4.744  11.032   1.379 -0.4100 -0.2674 -0.2108
 1022MOL0     C34805   4.838  11.102   1.301  0.2381  0.2460  0.3682
 1022MOL0     C34806   4.930  11.181   1.362 -0.1574 -0.8694  0.2426
 1022MOL0     O34807   5.027  11.257   1.303 -0.6172  0.5355 -0.5788
 1022MOL0     C34808   5.076  11.225   1.176  0.1433  0.5535 -0.2392
 1022MOL0     C34809   5.203  11.302   1.143  0.0925 -0.3610  0.2527
 1022MOL0     C34810   5.300  11.237   1.043 -0.2573 -0.1993  0.2690
 1022MOL0     C34811   5.247  11.233   0.903 -0.8311 -0.0758  0.1535
 1022MOL0     C34812   5.351  11.232   0.793  0.5108  0.7023 -0.6459
 1022MOL0     C34813   5.279  11.222   0.657 -0.8249 -0.2664 -1.0083
 1022MOL0     C34814   5.229  11.091   0.617 -0.7187  0.1794 -0.1008
 1022MOL0     C34815   5.323  10.975   0.628  0.0976 -0.3342 -0.5863
 1022MOL0    Cl34816   5.255  10.849   0.527  0.1610 -0.3444  0.5024
 1022MOL0     C34817   4.915  11.208   1.493 -0.1435 -0.3148 -1.4606
 1022MOL0     C34818   4.815  11.153   1.580  0.0135 -0.6359  0.4266
 1022MOL0     O34819   4.569  11.135   1.733  0.5274  0.6757  0.4198
 1022MOL0     C34820   4.532  10.769   1.751 -0.6040 -0.3186 -0.0391
 1022MOL0     C34821   4.481  10.671   1.836  0.5028  0.5380  0.4089
 1022MOL0     N34822   4.027  10.181   2.334 -0.0360  0.0917  0.7927
 1022MOL0     N34823   3.906  10.180   2.295  0.5645  0.1959 -0.9848
 1022MOL0     C34824   2.873   9.975   1.838 -0.1368  0.2261 -0.0110
 1022MOL0     C34825   2.729   9.954   1.826  0.0456 -0.1939  0.2508
 1022MOL0     C34826   2.318   9.712   1.864 -0.1596 -0.1649 -1.0180
 1022MOL0     C34827   2.267   9.761   1.990 -0.4433  0.4594  1.3020
 1022MOL0     C34828   2.134   9.732   2.029  0.1647  0.4611 -0.0688
 1022MOL0     C34829   2.051   9.664   1.948  0.1934 -0.1861 -0.8274
 1022MOL0     O34830   1.917   9.660   1.988  0.2655 -0.0116  0.8363
 1022MOL0     C34831   1.849   9.530   1.971 -0.4499 -0.1723  0.1250
 1022MOL0     C34832   1.743   9.506   2.079  0.7493 -1.0071  0.3996
 1022MOL0     C34833   1.608   9.576   2.056 -1.1780  0.2654  0.4948
 1022MOL0     C34834   1.492   9.530   2.151 -0.6613  0.7799 -0.6584
 1022MOL0     C34835   1.521   9.556   2.286 -0.0402  0.2442 -1.3837
 1022MOL0     C34836   1.547   9.581   2.406  0.2354  0.7353 -0.0075
 1022MOL0     C34837   2.104   9.604   1.828  0.5192 -0.3396 -0.5639
 1022MOL0     C34838   2.235   9.620   1.795 -0.4875  0.3359  0.6796
 1022MOL0     H34839   2.706   9.640   1.945 -1.1763 -0.1241 -0.3080
 1022MOL0     H34840   2.962   9.662   1.935  0.4701 -1.0634  1.2253
 1022MOL0     H34841   3.112  10.084   1.852 -3.3291 -1.9272  1.2982
 1022MOL0     H34842   3.149   9.969   1.717  0.4048 -2.9975  1.0961
 1022MOL0     H34843   3.362  10.028   1.751 -1.9682  0.2920 -1.0984
 1022MOL0     H34844   3.348   9.896   1.877 -0.4826 -0.2529  0.4550
 1022MOL0     H34845   3.304  10.061   2.052  1.1705 -0.7742  0.0141
 1022MOL0     H34846   3.300  10.185   1.922  1.4154 -0.0363 -3.7078
 1022MOL0     H34847   3.546  10.030   2.003 -1.0782  1.0216  3.9365
 1022MOL0     H34848   3.538  10.149   1.879 -0.2880 -1.8496 -0.5929
 1022MOL0     H34849   3.493  10.188   2.183 -3.6319 -0.3005  0.4814
 1022MOL0     H34850   3.433  10.301   2.066 -0.1909 -0.2984  4.2853
 1022MOL0     H34851   3.634  10.344   1.973  0.5819  0.1965  0.0595
 1022MOL0     H34852   3.729  10.228   2.064 -0.1710 -0.7829 -0.0728
 1022MOL0     H34853   3.745  10.461   2.135 -0.3435  0.1488 -1.1782
 1022MOL0     H34854   3.580  10.461   2.185  0.7051  0.0302 -0.8719
 1022MOL0     H34855   3.648  10.249   2.349 -0.5874  1.0665  2.7553
 1022MOL0     H34856   3.695  10.410   2.392  1.9652  0.7570  0.3045
 1022MOL0     H34857   3.932  10.485   2.385  1.0371  1.8304 -1.6973
 1022MOL0     H34858   4.261  10.271   2.421 -3.3234 -2.3237  1.6734
 1022MOL0     H34859   4.160  10.379   2.520  2.6133 -1.6414  1.0096
 1022MOL0     H34860   4.327  10.510   2.420  2.1792 -3.4235 -1.2032
 1022MOL0     H34861   4.170  10.569   2.367 -0.7849 -0.2687 -1.6197
 1022MOL0     H34862   4.359  10.409   2.211  1.3154  0.9951  1.1773
 1022MOL0     H34863   4.191  10.451   2.165 -0.7844  0.7788  0.5873
 1022MOL0     H34864   4.425  10.659   2.207  1.6576 -0.6390 -3.3429
 1022MOL0     H34865   4.257  10.695   2.167  0.6005  0.7901  0.0376
 1022MOL0     H34866   4.347  10.882   2.072 -1.0022 -0.3319 -1.4673
 1022MOL0     H34867   4.434  11.035   1.944  1.5174  0.8791  0.9892
 1022MOL0     H34868   4.670  10.960   1.346 -1.5363  0.3247  0.9222
 1022MOL0     H34869   4.861  11.071   1.200  0.1124 -0.3881  0.5333
 1022MOL0     H34870   5.000  11.235   1.097  0.2348 -2.5960 -0.8629
 1022MOL0     H34871   5.097  11.118   1.170 -1.4870  0.1451  0.6109
 1022MOL0     H34872   5.272  11.295   1.228  1.0507  1.4317 -0.3304
 1022MOL0     H34873   5.188  11.407   1.116  0.6892  0.0459  1.4091
 1022MOL0     H34874   5.320  11.132   1.069 -0.7256  0.1243  2.0431
 1022MOL0     H34875   5.394  11.291   1.061 -0.6764  0.5423  0.2461
 1022MOL0     H34876   5.177  11.152   0.882 -0.9216  0.4764 -1.8621
 1022MOL0     H34877   5.189  11.325   0.895  2.4318  2.3347  1.7457
 1022MOL0     H34878   5.415  11.144   0.806 -0.0605 -0.0847 -2.8138
 1022MOL0     H34879   5.396  11.332   0.802 -2.8404  2.3591 -1.0215
 1022MOL0     H34880   5.360  11.234   0.585  0.0113 -1.4140 -0.2906
 1022MOL0     H34881   5.209  11.306   0.653  0.3819  0.8131 -0.3237
 1022MOL0     H34882   5.142  11.055   0.671 -0.2035 -0.1723  0.4998
 1022MOL0     H34883   5.204  11.113   0.512  1.6457  0.2525 -0.7105
 1022MOL0     H34884   5.345  10.939   0.729  0.9412 -3.4658 -1.7479
 1022MOL0     H34885   5.414  11.005   0.575 -0.3686  2.5299  0.0796
 1022MOL0     H34886   4.990  11.279   1.527 -1.4353  1.6176 -2.4626
 1022MOL0     H34887   4.816  11.165   1.688 -0.0550 -2.8266  0.7163
 1022MOL0     H34888   4.582  10.740   1.659 -2.2121  1.4837 -1.5704
 1022MOL0     H34889   4.486  10.569   1.799  2.1036  1.1470 -1.1732
 1022MOL0     H34890   2.910  10.072   1.806  3.1254 -1.0934 -0.7090
 1022MOL0     H34891   2.649  10.020   1.796 -1.3936 -2.1965 -0.5265
 1022MOL0     H34892   2.330   9.819   2.057 -0.9790  1.6053  0.8426
 1022MOL0     H34893   2.097   9.770   2.124  2.3866 -1.4995  1.7044
 1022MOL0     H34894   1.922   9.449   1.962  3.2529  2.6704  1.8490
 1022MOL0     H34895   1.798   9.523   1.875 -1.2019 -2.3629  0.6312
 1022MOL0     H34896   1.716   9.400   2.067 -0.3413 -0.5808 -1.3475
 1022MOL0     H34897   1.776   9.540   2.178  0.0888 -0.3739  0.4070
 1022MOL0     H34898   1.568   9.556   1.956 -2.3116  0.7665  0.8292
 1022MOL0     H34899   1.636   9.681   2.067  3.9383 -0.8436  0.5694
 1022MOL0     H34900   1.403   9.579   2.111 -2.0852  1.2785  2.8494
 1022MOL0     H34901   1.488   9.421   2.147 -1.0115  0.5824  2.6150
 1022MOL0     H34902   1.562   9.592   2.512  0.6199 -3.1114  0.4723
 1022MOL0     H34903   2.032   9.547   1.771 -0.6635 -0.8534  1.3572
 1022MOL0     H34904   2.281   9.572   1.709  0.8274  1.1853  0.8867
 1023MOL0     O34905   7.772   5.904   3.907  0.1645  0.2781  0.7513
 1023MOL0     C34906   7.848   6.003   3.901  0.9741  0.0368  0.4527
 1023MOL0     O34907   7.809   6.134   3.908  0.7346 -0.0347 -0.5542
 1023MOL0     C34908   7.681   6.165   3.943 -0.2450  0.2275  0.0575
 1023MOL0     C34909   7.645   6.186   4.077  0.2254  0.5084  0.9508
 1023MOL0     C34910   7.510   6.209   4.109 -0.0184 -0.5388  0.4098
 1023MOL0     C34911   7.410   6.196   4.012  0.4592 -0.2022 -0.4633
 1023MOL0     O34912   7.281   6.212   4.050  0.1776 -0.1097  0.2240
 1023MOL0     C34913   7.186   6.261   3.952  0.2299  0.9227  0.4364
 1023MOL0     C34914   7.055   6.295   4.024 -0.5325  0.1929 -0.1809
 1023MOL0     C34915   6.940   6.334   3.926 -0.2440 -0.0622  0.1255
 1023MOL0     C34916   6.854   6.210   3.881  0.2492  0.0115  0.0956
 1023MOL0     C34917   6.752   6.253   3.780 -0.0648 -0.8767  0.0548
 1023MOL0     C34918   6.649   6.358   3.831 -1.0975 -0.8824 -1.0961
 1023MOL0     C34919   6.544   6.414   3.737  0.2034  0.7756  0.0634
 1023MOL0     C34920   6.604   6.510   3.628  0.4233  0.5708  0.4846
 1023MOL0     N34921   6.504   6.591   3.567  0.4522 -0.1160 -0.3152
 1023MOL0     C34922   6.431   6.563   3.455 -0.4302 -0.5161  1.0282
 1023MOL0     C34923   6.366   6.676   3.424  0.7326 -0.3090  0.7215
 1023MOL0     C34924   6.283   6.677   3.302  0.5534 -1.5259  0.5423
 1023MOL0     C34925   6.141   6.661   3.323 -0.7368  0.6457  0.2091
 1023MOL0     C34926   6.078   6.787   3.383 -0.2057  0.3811 -0.1995
 1023MOL0     C34927   5.930   6.755   3.412 -0.6189 -0.2044 -0.1241
 1023MOL0     O34928   5.921   6.628   3.483 -0.2533 -0.1220  0.0752
 1023MOL0     C34929   5.800   6.602   3.537  0.4483 -0.3045 -0.5875
 1023MOL0     C34930   5.797   6.488   3.615  0.1592 -0.6834 -0.2609
 1023MOL0     C34931   5.689   6.453   3.693 -0.3159 -0.2365  0.2453
 1023MOL0     C34932   5.571   6.530   3.681 -0.6533  0.6918 -0.2464
 1023MOL0     C34933   5.457   6.479   3.757  0.3845  0.5970  0.7985
 1023MOL0     O34934   5.450   6.341   3.774  0.4791  0.0801  0.2558
 1023MOL0     C34935   5.345   6.285   3.842  0.3006 -0.3612  0.1196
 1023MOL0     C34936   5.363   6.180   3.929 -0.6793  0.0270  0.6389
 1023MOL0     C34937   5.258   6.114   3.993  0.5475  1.2647  0.3532
 1023MOL0     C34938   5.127   6.148   3.963  0.8639  0.3486 -1.1173
 1023MOL0     O34939   5.027   6.074   4.018 -0.1209  0.4929 -0.7784
 1023MOL0     C34940   4.899   6.145   4.032  0.4340  0.4411 -0.2901
 1023MOL0     C34941   4.814   6.059   4.124  0.2528 -1.1771 -0.7236
 1023MOL0     C34942   4.665   6.083   4.118 -0.2457 -0.7711 -0.1063
 1023MOL0     C34943   4.593   6.010   4.228 -0.3307 -0.8735 -0.0036
 1023MOL0     C34944   4.445   6.014   4.216 -0.6664 -0.1469  0.0296
 1023MOL0     C34945   4.384   5.872   4.249 -0.0774 -0.7650  1.2370
 1023MOL0     C34946   4.242   5.863   4.190  0.3197  0.7443 -1.0599
 1023MOL0     C34947   4.133   5.908   4.280 -0.6518 -0.0156 -0.3724
 1023MOL0    Cl34948   3.969   5.849   4.238  0.0489 -0.7144 -0.2066
 1023MOL0     C34949   5.100   6.265   3.881  0.4927 -0.1923 -0.3263
 1023MOL0     C34950   5.210   6.320   3.812  0.6741  0.2378  0.1270
 1023MOL0     O34951   5.385   6.561   3.802 -0.1485 -0.3368  0.0584
 1023MOL0     C34952   5.566   6.648   3.598 -0.2077  0.8247 -0.2920
 1023MOL0     C34953   5.685   6.686   3.534 -0.5252  0.7497 -0.2936
 1023MOL0     N34954   6.388   6.766   3.519  0.3596  0.1916  0.0038
 1023MOL0     N34955   6.457   6.708   3.611  0.1681 -0.4760 -0.9135
 1023MOL0     C34956   7.451   6.167   3.873 -0.0566  0.0133  0.2309
 1023MOL0     C34957   7.589   6.163   3.841  0.3768  0.1167 -0.7118
 1023MOL0     C34958   7.996   5.979   3.866 -0.1216  1.5657 -0.0834
 1023MOL0     C34959   8.064   5.864   3.912  0.8624  0.4600  0.4810
 1023MOL0     C34960   8.184   5.831   3.855  0.5633 -0.1250  0.4388
 1023MOL0     C34961   8.249   5.914   3.765 -0.5940  0.5246 -0.0064
 1023MOL0     O34962   8.365   5.885   3.698 -0.1301 -0.0270 -0.2846
 1023MOL0     C34963   8.418   5.756   3.722 -1.4969 -0.5264  0.9896
 1023MOL0     C34964   8.544   5.718   3.642 -0.1655 -1.3418 -0.3982
 1023MOL0     C34965   8.660   5.812   3.690 -0.0522  0.6116 -0.2986
 1023MOL0     C34966   8.805   5.769   3.643  0.0132  0.2611  0.3195
 1023MOL0     C34967   8.905   5.872   3.693  0.1052  1.0006  0.7722
 1023MOL0     C34968   8.987   5.952   3.731  0.3689 -0.7457 -1.2928
 1023MOL0     C34969   8.181   6.035   3.724 -0.6669  0.0455  0.2840
 1023MOL0     C34970   8.060   6.068   3.776 -0.5317 -0.0687 -0.4644
 1023MOL0     H34971   7.719   6.194   4.156  0.7572 -1.7028  0.7332
 1023MOL0     H34972   7.489   6.243   4.210  0.9648 -0.0772  0.4741
 1023MOL0     H34973   7.152   6.184   3.882 -2.1544  0.8160  1.6024
 1023MOL0     H34974   7.225   6.353   3.908  0.5850 -0.3169 -2.0384
 1023MOL0     H34975   7.080   6.374   4.095 -1.1531 -0.2695  0.5612
 1023MOL0     H34976   7.031   6.213   4.092  1.4120  0.4900  0.9385
 1023MOL0     H34977   6.978   6.395   3.843  1.1807  1.6065  1.8925
 1023MOL0     H34978   6.873   6.406   3.974 -0.5282  0.8374 -1.5605
 1023MOL0     H34979   6.916   6.133   3.835 -0.0832 -0.7817  0.9426
 1023MOL0     H34980   6.799   6.167   3.966 -1.7090  1.4607 -0.3713
 1023MOL0     H34981   6.706   6.163   3.738 -2.6044  0.9584 -1.3959
 1023MOL0     H34982   6.809   6.306   3.704 -0.2927  0.1824  0.6073
 1023MOL0     H34983   6.693   6.439   3.889 -0.6352  0.1988 -2.8857
 1023MOL0     H34984   6.598   6.292   3.902  1.1906  0.0129  1.5642
 1023MOL0     H34985   6.496   6.329   3.685  1.0288  1.6512 -2.2734
 1023MOL0     H34986   6.457   6.446   3.795 -0.9338 -1.7130 -0.1466
 1023MOL0     H34987   6.652   6.454   3.547 -0.2430  1.2399 -0.4073
 1023MOL0     H34988   6.687   6.574   3.659  0.2839 -0.1530  2.5087
 1023MOL0     H34989   6.447   6.478   3.390  1.2765 -0.2649  1.0723
 1023MOL0     H34990   6.312   6.604   3.225  1.6119  0.3957 -0.9731
 1023MOL0     H34991   6.311   6.771   3.254  1.6414 -0.8651  2.3790
 1023MOL0     H34992   6.133   6.566   3.378  1.1798 -0.5616 -1.4341
 1023MOL0     H34993   6.088   6.646   3.229 -1.2136 -0.5556  0.6503
 1023MOL0     H34994   6.128   6.811   3.477  3.4352 -1.4640 -1.4649
 1023MOL0     H34995   6.083   6.866   3.307 -0.4786  1.0424  0.4619
 1023MOL0     H34996   5.867   6.755   3.322  0.2335  4.2490 -0.9145
 1023MOL0     H34997   5.899   6.840   3.473 -0.7063  1.1231 -1.9428
 1023MOL0     H34998   5.880   6.418   3.619  2.3909  1.7919 -0.9975
 1023MOL0     H34999   5.694   6.368   3.761  0.0968 -0.6181 -0.2514
 1023MOL0     H35000   5.456   6.134   3.959 -2.6357 -2.8158  2.9834
 1023MOL0     H35001   5.275   6.032   4.062  1.6565  0.4175 -0.8791
 1023MOL0     H35002   4.845   6.143   3.937 -1.4466 -0.6509  0.7453
 1023MOL0     H35003   4.916   6.244   4.077 -0.0164 -0.2525  1.5049
 1023MOL0     H35004   4.848   6.086   4.224 -1.3685  3.2292 -1.1276
 1023MOL0     H35005   4.837   5.953   4.106  2.1605 -0.9805  0.3094
 1023MOL0     H35006   4.638   6.040   4.021  2.6505 -0.9675 -0.9181
 1023MOL0     H35007   4.637   6.188   4.123 -1.6268 -1.1846  2.6144
 1023MOL0     H35008   4.630   5.907   4.235  2.1279 -0.2684 -2.3043
 1023MOL0     H35009   4.615   6.056   4.325 -1.7895  2.6291 -1.2103
 1023MOL0     H35010   4.428   6.041   4.111  0.6222  0.1292 -0.1344
 1023MOL0     H35011   4.405   6.091   4.283  2.5126  1.8153 -0.0983
 1023MOL0     H35012   4.394   5.865   4.358  1.2346  3.2660  1.5418
 1023MOL0     H35013   4.446   5.796   4.200  0.7285  1.4912 -1.4949
 1023MOL0     H35014   4.234   5.913   4.093  0.7435  0.0438 -1.4625
 1023MOL0     H35015   4.224   5.756   4.175  3.2168  0.1184 -0.6094
 1023MOL0     H35016   4.125   6.017   4.282 -3.2351 -0.1400  1.8700
 1023MOL0     H35017   4.157   5.862   4.377 -0.0498 -2.5378 -1.6397
 1023MOL0     H35018   4.998   6.281   3.848  0.4009 -0.7013 -0.2957
 1023MOL0     H35019   5.193   6.402   3.744 -1.3079 -3.2677 -4.0470
 1023MOL0     H35020   5.472   6.702   3.604 -1.5648 -1.5723  2.7432
 1023MOL0     H35021   5.683   6.781   3.483 -2.1260 -0.4813 -2.7009
 1023MOL0     H35022   7.385   6.157   3.787  0.7070  3.5501 -0.9122
 1023MOL0     H35023   7.615   6.135   3.739 -0.4582 -5.1608  0.1961
 1023MOL0     H35024   8.026   5.787   3.979  0.9634 -2.0953 -2.2297
 1023MOL0     H35025   8.215   5.728   3.870 -4.9433 -2.0594  0.7551
 1023MOL0     H35026   8.337   5.693   3.685 -1.3020 -0.1044 -0.2014
 1023MOL0     H35027   8.434   5.741   3.829 -1.8664 -0.8945  0.9952
 1023MOL0     H35028   8.570   5.612   3.646  0.7264 -1.1159 -0.1155
 1023MOL0     H35029   8.519   5.747   3.540 -0.2363  0.3959  0.0782
 1023MOL0     H35030   8.659   5.793   3.798 -2.1021 -2.2484 -0.6877
 1023MOL0     H35031   8.645   5.919   3.676  1.0080  0.9922  1.2316
 1023MOL0     H35032   8.839   5.669   3.673 -2.7077 -1.7441 -2.6444
 1023MOL0     H35033   8.792   5.767   3.535  2.2373 -2.7548 -0.0321
 1023MOL0     H35034   9.062   6.016   3.772 -1.0486  1.0186 -1.3603
 1023MOL0     H35035   8.226   6.103   3.652  4.2507 -0.9817  2.0093
 1023MOL0     H35036   7.998   6.144   3.729  0.0228  0.8618  0.2773
 1024MOL0     O35037   4.667  10.624  10.419 -0.3078 -0.1222 -0.8649
 1024MOL0     C35038   4.715  10.733  10.387 -0.1627  0.7397 -0.0472
 1024MOL0     O35039   4.644  10.847  10.366  0.0822  0.8764 -0.0304
 1024MOL0     C35040   4.504  10.860  10.386 -0.0771 -0.3545 -0.2592
 1024MOL0     C35041   4.411  10.757  10.366  0.2798  0.2595  0.1961
 1024MOL0     C35042   4.274  10.784  10.386 -0.1473 -0.2170 -0.4112
 1024MOL0     C35043   4.235  10.917  10.437  0.1830  0.5081  0.5005
 1024MOL0     O35044   4.104  10.955  10.467  0.3214  0.2851 -0.2240
 1024MOL0     C35045   4.005  10.892  10.374 -0.0176 -0.5841  0.0769
 1024MOL0     C35046   3.868  10.960  10.404 -0.5077 -0.3027  0.4363
 1024MOL0     C35047   3.852  11.050  10.285 -0.4633  1.0644  0.7234
 1024MOL0     C35048   3.708  11.105  10.296 -0.1055 -0.0816 -0.1649
 1024MOL0     C35049   3.664  11.202  10.189 -0.0853  0.0656  0.5813
 1024MOL0     C35050   3.629  11.145  10.051  0.7801  0.4266  0.1968
 1024MOL0     C35051   3.517  11.042  10.053  0.0517 -0.5551  0.4849
 1024MOL0     C35052   3.395  11.071  10.145  0.4370 -0.4196 -0.3056
 1024MOL0     N35053   3.317  11.192  10.102 -0.3104  1.1438  0.2577
 1024MOL0     C35054   3.366  11.322  10.092  0.0336  0.2923 -0.3773
 1024MOL0     C35055   3.260  11.391  10.053  0.1095  0.2947 -0.0233
 1024MOL0     C35056   3.235  11.539  10.040 -0.6582  0.0965 -0.4438
 1024MOL0     C35057   3.215  11.586  10.181 -0.9179 -0.3480 -0.4453
 1024MOL0     C35058   3.218  11.740  10.189  0.5840 -1.2682 -0.0631
 1024MOL0     C35059   3.203  11.777  10.343 -0.2764 -0.1224  0.0804
 1024MOL0     O35060   3.248  11.912  10.353 -0.2242 -0.3387  0.3048
 1024MOL0     C35061   3.151  12.005  10.391 -0.4122  0.8424 -0.3896
 1024MOL0     C35062   3.023  12.010  10.335  0.1530 -0.2431  0.6637
 1024MOL0     C35063   2.930  12.096  10.387 -0.1634  0.7265  0.0370
 1024MOL0     C35064   2.964  12.181  10.498  0.1398  0.3322  1.5296
 1024MOL0     C35065   2.865  12.265  10.555 -0.1351  0.1670 -0.3260
 1024MOL0     O35066   2.909  12.371  10.614  0.5302 -0.0637 -0.0647
 1024MOL0     C35067   2.822  12.474  10.644  0.3039 -0.2922  0.5557
 1024MOL0     C35068   2.849  12.549  10.766  0.0906  0.2436  0.3759
 1024MOL0     C35069   2.766  12.661  10.798 -0.4149  0.4883  0.3796
 1024MOL0     C35070   2.664  12.700  10.707 -0.5836  0.3799 -0.0715
 1024MOL0     O35071   2.591  12.804  10.750 -0.0947  0.3085 -0.1373
 1024MOL0     C35072   2.458  12.817  10.703  0.4311  0.8289  0.0518
 1024MOL0     C35073   2.394  12.930  10.786 -0.3840 -0.4152 -0.0340
 1024MOL0     C35074   2.250  12.873  10.826  0.4624  0.0290 -0.5058
 1024MOL0     C35075   2.177  12.986  10.895 -1.0367 -0.3219 -0.0280
 1024MOL0     C35076   2.041  12.951  10.940  0.5048 -0.5125 -0.0063
 1024MOL0     C35077   2.022  12.859  11.056  0.0774 -0.5223  1.2341
 1024MOL0     C35078   2.122  12.893  11.165  0.0522 -0.1132  0.0086
 1024MOL0     C35079   2.092  12.796  11.277 -0.9994 -1.2859  0.9720
 1024MOL0    Cl35080   1.945  12.861  11.381 -0.3771  0.2665  0.3248
 1024MOL0     C35081   2.643  12.631  10.586 -0.0418 -0.4481  0.1461
 1024MOL0     C35082   2.711  12.513  10.557 -0.8893 -0.1187 -0.2079
 1024MOL0     O35083   2.747  12.234  10.554  0.3464  0.1566  0.0109
 1024MOL0     C35084   3.100  12.181  10.545  0.1837 -0.3956 -0.5785
 1024MOL0     C35085   3.184  12.094  10.492 -0.4439 -0.3920 -0.3781
 1024MOL0     N35086   3.157  11.296  10.020  0.0003  0.3111 -0.6136
 1024MOL0     N35087   3.188  11.180  10.062  0.6702 -0.6418 -0.2604
 1024MOL0     C35088   4.335  11.010  10.444  0.9527 -0.0675 -0.2218
 1024MOL0     C35089   4.462  10.986  10.414 -0.0552  0.1718  0.3482
 1024MOL0     C35090   4.858  10.736  10.359  0.6450  0.1184  1.3538
 1024MOL0     C35091   4.921  10.850  10.317 -0.2901 -0.5755  0.6826
 1024MOL0     C35092   5.059  10.844  10.297  0.2567 -0.5278 -0.5242
 1024MOL0     C35093   5.137  10.741  10.327 -0.3152  0.0560 -0.1474
 1024MOL0     O35094   5.274  10.766  10.314  0.2436 -0.3347 -0.0420
 1024MOL0     C35095   5.359  10.656  10.322  0.0611 -1.0814 -0.9176
 1024MOL0     C35096   5.485  10.697  10.266 -0.7474  0.1678 -0.7369
 1024MOL0     C35097   5.475  10.678  10.111 -0.1379 -0.2137 -0.0607
 1024MOL0     C35098   5.599  10.733  10.037  0.6648 -0.4028  0.3182
 1024MOL0     C35099   5.603  10.878  10.052 -0.1950  0.4425 -0.0250
 1024MOL0     C35100   5.624  10.998  10.069 -0.3873 -0.3778  0.0507
 1024MOL0     C35101   5.071  10.619  10.360 -0.8705 -0.2066  0.5519
 1024MOL0     C35102   4.934  10.616  10.391  0.0849  1.0465 -0.0834
 1024MOL0     H35103   4.440  10.662  10.322 -2.0825 -0.4561  0.0307
 1024MOL0     H35104   4.194  10.711  10.378 -1.2771 -0.8303  7.6855
 1024MOL0     H35105   4.005  10.783  10.381 -1.4173 -0.6959 -1.1121
 1024MOL0     H35106   4.043  10.912  10.273  0.4899  5.3268  1.0649
 1024MOL0     H35107   3.863  11.018  10.498  0.4535  1.6109 -0.6293
 1024MOL0     H35108   3.791  10.884  10.419  0.1592 -0.8326  1.2870
 1024MOL0     H35109   3.868  11.003  10.188  1.2307  1.2033  0.9043
 1024MOL0     H35110   3.917  11.138  10.290  0.1790  0.5249  2.8335
 1024MOL0     H35111   3.632  11.028  10.310  0.7207 -1.2921 -1.9373
 1024MOL0     H35112   3.704  11.164  10.387 -1.0597  0.1763 -0.3653
 1024MOL0     H35113   3.740  11.278  10.167 -0.5399 -0.3317 -2.9209
 1024MOL0     H35114   3.574  11.249  10.228 -0.5528 -0.6464  0.3880
 1024MOL0     H35115   3.714  11.107   9.994 -1.0054  0.9996 -3.1418
 1024MOL0     H35116   3.583  11.222   9.988  0.3579 -0.9165 -1.2232
 1024MOL0     H35117   3.475  11.039   9.952 -2.1174  0.7410  1.2718
 1024MOL0     H35118   3.546  10.937  10.068 -2.7043 -1.7622 -1.7077
 1024MOL0     H35119   3.425  11.080  10.250 -0.5542  1.0210 -0.1175
 1024MOL0     H35120   3.321  10.992  10.129  0.3990 -0.1241 -1.7532
 1024MOL0     H35121   3.458  11.372  10.119  0.5531  0.8226 -2.9055
 1024MOL0     H35122   3.143  11.554   9.982 -1.2657 -0.2688  0.3945
 1024MOL0     H35123   3.323  11.582   9.991  0.4140  0.7192  1.9039
 1024MOL0     H35124   3.302  11.561  10.243 -1.2027  2.2697  1.1930
 1024MOL0     H35125   3.120  11.555  10.225 -1.7106  3.6434  1.0804
 1024MOL0     H35126   3.316  11.774  10.154  0.2989  0.9060  1.0433
 1024MOL0     H35127   3.132  11.788  10.143 -2.1751 -2.3563  3.5106
 1024MOL0     H35128   3.273  11.715  10.400 -0.3015  1.9040  2.4863
 1024MOL0     H35129   3.103  11.760  10.383  0.4745 -1.5250  1.4865
 1024MOL0     H35130   3.011  11.951  10.244  1.7583  0.7973 -0.2891
 1024MOL0     H35131   2.835  12.110  10.336  0.0357 -3.5920 -1.9816
 1024MOL0     H35132   2.938  12.514  10.818  3.0491  0.7866 -3.7732
 1024MOL0     H35133   2.802  12.718  10.884  1.7318  0.0361 -0.1438
 1024MOL0     H35134   2.417  12.716  10.699 -0.1402  1.1058 -2.1178
 1024MOL0     H35135   2.460  12.854  10.600  0.9898  3.0558  0.8000
 1024MOL0     H35136   2.392  13.021  10.726 -1.7157 -1.0330 -0.9775
 1024MOL0     H35137   2.452  12.952  10.876  0.8617  0.6664 -1.0659
 1024MOL0     H35138   2.271  12.790  10.894 -0.6677  0.9909  1.1067
 1024MOL0     H35139   2.195  12.839  10.738 -1.1498  0.7428  0.1698
 1024MOL0     H35140   2.237  13.039  10.968 -1.6168 -2.1083  1.8351
 1024MOL0     H35141   2.174  13.058  10.813 -0.6091 -0.0844  0.1648
 1024MOL0     H35142   1.983  12.909  10.858 -2.0482 -1.3315  2.0826
 1024MOL0     H35143   1.996  13.048  10.963  2.0544  1.1147 -3.2113
 1024MOL0     H35144   2.037  12.758  11.015  0.5464  1.2328 -3.5434
 1024MOL0     H35145   1.918  12.854  11.089  0.1109 -4.2875  1.2279
 1024MOL0     H35146   2.222  12.881  11.121  0.2925 -2.2983  1.0373
 1024MOL0     H35147   2.100  12.991  11.207  0.6727  0.5406 -1.1240
 1024MOL0     H35148   2.179  12.792  11.342 -2.0489 -1.6992  2.4172
 1024MOL0     H35149   2.077  12.693  11.242 -1.0383 -0.7526 -0.6861
 1024MOL0     H35150   2.558  12.653  10.524 -1.4884 -2.1170  1.4463
 1024MOL0     H35151   2.701  12.451  10.469  0.2050  1.1989 -1.2984
 1024MOL0     H35152   3.138  12.243  10.625  0.8441 -1.7131  0.1537
 1024MOL0     H35153   3.281  12.076  10.537 -1.3211 -1.4867  1.1895
 1024MOL0     H35154   4.308  11.115  10.457  1.3101  0.0069 -0.0757
 1024MOL0     H35155   4.531  11.068  10.426 -0.8246  0.4797  3.6772
 1024MOL0     H35156   4.876  10.947  10.300  1.3797 -0.3764 -3.8681
 1024MOL0     H35157   5.118  10.929  10.264 -0.9798  0.3188 -0.5992
 1024MOL0     H35158   5.315  10.574  10.264  0.9995 -0.0252 -3.2347
 1024MOL0     H35159   5.360  10.639  10.430 -3.6680  0.2014 -0.5143
 1024MOL0     H35160   5.510  10.802  10.286 -1.4546  0.2238 -0.0795
 1024MOL0     H35161   5.557  10.626  10.308 -0.3252  0.0398 -1.6699
 1024MOL0     H35162   5.390  10.739  10.081  0.0373  1.9448  3.3014
 1024MOL0     H35163   5.471  10.571  10.087  0.7026 -0.0227 -1.1637
 1024MOL0     H35164   5.677  10.675  10.086  1.8583  0.6952 -0.2346
 1024MOL0     H35165   5.606  10.711   9.930  0.4479  1.2813 -0.0582
 1024MOL0     H35166   5.631  11.101  10.098  2.7940  0.0507 -1.7397
 1024MOL0     H35167   5.122  10.530  10.397  1.8883  2.6796  4.4815
 1024MOL0     H35168   4.888  10.524  10.425  2.2284  0.2314  0.8069
  11.32519  11.32519  11.32519
